default_name
299333
  94.6339752  64.3967248  80.5196104  94.1466049  63.6557463  80.0363698
  95.6394260  64.4665076  80.4540463  94.1469752  65.7077248  80.0546104
  93.3817308  65.5558397  79.2934059  94.9786681  66.2672060  79.6263959
  93.6009752  66.3547248  81.3046104  92.5133488  66.3769621  81.2362540
  93.9818391  67.3744184  81.3617833  94.0579752  65.5477248  82.4776104
  93.2769020  65.5325932  83.2377386  94.9866960  65.9094980  82.9188562
  94.2619752  64.1387248  81.9126104  95.0883826  63.6072689  82.3845250
  92.9769752  63.3067248  82.0446104  92.0169752  63.5347248  81.3016104
  92.9689752  62.3697248  82.9946104  93.7835463  62.2658031  83.5826356
  91.8449752  61.4377248  83.1876104  91.5159636  61.0555668  82.2212741
  92.2649752  60.2497248  84.0686104  92.6234166  60.6384553  85.0217671
  91.3947731  59.6159506  84.2394281  93.3659752  59.4057248  83.4426104
  93.5319752  59.3687248  82.2216104  94.1229752  58.7177248  84.2846104
  94.8704724  58.1388096  83.9293570  93.9490649  58.7753367  85.2778560
  90.6319752  62.1367248  83.8046104  90.7789752  63.1437248  84.4996104
  89.4469752  61.5747248  83.5576104  89.4273714  60.7076281  83.0400601
  88.1609752  62.2127248  83.9036104  88.1868714  63.1797096  83.4012471
  87.0019752  61.4007248  83.3376104  86.9574348  60.4330368  83.8373066
  86.0674534  61.9372023  83.5018085  87.1509873  61.2503977  82.2683600
  87.9389752  62.4737248  85.4026104  87.2699752  63.4487248  85.7666104
  88.4909752  61.6047248  86.2556104  88.9430607  60.7811937  85.8847808
  88.4129752  61.7597248  87.7186104  87.3710988  61.8516233  88.0254448
  89.0259752  60.5387248  88.4216104  90.0613828  60.4740225  88.0871795
  89.0025373  60.7504563  89.4905914  88.3079752  59.1897248  88.1456104
  88.5300007  58.5497438  88.9995599  87.2451293  59.4314399  88.1399946
  88.6719752  58.4557248  86.8486104  89.5569752  58.9467248  86.1136104
  88.0569752  57.3907248  86.6176104  89.0909752  63.0337248  88.2426104
  88.6229752  63.6197248  89.2166104  90.1719752  63.4587248  87.5836104
  90.4503067  62.9619578  86.7494321  91.0149752  64.5757248  88.0456104
  90.8362308  64.7750883  89.1022105  92.4999752  64.2037248  87.8586104
  92.7122654  64.2215881  86.7896328  93.0996151  64.9632014  88.3603348
  92.8469752  62.8237248  88.4246104  92.3859752  62.4967248  89.5386104
  93.5839752  62.0677248  87.7536104  90.7379752  65.9267248  87.3466104
  91.4949752  66.8807248  87.5406104  89.6569752  66.0207248  86.5646104
  89.0089947  65.2475497  86.5154088  89.4119752  67.1947248  85.7046104
  90.3623164  67.5935894  85.3498458  88.5559752  66.8117248  84.4886104
  87.7312587  66.1984270  84.8516638  88.1619719  67.7352599  84.0644120
  89.3209752  66.0497248  83.4196104  90.1627190  66.6715089  83.1147287
  89.6938047  65.1327688  83.8760007  88.3369752  65.6317248  81.9686104
  88.1899752  67.2327248  81.1786104  89.1828840  67.6110132  80.9354457
  87.6049991  67.1348652  80.2641012  87.6924672  67.9278629  81.8549018
  88.7509752  68.3727248  86.4286104  87.8379752  68.1867248  87.2326104
  89.2269752  69.5807248  86.1196104  90.0757830  69.6271826  85.5742056
  88.6199752  70.8377248  86.5696104  87.8865684  70.6494366  87.3536775
  89.7029752  71.7977248  87.1246104  89.2171092  72.6970268  87.5031474
  90.4889752  71.1297248  88.2536104  90.9755336  70.2305367  87.8756932
  91.2440690  71.8202166  88.6293145  89.8083476  70.8616185  89.0616733
  90.6089752  72.1817248  86.0806104  91.2741012  72.7754865  86.4364963
  87.8569752  71.4827248  85.3946104  87.7399752  70.8757248  84.3236104
  87.3349752  72.6977248  85.5956104  87.3239158  73.0780447  86.5312031
  86.6499752  73.4497248  84.5266104  85.8969870  72.8150550  84.0593822
  85.9559752  74.7027248  85.0906104  85.4664607  75.2231832  84.2674471
  85.2064651  74.3828260  85.8144884  86.8769752  75.5757248  85.7196104
  86.4102721  76.3433119  86.0581337  87.5279752  73.8307248  83.3076104
  86.9839752  74.0437248  82.2176104  88.8379752  73.9797248  83.5366104
  89.1710537  73.8769945  84.4845579  89.8069752  74.3227248  82.4936104
  89.3733657  75.0540780  81.8115514  91.0719752  74.9237248  83.1166104
  91.4560901  74.1942587  83.8296562  91.7936141  75.0582310  82.3108527
  90.8469752  76.2527248  83.8226104  90.6172964  77.0067494  83.0697523
  89.9980151  76.1434659  84.4974668  92.0729752  76.6847248  84.6156104
  92.3238879  75.8909033  85.3191651  92.8994504  76.8270514  83.9193480
  91.8239752  77.9787248  85.3786104  91.6654073  78.7725133  84.6486401
  90.9204649  77.8476290  85.9740784  92.9589752  78.3457248  86.2726104
  93.7961923  78.4676689  85.7209792  92.7438995  79.2076421  86.7531735
  93.1057984  77.6105060  86.9493640  90.1729752  73.0927248  81.6646104
  90.3959752  73.1927248  80.4566104  90.2449752  71.9347248  82.3166104
  90.2018605  71.9082016  83.3253408  90.4229752  70.6807248  81.6006104
  91.2944978  70.7520564  80.9498728  90.6339752  69.5207248  82.5746104
  89.8256770  69.5491494  83.3053260  90.5802826  68.5897649  82.0102251
  91.9649752  69.5997248  83.2916104  92.9779752  69.9057248  82.6296104
  92.0039752  69.3527248  84.5136104  89.1919752  70.4337248  80.7366104
  89.2879752  69.8847248  79.6396104  88.0329752  70.8487248  81.2386104
  87.9873742  71.1858269  82.1896004  86.7929752  70.7617248  80.4756104
  86.7320771  69.7916100  79.9823884  85.5789752  70.9197248  81.3966104
  85.8311907  71.7166585  82.0961698  84.7273709  71.2261972  80.7892022
  85.2229752  69.6637248  82.1686104  85.0799752  68.4447248  81.5216104
  85.2312395  68.4018343  80.4430099  84.7519752  67.2977248  82.2196104
  84.6540514  66.3452326  81.6987731  84.5479752  67.3627248  83.5766104
  84.2179752  66.2227248  84.2666104  84.1582900  65.4474910  83.7035385
  84.6739752  68.5607248  84.2426104  84.5154147  68.6101598  85.3198825
  85.0029752  69.7037248  83.5396104  85.0936495  70.6568466  84.0606067
  86.7499752  71.7997248  79.3476104  86.0949752  71.5817248  78.3246104
  87.4409752  72.9247248  79.5396104  87.8063158  73.1387478  80.4565727
  87.6379752  73.9047248  78.4666104  86.7851486  73.8734740  77.7885180
  87.7689752  75.3247248  79.0226104  87.7727246  75.2490037  80.1099703
  88.7246059  75.7245351  78.6834618  86.6529752  76.2477248  78.5856104
  85.3199752  75.9067248  78.7896104  85.0894055  74.9588966  79.2759836
  84.2949752  76.7457248  78.3876104  83.2548641  76.4639817  78.5515968
  84.5969752  77.9447248  77.7706104  83.5779752  78.7877248  77.3676104
  82.7046029  78.4417119  77.5653363  85.9149752  78.3057248  77.5596104
  86.1543062  79.2525573  77.0755347  86.9319752  77.4597248  77.9656104
  87.9723803  77.7398622  77.8007458  88.8679752  73.5497248  77.6346104
  89.6249752  74.4297248  77.2096104  89.0589752  72.2457248  77.4406104
  88.5064962  71.6035338  77.9905713  90.0369752  71.6927248  76.5036104
  90.0724492  72.3158156  75.6099670  91.4399752  71.6417248  77.1216104
  91.4007204  71.1054981  78.0697767  92.1355240  71.1394608  76.4492691
  92.0279752  72.9957248  77.4166104  92.0539752  73.9837248  76.4426104
  91.6422529  73.7688244  75.4565057  92.5939752  75.2297248  76.7106104
  92.6031504  75.9984853  75.9379373  93.1219752  75.4987248  77.9596104
  93.5483312  76.4783178  78.1757537  93.1079752  74.5207248  78.9356104
  93.5238051  74.7288944  79.9214355  92.5659752  73.2767248  78.6616104
  92.5590706  72.5039459  79.4302879  89.5629752  70.2867248  76.1226104
  90.1119752  69.6547248  75.2196104  88.5309752  69.8227248  76.8316104
  88.1747316  70.3992347  77.5804936  87.9299752  68.5007248  76.6256104
  87.9695848  68.2390772  75.5682217  88.6869752  67.4337248  77.4226104
  89.7532847  67.6061017  77.2764272  88.4396816  67.5628401  78.4763063
  88.3389752  66.0187248  76.9906104  87.5609752  65.8697248  76.0256104
  88.8409752  65.0597248  77.6186104  86.4389752  68.5367248  77.0206104
  86.0149752  67.9637248  78.0266104  85.6749752  69.2367248  76.1896104
  86.1681495  69.6882031  75.4326125  84.2089752  69.4207248  76.2806104
  83.9612404  69.9382488  77.2073765  83.6929752  70.2487248  75.1066104
  83.9875554  69.7600192  74.1779077  82.6054306  70.2953481  75.1629401
  84.2189752  71.5497248  75.1376104  83.8805587  72.0495634  74.3911284
  83.4109752  68.1317248  76.2876104  82.4299752  68.0167248  77.0136104
  83.8239752  67.1767248  75.4586104  84.5554252  67.3770375  74.7915609
  83.1529752  65.8747248  75.3846104  82.0723993  66.0161965  75.4056008
  83.5279752  65.1437248  74.0836104  84.5878190  65.3213991  73.9012308
  83.3604156  64.0781173  74.2401496  82.7259752  65.6097248  72.8886104
  81.3729752  65.3007248  72.7776104  80.9024605  64.7144583  73.5669183
  80.6279752  65.7227248  71.6926104  79.5665253  65.4842880  71.6249803
  81.2329752  66.4597248  70.6986104  80.4919752  66.8627248  69.6206104
  79.5766641  66.5769181  69.6666504  82.5719752  66.7807248  70.7766104
  83.0477347  67.3649578  69.9889397  83.3129752  66.3547248  71.8666104
  84.3725621  66.6010573  71.9351384  83.3719752  64.9657248  76.6096104
  82.7329752  63.9197248  76.7096104  84.2609752  65.3547248  77.5276104
  84.8972316  66.1086580  77.3111342  84.4139752  64.6617248  78.8146104
  84.4682618  63.5991055  78.5779832  85.7119752  65.0757248  79.4946104
  85.6691311  66.1354881  79.7459391  85.8479534  64.4921230  80.4051153
  86.5493180  64.8963420  78.8202379  83.2319752  64.8647248  79.7736104
  83.0499752  64.0727248  80.7016104  82.4529752  65.9247248  79.5646104
  82.6902106  66.5773223  78.8311697  81.2449752  66.1747248  80.3516104
  81.4968860  66.1733044  81.4121000  80.6199752  67.5317248  79.9976104
  80.6957735  67.6738435  78.9195769  79.5724506  67.5724315  80.2961655
  81.2919752  68.7077248  80.6326104  81.5359752  69.8807248  79.9466104
  81.3047908  70.0391486  78.9762726  82.1139752  70.7487248  80.7596104
  82.3889774  71.7421648  80.4052804  82.2529752  70.1817248  81.9456104
  82.6654761  70.6077642  82.7631881  81.7429752  68.9067248  81.8936104
  81.7615654  68.2756459  82.7821458  80.1939752  65.1087248  80.0776104
  79.8659752  64.8667248  78.9176104  79.6509752  64.5137248  81.1426104
  80.0326704  64.6780680  82.0631534  78.5909752  63.5117248  80.9986104
  78.8937568  62.7858220  80.2439664  78.3039752  62.7607248  82.3196104
  77.5797183  61.9593252  82.1736314  79.2448841  62.3393888  82.6735405
  77.7709752  63.6267248  83.4366104  76.4239752  63.9447248  83.5156104
  75.7445237  63.5678511  82.7511421  75.9399752  64.7267248  84.5436104
  74.8810949  64.9825988  84.5810491  76.7949752  65.1847248  85.5236104
  76.4162194  65.7995113  86.3401160  78.1349752  64.8617248  85.4676104
  78.8141146  65.2233249  86.2396954  78.6159752  64.0817248  84.4356104
  79.6726056  63.8165037  84.3996948  77.3199752  64.1267248  80.4096104
  76.5929752  63.4527248  79.6846104  77.0709752  65.3987248  80.7246104
  77.7276721  65.8913280  81.3129901  75.8909752  66.1137248  80.2576104
  75.0164008  65.5931000  80.6476983  75.9305523  67.1197633  80.6752460
  75.7759752  66.2097248  78.7536104  74.6649752  66.1807248  78.2246104
  76.9169752  66.3037248  78.0676104  77.7934507  66.3738864  78.5645687
  76.9419752  66.3607248  76.6036104  76.2350535  67.1012099  76.2293877
  78.3579752  66.6697248  76.0466104  79.0532870  65.9174344  76.4190364
  78.3589752  66.6517248  74.5186104  77.6641925  67.4041234  74.1454163
  79.3620819  66.8709655  74.1528082  78.0513643  65.6672286  74.1661307
  78.8969752  68.0207248  76.5756104  78.9302004  67.9325955  77.6615340
  79.9111820  68.1180799  76.1883043  78.0899752  69.2467248  76.1926104
  77.0757094  69.1503009  76.5799955  78.5568174  70.1363036  76.6154663
  78.0566892  69.3357839  75.1067649  76.4379752  65.0337248  76.0276104
  75.5889752  65.0207248  75.1336104  76.9559752  63.9297248  76.5556104
  77.7161897  64.0048623  77.2163128  76.5449752  62.5957248  76.1206104
  76.4850519  62.5639396  75.0327234  77.5569752  61.5457248  76.5856104
  77.6796946  61.6623614  77.6623811  77.2565199  60.5217656  76.3634973
  78.9079752  61.7357248  75.9786104  79.2509752  61.2087248  74.7556104
  78.6434013  60.6392777  74.1840479  80.4879752  61.5657248  74.4576104
  80.9524232  61.2355777  73.5284226  80.9509752  62.3187248  75.4366104
  81.8697462  62.7356513  75.4827852  79.9779752  62.4497248  76.3956104
  80.1666434  63.0512301  77.2848217  75.1279752  62.2517248  76.5626104
  74.4079752  61.5517248  75.8516104  74.7299752  62.7657248  77.7206104
  75.4051441  63.2193025  78.3193705  73.3509752  62.6447248  78.1966104
  73.0850218  61.5930826  78.3034588  73.2009752  63.3277248  79.5576104
  74.0387361  63.0047161  80.1756084  73.2676211  64.4025612  79.3891317
  71.8969752  63.0067248  80.2656104  71.0894394  63.3214687  79.6046090
  71.8462249  61.9278149  80.4121608  71.7559752  63.7037248  81.6006104
  72.7839752  64.0627248  82.2316104  70.5979752  63.8787248  82.0246104
  72.3419752  63.2317248  77.1976104  71.3389752  62.5907248  76.8796104
  72.6209752  64.4427248  76.7156104  73.4125885  64.9449254  77.0914327
  71.7959752  65.1047248  75.7036104  70.7664651  65.1728755  76.0551264
  72.3169752  66.5297248  75.4246104  72.3880133  67.0412527  76.3845021
  73.3124286  66.4305929  74.9917761  71.4289752  67.3407248  74.4796104
  71.3719676  66.7878993  73.5419351  70.4391013  67.3883604  74.9334603
  71.9299752  68.7517248  74.2066104  73.0289752  69.1287248  74.6786104
  71.2089752  69.4957248  73.5066104  71.7429752  64.3077248  74.3916104
  70.6909752  64.2217248  73.7576104  72.8859752  63.7547248  73.9866104
  73.7327514  63.9433938  74.5037888  72.9789752  62.9277248  72.7756104
  72.5191944  63.4537383  71.9389441  74.4479752  62.6287248  72.4216104
  74.9406887  62.3172624  73.3426554  74.4428924  61.7992547  71.7144658
  75.2009752  63.8067248  71.8166104  74.5827771  64.2212190  71.0202898
  75.3323515  64.5533087  72.5998440  76.8209752  63.3607248  71.1416104
  77.7449752  63.0107248  72.6316104  77.2654264  62.1960344  73.1742074
  78.7628344  62.7222543  72.3692210  77.7708047  63.9001987  73.2611103
  72.2059752  61.6187248  72.9246104  71.4969752  61.2117248  72.0096104
  72.3519752  60.9697248  74.0756104  73.0027511  61.3248042  74.7615467
  71.6689752  59.6997248  74.3556104  71.7609022  59.0319287  73.4990492
  72.2949752  59.0187248  75.5766104  72.3005044  59.8060515  76.3303911
  71.6500283  58.2045342  75.9071208  73.7219752  58.4917248  75.3776104
  74.2667775  59.1993689  74.7526855  74.4479752  58.3247248  76.7066104
  73.9039782  57.6168215  77.3319415  75.4554627  57.9498376  76.5262514
  74.5046281  59.2878685  77.2138036  73.7159752  57.1827248  74.6016104
  73.2625997  57.3418244  73.6232253  74.7396265  56.8305793  74.4742021
  73.1413951  56.4368197  75.1507755  70.1529752  59.8597248  74.5486104
  69.3879752  58.9837248  74.1456104  69.7269752  60.9667248  75.1606104
  70.3911104  61.5549300  75.6433509  68.2929752  61.2947248  75.2706104
  67.7275202  60.3866127  75.4796376  68.0409752  62.2977248  76.3976104
  68.7664432  63.1057884  76.3036490  67.0342421  62.6983537  76.2789311
  68.1719752  61.6577248  77.7666104  67.4437599  60.8488770  77.8263469
  69.1782941  61.2465333  77.8462716  67.9349752  62.6347248  78.8996104
  68.6822349  63.4269756  78.8544366  66.9399779  63.0683257  78.7992614
  68.0409752  61.9147248  80.2326104  67.1632685  61.2769069  80.3371088
  68.9379981  61.2960504  80.2063224  68.1159752  62.8457248  81.3866104
  67.2846689  63.4187997  81.4114021  68.1848297  62.3151627  82.2432684
  68.9294468  63.4365433  81.2901912  67.6529752  61.7797248  73.9636104
  66.4249752  61.8247248  73.8636104  68.4729752  62.1477248  72.9786104
  69.4489005  62.3075235  73.1838753  68.0029752  62.3837248  71.6106104
  67.0962737  62.9884354  71.6284044  69.0789752  63.1327248  70.7986104
  69.3344793  64.0327414  71.3578840  69.9541500  62.4864302  70.7317336
  68.6229752  63.5197248  69.3916104  67.5869752  63.0177248  68.9016104
  69.3269752  64.3417248  68.7626104  67.6599752  61.0207248  70.9916104
  68.5289752  60.3307248  70.4576104  66.3869752  60.6437248  71.0796104
  65.7140125  61.2596980  71.5129665  65.9379752  59.3097248  70.6536104
  66.6551011  58.5590425  70.9857336  64.5699752  58.9777248  71.2526104
  63.9158256  59.8321249  71.0788635  64.1790104  58.1081145  70.7243827
  64.6299752  58.6807248  72.7416104  65.1996317  57.7612715  72.8765104
  65.1558388  59.5068608  73.2202188  63.2609752  58.5227248  73.3696104
  63.0789752  58.9987248  74.5106104  62.3679752  57.9287248  72.7246104
  65.8999752  59.1237248  69.1386104  66.2049752  58.0397248  68.6536104
  65.5259752  60.1707248  68.4036104  65.1812053  61.0006611  68.8645212
  65.5329752  60.1417248  66.9336104  64.9077153  59.3411252  66.5384021
  65.0479752  61.4887248  66.3386104  65.5538555  62.2970310  66.8666497
  65.3459752  61.5927248  64.8426104  64.8400200  60.7849622  64.3138100
  64.9897049  62.5517215  64.4664492  66.4209543  61.5157377  64.6795315
  63.5559752  61.6717248  66.5986104  63.3707873  61.6688578  67.6727609
  63.2267935  62.6211068  66.1762211  63.0027638  60.8561495  66.1328906
  66.9359752  59.7997248  66.4196104  67.0979752  58.9427248  65.5466104
  67.9359752  60.4777248  66.9776104  67.7198930  61.2178593  67.6299973
  69.3389752  60.2207248  66.6616104  69.5155567  60.3485952  65.5936369
  70.2229752  61.2077248  67.4246104  69.8780601  62.2054408  67.1531413
  70.0357933  61.0350110  68.4844372  71.7139752  61.0947248  67.1486104
  71.9765735  60.0422114  67.0420341  71.9446347  61.6217563  66.2227940
  72.5139752  61.7037248  68.2916104  73.4814968  62.0487282  67.9269550
  71.9683437  62.5431504  68.7225980  72.7369752  60.6997248  69.3396104
  71.9158917  60.4204480  69.8572258  73.9049752  60.1287248  69.6416104
  75.0229752  60.4667248  69.0116104  74.9979094  61.1700077  68.2871348
  75.8937847  60.0191310  69.2595021  73.9569752  59.2147248  70.6076104
  73.1148540  58.9603924  71.1038431  74.8383195  58.7796270  70.8400343
  69.7569752  58.7917248  67.0106104  70.1759752  58.0377248  66.1386104
  69.6309752  58.4327248  68.2846104  69.1953791  59.0674598  68.9384199
  70.2049752  57.1907248  68.8016104  71.2223875  57.0683553  68.4301307
  70.2399752  57.1897248  70.3496104  69.2152316  57.1673598  70.7204211
  70.9999752  55.9817248  70.8846104  72.0250081  56.0036516  70.5145748
  71.0069193  56.0095853  71.9742318  70.5122814  55.0668136  70.5481689
  70.8759752  58.3867248  70.8196104  70.8959352  58.3827716  71.7793949
  69.4839752  55.9457248  68.2656104  70.1469752  54.9827248  67.8666104
  68.1469752  55.9767248  68.2376104  67.6571923  56.7639193  68.6382807
  67.3519752  54.8467248  67.7246104  67.7372059  53.9212320  68.1525818
  65.8629752  54.9707248  68.0826104  65.5953394  55.9564809  67.7021433
  65.3362865  54.2061375  67.5115542  65.4669752  54.8687248  69.5576104
  65.9860941  55.6400808  70.1264920  63.9639752  55.0607248  69.6976104
  63.4441415  54.2894042  69.1293356  63.6841727  54.9877283  70.7485542
  63.6854517  56.0427714  69.3153676  65.8839752  53.5347248  70.1616104
  66.9659590  53.4246886  70.0887911  65.5855125  53.5005501  71.2093954
  65.3994048  52.7225820  69.6196560  67.4909752  54.6387248  66.2146104
  67.3929752  53.4967248  65.7516104  67.6999752  55.7137248  65.4506104
  67.6305768  56.6402247  65.8466926  67.9579752  55.5897248  64.0086104
  67.1927418  54.9528880  63.5648133  67.9419752  56.9567248  63.2876104
  68.6689774  57.6120786  63.7672765  68.2919752  56.8047248  61.8086104
  67.5650934  56.1498295  61.3281371  68.2727124  57.7827452  61.3277736
  69.2882413  56.3729732  61.7129803  66.6359752  57.5427248  63.3926104
  66.6290637  58.3914353  62.9440093  69.2939752  54.8777248  63.7586104
  69.3859752  54.0227248  62.8736104  70.3159752  55.2367248  64.5346104
  70.2463473  56.0683967  65.1034453  71.5899752  54.5107248  64.5176104
  71.9575273  54.4668467  63.4923888  72.6599752  55.1867248  65.3956104
  72.1399343  55.6486910  66.2348028  73.3227928  54.4045393  65.7656899
  73.4769752  56.2387248  64.6656104  73.0419752  57.5587248  64.5836104
  72.0994984  57.8279266  65.0604409  73.7809752  58.5237248  63.9126104
  73.4290809  59.5541640  63.8629399  74.9719752  58.1727248  63.3146104
  75.6969752  59.1257248  62.6486104  75.2823662  59.9914336  62.6643341
  75.4289752  56.8657248  63.3776104  76.3689398  56.5878603  62.9007893
  74.6849752  55.9107248  64.0506104  75.0411222  54.8820563  64.1062922
  71.3859752  53.0537248  64.9326104  71.8919752  52.1507248  64.2616104
  70.6319752  52.8207248  66.0076104  70.2806748  53.5824604  66.5701459
  70.3699752  51.4467248  66.4546104  71.3201102  50.9232576  66.5610285
  69.6339752  51.4017248  67.7956104  70.0894919  52.1404049  68.4551220
  68.5921042  51.6679170  67.6174347  69.7019752  50.0267248  68.4496104
  69.3190306  49.2966120  67.7365960  70.7479983  49.8090360  68.6653637
  68.8949752  49.9517248  69.7326104  69.1436698  49.0256834  70.2509707
  69.1564379  50.8017630  70.3628260  67.4509752  49.9777248  69.4846104
  67.1580866  49.9522522  68.5183461  66.5129752  50.0247248  70.4336104
  66.8409752  50.0527248  71.7256104  67.8137390  50.0383375  71.9969472
  66.1151786  50.0881926  72.4270810  65.2309752  50.0517248  70.0896104
  64.9728290  50.0365797  69.1132748  64.5197326  50.0872877  70.8058282
  69.5929752  50.6477248  65.4036104  69.9389752  49.5037248  65.1246104
  68.5599752  51.2577248  64.8266104  68.2755881  52.1692131  65.1558708
  67.7549752  50.6127248  63.7846104  67.3786492  49.6585072  64.1533200
  66.5579752  51.4927248  63.3876104  66.9148567  52.5077339  63.2129930
  66.1282933  51.0959443  62.4678068  65.4689752  51.5357248  64.4556104
  65.5189752  50.8157248  65.4526104  64.4799752  52.3887248  64.2446104
  63.7292594  52.4629368  64.9161892  64.4802246  52.9617824  63.4129219
  68.5659752  50.2397248  62.5406104  68.3319752  49.1887248  61.9536104
  69.5229752  51.0837248  62.1556104  69.6249063  51.9732159  62.6230662
  70.3899752  50.7987248  61.0026104  69.7743979  50.6211161  60.1207834
  71.3329752  51.9737248  60.7136104  71.7858958  51.8206985  59.7340466
  70.7469931  52.8927506  60.7028191  72.3519752  52.0747248  61.6946104
  72.9239978  52.8170846  61.4865434  71.2009752  49.5047248  61.1746104
  71.4329752  48.7877248  60.2036104  71.6039752  49.2077248  62.4086104
  71.4349732  49.8650420  63.1565888  72.3489752  47.9837248  62.7146104
  72.9190194  47.6725428  61.8392164  73.3239752  48.2167248  63.8776104
  72.7304830  48.2936068  64.7886293  73.9713058  47.3419173  63.9390525
  74.1759752  49.4677248  63.7206104  74.5926676  49.4489729  62.7135768
  73.5105498  50.3250633  63.8220097  75.5159752  49.6147248  64.9126104
  75.5729752  51.3967248  65.0816104  74.6113359  51.7586504  65.4454217
  76.3550936  51.6702084  65.7898464  75.7872380  51.8474403  64.1125654
  71.3989752  46.8267248  63.0366104  71.5119752  45.7487248  62.4436104
  70.4589752  47.0607248  63.9526104  70.3972580  47.9800849  64.3662132
  69.5589752  46.0027248  64.4586104  70.1515100  45.1481824  64.7853504
  68.7209752  46.5057248  65.6506104  68.4219043  47.5439356  65.5064784
  67.8321278  45.8804467  65.7347390  69.4249752  46.4397248  66.9886104
  70.8169752  46.5367248  67.1066104  71.4206828  46.6550246  66.2068092
  71.4299752  46.4837248  68.3526104  72.5156062  46.5483654  68.4256013
  70.6629752  46.3487248  69.5036104  71.1448132  46.3096072  70.4805454
  69.2819752  46.2637248  69.4076104  68.6758639  46.1603558  70.3076349
  68.6699752  46.3107248  68.1576104  67.5846788  46.2465811  68.0793985
  68.6289752  45.4157248  63.3926104  68.3789752  44.2107248  63.3996104
  68.1279752  46.2587248  62.4896104  68.2762515  47.2515975  62.6005935
  67.2829752  45.7997248  61.3756104  66.7119704  44.9251242  61.6872617
  66.2999752  46.8987248  60.9406104  66.8486776  47.7675621  60.5770906
  65.6489696  46.5241797  60.1506688  65.4049752  47.3857248  62.0386104
  64.9749752  46.7837248  63.1726104  64.1649752  47.6807248  63.8266104
  63.7043531  47.4077255  64.7760300  64.0959752  48.7927248  63.1186104
  63.5687382  49.6226189  63.3496877  64.8419752  48.6447248  62.0366104
  64.9279045  49.4599405  61.3181810  68.0639752  45.3027248  60.1436104
  67.4479752  44.9437248  59.1446104  69.3989752  45.2887248  60.2076104
  69.8455872  45.6387073  61.0431637  70.2509752  44.8277248  59.1036104
  69.6809651  44.1784363  58.4390713  70.7629752  46.0267248  58.2966104
  71.3438329  46.6663637  58.9611144  71.4025539  45.6632275  57.4923039
  69.6459752  46.8457248  57.6926104  69.1849752  46.5557248  56.5976104
  69.2099752  47.8777248  58.4026104  68.4646549  48.4560937  58.0419350
  69.6252965  48.0804525  59.3006697  71.4329752  44.0077248  59.6316104
  72.5829752  44.2557248  59.2686104  71.1329752  43.0217248  60.4776104
  70.1668153  42.8851980  60.7383685  72.1559752  42.1647248  61.1086104
  72.8688281  42.7842199  61.6528216  71.5089752  41.1807248  62.0936104
  70.7018122  40.6741150  61.5645229  72.2708150  40.4537102  62.3749464
  70.9569752  41.8437248  63.3426104  71.7892178  42.0341474  64.0202625
  70.5031406  42.7906624  63.0503000  69.9219752  40.9817248  64.0426104
  69.2754508  40.5209048  63.2957838  70.4300720  40.2036971  64.6123560
  69.0919752  41.7707248  64.9606104  68.1702368  42.0080988  64.6227477
  69.4509752  42.1857248  66.1796104  70.6569752  41.9127248  66.6836104
  71.3201820  41.3807905  66.1383556  70.9004589  42.2394111  67.6077811
  68.5869752  42.8907248  66.9056104  67.6736147  43.1043774  66.5311440
  68.8484980  43.2089551  67.8278002  73.0079752  41.3857248  60.1076104
  74.1859752  41.1297248  60.3726104  72.4169752  41.0087248  58.9726104
  71.4142212  41.0947693  58.8878755  73.1549752  40.3367248  57.8876104
  73.6193278  39.4308885  58.2774007  72.2209752  39.9487248  56.7146104
  72.7369373  39.3123586  55.9956386  71.3645322  39.4130946  57.1241293
  71.6699752  41.1127248  55.9406104  70.6599752  41.9227248  56.4216104
  70.3739752  42.8507248  55.5226104  69.6050450  43.5975715  55.7202596
  71.1519752  42.6647248  54.4706104  71.1547355  43.2214811  53.6279274
  71.9679752  41.5817248  54.7036104  72.6821334  41.2639896  53.9439238
  74.3679752  41.1357248  57.3916104  75.3879752  40.5487248  57.0386104
  74.2569752  42.4637248  57.3936104  73.3640602  42.8857160  57.6050943
  75.3709752  43.3417248  57.0296104  75.8579648  42.9650197  56.1301474
  74.8689752  44.7667248  56.7556104  74.4452737  45.0636647  57.7149867
  75.7411893  45.3830962  56.5378288  73.8199752  44.9577248  55.6526104
  72.9095624  44.4209154  55.9192283  73.5089752  46.4377248  55.5006104
  74.4188767  46.9751656  55.2335231  72.7636703  46.5743067  54.7170501
  73.1210338  46.8265684  56.4420999  74.2709752  44.3677248  54.3216104
  74.4480172  43.2986091  54.4388593  73.4961001  44.5270768  53.5717593
  75.1917994  44.8549503  54.0009967  76.4739752  43.3797248  58.0956104
  77.6349752  43.6167248  57.7696104  76.1079752  43.1497248  59.3576104
  75.1297933  42.9987527  59.5587743  77.0519752  43.2047248  60.4856104
  77.9519766  43.7456496  60.1932115  76.4079752  43.9307248  61.6756104
  75.3694972  43.6137771  61.7715621  76.9391833  43.7188771  62.6035321
  76.3889752  45.4177248  61.5236104  75.3789752  46.0407248  60.8046104
  74.5883380  45.4377154  60.3580990  75.3699752  47.4207248  60.6516104
  74.5699400  47.9020895  60.0891761  76.3809752  48.1877248  61.2156104
  76.3774008  49.2710906  61.0955874  77.3949752  47.5737248  61.9316104
  78.1893073  48.1712985  62.3788713  77.3979752  46.1967248  62.0786104
  78.1985819  45.7098130  62.6354280  77.6129752  41.8637248  60.9576104
  78.6199752  41.8537248  61.6606104  76.9839752  40.7487248  60.5876104
  76.1728342  40.8000265  59.9880124  77.3759752  39.4367248  61.1176104
  77.3743167  39.4677824  62.2071662  76.4009752  38.3447248  60.6566104
  75.4214315  38.5996694  61.0610810  76.3660752  38.3865690  59.5679731
  76.7819752  36.9367248  61.0986104  77.4104965  36.5029573  60.3208523
  77.3544848  37.0218986  62.0222339  75.5699752  36.0387248  61.3326104
  74.7414170  36.4211065  60.7364775  75.8217663  35.0316858  61.0000849
  75.1629752  36.0017248  62.8056104  76.0192964  35.6413850  63.3756717
  74.9285635  37.0220775  63.1089759  73.9849752  35.1217248  63.0676104
  74.2021306  34.1761108  62.7869728  73.7649704  35.1383056  64.0532183
  73.1912645  35.4557037  62.5398033  78.8219752  39.0637248  60.7596104
  79.1919752  39.0487248  59.5866104  79.6159752  38.7837248  61.7986104
  79.2327290  38.9536316  62.7174974  81.0349752  38.3967248  61.6936104
  81.4728658  38.3344059  62.6898370  81.1779752  37.0237248  61.0056104
  80.7367860  37.1124986  60.0128514  82.2389891  36.7923383  60.9117495
  80.4819752  35.9087248  61.7716104  80.6589752  35.8317248  63.0126104
  79.7689752  35.0977248  61.1326104  81.9589752  39.4427248  61.0396104
  82.9869752  39.0887248  60.4616104  81.6079752  40.7217248  61.1646104
  80.7558367  40.9567568  61.6531993  82.3969752  41.8097248  60.5816104
  83.0960081  41.4057049  59.8493398  81.4859752  42.8227248  59.8816104
  80.8607290  43.2642406  60.6576453  82.1391504  43.5882374  59.4627396
  80.6029752  42.2537248  58.7826104  79.9416214  41.5145942  59.2347142
  80.0084915  43.0713609  58.3749804  81.3999752  41.6037248  57.6676104
  82.1616184  42.3060861  57.3289555  81.8813002  40.7080119  58.0601969
  80.5049752  41.2267248  56.5006104  79.6121987  40.7411770  56.8946840
  80.2204050  42.1391655  55.9766153  81.1939752  40.3057248  55.5546104
  81.4573658  39.4599927  56.0398551  80.5707687  40.0769863  54.7934321
  82.0210392  40.7556156  55.1890116  83.2339752  42.5377248  61.6316104
  82.9649752  42.4577248  62.8346104  84.2529752  43.2417248  61.1436104
  84.4602804  43.1604280  60.1584633  85.0979752  44.1057248  61.9586104
  85.0263794  43.8657114  63.0194435  86.5779752  44.0087248  61.5296104
  86.6611848  44.3071520  60.4845666  87.4549752  44.9187248  62.3906104
  87.3726418  44.6205953  63.4358094  88.4931448  44.8333150  62.0696593
  87.1251320  45.9518157  62.2809374  87.0469752  42.5607248  61.6046104
  86.4396205  41.9466410  60.9396868  88.0919526  42.5005106  61.3004786
  86.9452871  42.1978400  62.6273885  84.5879752  45.5367248  61.7936104
  84.6399752  46.0817248  60.6946104  84.0939752  46.1257248  62.8826104
  84.1206578  45.6230080  63.7582035  83.4829752  47.4587248  62.8646104
  83.3499061  47.8369388  61.8510296  82.1089752  47.4537248  63.5746104
  82.2506285  47.1296404  64.6056307  81.4759752  48.8437248  63.5606104
  81.3335762  49.1683150  62.5298512  80.5112115  48.8092935  64.0667190
  82.1307720  49.5469196  64.0752558  81.1829752  46.4307248  62.9316104
  81.6265420  45.4381889  63.0104973  80.2202327  46.4395343  63.4426376
  81.0381815  46.6809258  61.8806418  84.4019752  48.4757248  63.5466104
  84.9609752  48.1927248  64.6096104  84.5549752  49.6487248  62.9246104
  84.1771051  49.7555978  61.9940774  85.2639752  50.7847248  63.5216104
  85.7651072  50.4681367  64.4363442  86.3159752  51.3297248  62.5506104
  86.9982884  50.4880582  62.4316760  85.8143872  51.5268472  61.6031653
  87.1079752  52.5737248  62.9786104  86.4098539  53.3865762  63.1786104
  87.9189752  52.2847248  64.2286104  88.6176948  51.4722349  64.0292365
  88.4735958  53.1776502  64.5170215  87.2488753  51.9964502  65.0385266
  88.0119752  53.0537248  61.8556104  87.4073652  53.3061787  60.9845116
  88.5622614  53.9357247  62.1832726  88.7157166  52.2640943  61.5923029
  84.2619752  51.8857248  63.8676104  83.5609752  52.3857248  62.9816104
  84.1969752  52.2547248  65.1486104  84.6936402  51.7091769  65.8383936
  83.3889752  53.3907248  65.6096104  82.6385772  53.6420392  64.8600485
  82.6739752  53.0347248  66.9186104  82.0891774  52.1345109  66.7295978
  83.4396229  52.8201122  67.6641472  81.7459752  54.1497248  67.4416104
  81.6099752  55.2457248  66.8316104  81.1389752  53.9117248  68.5076104
  84.2949752  54.6147248  65.7846104  85.1059752  54.6657248  66.7056104
  84.1489752  55.5917248  64.8946104  83.4592387  55.4928802  64.1634520
  84.9879752  56.7887248  64.8986104  85.9745400  56.5903189  65.3174472
  85.1619752  57.3467248  63.4676104  84.1745556  57.4707925  63.0229658
  85.8869752  58.6857248  63.4746104  86.8747239  58.5623540  63.9187199
  85.9916630  59.0481547  62.4519739  85.3142590  59.4065368  64.0581580
  85.9119752  56.3407248  62.6106104  85.3492149  55.4082266  62.5675985
  86.0319395  56.7388989  61.6030562  86.8935314  56.1523899  63.0455566
  84.3589752  57.8347248  65.8216104  83.3119752  58.4047248  65.4956104
  85.0069752  58.0867248  66.9586104  85.9025432  57.6505617  67.1254012
  84.4709752  58.9737248  67.9796104  85.2785691  59.3103889  68.6296477
  84.0045968  59.8364203  67.5038511  83.4349752  58.2517248  68.8146104
  82.2539752  58.5927248  68.7826104  83.8849752  57.2557248  69.5726104
  84.8806704  57.1031277  69.6461262  82.9819752  56.2817248  70.2036104
  82.1363572  56.0797559  69.5461623  83.7249752  54.9587248  70.4706104
  83.1006293  54.3350016  71.1103454  83.8857258  54.4544975  69.5177127
  84.9749752  55.1827248  71.1036104  85.4118431  54.3415536  71.2558514
  82.2719752  56.7647248  71.4746104  81.2499752  56.1897248  71.8516104
  82.8159752  57.7977248  72.1256104  83.7101702  58.1484829  71.8133870
  82.1759752  58.4487248  73.2746104  82.8208065  59.2708111  73.5852000
  81.2199093  58.8462687  72.9340282  81.9349752  57.5307248  74.4656104
  82.8849752  57.0057248  75.0456104  80.6619752  57.3317248  74.8196104
  79.9293837  57.8364834  74.3414601  80.2849752  56.4247248  75.9076104
  80.9688065  56.5351149  76.7492088  78.8439752  56.6837248  76.4046104
  78.6023478  55.9473156  77.1710424  78.7059752  58.0777248  76.9826104
  78.9470107  58.8147407  76.2165758  77.6820342  58.2304830  77.3236512
  79.3894794  58.1920727  77.8239470  77.9209752  56.5127248  75.3246104
  77.0281389  56.6745323  75.6380781  80.3729752  54.9437248  75.5236104
  80.2359752  54.0787248  76.3946104  80.5779752  54.6547248  74.2356104
  80.7147367  55.4146301  73.5845040  80.6139752  53.2867248  73.7216104
  81.3353292  53.2544317  72.9050905  80.9493120  52.6344988  74.5279912
  79.2699752  52.7937248  73.2136104  79.1499752  51.6277248  72.8556104
  78.2659752  53.6747248  73.1626104  78.4328397  54.6254586  73.4598657
  76.8819752  53.2767248  72.8326104  76.5660172  52.4419276  73.4582169
  75.8699752  54.4547248  72.9876104  75.9506014  54.8391363  74.0043835
  76.1409752  55.5847248  71.9926104  76.0600668  55.2011582  70.9755405
  75.4114556  56.3812467  72.1390847  77.1447656  55.9780392  72.1532583
  74.4139752  53.9827248  72.8336104  73.7859926  54.8696722  72.9176515
  74.3231357  53.5676437  71.8298398  73.9679752  52.9507248  73.8486104
  74.0580986  53.3652738  74.8526655  72.9291709  52.6799312  73.6597833
  74.5952438  52.0632457  73.7648552  76.7509752  52.6157248  71.4556104
  76.1189752  51.5627248  71.3396104  77.3639752  53.2057248  70.4316104
  77.8467060  54.0836160  70.5595840  77.2629752  52.6597248  69.0756104
  76.2399118  52.3282730  68.8979023  77.6309752  53.7047248  68.0146104
  78.6908219  53.8796656  68.1995969  77.5034737  53.2604008  67.0274835
  76.8729752  55.0407248  68.0766104  77.0804145  55.5199513  69.0333819
  77.3099752  55.9617248  66.9416104  77.1024126  55.4833410  65.9844450
  76.7614453  56.9015778  67.0039970  78.3787391  56.1592236  67.0243048
  75.3649752  54.8477248  68.0496104  75.0598079  54.2458189  68.9055787
  74.8729376  55.8192738  68.0953562  75.0796319  54.3395320  67.1285142
  78.1059752  51.3907248  68.9126104  77.7369752  50.5097248  68.1326104
  79.2189752  51.2957248  69.6456104  79.5272735  52.0885879  70.1900547
  80.0309752  50.0697248  69.6776104  80.3649688  49.8355729  68.6668085
  81.2599752  50.2257248  70.5746104  80.9666460  50.5907650  71.5588882
  81.7752966  49.2710823  70.6804484  82.4849752  51.3877248  69.9566104
  83.3387787  51.2393251  70.9655184  79.2399752  48.8817248  70.1876104
  79.3379752  47.7847248  69.6346104  78.4779752  49.1077248  71.2556104
  78.5109789  50.0095125  71.7092501  77.6789752  48.0527248  71.8706104
  78.2702191  47.1396290  71.9397910  77.2319752  48.4567248  73.2846104
  76.7212935  49.4171222  73.2143236  76.5348117  47.7006727  73.6457868
  78.4039752  48.5737248  74.2566104  78.9805971  47.6539610  74.1584130
  79.0052017  49.4169210  73.9165384  77.9669752  48.8177248  75.9906104
  77.0739752  50.3707248  75.8866104  76.2126209  50.2518369  75.2293180
  76.7344471  50.6624657  76.8804457  77.7316566  51.1425483  75.4868043
  76.4939752  47.6567248  70.9886104  76.1329752  46.4817248  70.9516104
  75.9079752  48.6177248  70.2726104  76.1470956  49.5866053  70.4281459
  74.8889752  48.3067248  69.2676104  74.0732066  47.7647578  69.7460375
  74.3169752  49.5757248  68.6086104  75.1666252  50.2059861  68.3459988
  73.7477817  49.3408249  67.7091990  73.4099752  50.4147248  69.4896104
  72.6989752  49.8847248  70.5706104  72.8135582  48.8288004  70.8155479
  71.8549752  50.6857248  71.3286104  71.3150756  50.2599416  72.1743750
  71.6989752  52.0247248  71.0106104  71.0389842  52.6554262  71.6062004
  72.3809752  52.5597248  69.9376104  72.2589588  53.6130801  69.6853115
  73.2219752  51.7577248  69.1796104  73.7498633  52.1776625  68.3234057
  75.4679752  47.4117248  68.1736104  74.8479752  46.4117248  67.7986104
  76.6499752  47.7757248  67.6676104  77.0578765  48.6558039  67.9489938
  77.3479752  46.9777248  66.6446104  76.6815045  46.9004152  65.7855765
  78.6309752  47.6727248  66.2046104  79.3122560  47.7494085  67.0520042
  79.1036215  47.0951351  65.4101949  78.3959580  48.6714031  65.8364966
  77.6499752  45.5517248  67.1216104  77.4599752  44.5887248  66.3736104
  78.1029752  45.4267248  68.3666104  78.3307884  46.2579531  68.8931653
  78.3609752  44.1227248  68.9816104  79.0523847  43.5853645  68.3325371
  79.0109752  44.2967248  70.3466104  78.3269819  44.8252754  71.0106039
  79.2412632  43.3179371  70.7673746  79.9308965  44.8717649  70.2409084
  77.0879752  43.2737248  69.1006104  77.1039752  42.0887248  68.7656104
  75.9939752  43.8837248  69.5576104  76.0574306  44.8255793  69.9167522
  74.7099752  43.1807248  69.6706104  74.8686636  42.2060734  70.1320992
  73.7179752  43.9747248  70.5306104  73.6523894  44.9779395  70.1094714
  72.7489527  43.4825089  70.4480335  74.1189752  44.0657248  72.0026104
  74.8190764  43.2550199  72.2043943  74.6198744  45.0226254  72.1493867
  72.9329752  43.9617248  72.9556104  73.1688262  44.5397275  73.8491349
  72.0652714  44.3973793  72.4602371  72.6229752  42.5207248  73.3496104
  71.6594757  42.5194651  73.8592844  72.5485611  41.9378306  72.4315712
  73.6579752  41.9157248  74.2406104  73.7267815  42.4554495  75.0915291
  73.3961788  40.9662571  74.4643821  74.5507665  41.9164060  73.7683579
  74.0809752  42.8167248  68.3176104  73.3289752  41.8467248  68.2346104
  74.4089752  43.5777248  67.2706104  74.9137902  44.4367167  67.4361217
  73.9859752  43.2717248  65.8966104  72.9407762  42.9714933  65.9709027
  74.0729752  44.5197248  65.0306104  75.1146672  44.8273769  64.9393518
  73.6701573  44.3046156  64.0408801  73.4965167  45.3225059  65.4903248
  74.7569752  42.1187248  65.2306104  74.4369752  41.7567248  64.0976104
  75.7709752  41.5687248  65.9086104  76.0827392  42.0200502  66.7566717
  76.4559752  40.3377248  65.4806104  76.4202014  39.6603806  66.3338538
  75.8584879  39.9275409  64.6664498  77.9009752  40.4737248  65.0156104
  78.4609752  39.5147248  64.4746104  78.5169752  41.6367248  65.2286104
  78.0198542  42.3954553  65.6727928  79.8839752  41.8787248  64.7686104
  79.9406140  41.5896464  63.7191701  80.2389752  43.3557248  64.8866104
  80.1955265  43.6579116  65.9329829  81.2460412  43.5196491  64.5031431
  79.5296834  43.9477511  64.3082427  80.8939752  41.0267248  65.5326104
  80.7279752  40.7697248  66.7186104  81.9309752  40.5867248  64.8256104
  81.9720721  40.8116165  63.8418248  82.9989752  39.7587248  65.3946104
  82.5722959  38.9639295  66.0064473  83.8219752  39.1197248  64.2626104
  83.1505194  38.4368617  63.7420872  84.1050396  39.9313925  63.5924089
  85.0699752  38.3667248  64.7026104  85.8525685  39.0938804  64.9191591
  84.8336373  37.8076139  65.6079509  85.5549752  37.4047248  63.6236104
  86.4760555  36.9347030  63.9682691  84.7920697  36.6408630  63.4733111
  85.8169752  38.0677248  62.3386104  85.0884206  37.9814664  61.6444440
  86.9239752  38.7517248  62.0216104  87.9219752  38.9157248  62.8966104
  87.8486585  38.5177550  63.8219994  88.7444401  39.4368026  62.6280418
  87.0309752  39.2927248  60.8066104  86.2802059  39.1822887  60.1400900
  87.8622482  39.8101920  60.5589985  83.8999752  40.6017248  66.2956104
  84.2109752  40.2127248  67.4236104  84.3119752  41.7517248  65.7646104
  84.0004359  41.9753664  64.8302513  85.1959752  42.6917248  66.4416104
  85.2545609  42.4612982  67.5053634  86.6019752  42.5837248  65.8386104
  86.8209449  41.5207117  65.7378400  86.5568104  43.0401809  64.8498192
  87.6979752  43.2517248  66.6556104  87.3725748  44.2643665  66.8938793
  87.8251916  42.6850430  67.5779931  89.0269752  43.3077248  65.9056104
  88.8202905  43.6538292  64.8928952  89.6627781  44.0325245  66.4140585
  89.7389752  41.9607248  65.8466104  89.0697471  41.2521998  65.3585257
  90.6376774  42.0860537  65.2426847  90.1139752  41.4427248  67.1936104
  89.2813162  41.3261133  67.7532357  90.5801661  40.5522998  67.0940639
  90.7344366  42.0989112  67.6458781  84.6449752  44.1127248  66.2706104
  84.2459752  44.4947248  65.1736104  84.6039752  44.8797248  67.3566104
  84.8108033  44.4714667  68.2569697  84.2439752  46.2997248  67.3036104
  84.1725163  46.6515581  66.2744330  82.9049752  46.5977248  68.0226104
  83.0040498  46.3381252  69.0765988  82.5439752  48.0757248  67.8946104
  82.4442683  48.3359814  66.8408429  81.6002749  48.2653888  68.4060376
  83.3292998  48.6824527  68.3454409  81.7799752  45.7237248  67.4756104
  82.0293401  44.6733417  67.6259921  80.8522804  45.9549331  67.9990840
  81.6535978  45.9177277  66.4104848  85.3689752  47.0937248  67.9606104
  85.7539752  46.7987248  69.0846104  85.9019752  48.0827248  67.2506104
  85.5984983  48.2230525  66.2975578  86.9319752  48.9717248  67.7886104
  87.1687698  48.6858319  68.8134484  88.2199752  48.9487248  66.9376104
  87.9645869  49.1789673  65.9032673  89.2259752  49.9787248  67.4556104
  89.4822165  49.7488534  68.4898252  90.1269893  49.9473119  66.8430032
  88.7863777  50.9747877  67.4035341  88.8439752  47.5437248  66.9546104
  89.3485960  47.4291744  67.9139523  88.0241098  46.8285220  66.8882388
  89.8289752  47.2877248  65.8326104  90.6494207  48.0022974  65.8986035
  90.2223474  46.2747619  65.9178387  89.3249346  47.4016474  64.8728894
  86.3739752  50.3867248  67.8256104  85.9229752  50.8967248  66.8066104
  86.3929752  51.0057248  69.0036104  86.6750780  50.4921481  69.8262625
  86.0199752  52.4077248  69.1576104  85.5161986  52.7541342  68.2552198
  85.3511746  52.5173367  70.0113026  87.2549752  53.2527248  69.3876104
  88.1299752  52.8547248  70.1556104  87.3419752  54.3967248  68.7096104
  86.6661527  54.5940650  67.9854419  88.4049752  55.3797248  68.9566104
  89.0849791  54.9816891  69.7097781  89.1999752  55.7377248  67.6846104
  88.5167055  56.1426803  66.9381160  90.2729752  56.7757248  68.0086104
  90.9569411  56.3712896  68.7547494  90.8276760  57.0205468  67.1028124
  89.8009943  57.6770139  68.3997767  89.8579752  54.4877248  67.0836104
  90.6556224  54.1840180  67.7615646  89.0973715  53.7078827  67.0458242
  90.4299752  54.7037248  65.6946104  91.1910312  55.4831599  65.7316847
  90.8775259  53.7763488  65.3371591  89.6327800  55.0070270  65.0159445
  87.7729752  56.6457248  69.5246104  86.8359752  57.1887248  68.9346104
  88.3019752  57.1047248  70.6586104  89.0778236  56.6010049  71.0641038
  87.7969752  58.2867248  71.3626104  87.3393376  58.9787268  70.6556449
  86.7349752  57.8627248  72.3936104  85.9117356  57.4328330  71.8230241
  87.1968386  57.0871969  73.0046249  86.2029752  58.9717248  73.2966104
  85.3947020  58.5465492  73.8916070  87.0058311  59.2996318  73.9569123
  85.6809752  60.1567248  72.5096104  84.6309752  60.0197248  71.8476104
  86.3289752  61.2187248  72.5406104  88.9569752  59.0057248  72.0566104
  89.6929752  58.3807248  72.8286104  89.0939752  60.3057248  71.7836104
  88.4441725  60.7315998  71.1382530  90.1799752  61.1307248  72.3226104
  91.0701969  60.5210485  72.4772045  90.5219752  62.2567248  71.3406104
  91.2599864  62.9238286  71.7860442  90.9238247  61.8342839  70.4196540
  89.1299752  63.3057248  70.8466104  89.8320100  64.0984088  70.0418139
  89.8569752  61.7227248  73.6956104  90.7599752  61.9397248  74.5046104
  88.5769752  61.9977248  73.9426104  87.8996851  61.8343079  73.2113975
  88.1029752  62.5367248  75.2216104  88.6985247  63.4040226  75.5065918
  86.6459752  62.9667248  75.0946104  86.5696178  63.7223099  74.3127154
  86.0462506  62.0988631  74.8202995  86.1719752  63.4997248  76.3106104
  85.2546041  63.7634979  76.2083664  88.2009752  61.5207248  76.3536104
  88.1599752  60.3117248  76.1166104  88.2759752  62.0337248  77.5846104
  88.3454679  63.0354011  77.6937649  88.3609752  61.1957248  78.7856104
  89.0433019  60.3649795  78.6056333  88.8809752  62.0077248  79.9806104
  89.1417841  61.3126762  80.7787241  89.7730730  62.5483413  79.6643898
  87.9129752  62.9297248  80.4546104  88.2730150  63.4172120  81.1991420
  87.0299752  60.5107248  79.1416104  86.9739752  59.7137248  80.0846104
  85.9559752  60.8167248  78.3996104  85.9705428  61.6362164  77.8094234
  84.7079752  60.0347248  78.4796104  84.3212053  59.9900744  79.4977040
  83.6089752  60.5977248  77.5316104  83.5223962  61.6700525  77.7068749
  83.9429752  60.3477248  76.0626104  84.0292630  59.2755183  75.8864615
  83.1509417  60.7559598  75.4348145  84.8874612  60.8329971  75.8165288
  82.2179752  60.0347248  77.8726104  81.5887409  60.1770382  76.9940253
  82.3399170  58.9683721  78.0626673  81.5659752  60.6887248  79.0706104
  81.4432720  61.7550873  78.8810984  80.5897047  60.2366105  79.2455039
  82.1944498  60.5464229  79.9497405  84.9909752  58.5507248  78.1736104
  84.3149752  57.6637248  78.6896104  85.9999752  58.3097248  77.3326104
  86.3781944  59.0988845  76.8283520  86.5479752  56.9747248  77.0506104
  85.8436851  56.3920495  76.4568394  87.8559752  57.1217248  76.2566104
  87.6719819  57.7741131  75.4030091  88.6059552  57.5750977  76.9047485
  88.3249752  55.8667248  75.7986104  89.1406829  55.9897440  75.3076041
  86.8129752  56.0947248  78.2826104  86.6229752  54.8857248  78.2236104
  87.2629752  56.7007248  79.3776104  87.4859921  57.6849011  79.3356610
  87.4889752  55.9847248  80.6506104  88.2353019  55.2044918  80.5011708
  87.9909752  56.9417248  81.7436104  87.2236323  57.6996472  81.9012105
  88.1168088  56.3577613  82.6553409  89.3069752  57.6187248  81.3896104
  90.0489752  57.1017248  80.5196104  89.5919752  58.6807248  81.9886104
  86.2259752  55.2877248  81.1596104  86.2929752  54.1777248  81.6916104
  85.0859752  55.9547248  80.9926104  85.1223738  56.9123942  80.6737942
  83.7869752  55.3937248  81.3516104  83.8729605  54.8254978  82.2777982
  82.7589752  56.5117248  81.5566104  82.6617079  57.1217839  80.6585758
  81.8077962  56.0232594  81.7681763  83.1419752  57.3877248  82.7186104
  82.9799752  56.9397248  84.0296104  82.5488775  55.9529458  84.1984937
  83.3569752  57.7267248  85.1096104  83.2200611  57.3684617  86.1299064
  83.9149752  58.9737248  84.8826104  84.2909752  59.7597248  85.9556104
  84.1201206  59.3434396  86.8036169  84.0929752  59.4367248  83.5906104
  84.5248093  60.4219122  83.4144695  83.7189752  58.6407248  82.5166104
  83.8751217  58.9927555  81.4969081  83.2969752  54.3697248  80.3326104
  82.6919752  53.3697248  80.7176104  83.5649752  54.6087248  79.0486104
  83.9699013  55.4936104  78.7782186  83.2119752  53.6517248  77.9906104
  82.1269545  53.5493138  78.0090842  83.6269752  54.1797248  76.6266104
  84.7118102  54.2790202  76.5895496  83.2995349  53.4855058  75.8526963
  83.1675325  55.1537279  76.4582967  83.8129752  52.2617248  78.2176104
  83.1479752  51.2557248  77.9826104  85.0589752  52.2217248  78.6846104
  85.5766143  53.0834002  78.7829192  85.7459752  50.9607248  78.9796104
  85.6881565  50.2732429  78.1357355  87.2429752  51.1857248  79.3356104
  87.3026512  51.9611563  80.0993145  87.8949752  49.9077248  79.8566104
  87.8360949  49.1319143  79.0932283  88.9404068  50.1036550  80.0949059
  87.3746838  49.5736729  80.7542784  88.0109752  51.7027248  78.1236104
  87.5800446  52.6489111  77.7962996  89.0563606  51.8539506  78.3926826
  87.9461791  50.9753322  77.3144118  85.0189752  50.2077248  80.1026104
  84.7589752  49.0147248  79.9726104  84.6889752  50.9107248  81.1846104
  85.0134689  51.8630935  81.2729104  83.9139752  50.3327248  82.2926104
  84.3984350  49.4207421  82.6414448  83.8199752  51.3157248  83.4636104
  83.4412905  52.2556779  83.0621315  83.0971595  50.9048502  84.1684646
  85.1379752  51.5647248  84.1776104  85.4140726  50.6677819  84.7320150
  85.9057593  51.7832062  83.4354005  85.0149752  52.7337248  85.1366104
  84.7602149  53.6254579  84.5638905  84.2156165  52.5169921  85.8452372
  86.3089752  52.9707248  85.8916104  86.4880422  52.1311535  86.5632916
  87.1291202  53.0454156  85.1775496  86.2239752  54.2277248  86.6816104
  85.4643424  54.1585538  87.3436323  87.0913784  54.3724406  87.1783690
  86.0584764  55.0058712  86.0593585  82.5019752  49.9137248  81.8756104
  82.0189752  48.8597248  82.3006104  81.8499752  50.7397248  81.0576104
  82.2610468  51.6350360  80.8350407  80.5039752  50.4437248  80.5446104
  79.8404635  50.2124344  81.3778907  79.9259752  51.6387248  79.7396104
  80.7004476  52.0031872  79.0647326  78.6939752  51.2367248  78.9306104
  77.9188424  50.8725666  79.6048941  78.3207466  52.1015823  78.3821374
  78.9620717  50.4487956  78.2267702  79.5499752  52.7717248  80.7006104
  78.5869992  52.5080567  81.1379399  80.3104952  52.7888176  81.4812618
  79.4549752  54.1387248  80.0596104  78.6942759  54.1225378  79.2791142
  79.1843329  54.8766808  80.8147745  80.4177720  54.4032977  79.6224339
  80.5029752  49.1597248  79.7116104  79.6629752  48.2807248  79.9236104
  81.4479752  49.0647248  78.7776104  82.0333973  49.8658108  78.5888211
  81.6129752  47.8677248  77.9396104  80.7043792  47.6280641  77.3872380
  82.7789752  48.0447248  76.9256104  83.6141668  48.5111131  77.4481391
  83.2319752  46.7147248  76.3276104  82.3973835  46.2479273  75.8044874
  84.0474597  46.8902082  75.6259758  83.5749027  46.0553041  77.1248976
  82.3729752  49.0067248  75.8176104  82.1269796  49.9766319  76.2498931
  83.1982710  49.1214999  75.1148920  81.5025871  48.6117555  75.2936595
  81.8139752  46.6117248  78.7996104  81.1969752  45.5797248  78.5356104
  82.6679752  46.7137248  79.8166104  83.1973021  47.5664184  79.9298627
  82.9179752  45.6117248  80.7496104  83.1885452  44.7118863  80.1971778
  84.0679752  45.9687248  81.6976104  84.8990305  46.2945359  81.0720759
  83.7230249  46.8042473  82.3067174  84.5309752  44.8327248  82.6076104
  83.6593592  44.3849398  83.0849729  85.0399082  44.0814604  82.0037137
  85.4829752  45.3547248  83.6766104  86.4616600  45.4885224  83.2157706
  85.1069310  46.3197530  84.0163320  85.6069752  44.4107248  84.8666104
  85.9999767  44.9701502  85.7155471  84.6165036  44.0274336  85.1118715
  86.5129752  43.2777248  84.5596104  87.4309376  43.6326529  84.3327384
  86.5762915  42.6698777  85.3637329  86.1487675  42.7589657  83.7732639
  81.6649752  45.2457248  81.5616104  81.3489752  44.0657248  81.7136104
  80.9619752  46.2597248  82.0666104  81.3023888  47.2018590  81.9377653
  79.7549752  46.0597248  82.8846104  80.0448926  45.4064069  83.7075459
  79.2769752  47.3897248  83.4626104  78.9745677  48.0514806  82.6509893
  78.4281441  47.2150622  84.1237299  80.0865042  47.8534136  84.0263079
  78.6129752  45.3707248  82.1286104  77.8129752  44.6567248  82.7366104
  78.5489752  45.5757248  80.8136104  79.1742194  46.2453286  80.3884048
  77.5339752  44.9397248  79.9696104  76.6910329  44.6068612  80.5752086
  77.0269752  45.9497248  78.9396104  77.8694785  46.3375042  78.3669721
  76.3357739  45.4402097  78.2682423  76.3049752  47.1127248  79.5856104
  75.1789752  46.9697248  80.0406104  76.9539752  48.2647248  79.6396104
  76.5133802  49.0697708  80.0613647  77.8869052  48.3335901  79.2588216
  78.0189752  43.6497248  79.2866104  77.3629752  43.1567248  78.3686104
  79.1429752  43.0987248  79.7556104  79.6786141  43.6311236  80.4262383
  79.7079752  41.8327248  79.2576104  80.6974950  41.6788173  79.6880316
  78.8139752  40.6457248  79.6456104  77.8739752  40.7673305  79.1073621
  79.3167614  39.7431099  79.2983460  78.5329752  40.5277248  81.1356104
  79.3636300  40.9787982  81.6784237  77.6159601  41.0740302  81.3563720
  78.3739752  39.0707248  81.5676104  77.9410922  38.5192070  80.7330210
  79.3660546  38.6763547  81.7874973  77.4829752  38.9167248  82.7946104
  76.4505957  39.0461582  82.4697410  77.6193749  37.9044655  83.1751700
  77.7909752  39.8987248  83.8736104  77.6642290  40.8367638  83.5213068
  77.1698793  39.7458551  84.6552565  78.7474279  39.7786708  84.1750809
  80.0119752  41.8177248  77.7496104  79.8139752  40.8017248  77.0736104
  80.5039752  42.9457248  77.2386104  80.5840422  43.7580885  77.8333825
  80.8429752  43.0877248  75.8166104  80.6363417  42.1593404  75.2841593
  79.9959752  44.2067248  75.1976104  80.1642291  45.0556783  75.8602323
  80.3779078  44.4407980  74.2039116  78.4919752  43.9157248  75.1116104
  78.1351790  43.5944712  76.0901774  77.7349752  45.1637248  74.6806104
  78.0909239  45.4853330  73.7018523  76.6693521  44.9415597  74.6241236
  77.9017241  45.9593583  75.4067389  78.1899752  42.7537248  74.1716104
  78.6909683  41.8550221  74.5313866  77.1141451  42.5814025  74.1400536
  78.5486233  42.9929206  73.1704831  82.3399752  43.3267248  75.5556104
  82.7289752  43.5917248  74.4196104  83.1749752  43.2047248  76.5886104
  82.8009318  43.0667013  77.5165869  84.6219752  43.4507248  76.4476104
  84.7732720  44.3414417  75.8378302  85.3099752  43.6657248  77.8156104
  86.3754683  43.7552266  77.6039190  84.9464139  44.5979166  78.2479779
  85.0819752  42.5247248  78.8026104  83.9949752  41.8987248  78.7816104
  85.9879752  42.2747248  79.6306104  85.3759752  42.4097248  75.5926104
  86.4859752  42.6907248  75.1336104  84.7779752  41.2327248  75.3846104
  83.9526390  41.0186243  75.9259794  85.3119752  40.1957248  74.4866104
  86.3931199  40.1266793  74.6068525  84.6899752  38.8187248  74.8116104
  85.2331221  38.0108604  74.3212577  84.7303364  38.6796464  75.8919475
  83.2479752  38.6717248  74.4126104  82.2389752  39.4527248  74.9376104
  81.0829752  39.0867248  74.4156104  80.1607792  39.5944545  74.6982125
  81.3009752  38.0867248  73.5796104  80.6010182  37.6033045  73.0351246
  82.6449752  37.8027248  73.5656104  83.0249694  36.9956351  72.9392624
  85.1319752  40.5277248  72.9976104  85.8119752  39.9607248  72.1436104
  84.1939752  41.4287248  72.6876104  83.6066666  41.7785632  73.4311028
  83.9279752  41.8897248  71.3086104  84.5010802  41.3271385  70.5716256
  82.4179752  41.7627248  70.9656104  81.8501645  42.2985726  71.7262400
  82.0909752  42.3387248  69.5846104  82.6581022  41.8030355  68.8233582
  81.0246605  42.2282238  69.3874734  82.3571196  43.3954188  69.5587922
  81.9849752  40.3087248  71.0416104  82.1552139  39.9305994  72.0496491
  80.9250381  40.2315928  70.7993635  82.5635252  39.7191424  70.3304329
  84.3929752  43.3417248  71.0746104  84.9749752  43.6427248  70.0246104
  84.1219752  44.2287248  72.0356104  83.6884480  43.8985242  72.8859757
  84.4099752  45.6637248  71.9126104  84.5557849  45.9736373  70.8778191
  83.2639752  46.5097248  72.5266104  83.1264475  46.2066226  73.5645480
  83.5839752  48.0007248  72.4706104  83.7211912  48.3046868  71.4328822
  82.7613809  48.5661066  72.9085402  84.4982561  48.1979109  73.0303512
  81.9309752  46.2267248  71.8366104  81.6800170  45.1719353  71.9485982
  81.1495375  46.8358171  72.2909905  82.0107740  46.4701797  70.7771470
  85.7169752  46.0167248  72.6266104  85.8799752  45.6937248  73.8016104
  86.6409752  46.6697248  71.9226104  86.5502671  46.7255047  70.9182400
  87.8049752  47.3047248  72.5526104  87.7562863  47.1592525  73.6317612
  89.1599752  46.7627248  72.0416104  89.9556721  47.4073104  72.4150755
  89.3979752  45.3347248  72.5176104  88.6028736  44.6894170  72.1441256
  90.3584020  44.9814024  72.1423200  89.4031196  45.3105255  73.6073299
  89.1939752  46.8017248  70.6146104  90.0376622  46.4639204  70.3052872
  87.7609752  48.8007248  72.2816104  87.4219752  49.2237248  71.1816104
  88.1059752  49.5887248  73.2946104  88.3335576  49.1670327  74.1837006
  88.1609752  51.0377248  73.1846104  87.7257754  51.3944872  72.2511111
  87.4509752  51.7167248  74.3756104  87.9245732  51.3889803  75.3010232
  87.5439752  53.2297248  74.2676104  87.0701457  53.5582832  73.3426047
  87.0369632  53.6870014  75.1172796  88.5916153  53.5306307  74.2653724
  85.9869752  51.2557248  74.4946104  86.0177598  50.1813580  74.6759641
  85.5771197  51.7598124  75.3698325  85.1099752  51.5397248  73.2916104
  85.5189681  51.0355511  72.4160343  84.1009985  51.1741609  73.4824721
  85.0783300  52.6140060  73.1099013  89.6309752  51.4537248  73.1546104
  90.4279752  50.9857248  73.9726104  89.9749752  52.3207248  72.2026104
  89.2893159  52.5618726  71.5013128  91.2989752  52.9317248  72.1156104
  91.9776652  52.4758423  72.8364781  91.8969752  52.8037248  70.6906104
  91.1795582  53.2001573  69.9721019  93.2119752  53.5787248  70.5786104
  93.9300970  53.1825285  71.2965452  93.6115758  53.4734698  69.5699769
  93.0321181  54.6329093  70.7894315  92.1149752  51.3257248  70.3316104
  92.9792354  50.9839148  70.9011023  91.2274530  50.7843065  70.6591314
  92.3479752  51.0677248  68.8576104  93.2356624  51.6084830  68.5294459
  92.4923197  49.9998606  68.6935069  91.4838802  51.4088771  68.2874746
  91.1539752  54.4077248  72.4836104  90.3739752  55.1247248  71.8546104
  91.9029752  54.8547248  73.4966104  92.4320499  54.2043433  74.0598007
  91.9309752  56.2657248  73.8606104  90.9762454  56.7233585  73.6014549
  92.1719752  56.4537248  75.3556104  91.4368094  55.8511120  75.8889848
  93.1734746  56.0863090  75.5794513  92.0539752  57.9067248  75.7976104
  92.8861683  58.4646031  75.3682769  91.1142411  58.3061273  75.4161927
  92.0829752  58.0387248  77.3066104  91.3191707  57.3864823  77.7300267
  93.0642872  57.7295040  77.6664835  91.8169752  59.4707248  77.7316104
  92.5778188  60.1173468  77.2944633  90.8337835  59.7711395  77.3694169
  91.8569752  59.5907248  79.2166104  92.7680806  59.3128101  79.5523933
  91.6782016  60.5487296  79.4818778  91.1517498  58.9919512  79.6218589
  93.0009752  57.0017248  73.0536104  94.1949752  56.8457248  73.2976104
  92.5599752  57.8067248  72.0936104  91.5704468  57.8563397  71.8974695
  93.4629752  58.6317248  71.3026104  93.9412799  59.3557714  71.9622166
  94.2226220  57.9889321  70.8578029  92.7379752  59.3737248  70.1996104
  91.5469752  59.1627248  69.9716104  93.4689752  60.2537248  69.5246104
  94.3816738  60.5140439  69.8700299  92.9829752  60.8907248  68.2996104
  91.9616024  61.2381160  68.4552254  93.8579752  62.0957248  67.9036104
  94.8035186  61.9825977  68.4339398  94.0320239  62.0158929  66.8305615
  93.2599752  63.4567248  68.2196104  92.3822159  63.6079266  67.5912972
  92.9628485  63.4737013  69.2681949  94.2719752  64.5737248  67.9586104
  94.7407814  64.8240809  68.9102624  95.0255732  64.1838190  67.2743860
  93.6389752  65.8277248  67.3576104  92.6471137  65.9472240  67.7935360
  94.2595625  66.6819574  67.6282712  93.5229752  65.7487248  65.8746104
  92.9476081  64.9574898  65.6236131  93.1006824  66.5967014  65.5243185
  94.4419889  65.6384216  65.4704493  92.9769752  59.8647248  67.1666104
  93.9249752  59.0897248  67.0286104  91.9239752  59.8807248  66.3506104
  91.1478667  60.4922315  66.5599293  91.8199752  58.9977248  65.1776104
  91.8535523  57.9432506  65.4515737  90.5149752  59.2627248  64.3916104
  90.3952594  60.3408088  64.2843622  90.5359752  58.6137248  63.0106104
  90.6552067  57.5355077  63.1170661  89.5996484  58.8260129  62.4945423
  91.3680943  59.0154347  62.4324161  89.3079752  58.7797248  65.1846104
  89.2619611  59.3096132  66.1360320  88.3980917  58.9739938  64.6167450
  89.3987029  57.7093538  65.3694760  93.0259752  59.1717248  64.2536104
  93.5929752  58.1877248  63.7756104  93.4349752  60.4227248  64.0506104
  92.9314655  61.1802681  64.4895927  94.5279752  60.7537248  63.1396104
  94.4425985  60.1572751  62.2312835  94.4839752  62.2437248  62.7556104
  94.5783834  62.8095031  63.6824768  95.3536832  62.4312378  62.1258907
  93.2159752  62.6817248  62.0176104  93.5125323  63.5137113  61.3788982
  92.8923295  61.8457377  61.3975474  92.0599752  63.1217248  62.9266104
  92.1239752  62.8857248  64.1606104  91.0719752  63.6917248  62.3966104
  95.9279752  60.3967248  63.6726104  96.9029752  60.5337248  62.9316104
  96.0289752  59.9587248  64.9346104  95.1865128  59.9017274  65.4887834
  97.3129752  59.6087248  65.5746104  98.1382046  59.7764698  64.8825430
  97.5249752  60.4877248  66.8116104  96.6251011  60.3995001  67.4203321
  98.3727946  60.0702537  67.3547680  97.7899752  61.9547248  66.5086104
  98.7575549  62.0230329  66.0113938  97.0085488  62.2975536  65.8304215
  97.7979752  62.8297248  67.7586104  97.8869752  62.2857248  68.8886104
  97.7169752  64.0747248  67.6086104  97.4789752  58.1397248  66.0006104
  98.5619752  57.7697248  66.4406104  96.4419752  57.3107248  65.8806104
  95.5580405  57.6535202  65.5324007  96.5129752  55.9147248  66.3566104
  97.4531161  55.6983359  66.8639665  95.3369752  55.5327248  67.3036104
  95.4573308  54.4951649  67.6151924  95.3219752  56.4347248  68.5346104
  95.2011782  57.4724757  68.2238340  94.4930409  56.1513888  69.1832159
  96.2609809  56.3254425  69.0772220  93.9839752  55.5507248  66.5996104
  93.9932341  54.8376633  65.7752563  93.2017782  55.2767316  67.3075618
  93.7886680  56.5506618  66.2122064  96.6069752  54.9127248  65.2046104
  96.2629752  55.2277248  64.0616104  97.0969752  53.7157248  65.5276104
  97.4929943  53.5960324  66.4489909  97.0899752  52.5667248  64.6206104
  96.7592055  52.8811552  63.6307498  98.4949752  51.9657248  64.4996104
  98.7991983  51.6883359  65.5088690  98.3940959  51.0669920  63.8911674
  99.5489752  52.8797248  63.8846104  99.6072096  53.7646035  64.5184078
 100.4988217  52.3461051  63.9183869  99.2539752  53.3017248  62.4486104
  99.7459752  54.3747248  62.0376104  98.5329752  52.5807248  61.7236104
  96.1399752  51.5147248  65.1766104  96.0019752  51.3897248  66.3906104
  95.4729752  50.7767248  64.2916104  95.5427865  50.9959658  63.3081679
  94.6039752  49.6607248  64.6976104  94.2011472  49.8528706  65.6920493
  93.4349752  49.4967248  63.7186104  93.9267687  49.3611116  62.7553620
  92.9179364  48.5776961  63.9945763  92.4209752  50.6427248  63.6176104
  92.9354539  51.5524658  63.3081208  91.3509752  50.2967248  62.6006104
  90.8357140  49.3872845  62.9096784  90.6340881  51.1150975  62.5339798
  91.8128113  50.1386995  61.6260152  91.7659752  50.9627248  64.9496104
  92.5300502  51.2552017  65.6698507  91.0577659  51.7810297  64.8195417
  91.2392537  50.0819794  65.3169670  95.4219752  48.3677248  64.7536104
  96.4829752  48.2887248  64.1416104  94.9379752  47.3537248  65.4966104
  93.7469752  47.3587248  66.3686104  92.8884568  47.7150503  65.7993316
  93.9245101  48.0251474  67.2126846  93.6039752  45.9277248  66.7906104
  92.8952529  45.4238507  66.1334022  93.2397862  45.8859449  67.8171201
  94.9599752  45.3317248  66.6846104  94.8801341  44.2660421  66.4700300
  95.5566226  45.4767803  67.5852049  95.6119752  46.0507248  65.5066104
  96.6764580  46.2354738  65.6509800  95.4039752  45.2407248  64.2196104
  96.1619752  44.3017248  63.9586104  94.3689752  45.5937248  63.4546104
  93.7297286  46.2896472  63.8111986  94.0739752  44.9797248  62.1616104
  94.7688220  44.1701890  61.9381399  92.6299752  44.4247248  62.0956104
  92.4439142  44.0256384  61.0985093  92.4499752  43.3217248  63.1236104
  92.6354325  43.7201905  64.1210730  91.4314650  42.9371777  63.0701230
  93.1536390  42.5149210  62.9186066  91.5779752  45.5147248  62.3046104
  91.6824826  46.2745553  61.5301185  90.5822415  45.0747818  62.2492546
  91.7182855  45.9728830  63.2836431  94.3159752  46.0077248  61.0616104
  94.2039752  47.2147248  61.2926104  94.6489752  45.5217248  59.8716104
  94.7072752  44.5208445  59.7493849  95.0059752  46.3807248  58.7416104
  95.6985828  47.1599300  59.0597820  95.6859752  45.5327248  57.6576104
  96.4871082  44.9898201  58.1591477  94.9312928  44.8269384  57.3105946
  96.2569752  46.2937248  56.4646104  96.6110708  45.5393717  55.7619949
  95.4406972  46.8565464  56.0118178  97.3959752  47.2407248  56.8076104
  97.7249752  48.0927248  55.9576104  97.9769752  47.1367248  57.9056104
  93.8009752  47.1357248  58.1536104  93.9269752  48.3047248  57.7766104
  92.6529752  46.4577248  58.0686104  92.6336090  45.5023987  58.3958357
  91.4159752  47.0317248  57.5206104  91.5002790  48.1180636  57.4912835
  91.1549752  46.5217248  56.0976104  91.0649827  45.4379957  56.1719866
  90.1985234  46.9450056  55.7907990  92.2159752  46.8717248  55.0696104
  93.1878689  46.5753275  55.4641635  92.0086839  46.3120916  54.1575013
  92.2279752  48.3617248  54.7586104  91.2620900  48.6346272  54.3335352
  92.3825224  48.9084833  55.6888092  93.3309752  48.7137248  53.7756104
  94.2538926  48.2246768  54.0873094  93.0494957  48.3591987  52.7840562
  93.5399752  50.1877248  53.7346104  93.8012282  50.5163767  54.6532151
  94.2754066  50.4053107  53.0774217  92.6850197  50.6410490  53.4453920
  90.2099752  46.6667248  58.3716104  90.2399752  45.6947248  59.1316104
  89.1459752  47.4537248  58.2076104  89.2575040  48.3030191  57.6724843
  87.8479752  47.1877248  58.8216104  87.8142699  46.2001606  59.2816974
  87.4749752  48.2457248  59.8916104  86.5574392  47.9377963  60.3930154
  88.5949752  48.3767248  60.9176104  89.5127895  48.6850949  60.4169850
  88.3200401  49.1228686  61.6631173  88.7540011  47.4160025  61.4073298
  87.1569752  49.6047248  59.2676104  86.3151531  49.5026140  58.5827667
  86.9010726  50.3151175  60.0537120  88.0276584  49.9667262  58.7208320
  86.7849752  47.1177248  57.7316104  86.9309752  47.7247248  56.6656104
  85.7219752  46.3707248  58.0166104  85.6702290  45.9325918  58.9251594
  84.6359752  46.1257248  57.0646104  85.0319550  46.0987462  56.0494398
  83.9589752  44.7817248  57.3626104  83.5179881  44.8500841  58.3570734
  83.1704534  44.6285986  56.6258026  84.9319752  43.6067248  57.3176104
  85.6069752  43.4307248  56.2736104  85.0109752  42.8607248  58.3246104
  83.5889752  47.2317248  57.1086104  83.0189752  47.5897248  56.0846104
  83.3219752  47.7507248  58.3056104  83.8274612  47.4128939  59.1121174
  82.3009752  48.7737248  58.5076104  81.9985476  49.2235257  57.5619276
  81.0569752  48.1927248  59.2236104  81.3592173  47.7955956  60.1926504
  79.9979752  49.2787248  59.4256104  79.6948783  49.6760377  58.4569127
  79.1310366  48.8521828  59.9301696  80.4126118  50.0826130  60.0338368
  80.4859752  47.0037248  58.4346104  80.1237235  47.3996349  57.4858588
  81.3149959  46.3205842  58.2498318  79.3659752  46.2607248  59.1316104
  78.5363517  46.9431522  59.3163198  79.0264735  45.4392459  58.5007299
  79.7276240  45.8641032  60.0802944  82.8689752  49.9257248  59.3346104
  83.5799752  49.7027248  60.3126104  82.5649752  51.1507248  58.9196104
  82.1952825  51.2791128  57.9885126  82.7949752  52.3337248  59.7416104
  83.3209850  52.0489283  60.6528205  83.6039752  53.4217248  58.9986104
  83.1938386  53.5392823  57.9955807  83.5319752  54.7627248  59.7406104
  83.9423886  54.6460645  60.7436318  84.1092295  55.5107288  59.1971325
  82.4930843  55.0854219  59.8089572  85.0649752  52.9727248  58.8546104
  85.4749307  52.9109915  59.8626909  85.0449534  51.9779347  58.4095358
  85.9339752  53.8867248  58.0106104  85.9548589  54.8816496  58.4553445
  86.9472518  53.4873674  57.9672114  85.5248799  53.9485945  57.0021894
  81.4339752  52.8737248  60.1786104  80.5389752  53.0547248  59.3556104
  81.2959752  53.1237248  61.4776104  82.0045078  52.7937442  62.1172930
  80.1219752  53.7877248  62.0296104  79.4654994  54.1231776  61.2267343
  79.3269752  52.8787248  63.0006104  78.4865811  53.4418663  63.4064547
  78.8049752  51.6417248  62.2676104  79.6448796  51.0777872  61.8618572
  78.2489113  51.0138862  62.9638233  78.1486482  51.9508037  61.4540969
  80.1679752  52.4517248  64.2146104  81.0573355  51.9507087  63.8323513
  80.4612439  53.3600273  64.7409939  79.4399752  51.5287248  65.1686104
  79.1467781  50.6199372  64.6430247  80.0975740  51.2715015  65.9989714
  78.5506847  52.0292553  65.5516656  80.5999752  55.0657248  62.7056104
  81.6759752  55.0897248  63.3106104  79.8289752  56.1387248  62.5706104
  78.9881554  56.1068294  62.0119477  80.1959752  57.4037248  63.1956104
  80.5306533  57.2184958  64.2162867  81.3239752  58.0987248  62.4296104
  82.1526176  57.4014377  62.3061528  80.9550338  58.4009678  61.4494924
  81.7719752  59.2457248  63.1416104  82.4785392  59.6714056  62.6505269
  79.0269752  58.3557248  63.2876104  78.2539752  58.4967248  62.3406104
  78.9109752  59.0007248  64.4416104  79.3808562  58.6471011  65.2627447
  78.0619752  60.1607248  64.5846104  77.4259969  60.2600477  63.7049709
  77.1729752  60.0327248  65.8166104  76.8642150  58.9899844  65.8904945
  77.7774699  60.2945215  66.6850278  75.9439752  60.9217248  65.7696104
  75.5849540  60.9929947  64.7429044  75.1847180  60.4416173  66.3869632
  76.2239752  62.3107248  66.3036104  76.0349752  62.5187248  67.5276104
  76.6609752  63.1757248  65.5096104  78.9939752  61.3647248  64.6286104
  79.6209752  61.6457248  65.6436104  79.0739752  62.0467248  63.4896104
  78.4376644  61.7864649  62.7496965  80.0549752  63.1077248  63.2236104
  80.7282444  63.2179224  64.0737071  80.8879752  62.7487248  61.9796104
  81.5311022  63.5813296  61.6945558  81.5013863  61.8742478  62.1966744
  80.0619752  62.4057248  60.7646104  79.6809752  61.1597248  60.3646104
  80.0121804  60.3244348  60.9816141  78.9299752  61.2367248  59.2206104
  78.5352569  60.4510266  58.7236443  78.8059752  62.5497248  58.8576104
  78.1409752  63.1247248  57.7706104  77.6228678  62.4691410  57.0707010
  78.1839752  64.4937248  57.6536104  77.6765974  64.9792378  56.8199769
  78.8719752  65.2887248  58.5906104  78.9003609  66.3739211  58.4924134
  79.5359752  64.7127248  59.6696104  80.0556567  65.3701792  60.3665936
  79.5079752  63.3197248  59.8116104  79.4269752  64.4907248  63.0246104
  80.1489752  65.4867248  62.8926104  78.0959752  64.5527248  63.0216104
  77.5608121  63.7532031  63.3289620  77.3759752  65.7307248  62.5686104
  77.8693403  66.1503262  61.6918979  75.9369752  65.3687248  62.1936104
  75.4894797  64.8917559  63.0655896  75.4163035  66.3030980  61.9839735
  75.8189752  64.4437248  60.9946104  74.8365803  64.6205146  60.5567219
  76.5912236  64.7459852  60.2872398  75.9999752  62.6857248  61.3546104
  74.5069752  62.3837248  62.2936104  73.6373309  62.6170527  61.6793011
  74.4701792  61.3358549  62.5914619  74.5026752  63.0140464  63.1828671
  77.3549752  66.7967248  63.6526104  76.9229752  66.5337248  64.7746104
  77.8159752  67.9957248  63.3096104  78.2663600  68.1232874  62.4146352
  77.6929752  69.1477248  64.1906104  77.5943285  68.8051512  65.2206645
  78.5839041  69.7689165  64.0985997  76.4809752  69.9707248  63.8286104
  75.7119752  69.6117248  62.9266104  76.3179752  71.0847248  64.5336104
  76.9018294  71.2615197  65.3385683  75.2949752  72.0677248  64.1916104
  74.3105282  71.6027267  64.2439559  75.3279752  73.2567248  65.1616104
  76.2942593  73.7414308  65.0221312  74.5331658  73.9377910  64.8574283
  75.1509752  72.8947248  66.6226104  74.0749752  72.1127248  67.0436104
  73.3607263  71.7564374  66.3013118  73.9059752  71.7877248  68.3786104
  73.0577856  71.1804601  68.6946893  74.8219752  72.2417248  69.3166104
  74.6649752  71.9167248  70.6476104  73.8903898  71.3740789  70.8123906
  75.8959752  73.0177248  68.9256104  76.6152150  73.3758488  69.6621848
  76.0559752  73.3407248  67.5856104  76.9004521  73.9532328  67.2697103
  75.5439752  72.5567248  62.7576104  76.6969752  72.7307248  62.3486104
  74.4689752  72.7507248  61.9976104  73.5554281  72.5777605  62.3920903
  74.5569752  73.1087248  60.5776104  73.5636145  73.1059173  60.1289171
  75.1589752  74.5127248  60.4276104  74.8022788  75.1573830  61.2309053
  76.2468947  74.4560223  60.4638898  74.7529752  75.3617248  58.8866104
  75.4346504  76.4716175  59.1556002  75.3469752  72.0597248  59.7716104
  76.0399752  72.3897248  58.8066104  75.2329752  70.7987248  60.2026104
  74.7000263  70.6775443  61.0519513  75.9379752  69.6327248  59.6496104
  75.6208193  68.7361878  60.1822761  75.6399752  69.4457248  58.1506104
  74.5543560  69.5359499  58.1133350  76.0920798  70.2825021  57.6181583
  76.0679752  68.1237248  57.4866104  77.1573707  68.1050251  57.4554876
  75.5599752  66.8937248  58.2306104  74.4705652  66.9114862  58.2617428
  75.8935740  65.9931269  57.7151144  75.9520865  66.8959505  59.2476375
  75.5959752  68.0957248  56.0446104  76.0374433  68.9309905  55.5009777
  75.9015288  67.1582971  55.5798872  74.5094494  68.1777473  56.0157520
  77.4479752  69.5917248  59.9246104  77.9309752  68.6287248  60.5316104
  78.1849752  70.6227248  59.5016104  77.7218369  71.4377098  59.1255765
  79.6589752  70.5707248  59.4526104  80.0040116  69.5374985  59.4912439
  80.1449752  71.2007248  58.1426104  79.8130097  72.2374703  58.0873213
  81.2326762  71.1643194  58.0819360  79.6209752  70.5137248  56.9076104
  79.9199752  69.1807248  56.6616104  80.5358600  68.6340575  57.3757118
  79.4449752  68.5427248  55.5226104  79.6898017  67.4955754  55.3447375
  78.6639752  69.2327248  54.6166104  78.2893658  68.7328959  53.7233362
  78.3569752  70.5637248  54.8456104  77.7397560  71.1116759  54.1336482
  78.8349752  71.1987248  55.9806104  78.5980897  72.2476312  56.1588812
  80.4279752  71.1867248  60.6376104  81.6519752  71.0607248  60.6926104
  79.7409752  71.8277248  61.5856104  78.7423695  71.9525198  61.5000998
  80.4229752  72.4337248  62.7386104  81.1839010  73.1296385  62.3853467
  79.4369752  73.1967248  63.6276104  78.8657908  73.8626657  62.9807950
  78.7685637  72.4561721  64.0668231  80.0899752  74.0017248  64.7286104
  80.8709752  75.1167248  64.4316104  81.0071801  75.4000583  63.3879295
  81.4709752  75.8627248  65.4376104  82.0760034  76.7346536  65.1890488
  81.2919752  75.5007248  66.7566104  81.8949752  76.2417248  67.7416104
  82.4080579  76.9764509  67.3973381  80.5199752  74.3987248  67.0796104
  80.3776068  74.1128090  68.1217639  79.9259752  73.6567248  66.0696104
  79.3181968  72.7866320  66.3178928  81.1619752  71.3537248  63.5396104
  80.7059752  70.2127248  63.6126104  82.3129752  71.7277248  64.1006104
  82.5533869  72.7060506  64.0286371  83.2999752  70.8057248  64.7026104
  83.9698197  71.3902164  65.3333062  82.6679752  69.6907248  65.5566104
  82.1752904  69.0128804  64.8595538  83.4939058  69.1726418  66.0439795
  81.6689752  70.1517248  66.6066104  82.1926170  70.7835578  67.3240274
  80.8999242  70.7363785  66.1017939  81.0239752  68.9907248  67.3336104
  81.7609752  68.0637248  67.7476104  79.7829752  69.0087248  67.4956104
  84.2629752  70.1717248  63.6886104  85.3589752  69.7727248  64.0726104
  83.8569752  70.0707248  62.4196104  82.9043290  70.3328478  62.2101920
  84.6769752  69.5017248  61.3396104  84.0833622  69.4379047  60.4276620
  85.9089752  70.3727248  61.0626104  86.5728361  70.3316146  61.9261484
  86.4281685  69.9831376  60.1869619  85.5279752  71.7087248  60.8266104
  86.3097428  72.2389209  60.6553461  85.0849752  68.0547248  61.6046104
  86.2159752  67.6547248  61.3216104  84.1499752  67.2757248  62.1426104
  83.2568822  67.6654826  62.4082661  84.4119752  65.8747248  62.4506104
  85.4508010  65.7571261  62.7590108  83.5089752  65.3847248  63.5806104
  83.3868260  66.2047221  64.2882708  82.5411784  65.1321414  63.1474003
  84.0709752  64.1747248  64.3016104  84.2797823  63.4084348  63.5550851
  85.0015367  64.4753613  64.7830407  82.9589752  63.5067248  65.5356104
  83.3779752  61.7657248  65.4276104  84.4333379  61.6301255  65.6640878
  82.7719448  61.2010063  66.1360741  83.1835860  61.4067178  64.4169532
  84.2749752  64.9627248  61.2326104  84.7939752  63.8527248  61.2546104
  83.5919752  65.4087248  60.1756104  83.0506198  66.2596386  60.2301937
  83.5569752  64.6397248  58.9236104  83.1146093  63.6625338  59.1172837
  82.7309752  65.3457248  57.8426104  81.7661145  65.5033675  58.3245770
  83.2019128  66.3096038  57.6495949  82.5239752  64.6017248  56.5136104
  83.4869668  64.5279744  56.0083294  81.9559752  63.2037248  56.7306104
  80.9927015  63.2766880  57.2354657  81.8243371  62.7109110  55.7673312
  82.6441976  62.6226028  57.3444082  81.6089752  65.3957248  55.6016104
  82.0541829  66.3695575  55.3977981  81.4718490  64.8561888  54.6644879
  80.6422402  65.5329817  56.0860513  84.9709752  64.3767248  58.4026104
  85.2559752  63.2747248  57.9406104  85.8399752  65.3837248  58.5136104
  85.5051186  66.2721863  58.8580032  87.2549752  65.2737248  58.1286104
  87.3310370  65.1506665  57.0482538  88.0349752  66.5347248  58.5356104
  88.0095378  66.6375890  59.6204473  89.0664336  66.4063005  58.2074322
  87.4819752  67.8077248  57.9136104  86.2799752  68.0777248  57.9836104
  88.3599752  68.6047248  57.3196104  88.0476632  69.4636713  56.8897595
  89.3368812  68.3490598  57.2998402  87.9419752  64.0537248  58.7626104
  88.7559752  63.3807248  58.1206104  87.6189752  63.7957248  60.0286104
  87.0425425  64.4591618  60.5262809  88.1189752  62.6317248  60.7546104
  89.2014501  62.5600121  60.6487586  87.7749752  62.7317248  62.2596104
  86.6917653  62.7948545  62.3633942  88.2899752  61.5197248  63.0316104
  89.3732421  61.4561956  62.9286714  88.0310795  61.6226804  64.0853999
  87.8338686  60.6136263  62.6327960  88.3639752  63.9167248  62.8066104
  88.1503336  63.9784836  63.7404966  87.5779752  61.3177248  60.1776104
  88.3279752  60.3567248  60.0386104  86.2849752  61.2817248  59.8536104
  85.6964677  62.0705575  60.0805490  85.6579752  60.0937248  59.2486104
  85.8660407  59.2017904  59.8395935  84.1169752  60.2507248  59.1116104
  83.9116243  61.1727292  58.5677004  83.4959752  59.0717248  58.3666104
  83.7005253  58.1493520  58.9101991  82.4183332  59.2164698  58.2902107
  83.9250600  59.0063771  57.3667516  83.4679752  60.3887248  60.4796104
  83.8680640  61.2676237  60.9851476  82.3898551  60.4974443  60.3615563
  83.6800739  59.5001803  61.0742563  86.2889752  59.7797248  57.8836104
  86.5109752  58.6137248  57.5636104  86.5839752  60.8197248  57.0976104
  86.3239071  61.7508678  57.3899058  87.2149752  60.6537248  55.7816104
  86.6663658  59.9043676  55.2110048  87.2179752  61.9727248  54.9866104
  87.8807548  62.5873021  55.5958043  87.6937819  61.7664505  54.0278826
  85.8959752  62.7227248  54.7516104  85.5215754  63.0881253  55.7078573
  86.1079752  63.8967248  53.8086104  86.4819567  63.5320419  52.8519270
  85.1615929  64.4150800  53.6544378  86.8325518  64.5857546  54.2425772
  84.7909752  61.8177248  54.2256104  84.5989456  61.0219487  54.9453079
  83.8820184  62.4010632  54.0785900  85.0995177  61.3811464  53.2757158
  88.6419752  60.1187248  55.9176104  89.0629752  59.2567248  55.1396104
  89.3819752  60.6357248  56.8996104  89.0506281  61.4483850  57.3995022
  90.7069752  60.0977248  57.2436104  91.3674776  60.1710145  56.3796287
  91.3309752  60.8837248  58.4066104  91.4259623  61.9154385  58.0680200
  90.6299287  60.8384700  59.2400285  92.6849752  60.3737248  58.8576104
  92.7919752  59.2637248  59.7076104  91.8790038  58.7741252  60.0465424
  94.0249752  58.7877248  60.1166104  94.0916509  57.9110970  60.7609550
  95.1789752  59.4277248  59.6966104  96.4029752  58.9587248  60.1196104
  96.3330046  58.1933338  60.6948325  95.1039752  60.5337248  58.8646104
  96.0134266  61.0376320  58.5373854  93.8629752  60.9997248  58.4476104
  93.7991897  61.8668199  57.7902083  90.6189752  58.6087248  57.5946104
  91.4359752  57.8107248  57.1216104  89.6339752  58.2557248  58.4236104
  89.0595192  58.9797983  58.8308169  89.3949752  56.8677248  58.8306104
  90.3245435  56.4914567  59.2577220  88.3099752  56.8047248  59.8956104
  87.3707100  57.1698090  59.4801655  88.1840553  55.7737270  60.2261978
  88.5968385  57.4254459  60.7444414  89.0289752  55.9657248  57.6576104
  89.4689752  54.8167248  57.5916104  88.2269752  56.4997248  56.7386104
  87.8427340  57.4180467  56.9093233  87.8319752  55.7987248  55.5166104
  87.3908980  54.8330019  55.7634492  86.7929752  56.6317248  54.7526104
  85.9277455  56.7086860  55.4110583  87.2377287  57.6181368  54.6211358
  86.3529752  56.0877248  53.3966104  87.2139341  55.6439067  52.8967343
  85.5902894  55.3245960  53.5516810  85.7869752  57.1997248  52.5356104
  85.3536108  56.7597399  51.6374414  85.0091092  57.7156565  53.0984943
  86.8029752  58.1757248  52.1366104  87.7625775  57.9293574  52.3329925
  86.5539752  59.3467248  51.5416104  85.3079752  59.7327248  51.2616104
  84.5310652  59.1333805  51.5009787  85.1473143  60.6225190  50.8115505
  87.5649752  60.1497248  51.2196104  88.5133186  59.8703660  51.4262589
  87.3793694  61.0348976  50.7700348  89.0299752  55.5017248  54.6156104
  89.2019752  54.3647248  54.1806104  89.8349752  56.5247248  54.3326104
  89.6382973  57.4339362  54.7259954  90.9959752  56.3877248  53.4376104
  90.6630636  55.9948657  52.4769175  91.6969752  57.7397248  53.2006104
  91.9654084  58.1356813  54.1800293  92.6030465  57.5505347  52.6249872
  90.8249752  58.7587248  52.4596104  89.8209752  58.3827248  51.8126104
  91.1659752  59.9577248  52.5236104  92.0259752  55.4097248  53.9956104
  92.6049752  54.6307248  53.2466104  92.2409752  55.4537248  55.3086104
  91.7117701  56.0995797  55.8768644  93.2649752  54.6387248  55.9576104
  94.1557319  54.5881287  55.3314381  93.6479752  55.2577248  57.3036104
  93.8353857  56.3160073  57.1219111  92.7828735  55.1495611  57.9578273
  94.8649752  54.6347248  57.9666104  94.6397718  53.5952289  58.2050061
  95.7017731  54.6739414  57.2692342  95.2319752  55.3777248  59.2396104
  95.5836672  56.3719834  58.9641806  94.3349528  55.4670184  59.8523720
  96.3149752  54.6577248  60.0286104  96.1718450  54.8786257  61.0863519
  96.2034737  53.5860968  59.8634433  97.6779752  55.0837248  59.6136104
  97.7816483  56.0766142  59.7669796  98.3669779  54.5851423  60.1583955
  97.8109605  54.8787301  58.6336149  92.8269752  53.1857248  56.1636104
  93.5879752  52.2637248  55.8566104  91.6119752  52.9927248  56.6816104
  90.9815141  53.7763024  56.7744771  91.1809752  51.6877248  57.1976104
  91.9969072  50.9685487  57.1259165  90.7719752  51.8177248  58.6646104
  90.0304621  52.6114214  58.7557320  90.3514845  50.8838044  59.0375450
  91.8889752  52.1737248  59.5746104  93.0739752  51.5117248  59.7236104
  93.2244745  50.6288697  59.1023079  93.8489752  52.1337248  60.6666104
  94.7704473  51.8419622  60.9596350  93.1649752  53.2157248  61.1536104
  93.5309752  54.1487248  62.1246104  94.5045244  54.0503462  62.6048419
  92.6289752  55.1417248  62.4146104  92.8786702  55.8932587  63.1635758
  91.3819752  55.2137248  61.7646104  90.6707536  56.0042318  62.0041139
  91.0229752  54.2877248  60.8066104  90.0485985  54.3916926  60.3292411
  91.9219752  53.2657248  60.4876104  90.0519752  50.9817248  56.4616104
  89.9229752  49.7757248  56.6146104  89.2179752  51.6887248  55.7026104
  89.3416954  52.6811322  55.5614717  88.0479752  51.0397248  55.0966104
  87.5418728  50.4404233  55.8534441  87.0559752  52.0567248  54.5356104
  86.9019653  52.7458466  55.3659665  87.5323988  52.5846875  53.7095499
  85.6999752  51.5007248  54.0736104  85.8805336  50.7321494  53.3220843
  84.9169752  50.9027248  55.2316104  84.7356193  51.6708709  55.9833819
  83.9638496  50.5196549  54.8670425  85.4893185  50.0883261  55.6757708
  84.8939752  52.5927248  53.3876104  85.4434501  52.9606704  52.5211274
  83.9348836  52.1882872  53.0640756  84.7250709  53.4130205  54.0852387
  88.4679752  50.0747248  53.9916104  89.1549752  50.4657248  53.0476104
  88.0459752  48.8187248  54.1226104  87.5477791  48.5511976  54.9594671
  88.3109752  47.7897248  53.1126104  89.3783709  47.7559216  52.8943835
  87.8739752  46.4197248  53.6226104  86.8053564  46.4351390  53.8368911
  88.0808786  45.6657727  52.8631056  88.4230553  46.1781505  54.5326940
  87.5819752  48.1187248  51.8086104  86.6139752  48.8807248  51.8266104
  88.0479752  47.5587248  50.6706104  89.2979752  46.8067248  50.4526104
  89.4229181  46.0771166  51.2527113  90.1398348  47.4990686  50.4582199
  89.0959752  46.1647248  49.1156104  88.7111492  45.1556476  49.2631609
  90.0545441  46.1155410  48.5990564  88.1279752  47.0117248  48.3616104
  87.4809719  46.3506181  47.7850485  88.6101435  47.7229354  47.6909444
  87.2989752  47.7647248  49.4176104  87.2549051  48.8340191  49.2108114
  85.8769752  47.2067248  49.5216104  85.6779752  46.1277248  50.0856104
  84.9059752  47.9687248  49.0196104  85.1631039  48.8479387  48.5942082
  83.4749752  47.6557248  49.1646104  82.8796609  48.4780306  48.7677310
  83.1099752  46.3667248  48.3966104  83.6114275  45.5375011  48.8956424
  82.0305978  46.2279773  48.4582014  83.5349752  46.4097248  46.9286104
  83.5049752  47.5007248  46.3186104  83.8919752  45.3437248  46.3786104
  83.0189752  47.5797248  50.6346104  82.0559752  46.8767248  50.9566104
  83.7029752  48.3187248  51.5136104  84.5089684  48.8352308  51.1915920
  83.3369752  48.4147248  52.9266104  83.0004507  47.4445638  53.2921759
  84.1940608  48.7459843  53.5129301  82.2139752  49.4177248  53.0856104
  81.9989752  50.2527248  52.2036104  81.5069752  49.3417248  54.2096104
  81.7838650  48.6803118  54.9209221  80.3059752  50.1517248  54.4426104
  79.9948237  50.6321781  53.5150068  79.1609752  49.2647248  54.9426104
  79.4789264  48.9857507  55.9471898  78.2585075  49.8729569  55.0034856
  78.8699752  48.0007248  54.1306104  79.7642538  47.3779855  54.1068936
  77.7269752  47.2217248  54.7616104  76.8321618  47.8436963  54.7852571
  77.5300173  46.3248625  54.1742891  77.9981159  46.9373236  55.7783204
  78.5569752  48.3377248  52.6806104  79.4096200  48.8489226  52.2336504
  78.3545921  47.4195367  52.1291823  77.6821176  48.9865335  52.6385357
  80.5689752  51.2697248  55.4476104  81.4119752  51.1297248  56.3326104
  79.8409752  52.3757248  55.2946104  79.2558797  52.4571118  54.4753799
  79.8909752  53.5047248  56.2276104  80.4606252  53.2116535  57.1094875
  80.5339752  54.7587248  55.5926104  79.8739782  55.1345915  54.8107993
  80.7519752  55.8477248  56.6416104  81.4122929  55.4727282  57.4235687
  81.2054259  56.7203045  56.1714107  79.7939708  56.1282419  57.0793738
  81.8809752  54.4047248  54.9476104  82.5206511  54.0192637  55.7415470
  81.6868206  53.6145730  54.2223079  82.5729752  55.5617248  54.2596104
  82.7678888  56.3521342  54.9844287  83.5160357  55.2200045  53.8330388
  81.9340567  55.9474451  53.4651906  78.4589752  53.7907248  56.6906104
  77.5339752  53.7917248  55.8766104  78.2889752  54.0057248  57.9966104
  79.1032458  53.9930304  58.5940229  76.9809752  54.2567248  58.6096104
  76.2142436  54.3246914  57.8378577  76.6179752  53.1127248  59.5606104
  77.4786850  52.8161682  60.1600536  75.8142379  53.4433331  60.2184892
  76.1249752  51.8687248  58.8696104  76.9869752  51.0887248  58.1056104
  78.0290272  51.3917181  58.0035195  76.5339752  49.9357248  57.4766104
  77.2190025  49.3380278  56.8752813  75.2119752  49.5457248  57.6136104
  74.8524435  48.6407769  57.1238083  74.3459752  50.3107248  58.3766104
  73.3040134  50.0091808  58.4837879  74.8029752  51.4587248  59.0036104
  74.1230485  52.0546876  59.6124025  77.0119752  55.5757248  59.4036104
  77.7209752  55.6557248  60.4046104  76.2889752  56.6187248  58.9826104
  76.0969752  57.8367248  59.7906104  77.0656949  58.1938833  60.1400674
  75.4650273  57.6047117  60.6478797  75.4409752  58.7907248  58.8386104
  76.1920297  59.3606353  58.2916019  74.7861544  59.4761704  59.3766395
  74.6559752  57.9097248  57.9276104  74.5321373  58.4469560  56.9873201
  73.6808638  57.5863089  58.2918349  75.5629752  56.6967248  57.7176104
  75.0431589  55.7531171  57.5517976  76.5159752  56.9597248  56.5616104
  77.6979752  57.2307248  56.7826104  75.9929752  56.8837248  55.3426104
  75.0500779  56.5388493  55.2325887  76.7849752  57.1427248  54.1336104
  77.7891124  57.4588763  54.4161983  76.8939752  55.8797248  53.2656104
  77.3600374  56.1642042  52.3222352  77.5429414  55.1821470  53.7950707
  75.5539752  55.2147248  52.9886104  74.4939752  55.8757248  53.0596104
  75.5719752  54.0027248  52.6856104  76.3229752  58.3427248  53.2906104
  76.9739752  58.6707248  52.2996104  75.2219752  58.9877248  53.6746104
  74.6981015  58.6529868  54.4706042  74.7019752  60.1357248  52.9366104
  75.5036244  60.6026180  52.3643617  73.6039752  59.6917248  51.9676104
  74.0187425  58.8774976  51.3733869  72.7812381  59.3148830  52.5752238
  73.0909752  60.7847248  51.0416104  72.6422463  61.5685434  51.6518329
  73.9383549  61.1936977  50.4913460  72.0569752  60.2527248  50.0586104
  72.5644889  59.7315776  49.2468626  71.3909973  59.5605244  50.5738108
  71.2549752  61.3407248  49.4896104  70.3461039  61.4805461  49.9073450
  71.6259752  62.1427248  48.4836104  72.8089752  62.0057248  47.8826104
  73.4458195  61.2832150  48.1867633  73.0624108  62.6251346  47.1261704
  70.7949752  63.1037248  48.0696104  69.8966149  63.2175244  48.5169340
  71.0690111  63.7119147  47.3112516  74.1789752  61.2107248  53.8876104
  73.4549752  60.9107248  54.8376104  74.5719752  62.4547248  53.6246104
  75.2596540  62.5983302  52.8989557  74.0839752  63.6187248  54.3546104
  73.1803759  63.3731941  54.9125729  75.1359752  64.1167248  55.3296104
  76.0438436  64.3752620  54.7846026  74.7616027  64.9983757  55.8498383
  75.3587779  63.3345560  56.0553309  73.7209752  64.7147248  53.3576104
  74.4099752  64.9027248  52.3526104  72.6319752  65.4247248  53.6436104
  72.0980187  65.1940671  54.4693142  72.1569752  66.5087248  52.7946104
  72.9292992  66.7727365  52.0721752  70.8799752  66.1117248  52.0276104
  70.4206373  67.0131462  51.6219648  71.2039752  65.1487248  50.8876104
  71.6629505  64.2468030  51.2925528  70.2860309  64.8843707  50.3626398
  71.8945419  65.6266480  50.1927668  69.9599752  65.4817248  52.9226104
  69.1654461  65.2351638  52.4435160  71.8749752  67.7387248  53.6496104
  71.3239752  67.6157248  54.7386104  72.2589752  68.9117248  53.1426104
  72.7229030  68.9104420  52.2454657  72.0589752  70.1897248  53.8156104
  71.6817908  70.0253012  54.8249647  73.3849752  70.9467248  53.9066104
  74.0695645  70.1915409  54.2927892  73.6663911  71.2032274  52.8852821
  73.4579752  72.1987248  54.7856104  72.6958990  72.8994528  54.4445521
  73.2299752  71.8777248  56.2546104  73.9919958  71.1773587  56.5965327
  73.2905002  72.7945361  56.8410356  72.2437881  71.4308890  56.3805991
  74.8039752  72.8867248  54.6146104  74.9346662  73.1764319  53.5719748
  74.8413638  73.7748870  55.2453808  75.6016775  72.2025088  54.9037792
  71.0419752  71.0077248  53.0246104  71.1839752  71.1747248  51.8126104
  70.0139752  71.4977248  53.7156104  69.9370772  71.2769032  54.6981703
  68.9749752  72.3247248  53.1086104  69.1760982  72.4404843  52.0435994
  67.5989752  71.6847248  53.2786104  67.4099728  71.6038265  54.3490462
  66.8662046  72.3558013  52.8304993  67.4859752  70.3247248  52.6456104
  67.8909752  69.1857248  53.3346104  68.2900269  69.2940828  54.3431320
  67.7939752  67.9317248  52.7606104  68.1162695  67.0474755  53.3104571
  67.2899752  67.8037248  51.4826104  67.1969752  66.5547248  50.9216104
  67.5078723  65.8578108  51.5040652  66.8789752  68.9167248  50.7756104
  66.4781471  68.8139906  49.7672043  66.9789752  70.1697248  51.3566104
  66.6587126  71.0534745  50.8047786  68.9569752  73.7077248  53.7346104
  69.4319752  73.8997248  54.8476104  68.4039752  74.6617248  52.9936104
  68.1966241  74.4651753  52.0248622  68.1519752  76.0087248  53.4956104
  68.2322771  76.0523741  54.5817713  69.1129752  77.0627248  52.8846104
  70.1361662  76.7235856  53.0463634  68.8729752  77.2617248  51.3876104
  67.8500597  77.6013312  51.2250918  69.5683858  78.0081193  51.0036835
  69.0291567  76.3177762  50.8654322  68.9849752  78.3867248  53.6236104
  69.2372202  78.2428783  54.6742210  69.6651026  79.1161521  53.1837670
  67.9607809  78.7508980  53.5429583  66.6919752  76.3727248  53.2226104
  66.1149752  75.9567248  52.2196104  66.1059752  77.1277248  54.1416104
  66.5879619  77.3010432  55.0120982  64.7479752  77.6427248  53.9876104
  64.4887700  77.7797243  52.9377804  63.7119752  76.6917248  54.6326104
  63.8376770  75.7023701  54.1927506  63.8849752  76.5997248  56.1606104
  63.7589430  77.5886883  56.6012539  63.1369818  75.9215335  56.5712946
  64.8815842  76.2237662  56.3919679  62.3859752  77.1307248  54.3136104
  61.7471308  76.5377235  54.7158885  64.7089752  79.0527248  54.5736104
  65.7409752  79.5647248  54.9956104  63.5399752  79.6837248  54.5736104
  62.7214599  79.2168701  54.2100465  63.3989752  81.0587248  55.0516104
  64.2882366  81.3474186  55.6119401  63.2349752  82.0087248  53.8786104
  62.3433980  81.7379815  53.3130239  63.1342009  83.0291904  54.2481976
  64.1094238  81.9419716  53.2313215  62.2129752  81.1787248  55.9806104
  61.1969752  80.5037248  55.7816104  62.3379752  82.0517248  56.9816104
  63.1874521  82.5908566  57.0700702  61.3039752  82.2147248  58.0026104
  60.3447908  81.8366164  57.6489179  61.6849752  81.5007248  59.3186104
  60.8948227  81.6575540  60.0528883  61.8599752  80.0077248  59.0726104
  62.6503348  79.8500713  58.3387319  62.1283982  79.5140782  60.0066141
  60.9266003  79.5891270  58.6961980  62.9639752  82.0997248  59.9436104
  63.8014813  81.7966240  59.3152679  62.8602189  83.1843004  59.9115184
  63.2179752  81.6597248  61.3686104  63.3223107  80.5752265  61.4014343
  64.1338306  82.1235788  61.7348721  62.3810465  81.9629011  61.9976846
  60.9679752  83.6617248  58.3396104  61.7819752  84.5747248  58.1636104
  59.7469752  83.8337248  58.8376104  59.0653640  83.1014658  58.6986780
  59.3439752  85.0177248  59.5706104  59.7880312  85.9073363  59.1239507
  57.8219752  85.1557248  59.5246104  57.5316018  85.0875533  58.4762139
  57.4125302  84.3057458  60.0704955  57.2789752  86.4497248  60.1186104
  57.9697520  87.2458593  59.8409452  56.3067835  86.6375987  59.6629287
  57.1309752  86.4127248  61.6276104  56.8099752  85.3347248  62.1736104
  57.3329752  87.4677248  62.2626104  59.8299752  84.8237248  61.0066104
  59.7329752  83.7207248  61.5496104  60.3549752  85.8867248  61.6156104
  60.4325974  86.7581255  61.1108976  60.9059752  85.8177248  62.9696104
  60.2187511  85.2941533  63.6342119  62.2429752  85.0457248  62.9346104
  62.1939541  84.2993261  62.1417768  63.0170161  85.7758415  62.6981990
  62.5749752  84.3647248  64.2506104  61.6589752  84.0787248  65.0436104
  63.7669752  84.0887248  64.4846104  61.0899752  87.2057248  63.6246104
  62.1059752  87.4617248  64.2686104  60.0909752  88.0797248  63.4906104
  59.2840197  87.8250604  62.9391867  60.1649752  89.4477248  64.0286104
  61.0544796  89.9465407  63.6438198  58.9209752  90.2657248  63.6126104
  58.9955725  90.3728392  62.5304547  58.0665522  89.6344600  63.8566718
  58.7339752  91.6487248  64.2516104  57.9680118  92.1606408  63.6690789
  58.3665243  91.4778493  65.2634817  59.9959752  92.5137248  64.3066104
  59.7341713  93.4602876  64.7794491  60.7330978  91.9940396  64.9187192
  60.5889752  92.7927248  62.9906104  59.9700760  92.6936206  62.1986246
  61.8629752  93.1407248  62.7666104  62.2659752  93.3827248  61.5266104
  61.6113960  93.3032314  60.7615569  63.2256318  93.6454140  61.3529635
  62.7509752  93.2327248  63.7526104  62.4685584  93.0369277  64.7023495
  63.7035990  93.4979593  63.5470447  60.3579752  89.4667248  65.5526104
  61.3159752  90.0637248  66.0456104  59.4539752  88.8127248  66.2786104
  58.7053079  88.3347886  65.7978053  59.4399752  88.8287248  67.7486104
  59.2877159  89.8447167  68.1128585  58.2899752  87.9427248  68.2656104
  57.3763181  88.3600875  67.8423632  58.4638023  86.9513683  67.8471649
  58.1459752  87.8367248  69.7806104  58.9110128  87.1548842  70.1519750
  58.2952508  88.8232418  70.2194759  56.7759752  87.3137248  70.2096104
  55.7959752  88.0627248  70.2366104  56.7049752  86.0277248  70.5526104
  55.8216333  85.6338875  70.8436441  57.5348397  85.4529574  70.5199197
  60.7829752  88.4027248  68.3636104  61.3219752  89.0917248  69.2256104
  61.3279752  87.2867248  67.8996104  60.8435665  86.7335743  67.2071712
  62.5759752  86.7697248  68.4476104  62.5796540  86.9026918  69.5294632
  62.7429752  85.2767248  68.1366104  61.7500602  84.8270829  68.1430217
  63.1688554  85.2015318  67.1360745  63.6349752  84.5457248  69.1216104
  63.2019752  84.2817248  70.4276104  62.2075516  84.6121145  70.7277167
  64.0149752  83.6117248  71.3346104  63.6704253  83.4197289  72.3507427
  65.2809752  83.1927248  70.9386104  66.0979752  82.5257248  71.8196104
  65.6965494  82.4012147  72.6827177  65.7289752  83.4347248  69.6526104
  66.7180682  83.0977444  69.3423849  64.9119752  84.1107248  68.7546104
  65.2632889  84.3109664  67.7423940  63.7879752  87.5757248  67.9656104
  64.7529752  87.7257248  68.7156104  63.7439752  88.1037248  66.7406104
  63.0209726  87.8379733  66.0873550  64.7969752  89.0137248  66.2796104
  65.7651269  88.5415914  66.4465586  64.6699752  89.3577248  64.7916104
  64.4382549  88.4379004  64.2546485  63.8442729  90.0605506  64.6804729
  65.9399752  89.9727248  64.2196104  66.2640144  90.7660664  64.8931892
  66.7034115  89.1957253  64.1803810  65.7289752  90.5437248  62.8316104
  65.4398989  89.7366986  62.1583775  64.9311116  91.2852232  62.8727587
  67.0019752  91.1977248  62.3206104  67.3537976  91.8893527  63.0860988
  67.7444633  90.4138803  62.1709495  66.7949752  91.9337248  61.0456104
  66.1073183  92.6603782  61.1841829  67.6676083  92.3478424  60.7504527
  66.4693760  91.2929444  60.3360438  64.8299752  90.2967248  67.1106104
  65.9149752  90.7957248  67.4176104  63.6569752  90.8277248  67.4656104
  62.7958841  90.4727378  67.0749628  63.5859752  91.9747248  68.3796104
  64.1452640  92.8053200  67.9490216  62.1349752  92.4337248  68.6276104
  61.5355868  91.5323592  68.7555666  62.1164342  93.0156115  69.5491114
  61.5579752  93.2717248  67.4836104  62.3129752  93.7237248  66.5976104
  60.3219752  93.4947248  67.4806104  64.2569752  91.6317248  69.7106104
  65.0429752  92.4197248  70.2296104  63.9539752  90.4417248  70.2276104
  63.2854094  89.8668507  69.7350266  64.4729752  89.9597248  71.5086104
  64.3101163  90.6978038  72.2939865  63.7269752  88.6717248  71.8836104
  62.6627135  88.8640721  71.7477847  64.0584738  87.9339412  71.1529366
  63.9689752  88.1427248  73.2786104  63.5449752  88.8577248  74.4006104
  63.0410476  89.8136170  74.2576893  63.7559752  88.3697248  75.6816104
  63.4298878  88.9407240  76.5509370  64.3879752  87.1437248  75.8526104
  64.5959752  86.6537248  77.1196104  64.2663060  87.2377903  77.8064767
  64.8119752  86.4077248  74.7566104  65.3098697  85.4474461  74.8910222
  64.5969752  86.9047248  73.4796104  64.9179326  86.3308707  72.6102555
  65.9999752  89.7327248  71.5156104  66.6669752  90.0667248  72.4956104
  66.5419752  89.1847248  70.4256104  65.9433298  88.9836444  69.6373911
  67.9619752  88.8047248  70.3386104  68.3769752  88.6759088  71.3382507
  68.1029752  87.4827248  69.5756104  67.6768385  87.6506465  68.5865154
  69.1722941  87.2930065  69.4825292  67.4309752  86.2837248  70.2186104
  66.3776324  86.5322295  70.3482835  67.5238847  85.4481854  69.5248209
  68.0319752  85.8937248  71.5686104  68.1059820  86.7970094  72.1741670
  67.3496062  85.1911293  72.0469738  69.4039752  85.2577248  71.4396104
  69.3182177  84.3598502  70.8275913  70.0745021  85.9659270  70.9528429
  69.9509752  84.8957248  72.7786104  69.3300156  84.2391639  73.2296500
  70.8624965  84.4751721  72.6674151  70.0309206  85.7276391  73.3457315
  68.8919752  89.8307248  69.6816104  70.0799752  89.8767248  70.0156104
  68.3769752  90.6207248  68.7356104  67.3990220  90.5404463  68.4963153
  69.2079752  91.5497248  67.9626104  70.2583858  91.4402389  68.2323318
  69.0419752  91.3347248  66.4406104  68.0184317  91.5832654  66.1600990
  70.0119752  92.2167248  65.6586104  71.0358127  91.9684281  65.9382641
  69.8766298  92.0481064  64.5902705  69.8170790  93.2643099  65.8881316
  69.2479752  89.8567248  66.0656104  68.4607283  89.2971695  66.5708241
  69.1062550  89.7889945  64.9869874  70.5999752  89.2737248  66.4356104
  70.7422270  89.3406845  67.5142117  70.6420525  88.2287960  66.1282790
  71.3877544  89.8325114  65.9303764  68.9179752  93.0027248  68.3256104
  69.8089752  93.7087248  68.8076104  67.6829752  93.4447248  68.1086104
  66.9929383  92.8381101  67.6891262  67.3279752  94.8507248  68.3346104
  68.1136870  95.4952002  67.9403925  66.0109752  95.1987248  67.6326104
  65.2412389  94.5086814  67.9782191  65.6952585  96.2230773  67.8304103
  66.0809752  95.0517248  66.1426104  66.8089752  95.9107248  65.3436104
  67.3332456  96.7040138  65.6840995  66.7079752  95.5297248  64.0816104
  67.2067073  96.0885715  63.2897420  65.9519752  94.4477248  64.0346104
  65.5499752  94.1247248  65.3096104  64.9183533  93.2523623  65.4773561
  67.2979752  95.2447248  69.8156104  67.4159752  96.4277248  70.1406104
  67.1629752  94.2577248  70.6996104  66.9377877  93.3362331  70.3528497
  67.2479752  94.4537248  72.1556104  66.4260799  95.0778907  72.5063299
  67.1569752  93.0887248  72.8486104  66.1793692  92.6447817  72.6607265
  67.9343368  92.4353495  72.4524921  67.3349752  93.1157248  74.3216104
  66.3639752  93.2727248  75.2596104  65.3435977  93.3950146  74.8963273
  66.9109752  93.2407248  76.5146104  66.3995692  93.3333683  77.3806246
  68.2629752  93.0597248  76.4056104  69.2439752  92.9627248  77.3966104
  68.9411765  93.0372682  78.4410504  70.5399752  92.7777248  76.9846104
  71.3333155  92.6997688  77.7280040  70.8719752  92.6857248  75.6206104
  71.9038597  92.5343235  75.3037643  69.8979752  92.7847248  74.6396104
  70.2061942  92.7182444  73.5962111  68.5649752  92.9727248  75.0316104
  68.5169752  95.2027248  72.6096104  68.4609752  95.9937248  73.5516104
  69.6419752  94.9617248  71.9326104  69.6436613  94.2429313  71.2230807
  70.9139752  95.6487248  72.2366104  71.1335590  95.5659177  73.3010470
  72.0669752  95.0157248  71.4476104  71.8380908  95.0133870  70.3819155
  72.9724300  95.5966770  71.6229561  72.3879752  93.5957248  71.8216104
  72.0219752  92.4677248  71.1446104  71.4316982  92.6101417  70.2394087
  72.4999752  91.3537248  71.7826104  72.3618923  90.3990683  71.4831716
  73.2009752  91.7457248  72.8916104  73.8759752  90.9797248  73.8476104
  73.8761983  89.8952277  73.7382276  74.4999752  91.6477248  74.8706104
  75.0312136  91.0827004  75.6365302  74.4709752  93.0477248  74.9556104
  74.9719106  93.5703990  75.7704570  73.7999752  93.8137248  73.9996104
  73.8009245  94.8980363  74.1108233  73.1529752  93.1557248  72.9466104
  70.9159752  97.1787248  71.9856104  71.7969752  97.8817248  72.4766104
  69.9459752  97.6847248  71.2266104  69.2960676  97.0609759  70.7698207
  69.8189752  99.1277248  70.9776104  70.7901772  99.5421888  70.7072669
  68.8359752  99.3917248  69.8286104  67.8755365  98.9811689  70.1402201
  68.7536349 100.4743130  69.7320553  69.2339752  98.7897248  68.4826104
  70.0432778  99.3944488  68.0734173  69.5968944  97.7800191  68.6746609
  68.0859752  98.7347248  67.4826104  68.2229752  98.0367248  66.4566104
  67.0419752  99.3797248  67.7166104  69.3689752  99.9327248  72.2096104
  69.6089752 101.1397248  72.2686104  68.7029752  99.2767248  73.1646104
  68.4954924  98.2977503  73.0280119  68.1899752  99.9367248  74.3776104
  68.8064829 100.8014953  74.6229457  66.7439752 100.4137248  74.1426104
  66.6903140 100.8608880  73.1500054  66.0799016  99.5505684  74.1880775
  66.2769752 101.4417248  75.1656104  66.6009752 101.3697248  76.3546104
  65.4989752 102.4097248  74.6996104  65.1552671 103.1231050  75.3265500
  65.2538746 102.4289517  73.7199897  68.2829752  98.9907248  75.5886104
  67.3319752  98.2747248  75.9146104  69.4459752  99.0007248  76.2386104
  70.1881878  99.5815552  75.8754908  69.7189752  98.1857248  77.4276104
  68.9461748  97.4380200  77.6059812  71.0849752  97.4657248  77.3026104
  71.8596308  98.2138578  77.1343698  71.4079752  96.6747248  78.5686104
  70.6339486  95.9260335  78.7372672  72.3722070  96.1799000  78.4523949
  71.4486088  97.3529339  79.4209501  71.0939752  96.5587248  76.0706104
  70.9240235  97.1581568  75.1762393  72.0593981  96.0585226  75.9940856
  70.3049219  95.8123646  76.1624913  69.6929752  99.1107248  78.6436104
  70.7059752  99.7407248  78.9666104  68.5219752  99.2017248  79.2856104
  67.7480313  98.6731506  78.9091539  68.2639752 100.1067248  80.4226104
  67.1977628 100.1105594  80.6490513  69.0309752  99.6557248  81.6766104
  70.0976569  99.7151443  81.4603725  68.7825993 100.3572521  82.4730204
  68.6839752  98.2527248  82.1156104  67.5819752  98.0077248  82.9416104
  66.9780383  98.8522005  83.2736052  67.2519752  96.7207248  83.3386104
  66.3893052  96.5426917  83.9806434  68.0279752  95.6557248  82.9096104
  67.7139752  94.3717248  83.2996104  66.9403245  94.3304935  83.8665004
  69.1239752  95.8767248  82.0896104  69.7333208  95.0381245  81.7526415
  69.4439752  97.1667248  81.6986104  70.3044578  97.3429463  81.0531525
  68.5609752 101.5697248  80.0786104  69.1539752 102.3057248  80.8696104
  68.1309752 101.9747248  78.8836104  67.6108079 101.3227112  78.3140460
  68.3749752 103.3197248  78.3536104  67.5248350 103.5540698  77.7129521
  68.3775272 103.9904137  79.2128364  69.6629752 103.5217248  77.5626104
  69.8279752 104.5697248  76.9366104  70.5689752 102.5387248  77.5786104
  70.3621704 101.6929948  78.0905400  71.8819752 102.6597248  76.9376104
  72.0812768 103.7054768  76.7035573  72.9869752 102.1467248  77.8646104
  72.8250468 101.0966960  78.1081631  73.9586269 102.2621057  77.3843184
  73.0629752 102.8827248  79.1686104  73.3359752 104.2457248  79.1946104
  73.5014530 104.7724572  78.2547860  73.3989752 104.9347248  80.3956104
  73.6116212 106.0037571  80.4028425  73.1909752 104.2617248  81.5886104
  73.2413571 104.7998086  82.5351976  72.9189752 102.9047248  81.5776104
  72.7551087 102.3741949  82.5155795  72.8549752 102.2207248  80.3746104
  72.6397313 101.1522232  80.3659828  71.9579752 101.9257248  75.6016104
  71.3979752 100.8427248  75.4356104  72.6719752 102.5397248  74.6646104
  73.0709375 103.4387579  74.8941053  72.8849752 102.0127248  73.3276104
  72.0084357 101.4672830  72.9779378  73.1339752 103.2007248  72.3826104
  72.3068109 103.9007095  72.5005927  74.0601055 103.6755636  72.7065099
  73.2539752 102.8017248  70.9246104  72.8609752 101.6777248  70.5436104
  73.7449752 103.6447248  70.1466104  74.0729752 101.0457248  73.3216104
  75.2119752 101.4627248  73.5136104  73.7949752  99.7557248  73.1176104
  72.8292989  99.4598520  73.1228984  74.8379752  98.7307248  72.9496104
  75.8211472  99.1875791  73.0625537  74.6889752  97.6187248  74.0016104
  73.7481462  97.1114582  73.7880207  75.5173985  96.9279477  73.8446326
  74.6919752  98.0937248  75.4476104  75.4971534  98.8188765  75.5656949
  73.7359622  98.5771286  75.6487618  74.9329752  96.7417248  76.6226104
  74.9639752  97.6567248  78.1616104  74.0204088  98.1874782  78.2884263
  75.1062938  96.9660357  78.9927510  75.7841215  98.3744067  78.1417614
  74.7999752  98.1357248  71.5316104  75.0239752  96.9407248  71.3436104
  74.5379752  98.9877248  70.5396104  74.3183923  99.9458630  70.7716749
  74.4969752  98.5867248  69.1286104  73.7539051  97.8017495  68.9880410
  74.1209752  99.7797248  68.2466104  74.7873478 100.6110810  68.4765967
  74.2420331  99.4962288  67.2011081  72.7859752 100.1707248  68.4756104
  72.5707837 100.9187946  67.9137527  75.7969752  97.9857248  68.5916104
  75.7549752  97.1897248  67.6556104  76.9429752  98.3717248  69.1526104
  76.9593650  99.1113725  69.8401800  78.2189752  97.8047248  68.7126104
  78.3071329  97.9118496  67.6314760  79.4029752  98.5117248  69.3716104
  80.3414632  98.0809760  69.0226190  79.3837442  99.5764286  69.1389392
  79.4369752  98.3937248  71.1686104  80.5541648  99.0964154  71.3329625
  78.2809752  96.2977248  68.9576104  78.9529752  95.5877248  68.2116104
  77.5759752  95.8187248  69.9886104  77.2218456  96.4667871  70.6776001
  77.3839752  94.3797248  70.2216104  78.3022647  93.8334529  70.0061323
  76.9339752  94.0817248  71.6806104  76.1118064  94.7505628  71.9351581
  76.4759752  92.6317248  71.8316104  77.2978086  91.9622467  71.5776623
  76.1674567  92.4529934  72.8616454  75.6355016  92.4441647  71.1633856
  78.0879752  94.3937248  72.6446104  78.9008280  93.7142392  72.3883478
  78.3951312  95.4196878  72.4417443  77.7539752  94.2487248  74.1126104
  77.4471559  93.2228335  74.3163474  78.6322639  94.4904140  74.7111874
  76.9414569  94.9282809  74.3697433  76.4019752  93.7787248  69.2056104
  76.6569752  92.6977248  68.6726104  75.2859752  94.4677248  68.9536104
  75.0869336  95.2916988  69.5027447  74.3079752  94.0587248  67.9246104
  73.7831416  93.1613946  68.2524022  73.2769752  95.1697248  67.6846104
  72.8445562  95.4149057  68.6546616  73.8239844  96.0317956  67.3028843
  72.1659752  94.8037248  66.7126104  72.6229118  94.5000120  65.7707673
  71.6079612  93.9664499  67.1317683  71.2209752  95.9687248  66.4646104
  70.3031186  95.5777916  66.0255097  70.9943549  96.4359758  67.4229523
  71.8299752  97.0007248  65.5296104  72.6221557  97.5218493  66.0671789
  72.2561652  96.4760611  64.6745143  70.8209752  97.9877248  65.0536104
  70.4262468  98.4743026  65.8457791  71.2655144  98.6529765  64.4372298
  70.0870536  97.5050896  64.5550911  74.9649752  93.7157248  66.5876104
  74.6549752  92.6897248  65.9796104  75.8749752  94.5857248  66.1526104
  76.0887827  95.3944252  66.7186398  76.5229752  94.4627248  64.8436104
  75.7638567  94.3526116  64.0691988  77.3679752  95.7077248  64.5296104
  78.1412638  95.7857032  65.2938377  77.8339088  95.5524987  63.5565170
  76.5489752  96.9957248  64.5016104  75.3209752  96.9467248  64.2566104
  77.1519752  98.0697248  64.7316104  77.3889752  93.2057248  64.7116104
  77.6119752  92.7377248  63.5936104  77.8729752  92.6767248  65.8376104
  77.7824200  93.1939017  66.7004123  78.6049752  91.4107248  65.8616104
  79.0355982  91.1960443  64.8835637  79.7429752  91.4397248  66.9066104
  79.3032645  91.4709537  67.9034948  80.6289752  90.2047248  66.7806104
  81.0694375  90.1730526  65.7840710  81.4223725  90.2484561  67.5267396
  80.0292234  89.3087753  66.9408413  80.5889752  92.7007248  66.7296104
  79.9608746  93.5817446  66.8615036  81.3876024  92.7101620  67.4713686
  81.0224926  92.7106260  65.7295776  77.6789752  90.2157248  66.1216104
  77.8469752  89.1627248  65.5016104  76.7159752  90.3717248  67.0316104
  76.6731751  91.2351514  67.5538765  75.7549752  89.3067248  67.3636104
  76.3403955  88.4437386  67.6808440  74.8699752  89.7457248  68.5206104
  74.2708704  90.6036004  68.2152862  74.2107431  88.9258826  68.8058683
  75.4933469  90.0226634  69.3707939  74.8819752  88.8707248  66.1836104
  74.4969752  87.7027248  66.0836104  74.5769752  89.8117248  65.2946104
  74.8321010  90.7696433  65.4880073  73.7799752  89.5337248  64.0986104
  72.9257018  88.8853228  64.2932664  73.2869752  90.8607248  63.4536104
  72.9328601  91.5164334  64.2490657  74.3989752  91.5627248  62.6716104
  74.7533049  90.9077663  61.8756327  74.0122861  92.4847921  62.2376011
  75.2246770  91.7964472  63.3436890  72.0539752  90.6317248  62.5786104
  72.3649088  90.0313475  61.7236436  71.3302273  90.0719654  63.1710273
  71.4189752  91.9167248  62.0886104  72.1420259  92.4768459  61.4956839
  70.5499732  91.6818379  61.4739862  71.1073463  92.5174651  62.9430683
  74.5339752  88.6507248  63.0846104  73.9069752  88.0347248  62.2256104
  75.8659752  88.5937248  63.2096104  76.2898421  89.1715178  63.9213628
  76.7409752  87.7657248  62.3746104  76.2756640  87.6094404  61.4013890
  78.1069752  88.4457248  62.1636104  78.6707429  88.2464994  63.0749690
  78.5661680  87.9149962  61.3296025  78.1149752  89.9437248  61.8786104
  77.4788634  90.4180257  62.6259398  79.1408687  90.2905468  62.0025426
  77.6219752  90.3087248  60.4896104  78.0265742  89.5980076  59.7689998
  76.5331119  90.2616546  60.4734688  78.0749752  91.7177248  60.1226104
  77.6877338  92.3967683  60.8822449  79.1646455  91.7302440  60.1463006
  77.6029752  92.1547248  58.7796104  76.5932768  92.1436075  58.7575846
  77.9334825  93.0910648  58.5948609  77.9620429  91.5258865  58.0755281
  77.0099752  86.3727248  62.9696104  77.7899752  85.6057248  62.4066104
  76.4159752  86.0567248  64.1186104  75.8711254  86.7500671  64.6110680
  76.5589752  84.7367248  64.7186104  77.3388241  84.1841171  64.1946259
  76.9389752  84.8347248  66.1986104  76.2156522  85.4928022  66.6801051
  76.8593760  83.8345874  66.6246258  78.3549752  85.3767248  66.4286104
  78.9569831  85.0506820  65.5804456  78.2822326  86.4642890  66.4251718
  79.0149752  84.9137248  67.7306104  80.1339752  85.4087248  68.0226104
  78.4379752  84.0637248  68.4656104  75.2349752  84.0077248  64.5426104
  74.2009752  84.5207248  64.9726104  75.2509752  82.8287248  63.8856104
  76.3579752  82.1637248  63.1736104  76.9646459  81.6033754  63.8849890
  76.9768016  82.9133318  62.6804145  75.6539752  81.2817248  62.2036104
  76.2675807  80.4034245  62.0031710  75.4870431  81.8273193  61.2748685
  74.3639752  80.9087248  62.8386104  74.5219618  80.0091484  63.4335067
  73.5617759  80.7334146  62.1217825  73.9989752  82.0827248  63.7556104
  73.2508534  82.7452549  63.3203336  73.4989752  81.5667248  65.1006104
  74.3049752  81.2107248  65.9536104  72.1819752  81.5527248  65.2786104
  71.5837999  81.9402953  64.5630165  71.5609752  81.0087248  66.4766104
  72.2689813  81.0552562  67.3040531  70.3049752  81.7987248  66.8616104
  69.7771476  81.9093504  65.9143728  69.7094763  81.1872359  67.5395207
  70.5299752  83.1797248  67.4846104  71.2543323  83.0782814  68.2927669
  71.0499752  84.1837248  66.4586104  70.3258928  84.2860555  65.6503209
  71.1971414  85.1512552  66.9385351  71.9986561  83.8316536  66.0534549
  69.2389752  83.6797248  68.1206104  68.9222844  82.9832199  68.8969398
  69.4072938  84.6623054  68.5614114  68.4624023  83.7518766  67.3591463
  71.1879752  79.5567248  66.2056104  70.5499752  79.2607248  65.1916104
  71.5999752  78.6577248  67.0946104  72.2613136  78.9213397  67.8110168
  71.1449752  77.2807248  67.0516104  70.8271336  77.0024902  66.0467913
  72.2309752  76.2887248  67.5176104  72.5655865  76.5757199  68.5144897
  71.6829752  74.8647248  67.5556104  71.3485688  74.5768337  66.5589199
  72.4657454  74.1823452  67.8868650  70.8426942  74.8165901  68.2482232
  73.4439752  76.3757248  66.6066104  73.8484829  77.3874916  66.6349557
  74.2041430  75.6714655  66.9446390  73.1506760  76.1307178  65.5858029
  69.9259752  77.2207248  67.9566104  70.0559752  77.3327248  69.1746104
  68.7469752  77.0747248  67.3566104  68.6952824  77.0652996  66.3479785
  67.4949752  77.0097248  68.1176104  67.6279076  76.3898831  69.0043034
  67.0769752  78.4237248  68.5636104  67.9292582  79.0844086  68.4048345
  66.2471366  78.7442780  67.9337584  66.6549752  78.4817248  70.0286104
  65.9499752  77.5487248  70.4996104  67.0279752  79.4697248  70.7076104
  66.3629752  76.3317248  67.3296104  66.4709752  76.1287248  66.1136104
  65.2899752  75.9797248  68.0386104  65.2599449  76.1982146  69.0242370
  64.1539752  75.2667248  67.4506104  64.4874074  74.5535579  66.6967436
  63.3259752  74.5117248  68.5116104  62.9866892  75.2236438  69.2640435
  62.1149752  73.8287248  67.8736104  62.4535068  73.1162726  67.1213410
  61.5471929  73.3032508  68.6414651  61.4801025  74.5792899  67.4027705
  64.1889752  73.4877248  69.2346104  65.0179584  73.9944591  69.7286845
  63.5875886  72.9655551  69.9787694  64.5803652  72.7687009  68.5149442
  63.2449752  76.2577248  66.7326104  62.7499752  77.2057248  67.3426104
  63.0259752  76.0207248  65.4406104  63.4989360  75.2443393  65.0005728
  62.1659752  76.8567248  64.6216104  61.9917363  77.8298375  65.0807309
  62.7709752  77.0747248  63.2176104  62.9647614  76.1016105  62.7663957
  61.8219752  77.8667248  62.3276104  61.6280682  78.8402109  62.7779722
  62.2743010  78.0049017  61.3455671  60.8834586  77.3226436  62.2214796
  64.1179752  77.7827248  63.3296104  64.8009626  77.1737720  63.9218999
  64.5349996  77.9310466  62.3335226  63.9815711  78.7498402  63.8135344
  60.7929752  76.1937248  64.5176104  60.6829752  75.0267248  64.1446104
  59.7569752  76.9527248  64.8596104  59.9309345  77.8694170  65.2462794
  58.3759752  76.5177248  64.7096104  58.2365100  75.5381197  65.1668002
  57.4439752  77.5207248  65.4046104  57.8816698  77.7197388  66.3828313
  57.4243497  78.4416015  64.8217717  56.0239752  77.0017248  65.5806104
  55.4619752  76.3967248  64.6456104  55.4509752  77.2287248  66.6656104
  58.0589752  76.4417248  63.2086104  58.2669752  77.4257248  62.4916104
  57.5489752  75.2867248  62.7246104  57.2599752  74.0287248  63.4416104
  56.7702932  74.2556841  64.3886063  58.1927861  73.4984744  63.6334369
  56.3659752  73.2877248  62.4946104  55.3261165  73.5402306  62.7020560
  56.5109052  72.2147875  62.6207144  56.7679752  73.7207248  61.1306104
  55.9469314  73.6628671  60.4160207  57.5982871  73.1079416  60.7796424
  57.2229752  75.1807248  61.2866104  58.1557638  75.3472597  60.7478433
  56.1459752  76.1647248  60.7686104  56.0579752  76.3847248  59.5586104
  55.3539752  76.7517248  61.6676104  55.3526362  76.4247647  62.6232226
  54.4309752  77.8317248  61.3006104  53.7863671  77.4994192  60.4868828
  53.5509752  78.2317248  62.4906104  54.2341628  78.5175910  63.2903819
  52.9839226  79.1050579  62.1683673  52.5909752  77.1627248  63.0006104
  51.9356277  76.8522778  62.1868272  53.1642460  76.3048935  63.3521615
  51.7469752  77.7187248  64.1516104  52.3053198  78.5465755  64.5886614
  50.8203835  78.0948864  63.7179866  51.4219752  76.6957248  65.2366104
  52.1521988  75.8904355  65.1567149  51.5343835  77.1931678  66.1999452
  50.0469752  76.1317248  65.1266104  49.9427460  75.6703650  64.2342074
  49.8961683  75.4648763  65.8700284  49.3701686  76.8777080  65.2010471
  55.1519752  79.0887248  60.7696104  54.5549752  79.8707248  60.0286104
  56.4159752  79.2837248  61.1566104  56.8291528  78.6533723  61.8289491
  57.2069752  80.4337248  60.7036104  56.5756256  81.3209175  60.6547641
  58.3589752  80.7057248  61.6756104  58.8899614  79.7635918  61.8117665
  59.0184778  81.4275500  61.1938172  57.9229752  81.2437248  63.0336104
  57.5221060  82.2510160  62.9206100  57.1445516  80.5844127  63.4176237
  59.0649752  81.2847248  64.0386104  59.0479752  80.5657248  65.0386104
  60.0749752  82.1057248  63.7656104  60.8567559  82.1686628  64.4019744
  60.0555981  82.6625203  62.9231707  57.7669752  80.3037248  59.2776104
  58.1959752  81.3047248  58.7036104  57.7699752  79.0897248  58.7186104
  57.4377379  78.2997042  59.2530121  58.2719752  78.8497248  57.3626104
  59.3047508  79.1904481  57.2892514  58.2229752  77.3547248  57.0176104
  57.1814470  77.0932762  57.2045939  58.4355499  77.2589881  55.9528351
  59.1339752  76.4127248  57.8056104  59.0559495  76.6444074  58.8678420
  58.7209752  74.9687248  57.5706104  58.7991891  74.7361472  56.5085892
  59.3761057  74.3062415  58.1363142  57.6910779  74.8269316  57.8981872
  60.5949752  76.6227248  57.4276104  60.8831652  77.6509747  57.6461237
  61.2212176  75.9404462  58.0024302  60.7272114  76.4271992  56.3634759
  57.4679752  79.6257248  56.3186104  56.2599752  79.4467248  56.2076104
  58.1559752  80.4907248  55.5746104  59.1250600  80.6482327  55.8116026
  57.5669752  81.2867248  54.4966104  56.4782369  81.3079364  54.5445487
  58.0929752  82.7387248  54.5676104  59.1822470  82.7051280  54.5462205
  57.5879752  83.5947248  53.4096104  56.4987218  83.6291760  53.4306131
  57.9848342  84.6054928  53.5042225  57.9191450  83.1617963  52.4656818
  57.6889752  83.3597248  55.8946104  58.1148498  82.7789227  56.7127802
  58.0596570  84.3835160  55.9450708  56.6022555  83.3627482  55.9790616
  57.8249752  80.6667248  53.1066104  57.0819752  80.9407248  52.1566104
  58.8539752  79.8257248  52.9906104  59.3895775  79.5835012  53.8119247
  59.2519752  79.2497248  51.7106104  58.5185141  79.4865866  50.9398768
  60.6309752  79.7927248  51.2646104  60.8621475  79.3880362  50.2792745
  60.6299752  81.3147248  51.2006104  60.3993204  81.7201700  52.1857562
  61.6121032  81.6662479  50.8844534  59.8777832  81.6483432  50.4857632
  61.6559752  79.3617248  52.1746104  62.5048345  79.7051790  51.8863788
  59.3409752  77.7307248  51.7686104  59.2169752  77.1247248  52.8316104
  59.5709752  77.1297248  50.6046104  59.3649213  77.6198388  49.7458733
  60.0159752  75.7377248  50.5196104  59.4549402  75.1294312  51.2290593
  59.7889752  75.1767248  49.1026104  60.0483333  74.1184014  49.1306164
  58.7377593  75.2857229  48.8358437  60.6359752  75.8577248  48.0336104
  61.2049752  76.9287248  48.2476104  60.6969752  75.2427248  46.8596104
  61.2423423  75.6443001  46.1103362  60.1977653  74.3758013  46.7205640
  61.4879752  75.6187248  50.9656104  62.0769752  76.5827248  51.4686104
  62.0649752  74.4307248  50.8156104  61.5139679  73.6467244  50.4964965
  63.4719752  74.2027248  51.1396104  63.8891718  75.0806110  51.6329278
  63.6139752  73.0087248  52.0706104  63.2088098  72.1199412  51.5868700
  64.6676760  72.8488994  52.2992386  63.0673656  73.2002920  52.9939842
  64.2669752  73.9777248  49.8626104  63.7409752  73.4507248  48.8786104
  65.5329752  74.3827248  49.8896104  65.8710404  74.8836857  50.6988381
  66.4489752  74.1697248  48.7766104  65.9588197  73.5836829  47.9991777
  66.8779752  75.5097248  48.1806104  66.0134285  76.1435086  47.9831863
  67.5652850  76.0308920  48.8470112  67.7399752  75.3377248  46.6096104
  67.9409363  76.6384404  46.4181638  67.6749752  73.3817248  49.2396104
  68.3079752  73.7217248  50.2436104  67.9889752  72.3237248  48.4986104
  67.3876080  72.0767711  47.7256481  69.1599752  71.4877248  48.7606104
  69.2072775  71.2279578  49.8181466  69.0669752  70.1937248  47.9416104
  68.1859789  69.7175709  48.3719850  68.8480190  70.5066426  46.9207085
  70.2309752  69.1987248  47.9316104  71.1316756  69.7170081  47.6026391
  70.4599752  68.6147248  49.3156104  69.5598008  68.0958510  49.6450871
  71.2919318  67.9113573  49.2806359  70.6926947  69.4174502  50.0153060
  69.9509752  68.0957248  46.9226104  69.8384636  68.5309484  45.9296245
  70.7804762  67.3886197  46.9169639  69.0330274  67.5759752  47.1970755
  70.4059752  72.2757248  48.3756104  70.5329752  72.6887248  47.2276104
  71.3059752  72.4957248  49.3326104  71.0766441  72.2631634  50.2883414
  72.5649752  73.2167248  49.0716104  72.6445819  73.4763725  48.0159850
  72.6939752  74.5027248  49.9316104  73.6636308  74.9646542  49.7458964
  71.5879752  75.4817248  49.5666104  70.6179523  75.0206402  49.7525059
  71.6840449  76.3820054  50.1735421  71.6684524  75.7448892  48.5119223
  72.6609752  74.1987248  51.4316104  71.6467338  73.8840241  51.6773311
  73.3504020  73.3738237  51.6114112  73.0479752  75.3787248  52.3006104
  72.3586694  76.2039187  52.1216908  73.0016239  75.0883325  53.3501928
  74.0623374  75.6937198  52.0557690  73.8449752  72.3707248  49.1826104
  74.9129752  72.8407248  48.7986104  73.7529752  71.1417248  49.6906104
  72.8856405  70.8175080  50.0939877  74.9149752  70.2477248  49.7296104
  75.4691348  70.3200275  48.7937799  75.8489752  70.6347248  50.8836104
  75.9620586  71.7181491  50.8448394  75.3391641  70.3559220  51.8058152
  77.2249752  69.9787248  50.8456104  77.7277126  70.1899745  51.7893951
  77.0850948  68.9027187  50.7419451  78.0759752  70.4937248  49.6906104
  77.5943001  70.2184968  48.7523473  78.1395128  71.5795950  49.7609544
  79.4749752  69.9007248  49.7346104  80.0075031  70.3413315  50.5774510
  79.3864268  68.8246329  49.8838905  80.2279752  70.1667248  48.4786104
  80.3105110  71.1638024  48.3403218  81.1494505  69.7587037  48.5457084
  79.7349103  69.7581627  47.6975450  74.4979752  68.7877248  49.8696104
  73.7429752  68.4477248  50.7786104  74.9769752  67.9497248  48.9486104
  75.4521615  68.3442668  48.1494646  74.8899752  66.4907248  49.0546104
  74.1619911  66.2244808  49.8209344  74.4539752  65.8677248  47.7296104
  75.2358176  66.0847548  47.0017919  74.3938151  64.7908607  47.8872323
  73.1249752  66.3767248  47.2096104  72.3920986  66.3267951  48.0149052
  73.2743092  67.4165747  46.9189033  72.6199752  65.5857248  46.0166104
  72.4719752  64.3487248  46.1486104  72.3519752  66.2007248  44.9576104
  76.2659752  65.9517248  49.3796104  77.2319752  66.3017248  48.7006104
  76.3569752  65.0947248  50.3936104  75.5456304  64.9156642  50.9678544
  77.6109752  64.4277248  50.7386104  78.4211887  64.7478931  50.0835183
  78.0139752  64.7167248  52.1976104  77.2026352  64.4016766  52.8537897
  79.2879752  63.9687248  52.5706104  80.0999344  64.2836065  51.9151161
  79.5502458  64.1901337  53.6051599  79.1264074  62.8965833  52.4587613
  78.2049752  66.2107248  52.3966104  77.2730721  66.7297338  52.1723601
  78.4896898  66.4066294  53.4303699  78.9893929  66.5692228  51.7300754
  77.4769752  62.9207248  50.5246104  76.6409752  62.2827248  51.1606104
  78.2859752  62.3767248  49.6116104  78.7772734  62.9888770  48.9760043
  78.4839752  60.9277248  49.4756104  77.6409466  60.4015046  49.9233762
  78.5879752  60.5207248  47.9986104  77.6538920  60.8014839  47.5120283
  79.4098914  61.0866058  47.5600531  78.8379752  59.0147248  47.7986104
  78.9239752  58.2497248  48.7876104  78.9479752  58.5937248  46.6236104
  79.7719752  60.5917248  50.2216104  80.8679752  60.9017248  49.7556104
  79.6369752  59.9307248  51.3656104  78.7170630  59.6555452  51.6788788
  80.7659752  59.7397248  52.2766104  81.3657656  60.6497968  52.2875446
  80.2799752  59.4217248  53.7206104  79.7100086  58.4928955  53.6979264
  81.4539752  59.2737248  54.6816104  82.0241881  60.2023809  54.7051839
  81.0802060  59.0520002  55.6812281  82.0981962  58.4608165  54.3465601
  79.3709752  60.5607248  54.2266104  80.0199807  61.4137737  54.4246006
  78.6910787  60.8039130  53.4100936  78.5699752  60.2367248  55.4706104
  79.2492499  59.9938686  56.2877436  77.9630705  61.0987998  55.7473641
  77.9203492  59.3840058  55.2732370  81.7849752  58.7097248  51.7356104
  82.9389752  58.7057248  52.1756104  81.3819752  57.8727248  50.7716104
  80.4014183  57.8109164  50.5375437  82.3209752  56.9587248  50.0956104
  82.9437203  56.4674163  50.8432091  81.5819752  55.8807248  49.2866104
  80.9876743  56.3871686  48.5260709  82.3446895  55.2697943  48.8037741
  80.6819752  54.9957248  50.1236104  81.2149752  54.0627248  51.0166104
  82.2980910  53.9718107  51.0984297  80.3899752  53.2587248  51.7926104
  80.8179542  52.5353477  52.4866287  79.0119752  53.3817248  51.6806104
  78.1719752  52.5997248  52.4396104  78.6428686  51.9966880  53.0194429
  78.4619752  54.2947248  50.8006104  77.3795954  54.3853803  50.7093086
  79.2919752  55.0967248  50.0326104  78.8621801  55.8224478  49.3421741
  83.3299752  57.6807248  49.1856104  84.4719752  57.2337248  49.0596104
  82.9079752  58.7817248  48.5576104  81.9703473  59.1155492  48.7294084
  83.7369752  59.5017248  47.5736104  84.7101751  59.0231294  47.4643970
  83.0419752  59.5227248  46.1996104  83.6544982  60.0948370  45.5027578
  82.8579752  58.1087248  45.6696104  82.2451229  57.5361004  46.3657519
  82.3652348  58.1455669  44.6980402  83.8315411  57.6299002  45.5647432
  81.7649752  60.1657248  46.3166104  81.3331339  60.1779585  45.4593102
  84.1109752  60.9507248  47.9176104  84.9859752  61.5137248  47.2626104
  83.4629752  61.5567248  48.9126104  82.7456294  61.0617497  49.4230162
  83.6849752  62.9807248  49.2226104  83.6877301  63.6038247  48.3282737
  82.6239752  63.5357248  50.2106104  81.6347913  63.2565091  49.8477701
  82.8249752  62.9797248  51.6186104  83.8138350  63.2589462  51.9823312
  82.0647404  63.3895333  52.2835920  82.7400250  61.8932677  51.5963356
  82.6299752  65.0587248  50.2226104  82.4042539  65.4313516  49.2234602
  81.8771897  65.4200352  50.9232304  83.6127850  65.4162975  50.5297382
  85.1059752  63.2337248  49.7476104  85.6849752  62.3817248  50.4186104
  85.6519752  64.4027248  49.4116104  85.1163480  65.0283869  48.8270167
  86.9999752  64.8047248  49.8026104  87.4704996  64.0156114  50.3891307
  87.8499752  65.0607248  48.5566104  87.4444803  65.9363933  48.0497793
  88.8682560  65.2702409  48.8841883  87.8589752  63.8737248  47.5936104
  87.5988725  62.9911227  48.1779571  87.0807141  64.0613968  46.8538869
  89.1929752  63.6387248  46.8816104  89.9771223  64.0924091  47.4877315
  89.3544170  62.5621775  46.8260953  89.2299752  64.2307248  45.4776104
  89.0089767  65.2939373  45.5716285  90.2452300  64.1030088  45.1020501
  88.2639752  63.6037248  44.5246104  87.3231229  63.7223355  44.8722137
  88.3472936  64.0466111  43.6207245  88.4688527  62.6186094  44.4370208
  86.9419752  66.0467248  50.6816104  85.9419752  66.7717248  50.6746104
  88.0169752  66.2927248  51.4316104  88.7845236  65.6363499  51.4197405
  88.0949752  67.4437248  52.3516104  87.2687051  67.4376790  53.0624833
  89.4309752  67.4637248  53.1436104  90.2514852  67.3399381  52.4368294
  89.6129752  68.7727248  53.9106104  88.7930312  68.8969921  54.6179649
  90.5587101  68.7487390  54.4520074  89.6171944  69.6075287  53.2097636
  89.4969752  66.2817248  54.1066104  89.4321737  65.3502172  53.5442969
  90.4392288  66.3103983  54.6538175  88.6667279  66.3391011  54.8105267
  87.8929752  68.7647248  51.5976104  87.1589752  69.6357248  52.0666104
  88.5269752  68.8917248  50.4306104  89.2210598  68.2036115  50.1759616
  88.3449752  70.0587248  49.5506104  88.6592508  70.9623669  50.0728755
  89.1849752  69.9157248  48.2626104  89.1179961  70.8687957  47.7379498
  90.2146349  69.7466219  48.5777377  88.7469752  68.7887248  47.3286104
  88.4828201  67.9443502  47.9652850  87.8642097  69.1216349  46.7827213
  89.8249752  68.3607248  46.3386104  90.0769752  69.1007248  45.3566104
  90.4129752  67.2667248  46.5276104  86.8699752  70.3647248  49.2026104
  86.4979752  71.5327248  49.0816104  86.0429752  69.3247248  49.0686104
  86.4109239  68.3886755  49.1609410  84.6189752  69.4847248  48.7326104
  84.5227418  70.1543740  47.8779712  83.9709752  68.1357248  48.3756104
  84.0337041  67.5062403  49.2632554  82.9240047  68.3193877  48.1343209
  84.6469752  67.4297248  47.2026104  85.1989752  68.0977248  46.2996104
  84.6109752  66.1817248  47.1866104  83.7959752  70.1367248  49.8536104
  82.7249752  70.6907248  49.5926104  84.2909752  70.0587248  51.0906104
  85.1482418  69.5459636  51.2398397  83.6069752  70.6237248  52.2576104
  82.5279353  70.5233857  52.1405462  84.0319752  69.8847248  53.5296104
  85.0721661  70.1847204  53.6565150  83.4392857  70.2707074  54.3589695
  83.9409752  68.3527248  53.5056104  84.5907519  67.9692542  52.7189456
  84.3739752  67.7777248  54.8456104  83.7243269  68.1604051  55.6327646
  84.3045140  66.6903850  54.8144955  85.4038109  68.0697590  55.0511703
  82.5349752  67.8867248  53.1506104  82.2642837  68.2651002  52.1648835
  82.5040714  66.7971958  53.1420734  81.8289812  68.2639268  53.8904685
  83.8479752  72.1277248  52.4236104  83.2609752  72.7457248  53.3106104
  84.7309752  72.6957248  51.6026104  85.3569820  72.0967478  51.0835329
  84.8479752  74.1367248  51.4246104  84.3096877  74.6661599  52.2107683
  86.3269752  74.5837248  51.4516104  86.8844265  73.9667098  50.7468829
  86.4819752  76.0587248  51.0716104  85.9251375  76.6764356  51.7762129
  87.5362952  76.3335856  51.1025935  86.0949982  76.2177580  50.0651027
  86.8659752  74.3677248  52.7636104  87.7848644  74.6450626  52.7816898
  84.2059752  74.4337248  50.0686104  84.7899752  74.1377248  49.0176104
  83.0009752  75.0047248  50.0976104  82.6275679  75.3368457  50.9753131
  82.1779752  75.1497248  48.8926104  82.8120889  75.2214489  48.0089506
  81.2689752  73.9307248  48.7436104  80.6896658  73.9772392  47.8214736
  81.8785993  73.0271438  48.7439110  80.2809752  73.7827248  49.8646104
  80.6379752  73.1437248  51.0416104  81.6426220  72.7335336  51.1442168
  79.7299752  73.0237248  52.0836104  80.0219798  72.5165101  53.0031577
  78.4529752  73.5477248  51.9566104  77.7377779  73.4509966  52.7734558
  78.0869752  74.1947248  50.7896104  77.0859687  74.6131189  50.6845749
  78.9979752  74.3097248  49.7526104  78.7140172  74.8189991  48.8316829
  81.3149752  76.4017248  48.9256104  81.0999752  76.9847248  49.9796104
  80.8279752  76.7927248  47.7516104  81.2116315  76.3807524  46.9130486
  79.7749752  77.7927248  47.6116104  79.3818286  78.0563240  48.5934711
  80.2939752  79.0737248  46.9286104  80.6048853  78.8277846  45.9132540
  79.2139752  80.1417248  46.8826104  78.9028656  80.3885378  47.8976935
  79.6059496  81.0348428  46.3959941  78.3573219  79.7689595  46.3211020
  81.4269752  79.5787248  47.6466104  81.7474876  80.3761042  47.2187574
  78.6669752  77.1697248  46.7706104  78.9219752  76.7387248  45.6496104
  77.4549752  77.1047248  47.3226104  77.3219957  77.4669423  48.2559990
  76.2949752  76.5407248  46.6236104  76.6160707  76.0957481  45.6818075
  75.6249752  75.4657248  47.4656104  75.2968020  75.9076377  48.4064157
  74.7605447  75.0810706  46.9244070  76.5199752  74.4117248  47.7296104
  76.0802321  73.7440802  48.2610955  75.2609752  77.6137248  46.3466104
  75.0349752  78.4797248  47.1906104  74.5919752  77.5367248  45.1836104
  74.6809752  76.5237248  44.1096104  74.3767255  75.5546136  44.5050289
  75.7107216  76.4646943  43.7571380  73.7369752  77.0397248  43.0476104
  72.8366697  76.4253471  43.0381678  74.2251965  76.9829326  42.0747198
  73.4279752  78.4517248  43.4056104  72.4034881  78.6444901  43.0872292
  74.0865294  79.2147316  42.9906083  73.5089752  78.4667248  44.9266104
  73.7629639  79.4374054  45.3524826  72.2149752  77.9577248  45.5576104
  72.1049752  76.7717248  45.8526104  71.2599752  78.8547248  45.7786104
  71.4586927  79.8359987  45.6455233  69.9309752  78.4747248  46.2676104
  69.7009356  77.4616218  45.9377568  69.8639752  78.5187248  47.8086104
  68.9380364  78.0562783  48.1504872  70.7143024  77.9866080  48.2351025
  69.8909752  79.9127248  48.3896104  68.7179752  80.6437248  48.5496104
  67.7707629  80.1898197  48.2583050  68.7399752  81.9287248  49.0696104
  67.8109496  82.4877646  49.1813539  69.9379752  82.4997248  49.4456104
  69.9613048  83.5095552  49.8552420  71.1149752  81.7837248  49.3006104
  72.0631362  82.2300592  49.6004046  71.0879752  80.4977248  48.7736104
  72.0152309  79.9365400  48.6579881  68.8629752  79.3867248  45.6716104
  69.1499752  80.5267248  45.2886104  67.6399752  78.8627248  45.6046104
  67.5325377  77.8844842  45.8317710  66.4529752  79.6167248  45.2136104
  66.6044252  80.6742914  45.4297468  66.1729752  79.4587248  43.7186104
  66.9290295  79.9856752  43.1365413  66.1746640  78.4036184  43.4450274
  64.5759752  80.1147248  43.1776104  64.7217299  79.7950951  41.8948436
  65.2839752  79.0757248  46.0296104  65.0799752  77.8617248  46.0736104
  64.5399752  79.9647248  46.6876104  64.7553729  80.9476865  46.6010694
  63.4059752  79.5747248  47.5236104  63.3207988  78.4890513  47.5700561
  63.6239752  80.1087248  48.9396104  63.6238401  81.1912578  48.8122473
  62.7651768  79.8142699  49.5428198  64.9149752  79.6777248  49.6446104
  65.7572667  79.8509946  48.9748168  65.1169752  80.4687248  50.9276104
  64.2752466  80.2955853  51.5981434  66.0388918  80.1470355  51.4120550
  65.1817795  81.5313247  50.6935544  64.8859752  78.1877248  49.9386104
  64.7903713  77.6343227  49.0044233  65.8096993  77.8976019  50.4392738
  64.0370155  77.9605423  50.5834006  62.1329752  80.1757248  46.9546104
  62.0989752  81.3717248  46.6876104  61.1079752  79.3427248  46.7596104
  61.2486828  78.3535932  46.9076625  59.7879752  79.7977248  46.3096104
  59.9020650  80.6657689  45.6603169  59.0649752  78.6917248  45.5276104
  59.7865224  78.2697917  44.8280095  58.7704294  77.9294006  46.2488625
  57.8319752  79.1707248  44.7606104  57.1372955  79.6289846  45.4645414
  58.1536521  79.9147643  44.0318915  57.1119752  78.0517248  44.0266104
  57.0689752  76.9107248  44.4896104  56.5349752  78.3777248  42.8786104
  56.0419367  77.6744822  42.3471367  56.5910308  79.3278580  42.5406665
  58.9509752  80.2097248  47.5216104  58.7849752  79.4297248  48.4596104
  58.4199752  81.4317248  47.4896104  58.6376430  82.0326828  46.7075813
  57.5849752  81.9697248  48.5686104  57.9576723  81.7013712  49.5571358
  57.5049752  83.5197248  48.4716104  57.2088587  83.7851006  47.4567262
  56.5009752  84.0957248  49.4596104  56.7966979  83.8311375  50.4748161
  56.4745760  85.1808955  49.3605749  55.5115135  83.6882852  49.2521009
  58.8819752  84.1437248  48.6916104  59.5728328  83.7777745  47.9320723
  58.8054471  85.2286702  48.6199416  59.2515154  83.8705748  49.6800081
  56.1819752  81.3357248  48.5126104  55.5419752  81.3437248  47.4616104
  55.7119752  80.8097248  49.6456104  56.2935439  80.8405743  50.4707926
  54.4119752  80.1087248  49.7296104  54.1167734  79.7545692  48.7419217
  54.5179752  78.9047248  50.6696104  55.0376779  79.2365458  51.5684447
  53.5034044  78.6015811  50.9281641  55.2579752  77.7277248  50.0636104
  54.7593758  77.4447409  49.1365615  56.2806423  78.0358616  49.8461115
  55.2779752  76.5347248  51.0146104  56.0201052  76.7224994  51.7905504
  54.2926390  76.4385162  51.4706322  55.6259752  75.2447248  50.2806104
  54.8198749  75.0188886  49.5825410  56.5513835  75.4037665  49.7270541
  55.8009752  74.1037248  51.2226104  54.9434445  73.9559111  51.7353402
  56.0299384  73.2692297  50.7017517  56.5481657  74.3126081  51.8692735
  53.2239752  80.9767248  50.1656104  52.0739752  80.6517248  49.8536104
  53.4999752  82.0567248  50.8956104  54.4624968  82.2661052  51.1187949
  52.4539752  82.9507248  51.4136104  51.5986681  82.9532307  50.7379310
  51.9869752  82.4747248  52.7926104  51.0533865  82.9935689  53.0101237
  51.7972336  81.4042898  52.7134454  52.9839752  82.7317248  53.9156104
  53.9802497  82.4998492  53.5390844  52.9312683  83.7890149  54.1753442
  52.7019752  81.8937248  55.1486104  51.6683476  82.0413350  55.4615387
  52.8647150  80.8406564  54.9191279  53.5839752  82.2747248  56.2506104
  54.0344159  83.1742181  56.1605303  53.8289752  81.5477248  57.3386104
  53.2629752  80.3597248  57.5176104  52.6326609  79.9935706  56.8185146
  53.4654448  79.8278633  58.3520138  54.6629752  82.0187248  58.2646104
  55.1007125  82.9195626  58.1343130  54.8536856  81.4728008  59.0926776
  52.9819752  84.3717248  51.5166104  54.1949752  84.5857248  51.5076104
  52.0699752  85.3327248  51.6316104  51.0889335  85.1168783  51.5264112
  52.4479752  86.7127248  51.9086104  53.2088350  87.0276392  51.1944532
  51.2479752  87.6587248  51.7946104  50.4432771  87.2837159  52.4270094
  51.5598923  88.6412517  52.1487977  50.7219752  87.7987248  50.3666104
  51.1499752  87.1007248  49.4426104  49.7739752  88.7057248  50.1906104
  49.3816885  88.8498663  49.2711355  49.4473318  89.2494188  50.9766140
  53.0019752  86.7747248  53.3256104  52.3489752  86.3157248  54.2656104
  54.2139752  87.3087248  53.4776104  54.7666433  87.5618459  52.6710207
  54.8049752  87.4847248  54.8086104  54.0784223  87.9483262  55.4759138
  55.2209752  86.1217248  55.4026104  54.7234444  85.3491030  54.8164212
  56.3008475  86.0200149  55.2947634  54.8399752  85.9687248  56.8736104
  54.8279752  86.9847248  57.6156104  54.5619752  84.8177248  57.2876104
  56.0089752  88.4267248  54.7896104  56.3759752  88.9747248  53.7416104
  56.5779752  88.6337248  55.9756104  56.0615692  88.3829141  56.8065846
  57.8909752  89.2317248  56.1356104  58.1879949  89.7280382  55.2117319
  57.8679752  90.2667248  57.2606104  57.5993202  89.7813076  58.1988502
  58.8789558  90.6671843  57.3357802  56.9009752  91.3917248  56.9816104
  57.2579752  92.4487248  56.1446104  58.2543391  92.4582450  55.7027191
  56.3659752  93.4797248  55.8706104  56.6631472  94.3039433  55.2221857
  55.0899752  93.4567248  56.4266104  54.2049752  94.4827248  56.1526104
  54.5746710  95.1519687  55.5720613  54.7089752  92.4087248  57.2526104
  53.7104089  92.3855971  57.6889943  55.6099752  91.3837248  57.5226104
  55.3154174  90.5545622  58.1659029  58.8889752  88.1227248  56.4386104
  58.5679752  87.1867248  57.1666104  60.0889752  88.2267248  55.8706104
  60.2707091  89.0032585  55.2508785  61.1469752  87.2307248  56.0656104
  60.8259690  86.4236893  56.7242059  61.5959752  86.6207248  54.7206104
  61.8693892  87.4324531  54.0464879  62.7889752  85.6877248  54.9026104
  62.5161643  84.8754278  55.5762934  63.0793121  85.2755763  53.9362054
  63.6251392  86.2445337  55.3255706  60.4349752  85.8817248  54.0706104
  59.6149089  86.5773405  53.8925319  60.7608412  85.4545802  53.1222125
  60.0965346  85.0832631  54.7309267  62.3259752  87.8867248  56.7806104
  62.8629752  88.8907248  56.3006104  62.7199752  87.3077248  57.9186104
  62.2271281  86.4868240  58.2400491  63.7889752  87.8547248  58.7656104
  64.1280017  88.8160727  58.3796436  63.2509752  88.0587248  60.1746104
  62.9195054  87.1233983  60.6255997  64.0365350  88.4991927  60.7886005
  62.0899752  88.9947248  60.2306104  60.7859752  88.5647248  60.1246104
  59.9769752  89.6057248  60.1936104  58.8964706  89.4722336  60.1408016
  60.7099752  90.6967248  60.3246104  60.3613202  91.6417307  60.3987949
  62.0369752  90.3427248  60.3446104  62.8045423  91.1107490  60.4399034
  65.0769752  87.0337248  58.8376104  66.1179752  87.5457248  59.2776104
  65.0179752  85.7717248  58.4226104  64.1579376  85.3943860  58.0510595
  66.1669752  84.8857248  58.5386104  67.0642951  85.4575577  58.3021291
  66.2869752  84.3587248  59.9616104  65.3997526  83.7762512  60.2099257
  67.1707275  83.7257646  60.0418825  66.3764958  85.1962501  60.6534461
  66.0909752  83.7237248  57.5746104  65.0119752  83.3537248  57.1026104
  67.2619752  83.1727248  57.2756104  68.1121765  83.6636309  57.5128198
  67.3719752  81.8917248  56.6086104  66.4415911  81.6727258  56.0846601
  68.5119752  81.8977248  55.5956104  69.3839411  82.1631862  56.1933604
  68.6369586  80.8900890  55.1991896  68.3679752  82.8857248  54.4386104
  68.3010430  83.9021794  54.8264774  69.5859752  82.7667248  53.5386104
  69.6533210  81.7505953  53.1499663  69.4949087  83.4673452  52.7085871
  70.4848880  82.9967260  54.1105856  67.0739752  82.6597248  53.6596104
  66.2210370  82.7864669  54.3263429  67.0085509  83.3816064  52.8455417
  67.0674670  81.6495701  53.2501666  67.6259752  80.8567248  57.6836104
  68.2039752  81.1647248  58.7286104  67.1729752  79.6377248  57.4316104
  66.6821887  79.4564080  56.5676937  67.3289752  78.5467248  58.3766104
  68.0062651  78.8219121  59.1850964  65.9759752  78.1247248  58.9886104
  65.3042691  77.8324161  58.1814761  66.1489752  76.9567248  59.9536104
  66.8202368  77.2484475  60.7613273  65.1796076  76.6813484  60.3690556
  66.5709187  76.1043114  59.4212038  65.3339752  79.3017248  59.7026104
  65.1670686  80.1112823  58.9920748  64.3803969  78.9918284  60.1301057
  65.9931154  79.6478703  60.4987376  67.9659752  77.3807248  57.6366104
  67.4729752  76.9657248  56.5846104  69.0659752  76.8727248  58.1836104
  69.4833150  77.3242113  58.9849135  69.7239752  75.6987248  57.6336104
  69.3317512  75.4782885  56.6408026  71.2229752  75.9237248  57.5246104
  71.6317228  76.1366197  58.5123863  71.6968161  75.0289085  57.1210279
  71.4170650  76.7672558  56.8621273  69.4259752  74.4957248  58.5156104
  69.3689752  74.6137248  59.7446104  69.2139752  73.3477248  57.8786104
  69.0945318  73.3543153  56.8757200  69.0959752  72.0767248  58.5796104
  69.7242955  72.0902195  59.4701893  67.6469752  71.8217248  59.0066104
  67.6460495  70.9118987  59.6068727  67.3521584  72.6669757  59.6284898
  66.6669752  71.6717248  57.8616104  66.4709752  70.4357248  57.2416104
  67.0339870  69.5739386  57.5999982  65.5799752  70.2927248  56.1886104
  65.4446805  69.3229254  55.7097719  64.8599752  71.3857248  55.7496104
  63.9739752  71.2327248  54.7116104  63.9409012  70.3338805  54.3760740
  65.0309752  72.6217248  56.3456104  64.4664244  73.4856796  55.9949470
  65.9289752  72.7587248  57.3976104  66.0655508  73.7292009  57.8747093
  69.5989752  70.9657248  57.6736104  69.8439752  71.1927248  56.4856104
  69.7259752  69.7637248  58.2256104  69.5222087  69.6366487  59.2066457
  70.2499752  68.6267248  57.4746104  70.1490733  68.8103338  56.4049349
  71.7389752  68.4137248  57.7986104  72.1741113  67.6431038  57.1622936
  72.2641313  69.3554080  57.6387861  72.0139752  68.0027248  59.2236104
  71.9479752  66.6677248  59.5936104  71.6820364  65.9296422  58.8369000
  72.2109752  66.2647248  60.8906104  72.1427784  65.2121235  61.1653474
  72.5619752  67.2057248  61.8406104  72.7742601  66.8978819  62.8644599
  72.6439752  68.5497248  61.4866104  72.9212450  69.2934380  62.2336795
  72.3729752  68.9427248  60.1836104  72.4408007  69.9946915  59.9063637
  69.4669752  67.3427248  57.6996104  68.7549752  67.2047248  58.6936104
  69.6119752  66.4187248  56.7506104  70.1301069  66.6682197  55.9203145
  69.0749752  65.0607248  56.8516104  68.5825198  64.9393218  57.8164152
  68.0549752  64.7737248  55.7406104  68.5669405  64.8480320  54.7811995
  67.6767233  63.7599971  55.8724502  66.8779752  65.7347248  55.7386104
  66.6199752  66.4407248  56.7136104  66.1519752  65.7597248  54.6296104
  65.3555632  66.3774911  54.5648605  66.3986393  65.1608898  53.8545915
  70.2219752  64.0697248  56.7136104  71.2259752  64.3637248  56.0596104
  70.0529752  62.8937248  57.3176104  69.2239813  62.7678321  57.8806551
  71.0279752  61.7977248  57.2596104  71.8072744  62.0714116  56.5483527
  71.6689752  61.5557248  58.6686104  71.0363748  62.0574973  59.4008272
  71.8089752  60.0807248  59.0426104  72.4418659  59.5783529  58.3110555
  72.2605422  59.9972907  60.0311582  70.8245228  59.6129114  59.0527709
  73.0769752  62.1347248  58.7236104  73.5090218  61.8420629  59.6805772
  73.6456572  61.6776225  57.9138216  73.1269752  63.6267248  58.5886104
  72.5588581  64.0845735  59.3983742  74.1629846  63.9619724  58.6375275
  72.6954911  63.9201332  57.6316189  70.2939752  60.5647248  56.7356104
  69.1669752  60.3127248  57.1476104  70.9479752  59.8137248  55.8476104
  71.8515701  60.1309986  55.5267474  70.4089752  58.5677248  55.2886104
  69.5109631  58.2770893  55.8337750  70.0459752  58.7537248  53.8096104
  70.9801168  58.9454105  53.2816564  69.6255182  57.8068275  53.4709344
  69.0609752  59.8777248  53.5216104  68.0962569  59.5960888  53.9436300
  69.4256782  60.7768533  54.0182580  68.9029752  60.1497248  52.0326104
  68.7829752  59.1787248  51.2576104  68.8959752  61.3327248  51.6276104
  71.4299752  57.4287248  55.4296104  72.6319752  57.6417248  55.2396104
  70.9409752  56.2337248  55.7716104  69.9582231  56.1672516  55.9949464
  71.7489752  55.0137248  55.8246104  72.8079845  55.2687518  55.7851163
  71.4759752  54.2467248  57.1316104  70.4194791  53.9966623  57.2284812
  72.0662588  53.3304461  57.1216768  71.8589752  54.9927248  58.3836104
  71.1079752  56.0777248  58.8336104  70.2337362  56.3916375  58.2632905
  71.4609752  56.7557248  59.9916104  70.8725005  57.6112510  60.3230814
  72.5629752  56.3447248  60.7276104  72.8420582  56.8711786  61.6403310
  73.3099752  55.2597248  60.2976104  74.1782499  54.9334196  60.8700824
  72.9519752  54.5887248  59.1376104  73.5325480  53.7285165  58.8043284
  71.3109752  54.1787248  54.6126104  70.4499752  53.3017248  54.7306104
  71.8959752  54.4657248  53.4486104  72.6777468  55.1048755  53.4281432
  71.3819752  53.9447248  52.1626104  70.2940523  54.0027877  52.1286748
  71.9559752  54.7027248  50.9416104  71.4892538  54.3093267  50.0385549
  71.6859752  56.2077248  51.0416104  72.1528157  56.6019497  51.9442434
  72.1018831  56.7107920  50.1686596  70.6108876  56.3825397  51.0831667
  73.3629752  54.4547248  50.8316104  73.7128413  54.9273907  50.0728081
  71.6039752  52.4487248  51.9216104  70.9369752  51.8657248  51.0666104
  72.5369752  51.8397248  52.6526104  73.1392944  52.3912375  53.2468702
  72.7859752  50.3927248  52.5576104  72.6866864  50.0698275  51.5212812
  74.2049752  50.0527248  53.0446104  74.2896539  50.4158232  54.0688605
  74.2969279  48.9666450  53.0359208  75.3139752  50.6627248  52.1966104
  75.0665219  51.7097518  52.0216757  76.2435966  50.5992207  52.7621839
  75.4839752  49.9487248  50.8556104  76.1642535  49.1078077  50.9904397
  74.5114598  49.5799825  50.5295088  76.0259752  50.8297248  49.8146104
  76.9941100  50.6806666  49.5684478  75.3459752  51.7867248  49.1766104
  74.0669752  52.0347248  49.4566104  73.5938950  51.4921441  50.1650603
  73.5765242  52.7641338  48.9590967  75.9549752  52.5187248  48.2466104
  76.9261278  52.3468190  48.0288693  75.4431484  53.2427256  47.7629217
  71.7589752  49.5397248  53.3096104  71.7449752  48.3237248  53.1386104
  70.9179752  50.1637248  54.1376104  71.0508892  51.1462087  54.3303758
  69.8279752  49.4617248  54.8236104  70.2107495  48.5546013  55.2912749
  69.2139752  50.3507248  55.9096104  68.8655230  51.2901279  55.4804227
  68.3801393  49.8409709  56.3922786  70.3599752  50.7987248  57.2316104
  69.4916540  51.5273358  57.9273421  68.7379752  49.0197248  53.8456104
  68.4549752  49.7117248  52.8686104  68.1309752  47.8677248  54.1256104
  68.4307664  47.3382875  54.9317870  67.0899752  47.2937248  53.2636104
  67.4727987  47.1860191  52.2487484  66.6579752  45.9067248  53.7766104
  67.5074029  45.2239520  53.7567775  66.2787445  45.9845400  54.7955456
  65.5729752  45.2657248  52.9626104  65.6609752  45.1047248  51.5946104
  64.5639752  44.5167248  51.1496104  64.4394894  44.3047199  50.0876988
  63.7689752  44.2847248  52.1786104  62.8610449  43.8439433  52.1402166
  64.3759752  44.7417248  53.3246104  63.8731906  44.6380809  54.2861544
  65.8919752  48.2377248  53.1626104  65.4369752  48.5467248  52.0626104
  65.4049752  48.6937248  54.3156104  65.7695752  48.3143838  55.1777395
  64.3389752  49.6957248  54.3936104  63.7167049  49.6520386  53.4997590
  63.4549752  49.4217248  55.6216104  63.3154908  48.3414766  55.6629290
  64.0283352  49.7469841  56.4896915  62.0949752  50.1097248  55.6246104
  61.6938283  50.0606728  56.6369225  62.2432041  51.1522908  55.3432098
  61.1129752  49.4567248  54.6566104  61.6368483  49.2590377  53.7214228
  60.7804756  48.5145760  55.0923846  59.9039752  50.3447248  54.3836104
  59.1874562  49.7564933  53.8103001  59.4675591  50.6101338  55.3465217
  60.2419752  51.5907248  53.6296104  60.6459864  51.3450104  52.7371424
  59.4026806  52.1327038  53.4814780  60.9055814  52.1361441  54.1608766
  64.9729752  51.0887248  54.4746104  66.1259752  51.2277248  54.8986104
  64.2259752  52.1097248  54.0486104  63.3256470  51.9307968  53.6273111
  64.6929752  53.4957248  54.1266104  65.6512960  53.5815669  53.6144077
  63.6979752  54.4647248  53.4716104  63.3710815  54.0110485  52.5359729
  62.8465292  54.5603257  54.1454057  64.2819752  55.8487248  53.1896104
  64.8818978  56.1408536  54.0515005  64.9229763  55.7690076  52.3116213
  63.2069752  56.8997248  52.9396104  63.6838855  57.8158884  52.5913291
  62.5253853  56.5313987  52.1728833  62.4339752  57.2027248  54.1496104
  62.6570296  56.6563481  54.9692558  61.4729752  58.1277248  54.2416104
  61.1369752  58.8827248  53.1906104  61.6137794  58.7567969  52.3091911
  60.4078835  59.5755538  53.2828748  60.8389752  58.3067248  55.4016104
  61.0882543  57.7434264  56.2020197  60.1125903  59.0047244  55.4741379
  64.9149752  53.8727248  55.5926104  63.9909752  53.7967248  56.4026104
  66.1479752  54.2627248  55.9126104  66.8290380  54.3671925  55.1741395
  66.5729752  54.5117248  57.2856104  65.7052643  54.6012216  57.9391907
  67.4569752  53.3597248  57.7966104  68.3753060  53.3427474  57.2096856
  67.8009752  53.5307248  59.2746104  66.8831022  53.5473278  59.8622609
  68.4259255  52.6995585  59.6012585  68.3397819  54.4675179  59.4167605
  66.7649752  52.1177248  57.6176104  67.3137370  51.3969833  57.9354036
  67.3369752  55.8337248  57.3556104  68.2779752  56.0647248  56.5936104
  66.9239752  56.6917248  58.2806104  66.2041365  56.4189909  58.9344818
  67.4789752  58.0277248  58.3866104  68.4629175  57.9583610  58.8504481
  67.5791949  58.4418784  57.3833496  66.6099752  58.9457248  59.2126104
  65.5239752  58.5647248  59.6396104  67.1039752  60.1527248  59.4566104
  68.0726333  60.3494878  59.2490405  66.3169752  61.1827248  60.1306104
  65.2576928  60.9849576  59.9665733  66.5829752  61.2127248  61.6476104
  65.9443857  61.9374424  62.1526718  66.3782721  60.2153895  62.0368649
  67.9999752  61.5437248  62.0346104  68.4099752  62.8637248  62.1756104
  67.6957504  63.6638401  61.9811926  69.7099752  63.1707248  62.5586104
  70.0191239  64.2116558  62.6534285  70.6119752  62.1547248  62.8196104
  71.6330269  62.3889870  63.1207328  70.2119752  60.8347248  62.6966104
  70.9185191  60.0308752  62.9033027  68.9129752  60.5347248  62.3106104
  68.5974663  59.4952785  62.2205802  66.5439752  62.5437248  59.4996104
  67.5219752  62.7517248  58.7786104  65.6079752  63.4497248  59.7706104
  64.7986565  63.1584820  60.3000253  65.6849752  64.8317248  59.3366104
  66.5909618  64.9927461  58.7523505  64.4759752  65.1657248  58.4646104
  64.5256445  64.5617883  57.5585790  63.5707948  64.9158206  59.0180508
  64.4519752  66.5397248  58.1156104  63.6829175  66.7177127  57.5692860
  65.7079752  65.7277248  60.5616104  65.1109752  65.3937248  61.5836104
  66.3949752  66.8617248  60.4536104  66.9714914  67.0094638  59.6375825
  66.4129752  67.8767248  61.5096104  65.9051511  67.5067155  62.4002882
  67.8589752  68.2597248  61.8896104  67.8292688  69.0042498  62.6851607
  68.6319752  67.0367248  62.3676104  68.6625078  66.2918947  61.5723774
  69.6487077  67.3287544  62.6304277  68.1384617  66.6134043  63.2424502
  68.5229752  68.8337248  60.7616104  69.4212291  69.0694393  61.0048777
  65.6189752  69.1297248  61.1116104  65.8139752  70.2027248  61.6816104
  64.6899752  68.9797248  60.1696104  64.5374040  68.0685700  59.7614213
  63.8939752  70.0977248  59.6806104  64.5502799  70.9292567  59.4238654
  63.0979752  69.6977248  58.4316104  62.8257288  70.6031047  57.8891454
  63.7318549  69.0739321  57.8013888  61.9229752  68.9817248  58.7756104
  61.4467287  68.7453908  57.9762761  62.9259752  70.5817248  60.7546104
  62.5809752  69.8147248  61.6596104  62.4669752  71.8467248  60.6496104
  62.9949752  72.9007248  59.7606104  62.6850656  72.6966144  58.7357225
  64.0835465  72.9072458  59.8160091  62.3869752  74.1587248  60.3066104
  62.2324982  74.8756597  59.5002357  63.0471178  74.5935031  61.0571309
  61.0999752  73.7397248  60.9126104  60.3145717  73.6448261  60.1627874
  60.7768874  74.4310224  61.6909558  61.4039752  72.3687248  61.5246104
  61.8312733  72.4414827  62.5247209  60.1239752  71.5187248  61.5756104
  59.4859752  71.4587248  62.6206104  59.7669752  70.8757248  60.4616104
  60.2962290  71.0331736  59.6159156  58.5749752  70.0097248  60.3896104
  57.7865957  70.4074828  61.0286295  58.0529752  69.9477248  58.9476104
  58.8968396  69.6987889  58.3041641  57.3131455  69.1486066  58.9011121
  57.4209752  71.2537248  58.4746104  56.4075413  71.2696837  58.8756064
  57.9901407  72.0834298  58.8938234  57.3689752  71.3887248  56.9616104
  58.4449752  71.4067248  56.3306104  56.2549752  71.5007248  56.4016104
  58.7939752  68.5847248  60.9246104  57.8329752  67.8207248  61.0456104
  60.0449752  68.2297248  61.2226104  60.7866960  68.8959177  61.0609420
  60.3979752  66.9157248  61.7576104  59.6427096  66.1815162  61.4772340
  61.7469752  66.4697248  61.1916104  62.5193934  67.1537500  61.5431484
  61.9632771  65.4632397  61.5498022  61.7239752  66.4717248  59.7776104
  62.5784221  66.1893253  59.4432889  60.4759752  66.9757248  63.2836104
  60.5919752  68.0667248  63.8496104  60.4269752  65.8067248  63.9606104
  60.1539752  64.4597248  63.4256104  61.0632787  64.0557287  62.9805771
  59.3751909  64.5229441  62.6656122  59.7129752  63.6897248  64.6326104
  59.9592720  62.6347175  64.5126245  58.6372336  63.7976666  64.7712826
  60.4569752  64.2947248  65.7666104  61.4635435  63.8822169  65.8355782
  59.9409384  64.1529939  66.7161987  60.5279752  65.7887248  65.4276104
  59.6747512  66.3475052  65.8121510  61.8189752  66.3887248  65.9796104
  62.8069752  66.5117248  65.2586104  61.7909752  66.7587248  67.2576104
  60.9445163  66.6312094  67.7936575  62.9319752  67.3927248  67.9076104
  63.1684610  68.3294280  67.4028722  62.6189752  67.6947248  69.3826104
  61.7930696  68.4060239  69.3883198  62.3014034  66.7661974  69.8570418
  63.7919752  68.2767248  70.1466104  64.0519752  69.6497248  70.1186104
  63.3901446  70.2971059  69.5433041  65.1289752  70.1927248  70.8056104
  65.3128874  71.2667860  70.7797138  65.9749752  69.3607248  71.5266104
  67.0429752  69.9137248  72.1976104  67.0981551  70.8665627  72.0943889
  65.7429752  67.9907248  71.5696104  66.4060771  67.3356707  72.1346773
  64.6549752  67.4567248  70.8846104  64.4634906  66.3841720  70.9172329
  64.1829752  66.5167248  67.8156104  64.1009752  65.2897248  67.9496104
  65.3179752  67.1577248  67.5436104  65.2605121  68.0828047  67.1423319
  66.6429752  66.5867248  67.7826104  66.5689325  65.7167402  68.4351009
  67.3719752  66.1697248  66.4836104  68.1614222  65.4640963  66.7423809
  66.4169752  65.5207248  65.4896104  65.6274580  66.2259626  65.2299920
  66.9638714  65.2407720  64.5892604  65.9753911  64.6304683  65.9374356
  68.0049752  67.3067248  65.8836104  68.4535492  67.0358110  65.0792551
  67.4689752  67.6457248  68.5056104  67.1079752  68.8237248  68.5106104
  68.5869752  67.2347248  69.0956104  68.8191605  66.2519260  69.1128148
  69.4489752  68.1667248  69.8336104  68.8341212  68.8455129  70.4246268
  70.3859752  67.4077248  70.7776104  70.7883550  68.0940453  71.5226969
  69.8507913  66.6011898  71.2787885  71.5569752  66.7837248  70.0956104
  71.4529752  65.6367248  69.3396104  70.5966418  65.1224221  69.1903271
  72.6399752  65.3267248  68.8506104  72.7683195  64.4487546  68.2175266
  73.5089752  66.2277248  69.2676104  74.4959346  66.2435479  69.0536928
  72.8569752  67.1517248  70.0466104  73.4100079  67.9826033  70.4846708
  70.2419752  69.1137248  68.9196104  70.7979752  70.1057248  69.3966104
  70.3049752  68.8057248  67.6246104  70.0218665  67.8874603  67.3135812
  70.8329752  69.7477248  66.6266104  71.7720058  70.1703185  66.9840112
  71.0899752  69.0437248  65.2926104  70.2350678  68.4287372  65.0115004
  71.2820239  69.7775875  64.5098826  72.2649752  68.1447248  65.3276104
  73.5739752  68.5197248  65.2936104  73.7778027  69.5890331  65.2376288
  74.3839752  67.4147248  65.3396104  75.3938489  67.4244896  65.3269870
  73.6009752  66.2947248  65.4096104  73.9649752  64.9547248  65.4766104
  75.0267717  64.7083833  65.4782638  72.9629752  64.0237248  65.5366104
  73.2141121  62.9644091  65.5902803  71.6099752  64.4037248  65.5306104
  70.8152329  63.6592488  65.5779351  71.2439752  65.7507248  65.4636104
  70.1831832  66.0002357  65.4398346  72.2559752  66.7167248  65.4086104
  69.9099752  70.9427248  66.3876104  70.3779752  72.0237248  66.0346104
  68.6089752  70.7387248  66.5936104  68.3228305  69.7866346  66.7717814
  67.5719752  71.7337248  66.3066104  66.6251585  71.2189476  66.1433874
  67.3909752  72.7487248  67.4656104  67.1648602  73.7015007  66.9868732
  66.5180556  72.4054843  68.0208557  68.5609752  72.9267248  68.4206104
  68.9177939  71.9320329  68.6877609  69.3436407  73.4601929  67.8812139
  68.2029752  73.6957248  69.6886104  68.8315702  74.5852629  69.7297125
  67.1570164  73.9936464  69.6157246  68.4089752  72.8687248  70.9546104
  67.5448178  72.2182912  71.0897720  69.3050352  72.2605430  70.8309547
  68.5639752  73.7437248  72.1516104  67.7335944  74.3070541  72.2666206
  68.6984136  73.1706790  72.9723691  69.3649225  74.3462141  72.0267538
  67.7599752  72.2947248  64.8816104  67.8389752  71.4887248  63.9536104
  67.8199752  73.6127248  64.6826104  67.6067348  74.2403192  65.4446820
  68.1449752  74.1917248  63.3756104  68.6836579  73.4561501  62.7782411
  66.8749752  74.6067248  62.6156104  66.3656971  75.3364555  63.2450768
  67.2108799  75.0904182  61.6983816  65.9089752  73.4697248  62.2686104
  65.3423176  73.7586368  61.3834383  66.5042960  72.5843827  62.0453066
  64.9259752  73.1277248  63.3876104  64.4629752  74.0087248  64.1106104
  64.5989752  71.8417248  63.5266104  63.9529218  71.5635929  64.2514269
  64.9989797  71.1522218  62.9063819  69.0609752  75.3987248  63.5746104
  69.1999752  75.8867248  64.6886104  69.6869752  75.8627248  62.4966104
  69.5587241  75.3889109  61.6139149  70.5969752  76.9987248  62.5446104
  70.7583354  77.2790352  63.5855178  71.9639752  76.6597248  61.9066104
  71.8045452  76.4202583  60.8552598  72.9389752  77.8277248  62.0196104
  73.0992717  78.0674846  63.0707621  73.8891565  77.5541975  61.5608757
  72.5260737  78.6971560  61.5080420  72.5409752  75.5337248  62.5766104
  73.3894572  75.3250482  62.1789514  69.9529752  78.1897248  61.8336104
  69.6299752  78.1077248  60.6466104  69.8119752  79.2957248  62.5686104
  70.1754936  79.2826199  63.5108323  69.1249752  80.5007248  62.1076104
  68.5724182  80.3297317  61.1837375  68.1379752  81.0117248  63.1876104
  68.7002617  81.2339893  64.0945457  67.4079752  82.2677248  62.7216104
  66.8450533  82.0461096  61.8149095  66.7232249  82.6010345  63.5014322
  68.1333567  83.0546607  62.5150789  67.1419752  79.9157248  63.5446104
  67.6779400  79.0487380  63.9308456  66.4524641  80.2840245  64.3042349
  66.5818554  79.6290883  62.6545508  70.1439752  81.5887248  61.7606104
  71.0159752  81.8947248  62.5676104  70.0169752  82.1557248  60.5576104
  69.2521283  81.8482470  59.9740301  70.9079752  83.1997248  60.0426104
  71.7164257  83.3790181  60.7513847  71.5169752  82.7697248  58.7036104
  70.7336333  82.4969112  57.9964702  72.1049838  83.5913046  58.2945229
  72.4399752  81.5867248  58.8006104  71.9359752  80.2907248  58.7756104
  70.8601222  80.1417486  58.6837065  72.7809752  79.1977248  58.8656104
  72.3699919  78.1882036  58.8578403  74.1499752  79.3877248  58.9656104
  74.8196850  78.5301454  59.0300024  74.6669752  80.6737248  58.9836104
  75.7432374  80.8268440  59.0630740  73.8159752  81.7647248  58.9006104
  74.2231576  82.7757346  58.9133242  70.1079752  84.4767248  59.8266104
  69.3609752  84.5847248  58.8506104  70.2539752  85.4407248  60.7326104
  70.7931341  85.2769330  61.5708105  69.5709752  86.7257248  60.5876104
  68.5520021  86.5543752  60.2405768  69.5139752  87.4897248  61.9226104
  70.5140970  87.5107414  62.3555237  69.1958972  88.5070319  61.6945477
  68.5499752  86.8697248  62.9106104  67.1839752  86.8447248  62.6486104
  66.8191629  87.2915309  61.7237452  66.2929752  86.2667248  63.5366104
  65.2251202  86.2616708  63.3180654  66.7609752  85.6987248  64.7036104
  65.8689752  85.1227248  65.5766104  64.9598374  85.1748657  65.2727200
  68.1149752  85.7057248  64.9906104  68.4865305  85.2571444  65.9119262
  69.0009752  86.2887248  64.0966104  70.0687666  86.2980729  64.3153209
  70.2239752  87.5827248  59.5076104  71.4069752  87.4447248  59.2196104
  69.4259752  88.4647248  58.9196104  68.4528803  88.4827006  59.1895410
  69.8819752  89.4147248  57.9036104  70.9175924  89.2009662  57.6392174
  69.0189752  89.3097248  56.6346104  68.2137078  90.0364007  56.7422475
  69.6561846  89.5955936  55.7977452  68.4269752  87.9317248  56.3736104
  69.2553084  87.2351465  56.2442129  67.8486536  87.6483829  57.2530213
  67.3669752  87.8657248  54.9226104  65.9059752  88.7297248  55.4786104
  66.1717133  89.7475723  55.7640377  65.1718438  88.7586450  54.6734301
  65.4814977  88.2109772  56.3381574  69.7369752  90.7907248  58.5466104
  68.9409752  90.9417248  59.4736104  70.4949752  91.7837248  58.0786104
  71.1813780  91.6188437  57.3562775  70.4119752  93.1287248  58.6676104
  70.5003219  93.0388832  59.7503027  71.5129752  94.0757248  58.1616104
  72.4048341  93.4835233  57.9567094  71.1659268  94.5402132  57.2386218
  71.8479752  95.1657248  59.1876104  70.9289368  95.3921409  59.7281702
  72.5771087  94.7371216  59.8751880  72.4099752  96.4447248  58.5856104
  71.9939752  97.5387248  59.0376104  73.2639752  96.3657248  57.6716104
  69.0359752  93.7407248  58.4166104  68.4019752  94.2487248  59.3386104
  68.5919752  93.6727248  57.1646104  69.2207969  93.3507261  56.4428074
  67.2459752  94.0947248  56.7746104  66.8347625  94.7745975  57.5207849
  67.2999752  94.8217248  55.4266104  67.8687278  94.2034971  54.7320499
  66.2798445  94.9350688  55.0597501  67.9499752  96.1837248  55.5376104
  67.3809752  97.0437248  56.2446104  69.0179752  96.3977248  54.9246104
  66.3279752  92.8827248  56.7106104  66.7599752  91.7677248  56.9606104
  65.0569752  93.1127248  56.4026104  64.7277364  94.0661912  56.3515914
  64.0929752  92.0327248  56.1826104  64.6002210  91.0710890  56.2604408
  62.9669752  92.0777248  57.2206104  62.2715799  91.2764914  56.9705111
  63.4285301  91.8694212  58.1858444  62.2199752  93.3877248  57.2926104
  61.1249752  93.6367248  56.4626104  60.8120777  92.8669826  55.7571378
  60.4369752  94.8427248  56.5256104  59.5890539  95.0323815  55.8674603
  60.8389752  95.8107248  57.4366104  60.1589752  96.9987248  57.5086104
  59.4287744  97.0512025  56.8876011  61.9199752  95.5847248  58.2726104
  62.2354171  96.3456548  58.9864608  62.6029752  94.3787248  58.1966104
  63.4550430  94.1928022  58.8504555  63.5229752  92.1307248  54.7796104
  63.6519752  93.1607248  54.1166104  62.9009752  91.0447248  54.3346104
  62.9059870  90.2072402  54.8991401  62.2059752  91.0107248  53.0546104
  62.5174829  91.8601423  52.4467025  62.5239752  89.7277248  52.2976104
  62.0530651  88.9499429  52.8987745  62.0203902  89.7957494  51.3333102
  63.9899752  89.3827248  52.0806104  64.5002223  89.3317245  53.0424564
  64.0889752  88.0417248  51.3856104  63.5793184  88.0920827  50.4234187
  65.1377664  87.7901813  51.2279283  63.6212328  87.2758575  52.0042902
  64.6789752  90.4587248  51.2676104  64.6159280  91.4101864  51.7956684
  65.7260771  90.1920215  51.1242633  64.1915318  90.5495171  50.2969124
  60.7069752  91.0797248  53.2766104  60.1949752  90.5897248  54.2846104
  60.0189752  91.7037248  52.3256104  60.5271401  92.2073615  51.6127164
  58.5679752  91.7137248  52.2736104  58.1576837  91.2056962  53.1463458
  58.0249752  93.1507248  52.2416104  58.3321150  93.6196745  51.3068101
  56.5009752  93.1637248  52.3406104  56.1930765  92.6953225  53.2754352
  56.1435026  94.1931364  52.3156254  56.0771311  92.6120043  51.5015268
  58.5809752  93.8907248  53.3376104  58.2437576  94.7893905  53.3207431
  58.2079752  90.9507248  51.0096104  58.4659752  91.4207248  49.9066104
  57.6269752  89.7677248  51.1856104  57.3550451  89.4883483  52.1173304
  57.4399752  88.8137248  50.0936104  57.7298717  89.2291919  49.1284958
  58.2449752  87.5077248  50.3336104  58.0944839  86.8391150  49.4860182
  59.7329752  87.8127248  50.4826104  59.8843153  88.4809616  51.3303466
  60.2796287  86.8846969  50.6500459  60.0991938  88.2906531  49.5740015
  57.7429752  86.7257248  51.5466104  56.6983324  86.4529926  51.3968086
  58.3398849  85.8219947  51.6693716  57.8321023  87.3435686  52.4401574
  55.9639752  88.4927248  49.8716104  55.1639752  88.5177248  50.8056104
  55.6229752  88.1907248  48.6226104  56.3230009  88.2705737  47.8989478
  54.2849752  87.7517248  48.2446104  53.6370519  87.7516661  49.1211346
  53.6859752  88.6867248  47.1946104  54.2878097  88.5799197  46.2921210
  52.6722350  88.3377126  46.9980875  53.6469752  90.1477248  47.6066104
  53.2120033  90.2142035  48.6038470  54.6683509  90.5276408  47.6302222
  52.8189752  90.9787248  46.6356104  53.1663658  92.0107824  46.6833171
  52.9754706  90.5893664  45.6296240  51.3349752  90.9267248  46.9746104
  51.0668663  89.8902126  47.1792095  51.1668211  91.5281078  47.8680094
  50.4959752  91.4447248  45.8646104  50.6513199  90.8873388  45.0367887
  49.5219346  91.3938929  46.1268335  50.7439572  92.4053023  45.6751511
  54.3769752  86.3477248  47.6746104  55.4209752  85.9647248  47.1426104
  53.2779752  85.5987248  47.7876104  52.4871629  85.9915279  48.2779377
  53.1539752  84.2397248  47.2406104  53.7562469  83.5312813  47.8093598
  51.6809752  83.7737248  47.2736104  51.1081307  84.3970013  46.5869695
  51.5419752  82.3017248  46.8646104  52.1142146  81.6777466  47.5511182
  50.4918571  82.0117675  46.9003303  51.9209528  82.1682779  45.8513639
  51.1559752  83.9617248  48.5926104  50.2406885  83.6731701  48.6168330
  53.6329752  84.1667248  45.7906104  53.2519752  85.0037248  44.9706104
  54.4799752  83.1787248  45.4996104  54.7892151  82.5687649  46.2428593
  54.9849752  82.9357248  44.1466104  55.0809676  81.8550935  44.0411552
  54.2207603  83.3007597  43.4604440  56.3139752  83.5867248  43.7986104
  56.9309752  83.2167248  42.7976104  56.7639752  84.5477248  44.6066104
  56.1979525  84.8528933  45.3854491  58.0249752  85.2507248  44.3456104
  58.1601673  85.3780639  43.2715494  58.0179752  86.6357248  45.0066104
  57.9014334  86.4922574  46.0808238  58.9804417  87.1062601  44.8057252
  56.8959752  87.5317248  44.4886104  57.0164909  87.6240355  43.4092330
  55.9626451  87.0125243  44.7063831  56.8629752  88.9207248  45.1166104
  56.6209752  89.8997248  44.3706104  57.0599752  89.0457248  46.3516104
  59.2039752  84.3947248  44.8116104  59.0159752  83.4177248  45.5416104
  60.4089752  84.7607248  44.3756104  60.5011128  85.6276171  43.8656029
  61.6029752  83.9287248  44.5536104  61.3725306  83.0699470  45.1840826
  62.0869752  83.4197248  43.1896104  62.2063045  84.2871132  42.5403823
  63.0561828  82.9450837  43.3427528  61.1319752  82.4257248  42.5386104
  61.1788452  81.5207323  43.1443270  60.1256576  82.8419350  42.5854402
  61.4759752  82.0857248  41.0866104  61.9729752  82.9617248  40.3356104
  61.2209752  80.9267248  40.6836104  62.7419752  84.6657248  45.2646104
  63.1229752  85.7657248  44.8626104  63.2769752  84.0457248  46.3166104
  62.8569601  83.1825908  46.6307542  64.4679752  84.5337248  47.0166104
  64.6614760  85.5788224  46.7748925  64.3419752  84.3747248  48.5466104
  64.2260286  83.3170991  48.7834325  65.5849752  84.9207248  49.2496104
  65.7013327  85.9784915  49.0136208  65.4763185  84.7992525  50.3273576
  66.4647398  84.3742596  48.9097733  63.0779752  85.0617248  49.0736104
  63.2735856  86.1338453  49.0934849  62.2744648  84.8525532  48.3674109
  62.6679752  84.5977248  50.4566104  63.4708560  84.8070001  51.1634953
  61.7659865  85.1262176  50.7651730  62.4717373  83.5257069  50.4374216
  65.6329752  83.6777248  46.5436104  65.5339752  82.4597248  46.5906104
  66.7239752  84.2947248  46.0906104  66.7366988  85.2995074  45.9888786
  67.8729752  83.5317248  45.5956104  67.8746150  82.5436874  46.0559132
  67.8209752  83.3617248  44.0646104  68.5267907  82.6060825  43.7197503
  66.8077078  83.0593209  43.8001466  68.1149752  84.6157248  43.2816104
  69.4209752  84.9327248  42.9056104  70.2328749  84.2683052  43.2013561
  69.6939752  86.0767248  42.1646104  70.7215830  86.3167397  41.8916344
  68.6589752  86.9127248  41.7726104  68.8688559  87.8091649  41.1891336
  67.3529752  86.6047248  42.1256104  66.5372890  87.2598673  41.8197601
  67.0839752  85.4587248  42.8706104  66.0568128  85.2118924  43.1391452
  69.2109752  84.0997248  46.0426104  69.2879752  85.1947248  46.5916104
  70.2589752  83.3187248  45.8126104  70.1275653  82.4188333  45.3732631
  71.6049752  83.7167248  46.1746104  71.9673098  84.4107620  45.4162403
  71.5594227  84.2238198  47.1383940  72.5639752  82.5547248  46.2756104
  72.3819752  81.5367248  45.6146104  73.5929752  82.7277248  47.1006104
  73.6980811  83.6198529  47.5623025  74.5919752  81.6937248  47.3566104
  74.2024865  80.7229506  47.0500240  75.9049752  81.9627248  46.5906104
  76.6344266  81.2029426  46.8712026  75.6829752  81.9197248  45.0986104
  74.9539361  82.6795929  44.8171821  76.6247834  82.1126206  44.5849104
  75.3096220  80.9358566  44.8145130  76.4189752  83.2487248  46.9486104
  77.2351117  83.4116558  46.4700969  74.9129752  81.6097248  48.8436104
  74.8529752  82.6117248  49.5526104  75.2479752  80.4037248  49.2986104
  75.1584833  79.6124465  48.6773462  75.7199752  80.1647248  50.6626104
  75.8150696  81.1216942  51.1757046  74.7709752  79.2427248  51.4636104
  74.6502899  78.3042972  50.9224181  75.3399752  78.9597248  52.8516104
  75.4605156  79.8977027  53.3936142  74.6575358  78.3095166  53.3989735
  76.3087318  78.4696006  52.7547178  73.3919752  79.8957248  51.6016104
  73.4960515  80.7052670  52.3240440  73.1391737  80.3105031  50.6258288
  72.2929752  78.9577248  52.0506104  72.5448661  78.5428804  53.0265996
  71.3532136  79.5054700  52.1207708  72.1879898  78.1481147  51.3283850
  77.0979752  79.5267248  50.5506104  77.2449752  78.4597248  49.9496104
  78.0979752  80.1997248  51.1156104  77.8937348  81.0894966  51.5476883
  79.4739752  79.7177248  51.1426104  79.5861826  78.8894561  50.4429821
  80.1507281  80.5245329  50.8612466  79.8299752  79.2387248  52.5346104
  79.3799752  79.8197248  53.5216104  80.6269752  78.1737248  52.6036104
  80.9694812  77.7690334  51.7439512  81.0469752  77.5737248  53.8666104
  80.8911318  78.2798543  54.6822041  80.2369752  76.3157248  54.1506104
  80.1385304  75.7797386  53.2066154  80.8167962  75.7141619  54.8506317
  78.8659752  76.5757248  54.7266104  78.9607532  77.2401072  55.5855132
  78.2449534  77.0508327  53.9671985  78.0879752  75.0377248  55.2506104
  79.0699752  74.6707248  56.7046104  78.9724253  75.4835807  57.4242271
  78.7191382  73.7426140  57.1558581  80.1163511  74.5624957  56.4191542
  82.5069752  77.1857248  53.7856104  82.9549752  76.6687248  52.7696104
  83.2399752  77.4247248  54.8636104  82.8548496  77.9642919  55.6256110
  84.6229752  76.9737248  54.9656104  84.7184419  75.9775201  54.5336826
  85.5609752  77.9297248  54.2086104  86.5380995  77.4475106  54.1803810
  85.1676702  78.0121828  53.1953918  85.6989752  79.3217248  54.8146104
  84.7462680  79.5907164  55.2707828  86.4712432  79.2838282  55.5828995
  86.0739752  80.3657248  53.7686104  86.3985665  81.2779352  54.2692217
  86.8860117  79.9822938  53.1508103  84.9329752  80.6857248  52.9006104
  84.9104095  80.1989193  52.0159576  83.9469752  81.5497248  53.1806104
  82.9609752  81.7247248  52.2996104  82.9650534  81.2071431  51.4323200
  82.2147743  82.3740232  52.5038050  83.9209752  82.2467248  54.3206104
  84.6600018  82.1277013  54.9986762  83.1624182  82.8893076  54.4988723
  85.0089752  76.8767248  56.4346104  84.3809752  77.5307248  57.2776104
  86.0299752  76.0577248  56.7556104  86.8059752  75.1397248  55.9036104
  87.0486003  75.6362698  54.9641018  86.2138114  74.2475282  55.7000759
  88.0219752  74.8427248  56.7286104  88.8052326  75.5718244  56.5211962
  88.3910698  73.8410907  56.5081569  87.5529752  74.9367248  58.1306104
  88.4152199  75.2107385  58.7385163  87.0910987  74.0383552  58.5401245
  86.5419752  76.0827248  58.1166104  85.7118751  75.9542430  58.8112503
  87.2369752  77.4057248  58.3976104  87.8429752  77.9837248  57.4916104
  87.1309752  77.8797248  59.6366104  86.5161345  77.4197478  60.2927289
  87.8319752  79.0877248  60.0726104  87.6328590  79.9036667  59.3778510
  87.3539752  79.5047248  61.4676104  86.2654601  79.5615786  61.4688905
  87.6784252  78.7447266  62.1784092  87.9079752  80.8417248  61.9036104
  88.8819752  80.9017248  62.6556104  87.2999752  81.9217248  61.4256104
  87.6302730  82.8401040  61.6855773  86.5101917  81.8195379  60.8044014
  89.3479752  78.8377248  60.0556104  89.8129752  77.7777248  60.4826104
  90.1029752  79.8077248  59.5406104  89.6615423  80.6626301  59.2334082
  91.5469752  79.6477248  59.3126104  91.6699560  78.7303664  58.7369121
  92.0909752  80.8137248  58.4936104  91.9831271  81.7383146  59.0607105
  93.1449873  80.6436502  58.2739892  91.5341379  80.8936864  57.5599951
  92.3479752  79.4857248  60.6106104  93.3279752  78.7437248  60.6346104
  91.9169752  80.1657248  61.6766104  91.1147769  80.7719964  61.5816798
  92.5889752  80.0987248  62.9816104  93.6685832  80.0830793  62.8322752
  92.2319752  81.3097248  63.8566104  91.1764484  81.1989631  64.1049933
  92.8301296  81.2113861  64.7625027  92.4669752  82.6837248  63.2396104
  91.8076463  82.7734225  62.3762793  92.1922659  83.4300510  63.9850190
  93.9089752  82.9097248  62.8026104  94.5636022  82.7503991  63.6594522
  94.1543533  82.1917073  62.0200888  94.1029752  84.3257248  62.2716104
  93.8905701  85.0241297  63.0810640  95.1428475  84.4333179  61.9630839
  93.2069752  84.6197248  61.1126104  92.2433476  84.5205024  61.3984011
  93.3680217  85.5644432  60.7937514  93.4039280  83.9729499  60.3622832
  92.2219752  78.8167248  63.7336104  93.0729752  78.2047248  64.3856104
  90.9469752  78.4327248  63.6556104  90.2946479  79.0089238  63.1432013
  90.4389752  77.2407248  64.3246104  91.2605305  76.5904079  64.6250002
  89.6689752  77.6647248  65.5756104  90.2969706  78.3500391  66.1448777
  88.7581598  78.1781740  65.2675759  89.2899752  76.4997248  66.4686104
  89.3859752  75.3267248  66.0886104  88.8449752  76.8247248  67.6746104
  88.5742790  76.0985401  68.3222825  88.7787536  77.7969744  67.9400272
  89.5539752  76.4437248  63.3546104  88.4079752  76.8187248  63.0936104
  90.0909752  75.3377248  62.8356104  91.0272971  75.0735267  63.1069036
  89.4139752  74.5417248  61.7986104  89.1283911  75.1890674  60.9694612
  90.3399752  73.4357248  61.2626104  90.7277355  72.8578022  62.1015066
  89.7502245  72.7858642  60.6161003  91.5169752  73.9817248  60.4616104
  92.6659752  73.3197248  60.5796104  91.3969752  74.9747248  59.7376104
  92.1927573  75.3158714  59.2175626  90.5036293  75.4409116  59.6690269
  88.0709752  73.9267248  62.2276104  87.2469752  73.6157248  61.3696104
  87.8519752  73.7537248  63.5316104  88.6072019  73.8957420  64.1870211
  86.5689752  73.2477248  64.0446104  86.2134903  72.4342058  63.4122208
  86.7329752  72.7207248  65.4746104  87.0643952  73.5501838  66.0993166
  85.7570207  72.3763009  65.8166410  87.7389752  71.5767248  65.5726104
  87.6019255  70.9347847  64.7024201  88.7397641  72.0080796  65.5512415
  87.5689752  70.7557248  66.8386104  87.7405121  71.3922314  67.7066734
  86.5553447  70.3566535  66.8759568  88.5139752  69.6397248  66.8816104
  89.3170644  69.7641022  67.4813416  88.3969752  68.4937248  66.2006104
  87.3579752  68.2697248  65.3866104  86.6434654  68.9753970  65.2788956
  87.2933781  67.3960834  64.8839399  89.3329752  67.5507248  66.3336104
  90.1208272  67.7082857  66.9456267  89.2488152  66.6842120  65.8215836
  85.4209752  74.2707248  63.9706104  84.2539752  73.8847248  63.9936104
  85.7519752  75.5597248  63.8786104  86.7134685  75.8335153  64.0223768
  84.7569752  76.6127248  63.6346104  83.8207494  76.3564358  64.1304898
  85.2479752  77.9557248  64.1806104  86.2151180  78.1611503  63.7217701
  84.5349436  78.7249298  63.8839464  85.3949752  77.9577248  65.6966104
  84.7319752  77.1497248  66.3876104  86.1779752  78.7857248  66.1986104
  84.4199752  76.7517248  62.1556104  85.1649752  76.2797248  61.2926104
  83.2889752  77.3967248  61.8776104  82.7338286  77.7561622  62.6409690
  82.8099752  77.6097248  60.5106104  83.5141461  77.1779218  59.7994222
  81.4489752  76.9437248  60.3156104  80.8632769  77.3478606  61.1412804
  81.0513869  77.3170666  59.3718735  81.3689752  75.4207248  60.3336104
  81.7778688  75.0433994  61.2709110  79.9129752  74.9947248  60.2076104
  79.5034986  75.3713159  59.2702701  79.8498587  73.9066231  60.2199278
  79.3415323  75.4007700  61.0422843  82.2099752  74.8187248  59.2206104
  83.2507940  75.1155348  59.3498372  82.1356187  73.7318269  59.2556145
  81.8477112  75.1763196  58.2567693  82.6599752  79.0897248  60.2016104
  82.0629752  79.8287248  60.9846104  83.2009752  79.5077248  59.0576104
  83.8597842  78.9088493  58.5807265  82.8889752  80.8097248  58.4626104
  82.4679058  81.4642078  59.2257957  84.1409752  81.4737248  57.8856104
  84.5822302  80.7761963  57.1736783  83.8295878  82.3777811  57.3623321
  85.1689752  81.8317248  58.9476104  84.8689752  81.7597248  60.1626104
  86.2959752  82.1967248  58.5526104  81.8679752  80.6027248  57.3506104
  81.9819752  79.6557248  56.5726104  80.8669752  81.4787248  57.2966104
  80.8127492  82.1963517  58.0052502  79.8589752  81.4697248  56.2436104
  80.0423682  80.6295025  55.5739144  78.4519752  81.3337248  56.8236104
  78.2286512  82.1384379  57.5240834  77.7437820  81.3664426  55.9956660
  78.1999752  80.0467248  57.5536104  78.6529752  79.8687248  58.8556104
  79.2113380  80.6703885  59.3390007  78.4019752  78.6877248  59.5396104
  78.7713663  78.5579669  60.5568684  77.6819752  77.6737248  58.9296104
  77.4848392  76.7448326  59.4647708  77.2119752  77.8417248  57.6366104
  76.6435506  77.0474935  57.1526783  77.4669752  79.0257248  56.9576104
  77.0911687  79.1644466  55.9438917  79.9069752  82.7777248  55.4786104
  80.3039752  83.8077248  56.0266104  79.4999752  82.7287248  54.2146104
  79.4430669  81.8364420  53.7448314  79.1509752  83.9317248  53.4616104
  79.0093779  84.7623339  54.1530856  80.2289752  84.3257248  52.4326104
  80.2720150  83.5613366  51.6567505  79.9009752  85.6827248  51.7956104
  79.8582212  86.4477554  52.5708522  80.6744238  85.9417158  51.0725613
  78.9369648  85.6239683  51.2903064  81.5089752  84.3977248  53.0746104
  82.1768122  84.6432901  52.4301791  77.8329752  83.6637248  52.7466104
  77.7329752  82.7067248  51.9716104  76.8249752  84.4847248  53.0336104
  76.9371308  85.1669719  53.7698572  75.5379752  84.4047248  52.3566104
  75.5506228  83.5654190  51.6612651  74.3689752  84.2337248  53.3466104
  74.3460109  85.0893098  54.0215528  73.0449752  84.1447248  52.5936104
  73.0670100  83.2890431  51.9187593  72.2287151  84.0241530  53.3058481
  72.8919838  85.0573046  52.0175107  74.5779752  82.9677248  54.1866104
  74.6490312  82.1373844  53.4840532  75.5311486  83.0904068  54.7009149
  73.4869752  82.6777248  55.2046104  72.5335178  82.5544512  54.6909739
  73.7283497  81.7630079  55.7460258  73.4156337  83.5074753  55.9078346
  75.3409752  85.6627248  51.5196104  75.2919752  86.7657248  52.0616104
  75.2559752  85.4847248  50.2006104  75.5340025  84.5971664  49.8068588
  74.7959752  86.5347248  49.2896104  74.8934167  87.5044226  49.7777605
  75.6149752  86.5527248  48.0006104  75.7466975  85.5224864  47.6699183
  75.0465402  87.1042767  47.2517632  76.9679752  87.1997248  48.1826104
  77.8159752  86.6357248  48.8966104  77.1919752  88.2827248  47.6056104
  73.3299752  86.2737248  48.9766104  72.9699752  85.1687248  48.5916104
  72.4929752  87.2937248  49.1466104  72.8644932  88.1971463  49.4033269
  71.0439752  87.1567248  48.9966104  70.8014052  86.1945044  48.5456215
  70.3739752  87.2357248  50.3706104  70.9748846  86.5651883  50.9849296
  70.4798446  88.2566086  50.7376090  68.9009752  86.8157248  50.4466104
  68.6940482  86.1028895  49.6483949  68.5989752  86.1727248  51.7906104
  68.8052353  86.8851619  52.5893525  67.5493603  85.8809991  51.8267416
  69.2254850  85.2903173  51.9207751  67.9549752  87.9867248  50.2096104
  68.1362053  88.4063705  49.2200890  66.9235863  87.6399061  50.2732883
  68.1275347  88.7526607  50.9656954  70.5079752  88.2567248  48.0966104
  70.8629752  89.4227248  48.2806104  69.6629752  87.8737248  47.1396104
  69.4939139  86.8858280  47.0148003  68.9749752  88.8117248  46.2546104
  69.1285696  89.8313499  46.6079836  69.5129752  88.7027248  44.8356104
  69.4992837  87.6491251  44.5566132  68.8479617  89.2611652  44.1768226
  70.9159752  89.2387248  44.7046104  71.3169752  90.0987248  45.5166104
  71.6179752  88.7987248  43.7786104  67.4829752  88.5137248  46.2436104
  67.0739752  87.3507248  46.2576104  66.6769752  89.5707248  46.2306104
  67.0703606  90.4960076  46.3265218  65.2249752  89.4437248  46.1096104
  64.9827035  88.5438275  45.5442887  64.5679752  89.3467248  47.4886104
  64.9504687  88.4654117  48.0034747  64.7666656  90.2333915  48.0906439
  63.0769752  89.1947248  47.4276104  62.5149752  87.9857248  47.0576104
  63.1694452  87.1458325  46.8244798  61.1429752  87.8347248  46.9816104
  60.7132573  86.8740605  46.6977667  60.3149752  88.9057248  47.2666104
  59.2328251  88.7910036  47.2042410  60.8609752  90.1217248  47.6306104
  60.2123285  90.9677930  47.8576041  62.2359752  90.2637248  47.7066104
  62.6700631  91.2231049  47.9881374  64.6929752  90.6547248  45.3566104
  65.0099752  91.7837248  45.7196104  63.9149752  90.4067248  44.3016104
  63.8353796  89.4557544  43.9708246  63.1969752  91.4587248  43.5736104
  63.2940829  92.4012197  44.1124728  63.7589752  91.6437248  42.1556104
  63.6633477  90.6827192  41.6502165  63.1265089  92.3794410  41.6588127
  65.2119752  92.1037248  42.1016104  65.2586093  92.9706850  41.4425914
  65.5016851  92.3986437  43.1101703  66.1669752  91.0257248  41.5926104
  67.1540699  91.2117519  42.0158562  65.8038860  90.0554559  41.9314967
  66.2579752  91.0307248  40.0676104  65.2405434  90.9851517  39.6792085
  66.7178312  91.9732837  39.7706013  67.0519752  89.8947248  39.5156104
  66.6257857  89.0212377  39.7903512  67.0727521  89.9568834  38.5077391
  67.9949021  89.9370144  39.8750539  61.7129752  91.0907248  43.5116104
  61.3249752  90.2067248  42.7536104  60.8989752  91.7557248  44.3286104
  61.2887014  92.4555586  44.9437896  59.4559752  91.5167248  44.3756104
  59.1992863  90.7788522  43.6155091  59.1983680  91.1275809  45.3606510
  58.6629752  92.7807248  44.1226104  59.2359752  93.8447248  43.8706104
  57.3379752  92.6487248  44.1826104  56.9443751  91.7253732  44.2948610
  56.4169752  93.7877248  44.0476104  56.5854262  94.2814318  43.0905436
  54.9549752  93.3237248  44.1096104  54.8884712  92.5932648  44.9159010
  54.3555593  94.1983956  44.3621010  54.4329752  92.7067248  42.8236104
  54.5635856  93.4227817  42.0122509  55.0019715  91.8030656  42.6051034
  52.9609752  92.3427248  42.9176104  52.1079752  93.2127248  43.0986104
  52.6569752  91.0517248  42.7986104  51.6928256  90.7559414  42.8536475
  53.3919457  90.3742536  42.6538601  56.6299752  94.8557248  45.1156104
  56.5419752  96.0457248  44.8206104  56.9069752  94.4177248  46.3446104
  57.0692230  93.4298776  46.4785244  56.9469752  95.2937248  47.5186104
  56.5616214  96.2820723  47.2680695  56.0749752  94.6947248  48.6286104
  56.6022981  93.7766929  48.8879312  56.0895379  95.3745143  49.4805342
  54.6259752  94.3647248  48.2646104  54.6181704  93.7477122  47.3660920
  53.9469752  93.6127248  49.4026104  53.9539818  94.2293333  50.3014117
  52.9172581  93.3864616  49.1258642  54.4832561  92.6836517  49.5958110
  53.8559752  95.6287248  47.9106104  54.3294256  96.1165836  47.0585905
  52.8285132  95.3693871  47.6553322  53.8576895  96.3068334  48.7639947
  58.3469752  95.5387248  48.0826104  58.4959752  96.3367248  49.0076104
  59.3639752  94.8687248  47.5406104  59.2248802  94.3229088  46.7022568
  60.6919752  94.8707248  48.1546104  60.9470542  95.8668305  48.5162832
  60.6859752  93.9057248  49.3426104  60.0064199  94.2828612  50.1068564
  60.3462301  92.9260873  49.0064799  62.2659752  93.6307248  50.1696104
  61.8008903  92.7776518  51.0778289  61.7889752  94.4687248  47.1686104
  61.6499752  93.4787248  46.4466104  62.8649752  95.2547248  47.1426104
  62.8294787  96.1322758  47.6413524  64.0929752  94.9147248  46.4236104
  64.0088370  93.9048891  46.0220486  64.3469752  95.8817248  45.2656104
  63.9454276  96.8513880  45.5599094  65.4269202  95.9592598  45.1398838
  63.7139752  95.4487248  43.9526104  64.1476009  94.4900228  43.6680753
  62.6456023  95.3253567  44.1299766  63.9289752  96.4557248  42.8306104
  65.0729752  96.9437248  42.6676104  62.9529752  96.7537248  42.1056104
  65.2409752  94.9877248  47.4086104  65.4299752  96.0127248  48.0586104
  65.9979752  93.9027248  47.5276104  65.7785751  93.0760460  46.9904277
  67.1439752  93.8567248  48.4326104  67.5271028  94.8647975  48.5910457
  66.7429752  93.2687248  49.7846104  65.8318039  93.8046873  50.0503362
  66.5193281  92.2082646  49.6683939  67.7879752  93.4527248  50.8966104
  68.7835988  93.3296042  50.4703759  67.6699752  94.8387248  51.5186104
  66.6747022  94.9624273  51.9454922  68.4178872  94.9500959  52.3036740
  67.8328051  95.5965261  50.7522398  67.6599752  92.3727248  51.9666104
  67.8071274  91.3923563  51.5134842  68.4138423  92.5330173  52.7373841
  66.6673777  92.4201098  52.4144984  68.2429752  93.0107248  47.8286104
  67.9799752  91.9417248  47.2966104  69.4709752  93.5057248  47.9156104
  69.5884061  94.4512412  48.2507342  70.6559752  92.7577248  47.5366104
  70.4136855  91.7000226  47.4333581  71.1889752  93.2687248  46.2006104
  70.4417357  93.0755380  45.4309279  71.3577787  94.3425693  46.2810052
  72.3989752  92.6267248  45.8536104  72.7111639  92.9659695  45.0115587
  71.6809752  92.9547248  48.6486104  72.0889752  94.0837248  48.9136104
  72.0819752  91.8687248  49.3096104  71.6941354  90.9646950  49.0806786
  73.0219752  91.9577248  50.4296104  73.6438799  92.8465694  50.3233604
  72.2589752  92.0497248  51.7546104  72.9555694  92.1866981  52.5817102
  71.5581160  92.8841215  51.7285636  71.2809752  90.5867248  52.1606104
  70.8085537  91.0509793  53.3139464  74.0159752  90.8037248  50.4826104
  73.7789752  89.7357248  49.9326104  75.1359752  91.0617248  51.1516104
  75.2519437  91.9899742  51.5324039  76.2029752  90.0907248  51.3606104
  75.8544561  89.0921340  51.0970766  77.4069752  90.4347248  50.4846104
  77.0444850  90.7801462  49.5164244  77.9704302  91.2333894  50.9670556
  78.2479752  89.3087248  50.2996104  78.9937749  89.5537209  49.7470169
  76.5789752  90.1507248  52.8386104  76.8179752  91.2387248  53.3756104
  76.6169752  88.9917248  53.4926104  76.4946705  88.1291008  52.9817084
  76.8249752  88.9177248  54.9396104  77.2649472  89.8455932  55.3051019
  75.4899752  88.6787248  55.6806104  75.1428690  87.6699823  55.4568781
  75.6609752  88.8337248  57.1826104  76.0076420  89.8424345  57.4071686
  74.7054587  88.6598936  57.6774538  76.3926568  88.1101834  57.5420968
  74.5039752  89.6117248  55.2226104  73.6778091  89.4577655  55.6866647
  77.7769752  87.7777248  55.2836104  77.5329752  86.6357248  54.8996104
  78.8499752  88.0977248  56.0046104  79.0714537  89.0718185  56.1535671
  79.7449752  87.0907248  56.5666104  79.7245082  86.1948616  55.9460384
  81.1849752  87.6137248  56.6246104  81.1532667  88.5798492  57.1282943
  81.7831763  86.9175430  57.2124764  81.8099752  87.7807248  55.2456104
  81.3619752  87.1207248  54.2766104  82.7729752  88.5687248  55.1356104
  79.2749752  86.7087248  57.9666104  79.0129752  87.5847248  58.7876104
  79.1529752  85.4037248  58.2246104  79.2712008  84.7435655  57.4694205
  78.8329752  84.8847248  59.5576104  78.6854986  85.7227413  60.2388432
  77.5629752  84.0287248  59.5526104  77.7726842  83.1316519  58.9700457
  77.4096263  83.7557049  60.5966623  76.3169752  84.6957248  59.0186104
  76.0839752  84.7787248  57.6466104  76.8235908  84.3655274  56.9607998
  74.9359752  85.3737248  57.1506104  74.7701362  85.4356707  56.0750817
  73.9949752  85.8837248  58.0256104  72.8719752  86.4657248  57.5096104
  72.8532976  86.4591628  56.5498147  74.1939752  85.8107248  59.3966104
  73.4557297  86.2180073  60.0874178  75.3449752  85.2127248  59.8856104
  75.5058846  85.1385643  60.9611142  79.9679752  84.0337248  60.1086104
  80.7869752  83.5047248  59.3596104  79.9879752  83.8987248  61.4296104
  79.3394193  84.4386204  61.9845765  80.9399752  83.0407248  62.1206104
  81.3960011  82.3493633  61.4119787  82.0469752  83.8797248  62.7676104
  81.5709060  84.7334239  63.2499538  82.5291684  83.2587982  63.5226203
  83.0909752  84.3747248  61.7756104  83.3730086  83.5398150  61.1341404
  82.6390424  85.1606511  61.1704834  84.3289752  84.9197248  62.4716104
  84.6896761  84.1800545  63.1863703  85.1009906  85.1105093  61.7261623
  84.0489752  86.1687248  63.1886104  83.0924693  86.4919756  63.1620631
  84.9489752  86.8927248  63.8636104  86.2279752  86.5107248  63.9406104
  86.5265156  85.6612074  63.4831238  86.8897396  87.0734254  64.4559118
  84.5689752  88.0197248  64.4696104  83.6058099  88.3187899  64.4150888
  85.2463520  88.5682476  64.9798869  80.2059752  82.2117248  63.1656104
  79.5979752  82.7617248  64.0816104  80.2319752  80.8917248  62.9886104
  80.5279611  80.5195837  62.0975421  79.8129752  79.9577248  64.0206104
  79.1007741  80.4468075  64.6851906  79.1439752  78.7207248  63.4106104
  78.4606975  79.0667002  62.6350256  79.9282233  78.1134186  62.9586875
  78.3759752  77.8837248  64.4276104  79.1208895  77.4634811  65.1033313
  77.7387029  78.5772761  64.9762201  77.3579752  76.5437248  63.7556104
  76.2429752  77.4437248  62.6906104  76.8153281  77.9735023  61.9291336
  75.5571933  76.7464318  62.2093763  75.6746972  78.1614979  63.2821872
  81.0769752  79.5957248  64.7976104  81.9949752  78.9767248  64.2536104
  81.1339752  80.0287248  66.0556104  80.3675313  80.5798031  66.4147423
  82.2949752  79.8017248  66.9246104  82.7942479  78.8754737  66.6402078
  83.2979752  80.9607248  66.7946104  84.0872439  80.7848996  67.5255275
  83.7166533  80.9108828  65.7894614  82.6929752  82.3367248  67.0236104
  81.8451852  82.4460573  66.3472974  82.3424821  82.3805407  68.0547926
  83.6859752  83.4627248  66.7776104  84.4566317  83.4463017  67.5482710
  84.1487701  83.3356228  65.7989555  83.0129752  84.7657248  66.8136104
  82.0155535  84.7436382  66.6562528  83.5969752  85.9467248  67.0406104
  82.8499752  87.0537248  67.0446104  81.8560662  86.9891809  66.8770424
  83.2823546  87.9504146  67.2151832  84.9109752  86.0487248  67.2736104
  85.4855194  85.2180903  67.2803537  85.3220252  86.9558654  67.4416355
  81.8479752  79.6187248  68.3776104  80.6709752  79.3617248  68.6536104
  82.6389752  79.7077248  69.3166104  79.8139752  57.7717248  69.3426104
  79.0059752  58.2887248  70.4916104  77.5119752  58.2547248  70.1396104
  77.1459752  58.3707248  68.9556104  79.4589752  59.7087248  70.8576104
  79.4539752  60.7047248  69.6766104  79.9559752  62.3877248  70.1136104
  78.7639752  63.4597248  69.2646104  81.4029752  62.6347248  69.0586104
  82.6939752  62.1987248  69.7306104  83.7079752  62.1897248  68.7366104
  83.1109752  63.2227248  70.7766104  83.1219752  62.6847248  72.0876104
  84.4799752  63.7167248  70.3216104  85.4039752  63.7797248  71.3776104
  84.8959752  62.6057248  69.3786104  76.6489752  58.1177248  71.0206104
  89.4689752  61.1217248  67.3906104  88.6749752  60.4317248  68.2916104
  87.4879752  61.0087248  68.6976104  87.0999752  62.2187248  68.2226104
  87.8979752  62.9147248  67.3136104  89.0999752  62.3497248  66.8906104
  89.9079752  62.9727248  66.0286104  87.2699752  64.0717248  67.0226104
  86.1049752  64.1277248  67.7126104  85.9919752  62.9817248  68.4616104
  82.3704037  62.3510283  72.2596797  85.2120269  63.1988690  71.9532348
  90.6444205  62.6013214  65.7838210  89.6918597  63.7453283  65.7183896
  81.2877163  62.1375275  68.2337030  81.4668857  63.5723034  68.8184091
  80.6707513  57.7345530  69.4016197  79.4215499  57.5123150  68.6232649
  80.0461645  60.3712890  68.9849498  78.5619220  60.7332038  69.2966158
  78.9711570  64.3883855  69.4538137  78.8143229  63.3062447  68.3080614
  77.8683644  63.2589895  69.5765985  78.8807544  60.0510700  71.5569733
  80.3552914  59.6651492  71.2266843  79.1467426  57.7202504  71.2648319
  85.4617203  64.8532266  67.6832117  82.5676745  61.3313796  70.1452398
  82.4768226  63.9545032  70.8368830  84.4490539  64.6099957  69.9439307
  88.9456641  59.5641683  68.6293488  85.2939296  61.8662752  69.8631407
  93.5249752  87.5387248  73.3856104  92.9018682  88.0166579  74.0207623
  94.5088312  87.4664253  73.6021738  93.0879752  86.1417248  73.2056104
  92.2649280  85.9343731  73.8894956  93.9214429  85.4755557  73.4284339
  92.6699752  86.0747248  71.7606104  91.5810695  86.0709117  71.7119487
  93.0557343  85.1517447  71.3277144  93.2419752  87.2667248  71.0696104
  92.5687815  87.6147046  70.2861441  94.2221861  87.0596762  70.6401717
  93.3649752  88.3347248  72.1636104  94.2662826  88.9372985  72.0511476
  92.1329752  89.2537248  72.1726104  91.2859752  89.1537248  73.0666104
  92.0549752  90.1417248  71.1796104  92.8300170  90.2259719  70.5374951
  90.8999752  91.0347248  70.9996104  90.6501389  91.5017086  71.9522946
  91.2069752  92.1417248  69.9746104  91.5604480  91.6856142  69.0498837
  90.2818861  92.6846544  69.7808644  92.2579752  93.1297248  70.4626104
  93.1919752  93.4777248  69.5866104  92.2209752  93.5837248  71.6046104
  92.9281870  94.2379446  71.9078393  91.4835515  93.3002001  72.2338328
  89.6779752  90.2347248  70.5406104  89.8229752  89.1877248  69.9046104
  88.4869752  90.7497248  70.8506104  88.4554932  91.6312641  71.3425419
  87.2169752  90.0377248  70.6086104  87.3504017  89.0627501  71.0773544
  86.0689752  90.7567248  71.3006104  85.9172259  91.7311141  70.8362425
  85.1589543  90.1642089  71.2063393  86.3069309  90.8908127  72.3558340
  86.8739752  89.7987248  69.1296104  86.1929752  88.8197248  68.8086104
  87.3359752  90.6867248  68.2456104  87.7763794  91.5313977  68.5812757
  87.1589752  90.5217248  66.7946104  86.1132999  90.3095443  66.5718063
  87.5679752  91.8027248  66.0546104  88.6200911  91.9721520  66.2836211
  87.4570519  91.5962604  64.9901065  86.7469752  93.0697248  66.4246104
  86.7906716  93.7218622  65.5523098  85.7251945  92.7160551  66.5623820
  87.1899752  93.8507248  67.6696104  88.1709752  93.4287248  68.3186104
  86.5349752  94.8797248  67.9476104  87.9289752  89.3197248  66.2166104
  87.5099752  88.7477248  65.2056104  89.0389752  88.9417248  66.8606104
  89.3095267  89.4511854  67.6896768  89.9169752  87.8547248  66.3906104
  89.8147656  87.7276017  65.3128850  91.3839752  88.1987248  66.7086104
  91.4799310  88.2242839  67.7940773  92.0139548  87.4048976  66.3072824
  91.8239752  89.5397248  66.1276104  91.4809752  89.8407248  64.9636104
  92.5289752  90.2917248  66.8386104  89.6089752  86.4587248  66.9726104
  90.1889752  85.4707248  66.5176104  88.7019752  86.3707248  67.9496104
  88.1469274  87.1796383  68.1897773  88.5469752  85.1487248  68.7636104
  89.5290715  84.7462894  69.0118680  87.7969752  85.4557248  70.0706104
  86.8823799  85.9847576  69.8027690  87.5423686  84.5006581  70.5300917
  88.5969752  86.2937248  71.0546104  89.4906837  85.7272608  71.3163442
  88.8861875  87.2119464  70.5434085  87.6979752  86.7117248  72.5606104
  87.7529752  85.1437248  73.4226104  88.7910261  84.8602850  73.5964242
  87.2370660  85.2356525  74.3783759  87.2643684  84.3791497  72.8186323
  87.8599752  83.9717248  68.0566104  86.9919752  84.1597248  67.1986104
  88.2779752  82.7647248  68.4446104  89.0676343  82.7352531  69.0736329
  87.6919752  81.4947248  68.0046104  86.8977848  81.6682365  67.2784875
  88.7749752  80.6047248  67.3496104  88.3144822  79.6727415  67.0218092
  89.3989752  81.3077248  66.1566104  89.8601035  82.2396338  66.4837280
  90.1576853  80.6643194  65.7110909  88.6275920  81.5244553  65.4176271
  89.8009752  80.2917248  68.3036104  90.4671960  79.7398005  67.8875217
  87.0739752  80.7777248  69.2196104  87.0349752  81.3457248  70.3176104
  86.5999752  79.5427248  69.0316104  86.5230944  79.1836819  68.0907189
  86.0369752  78.7377248  70.1376104  85.3303321  79.3414820  70.7070241
  85.2979752  77.4957248  69.5926104  84.8726257  76.9586043  70.4403595
  84.4946349  77.8410676  68.9418549  86.1559752  76.6287248  68.8656104
  85.6542137  75.8744396  68.5479800  87.0209752  78.3237248  71.2696104
  86.5679752  77.9477248  72.3616104  88.3239752  78.3487248  70.9686104
  88.5883174  78.5596544  70.0169113  89.3829752  78.0447248  71.9316104
  89.0297855  77.3066137  72.6517133  90.6079752  77.4767248  71.2096104
  90.2636284  76.6400102  70.6018002  90.9916811  78.2633780  70.5599594
  91.7139752  77.0047248  72.1416104  91.9639735  77.8192945  72.8213735
  91.3435324  76.1547229  72.7146470  92.9549752  76.5917248  71.3686104
  92.6883627  75.7783476  70.6937516  93.3019112  77.4462438  70.7876352
  94.0599752  76.1327248  72.3016104  94.2687841  76.9314217  73.0133566
  93.7170618  75.2484820  72.8388481  95.2989752  75.8047248  71.5476104
  95.6171328  76.6240690  71.0500659  96.0154799  75.5029769  72.1923346
  95.1058087  75.0643602  70.8883335  89.7819752  79.2877248  72.7296104
  90.0269752  79.2027248  73.9336104  89.8599752  80.4377248  72.0626104
  89.7496082  80.4631257  71.0589804  90.1159752  81.6927248  72.7626104
  91.0319600  81.6018650  73.3464045  90.2759752  82.8517248  71.7806104
  89.3401231  82.9502177  71.2305385  90.4570071  83.7606802  72.3543067
  91.4089752  82.6367248  70.8096104  92.4819752  82.1787248  71.2476104
  91.2299752  82.9307248  69.6116104  88.9459752  81.9727248  73.6886104
  89.1179752  82.4817248  74.7946104  87.7509752  81.6317248  73.2176104
  87.6779842  81.2239522  72.2964735  86.5279752  81.8587248  73.9696104
  86.4726500  82.9006125  74.2850597  85.3119752  81.5467248  73.1016104
  85.6625154  80.8360106  72.3532080  84.5535148  81.0728817  73.7247561
  84.7149752  82.7527248  72.4106104  84.5249752  83.9407248  73.0956104
  84.8217204  83.9967783  74.1429402  83.9699752  85.0437248  72.4746104
  83.8395567  85.9765457  73.0231886  83.5799752  84.9597248  71.1576104
  83.0229752  86.0537248  70.5356104  82.9543079  86.8183459  71.1120121
  83.7459752  83.7867248  70.4596104  83.4381731  83.7201426  69.4160946
  84.3049752  82.6907248  71.0856104  84.4308545  81.7562078  70.5388632
  86.4469752  81.0227248  75.2406104  85.6099752  81.2817248  76.0976104
  87.3029752  80.0157248  75.3676104  87.9644567  79.7977047  74.6361674
  87.2119752  79.1117248  76.5106104  86.1634378  78.9469898  76.7586647
  87.8589752  77.7627248  76.2056104  88.3749887  77.8658605  75.2510464
  88.5790457  77.5008260  76.9808572  86.8219752  76.6807248  76.0996104
  85.4849752  76.9757248  76.3286104  85.2097534  78.0017935  76.5726089
  84.5139752  76.0017248  76.2526104  83.4653163  76.2504852  76.4155045
  84.8749752  74.7127248  75.9626104  83.8929752  73.7597248  75.9016104
  83.0171501  74.1118785  76.0763038  86.1979752  74.3837248  75.7446104
  86.4820641  73.3567873  75.5148420  87.1659752  75.3687248  75.8196104
  88.2139198  75.1164610  75.6575138  87.7599752  79.6907248  77.8126104
  87.0199752  79.8207248  78.7926104  89.0439752  80.0377248  77.8386104
  89.6683685  79.8167212  77.0761212  89.5919752  80.7187248  79.0056104
  89.4149180  80.1095351  79.8919726  91.0989752  80.9557248  78.8676104
  91.6296225  80.0138235  78.7285613  91.2853082  81.6066640  78.0134101
  91.7189752  81.6267248  80.0636104  91.3979752  81.2167248  81.3476104
  90.6878659  80.4006858  81.4814950  91.9659752  81.8287248  82.4526104
  91.6971528  81.5015201  83.4569870  92.8739752  82.8547248  82.2806104
  93.3254733  83.3395525  83.1461689  93.2099752  83.2667248  81.0036104
  93.9268297  84.0758311  80.8637287  92.6369752  82.6527248  79.9046104
  92.9060445  82.9745981  78.8985790  88.8499752  82.0387248  79.1616104
  88.6059752  82.4967248  80.2816104  88.4669752  82.6307248  78.0306104
  88.7347140  82.2317143  77.1422378  87.7359752  83.8957248  78.0296104
  87.7371157  84.3260880  79.0310521  88.3949752  84.8867248  77.0716104
  89.4701070  84.7096887  77.1007496  88.0222303  84.6913893  76.0661228
  88.1109752  86.3247248  77.4436104  87.3399752  86.5297248  78.4036104
  88.6459752  87.2397248  76.7786104  86.2539752  83.6847248  77.6776104
  85.7509752  84.1777248  76.6686104  85.5899752  82.9307248  78.5466104
  86.1593284  82.4605193  79.2356990  84.1329752  82.6707248  78.5446104
  83.8393126  82.2274209  77.5931152  83.7559752  81.7037248  79.6726104
  83.9640257  82.1844368  80.6285027  82.6909119  81.4830179  79.6016984
  84.4959752  80.4967248  79.5796104  84.2419942  79.9097112  80.2955075
  83.2629752  83.9247248  78.6546104  82.2169752  84.0047248  78.0126104
  83.6949752  84.8967248  79.4556104  84.4731384  84.7244405  80.0759970
  82.9929752  86.1827248  79.5596104  81.9201381  86.0061161  79.6366109
  83.4519752  86.9657248  80.7996104  84.5313200  86.8405436  80.8858871
  83.2212090  88.0171714  80.6284175  82.7889752  86.5067248  82.0756104
  81.4329752  86.7477248  82.3036104  80.8576333  87.2797896  81.5459903
  80.8169752  86.3227248  83.4696104  79.7553917  86.5069779  83.6345134
  81.5619752  85.6557248  84.4296104  80.9639752  85.2437248  85.5876104
  80.0314793  85.4681472  85.6286660  82.9049752  85.4047248  84.2296104
  83.4857731  84.8753396  84.9849420  83.5129752  85.8297248  83.0616104
  84.5735271  85.6382065  82.8983606  83.0859752  87.0717248  78.3076104
  82.3779752  88.0687248  78.2216104  83.9509752  86.7267248  77.3526104
  84.6662134  86.0411855  77.5490018  83.9579752  87.3837248  76.0386104
  84.0311354  88.4519453  76.2426978  85.1719752  86.9597248  75.2326104
  85.1085545  85.8940474  75.0125889  85.2033567  87.5216756  74.2991615
  86.0771785  87.1584902  75.8063687  82.6849752  87.1507248  75.2156104
  82.3759752  87.9507248  74.3306104  81.9679752  86.0587248  75.4906104
  82.3177453  85.3924437  76.1642793  80.6909752  85.7717248  74.8266104
  80.8183162  85.8261625  73.7454444  80.1959752  84.3707248  75.1906104
  80.2777413  84.1926278  76.2628487  79.1545183  84.2713160  74.8846931
  80.9469752  83.2687248  74.5156104  80.8489752  83.0257248  73.1626104
  80.2843016  83.5640873  72.5211985  81.6039752  81.9887248  72.8496104
  81.6619448  81.6348677  71.8202787  82.1889752  81.5517248  73.9506104
  82.8276533  80.7718579  74.0138396  81.7899752  82.3307248  75.0086104
  82.1621592  82.1202624  76.0112499  79.5939752  86.7697248  75.1906104
  79.2709752  86.9147248  76.3666104  79.0079752  87.4087248  74.1746104
  79.3691491  87.3086534  73.2367200  77.9419752  88.3857248  74.4076104
  78.2767468  89.0965730  75.1630718  77.5629752  89.1667248  73.1276104
  76.8136331  89.9308573  73.3342192  78.4679772  89.6397452  72.7463977
  77.0159752  88.3177248  72.0086104  75.6819752  87.9397248  71.9856104
  75.0260649  88.2555868  72.7968519  75.1809752  87.1717248  70.9506104
  74.1334607  86.8703725  70.9514805  76.0089752  86.7867248  69.9156104
  75.6180950  86.1811241  69.0979550  77.3359752  87.1707248  69.9176104
  77.9929846  86.8679777  69.1022681  77.8299752  87.9387248  70.9536104
  78.8731147  88.2548454  70.9483526  76.7149752  87.7587248  75.0766104
  76.0379752  88.4347248  75.8486104  76.4509752  86.4847248  74.7826104
  77.0503872  86.0100615  74.1226866  75.3369752  85.7397248  75.3676104
  74.4201968  86.2143179  75.0177849  75.3932204  84.7248783  74.9738814
  75.3149752  85.6807248  76.8816104  74.2409752  85.7107248  77.4776104
  76.4959752  85.6117248  77.4996104  77.3406848  85.5739330  76.9472185
  76.6169752  85.5527248  78.9596104  75.9361763  84.8183034  79.3900024
  78.0709752  85.2437248  79.4196104  78.7384871  85.9936003  78.9950931
  78.1819752  85.2677248  80.9436104  77.5150462  84.5177433  81.3688563
  79.2085721  85.0485574  81.2371495  77.9015891  86.2540150  81.3133595
  78.5809752  83.8997248  78.8486104  78.6762889  84.0396576  77.7718398
  79.5676780  83.7363198  79.2819878  77.7019752  82.6957248  79.1256104
  76.7151770  82.8582074  78.6921031  78.1513854  81.8073308  78.6818922
  77.6065643  82.5548710  80.2022519  76.1679752  86.8837248  79.5676104
  75.4429752  86.9017248  80.5636104  76.6019752  87.9847248  78.9606104
  77.2687038  87.9057394  78.2060684  76.2229752  89.3257248  79.4156104
  76.2888051  89.3815915  80.5021851  77.1609752  90.3737248  78.8146104
  77.1580191  90.2367565  77.7332547  76.8779721  91.3994165  79.0511810
  78.5759752  90.2067248  79.2626104  79.0559752  90.7657248  80.4266104
  78.5150669  91.3463221  81.0514501  80.3199752  90.4217248  80.5866104
  80.8851496  90.7736651  81.4496370  80.6739752  89.6507248  79.5756104
  81.5855637  89.2404139  79.4315572  79.5979752  89.4907248  78.7396104
  79.6881116  88.8703317  77.8479327  74.7679752  89.6347248  79.1056104
  74.0829752  90.2527248  79.9096104  74.3039752  89.1807248  77.9446104
  74.9600687  88.8407315  77.2561010  72.8769752  89.1957248  77.5986104
  72.5293426  90.2249217  77.5091431  72.6419752  88.4827248  76.2656104
  73.4132145  88.8280204  75.5770902  72.7685037  87.4152941  76.4463927
  71.2699752  88.7347248  75.6576104  70.5247801  88.4903474  76.4146208
  71.1996535  89.7933619  75.4077275  71.0179752  87.9047248  74.4146104
  71.9819752  87.6097248  73.6616104  69.8439752  87.5497248  74.1856104
  72.0299752  88.5367248  78.6966104  71.0389752  89.1087248  79.1476104
  72.4359752  87.3457248  79.1306104  73.2124358  86.8803891  78.6826472
  71.7339752  86.6447248  80.2056104  70.6835398  86.5315578  79.9375100
  72.3309752  85.2517248  80.4486104  72.4781107  84.7796067  79.4772429
  73.2961867  85.3848929  80.9372137  71.4399752  84.3647248  81.3156104
  71.1938547  84.9265850  82.2166313  70.5308258  84.1804937  80.7432421
  72.0709752  83.0397248  81.7026104  71.4369752  82.3047248  82.4856104
  73.1799752  82.7197248  81.2296104  71.7419752  87.4547248  81.5076104
  70.7159752  87.5687248  82.1756104  72.8989752  88.0127248  81.8526104
  73.7223764  87.8410018  81.2934852  73.0389752  88.8237248  83.0636104
  72.6551852  88.2725837  83.9221253  74.5069752  89.1627248  83.3176104
  74.9344974  89.4928191  82.3708466  74.5333365  89.9841527  84.0336141
  75.3129752  87.9967248  83.8566104  74.7751525  87.5505961  84.6931610
  75.4352949  87.2552445  83.0670871  76.9339752  88.5367248  84.4166104
  77.6939752  89.0107248  82.8616104  77.1080850  89.8038793  82.3971349
  78.7070263  89.3683345  83.0458480  77.7290986  88.1482774  82.1959888
  72.2219752  90.1077248  83.0096104  71.5759752  90.4707248  83.9866104
  72.2599752  90.7867248  81.8656104  72.8777433  90.4755595  81.1296497
  71.5129752  92.0307248  81.6656104  71.6548098  92.6886468  82.5230023
  72.0029752  92.7537248  80.4076104  71.9784867  91.9828464  79.6373857
  71.3233442  93.5610138  80.1346890  73.4299752  93.3067248  80.5326104
  74.0195196  92.6053247  81.1230138  74.0839752  93.4967248  79.1666104
  73.4952090  94.1984020  78.5757616  75.0923416  93.8893852  79.2974378
  74.1320717  92.5382618  78.6497586  73.4439752  94.6077248  81.3316104
  73.0512908  94.4246925  82.3318092  74.4663546  94.9783872  81.4054410
  72.8242885  95.3501985  80.8287982  69.9959752  91.8087248  81.6126104
  69.2399752  92.6217248  82.1346104  69.5599752  90.7077248  81.0046104
  70.2020388  90.1573902  80.4523554  68.1329752  90.3277248  81.0046104
  67.5215849  91.2101606  80.8159095  67.8379752  89.2837248  79.9156104
  68.5960567  88.5030022  79.9779316  66.8564554  88.8530160  80.1136224
  67.8519752  89.8937248  78.5216104  67.0997530  90.6823525  78.5034760
  68.8387939  90.3299655  78.3667397  67.5619752  88.8917248  77.4156104
  68.3394935  88.1278742  77.4057799  66.5947913  88.4226396  77.5962032
  67.5359752  89.6067248  76.0706104  66.6657278  90.2629614  76.0817244
  68.4434042  90.2083375  76.0183225  67.4659752  88.7087248  74.8816104
  66.6249846  88.1514755  74.9296492  67.4530526  89.2658460  74.0392631
  68.2724935  88.1008494  74.8708910  67.6189752  89.8477248  82.3756104
  66.4059752  89.7967248  82.5926104  68.5289752  89.4867248  83.2806104
  69.4822840  89.3256065  82.9884757  68.1869752  89.2667248  84.6896104
  67.3005010  88.6367162  84.7627661  69.3459752  88.5687248  85.4146104
  69.6038337  87.6870395  84.8278912  70.1919024  89.2559929  85.4276370
  69.0119752  88.1507248  86.8356104  68.0319752  88.6237248  87.4526104
  69.7729752  87.3197248  87.3526104  67.8669752  90.6307248  85.3136104
  68.7569752  91.3267248  85.7966104  66.5859752  90.9957248  85.2866104
  65.9018979  90.3729663  84.8812595  66.1389752  92.3197248  85.7436104
  66.8173113  93.0834746  85.3632875  64.7239752  92.6287248  85.2436104
  64.0767893  91.8064099  85.5486477  64.3942299  93.5484227  85.7268533
  64.6529752  92.7957248  83.7376104  65.3569874  93.5760557  83.4485580
  64.9631613  91.8469181  83.2998323  63.2739752  93.1527248  83.2386104
  62.6419752  94.0727248  83.8006104  62.8259752  92.5177248  82.2656104
  66.2039752  92.4827248  87.2566104  66.4879752  93.5757248  87.7436104
  65.9479752  91.3997248  87.9866104  65.6263012  90.5583998  87.5296668
  66.0529752  91.3997248  89.4476104  65.4208021  92.1683713  89.8921763
  65.6629752  90.0277248  90.0516104  66.2131362  89.2475794  89.5254969
  65.9899752  89.9647248  91.5386104  65.4397879  90.7443334  92.0654930
  65.7044832  88.9894807  91.9329373  67.0598932  90.1152340  91.6825689
  64.1789752  89.7447248  89.8246104  63.9704516  89.7321337  88.7548154
  63.9230770  88.7767862  90.2555520  63.5830700  90.5230526  90.3012692
  67.4789752  91.7877248  89.8436104  67.6769752  92.6467248  90.6996104
  68.4579752  91.1727248  89.1866104  68.2263204  90.4287247  88.5440379
  69.8679752  91.5007248  89.3876104  70.1289777  91.4086944  90.4418909
  70.7409752  90.5387248  88.5826104  70.4283689  89.5320052  88.8599049
  70.5076964  90.7147490  87.5325168  72.2399752  90.6817248  88.7996104
  72.4881442  91.7376718  88.9067967  72.5239454  90.1483848  89.7068102
  72.9949752  90.1017248  87.6136104  74.0234486  89.8794710  87.8981182
  72.5078986  89.1887289  87.2711279  73.0109752  91.0687248  86.5096104
  72.1099338  91.2686039  86.0994007  74.0819752  91.7047248  86.0336104
  75.3029752  91.4697248  86.5146104  75.4291183  90.7961757  87.2565805
  76.0962330  91.9663221  86.1348305  73.9339752  92.5777248  85.0356104
  73.0161135  92.7489928  84.6505166  74.7404753  93.0633342  84.6697692
  70.1959752  92.9427248  88.9866104  70.6909752  93.7187248  89.8016104
  69.9149752  93.2857248  87.7326104  69.4379955  92.6306500  87.1297284
  70.3669752  94.5527248  87.1596104  71.4108191  94.7322527  87.4170184
  70.2299752  94.5587248  85.6216104  69.1718280  94.5024779  85.3661482
  70.8379752  95.8377248  85.0126104  71.8962897  95.8944328  85.2672753
  70.7264602  95.8131270  83.9286093  70.3216921  96.7112561  85.4107250
  70.8919752  93.4057248  85.0786104  70.8071867  93.4088210  84.1223669
  69.6579752  95.7747248  87.7526104  70.3149752  96.7787248  88.0286104
  68.3399752  95.6897248  87.9476104  67.8342405  94.8742868  87.6323446
  67.5729752  96.8077248  88.5236104  67.9095421  97.7380258  88.0660494
  66.0599752  96.6637248  88.2886104  65.8499137  95.6569824  88.6497796
  65.5631635  97.3906980  88.9310962  65.5389752  96.8107248  86.8516104
  66.1161632  96.1610788  86.1936477  64.0679752  96.4227248  86.7846104
  63.4900435  97.0722799  87.4420082  63.7094149  96.5308685  85.7609698
  63.9500366  95.3869022  87.1028280  65.7309752  98.2237248  86.3186104
  66.7919946  98.4733538  86.3233707  65.3488154  98.2832522  85.2995365
  65.1897843  98.9277191  86.9507522  67.8439752  97.0117248  90.0126104
  67.7739752  98.1457248  90.4816104  68.1459752  95.9457248  90.7556104
  68.0632632  95.0107363  90.3827101  68.5329752  96.1017248  92.1606104
  67.7695791  96.6992384  92.6589105  68.6709752  94.7547248  92.9066104
  69.4569808  94.1687030  92.4302975  69.0239752  94.9797248  94.3796104
  68.2381492  95.5653233  94.8567388  69.1155870  94.0172421  94.8829328
  69.9698127  95.5169944  94.4491336  67.4339752  94.0407248  92.8446104
  67.5232349  93.2050956  93.3086760  69.8409752  96.8907248  92.2466104
  69.9369752  97.8427248  93.0236104  70.8319752  96.5077248  91.4406104
  70.7750281  95.6295216  90.9450143  72.0759752  97.2877248  91.3376104
  72.5284800  97.3683260  92.3259636  73.0889752  96.6317248  90.3856104
  72.5148381  96.1549193  89.5911783  73.7111463  97.4195392  89.9609322
  73.9679752  95.6037248  91.0576104  73.5569752  94.2787248  91.1816104
  72.5872002  93.9924362  90.7745789  74.3539752  93.3307248  91.8076104
  74.0209360  92.2964500  91.8939959  75.5829752  93.7077248  92.3226104
  76.3659752  92.7687248  92.9436104  75.9639091  91.8971510  92.9609788
  76.0149752  95.0197248  92.2136104  76.9823501  95.3165294  92.6188181
  75.2089752  95.9577248  91.5846104  75.5429822  96.9915019  91.4960428
  71.8149752  98.7477248  90.9296104  72.4009752  99.6577248  91.5146104
  70.9279752  98.9667248  89.9566104  70.5169374  98.1929389  89.4542136
  70.5979752 100.3297248  89.5256104  71.5227243 100.8770216  89.3428414
  69.7579752 100.3437248  88.2416104  70.1810808  99.6058661  87.5599613
  68.7416447 100.0521800  88.5065142  69.7339752 101.7127248  87.5596104
  69.3935050 102.4449407  88.2917584  70.7525882 101.9518061  87.2540456
  68.8189752 101.7477248  86.3446104  68.9705185 102.6875662  85.8137321
  69.0703769 100.9152172  85.6874743  67.4079752 101.6417248  86.7166104
  67.2079365 101.6159884  87.7062677  66.3879752 101.5847248  85.8596104
  66.5839752 101.6237248  84.5396104  67.5223413 101.6979746  84.1734737
  65.7929923 101.5788031  83.9131699  65.1509752 101.4797248  86.3306104
  64.9949126 101.4442021  87.3278479  64.3717945 101.4358595  85.6894771
  69.8859752 101.1257248  90.6276104  70.2399752 102.2757248  90.8706104
  68.8979752 100.5097248  91.2816104  68.6030160  99.5953100  90.9702520
  68.1729752 101.1337248  92.4056104  67.7112018 102.0615796  92.0680458
  67.0709752 100.2037248  92.9456104  67.5018849  99.2154135  93.1057880
  66.7203325 100.6050885  93.8964295  65.8779752 100.0687248  92.0036104
  65.7349752 100.8107248  91.0336104  65.0139752  99.1087248  92.2926104
  64.2035490  98.9695610  91.7061442  65.1690426  98.5197100  93.0982881
  69.0979752 101.5327248  93.5586104  68.9169752 102.5967248  94.1506104
  70.0899752 100.6957248  93.8636104  70.1655354  99.8102985  93.3835997
  71.0389752 100.9837248  94.9466104  70.4893539 101.1483999  95.8733777
  72.0189752  99.8227248  95.1576104  72.4996221  99.9481787  96.1278368
  71.4559495  98.8894306  95.1496064  73.0049752  99.7867248  94.1446104
  73.6011554  99.0514351  94.3043546  71.8179752 102.2827248  94.7226104
  72.2209752 102.9287248  95.6896104  72.0189752 102.6607248  93.4606104
  71.7575652 102.0353602  92.7118226  72.6649752 103.9257248  93.1136104
  73.2823342 104.2664778  93.9447870  73.5559752 103.7487248  91.8836104
  72.8996574 103.6479400  91.0192097  74.1529621 104.6550447  91.7821660
  74.4779752 102.5407248  91.9636104  75.0635152 102.6344051  92.8781965
  73.8501514 101.6517555  92.0242150  75.5919752 102.3827248  90.5626104
  75.5689752 100.6087248  90.3396104  74.5501568 100.2812070  90.1326320
  76.2138275 100.3387455  89.5033225  75.9289021 100.1232833  91.2467490
  71.6289752 105.0287248  92.8706104  71.7069752 106.0957248  93.4796104
  70.6559752 104.7567248  92.0026104  70.6277644 103.8417130  91.5759292
  69.6619752 105.7597248  91.5736104  70.1745317 106.6567686  91.2261950
  68.7919752 105.2157248  90.4276104  68.5207773 104.1748562  90.6040855
  67.8875685 105.8211887  90.3679277  69.4399752 105.2687248  89.0596104
  70.8239752 105.1727248  88.8846104  71.4649613 105.0637764  89.7594630
  71.3829752 105.2147248  87.6166104  72.4648865 105.1537735  87.4989086
  70.5709752 105.3337248  86.5016104  71.0088182 105.3621586  85.5038204
  69.1979752 105.4167248  86.6576104  68.5543103 105.5095303  85.7828631
  68.6409752 105.3817248  87.9286104  67.5596962 105.4432916  88.0516755
  68.7489752 106.2657248  92.6966104  68.3209752 107.4157248  92.6546104
  68.4449752 105.4147248  93.6806104  68.7037462 104.4424827  93.5918284
  67.6649752 105.8257248  94.8636104  67.0389058 106.6802048  94.6067055
  66.7589752 104.6827248  95.3576104  67.3444751 103.8365592  95.7171837
  66.1376249 105.0644159  96.1677559  65.8239752 104.1457248  94.3166104
  65.3909752 104.8947248  93.2406104  64.5719752 104.1677248  92.5006104
  64.1306731 104.5782345  91.5924071  64.4439752 102.9807248  93.0666104
  63.8770587 102.2179197  92.7248005  65.2109752 102.9437248  94.2066104
  65.2309161 102.0436597  94.8210911  68.5379752 106.3287248  96.0266104
  68.0169752 106.6047248  97.1046104  69.8519752 106.4437248  95.8116104
  70.2230861 106.1446076  94.9211583  70.7909752 106.9457248  96.8246104
  70.2563014 107.5529522  97.5550198  71.4659752 105.7777248  97.5576104
  72.0720048 105.2176775  96.8454486  72.1079670 106.1860132  98.3381533
  70.4689752 104.8297248  98.1966104  69.9359752 105.1017248  99.2736104
  70.2089752 103.7147248  97.5316104  69.5528260 103.0463125  97.9094901
  70.6679897 103.5377356  96.6495212  71.8419752 107.8367248  96.1586104
  73.0469752 107.6377248  96.3326104  71.3699752 108.8237248  95.3976104
  70.3712265 108.9285385  95.2898405  72.2499752 109.7157248  94.6326104
  72.9179702 109.1210215  94.0095455  71.4369752 110.6507248  93.7266104
  70.6472571 111.0867121  94.3384597  72.1103841 111.4382247  93.3882844
  70.8189752 109.9577248  92.5186104  71.6089513 109.4100653  92.0046963
  70.0679360 109.2560139  92.8814382  70.1699752 110.9407248  91.5506104
  69.1318905 111.0982898  91.8432744  70.7061425 111.8888914  91.5906620
  70.1989752 110.4417248  90.1696104  70.9566301 110.7881451  89.5986013
  69.3259752 109.5887248  89.6226104  68.2989752 109.0987248  90.3156104
  68.1674856 109.3720266  91.2789985  67.6566335 108.4562124  89.8743909
  69.4819752 109.2157248  88.3536104  70.2557686 109.5784597  87.8153100
  68.8257674 108.5718412  87.9353952  73.1879752 110.5337248  95.5166104
  74.2899752 110.8717248  95.0916104  72.7449752 110.8587248  96.7306104
  71.7726515 110.7057729  96.9570871  73.5909752 111.5547248  97.7166104
  73.9726963 112.4762034  97.2769908  72.7979752 111.9087248  98.9936104
  73.3997737 112.5228467  99.6635298  71.8989061 112.4556286  98.7095839
  72.3439752 110.7207248  99.7916104  71.2489752 109.9557248  99.4396104
  71.0869752 108.9877248 100.3246104  70.2747767 108.2687487 100.2173444
  72.0299752 109.0997248 101.2436104  72.1550707 108.4968504 102.0442311
  72.8259752 110.1797248 100.9366104  73.6619433 110.4423980 101.5848861
  74.8799752 110.7957248  98.0716104  75.9069752 111.4217248  98.3286104
  74.8259752 109.4627248  98.0756104  73.9394000 108.9968669  97.9449956
  76.0139752 108.6387248  98.3366104  76.5344336 109.0189850  99.2156010
  75.6269752 107.1757248  98.5906104  75.0858008 106.9005549  97.6853419
  76.5467338 106.5942785  98.6543643  74.7549752 106.8857248  99.8136104
  73.8445016 107.4818214  99.7519061  74.3919752 105.4107248  99.8636104
  75.3019834 104.8139692  99.9257940  73.7713541 105.2182162 100.7387508
  73.8418804 105.1406375  98.9621954  75.4469752 107.3077248 101.1036104
  75.6533396 108.3775631 101.0726411  74.7997580 107.0874891 101.9525553
  76.3836300 106.7604755 101.2098888  77.0499752 108.6927248  97.2136104
  78.2459752 108.6187248  97.4906104  76.5939752 108.8217248  95.9646104
  75.5961019 108.8665291  95.8151423  77.4759752 108.7777248  94.7846104
  78.4205035 108.2975700  95.0403777  76.8059752 107.9747248  93.6626104
  75.7662116 108.2902720  93.5764669  77.3083643 108.1156187  92.7056077
  76.7859752 106.4967248  93.9236104  75.8349752 105.9427248  94.7736104
  75.0902993 106.5927517  95.2329823  75.8259752 104.5817248  95.0396104
  75.0730753 104.1580435  95.7042430  76.7779752 103.7597248  94.4576104
  76.7743602 102.6894885  94.6642044  77.7359752 104.2997248  93.6116104
  78.4840589 103.6545318  93.1509619  77.7409752 105.6607248  93.3526104
  78.4984746 106.0876427  92.6953162  77.9449752 110.1397248  94.2636104
  78.9399752 110.2027248  93.5406104  77.2359752 111.2077248  94.6376104
  76.4211680 111.0439958  95.2115280  77.5329752 112.5887248  94.2256104
  77.3225078 112.7266848  93.1650588  76.6439752 113.5487248  95.0316104
  75.6183265 113.2594755  94.8025280  76.8561557 113.3340631  96.0789880
  76.8209752 115.0437248  94.7726104  76.2794156 115.5849642  95.5484157
  77.8841075 115.2731087  94.8449624  76.3039752 115.4647248  93.4066104
  76.9952949 115.1110545  92.6416964  75.3237565 115.0161890  93.2450979
  76.1879752 116.9807248  93.3236104  75.3621951 117.2932353  93.9627699
  77.1174209 117.4128480  93.6944196  75.9429752 117.4507248  91.9306104
  75.0815535 117.0507646  91.5869766  75.8730992 118.4582733  91.9226556
  76.7082558 117.1616169  91.3382748  79.0099752 112.9697248  94.4026104
  79.5159752 112.9977248  95.5246104  79.6819752 113.2587248  93.2836104
  79.2218334 113.0736188  92.4037782  81.0899752 113.6987248  93.2576104
  81.4437166 113.7347099  92.2272361  81.2369752 115.1057248  93.8796104
  80.8789184 115.0335981  94.9065925  82.2922763 115.3785539  93.8816244
  80.4379752 116.1717248  93.1366104  80.4079752 116.1497248  91.8856104
  79.8539752 117.0537248  93.8076104  82.0929752 112.7097248  93.8966104
  83.1279752 113.1207248  94.4206104  81.7889752 111.4157248  93.8306104
  80.9237578 111.1365204  93.3906752  82.6559752 110.3717248  94.3826104
  83.3818992 110.8176421  95.0625305  81.8339752 109.3417248  95.1536104
  81.1661789 108.8744897  94.4298434  82.5397474 108.6000373  95.5276230
  81.0209752 109.8927248  96.3086104  80.3757782 110.6783399  95.9153795
  80.4073681 109.0811056  96.6995870  81.8839752 110.4577248  97.4246104
  82.5739617 109.6855522  97.7648563  82.4499685 111.3062522  97.0402248
  81.0169752 110.9127248  98.5906104  80.5294087 111.8443971  98.3036155
  80.2614041 110.1470781  98.7666686  81.8029752 111.1277248  99.8336104
  82.5028803 111.8374631  99.6708094  81.1856345 111.4273780 100.5746896
  82.2545017 110.2644269 100.0999553  83.4179752 109.6517248  93.2806104
  83.0169752 109.6737248  92.1126104  84.5149752 109.0127248  93.6746104
  84.8356220 109.1381221  94.6241158  85.2889752 108.1537248  92.7936104
  85.1168220 108.3877696  91.7430460  86.7969752 108.2687248  93.0826104
  86.9826238 107.9760592  94.1160419  87.5939752 107.3617248  92.1456104
  87.4091862 107.6540984  91.1119414  88.6574657 107.4565769  92.3649083
  87.2844949 106.3267114  92.2907688  87.2449752 109.7207248  92.9546104
  86.6960931 110.3351162  93.6683005  88.3129354 109.7915247  93.1608825
  87.0465755 110.0748873  91.9430239  84.8199752 106.7157248  93.0106104
  84.8899752 106.2087248  94.1366104  84.3499752 106.0737248  91.9356104
  84.3818993 106.5452588  91.0430098  83.7639752 104.7257248  91.9916104
  83.7242461 104.3373144  93.0092833  82.3319752 104.7107248  91.3996104
  82.3849195 104.9993474  90.3498518  81.7049752 103.3237248  91.5146104
  81.6512664 103.0345887  92.5641897  80.7006066 103.3422358  91.0915248
  82.3146994 102.6025314  90.9703512  81.4589752 105.7537248  92.0806104
  81.8913466 106.7432213  91.9321057  80.4577184 105.7270361  91.6506428
  81.4013917 105.5393832  93.1477761  84.6319752 103.7257248  91.2196104
  85.1249752 104.0507248  90.1426104  84.8099752 102.5237248  91.7776104
  84.4580314 102.3720666  92.7120807  85.5189752 101.4227248  91.1136104
  85.8820812 101.7538952  90.1406873  86.7159752 100.9637248  91.9526104
  87.4061246 101.8006813  91.8463243  86.3906992 100.8912307  92.9904159
  87.4259752  99.6577248  91.5446104  86.7007205  98.8444476  91.5708138
  88.0169752  99.7657248  90.1446104  88.7427121 100.5785488  90.1177415
  88.5110587  98.8294583  89.8850195  87.2206012  99.9665493  89.4279806
  88.4979752  99.2827248  92.5576104  88.0399210  99.1409789  93.5364842
  88.9842741  98.3579069  92.2472453  89.2386329 100.0803164  92.6156865
  84.5709752 100.2417248  90.8826104  84.0679752  99.6597248  91.8416104
  84.3439752  99.8947248  89.6156104  84.7201999 100.4812013  88.8844472
  83.5529752  98.7187248  89.2276104  82.8557590  98.4549222  90.0228443
  82.7529752  99.0307248  87.9586104  82.1472963  99.9102946  88.1768058
  83.4661394  99.2680322  87.1691916  81.8369752  97.8777248  87.4946104
  81.7429752  96.8017248  88.1466104  81.2039752  98.0727248  86.4296104
  84.5099752  97.5497248  88.9966104  85.2209752  97.5147248  87.9906104
  84.5269752  96.6047248  89.9366104  83.9336791  96.7094002  90.7472534
  85.3879752  95.4237248  89.8546104  86.3508897  95.6498662  89.3966202
  85.6379752  94.8087248  91.2556104  84.6733568  94.6146450  91.7245919
  86.4279752  93.5087248  91.1626104  87.3929743  93.7021014  90.6941200
  86.5846762  93.1058077  92.1632118  85.8720844  92.7871851  90.5638888
  86.3529752  95.8057248  92.1526104  85.7405551  96.7006909  92.2625167
  86.5209430  95.3584662  93.1323278  87.3109499  96.0740782  91.7072209
  84.7069752  94.4037248  88.9526104  83.6489752  93.8837248  89.3026104
  85.3169752  94.1217248  87.8016104  86.1997301  94.5644750  87.5899140
  84.7559752  93.1887248  86.8226104  85.5414411  92.8820956  86.1318708
  84.3702088  92.3133275  87.3450693  83.6279752  93.8307248  86.0346104
  82.4759752  93.3947248  86.1176104  83.9689752  94.8587248  85.2566104
  84.9494815  95.0623735  85.1253322  82.9789752  95.7897248  84.6846104
  82.1748404  95.9641554  85.3994813  83.6449752  97.1327248  84.3586104
  82.9685215  97.7137645  83.7317910  83.8249071  97.6675989  85.2911522
  84.8729752  96.9437248  83.6786104  85.2675005  97.7977281  83.4872261
  82.1859752  95.2927248  83.4666104  81.1259752  95.8467248  83.1646104
  82.6979752  94.2777248  82.7716104  83.6270767  93.9503765  82.9945744
  81.9659752  93.6097248  81.6886104  82.5835180  92.7872552  81.3276616
  81.0414643  93.2124972  82.1076440  81.6279752  94.5227248  80.5226104
  82.5209752  95.1027248  79.9006104  80.3299752  94.6567248  80.2436104
  79.6596168  94.0919498  80.7453555  79.8349752  95.5707248  79.2166104
  80.4368854  95.4870656  78.3117323  78.3639752  95.2787248  78.8586104
  78.0150308  96.0409924  78.1619856  78.2219752  93.9107248  78.2226104
  78.5703141  93.1478451  78.9188677  77.1749927  93.7293259  77.9796676
  78.8183300  93.8695495  77.3111467  77.5569752  95.3487248  80.0366104
  76.6423086  95.1663506  79.8091791  79.9219752  97.0407248  79.6216104
  79.7309752  97.9217248  78.7786104  80.1839752  97.3027248  80.9016104
  80.3331062  96.5289806  81.5334167  80.2659752  98.6567248  81.4356104
  81.0383324  98.6714737  82.2046006  80.5504953  99.3248750  80.6227617
  78.9589752  99.1407248  82.0386104  78.8639752 100.3037248  82.4016104
  77.9619752  98.2577248  82.1576104  78.1070590  97.3130902  81.8309370
  76.6119752  98.6397248  82.6176104  76.2139703  99.4464493  82.0020726
  75.6209752  97.4337248  82.5986104  75.6052853  97.0233569  81.5889310
  76.0249752  96.3397248  83.5866104  76.0404388  96.7492496  84.5966356
  75.3061761  95.5217774  83.5377160  77.0168278  95.9668677  83.3310615
  74.1719752  97.8737248  82.8996104  73.5529040  96.9803986  82.8170282
  74.1628877  98.2274057  83.9305938  73.6239752  98.9517248  81.9926104
  73.6323164  98.5985767  80.9614379  72.6015994  99.1894384  82.2864456
  74.2423019  99.8455836  82.0750019  76.5849752  99.3297248  83.9866104
  75.9459752 100.3717248  84.1306104  77.2869752  98.7657248  84.9706104
  77.8014559  97.9143675  84.7956827  77.2839752  99.3087248  86.3326104
  76.2643225  99.5710410  86.6147411  77.8239752  98.2907248  87.3406104
  78.8574517  98.1632866  87.0184533  77.8054707  98.7720261  88.3184175
  77.1449752  96.9187248  87.4336104  77.2357872  96.4078910  86.4750162
  77.8089752  96.0787248  88.5226104  77.7181564  96.5887295  89.4816443
  77.3199180  95.1063511  88.5810329  78.8634318  95.9407229  88.2834930
  75.6489752  97.0427248  87.7006104  75.1799316  97.6015436  86.8907839
  75.2062057  96.0484345  87.7592903  75.4897779  97.5669704  88.6429064
  78.0919752 100.6047248  86.4146104  77.7579752 101.4837248  87.2106104
  79.1479752 100.7117248  85.6026104  79.4508979  99.9036328  85.0778965
  79.9109752 101.9547248  85.4656104  80.3054208 102.2433562  86.4398813
  81.0869752 101.7927248  84.4876104  80.7232495 101.3924897  83.5412411
  81.5557949 102.7615926  84.3155540  82.4079752 100.6857248  85.0246104
  83.1653166 100.8375381  83.9418893  79.0359752 103.1027248  84.9786104
  79.1479752 104.2247248  85.4716104  78.1819752 102.8147248  83.9976104
  78.1967171 101.8984246  83.5730212  77.2869752 103.8277248  83.4326104
  77.8352539 104.7568047  83.2767249  76.7219752 103.3607248  82.0866104
  76.2789156 102.3757451  82.2336223  75.9470023 104.0660254  81.7864971
  77.7839752 103.2817248  80.9996104  78.3139066 104.2340641  80.9816267
  78.4778741 102.4854301  81.2689080  77.1079752 102.9497248  79.3646104
  76.4619752 101.2927248  79.6116104  75.7120876 101.3086981  80.4025039
  76.0065736 100.9381622  78.6869508  77.2745490 100.6239854  79.8955341
  76.1589752 104.2307248  84.3916104  75.7459752 105.3917248  84.3926104
  75.6679752 103.2777248  85.1906104  75.9280165 102.3142463  85.0350884
  74.7239752 103.5777248  86.2746104  73.8531464 104.0850124  85.8593808
  74.2519752 102.2987248  86.9956104  75.1438856 101.7037931  87.1922101
  73.7529163 102.5265258  87.9374951  73.3029752 101.4117248  86.2036104
  72.5149752 101.8897248  85.1476104  72.5903159 102.9382162  84.8593580
  71.6439752 101.0427248  84.4696104  71.0518151 101.4262927  83.6387538
  71.5279752  99.7127248  84.8486104  70.8453455  99.0491096  84.3178266
  72.2819752  99.2297248  85.9036104  72.1922495  98.1858635  86.2042815
  73.1519752 100.0737248  86.5786104  73.7343130  99.6968824  87.4194270
  75.3599752 104.5247248  87.3026104  74.7639752 105.5447248  87.6646104
  76.5689752 104.1887248  87.7536104  76.9706709 103.3067474  87.4692587
  77.3089752 105.0117248  88.7156104  76.6959645 105.0801067  89.6142989
  78.6239752 104.3387248  89.0746104  79.2524781 104.2712116  88.1866204
  79.1360813 104.9246169  89.8378784  78.4275719 103.3371139  89.4571030
  77.5639752 106.4467248  88.2186104  77.4589752 107.4037248  88.9916104
  77.8899752 106.5877248  86.9346104  78.0705835 105.7695265  86.3706675
  78.0619752 107.9077248  86.3196104  78.7497738 108.4838485  86.9385723
  78.6559752 107.7767248  84.9256104  77.9743434 107.2098791  84.2914463
  78.8073134 108.7686760  84.4998995  79.6125732 107.2576018  84.9850313
  76.7419752 108.6767248  86.2596104  76.7129752 109.8817248  86.5286104
  75.6619752 107.9807248  85.9056104  75.7650420 107.0326698  85.5729419
  74.3169752 108.5777248  85.9056104  74.3382085 109.5202169  85.3584752
  73.2969752 107.6467248  85.2386104  73.4462086 106.6531825  85.6613426
  72.3060489 108.0111585  85.5094483  73.4139752 107.5757248  83.7256104
  74.4654451 107.4520859  83.4663319  72.8500108 106.7108819  83.3761923
  72.8749752 108.8307248  83.0656104  71.8353642 108.9605721  83.3663554
  73.4615209 109.6822317  83.4105735  72.9559752 108.7407248  81.5556104
  73.9222478 108.3203457  81.2768643  72.1595307 108.0891745  81.1960865
  72.8069752 110.0907248  80.9436104  73.5451353 110.6944987  81.2762911
  72.8632871 110.0126452  79.9382087  71.9114900 110.4802558  81.2014300
  73.8339752 108.9517248  87.3116104  73.0899752 109.9127248  87.4766104
  74.2729752 108.1907248  88.3106104  74.7821217 107.3455310  88.0949332
  73.9669752 108.4767248  89.7096104  72.9025172 108.7092996  89.7402264
  74.2189752 107.2387248  90.5586104  75.2821048 106.9985671  90.5451977
  73.9032184 107.4303669  91.5841206  73.6523153 106.3994585  90.1553389
  74.7239752 109.6817248  90.2976104  74.4669752 110.0477248  91.4456104
  75.6499752 110.2767248  89.5356104  75.9185442 109.8303888  88.6703045
  76.2969752 111.5487248  89.8946104  76.1641486 112.2074705  89.0364086
  75.7383444 111.9421534  90.7438718  77.7769752 111.4967248  90.2556104
  78.3119752 112.4727248  90.7836104  78.4439752 110.3817248  89.9576104
  77.9533655 109.6139073  89.5218837  79.8539752 110.1967248  90.3046104
  79.9791244 110.4793455  91.3498675  80.2469752 108.7347248  90.1456104
  80.1356298 108.4394199  89.1022997  81.2846263 108.6015373  90.4516197
  79.6024799 108.1148535  90.7688958  80.7819752 111.0887248  89.4716104
  80.5669752 111.2757248  88.2766104  81.8019752 111.6367248  90.1296104
  81.8568262 111.4977769  91.1285019  82.8339752 112.4547248  89.4836104
  82.3701613 113.2510654  88.9015302  83.7449752 113.0917248  90.5516104
  83.0975503 113.6799425  91.2019489  84.1797909 112.2695608  91.1200132
  84.8559752 113.9757248  90.0096104  85.5852520 113.3325199  89.5171230
  84.4171727 114.6536173  89.2774792  85.5489752 114.7867248  91.1026104
  85.8603575 115.7402576  90.6760952  84.8316908 114.9646069  91.9038347
  86.7319752 114.1137248  91.6686104  87.5567142 114.1438007  91.0863729
  86.8079752 113.4927248  92.8526104  85.7599752 113.3997248  93.6726104
  84.8751258 113.8061482  93.4043542  85.8561181 112.9233131  94.5579850
  87.9619752 112.9407248  93.2266104  88.7653388 112.9952033  92.6169063
  88.0278397 112.4704617  94.1180212  83.6889752 111.6297248  88.5226104
  84.1069752 112.1207248  87.4756104  83.9529752 110.3857248  88.9056104
  83.4456112 110.0009473  89.6895922  84.9339752 109.5427248  88.2376104
  84.9840223 109.7821354  87.1754065  86.3109752 109.7907248  88.8606104
  86.2368212 110.7457983  89.3806440  86.4589643 108.9922535  89.5876887
  87.4889752 109.8267248  87.9016104  87.6200077 108.8411146  87.4549519
  87.2924461 110.5574007  87.1170143  88.7639752 110.2187248  88.6566104
  88.4575224 110.7871362  89.5347301  89.2487196 109.2952092  88.9732194
  89.7409752 111.0477248  87.8306104  89.1629008 111.6761232  87.1530811
  90.3107784 111.6783618  88.5130476  90.6809752 110.1937248  87.0386104
  90.1532056 109.6095928  86.4058792  91.3069718 110.7836625  86.5092695
  91.2170309 109.6116655  87.6662651  84.5169752 108.0927248  88.4496104
  84.1549752 107.7077248  89.5646104  84.5399752 107.3077248  87.3776104
  84.7575068 107.7053890  86.4750349  84.2289752 105.8817248  87.4496104
  84.2491886 105.5292541  88.4808500  82.8429752 105.5537248  86.8416104
  82.8668778 105.7707298  85.7736981  82.4929752 104.0857248  87.0536104
  82.4684265 103.8680560  88.1213738  81.5153767 103.8782399  86.6184649
  83.2444347 103.4594104  86.5728396  81.7579752 106.4417248  87.4426104
  81.9896695 107.4872821  87.2395596  80.7948243 106.1906358  86.9983198
  81.7130464 106.2826799  88.5200086  85.3149752 105.1127248  86.7046104
  85.6529752 105.4577248  85.5736104  85.8609752 104.0827248  87.3476104
  85.5797927 103.8937654  88.2990988  86.8719752 103.2217248  86.7406104
  87.0274594 103.5019476  85.6987856  88.2159752 103.2927248  87.4986104
  88.0543267 102.9885303  88.5327457  89.2509752 102.3697248  86.8516104
  89.4135078 102.6736061  85.8175215  90.1902651 102.4347833  87.4007941
  88.8874192 101.3424085  86.8750083  88.7439752 104.7337248  87.5326104
  89.2179943 104.9288532  86.5706689  87.8837754 105.3921804  87.6534075
  89.7359752 104.9917248  88.6446104  90.5967243 104.3339137  88.5242129
  90.0646839 106.0302343  88.6052679  89.2625056 104.7972385  89.6069520
  86.3539752 101.7887248  86.7486104  85.9759752 101.2777248  87.7916104
  86.3259752 101.1597248  85.5786104  86.5625097 101.6740139  84.7421551
  85.9669752  99.7517248  85.4466104  85.5663678  99.3830031  86.3908864
  85.2176372  99.6338274  84.6638639  87.1919752  98.9417248  85.0816104
  87.9369752  99.3317248  84.1806104  87.4159752  97.8357248  85.7876104
  86.8540303  97.6533420  86.6067891  88.4669752  96.8807248  85.4416104
  89.0639325  97.2895193  84.6263631  89.3849752  96.5457248  86.6316104
  88.7902701  96.0874477  87.4218055  90.4869752  95.5787248  86.1976104
  91.0824325  96.0365177  85.4077010  91.1277772  95.3513238  87.0495273
  90.0374319  94.6579943  85.8257699  90.0169752  97.8177248  87.2086104
  90.7866543  98.1452716  86.5097485  89.2338072  98.5736515  87.2662480
  90.6329752  97.6207248  88.5846104  91.4166013  96.8652196  88.5276723
  91.0608156  98.5619222  88.9298629  89.8637540  97.2935971  89.2841717
  87.8139752  95.5967248  84.9326104  86.9159752  95.0447248  85.5776104
  88.2789752  95.1277248  83.7776104  89.0298840  95.6223905  83.3176744
  87.7389752  93.9347248  83.1326104  87.3462617  93.2453112  83.8799953
  86.5969752  94.3367248  82.1876104  85.8327946  94.8012215  82.8108037
  87.0105791  95.0801030  81.5061262  85.9759752  93.2027248  81.3846104
  85.1436101  93.5937603  80.7994947  86.7515090  92.8360195  80.7121717
  85.4889752  92.0687248  82.2576104  86.1069752  90.9877248  82.2176104
  84.5079752  92.2807248  82.9996104  88.8529752  93.2467248  82.3576104
  89.4799752  93.8857248  81.5206104  89.0939752  91.9607248  82.6336104
  88.5582785  91.5073749  83.3599727  90.1559752  91.1977248  81.9756104
  91.0026309  91.8510404  81.7647740  90.6339752  90.0507248  82.8766104
  91.3328444  89.4206216  82.3264731  91.1298148  90.4596872  83.7569472
  89.3419752  88.9447248  83.4966104  90.1568416  88.1526417  84.1876209
  89.6949752  90.6627248  80.6186104  90.4659752  90.6367248  79.6586104
  88.4349752  90.2297248  80.5536104  87.8719673  90.2358026  81.3921117
  87.8379752  89.7087248  79.3186104  88.4020543  88.8449385  78.9667763
  86.3919752  89.2767248  79.5766104  86.4021868  88.4540452  80.2915882
  85.8525243  90.1220415  80.0038485  85.7489752  88.8597248  78.3876104
  84.8473518  88.5969492  78.5866684  87.8429752  90.7157248  78.1666104
  87.7739752  91.9287248  78.3796104  87.8819752  90.1877248  76.9456104
  88.0135148  89.1913139  76.8458006  87.8329752  91.0057248  75.7336104
  88.4998437  91.8617947  75.8362258  88.2749752  90.1847248  74.5226104
  88.4555488  90.8565816  73.6835032  89.1955676  89.6552301  74.7680591
  87.2729752  89.2497248  74.1706104  87.5628659  88.7413050  73.4096423
  86.4559752  91.6437248  75.4626104  86.3319752  92.4437248  74.5336104
  85.4369752  91.2917248  76.2566104  85.5090212  90.4397031  76.7941676
  84.1699752  92.0477248  76.3096104  83.6845660  92.1056613  75.3353823
  83.1829752  91.4287248  77.3456104  83.1508633  90.3514037  77.1829807
  83.6079752  91.7137248  78.7856104  83.6398697  92.7909156  78.9491442
  82.8911976  91.2635528  79.4723969  84.5964211  91.2902729  78.9638307
  81.7409752  91.9007248  77.1086104  81.1757659  91.6871327  78.0158135
  81.7740228  92.9781635  76.9469528  81.0699752  91.2347248  75.9286104
  81.0361386  90.1572352  76.0897663  80.0549862  91.6178770  75.8232968
  81.6343974  91.4482644  75.0209054  84.3989752  93.5397248  76.6076104
  83.6229752  94.3887248  76.1756104  85.4689752  93.8377248  77.3456104
  85.9763398  93.0710500  77.7638093  85.9169752  95.2067248  77.6306104
  85.1646611  95.7366828  78.2147912  87.2179752  95.1617248  78.4346104
  87.1177269  94.4213044  79.2282269  88.0337742  94.8743915  77.7712767
  87.4949752  96.4217248  79.0006104  88.3131981  96.3750395  79.5005420
  86.1339752  96.0887248  76.3936104  85.9839752  97.3077248  76.4776104
  86.5079752  95.4727248  75.2706104  86.7380177  94.4897309  75.3006592
  86.6289752  96.1767248  73.9886104  87.3631747  96.9766191  74.0846282
  87.0809752  95.2257248  72.8626104  86.3268091  94.4445472  72.7672466
  87.1194642  95.8072581  71.9415037  88.4489752  94.5857248  73.1196104
  89.1749752  95.0177248  74.0446104  88.7919752  93.6347248  72.3816104
  85.2989752  96.8177248  73.5856104  85.2759752  97.9527248  73.1136104
  84.2029752  96.0857248  73.7816104  84.2948198  95.1223678  74.0707597
  82.8629752  96.5987248  73.4926104  82.8716754  97.1252256  72.5382413
  81.8429752  95.4557248  73.4126104  81.8152581  94.8856466  74.3412340
  80.8734840  95.9252364  73.2460404  82.1569752  94.5297248  72.2636104
  81.8989752  94.9127248  70.9466104  81.4399400  95.8840892  70.7626614
  82.2159752  94.0817248  69.8806104  82.0019463  94.3883565  68.8567596
  82.8129752  92.8587248  70.1256104  83.1309752  92.0277248  69.0726104
  82.8946010  92.3971137  68.2186322  83.0879752  92.4617248  71.4206104
  83.5528289  91.4944913  71.6115843  82.7699752  93.2997248  72.4796104
  83.0003095  92.9981469  73.5014211  82.4279752  97.6527248  74.5016104
  81.7829752  98.6267248  74.1276104  82.7929752  97.4627248  75.7696104
  83.2835073  96.6161423  76.0201613  82.4429752  98.4047248  76.8366104
  81.3554454  98.4732672  76.8626876  82.9289752  97.8897248  78.1796104
  84.0169829  97.8242781  78.1721183  82.6120144  98.5728773  78.9676070
  82.5073417  96.9017571  78.3646624  82.9879752  99.8067248  76.5886104
  82.3029752 100.7887248  76.8706104  84.2089752  99.8897248  76.0586104
  84.7577127  99.0503999  75.9381099  84.8249752 101.1777248  75.7216104
  84.7963673 101.8598956  76.5712714  86.2999752 101.0137248  75.2666104
  86.3393663 100.2459758  74.4938820  86.8659752 102.3227248  74.7136104
  86.8273410 103.0908862  75.4859681  87.9001758 102.1702988  74.4049098
  86.2743177 102.6411243  73.8553186  87.1659752 100.5237248  76.4226104
  86.7950092  99.5602535  76.7721950  88.1964664 100.4147435  76.0845118
  87.1262033 101.2455068  77.2384227  83.9949752 101.8947248  74.6516104
  83.7469752 103.0877248  74.7666104  83.5689752 101.1567248  73.6276104
  83.9142913 100.2131781  73.5247713  82.6649752 101.6837248  72.5966104
  83.0666050 102.6135372  72.1938181  82.5139752 100.6787248  71.4506104
  82.2342041  99.7247805  71.8976201  81.7008683 101.0355161  70.8184261
  83.7659752 100.4957248  70.6096104  83.9397996 101.4052799  70.0346361
  84.6126328 100.3183613  71.2727960  83.6109752  99.3187248  69.6606104
  83.7103854  98.3985664  70.2363926  82.6159890  99.3639441  69.2178271
  84.6559752  99.3417248  68.5596104  84.3461093 100.0531368  67.7941193
  85.6087733  99.6578131  68.9843024  84.8079752  97.9937248  67.9506104
  83.9253084  97.7008277  67.5566430  85.5063396  98.0303434  67.2218811
  85.0955144  97.3344500  68.6596781  81.2759752 102.0547248  73.1306104
  80.6929752 103.0437248  72.6916104  80.7519752 101.2497248  74.0546104
  81.2451259 100.4016350  74.2947052  79.4439752 101.4957248  74.6786104
  78.7049791 101.7067808  73.9056684  78.9759752 100.2787248  75.5236104
  79.8105328  99.9552231  76.1456721  77.7819752 100.6227248  76.4126104
  76.9468139 100.9458923  75.7911855  77.4890150  99.7425997  76.9850219
  78.0570528 101.4254509  77.0967612  78.5939752  99.1207248  74.5986104
  77.5935851  99.3349284  74.2225292  79.3029170  99.1319434  73.7707365
  78.6049752  97.7577248  75.2526104  77.8958876  97.7455914  76.0803467
  78.3217618  97.0008768  74.5211253  79.6052198  97.5426075  75.6285563
  79.4769752 102.7687248  75.5276104  78.5709752 103.5997248  75.4406104
  80.5189752 102.9067248  76.3436104  81.1675987 102.1398864  76.4501274
  80.7119752 104.0987248  77.1706104  79.8596631 104.2964798  77.8206536
  81.9859752 103.9687248  78.0486104  82.7882861 103.5752252  77.4244674
  82.4169752 105.3097248  78.6476104  81.6152972 105.7036536  79.2722970
  83.3119583 105.1668874  79.2531706  82.6310310 106.0149515  77.8445307
  81.7599752 102.9357248  79.1516104  81.5344795 101.9681297  78.7032652
  82.6593841 102.8521550  79.7616755  80.9246114 103.2489467  79.7778373
  80.7559752 105.3617248  76.3006104  80.0809752 106.3497248  76.6086104
  81.5319752 105.3117248  75.2146104  82.0852048 104.4849273  75.0401331
  81.6609752 106.4437248  74.2886104  81.8831229 107.3498092  74.8523130
  82.7879752 106.2077248  73.2766104  83.6537545 105.8434603  73.8296356
  82.4497920 105.4373980  72.5835528  83.1729752 107.4567248  72.4976104
  82.2761720 107.8585701  72.0260544  83.5740164 108.1894095  73.1979255
  84.2079752 107.1547248  71.4366104  85.0776436 106.7004378  71.9113726
  83.7815476 106.4563579  70.7165114  84.6299752 108.4287248  70.7186104
  83.7487705 109.0479165  70.5507403  85.3390496 108.9691703  71.3456920
  85.2669752 108.1087248  69.4126104  84.6099516 107.6083102  68.8312285
  85.5395696 108.9653269  68.9521486  86.0837849 107.5353279  69.5679713
  80.3709752 106.7437248  73.5306104  80.0189752 107.9077248  73.3546104
  79.6769752 105.7027248  73.0776104  80.0375114 104.7665764  73.1948252
  78.4299752 105.8797248  72.3176104  78.6567704 106.5539743  71.4917468
  77.9489752 104.5527248  71.7446104  77.7092329 103.8699566  72.5597492
  77.0591686 104.7196770  71.1375919  78.7338671 104.1176884  71.1259122
  77.3299752 106.5357248  73.1516104  76.4869752 107.2417248  72.6056104
  77.3619752 106.3177248  74.4676104  78.0196587 105.6425657  74.8305320
  76.4129752 106.9367248  75.4016104  75.5165701 107.2629262  74.8742114
  76.0099752 105.9087248  76.4616104  76.8986993 105.5182549  76.9573947
  75.3758727 106.4082707  77.1940501  75.2399752 104.7497248  75.8656104
  74.0569752 104.8787248  75.5586104  75.9079752 103.6207248  75.6766104
  75.4373462 102.8191621  75.2815087  76.8845781 103.5671330  75.9285541
  76.9269752 108.2337248  76.0546104  76.3389752 108.7007248  77.0276104
  78.0009752 108.8107248  75.5036104  78.5009114 108.2857913  74.8003267
  78.5469752 110.1127248  75.9226104  79.4595863 110.3222813  75.3646443
  77.5359752 111.2467248  75.6576104  76.7667801 111.1490295  76.4237003
  78.0820915 112.1779055  75.8084729  76.8829752 111.2587248  74.2816104
  77.6453390 111.4348525  73.5227420  76.4066920 110.2951385  74.1006192
  75.8349752 112.3637248  74.2146104  75.1633981 112.2365671  75.0636770
  76.3531297 113.3187274  74.3017050  75.0299752 112.3397248  72.9236104
  74.7834588 111.3032646  72.6932181  74.1113218 112.9044455  73.0825614
  75.7869752 112.9337248  71.7876104  76.6380492 112.4103239  71.6398799
  75.2212825 112.8995478  70.9515938  76.0151301 113.8942615  72.0007153
  78.9999752 110.1547248  77.3896104  78.8289752 111.1717248  78.0616104
  79.5769752 109.0557248  77.8736104  79.6497674 108.2415461  77.2803872
  80.0229752 108.9427248  79.2706104  79.8248311 109.8729346  79.8031025
  79.2669752 107.8067248  79.9706104  79.4007167 106.9554086  79.3031726
  79.7487216 107.5980349  80.9258429  77.7709752 108.0487248  80.1956104
  77.3221767 108.3797352  79.2590674  77.0849752 106.7737248  80.6636104
  77.5329550 106.4423344  81.6004100  76.0233842 106.9671861  80.8175517
  77.2064691 105.9970015  79.9086001  77.5299752 109.1747248  81.1886104
  77.9741835 110.0952031  80.8097990  76.4578331 109.3178827  81.3232149
  77.9849015 108.9194169  82.1456678  81.5409752 108.7577248  79.4296104
  82.0189752 108.5227248  80.5386104  82.2939752 108.9057248  78.3396104
  81.8484971 109.0572859  77.4459226  83.7499752 108.6857248  78.3656104
  83.9724636 107.8258894  78.9974975  84.3089752 108.4167248  76.9516104
  85.3906182 108.3435924  77.0647449  83.9168543 107.4659936  76.5904297
  83.9769752 109.5147248  75.9516104  82.7819752 109.8497248  75.7926104
  84.9099752 110.0197248  75.2966104  84.5669752 109.7787248  79.0866104
  85.7479752 109.5677248  79.3666104  83.9529752 110.9257248  79.3896104
  83.0591112 111.1425123  78.9723459  84.5939752 111.9467248  80.2396104
  85.6718368 111.9284727  80.0784258  84.0719752 113.3527248  79.9086104
  82.9834701 113.3805361  79.9584339  84.4859807 114.0733887  80.6138360
  84.4509752 113.8277248  78.5376104  83.6099752 113.7147248  77.4486104
  84.2069752 114.2107248  76.3786104  83.7009521 114.2176177  75.4132131
  85.4079752 114.6367248  76.7316104  86.0908035 115.0622641  76.1210683
  85.5859752 114.4077248  78.0766104  86.5216103 114.6912483  78.5585882
  84.4549752 111.6727248  81.7446104  85.1279752 112.3207248  82.5456104
  83.5779752 110.7387248  82.1166104  82.9621526 110.3580257  81.4123874
  83.4179752 110.2797248  83.5046104  84.0389659 110.8466680  84.1981847
  81.9389752 110.3967248  83.9546104  81.3207648 109.8226261  83.2644468
  81.7439752 109.8667248  85.3736104  82.3615610 110.4406744  86.0644581
  80.6960476 109.9636743  85.6574218  82.0349492 108.8170232  85.4131368
  81.4689752 111.8427248  83.8586104  81.5547004 112.1854805  82.8274597
  80.4288664 111.9091919  84.1777582  82.0866169 112.4695327  84.5018300
  83.9049752 108.8337248  83.7016104  84.5679752 108.5367248  84.6966104
  83.5639752 107.9477248  82.7686104  83.0577977 108.2701011  81.9562329
  83.8629752 106.5217248  82.8776104  84.0736383 106.2193920  83.9034345
  82.6899752 105.6677248  82.3416104  82.4993144 105.9480372  81.3056700
  83.0159752 104.1777248  82.4136104  83.2063160 103.8965478  83.4493762
  82.1735139 103.6020068  82.0303244  83.9011430 103.9694780  81.8126005
  81.4049752 105.9727248  83.0996104  81.1537029 107.0266603  82.9805131
  80.5950553 105.3597143  82.7042023  81.5450526 105.7504331  84.1574694
  85.1329752 106.1537248  82.1036104  85.2079752 106.3687248  80.8946104
  86.1119752 105.5927248  82.8156104  86.0167883 105.5744558  83.8209487
  87.3119752 105.0027248  82.2216104  87.3709319 105.2573863  81.1634182
  88.5899752 105.5067248  82.9216104  88.5698578 105.1754647  83.9598600
  89.8559752 104.9657248  82.2356104  89.8770286 105.2969815  81.1973786
  90.7388229 105.3400367  82.7538475  89.8504676 103.8762437  82.2687957
  88.6159752 106.9377248  82.8976104  89.4119490 107.2506555  83.3336156
  87.2459752 103.4807248  82.3616104  86.8639752 102.9607248  83.4126104
  87.6179752 102.7747248  81.3006104  87.8588307 103.2577550  80.4469303
  87.6829752 101.3167248  81.3126104  87.3757084 100.9049816  82.2739396
  86.8199752 100.7007248  80.1896104  87.1753167 101.0708409  79.2279208
  86.9119752  99.1807248  80.2136104  86.5563448  98.8098159  81.1748878
  86.2969552  98.7663250  79.4147838  87.9485643  98.8766106  80.0683626
  85.3559752 101.1707248  80.2796104  85.3840413 102.2603567  80.2835279
  84.8666219 100.8236643  79.3695654  84.5809752 100.6807248  81.4886104
  85.0695006 101.0278066  82.3990922  83.5638315 101.0707605  81.4513286
  84.5520832  99.5911134  81.4851308  89.1399752 100.8997248  81.1216104
  89.8129752 101.3917248  80.2236104  89.6129752  99.9987248  81.9776104
  89.0040155  99.6665982  82.7117489  90.9669752  99.4547248  81.9016104
  91.5089050  99.9155362  81.0757387  91.7349752  99.6907248  83.2136104
  91.1161917  99.3471784  84.0425756  93.0679752  98.9387248  83.2266104
  93.6875314  99.2820879  82.3981464  93.5835197  99.1283137  84.1680830
  92.8835432  97.8694623  83.1228716  91.9839752 101.1847248  83.4006104
  92.8634534 101.4528643  82.8151873  91.1153217 101.7190949  83.0159168
  92.2059752 101.5597248  84.8366104  93.0748048 101.0260634  85.2218902
  92.3779241 102.6335828  84.9098343  91.3266734 101.2922916  85.4226203
  90.8629752  97.9607248  81.6576104  90.2309752  97.2517248  82.4406104
  91.4899752  97.4967248  80.5766104  91.9165714  98.1485645  79.9337885
  91.5409752  96.0807248  80.2566104  90.6243577  95.5967838  80.5938233
  91.6809752  95.8657248  78.7486104  90.9961894  96.5554676  78.2552318
  92.7064249  96.1159303  78.4766726  91.3719752  94.4407248  78.3066104
  92.0100032  93.7574948  78.8671619  90.3267925  94.2269888  78.5302441
  91.6189752  94.2577248  76.8176104  90.9438187  94.9146970  76.2692948
  92.6506017  94.5337016  76.5992458  91.3799752  92.8207248  76.3946104
  92.1394528  92.1899142  76.8565329  90.3933376  92.5140704  76.7418977
  91.4509752  92.6787248  74.9116104  92.3652823  92.9624195  74.5896482
  91.2886974  91.7147589  74.6575718  90.7470239  93.2628420  74.4834064
  92.7059752  95.4317248  81.0046104  93.8669752  95.7687248  80.7676104
  92.3859752  94.5137248  81.9106104  91.4111149  94.3236790  82.0939931
  93.3909752  93.7617248  82.6586104  93.8518940  93.0361160  81.9884276
  94.1496146  94.4573730  83.0172735  92.7929752  93.0277248  83.8456104
  91.6079752  93.1917248  84.1586104  93.6169752  92.2097248  84.4986104
  94.5274551  92.0036413  84.1130519  93.2389752  91.5757248  85.7616104
  92.2133362  91.2144678  85.6863969  94.1509752  90.3927248  86.1026104
  95.1705802  90.7007465  85.8710340  94.0589442  90.2195810  87.1748285
  93.8269752  89.1117248  85.3536104  92.7442548  88.9866597  85.3403435
  94.1934149  89.2098500  84.3317516  94.4709752  87.8947248  86.0096104
  94.5217335  87.0959429  85.2696981  95.4800121  88.1681636  86.3181152
  93.6809752  87.4137248  87.2236104  93.4685644  88.2739542  87.8584235
  92.7438084  86.9803900  86.8742704  94.4369752  86.3967248  88.0036104
  95.3052144  86.7981952  88.3277738  93.8852894  86.1023787  88.7967707
  94.6335292  85.5993501  87.4156824  93.3149752  92.5967248  86.8886104
  94.2669752  93.3697248  86.9676104  92.3319752  92.5617248  87.7806104
  91.5557663  91.9333303  87.6298807  92.2909752  93.4487248  88.9446104
  92.2811395  94.5024921  88.6660841  91.0469752  93.1567248  89.8226104
  90.9871051  92.0809052  89.9873132  91.1259752  93.8727248  91.1666104
  91.1854076  94.9486941  91.0027238  90.2366028  93.6437250  91.7537017
  92.0124688  93.5382914  91.7054844  89.7629752  93.5367248  89.0866104
  89.6866567  92.9584521  88.1658074  88.9029671  93.3233263  89.7213912
  89.7820510  94.5998583  88.8468522  93.5809752  93.3127248  89.7666104
  94.1339752  94.3127248  90.2126104  94.0729752  92.0807248  89.9116104
  93.5721170  91.3069690  89.4986426  95.2579752  91.7867248  90.7286104
  95.2313971  92.3801745  91.6425088  95.2969752  90.2937248  91.1116104
  95.2894912  89.7334286  90.1766712  96.2443638  90.1299529  91.6251605
  94.1449752  89.8167248  92.0016104  94.5379111  89.0185103  92.6313373
  93.8630265  90.6652120  92.6250472  92.9149752  89.3097248  91.2436104
  92.0339752  88.6997248  91.8926104  92.8129752  89.5167248  90.0116104
  96.6079752  92.1887248  90.0936104  97.6479752  92.0407248  90.7386104
  96.5929752  92.6677248  88.8446104  95.7119172  92.6921533  88.3514175
  97.8069752  93.0957248  88.1276104  98.6852970  92.9693551  88.7606039
  97.9829752  92.2407248  86.8706104  97.1105215  92.4041306  86.2379792
  98.8760233  92.5946879  86.3555617  98.1239752  90.7517248  87.1666104
  99.0156002  90.6358274  87.7827869  97.2469359  90.4440573  87.7360328
  98.2509752  89.8837248  85.9226104  97.9129752  90.3417248  84.8056104
  98.6869752  88.7207248  86.0656104  97.8489752  94.5787248  87.7336104
  98.9389752  95.1257248  87.5696104  96.6939752  95.2267248  87.5736104
  95.8183642  94.7511453  87.7386220  96.6529752  96.6137248  87.0706104
  97.4496740  96.8390311  86.3616624  95.2889752  96.9997248  86.4256104
  95.3427039  98.0335735  86.0844810  94.9679752  96.0907248  85.2436104
  94.9136221  95.0566858  85.5840660  94.0106104  96.3810127  84.8108450
  95.7499736  96.1839532  84.4900265  94.1509752  97.0397248  87.4506104
  94.3803048  97.7766527  88.2203164  93.2213512  97.3135064  86.9516692
  94.0404879  96.0575128  87.9101243  96.9869752  97.6707248  88.1236104
  96.7919752  97.4657248  89.3226104  97.4809752  98.8047248  87.6336104
  97.7706768  98.8215146  86.6661961  97.6319752 100.0187248  88.4196104
  97.6818208  99.7707073  89.4798471  98.9199752 100.7487248  88.0266104
  99.7297982 100.0201917  88.0656705  98.7946339 101.0972627  87.0014709
  99.2559752 101.9277248  88.9246104  98.4451782 102.6487595  88.8206012
  99.2896978 101.5653840  89.9520690 100.5789752 102.5987248  88.5796104
 101.2939752 102.9897248  89.5256104 100.9039752 102.7467248  87.3786104
  96.4109752 100.8977248  88.1366104  96.0869752 101.1457248  86.9676104
  95.7249752 101.3417248  89.1926104  96.0053611 101.0730853  90.1249815
  94.5589752 102.2237248  89.0426104  93.9532467 101.8724660  88.2072606
  93.6879752 102.2467248  90.3036104  94.3974130 101.9305679  91.0683601
  93.4712756 103.3079070  90.4262222  92.3989752 101.4457248  90.4446104
  92.6216773 100.3949002  90.6297383  91.6319752 102.0167248  91.6266104
  91.4084932 103.0674736  91.4419988  90.7008680 101.4652011  91.7568473
  92.2358889 101.9274564  92.5296164  91.5059752 101.4847248  89.2216104
  92.0433359 101.0766526  88.3655613  90.6111498 100.8900591  89.4053532
  91.2199645 102.5155653  89.0126495  95.0019752 103.6607248  88.7656104
  95.9709752 104.1207248  89.3636104  94.2689752 104.3877248  87.8966104
  93.3499752 103.8187248  86.8956104  92.5041675 103.3641905  87.4114671
  93.8790406 103.0559387  86.3243432  92.9459752 104.9927248  86.0476104
  91.8892251 104.9082963  85.7941345  93.5390856 104.9986561  85.1331235
  93.2129752 106.2047248  86.8596104  92.3764547 106.4361776  87.5189752
  93.4351904 107.0716819  86.2374325  94.4419752 105.8297248  87.6906104
  95.3802385 105.9566985  87.1505753  94.4719752 106.6687248  88.9656104
  95.1009752 107.7237248  88.9746104  93.7759752 106.2087248  90.0066104
  93.1653385 105.4170901  89.8633041  93.7839752 106.8507248  91.3246104
  94.4668559 107.6999032  91.3504784  92.3689752 107.3397248  91.7326104
  92.4155881 107.7781823  92.7294461  91.8699752 108.3807248  90.7446104
  91.8226508 107.9428385  89.7475563  90.8762596 108.7166645  91.0408775
  92.5525506 109.2304966  90.7356458  91.3649752 106.1957248  91.8306104
  91.7021189 105.4788724  92.5793152  90.3907031 106.5903653  92.1189719
  91.2835843 105.6992196  90.8636776  94.3639752 105.9247248  92.4006104
  94.3829752 104.6977248  92.2426104  94.8319752 106.5247248  93.4926104
  94.8462861 107.5334517  93.5412360  95.3579752 105.7687248  94.6276104
  95.9894263 104.9583383  94.2634093  96.1889752 106.6597248  95.5436104
  95.5501405 107.4839791  95.8607763  96.4677301 106.0620415  96.4114643
  97.4319752 107.2097248  94.8926104  97.9459048 106.4051291  94.3666798
  97.1169900 107.9683718  94.1761342  98.3659752 107.8277248  95.8996104
  98.4599752 109.0657248  95.9406104  98.9929752 107.0687248  96.6666104
  94.2499752 105.1377248  95.4526104  94.4089752 104.0187248  95.9296104
  93.1549752 105.8767248  95.6476104  93.1156977 106.7989746  95.2377178
  92.0229752 105.4307248  96.4646104  92.0903043 104.3552030  96.6283755
  92.0239752 106.1357248  97.8286104  91.9392236 107.2031815  97.6250113
  91.1317764 105.7945571  98.3536685  93.2529752 105.8797248  98.6956104
  94.1364611 106.1234739  98.1055765  93.1987497 106.5431777  99.5587395
  93.3429752 104.4327248  99.1716104  92.4680994 104.2191310  99.7856699
  93.3391015 103.7833292  98.2961849  94.6059752 104.1817248  99.9836104
  95.4443371 104.6659261  99.4828120  94.4753201 104.6162436 100.9746814
  94.8809752 102.7217248 100.1136104  95.0025019 102.3189794  99.1953908
  95.7222158 102.5845481 100.6554562  94.1044378 102.2729342 100.5780194
  90.6859752 105.6807248  95.7786104  90.5709752 106.5547248  94.9176104
  89.6819752 104.9067248  96.1826104  89.8813583 104.1263914  96.7920574
  88.3139752 105.0787248  95.7036104  88.1779417 106.0339364  95.1964962
  87.8849752 103.9407248  94.7406104  86.8551965 104.1096529  94.4257799
  88.7919752 103.9137248  93.5166104  89.8219321 103.7443641  93.8306276
  88.4792398 103.1103099  92.8496610  88.7245287 104.8671602  92.9926701
  87.8729752 102.5777248  95.4266104  87.1718993 102.5965085  96.2610214
  87.5664531 101.8135706  94.7123190  88.8719905 102.3481041  95.7972094
  87.3499752 105.1987248  96.8876104  87.5779752 104.6207248  97.9546104
  86.2829752 105.9657248  96.6866104  86.1753562 106.4327928  95.7975857
  85.2689752 106.1947248  97.7186104  85.7438755 106.2501544  98.6981493
  84.5309752 107.5077248  97.4586104  84.0575019 107.4293066  96.4799517
  83.7641371 107.6252280  98.2242816  85.4559752 108.7147248  97.4786104
  86.1049752 108.9547248  98.5196104  85.5269752 109.4277248  96.4566104
  84.2629752 105.0447248  97.7696104  83.8039752 104.6697248  98.8456104
  83.9129752 104.5117248  96.5986104  84.3229383 104.8870873  95.7553236
  82.9329752 103.4317248  96.4726104  82.7213697 102.9719117  97.4379571
  81.6119752 103.9477248  95.8456104  81.8400325 104.4101992  94.8852940
  80.6149752 102.8067248  95.6376104  80.3860602 102.3440281  96.5976158
  79.6989172 103.1998326  95.1966970  81.0483907 102.0619827  94.9700706
  80.9969752 105.0547248  96.7176104  80.6473967 104.5828763  97.6358994
  81.7952041 105.7587914  96.9526007  79.8509752 105.7927248  96.0626104
  79.0521133 105.0893393  95.8277310  79.4737183 106.5562639  96.7428931
  80.1999206 106.2652527  95.1444305  83.5139752 102.3047248  95.6136104
  84.2209752 102.5637248  94.6376104  83.2369752 101.0617248  96.0046104
  82.8548211 100.9129087  96.9276008  83.4869752  99.8917248  95.1596104
  83.9333967 100.2167088  94.2198272  84.4139752  98.8557248  95.8396104
  84.0799772  98.7109279  96.8670244  84.3829752  97.5157248  95.0996104
  84.7173094  97.6596450  94.0721824  85.0437394  96.8081392  95.6004238
  83.3657761  97.1240564  95.0986508  85.8489752  99.3857248  95.8826104
  86.1924776  99.4623033  94.8509890  85.8091626 100.3804322  96.3265378
  86.8109752  98.5177248  96.6726104  86.8516745  97.5229251  96.2289697
  87.8048416  98.9648575  96.6525779  86.4683579  98.4410522  97.7045186
  82.1429752  99.2477248  94.8416104  81.3629752  98.9777248  95.7456104
  81.8869752  99.0027248  93.5586104  82.4861659  99.4045192  92.8517645
  80.7039752  98.2607248  93.1246104  80.1719637  97.8601439  93.9875113
  79.7389752  99.1297248  92.2816104  78.8332854  98.5601647  92.0732175
  79.3759752 100.4007248  93.0446104  80.2811700 100.9710822  93.2529742
  78.6969071 101.0048720  92.4429682  78.8902344 100.1352330  93.9835828
  80.3359752  99.4877248  90.9116104  81.3230510  99.9135936  91.0916602
  80.4385371  98.5579954  90.3519821  79.4999752 100.4697248  90.1116104
  79.3973559 101.3999313  90.6704350  79.9884389 100.6712067  89.1582440
  78.5128405 100.0443335  89.9307589  81.1479752  97.0017248  92.3776104
  82.1359752  97.0187248  91.6476104  80.4379752  95.9007248  92.5876104
  79.6512963  95.9054842  93.2210241  80.7929752  94.6487248  91.9386104
  81.0134084  94.8332211  90.8871973  82.0269752  94.0187248  92.5946104
  82.8148824  94.7694690  92.6553106  81.7616252  93.6892215  93.5991585
  82.4889752  92.9077248  91.8386104  83.2605946  92.5286343  92.2658033
  79.6519752  93.6567248  91.9896104  79.0419752  93.4377248  93.0396104
  79.3599752  93.0737248  90.8396104  79.6524004  93.4930357  89.9685391
  78.5529752  91.8777248  90.7866104  78.0115574  91.7585487  91.7251002
  77.5429752  91.9577248  89.6486104  77.1612244  92.9783353  89.6217838
  78.0769966  91.7456431  88.7223585  76.3849752  90.9887248  89.7976104
  76.0815788  90.9282829  90.8427890  75.5643047  91.3919856  89.2043316
  76.7379752  89.6087248  89.2956104  76.4119752  89.3047248  88.1216104
  77.3769752  88.8467248  90.0626104  79.5399752  90.7197248  90.6566104
  80.0459752  90.4337248  89.5726104  79.7989752  90.0827248  91.7956104
  79.2600590  90.3516162  92.6063916  80.8379752  89.0547248  91.9586104
  81.4245675  88.9739176  91.0434717  81.7849752  89.4237248  93.1206104
  82.4922015  88.6230249  93.3369668  82.3314511  90.3272297  92.8501609
  81.0679752  89.7237248  94.4076104  80.6929752  90.9507248  94.8546104
  80.9539585  91.8006744  94.2240763  80.0389752  90.8427248  96.0556104
  79.6726346  91.6119022  96.5980679  79.9699752  89.5207248  96.4036104
  79.4049752  88.9107248  97.5316104  78.9267397  89.5420040  98.2805270
  79.4909752  87.5447248  97.6216104  79.0655440  87.0351310  98.4861463
  80.1159752  86.7837248  96.6236104  80.1764385  85.6983149  96.7031654
  80.6769752  87.3887248  95.5036104  81.1543518  86.7519155  94.7588377
  80.6089752  88.7827248  95.3846104  80.2669752  87.6597248  92.2156104
  81.0239752  86.6917248  92.2826104  78.9489752  87.5527248  92.3686104
  78.3517819  88.3436350  92.1738785  78.3339752  86.3277248  92.8586104
  78.9448353  85.9022775  93.6548163  76.9389752  86.6097248  93.4116104
  76.3486992  87.0415386  92.6033961  76.5056530  85.6541236  93.7068361
  76.9369752  87.5567248  94.6026104  76.0002442  87.4043933  95.1387363
  77.7720814  87.2755152  95.2441873  77.0899752  89.2977248  94.1596104
  75.5119752  89.5577248  93.3466104  74.7031539  89.3499525  94.0471372
  75.4427202  90.5917401  93.0087989  75.4299578  88.8896702  92.4892438
  78.2489752  85.2817248  91.7566104  77.8699752  85.5837248  90.6246104
  78.6229752  84.0537248  92.0966104  79.0512616  83.8999481  92.9982882
  78.4389752  82.9057248  91.2126104  78.1916406  83.2627066  90.2128661
  79.3661491  82.3338823  91.1746082  77.3259752  82.0067248  91.7036104
  76.6449752  82.3107248  92.6886104  77.1509752  80.8877248  91.0086104
  77.6685269  80.7463101  90.1528993  76.2189752  79.8477248  91.4336104
  75.2089312  80.2555912  91.4730466  76.2329752  78.6727248  90.4586104
  77.2307384  78.2368455  90.5093764  75.5032353  77.9527120  90.8289634
  75.9099752  79.0247248  89.0256104  74.7639752  79.7477248  88.7016104
  74.0931808  80.0617791  89.5013004  74.4709752  80.0687248  87.3846104
  73.5698142  80.6325119  87.1434573  75.3329752  79.6697248  86.3706104
  75.0529752  79.9877248  85.0636104  74.2385590  80.4863404  84.9650795
  76.4749752  78.9507248  86.6646104  77.1505998  78.6342576  85.8699530
  76.7589752  78.6317248  87.9846104  77.6576926  78.0645835  88.2270111
  76.6349752  79.3717248  92.8266104  77.8289752  79.1937248  93.0926104
  75.6569752  79.2117248  93.7176104  74.7059315  79.4020337  93.4358346
  75.9109752  78.8707248  95.1196104  74.9757486  78.8642540  95.6794394
  76.5459752  77.4767248  95.2096104  76.1723408  76.8400563  94.4076442
  77.6310184  77.5516540  95.1377285  76.2059752  76.5957248  96.7476104
  76.8953863  75.5017340  96.4364918  76.7709752  79.9397248  95.8246104
  77.5279752  79.6287248  96.7456104  76.6369752  81.1927248  95.3686104
  76.0746041  81.2870969  94.5349846  77.3429752  82.3947248  95.8816104
  76.9245127  83.2821353  95.4067516  77.2019752  82.5407248  97.4086104
  76.1309357  82.4065257  97.5601494  77.7409832  81.7197847  97.8815035
  77.6449752  83.8727248  98.0356104  78.7309821  83.9364922  97.9676125
  77.0209752  85.0717248  97.3316104  75.9349138  85.0088941  97.3995929
  77.3617242  85.9911126  97.8077583  77.3193549  85.0739364  96.2832473
  77.3199752  83.8957248  99.5266104  77.8417887  83.0790046 100.0253872
  77.6403503  84.8457813  99.9542244  76.2453416  83.7788377  99.6666065
  78.8129752  82.5267248  95.4796104  79.2299752  83.5587248  94.9496104
  79.5839752  81.4777248  95.7226104  79.1527593  80.6028436  95.9847842
  81.0389752  81.5517248  95.7016104  81.3764979  82.5876999  95.6710614
  81.5679752  80.9017248  96.9856104  81.1519989  79.8986848  97.0803404
  82.6562446  80.8429840  96.9677408  81.1969752  81.6427248  98.2436104
  81.5179752  82.9857248  98.4016104  82.0395230  83.5050679  97.5976387
  81.1829752  83.6657248  99.5646104  81.4375423  84.7197419  99.6757148
  80.5239752  83.0017248 100.5846104  80.2579473  83.5326220 101.4986548
  80.2029752  81.6637248 100.4436104  79.6851795  81.1390306 101.2465324
  80.5389752  80.9927248  99.2846104  80.2892573  79.9375110  99.1738635
  81.7099752  80.9167248  94.4766104  82.9239752  81.0547248  94.3166104
  80.9499752  80.2307248  93.6166104  79.9688325  80.0754231  93.7992022
  81.5359752  79.6347248  92.4106104  82.3383604  78.9562305  92.7003045
  80.4989752  78.8497248  91.6046104  79.9953913  78.1734974  92.2954208
  79.7794507  79.5669895  91.2097486  81.0959752  78.0517248  90.4616104
  81.8969752  76.9387248  90.7116104  82.0876371  76.6494392  91.7450810
  82.4469752  76.2047248  89.6746104  83.0702515  75.3364992  89.8886499
  82.2019752  76.5727248  88.3676104  82.7589752  75.8327248  87.3486104
  83.2889059  75.0975401  87.6652752  81.4109752  77.6707248  88.0876104
  81.2147847  77.9601275  87.0552075  80.8649752  78.4067248  89.1306104
  80.2447139  79.2772385  88.9171112  82.1549752  80.7387248  91.5566104
  81.6349752  81.8537248  91.5226104  83.2719752  80.4067248  90.8996104
  83.5472844  79.4374648  90.9691763  84.1849752  81.3497248  90.2056104
  84.8191389  80.7716916  89.5334398  83.4609752  82.4367248  89.3866104
  83.0191350  83.1171132  90.1145857  84.2373773  82.9584096  88.8270169
  82.3819752  81.9507248  88.4256104  82.8556942  81.3123508  87.6798424
  81.6593517  81.3673647  88.9962289  81.6689752  83.0997248  87.7296104
  82.3679752  83.9957248  87.2016104  80.4139752  83.1127248  87.7066104
  85.2139752  82.0127248  91.1386104  86.2509752  82.4767248  90.6646104
  84.9229752  82.0657248  92.4416104  84.0126632  81.7339932  92.7268918
  85.7839752  82.6817248  93.4506104  85.2555013  82.7299196  94.4027090
  87.0739752  81.8627248  93.6446104  87.6308765  81.8595465  92.7076205
  87.6746914  82.3346760  94.4221078  86.7769752  80.5297248  94.0216104
  87.5946085  80.0399413  94.1364488  86.0979752  84.1487248  93.1646104
  87.2149752  84.6137248  93.4086104  85.1069752  84.8837248  92.6666104
  84.2222698  84.4559190  92.4334198  85.2979752  86.3007248  92.3496104
  86.2992201  86.4482931  91.9448494  84.2799752  86.7837248  91.3206104
  84.1534748  85.9917183  90.5824894  83.3363200  86.9493413  91.8404046
  84.7039752  88.0637248  90.6216104  84.8610321  88.8218974  91.3888185
  85.6458909  87.8639614  90.1107372  83.5049752  88.6677248  89.4326104
  83.8679752  90.4237248  89.4916104  84.9047366  90.5909613  89.1996228
  83.2077573  90.9549829  88.8060611  83.7122848  90.7936022  90.5050464
  85.2619752  87.2067248  93.5856104  85.7949752  88.3127248  93.5336104
  84.6579752  86.7647248  94.6896104  84.1220628  85.9086309  94.6889989
  84.6959752  87.5607248  95.9216104  84.2177765  88.5220770  95.7339219
  83.9739752  86.8737248  97.0846104  82.9635478  86.7338772  96.7004513
  84.4286885  85.9010143  97.2721476  83.9169752  87.6747248  98.3976104
  84.9344556  87.7953234  98.7694847  83.2829752  89.0477248  98.1976104
  82.2652462  88.9279248  97.8261614  83.2618797  89.5807081  99.1481810
  83.8681435  89.6169867  97.4753782  83.1859752  86.8997248  99.4786104
  83.7046562  85.9595735  99.6661870  83.1607233  87.4892865 100.3950604
  82.1668165  86.6929395  99.1520309  86.1359752  87.8757248  96.3156104
  86.4289752  89.0067248  96.6966104  87.0249752  86.8897248  96.1796104
  86.6945254  85.9649822  95.9434890  88.4689752  87.0767248  96.4186104
  88.6426240  87.2298606  97.4837370  89.2769752  85.8467248  95.9596104
  89.1327244  85.7117375  94.8876639  90.3312465  86.0344332  96.1630253
  88.8639752  84.5627248  96.6726104  87.6769752  84.2727248  96.8006104
  89.8449752  83.7877248  97.1326104  89.6219551  82.9270742  97.6118206
  90.8072709  84.0643401  97.0000518  89.0209752  88.3287248  95.7236104
  89.8379752  89.0537248  96.2986104  88.5739752  88.5697248  94.4916104
  87.9603519  87.8970544  94.0544830  89.0009752  89.7317248  93.7086104
  90.0875440  89.8121054  93.7403336  88.5579752  89.6067248  92.2336104
  87.4705829  89.5372550  92.2044179  89.0119752  90.8047248  91.4106104
  90.0993651  90.8745799  91.4389498  88.6830104  90.6828946  90.3786033
  88.5789997  91.7154834  91.8243151  89.1299752  88.4227248  91.6756104
  88.8590838  88.3380215  90.7585262  88.4959752  91.0497248  94.2946104
  89.2419752  92.0267248  94.3366104  87.2419752  91.0657248  94.7456104
  86.6521202  90.2588443  94.6003028  86.6579752  92.2477248  95.3936104
  86.7822927  93.1390497  94.7786436  85.1499752  92.0597248  95.6936104
  85.0255594  91.1653740  96.3041483  84.5789752  93.2667248  96.4366104
  84.7026186  94.1614452  95.8264559  83.5190575  93.1050808  96.6329421
  85.1073621  93.3958611  97.3811911  84.3699752  91.8167248  94.4046104
  84.7463011  90.9182592  93.9154881  83.3131026  91.6872801  94.6377711
  84.4926242  92.6708277  93.7386027  87.4199752  92.5737248  96.6866104
  87.6979752  93.7437248  96.9656104  87.7649752  91.5367248  97.4506104
  87.4623877  90.6099826  97.1866235  88.5059752  91.6947248  98.7056104
  87.9988590  92.4238668  99.3374997  88.5969752  90.3637248  99.4676104
  89.1701606  89.7508331  98.7719657  89.1840843  90.5336839 100.3701163
  87.2919752  89.6377248  99.8346104  86.8429766  89.2390569  98.9249044
  87.5629752  88.4997248 100.8066104  88.0115826  88.8976985 101.7168121
  86.6258654  88.0002111 101.0523992  88.2459702  87.7845447 100.3482047
  86.2449752  90.5927248 100.3986104  86.0117686  91.3563660  99.6566089
  85.3400321  90.0368407 100.6439106  86.6338268  91.0684256 101.2989449
  89.9069752  92.2617248  98.4856104  90.3539752  93.1147248  99.2496104
  90.5949752  91.7817248  97.4516104  90.2486406  90.9710143  96.9587614
  91.8819752  92.3537248  97.0336104  92.6051279  92.2652282  97.8443618
  92.4309752  91.6097248  95.8006104  92.6336609  90.5889853  96.1248150
  91.6375319  91.6022425  95.0532874  93.6889752  92.2077248  95.1966104
  93.6159752  93.2757248  94.2986104  92.6351206  93.6703838  94.0335294
  94.7589752  93.8327248  93.7476104  94.6844402  94.6729480  93.0572690
  96.0019752  93.3157248  94.0786104  97.1269752  93.8747248  93.5216104
  96.9295455  94.6039434  92.9292749  96.1039752  92.2497248  94.9596104
  97.0803969  91.8406486  95.2191443  94.9519752  91.7027248  95.5126104
  95.0250519  90.8648808  96.2059915  91.7329752  93.8507248  96.7396104
  92.5209752  94.6607248  97.2256104  90.7219752  94.1947248  95.9446104
  90.1451875  93.4632932  95.5541964  90.4469752  95.5827248  95.5516104
  91.3579360  95.9839368  95.1074499  89.3399752  95.6157248  94.5056104
  88.4188036  95.2254232  94.9382853  89.1799847  96.6427602  94.1774312
  89.6279301  95.0026363  93.6516176  90.0729752  96.4817248  96.7376104
  90.4309752  97.6627248  96.7666104  89.3409752  95.9157248  97.6946104
  88.9917614  94.9793859  97.5482598  88.9869752  96.6017248  98.9376104
  88.4435248  97.5210874  98.7195892  88.0899752  95.6917248  99.7906104
  87.1897020  95.5187166  99.2009703  88.6344977  94.7544277  99.9049323
  87.7019752  96.2247248 101.1656104  88.5678274  96.7149672 101.6106533
  86.8956658  96.9487267 101.0481867  87.2389752  95.0927248 102.0716104
  86.8316810  95.5207031 102.9876044  86.4610350  94.5279773 101.5578315
  88.3279752  94.1777248 102.4246104  89.2614811  94.4829263 102.1889872
  88.1759752  92.9887248 103.0176104  86.9689752  92.5297248 103.3596104
  86.1479416  93.0864781 103.1697960  86.8829508  91.6280353 103.8064386
  89.2479752  92.2487248 103.2806104  90.1659013  92.5885865 103.0316009
  89.1398740  91.3498423 103.7282969  90.2349752  96.9887248  99.7246104
  90.4159752  98.1497248 100.0806104  91.0839752  95.9997248  99.9906104
  90.8660997  95.0659908  99.6731669  92.2969752  96.1967248 100.7896104
  92.0370013  96.6401438 101.7508036  93.0019752  94.8537248 101.0426104
  93.2099634  94.3984643 100.0743242  93.9414149  95.0664060 101.5528259
  92.1659752  93.8877248 101.8926104  91.0919752  94.2787248 102.4036104
  92.5819752  92.7227248 102.0516104  93.2679752  97.1827248 100.1326104
  93.8619752  98.0187248 100.8146104  93.3999752  97.0957248  98.8096104
  92.8625412  96.4062030  98.3038202  94.3509752  97.9197248  98.0616104
  95.2917377  97.9872793  98.6079634  94.6269752  97.3017248  96.6846104
  94.6876513  96.2222388  96.8229135  93.7738252  97.5386759  96.0489303
  95.9039752  97.8007248  96.0256104  95.7796060  98.8571535  95.7877207
  96.7258813  97.6821321  96.7316615  96.2139752  97.0277248  94.7526104
  95.9206269  95.9903737  94.9136959  95.6126865  97.4543180  93.9497596
  97.6869752  97.0847248  94.3686104  98.2436981  96.4961807  95.0978403
  97.7911365  96.6329216  93.3821402  98.2229752  98.4697248  94.3376104
  98.1269450  98.8884061  95.2517132  99.1988883  98.4472980  94.0783987
  97.7075196  99.0151353  93.6616430  93.8809752  99.3647248  97.8936104
  94.6409752 100.2877248  98.1636104  92.6319752  99.5457248  97.4616104
  92.0101652  98.7513448  97.4124973  92.1379752 100.8497248  96.9866104
  92.9347794 101.5922616  97.0295232  91.6629752 100.7247248  95.5356104
  90.9063934  99.9410048  95.4973204  91.2341666 101.6607705  95.1777814
  92.7229752 100.3417248  94.5616104  93.9039752 100.9887248  94.3256104
  94.1068485 101.8750150  94.9268025  94.6069752 100.3477248  93.3356104
  95.5102689 100.6253838  92.9791478  93.8809752  99.2697248  92.9076104
  94.1729752  98.3187248  91.9266104  95.1140257  98.4028577  91.3830625
  93.2509752  97.3347248  91.7096104  93.4478154  96.5723805  90.9558298
  92.0479752  97.2797248  92.4376104  91.3173027  96.4920414  92.2538385
  91.7559752  98.2247248  93.4096104  90.8172885  98.1322057  93.9558779
  92.6829752  99.2417248  93.6556104  91.0069752 101.5127248  97.7896104
  90.7649752 102.7047248  97.5946104  90.2989752 100.7827248  98.6526104
  90.4889519  99.8023161  98.8036305  89.1579752 101.3857248  99.3506104
  88.5684032 101.9563104  98.6330200  88.2529752 100.3387248 100.0046104
  88.0998115  99.6069831  99.2113928  88.7941563  99.8730605 100.8282486
  86.8939752 100.8407248 100.5056104  87.0753766 101.5838795 101.2820867
  86.0549752 101.4627248  99.3926104  85.8727569 100.7199842  98.6159304
  85.1029071 101.8018467  99.8008546  86.5892401 102.3111756  98.9650678
  86.1319752  99.7067248 101.1716104  86.7073006  99.3288157 102.0167642
  85.1680155 100.0737480 101.5239978  85.9733698  98.9032132 100.4523661
  89.6409752 102.3897248 100.3916104  90.4899752 102.0727248 101.2226104
  89.1029752 103.6057248 100.3226104  88.4885707 103.8343084  99.5542642
  89.4069752 104.6477248 101.2996104  90.4869759 104.7707220 101.3806625
  88.7969752 105.9747248 100.8616104  87.7147449 105.8699580 100.7847889
  89.0357812 106.7447136 101.5952241  89.2037077 106.2594839  99.8912598
  88.8839752 104.2527248 102.6856104  88.0259752 103.3667248 102.7956104
  89.4069752 104.8907248 103.7536104  90.6049752 105.7487248 103.8396104
  90.3632300 106.7477073 103.4767144  91.4010693 105.3234914 103.2284559
  90.9359752 105.7317248 105.3026104  91.4222693 106.6661664 105.5826747
  91.6014046 104.8966171 105.5214717  89.6289752 105.5677248 106.0006104
  89.1735756 106.5551372 106.0762862  89.6857206 105.1174324 106.9916282
  88.7939752 104.6777248 105.0676104  88.8561122 103.6194973 105.3213659
  87.3239752 105.1127248 105.0496104  86.9969752 106.1567248 104.4756104
  86.4529752 104.2887248 105.6266104  86.7904143 103.4141029 106.0024705
  85.0019752 104.5327248 105.6226104  84.4788736 103.6712925 106.0378193
  84.6689752 105.7677248 106.4756104  85.0979506 106.6437375 105.9891116
  83.5839602 105.8662757 106.5092278  85.2139752 105.6577248 107.8976104
  84.8569752 104.6837248 108.6006104  85.9989752 106.5357248 108.3106104
  84.3849752 104.6377248 104.2086104  83.3749752 105.3187248 104.0126104
  84.9849752 103.9427248 103.2396104  85.8501125 103.4628021 103.4428615
  84.4409752 103.8457248 101.8896104  84.0281940 104.8101427 101.5936225
  85.2339319 103.5626133 101.1973916  83.3409752 102.7997248 101.8356104
  83.2869752 101.9017248 102.6796104  82.4699752 102.9147248 100.8356104
  82.5922446 103.6574918 100.1622259  81.3099752 102.0317248 100.6926104
  81.0786327 101.5592924 101.6472765  80.0919752 102.8417248 100.2396104
  80.3056174 103.0506469  99.1913701  79.2141726 102.1993734 100.3099479
  79.8229752 104.1537248 100.9756104  80.6713430 104.8248243 100.8414522
  78.5679752 104.8057248 100.4166104  77.7190342 104.1353652 100.5508339
  78.3784730 105.7410838 100.9431968  78.7056017 105.0087187  99.3545592
  79.6999752 103.9207248 102.4706104  80.6271544 103.4905813 102.8493119
  79.5086860 104.8693755 102.9721795  78.8756421 103.2346777 102.6653239
  81.5719752 100.9007248  99.6986104  82.3409752 101.0697248  98.7536104
  80.9259752  99.7557248  99.9266104  80.4318338  99.6470852 100.8007506
  80.9459752  98.6237248  98.9936104  81.4379052  98.9356477  98.0723025
  81.6819752  97.3947248  99.5806104  81.1244823  97.0376133 100.4465050
  81.7979752  96.2687248  98.5486104  82.3557862  96.6249662  97.6825621
  82.3195875  95.4207446  98.9924019  80.8012144  95.9580739  98.2354601
  83.0919752  97.7887248 100.0436104  83.6265019  98.1419265  99.1617768
  82.9740791  98.6106116 100.7497988  83.8799752  96.6697248 100.6976104
  83.9986864  95.8476106  99.9918230  84.8620345  97.0400145 100.9917948
  83.3462620  96.3162940 101.5798443  79.4959752  98.2837248  98.6416104
  78.6399752  98.2437248  99.5256104  79.2309752  98.0627248  97.3506104
  80.0007875  98.0788329  96.6969829  77.8889752  97.7647248  96.8376104
  77.1840721  97.6943216  97.6660150  77.4199752  98.8717248  95.8886104
  78.2146119  99.1824139  95.2102859  76.5821178  98.4810407  95.3111496
  76.9269752 100.1177248  96.5736104  77.8049752 100.9487248  97.2656104
  78.8592167 100.6776080  97.3219174  77.3539752 102.1067248  97.8776104
  78.0513300 102.7427780  98.4228015  76.0179752 102.4557248  97.7966104
  75.6595349 103.3638119  98.2813765  75.1359752 101.6497248  97.0986104
  74.0836335 101.9254510  97.0304039  75.5899752 100.4927248  96.4866104
  74.8968345  99.8634703  95.9283142  77.9319752  96.4547248  96.0436104
  78.5979752  96.4097248  95.0076104  77.2719752  95.3817248  96.4966104
  77.1359752  94.1507248  95.7036104  78.1225604  93.8235280  95.3754455
  76.5118887  94.3510726  94.8327053  76.4959752  93.1847248  96.6556104
  77.2649860  92.5840589  97.1413285  75.8143122  92.5306948  96.1118442
  75.7569752  94.0217248  97.6406104  75.7215360  93.4560703  98.5716733
  74.7483038  94.3283928  97.3637779  76.6459752  95.2507248  97.8136104
  76.1139175  96.1723331  98.0495150  77.7039752  94.9907248  98.8756104
  78.8549752  94.7247248  98.5356104  77.3069752  95.0617248 100.1436104
  76.3626209  95.3589206 100.3435325  78.2279752  94.8487248 101.2766104
  79.2098681  94.5662161 100.8969073  78.3769752  96.1267248 102.1246104
  78.9084795  95.8620299 103.0386887  78.9786196  96.8267129 101.5448340
  77.0529752  96.7727248 102.4796104  76.0099752  96.0877248 102.5196104
  77.0549752  97.9917248 102.7346104  77.8799752  93.6567248 102.1766104
  78.6139752  93.3707248 103.1226104  76.7819752  92.9607248 101.8816104
  76.1956425  93.2519723 101.1125278  76.3579752  91.8137248 102.6796104
  77.2187278  91.3762597 103.1854053  75.3369752  92.2467248 103.7366104
  75.8193808  93.0061179 104.3520015  74.4969120  92.6917393 103.2033601
  74.8329752  91.1187248 104.6256104  74.3124225  90.3962903 103.9969499
  75.6950395  90.6403978 105.0905304  73.8889752  91.6227248 105.7066104
  74.4550828  92.1791288 106.4536283  73.1390119  92.2752432 105.2595376
  73.2069752  90.5087248 106.3686104  72.2455077  90.3529131 106.1013983
  73.7539752  89.7007248 107.2816104  75.0159752  89.8557248 107.6826104
  75.5789196  90.5981788 107.2927955  75.4032940  89.2299821 108.3743690
  73.0259752  88.7157248 107.8066104  72.0685991  88.5870434 107.5117001
  73.4349268  88.1023789 108.4970190  75.7779752  90.7207248 101.7836104
  74.9549752  91.0017248 100.9156104  76.2269752  89.4857248 102.0056104
  76.9994486  89.3604373 102.6441143  75.6799752  88.3027248 101.3366104
  74.7224513  88.5430289 100.8745486  76.6319752  87.8117248 100.2556104
  77.5925025  87.5584586 100.7043237  76.2119518  86.9282927  99.7747484
  76.7743086  88.5962458  99.5123963  75.4289752  87.1987248 102.3646104
  76.2169752  87.0107248 103.2966104  74.3249752  86.4797248 102.1946104
  73.6828827  86.7232300 101.4539879  73.9749752  85.3697248 103.0776104
  74.8284461  85.1354960 103.7138678  72.7749752  85.7227248 103.9746104
  72.3752560  84.8067434 104.4097000  73.2029752  86.6667248 105.0866104
  73.6024019  87.5831880 104.6522682  72.3427580  86.9063573 105.7116718
  73.9710949  86.1884715 105.6943658  71.7629752  86.3627248 103.1936104
  71.0159358  86.5817354 103.7553637  73.6649752  84.1287248 102.2476104
  73.0379752  84.2327248 101.2046104  74.1299752  82.9707248 102.7136104
  74.6790747  82.9791556 103.5612648  73.9059752  81.6897248 102.0456104
  73.4145336  81.8508187 101.0861142  75.2419752  80.9837248 101.7986104
  75.8433378  81.7601323 101.3256901  75.6568485  80.7503022 102.7791685
  75.2559752  79.7217248 100.9236104  74.5089961  79.0309018 101.3146176
  74.9499752  80.0267248  99.4676104  75.6968486  80.7171760  99.0757481
  74.9716655  79.1026399  98.8899449  73.9614836  80.4795683  99.3906860
  76.6069752  79.0337248 101.0336104  76.7896664  78.7544759 102.0712729
  76.6114657  78.1390912 100.4109453  77.3899295  79.7135635 100.6976032
  73.0009752  80.8237248 102.9226104  73.2389752  80.6867248 104.1256104
  71.9619752  80.2557248 102.3126104  71.8478139  80.4046201 101.3201908
  70.9689752  79.4417248 103.0096104  71.2187545  79.3803662 104.0688293
  69.5769752  80.0617248 102.8706104  69.3724854  80.1550959 101.8040435
  68.8653679  79.3671538 103.3170253  69.4409752  81.4127248 103.5286104
  69.8629752  82.5687248 102.8756104  70.2914511  82.4837069 101.8769714
  69.7449752  83.8147248 103.4766104  70.0786132  84.7099321 102.9518329
  69.1989752  83.9187248 104.7466104  69.0899752  85.1607248 105.3346104
  69.4202206  85.8696222 104.7778322  68.7699752  82.7857248 105.4176104
  68.3388751  82.8652654 106.4155715  68.8919752  81.5417248 104.8106104
  68.5576518  80.6453199 105.3328999  70.9509752  78.0357248 102.4376104
  71.3609752  77.8177248 101.2976104  70.4789752  77.0847248 103.2386104
  70.3654497  77.2775378 104.2235137  70.2149752  75.7327248 102.7646104
  70.1758699  75.6849638 101.6763600  71.2749752  74.7177248 103.2676104
  72.2612585  75.1607195 103.1294068  71.0789752  74.3617248 104.7396104
  70.0930206  73.9182210 104.8785304  71.8440906  73.6486144 105.0464860
  71.1597118  75.2638715 105.3460051  71.2569752  73.4637248 102.4126104
  71.4801695  73.7253404 101.3782780  72.0065753  72.7625094 102.7793479
  70.2712335  73.0015191 102.4653349  68.7969752  75.3177248 103.1616104
  68.2949752  75.7127248 104.2136104  68.1589752  74.5357248 102.2916104
  68.6080592  74.3356482 101.4093450  66.8109752  74.0057248 102.5216104
  66.6387890  73.8329314 103.5839633  65.7269752  74.9767248 101.9966104
  65.8371768  75.9276976 102.5177693  65.8509752  75.2047248 100.4876104
  65.7404090  74.2541990  99.9657143  65.0718887  75.8922283 100.1582743
  66.8290286  75.6302851 100.2630872  64.4229752  74.4637248 102.2956104
  63.7567899  75.0717072 101.9667415  66.7079752  72.6327248 101.8526104
  67.6219752  72.2297248 101.1316104  65.6169752  71.9127248 102.1046104
  64.8830891  72.3050780 102.6769473  65.4609752  70.5297248 101.6196104
  66.3155043  70.2632193 100.9976344  65.3979752  69.5707248 102.7936104
  64.5418742  69.8192057 103.4208650  65.2934927  68.5503751 102.4247334
  66.3132328  69.6526452 103.3798628  64.2139752  70.4007248 100.7566104
  63.2219752  71.0847248 101.0076104  64.2719752  69.5307248  99.7426104
  65.1261976  69.0192165  99.5730145  63.1489752  69.3377248  98.8156104
  62.2183082  69.6769957  99.2704217  63.3689752  70.0817248  97.4726104
  62.5134213  69.8987704  96.8224908  63.5159752  71.5767248  97.7076104
  64.3716653  71.7605110  98.3573164  63.6695288  72.0815976  96.7538675
  62.6122640  71.9613255  98.1803549  64.5989752  69.5457248  96.7206104
  65.4821184  69.8556824  97.2792563  64.5321969  68.4577733  96.7219103
  64.7039752  70.0417248  95.2976104  64.7712633  71.1296438  95.2955257
  65.5951908  69.6221974  94.8308870  63.8213401  69.7317364  94.7381801
  62.8339752  67.8777248  98.4906104  63.6789752  66.9877248  98.6276104
  61.5959752  67.6727248  98.0486104  60.9218661  68.4123081  98.1853316
  61.1589752  66.4557248  97.3816104  61.6710325  65.5896651  97.8009399
  59.6469752  66.2767248  97.5826104  59.4808079  66.2513467  98.6595708
  59.1737802  67.1646315  97.1633156  59.0419752  65.0297248  96.9456104
  59.7108126  64.1986610  97.1694196  58.0800757  64.8619116  97.4300556
  58.8409752  65.1277248  95.4386104  58.5349752  66.2237248  94.9186104
  58.9949752  64.0897248  94.7636104  61.5009752  66.6457248  95.9006104
  61.2689752  67.7217248  95.3466104  62.0389752  65.6057248  95.2626104
  62.1772659  64.7416702  95.7669760  62.5139752  65.6857248  93.8746104
  61.7983579  66.2275815  93.2562397  63.8619752  66.4407248  93.8466104
  63.8698284  67.1665111  94.6597966  64.6395788  65.6962083  94.0172793
  64.1239752  67.1547248  92.5266104  63.1629752  67.4427248  91.7786104
  65.3039752  67.4497248  92.2496104  62.6479752  64.3067248  93.1956104
  63.5779752  64.0677248  92.4296104  61.6949752  63.4177248  93.4616104
  60.9367587  63.6890544  94.0711899  61.7279752  62.0307248  92.9616104
  62.6130233  61.5160373  93.3356236  60.4769752  61.2757248  93.4486104
  60.6078909  61.1568058  94.5241654  59.6386282  61.9454758  93.2570175
  60.1949752  59.9137248  92.8166104  59.4084499  59.4461390  93.4089298
  59.8263311  60.1023329  91.8083294  61.4009752  58.9847248  92.7506104
  61.0685917  58.0139642  92.3828549  62.1246014  59.4082002  92.0540954
  62.0529752  58.7967248  94.0476104  61.4747725  58.9662971  94.8581819
  63.3199752  58.4127248  94.2366104  64.1379752  58.1937248  93.2156104
  63.8049252  58.3173266  92.2701474  65.0900958  57.9043795  93.3883688
  63.7859752  58.2587248  95.4676104  63.1819690  58.4321056  96.2583162
  64.7429858  57.9686877  95.6094131  61.8309752  61.9547248  91.4356104
  62.7609752  61.3437248  90.8996104  60.8739752  62.5857248  90.7616104
  60.1903388  63.1208548  91.2777270  60.7209752  62.4807248  89.3116104
  60.5994184  61.4357701  89.0263159  59.4859752  63.2617248  88.8486104
  58.6703339  62.9811089  89.5150060  59.7161012  64.3187782  88.9819525
  59.0699752  63.0107248  87.4026104  59.8353264  63.4362703  86.7535730
  59.0096363  61.9352785  87.2356478  57.7229752  63.6367248  87.0446104
  56.9279752  63.9947248  87.9176104  57.4599752  63.7597248  85.7476104
  56.5849468  64.1664256  85.4492463  58.1363560  63.4459297  85.0663299
  61.9629752  62.9597248  88.5636104  62.4579752  62.2627248  87.6796104
  62.4739752  64.1307248  88.9336104  62.0245290  64.6870969  89.6467356
  63.6319752  64.6967248  88.2386104  63.5322606  64.5177099  87.1680452
  63.7459752  66.2037248  88.4736104  62.7371865  66.6162604  88.4575207
  64.1813920  66.3484012  89.4623374  64.5989752  66.9127248  87.4366104
  64.1379752  67.0937248  86.1286104  63.1505440  66.7168392  85.8620839
  64.9159752  67.7417248  85.1746104  64.5446187  67.8774028  84.1588409
  66.1739752  68.2197248  85.5246104  66.9579752  68.8617248  84.5946104
  66.5404020  68.9265885  83.7326215  66.6529752  68.0527248  86.8136104
  67.6399051  68.4257172  87.0873740  65.8679752  67.4057248  87.7596104
  66.2376434  67.2738796  88.7764990  64.9419752  63.9937248  88.6006104
  65.8159752  63.8577248  87.7406104  65.0799752  63.5447248  89.8496104
  64.4067468  63.7804104  90.5646734  66.2569752  62.7577248  90.2346104
  67.1533830  63.3349849  90.0080642  66.2669752  62.4027248  91.7246104
  66.0337801  63.3086538  92.2840851  65.4873459  61.6602696  91.8950171
  67.6079752  61.8477248  92.1926104  67.9097853  61.0690087  91.4921728
  68.3334542  62.6607857  92.1658844  67.5469752  61.2697248  93.5966104
  67.3711489  62.0835032  94.3001364  66.7190163  60.5624904  93.6456314
  68.8429752  60.5587248  93.9576104  69.1597449  59.9641632  93.1007242
  69.5997331  61.3121711  94.1760948  68.6709752  59.6727248  95.1386104
  67.9700950  58.9742255  94.9362111  69.5480987  59.2184167  95.3492252
  68.3778636  60.2235282  95.9328398  66.3539752  61.4837248  89.3996104
  67.4429752  61.1257248  88.9606104  65.2239752  60.8147248  89.1806104
  64.3793702  61.0860871  89.6634190  65.1859752  59.6167248  88.3296104
  65.9499267  58.9129106  88.6599479  63.8119752  58.9227248  88.4036104
  63.0434781  59.6939111  88.3508557  63.7275003  58.2664853  87.5374038
  63.6259752  58.1047248  89.6826104  64.5489752  58.0607248  90.5296104
  62.5449752  57.4997248  89.8506104  65.5579752  59.8987248  86.8726104
  66.2049752  59.0757248  86.2306104  65.1529752  61.0607248  86.3686104
  64.5578100  61.6541536  86.9287174  65.4819752  61.4927248  85.0086104
  65.2831607  60.6898049  84.2987571  64.6199752  62.7037248  84.6326104
  63.5931840  62.4810480  84.9228070  65.0002546  63.5223927  85.2435690
  64.6559752  63.1057248  83.1696104  64.2139752  62.2297248  82.1736104
  63.8521509  61.2436187  82.4647760  64.2299752  62.5957248  80.8346104
  63.8931770  61.8960090  80.0697139  64.6779752  63.8617248  80.4706104
  64.6879752  64.2177248  79.1386104  64.3678992  63.5204596  78.5615729
  65.1119752  64.7607248  81.4366104  65.4588410  65.7548047  81.1544941
  65.1009752  64.3807248  82.7786104  65.4412749  65.0770761  83.5450248
  66.9709752  61.8297248  84.8466104  67.5389752  61.5987248  83.7786104
  67.5899752  62.3597248  85.9046104  67.0500501  62.5343229  86.7401316
  68.9949752  62.7947248  85.8786104  69.3247939  62.9272386  84.8481935
  69.1489752  64.1367248  86.6216104  68.5241589  64.0809356  87.5130089
  70.1950850  64.2195027  86.9164021  68.7539752  65.3607248  85.7996104
  67.6958832  65.2896906  85.5476258  68.9254521  66.2565348  86.3964539
  69.5769752  65.4387248  84.5186104  70.5085809  64.9046585  84.7056480
  69.0109337  64.9206997  83.7444357  69.8859752  66.8437248  84.0606104
  68.9664016  67.3446236  83.7579798  70.3535797  67.4024683  84.8713205
  70.8189752  66.7767248  82.9016104  70.3857035  66.2593887  82.1501194
  71.0325767  67.7123570  82.5868617  71.6713079  66.3129956  83.1819375
  70.0149752  61.7827248  86.4296104  71.1439752  61.7297248  85.9386104
  69.6289752  61.0017248  87.4386104  68.6783769  61.0674082  87.7734953
  70.5519752  60.0957248  88.1356104  71.5788841  60.2475928  87.8032047
  70.4739752  60.2807248  89.6766104  69.4647744  60.0308145  90.0039619
  71.4799752  59.3857248  90.3996104  72.4895112  59.6353795  90.0730981
  71.3977667  59.5410085  91.4753564  71.2711469  58.3415664  90.1667515
  70.6939752  61.7537248  90.0576104  69.8331024  62.3061902  89.6810727
  70.7047154  61.7969170  91.1467011  71.9709752  62.3737248  89.5136104
  71.9607501  62.3313137  88.4244839  72.0367275  63.4129929  89.8356316
  72.8323635  61.8220387  89.8901108  70.2729752  58.6467248  87.7596104
  71.1099752  57.9907248  87.1436104  69.0849752  58.1597248  88.1086104
  68.4342912  58.7417117  88.6165482  68.7469752  56.7467248  87.9126104
  69.6025199  56.1215138  88.1680584  67.5659752  56.3527248  88.8106104
  66.7404531  57.0307109  88.5939375  67.2396895  55.3237756  88.6592787
  67.8669752  56.4967248  90.2726104  68.5019752  55.5117248  91.0026104
  68.7923356  54.6186432  90.6308634  68.6639752  55.9247248  92.2476104
  69.1422106  55.2825827  92.9872343  68.1669752  57.1447248  92.3506104
  67.6719752  57.5307248  91.1266104  67.2288903  58.5191542  91.0050199
  68.5109752  56.3607248  86.4436104  68.5219752  55.1837248  86.1086104
  68.3129752  57.3567248  85.5846104  68.1250366  58.2750349  85.9607552
  68.2799752  57.1817248  84.1306104  67.4421893  56.5477021  83.8403879
  68.1089752  58.5547248  83.4666104  67.1379419  58.9709285  83.7348790
  68.8974533  59.2301533  83.7985723  68.1659752  58.5317248  81.9856104
  67.1249752  58.3537248  81.1306104  66.1385523  58.2184919  81.5742112
  67.5719752  58.3857248  79.8316104  66.9938529  58.2857804  79.0094880
  68.9269752  58.5847248  79.8316104  69.8259752  58.6907248  78.7656104
  69.4409401  58.6059029  77.7494156  71.1479752  58.8967248  79.0706104
  71.8786323  58.9827902  78.2663511  71.5839752  58.9997248  80.3986104
  72.6362673  59.1650702  80.6297850  70.6919752  58.8947248  81.4586104
  71.0830778  58.9672841  82.4734378  69.3349752  58.6877248  81.1766104
  69.5199752  56.4647248  83.5586104  69.4069752  55.6997248  82.5976104
  70.6859752  56.7187248  84.1466104  70.7239954  57.4140077  84.8782083
  71.9449752  56.0897248  83.7156104  72.0742918  56.2199855  82.6411763
  73.1389752  56.7317248  84.4346104  72.9765365  56.7186389  85.5123588
  74.0494622  56.1810611  84.1982146  73.3909752  58.1587248  84.0566104
  73.0129752  59.2727248  84.7496104  72.4679007  59.1082327  85.6790919
  73.4209752  60.4037248  84.0936104  73.2670643  61.3525529  84.4036686
  74.0789752  60.0377248  82.9496104  74.6779752  60.8237248  81.9586104
  74.6438496  61.9080471  82.0643423  75.2759752  60.1727248  80.9066104
  75.7468117  60.7540685  80.1138605  75.2959752  58.7717248  80.8266104
  75.7741743  58.2632486  79.9894264  74.7059752  57.9907248  81.8136104
  74.7539790  56.9068330  81.7088492  74.0809752  58.6267248  82.8966104
  71.9979752  54.5607248  83.9046104  72.7939752  53.8937248  83.2476104
  71.1629752  54.0157248  84.7916104  70.5868632  54.6218159  85.3580447
  71.1009752  52.5577248  85.0376104  72.1045410  52.1724542  85.2179474
  70.2289752  52.2507248  86.2656104  69.2558253  52.7083769  86.0877536
  70.1170987  51.1675680  86.3141402  70.7989752  52.7637248  87.5886104
  71.5808142  52.0683644  87.8940651  71.2393787  53.7411812  87.3918292
  69.7619752  52.8877248  88.7066104  68.6569752  52.2967248  88.6066104
  70.0579752  53.5877248  89.7016104  70.5939752  51.7287248  83.8476104
  70.9159752  50.5417248  83.7486104  69.7999752  52.3437248  82.9646104
  69.5351133  53.3041686  83.1304270  69.2299752  51.6557248  81.7996104
  69.8750752  50.8290068  81.5021500  67.8399752  51.0947248  82.1456104
  67.9063825  50.5589432  83.0925145  67.1485691  51.9309323  82.2496033
  67.2969752  50.1417248  81.0826104  67.8339752  50.0307248  79.9786104
  66.2219752  49.4437248  81.4206104  65.8157265  48.7964086  80.7602745
  65.8140845  49.5624171  82.3369281  69.1669752  52.5917248  80.5846104
  68.1309752  53.2007248  80.3046104  70.2849752  52.6717248  79.8666104
  71.0929780  52.1578630  80.1878223  70.4219752  53.5027248  78.6696104
  69.5969268  54.2068766  78.5620716  71.7529752  54.2997248  78.7026104
  72.5828831  53.5930960  78.7079039  71.8739752  55.2147248  77.4926104
  71.0446087  55.9219866  77.4868851  72.8160736  55.7607140  77.5420768
  71.8480305  54.6177679  76.5809795  71.8579752  55.1017248  79.9946104
  71.8287106  54.4234006  80.8473249  72.7966631  55.6556939  80.0037225
  71.0237391  55.8003910  80.0579865  70.3449752  52.5897248  77.4386104
  71.3529752  52.0267248  77.0156104  69.1329752  52.4397248  76.8956104
  68.3679291  52.9227919  77.3444422  68.8259752  51.5357248  75.7736104
  67.7472274  51.5021932  75.6210396  69.4919752  52.0127248  74.4716104
  70.5716514  51.9903598  74.6195919  69.2173558  51.2989436  73.6949505
  69.0719752  53.3957248  74.0526104  67.8899752  53.6017248  73.3446104
  67.2720189  52.7404836  73.0906555  67.4949752  54.8747248  72.9636104
  66.5701014  55.0221199  72.4059502  68.2829752  55.9587248  73.2916104
  67.8899752  57.2237248  72.9166104  67.0589880  57.2313053  72.4359833
  69.4599752  55.7777248  73.9966104  70.0819356  56.6346005  74.2555117
  69.8459752  54.5047248  74.3726104  70.7713075  54.3580294  74.9296928
  69.1869752  50.0767248  76.0796104  69.6949752  49.3557248  75.2146104
  68.9109752  49.6507248  77.3146104  68.4643626  50.2840755  77.9623012
  69.2289752  48.2977248  77.7746104  68.4801370  48.0411064  78.5239351
  69.1172721  47.6424089  76.9107916  70.6159752  48.0987248  78.3716104
  70.9239752  46.9997248  78.8386104  71.4469752  49.1427248  78.3636104
  71.1188986  50.0232068  77.9931831  72.8259752  49.0597248  78.8296104
  73.0930221  48.0177934  79.0061440  73.7829752  49.6397248  77.7856104
  73.4957239  50.6641845  77.5488230  74.8061048  49.6274157  78.1613156
  73.7929752  48.8867248  76.4896104  74.2229752  47.5647248  76.4456104
  74.5560652  47.0856807  77.3662991  74.2319752  46.8577248  75.2546104
  74.5671398  45.8206785  75.2372780  73.8139752  47.4707248  74.0836104
  73.8184527  46.9180932  73.1441009  73.3899752  48.7887248  74.1096104
  73.0637840  49.2730652  73.1892226  73.3799752  49.4947248  75.3086104
  73.0467587  50.5323744  75.3273166  73.0099752  49.7967248  80.1526104
  72.4839752  50.8947248  80.3496104  73.7689752  49.1727248  81.0466104
  74.1435386  48.2662650  80.8055040  74.0739752  49.7167248  82.3566104
  73.1968457  50.1948322  82.7926796  74.5069752  48.5617248  83.2686104
  73.7360541  47.7925346  83.2224987  75.4384904  48.1665412  82.8633827
  74.7199752  48.9777248  84.7116104  74.4219752  50.1337248  85.0876104
  75.1889752  48.1147248  85.4816104  75.1889752  50.7547248  82.2376104
  76.2919752  50.4207248  81.8186104  74.8989752  52.0067248  82.5896104
  73.9387055  52.2614975  82.7714684  75.9219752  53.0577248  82.6536104
  76.8988726  52.6308292  82.4266062  75.6269752  54.1727248  81.6416104
  74.6684073  54.6084853  81.9233187  76.4128230  54.9191813  81.7571356
  75.5699752  53.7177248  80.1926104  76.4186569  53.0632613  79.9938198
  74.6425067  53.1684773  80.0306496  75.6299752  55.1247248  79.0666104
  75.7659752  54.2807248  77.4926104  74.8964157  53.6397946  77.3470982
  75.8138137  55.0153442  76.6887780  76.6705777  53.6726965  77.4827523
  76.0259752  53.6257248  84.0706104  76.1869752  54.8367248  84.2526104
  75.9639752  52.7357248  85.0646104  75.8198465  51.7631623  84.8334212
  76.0179752  53.1147248  86.4866104  75.2466440  53.8556585  86.6967640
  75.7849752  51.8947248  87.3886104  76.4187051  51.0790641  87.0404964
  76.0618550  52.1591315  88.4091625  74.4289752  51.4847248  87.3586104
  74.3125424  50.7221501  87.9300324  77.3169752  53.8017248  86.9126104
  77.3079752  54.5747248  87.8666104  78.4249752  53.5257248  86.2266104
  78.4243784  52.8074484  85.5165555  79.6939752  54.1877248  86.5446104
  79.8847000  54.1180133  87.6155276  80.8529752  53.5297248  85.7986104
  81.7975665  54.0082623  86.0571608  80.9080740  52.4670189  86.0346619
  80.7129752  53.6367248  84.0036104  81.8432179  52.9883192  83.7371146
  79.6669752  55.6967248  86.2586104  80.4219752  56.4547248  86.8766104
  78.8109752  56.1267248  85.3266104  78.3794828  55.4613009  84.7012108
  78.5569752  57.5587248  85.1046104  79.4820615  58.1149078  85.2561854
  78.0089752  57.8457248  83.6836104  77.1981787  57.1475471  83.4756263
  77.4889752  59.2777248  83.5706104  78.2993764  59.9765320  83.7780209
  77.1111377  59.4491441  82.5626645  76.6848636  59.4306888  84.2904059
  79.1199752  57.6137248  82.6526104  79.8354543  58.4273651  82.7716898
  79.5982665  56.6691659  82.9117350  78.6489752  57.5627248  81.2146104
  78.1709558  58.5071769  80.9545961  79.5026303  57.3952498  80.5578574
  77.9337658  56.7489786  81.0946419  77.6239752  58.1177248  86.1856104
  77.8299752  59.2347248  86.6516104  76.6069752  57.3497248  86.5756104
  76.4239443  56.4816984  86.0927758  75.7039752  57.7437248  87.6696104
  75.1354063  58.6267834  87.3780011  74.7229752  56.6147248  87.9906104
  74.2566180  56.3191829  87.0507885  75.3090459  55.7832266  88.3820590
  73.6469752  56.9907248  88.9926104  74.1319908  57.3715441  89.8914081
  73.0279389  57.7738402  88.5548589  72.7759752  55.7997248  89.3536104
  71.8609742  56.1699674  89.8159874  72.5283280  55.2640049  88.4372183
  73.4839752  54.8587248  90.3146104  74.2989832  54.3690917  89.7815795
  73.8902233  55.4465309  91.1377420  72.5539752  53.8287248  90.8526104
  72.1777563  53.2836593  90.0900734  73.0541862  53.2213962  91.4858884
  71.7989253  54.2822055  91.3469321  76.4459752  58.1227248  88.9536104
  76.1119752  59.1217248  89.5926104  77.4419752  57.3157248  89.3186104
  77.6586283  56.5123950  88.7460529  78.1779752  57.4927248  90.5766104
  77.4726715  57.6369539  91.3950503  79.0439752  56.2597248  90.8856104
  79.7256703  56.1177589  90.0470183  79.6178806  56.4698155  91.7881594
  78.2169752  54.9877248  91.0916104  77.0409752  55.0847248  91.5076104
  78.7469752  53.8847248  90.8406104  79.0379752  58.7547248  90.6136104
  79.4129752  59.1997248  91.6976104  79.3519752  59.3227248  89.4476104
  79.2083777  58.8026456  88.5937973  80.0039752  60.6367248  89.3616104
  80.4578211  60.9085659  90.3146191  81.0989752  60.6527248  88.2706104
  80.6194897  60.6157067  87.2924373  81.9539752  61.9177248  88.3716104
  82.4341834  61.9552119  89.3494119  82.7167343  61.9044690  87.5930711
  81.3209194  62.7958813  88.2443977  81.9839752  59.4147248  88.3976104
  81.3749469  58.5184520  88.2797897  82.7520579  59.4356738  87.6244935
  82.4575108  59.4051333  89.3793298  78.9959752  61.7807248  89.1436104
  79.1859752  62.8727248  89.6746104  77.9369752  61.5357248  88.3776104
  77.8758578  60.6578137  87.8819934  76.8809752  62.5377248  88.1556104
  77.3720517  63.4189336  87.7427981  75.8719752  62.0217248  87.1386104
  75.3654865  61.1445972  87.5413715  75.1380300  62.7994289  86.9274211
  76.3891068  61.7512526  86.2180024  76.1539752  62.9677248  89.4416104
  75.7789752  64.1357248  89.5866104  75.9589752  62.0237248  90.3606104
  76.2118135  61.0708554  90.1410380  75.2899752  62.2887248  91.6386104
  74.4140428  62.9283528  91.5303628  74.8799752  60.9637248  92.3396104
  74.4251650  60.3128752  91.5928555  76.0759752  60.2497248  92.9786104
  76.5310566  60.8998212  93.7258562  75.7381160  59.3296858  93.4555592
  76.8106314  60.0111063  92.2095586  73.7709752  61.2037248  93.3656104
  74.1983848  61.7764968  94.1886256  72.9916248  61.7915905  92.8807121
  73.1739752  59.9187248  93.9016104  73.9526892  59.3304976  94.3870928
  72.3931433  60.1541888  94.6247684  72.7459311  59.3455900  93.0791783
  76.1259752  63.1677248  92.5796104  75.5659752  63.8477248  93.4376104
  77.4519752  63.1617248  92.3946104  77.8352000  62.5259287  91.7097736
  78.3819752  64.0167248  93.1506104  78.0079498  64.1397910  94.1670054
  79.7959752  63.4077248  93.2166104  80.2345999  63.5886618  92.2353003
  80.3283642  63.9938925  93.9656561  79.9079752  61.9257248  93.5576104
  79.3829887  61.3731360  92.7784213  80.9665891  61.6669875  93.5353876
  79.3269752  61.5637248  94.9136104  79.6566550  62.2977334  95.6488937
  78.2389666  61.5780208  94.8493270  79.7919752  60.1767248  95.3376104
  79.6927083  59.5113025  94.4800209  80.8415294  60.2460095  95.6235034
  79.0029752  59.6377248  96.4766104  78.0304692  59.5730399  96.2117565
  79.3473155  58.7200384  96.7202934  79.0951684  60.2539509  97.2715097
  78.5209752  65.4207248  92.5526104  79.3409752  66.1967248  93.0286104
  77.7679752  65.7497248  91.5026104  77.1834534  65.0573734  91.0564230
  77.8359752  67.0827248  90.9116104  78.6022353  67.6678205  91.4201453
  78.1849752  67.0077248  89.4246104  77.4537768  66.3679492  88.9305098
  78.1293465  68.0126451  89.0061123  79.5899752  66.4407248  89.2046104
  80.2275819  66.8173786  90.0044169  79.4923409  65.3590770  89.2973721
  80.2119752  66.7797248  87.8586104  80.0089752  67.9027248  87.3416104
  80.9349752  65.9137248  87.3196104  76.5219752  67.8127248  91.1556104
  75.4579752  67.2877248  90.8266104  76.5869752  69.0077248  91.7726104
  77.7309752  69.6387248  92.4536104  78.3168887  70.2106077  91.7340581
  78.3593434  68.8705573  92.9043555  77.0739752  70.5027248  93.4706104
  77.7189277  71.3492079  93.7064105  76.8856819  69.9266297  94.3765693
  75.8029752  70.9467248  92.8526104  75.9964959  71.8180901  92.2270136
  75.0261711  71.1866437  93.5786364  75.3569752  69.7667248  91.9796104
  74.6397020  69.1161855  92.4800263  74.7589752  70.2707248  90.6746104
  75.4979752  70.5957248  89.7396104  73.4299752  70.3187248  90.6316104
  72.9074923  69.9792570  91.4265145  72.6889752  70.8277248  89.4836104
  73.3261101  70.8071519  88.5994525  71.4469752  69.9747248  89.2116104
  71.0756947  69.7503575  90.2115651  70.7206879  70.5942149  88.6854558
  71.6569752  68.6687248  88.4406104  72.1635303  68.9079293  87.5055789
  72.4869752  67.6557248  89.2236104  71.9807967  67.4156609  90.1586246
  72.6060449  66.7479895  88.6320533  73.4678512  68.0788433  89.4402979
  70.2979752  68.0867248  88.0756104  69.7528628  68.7972731  87.4542628
  70.4366122  67.1557795  87.5258633  69.7302937  67.8899338  88.9850663
  72.2669752  72.2617248  89.7626104  71.7259752  72.5487248  90.8266104
  72.5229752  73.1557248  88.8136104  73.1172998  72.9075084  88.0356218
  72.0009752  74.5127248  88.8776104  71.7134978  74.7683817  89.8974611
  73.0249752  75.5567248  88.3766104  73.3020012  75.3144711  87.3506138
  72.4319752  76.9607248  88.4246104  72.1551132  77.2038865  89.4504373
  73.1695125  77.6796049  88.0677483  71.5468030  77.0037244  87.7900060
  74.2969752  75.4957248  89.2106104  74.7366890  74.5015044  89.1313665
  75.0076474  76.2369413  88.8450387  74.0586913  75.7049850  90.2534583
  70.7369752  74.5387248  88.0306104  70.8189752  74.4387248  86.8126104
  69.5779752  74.6397248  88.6776104  69.5696127  74.5912957  89.6864137
  68.2899752  74.7547248  87.9736104  68.4019185  75.4081713  87.1084078
  67.8069752  73.3737248  87.4886104  68.6856734  72.7377233  87.3814148
  67.1508363  72.9599441  88.2543566  67.0529752  73.4377248  86.1466104
  66.3049752  74.4167248  85.8926104  67.2089752  72.4927248  85.3396104
  67.2379752  75.4057248  88.8706104  67.4859752  75.6367248  90.0556104
  66.0719752  75.7107248  88.3046104  65.9250270  75.5197286  87.3237811
  64.9959752  76.3607248  89.0536104  65.3954152  77.0633478  89.7849570
  64.0029752  77.1147248  88.1336104  63.5552506  76.4034933  87.4394982
  62.9019752  77.7827248  88.9596104  63.3489244  78.4944829  89.6536837
  62.2153937  78.3066806  88.2946468  62.3560848  77.0236025  89.5198235
  64.7309752  78.1487248  87.2786104  65.4738513  77.6488612  86.6570207
  64.0127192  78.6647327  86.6414733  65.2269327  78.8719662  87.9259502
  64.2429752  75.3117248  89.8676104  63.7359752  74.3397248  89.3106104
  64.1869752  75.5167248  91.1796104  64.7251357  76.2743703  91.5751555
  63.4079752  74.6767248  92.0826104  63.2565154  73.6714589  91.6894188
  64.0959752  74.5687248  93.4646104  64.2773012  75.5756975  93.8404111
  63.2299752  73.8027248  94.4606104  63.0485924  72.7954333  94.0856903
  63.7432827  73.7456309  95.4204834  62.2786028  74.3191947  94.5880899
  65.4659752  73.9147248  93.3196104  66.0881475  74.5164987  92.6571363
  65.9407825  73.8439527  94.2982058  65.3495993  72.9156093  92.8996987
  62.0119752  75.2797248  92.2266104  61.8709752  76.4587248  92.5386104
  60.9889752  74.4647248  91.9906104  61.1769646  73.5329927  91.6490923
  59.5969752  74.8577248  92.2016104  59.4024423  75.8269683  91.7424556
  58.6709752  73.8147248  91.5576104  59.0373635  73.6690498  90.5414226
  58.7608968  72.8811700  92.1130288  57.2039752  74.2417248  91.5136104
  56.7449752  75.0467248  92.3516104  56.4829752  73.7337248  90.6296104
  59.3759752  74.9227248  93.7196104  59.6659752  73.9477248  94.4106104
  58.8749752  76.0637248  94.2496104  58.5539752  77.3397248  93.5856104
  58.0406729  77.1436947  92.6442320  59.4730986  77.8918792  93.3895576
  57.6779752  78.0267248  94.5856104  56.6423284  77.7154282  94.4491218
  57.7510423  79.1074330  94.4638225  58.2009752  77.6057248  95.9116104
  57.4381924  77.6353885  96.6896731  59.0380626  78.2416224  96.1997397
  58.6849752  76.1617248  95.7096104  59.6686576  76.0135297  96.1551500
  57.6919752  75.1687248  96.3236104  57.7719752  74.9077248  97.5236104
  56.7839752  74.6147248  95.5206104  56.6417149  74.9931585  94.5950569
  55.9159752  73.5107248  95.9646104  55.3775847  73.8061539  96.8651416
  54.8959752  73.1537248  94.8796104  55.4367857  73.0452161  93.9394779
  54.4444488  72.1993919  95.1506688  53.8099752  74.1987248  94.7196104
  53.2306816  74.2370756  95.6421335  54.2846262  75.1649743  94.5488169
  52.8899752  73.8757248  93.5586104  53.4759273  73.8407633  92.6401678
  52.4278496  72.9037704  93.7313648  51.8069752  74.9357248  93.4286104
  51.1016558  74.8047601  94.2492646  52.2778720  75.9155636  93.5078013
  51.0809752  74.8367248  92.1286104  50.6441996  73.9290130  92.0552201
  50.3730922  75.5556810  92.0827464  51.7342904  74.9584781  91.3680484
  56.6679752  72.2387248  96.3816104  56.0999752  71.3947248  97.0736104
  57.9229752  72.1017248  95.9406104  58.2652012  72.7603624  95.2556452
  58.7949752  70.9907248  96.3326104  58.2022256  70.0910084  96.4977087
  59.8179752  70.7077248  95.2216104  60.3402608  71.6425705  95.0181883
  60.5242174  69.9751430  95.6123097  59.1989752  70.1787248  93.9286104
  58.7386008  69.2135839  94.1399382  58.4345241  70.8797507  93.5935296
  60.2179752  69.9977248  92.8096104  59.8449752  70.4037248  91.5986104
  61.3259752  69.4937248  93.0286104  61.9856883  69.3834622  92.2718262
  61.5656184  69.1948961  93.9631552  59.5169752  71.1977248  97.6716104
  60.1339752  70.2617248  98.1776104  59.4499752  72.4007248  98.2426104
  59.0180092  73.1684290  97.7485103  60.0499752  72.6677248  99.5556104
  61.0890428  72.3384591  99.5509336  60.0109752  74.1657248  99.8976104
  58.9669766  74.4337240  99.7353069  60.2615710  74.3033065 100.9494531
  60.9099752  75.0647248  99.0356104  60.8218961  74.7531248  97.9948182
  60.5029752  76.5257248  99.1636104  60.5912434  76.8382004 100.2041230
  61.1551203  77.1407727  98.5435108  59.4706722  76.6459878  98.8349958
  62.3869752  74.8877248  99.3806104  62.6782439  73.8509481  99.2122178
  62.9889845  75.5408950  98.7489027  62.5494711  75.1448093 100.4273203
  59.3559752  71.8637248 100.6546104  58.1359752  71.9367248 100.8056104
  60.1469752  71.0877248 101.3926104  61.1221551  71.0245416 101.1374016
  59.6679752  70.2727248 102.5096104  58.5815534  70.1871636 102.5311972
  60.2729752  68.8547248 102.4256104  61.3591890  68.9429038 102.4471377
  59.8109752  67.9737248 103.5846104  58.7248226  67.8846933 103.5634704
  60.2580342  66.9841271 103.4900844  60.1198966  68.4227430 104.5285658
  59.9099752  68.2257248 101.0896104  60.3066016  68.8377706 100.2795552
  60.3372489  67.2246934 101.0306785  58.8255007  68.1631981 100.9995751
  59.9879752  70.9077248 103.8706104  59.2749752  70.6627248 104.8506104
  61.0519752  71.7067248 103.9356104  61.5799369  71.8868466 103.0936413
  61.4999752  72.3277248 105.1806104  60.8061364  72.1040028 105.9909408
  62.9159752  71.8337248 105.5886104  63.1590584  72.2521519 106.5653036
  62.9799752  70.3157248 105.6576104  62.7374459  69.8965640 104.6810945
  63.9847410  70.0066332 105.9457201  62.2636689  69.9545180 106.3955369
  63.8939752  72.3077248 104.6526104  64.7639217  71.9970830 104.9139438
  61.5519752  73.8487248 105.0566104  61.3379752  74.4077248 103.9846104
  61.8529752  74.5007248 106.1756104  61.7466207  74.0251751 107.0602802
  62.2419752  75.9107248 106.1886104  61.6132262  76.4732920 105.4984713
  62.0759752  76.5047248 107.6026104  62.2765940  77.5741859 107.5385466
  61.0497045  76.3473357 107.9344193  63.0199752  75.8927248 108.6316104
  63.7479752  74.9327248 108.3596104  62.9969752  76.4427248 109.8316104
  63.5984281  76.0844176 110.5596009  62.3780340  77.2192447 110.0160810
  63.6809752  76.0637248 105.6566104  64.2719752  75.0977248 105.1596104
  64.2239752  77.2747248 105.7416104  63.6689241  78.0332633 106.1112546
  65.5859752  77.5637248 105.3026104  66.0058593  76.7232027 104.7500535
  65.5919752  78.7867248 104.4036104  65.1827454  79.6390276 104.9460224
  66.6143987  79.0083660 104.0976273  64.9830959  78.5922741 103.5206867
  66.4699752  77.8047248 106.5136104  66.0079752  78.3417248 107.5206104
  67.7369752  77.4077248 106.4056104  68.0262650  76.8986970 105.5826271
  68.7239752  77.6437248 107.4566104  68.2797182  78.2565482 108.2409460
  69.1979752  76.3297248 108.0736104  68.3539899  75.7248580 108.4051586
  69.7983586  75.7579423 107.3660056  70.2419752  76.5777248 109.5326104
  70.4476845  75.2867385 109.7774294  69.9219752  78.4107248 106.9066104
  70.5229752  78.0037248 105.9066104  70.2549752  79.5137248 107.5776104
  69.6476116  79.8224284 108.3232047  71.4439752  80.3087248 107.2786104
  71.4514036  80.5986921 106.2279140  71.4369752  81.5807248 108.1386104
  70.5145058  82.0597979 107.8105277  71.3199749  81.2328179 109.1649494
  72.5899752  82.5907248 108.0696104  73.5057961  82.0795451 108.3663736
  72.7639752  83.1737248 106.6726104  71.8486571  83.6854969 106.3753212
  73.5917955  83.8828155 106.6747778  72.9761197  82.3705014 105.9669707
  72.3209752  83.6927248 109.0856104  72.2622142  83.2603003 110.0844376
  73.1297650  84.4227361 109.0533022  71.3781299  84.1850391 108.8473496
  72.7019752  79.4947248 107.5656104  72.8309752  78.9247248 108.6446104
  73.6079752  79.4267248 106.5886104  73.3722609  79.7930144 105.6773640
  74.8939752  78.7147248 106.7466104  75.0178914  78.4040538 107.7840243
  74.9909752  77.4727248 105.8196104  76.0110233  77.0891582 105.8414967
  74.0329752  76.3907248 106.2906104  73.0126054  76.7734253 106.2685561
  74.1100678  75.5249996 105.6328282  74.2882757  76.0967259 107.3086897
  74.6849752  77.8277248 104.3646104  73.6138904  78.0179897 104.2962190
  75.2313993  78.7419033 104.1326669  75.0689752  76.7467248 103.3776104
  74.5225652  75.8323084 103.6086484  74.8212622  77.0719319 102.3671759
  76.1400744  76.5562204 103.4450980  76.1439752  79.5927248 106.5756104
  77.2369752  79.1707248 106.9466104  76.0009752  80.7987248 106.0226104
  75.1051147  81.0894423 105.6578961  77.1379752  81.7177248 105.8896104
  77.7753237  81.6554215 106.7716560  77.9709752  81.3427248 104.6546104
  78.1402442  80.2674016 104.7105320  77.3536276  81.5680904 103.7850172
  79.3059752  82.0597248 104.5276104  79.7707714  81.7490604 103.5919005
  79.1141287  83.1323241 104.4988396  80.2389752  81.7427248 105.6866104
  79.8129364  82.1639376 106.5971979  80.3092242  80.6595616 105.7862202
  81.6219752  82.3197248 105.4626104  82.0495301  81.8638318 104.5696048
  81.5308479  83.3955039 105.3126297  82.5069752  82.0557248 106.6246104
  82.5918938  81.0589298 106.7634928  83.4200082  82.4501678 106.4488674
  82.1111898  82.4784467 107.4521122  76.6729752  83.1637248 105.7776104
  75.8549752  83.4687248 104.9206104  77.1799752  84.0267248 106.6626104
  77.7168068  83.6533633 107.4323587  77.0359752  85.4837248 106.5566104
  76.2346179  85.7182523 105.8559518  76.6999752  86.1077248 107.9086104
  77.5748600  85.9568116 108.5409878  76.5625855  87.1737957 107.7277321
  75.4719752  85.5507248 108.6036104  74.6174799  85.6714732 107.9377588
  75.6466713  84.4895241 108.7809056  75.1849752  86.2467248 109.9296104
  75.2649752  87.4927248 109.9896104  74.8699752  85.5467248 110.9136104
  78.3589752  86.0857248 106.1016104  79.4029752  85.7797248 106.6756104
  78.3129752  86.9557248 105.0976104  77.4311880  87.1429569 104.6420945
  79.5029752  87.6417248 104.6086104  80.3873599  87.3533769 105.1767815
  79.7579752  87.3467248 103.1166104  78.8764530  87.6402635 102.5466519
  80.9729752  88.1157248 102.6056104  81.8550382  87.8223572 103.1748215
  81.1298231  87.8891618 101.5510164  80.8031516  89.1857217 102.7254778
  79.9479752  85.8567248 102.9026104  79.0514899  85.3258943 103.2229776
  80.1272592  85.6609212 101.8454359  80.8018690  85.5113984 103.4854621
  79.3209752  89.1387248 104.8076104  78.4199752  89.7287248 104.2186104
  80.1649752  89.7287248 105.6566104  80.7373658  89.1414893 106.2462060
  80.2919752  91.1797248 105.7906104  79.3936538  91.6639113 105.4076206
  80.4729752  91.5757248 107.2636104  79.5721830  91.2763866 107.7993989
  81.3274858  91.0222381 107.6529228  80.7059752  93.0737248 107.4566104
  80.3379752  93.8727248 106.5686104  81.2629752  93.4587248 108.5056104
  81.5069752  91.5807248 104.9586104  82.6429752  91.3107248 105.3456104
  81.2629752  92.2337248 103.8246104  80.3099904  92.4742191 103.5920555
  82.3039752  92.4577248 102.8136104  82.9262280  91.5646761 102.7556038
  81.6779752  92.7437248 101.4206104  81.0344076  93.6191990 101.5070170
  82.7459752  93.0007248 100.3626104  83.3896938  92.1254512 100.2752990
  82.2677248  93.1965536  99.4029082  83.3448846  93.8641053 100.6524050
  80.8499752  91.5327248 100.9786104  81.5601389  90.7432188 100.7327473
  80.2557575  91.2305700 101.8409950  79.9369752  91.7747248  99.7976104
  80.5305626  92.0764882  98.9346546  79.3951718  90.8585249  99.5628212
  79.2261822  92.5638415 100.0429018  83.3419752  93.5157248 103.2376104
  84.4389752  93.5517248 102.6786104  83.0219752  94.3407248 104.2386104
  82.0744907  94.3642356 104.5876371  83.9979752  95.2817248 104.8076104
  84.5182379  95.7966438 103.9999691  83.3089752  96.3307248 105.6956104
  82.8025381  95.8110019 106.5089423  84.0962048  96.9642031 106.1043584
  82.3149752  97.1837248 104.9486104  82.7389752  98.0897248 103.9816104
  83.8058916  98.1829419 103.7788801  81.8309752  98.8657248 103.2816104
  82.1772007  99.5744900 102.5293594  80.4779752  98.7367248 103.5396104
  79.5759752  99.5017248 102.8386104  79.9943453 100.0851279 102.2012667
  80.0339752  97.8477248 104.4956104  78.9684400  97.7520567 104.7043750
  80.9479752  97.0747248 105.1916104  80.6015109  96.3663310 105.9441002
  85.1029752  94.5907248 105.6086104  86.2299752  95.0847248 105.6486104
  84.7759752  93.4687248 106.2506104  83.8555848  93.0769566 106.1109732
  85.6829752  92.8007248 107.2016104  86.6232599  93.3460123 107.2830071
  85.0339752  92.7277248 108.5966104  85.7175093  92.2214807 109.2782250
  84.7339752  94.1287248 109.1246104  84.0500869  94.6354548 108.4437132
  84.2759123  94.0554660 110.1109727  85.6614707  94.6967671 109.1965870
  83.8179752  91.9727248 108.5186104  83.4133278  91.9271143 109.3879667
  86.1319752  91.3817248 106.8306104  87.1489752  90.9217248 107.3456104
  85.3809752  90.6937248 105.9666104  84.5503344  91.1243941 105.5862697
  85.6629752  89.2937248 105.6166104  85.7844800  88.6583494 106.4938983
  84.5439752  88.6917248 104.7176104  83.5812294  88.8846051 105.1909146
  84.5549752  89.3057248 103.3156104  85.5173070  89.1128415 102.8414643
  83.7600015  88.8606737 102.7172402  84.3954631  90.3815390 103.3882833
  84.6519752  87.1727248 104.6416104  84.5572170  86.7507056 105.6421217
  83.8565857  86.7827257 104.0065074  85.6194431  86.8972929 104.2217962
  87.0329752  89.1137248 104.9426104  87.4959752  89.9867248 104.2076104
  87.6629752  87.9737248 105.2096104  87.2309460  87.3274306 105.8544003
  88.9579752  87.6187248 104.6376104  89.3353636  88.4388973 104.0268779
  89.9619752  87.3407248 105.7566104  89.5339062  86.5687450 106.3960659
  90.8731465  86.9632975 105.2924816  90.2899752  88.5657248 106.5926104
  90.8652036  89.2570686 105.9767720  89.3539263  89.0380355 106.8906659
  91.0889752  88.2057248 107.8276104  90.5163329  87.4956084 108.4241960
  92.0280653  87.7462601 107.5192251  91.3799752  89.4437248 108.6566104
  92.0546900  90.0868197 108.0915533  90.4414784  89.9690387 108.8337211
  92.0059752  89.0927248 109.9616104  92.8758357  88.6063278 109.7977186
  92.1858441  89.9366571 110.4865155  91.3807490  88.4971690 110.4855422
  88.8159752  86.3917248 103.7526104  87.8019752  85.6937248 103.7986104
  89.8459752  86.1347248 102.9536104  90.6261498  86.7759418 102.9372495
  89.8569752  85.0047248 102.0236104  88.9842197  85.0158956 101.3707152
  91.1359752  85.0137248 101.1426104  91.9987653  85.1534955 101.7938835
  91.2959752  83.7137248 100.3586104  90.4337225  83.5734889  99.7067247
  92.2027100  83.7617372  99.7555952  91.3659013  82.8763682 101.0529057
  91.1069752  86.1967248 100.1836104  91.0598957  87.1252623 100.7525600
  92.0091042  86.1913982  99.5718632  90.2311399  86.1212969  99.5391541
  89.7099752  83.6767248 102.7836104  88.9389752  82.8077248 102.3696104
  90.4269752  83.5407248 103.8986104  91.1123279  84.2443206 104.1338636
  90.3659752  82.3217248 104.7236104  90.5122305  81.4502004 104.0855243
  91.4509752  82.3177248 105.8196104  91.3428559  81.3691007 106.3454638
  92.4067096  82.3353233 105.2958145  91.4009752  83.4667248 106.8266104
  90.4001346  83.8973036 106.7946623  91.5780335  83.0328446 107.8107331
  92.4319752  84.5577248 106.5596104  92.6209752  84.9317248 105.3716104
  93.0429752  85.0487248 107.5406104  88.9819752  82.0087248 105.3346104
  88.7019752  80.8537248 105.6476104  88.1329752  83.0307248 105.4876104
  88.4603357  83.9669498 105.2967777  86.7479752  82.8577248 105.9616104
  86.7411516  82.2056977 106.8350595  86.1229752  84.2087248 106.3516104
  86.0864246  84.8204713 105.4502063  85.1086677  84.0191800 106.7028268
  86.9059752  84.9447248 107.4336104  87.4669752  84.2867248 108.3386104
  86.9519752  86.1937248 107.3786104  85.8369752  82.1917248 104.9256104
  84.7749752  81.6797248 105.2706104  86.2459752  82.2207248 103.6606104
  87.0957576  82.7167841 103.4328071  85.4699752  81.6387248 102.5686104
  84.4039658  81.7345582 102.7748602  85.7819752  82.3667248 101.2606104
  86.8009427  82.0552891 101.0308010  85.1067893  81.9968291 100.4889880
  85.7139752  83.9017248 101.3076104  86.4264612  84.2668629 102.0472986
  86.0519752  84.4887248  99.9456104  85.3395907  84.1243816  99.2054340
  85.9995567  85.5763438  99.9949850  87.0593239  84.1866725  99.6590558
  84.3479752  84.3817248 101.7726104  84.1475611  83.9958384 102.7721229
  84.3333403  85.4714030 101.7947098  83.5825277  84.0224699 101.0847696
  85.7059752  80.1287248 102.4286104  84.9979752  79.4657248 101.6756104
  86.6999752  79.5937248 103.1396104  87.4014322  80.2050076 103.5325364
  86.8349752  78.1537248 103.3566104  86.2386975  77.6120987 102.6223127
  88.3039752  77.6947248 103.2346104  88.9079345  78.2871511 103.9218982
  88.4599752  76.2147248 103.5676104  87.8566264  75.6215924 102.8803959
  89.5072278  75.9284041 103.4707518  88.1277294  76.0348366 104.5900357
  88.7649752  77.9227248 101.8966104  89.6784261  77.6375437 101.8199317
  86.2889752  77.8847248 104.7576104  86.8469752  78.3697248 105.7446104
  85.1909752  77.1327248 104.8446104  84.8327986  76.6625920 104.0255963
  84.4579752  76.9857248 106.1076104  85.1578889  76.9205123 106.9406575
  83.5429752  78.2017248 106.3286104  83.0991979  78.1744719 107.3238080
  84.1202706  79.1191369 106.2137840  82.4009752  78.2857248 105.3496104
  82.5929752  78.8297248 104.0856104  83.5805620  79.2012470 103.8122176
  81.5459752  78.9037248 103.1746104  81.7103235  79.3390553 102.1889240
  80.2899752  78.4227248 103.5206104  79.4677294  78.4768902 102.8071135
  80.0829752  77.8727248 104.7766104  79.0991941  77.4925158 105.0517758
  81.1329752  77.8067248 105.6856104  80.9716958  77.3771642 106.6743301
  83.6019752  75.7307248 106.1656104  83.3299752  75.0987248 105.1516104
  83.1679752  75.4087248 107.3766104  83.5759652  75.8794242 108.1716485
  82.1689752  74.3767248 107.6226104  81.6932773  74.1076361 106.6795293
  82.8019752  73.1127248 108.2326104  83.3507363  73.3968696 109.1305098
  81.7379752  72.0817248 108.5926104  81.1890668  71.7967286 107.6950713
  82.2154454  71.2004920 109.0210380  81.0476729  72.5098417 109.3194523
  83.6989752  72.5307248 107.2796104  84.0967596  71.7417387 107.6549355
  81.1099752  74.9677248 108.5486104  81.4419752  75.6657248 109.5016104
  79.8449752  74.7047248 108.2406104  79.6477915  74.1210983 107.4402367
  78.7209752  75.2317248 109.0056104  79.0816806  75.6776921 109.9324890
  77.9819752  76.3047248 108.2016104  77.9369419  75.9926546 107.1582105
  76.9701595  76.4032671 108.5948259  78.6459752  77.5497248 108.2926104
  78.1663332  78.2062404 107.7821884  77.7539752  74.1107248 109.3436104
  77.4809752  73.2627248 108.4966104  77.2169752  74.1107248 110.5776104
  77.5119752  75.0087248 111.7126104  77.3652652  76.0420336 111.3982073
  78.5478525  74.8668231 112.0207034  76.5349752  74.5837248 112.7736104
  75.7084671  75.2937567 112.8025603  77.0392025  74.5742933 113.7399267
  76.0649752  73.2137248 112.4036104  75.0305334  73.1430065 112.7398068
  76.6345486  72.3747374 112.8033429  76.1169752  73.1987248 110.8766104
  76.3286850  72.2202428 110.4455069  74.8259752  73.7457248 110.2826104
  74.7469752  74.9397248 110.0086104  73.8369752  72.8867248 110.0676104
  74.0233377  71.8941686 110.0534429  72.4919752  73.3447248 109.7206104
  72.3327210  74.3373043 110.1419454  72.2879752  73.4187248 108.1966104
  71.3083631  73.8294916 107.9522132  73.0645070  74.0576125 107.7759906
  72.3889752  72.0927248 107.4866104  71.2689752  71.2777248 107.3386104
  70.3152465  71.6065047 107.7514119  71.3559752  70.0607248 106.6756104
  70.4744451  69.4268247 106.5798191  72.5669752  69.6517248 106.1346104
  72.6400048  68.6999705 105.6083686  73.6859752  70.4587248 106.2656104
  74.6391882  70.1410924 105.8430055  73.5929752  71.6727248 106.9356104
  74.4721082  72.3095047 107.0342835  71.4089752  72.4977248 110.3876104
  71.6269752  71.3217248 110.6926104  70.2569752  73.1257248 110.6256104
  70.1918950  74.1025545 110.3772806  69.0859752  72.4817248 111.2176104
  69.1985307  71.3987366 111.1669440  68.9249752  72.8887248 112.6846104
  68.6617933  73.9446158 112.7472899  68.1404723  72.2910955 113.1488241
  70.3969752  72.6757248 113.7186104  69.8435209  73.1230651 114.8422087
  67.8619752  72.9327248 110.4256104  67.6089752  74.1347248 110.3216104
  67.1199752  71.9747248 109.8656104  67.3895003  71.0110961 110.0029980
  65.9339752  72.2577248 109.0346104  65.7578119  73.3323788 108.9878733
  66.1559752  71.7357248 107.6116104  66.2443819  70.6587558 107.7545133
  65.2586510  71.9523571 107.0319729  67.3869752  72.2537248 106.8596104
  68.2594622  72.1647970 107.5068809  67.6159752  71.4507248 105.5866104
  66.7440384  71.5395506 104.9385865  68.4943678  71.8342638 105.0675487
  67.7737075  70.4026229 105.8409789  67.2659752  73.7347248 106.5306104
  67.1638854  74.3053462 107.4536858  68.1583690  74.0631837 105.9978352
  66.3888874  73.8978458 105.9043457  64.6869752  71.6047248 109.6216104
  64.6549752  70.3827248 109.8126104  63.6669752  72.4177248 109.9046104
  63.7805051  73.4145386 109.7881091  62.3919752  71.9207248 110.4206104
  62.5678486  71.0318638 111.0264932  61.6969752  72.9717248 111.2856104
  62.4347613  73.3689084 111.9827590  61.3535750  73.7696247 110.6271790
  60.5139752  72.4117248 112.0636104  59.7617464  72.0543434 111.3603814
  60.8748633  71.5767992 112.6642444  59.8699752  73.4307248 112.9866104
  59.6669752  74.5867248 112.6146104  59.5309752  72.9977248 114.1926104
  59.0986314  73.6309017 114.8500807  59.7065620  72.0365980 114.4485517
  61.4699752  71.5147248 109.2786104  61.2109752  72.3027248 108.3736104
  60.9639752  70.2887248 109.3546104  61.2349384  69.7053078 110.1332649
  60.0579752  69.7297248 108.3516104  60.3328819  69.9983771 107.3316342
  60.0229752  68.1817248 108.4646104  59.8104492  67.9164543 109.5002568
  58.9589752  67.5777248 107.5576104  59.1711014  67.8421964 106.5216769
  58.9638146  66.4928808 107.6633959  57.9794319  67.9652083 107.8377050
  61.3959752  67.5817248 108.1586104  62.1281669  67.9682740 108.8675371
  61.3459836  66.4962463 108.2442658  61.6937669  67.8524025 107.1456176
  58.6469752  70.3007248 108.5406104  58.0729752  70.1617248 109.6196104
  58.0869752  70.9227248 107.4996104  58.6299077  71.0924888 106.6650423
  56.7299752  71.5067248 107.5846104  56.4691515  71.6713833 108.6300566
  56.6599752  72.8507248 106.8436104  55.8211336  73.3934124 107.2794248
  57.5887971  73.3724080 107.0743409  56.4839752  72.7727248 105.3346104
  57.1496972  72.0023021 104.9455553  55.4504939  72.5024488 105.1178863
  56.8099752  74.1087248 104.6716104  56.0430003  74.8290563 104.9561644
  57.7790672  74.4464801 105.0388726  56.8559752  73.9897248 103.1556104
  57.6681046  73.3138374 102.8877993  55.9088364  73.5720766 102.8141472
  57.0779752  75.3167248 102.5056104  57.9557714  75.7037037 102.8215549
  57.1028811  75.2003508 101.5026464  56.3253228  75.9430349 102.7532977
  55.5879752  70.5757248 107.1316104  54.4209752  70.8657248 107.4026104
  55.9109752  69.4727248 106.4546104  56.8758456  69.2895405 106.2188816
  54.8899752  68.5237248 105.9946104  54.0810725  68.4661847 106.7229404
  54.3079752  68.9807248 104.6506104  53.3271613  68.5156305 104.5516630
  54.1925178  70.0633165 104.7031915  55.1649752  68.6197248 103.4436104
  56.2078167  68.8027286 103.7026320  55.0239125  67.5594329 103.2338856
  54.8019752  69.4257248 102.2226104  53.7635576  69.2347881 101.9518133
  54.9332233  70.4875322 102.4310291  55.6539752  69.0617248 101.0946104
  56.1263979  68.1713448 101.1589511  55.8449752  69.8067248 100.0036104
  55.2389752  70.9897248  99.8566104  54.6238472  71.3320245 100.5808676
  55.3991829  71.5354911  99.0220014  56.6579752  69.3667248  99.0446104
  57.1221868  68.4759016  99.1496902  56.8064948  69.9259355  98.2167674
  55.4529752  67.1097248 105.8536104  56.6619752  66.9297248 105.7086104
  54.5599752  66.1197248 105.8606104  53.5950465  66.3211163 106.0807314
  54.9319752  64.7337248 105.5776104  55.7747726  64.4493471 106.2076271
  53.7679752  63.7767248 105.8556104  52.8986004  64.1073143 105.2872820
  54.0611202  62.7807398 105.5236766  53.3889752  63.7067248 107.3266104
  53.8919752  64.4617248 108.1526104  52.4859752  62.7957248 107.6546104
  52.1941785  62.7019691 108.6169847  52.0930824  62.1987266 106.9409373
  55.3489752  64.6197248 104.1076104  54.5919752  65.0037248 103.2096104
  56.5659752  64.1287248 103.8726104  57.1694847  63.8867631 104.6454818
  57.0809752  63.9707248 102.5176104  56.3509798  63.4379221 101.9082442
  57.3549752  65.3467248 101.8696104  56.8375785  66.1036663 102.4590503
  58.4293630  65.5255715 101.9120924  56.8839752  65.4217248 100.4196104
  56.8149752  64.3657248  99.7526104  56.5809752  66.5397248  99.9496104
  58.3569752  63.1377248 102.5016104  58.8869752  62.7767248 103.5536104
  58.8239752  62.8257248 101.2966104  58.2302305  62.9637158 100.4912999
  60.1549752  62.2717248 101.0866104  60.5200002  61.8288457 102.0132787
  60.1229752  61.1887248 100.0066104  59.9007933  61.6669143  99.0526349
  61.1203046  60.7505057  99.9692168  59.1099752  60.1077248 100.2736104
  59.4079752  59.0427248 101.1196104  60.3935740  58.9969590 101.5828598
  58.4739752  58.0497248 101.3766104  58.7161386  57.2178278 102.0379773
  57.2249752  58.1217248 100.7836104  56.2999752  57.1447248 101.0336104
  56.6238054  56.4651927 101.6294039  56.9029752  59.1707248  99.9426104
  55.9188679  59.2257612  99.4772028  57.8419752  60.1557248  99.6936104
  57.5967743  60.9882307  99.0341330  61.1009752  63.3987248 100.6676104
  60.7109752  64.2797248  99.8956104  62.3329752  63.3687248 101.1786104
  62.5656908  62.6581847 101.8576359  63.3469752  64.3767248 100.8516104
  62.9522142  65.1428256 100.1842631  63.8929752  65.0627248 102.1216104
  64.1174147  64.2915565 102.8585132  65.1539752  65.8697248 101.8306104
  64.9301976  66.6414432 101.0940813  65.5071284  66.3370116 102.7498635
  65.9271062  65.2082932 101.4396136  62.8179752  65.9547248 102.7296104
  61.9494353  65.3506294 102.9919257  63.2089295  66.4364416 103.6258265
  62.5253296  66.7162132 102.0067032  64.4749752  63.7357248 100.0456104
  65.0879752  62.7617248 100.4876104  64.7359752  64.3037248  98.8686104
  64.2108606  65.1266093  98.6093519  65.7099752  63.7717248  97.9126104
  66.0970015  62.8117012  98.2541724  65.0249752  63.5697248  96.5726104
  64.6348319  64.5092739  96.1812860  65.7389649  63.1501198  95.8639141
  63.8749752  62.6217248  96.6316104  62.5829752  63.0347248  96.8716104
  61.7809752  61.9867248  96.8716104  60.7094965  62.1069756  97.0315228
  62.5099752  60.9047248  96.6576104  62.1668544  59.9558830  96.6121437
  63.8239752  61.2757248  96.5046104  64.5859255  60.5187427  96.3188388
  66.9519752  64.6297248  97.6926104  67.9409752  64.1407248  97.1436104
  66.9059752  65.8987248  98.0956104  66.0808952  66.2598016  98.5527381
  68.0119752  66.8107248  97.8476104  68.9449822  66.2723095  98.0140620
  67.9739752  67.2797248  96.4076104  67.0495147  67.8285437  96.2279701
  68.8261362  67.9313862  96.2145837  68.0188936  66.4171735  95.7427143
  67.9979752  68.0117248  98.7716104  66.9419752  68.4317248  99.2556104
  69.1899752  68.5477248  99.0146104  70.0188231  68.0415370  98.7373299
  69.3549752  69.8397248  99.6576104  68.4770698  70.0545473 100.2668990
  70.5919752  69.8617248 100.5576104  71.3919649  69.5411456  99.8902689
  70.7461340  70.9047848 100.8339453  70.6009752  68.9947248 101.8166104
  70.5723734  67.9412349 101.5383266  71.8719752  69.2767248 102.6026104
  71.9010660  70.3299964 102.8816649  71.8869370  68.6623369 103.5028351
  72.7401948  69.0402496 101.9874888  69.3839752  69.2427248 102.6956104
  68.4775553  69.0145234 102.1348729  69.4356811  68.6039031 103.5772762
  69.3656432  70.2876571 103.0052544  69.5159752  70.8787248  98.5606104
  70.1139752  70.5997248  97.5206104  68.9909752  72.0737248  98.8096104
  68.5013156  72.2117698  99.6821219  69.0619752  73.1857248  97.8756104
  69.6528839  72.9258427  96.9973238  67.6589752  73.6147248  97.4146104
  67.0598486  73.8499259  98.2942847  67.7279752  74.8367248  96.5056104
  68.3265985  74.6021326  95.6254299  66.7212555  75.1168795  96.1955634
  68.1854762  75.6660808  97.0450203  66.9839752  72.4547248  96.6926104
  66.8993160  71.6046250  97.3695633  65.9895456  72.7587485  96.3658399
  67.5795972  72.1699465  95.8252946  69.7689752  74.3437248  98.5666104
  69.4609752  74.6557248  99.7156104  70.7229752  74.9577248  97.8636104
  70.9847549  74.5768624  96.9655488  71.4329752  76.1387248  98.3486104
  71.1556194  76.3468303  99.3819860  72.9349752  75.9207248  98.2836104
  73.2292892  75.7201968  97.2534319  73.4480367  76.8138641  98.6402198
  73.2068425  75.0714722  98.9104736  71.0439752  77.3517248  97.5156104
  70.8849752  77.2537248  96.2986104  70.8839752  78.4877248  98.1836104
  70.8871983  78.4651839  99.1933534  70.6369752  79.7707248  97.5176104
  71.1807008  79.8053797  96.5735443  69.1399752  79.9527248  97.2286104
  69.0328088  80.8412386  96.6063903  68.8378007  79.0731288  96.6601902
  68.2629752  80.0867248  98.4536104  68.0529752  81.3247248  99.0496104
  68.5352248  82.2016852  98.6177825  67.2479752  81.4577248 100.1726104
  67.0981229  82.4339484 100.6337324  66.6299752  80.3397248 100.7036104
  65.8319752  80.4727248 101.8116104  65.7769915  81.3774704 102.1278567
  66.8169752  79.0987248 100.1276104  66.3345709  78.2170194 100.5494896
  67.6249752  78.9777248  99.0046104  67.7686891  78.0026627  98.5390995
  71.1769752  80.9097248  98.3856104  71.5009752  80.6967248  99.5546104
  71.2629752  82.1117248  97.8236104  70.9909941  82.2417795  96.8596543
  71.8159752  83.2557248  98.5486104  71.8223676  83.0432097  99.6176734
  73.2569752  83.5457248  98.0966104  73.6799604  84.3561365  98.6902564
  73.8704887  82.6523202  98.2129269  73.3719752  83.9617248  96.6576104
  73.2849752  85.2997248  96.3016104  73.1351838  86.0482571  97.0796604
  73.3859752  85.6887248  94.9776104  73.3071481  86.7425400  94.7104768
  73.5869752  84.7397248  93.9936104  73.6753871  85.0448117  92.9509191
  73.6759752  83.4017248  94.3326104  73.8301116  82.6507271  93.5577913
  73.5689752  83.0167248  95.6586104  73.6392460  81.9627435  95.9274698
  70.9739752  84.5067248  98.3986104  70.2349752  84.6607248  97.4236104
  71.0949752  85.3887248  99.3866104  71.5974765  85.1110592 100.2175699
  70.5179752  86.7267248  99.3426104  69.9215029  86.8355283  98.4368059
  69.6169752  86.9807248 100.5556104  70.2184914  86.8887425 101.4599427
  69.2210804  87.9938073 100.4846797  68.4499752  86.0077248 100.6466104
  68.2759752  85.1277248  99.7946104  67.6399752  86.1607248 101.6886104
  66.8477160  85.5448555 101.8031971  67.8202167  86.8921972 102.3613376
  71.6499752  87.7507248  99.3116104  72.7539752  87.4877248  99.7976104
  71.3569752  88.9137248  98.7336104  70.4372240  89.0206721  98.3302257
  72.2939752  90.0327248  98.6306104  73.2022348  89.8649427  99.2094133
  72.6629752  90.2587248  97.1486104  71.7432565  90.2198937  96.5649068
  73.3549752  91.5907248  96.9146104  74.2750804  91.6301165  97.4976674
  73.5915202  91.6968186  95.8558889  72.6955446  92.4023127  97.2221416
  73.5439752  89.1117248  96.6426104  73.0218536  88.1865290  96.8865419
  73.6045471  89.2194544  95.5596400  74.9419752  89.0707248  97.2246104
  74.8822180  88.9625334  98.3075802  75.4861405  88.2246403  96.8049387
  75.4649109  89.9954604  96.9806800  71.6159752  91.2657248  99.2246104
  70.4189752  91.4677248  99.0036104  72.3819752  92.0757248  99.9596104
  73.3511192  91.8291950 100.1013229  71.8669752  93.2837248 100.6186104
  70.9246228  93.5828652 100.1597139  71.6229752  93.0157248 102.1096104
  72.5595614  92.6364091 102.5182975  71.3900465  93.9768991 102.5678550
  70.5019752  92.0267248 102.4066104  69.5809587  92.4160988 101.9727702
  70.7634467  91.0871694 101.9198173  70.2989752  91.7867248 103.8966104
  69.7049752  92.6577248 104.5656104  70.7209752  90.7237248 104.4016104
  72.8289752  94.4687248 100.4476104  74.0469752  94.3157248 100.5946104
  72.2669752  95.6387248 100.1346104  71.2712031  95.6563712  99.9666050
  73.0089752  96.8927248 100.0316104  74.0797496  96.6912786 100.0006118
  72.6129752  97.6337248  98.7506104  71.5442392  97.8473391  98.7341335
  73.1706889  98.5690017  98.7025200  72.9219752  96.8817248  97.4816104
  72.1109752  95.8267248  97.0596104  71.2490031  95.5435873  97.6637107
  72.3909752  95.1417248  95.8876104  71.7549838  94.3127026  95.5772269
  73.4809752  95.5107248  95.1086104  73.7010712  94.9754467  94.1849573
  74.2899752  96.5637248  95.5096104  75.1475678  96.8566831  94.9039615
  74.0049752  97.2457248  96.6866104  74.6337331  98.0793552  96.9993783
  72.6249752  97.7107248 101.2656104  71.6949752  98.5127248 101.2226104
  73.3379752  97.4867248 102.3686104  74.1431356  96.8790609 102.3180057
  72.9499752  98.0267248 103.6876104  71.8783561  97.9045982 103.8451437
  73.7019752  97.3267248 104.8426104  73.3881913  97.7758183 105.7849240
  73.4039752  95.8297248 104.8686104  73.7179342  95.3798254 103.9267399
  73.9469634  95.3648839 105.6915235  72.3339496  95.6740749 105.0061565
  75.1119752  97.5337248 104.6996104  75.5740558  97.0972165 105.4190147
  73.1359752  99.5457248 103.8476104  72.5519752 100.1397248 104.7576104
  73.9439752 100.1627248 102.9826104  74.4736999  99.6179821 102.3172184
  74.1189752 101.6247248 102.9846104  74.3337748 101.9604241 103.9991380
  75.2789752 102.0557248 102.0676104  74.9703061 101.7855606 101.0577421
  75.3321518 103.1411049 102.1525946  76.6529752 101.4547248 102.3576104
  76.6075715 100.3918499 102.1202577  77.3741473 101.9424496 101.7017617
  77.0839752 101.6327248 103.8066104  78.1728178 101.6167549 103.8542113
  76.7191540 102.5947617 104.1664573  76.5619752 100.5797248 104.6746104
  76.1261715  99.7929248 104.2151321  76.6249752 100.5837248 106.0056104
  77.1909752 101.5927248 106.6666104  77.5811487 102.3715569 106.1554498
  77.2272444 101.5741019 107.6757870  76.1079752  99.5637248 106.6836104
  75.6743407  98.7988911 106.1865283  76.1512059  99.5583266 107.6926697
  72.8549752 102.3597248 102.5326104  72.6369752 103.5007248 102.9266104
  72.0369752 101.7087248 101.7036104  72.2800319 100.7737139 101.4090303
  70.8399752 102.3287248 101.1296104  71.1089268 103.2552128 100.6222800
  70.1879752 101.3847248 100.1126104  69.9113297 100.4436895 100.5880251
  69.3012919 101.8458662  99.6775917  71.2609752 100.9477248  98.7206104
  70.3790495 100.1647789  98.1057113  69.8059752 102.7667248 102.1766104
  69.6689752 102.1517248 103.2326104  69.0879752 103.8387248 101.8496104
  69.2676704 104.2735975 100.9559132  68.1029752 104.4587248 102.7376104
  68.5436280 104.6570541 103.7146415  67.6399752 105.7887248 102.1296104
  68.4943611 106.4629267 102.0698128  67.2260714 105.6382414 101.1325455
  66.5899752 106.4977248 102.9266104  66.6979752 106.7147248 104.2856104
  65.6329752 107.3737248 104.7096104  65.5267933 107.6381539 105.7617043
  64.8419752 107.5977248 103.6756104  63.9561550 108.0823771 103.6987296
  65.4189752 107.0617248 102.5476104  64.9154008 107.1472368 101.5846973
  66.9159752 103.5237248 102.9916104  66.5429752 103.2867248 104.1436104
  66.3279752 103.0177248 101.9096104  66.5552169 103.4022970 101.0037601
  65.3559752 101.9217248 101.9756104  64.7791462 102.0092191 102.8963233
  64.3849752 101.9497248 100.7826104  64.9818933 102.2179565  99.9109225
  64.0137718 100.9312307 100.6686902  63.2079752 102.9077248 100.9056104
  62.7629988 102.7978690 101.8945637  63.5674241 103.9291708 100.7809242
  62.1569752 102.6037248  99.8376104  62.6069112 102.7915489  98.8627367
  61.8934608 101.5491532  99.9184710  60.8999752 103.4547248  99.9896104
  60.1132483 103.0073630  99.3821330  60.6035931 103.4358178 101.0383713
  61.1169752 104.8647248  99.5606104  61.3911997 104.8824949  98.5887128
  60.2611991 105.3880075  99.6786033  61.8456419 105.2795766 100.1236752
  66.1009752 100.5897248 101.9666104  67.2639752 100.5147248 101.5516104
  65.4119752  99.5427248 102.4166104  64.5205865  99.6972392 102.8656658
  65.9069752  98.1687248 102.3106104  66.8814338  98.0853094 102.7918293
  64.9359752  97.2047248 103.0006104  64.8699908  97.5319861 104.0382256
  63.9711432  97.3460467 102.5135505  65.3169752  95.7237248 102.9566104
  65.6758289  95.4849771 101.9554489  66.1133630  95.5463185 103.6793798
  64.1209752  94.8397248 103.2916104  64.4009531  93.7927246 103.1754125
  63.8141210  95.0210643 104.3216861  62.9829752  95.1247248 102.4036104
  63.2256742  95.4377051 101.4745034  61.6859752  95.0077248 102.7206104
  60.7639752  95.3187248 101.8106104  61.0492370  95.6378591 100.8957995
  59.7839637  95.2339388 102.0397136  61.2859752  94.5897248 103.9256104
  61.9720369  94.3516511 104.6275651  60.2995049  94.5138686 104.1286394
  66.0509752  97.8237248 100.8256104  65.0909752  97.9347248 100.0646104
  67.2579752  97.4247248 100.4326104  67.9728617  97.2834682 101.1319553
  67.6049752  97.1997248  99.0336104  66.7019659  97.0890312  98.4332603
  68.4259752  98.3837248  98.4766104  69.3572200  98.4531271  99.0388086
  68.7379752  98.1997248  97.0016104  67.8071524  98.1307022  96.4386678
  69.3165125  99.0511213  96.6431167  69.3144884  97.2851113  96.8629911
  67.6879752  99.6007248  98.6506104  68.1981513 100.3365958  98.3044680
  68.4129752  95.9147248  98.9206104  69.4099752  95.7397248  99.6176104
  67.9819752  95.0237248  98.0366104  67.1943940  95.2441461  97.4439642
  68.6139752  93.7197248  97.8886104  69.5541350  93.8494701  97.3525461
  68.8150138  93.3177005  98.8816156  67.7459752  92.7437248  97.1296104
  66.6769752  93.1037248  96.6386104  68.2169752  91.5087248  97.0136104
  69.1741149  91.3036714  97.2624800  67.4169752  90.4477248  96.4006104
  66.3763779  90.5628910  96.7039142  67.4899752  90.4957248  94.8546104
  66.7621882  89.8261738  94.3962145  67.2834028  91.5210246  94.5477095
  68.8359752  90.1337248  94.2736104  69.2059752  88.8007248  94.0966104
  68.5129308  88.0141809  94.3951703  70.4399752  88.4687248  93.5476104
  70.7214859  87.4222632  93.4302620  71.3119752  89.4697248  93.1496104
  72.2812396  89.2162811  92.7202006  70.9469752  90.7967248  93.2996104
  71.6288533  91.5860991  92.9833342  69.7129752  91.1237248  93.8526104
  69.4237157  92.1691353  93.9600609  67.7739752  89.0657248  96.9286104
  68.8649752  88.8447248  97.4486104  66.8229752  88.1497248  96.7796104
  65.9359132  88.4410954  96.3944826  66.9869752  86.7517248  97.1556104
  67.9438552  86.6052936  97.6566472  65.8649752  86.3437248  98.1146104
  65.9510947  86.9438169  99.0204648  64.9088717  86.5488408  97.6330573
  65.9389752  84.9717248  98.4496104  65.2235939  84.7499385  99.0501436
  66.9449752  85.8897248  95.9016104  66.2289752  86.2107248  94.9516104
  67.7119752  84.8017248  95.9066104  68.3853256  84.6828675  96.6499620
  67.6549752  83.7857248  94.8516104  67.0998911  84.1638187  93.9931084
  69.0739752  83.3867248  94.3856104  68.9867387  82.6224956  93.6133127
  69.8199752  84.5837248  93.8296104  69.9080179  85.3482431  94.6015300
  70.8151342  84.2754712  93.5090836  69.2738828  84.9892872  92.9779046
  69.8119752  82.8397248  95.4836104  70.6915205  82.5942855  95.1873672
  66.9039752  82.5287248  95.3156104  67.1179752  81.4527248  94.7696104
  66.0029752  82.6637248  96.2896104  65.8230118  83.5693211  96.6990097
  65.2849752  81.5037248  96.8256104  65.9920947  80.6942855  97.0069645
  64.5769752  81.8417248  98.1456104  64.4665350  80.9250227  98.7248853
  65.1944896  82.5487761  98.6995549  63.3019752  82.4097248  97.9146104
  62.8839451  82.6102498  98.7552294  64.2549752  80.9787248  95.8196104
  63.8099752  81.7277248  94.9406104  63.8599752  79.6977248  95.9526104
  64.4829752  78.6557248  96.7926104  64.2200844  78.8272745  97.8364300
  65.5662007  78.6993482  96.6793909  63.9039752  77.3847248  96.2556104
  63.8390772  76.6394939  97.0484019  64.5280702  77.0019741  95.4480779
  62.5599752  77.7597248  95.7536104  61.8372229  77.8117359  96.5678726
  62.1969916  77.0721787  94.9896582  62.7639752  79.1507248  95.1496104
  63.1139512  79.1087887  94.1181762  61.4609752  79.9667248  95.2156104
  60.7409752  80.0547248  94.2156104  61.1759752  80.5567248  96.3766104
  61.7590717  80.3665424  97.1790620  59.9799752  81.3947248  96.5656104
  59.1428604  80.9832382  96.0016807  59.5989752  81.4367248  98.0436104
  60.4870043  81.7019459  98.6173363  58.8374818  82.2049784  98.1778270
  59.0629752  80.1037248  98.5296104  58.1162082  79.9310538  98.0178314
  59.7735303  79.3257724  98.2503242  58.8409752  80.0697248 100.0236104
  59.8309752  79.8647248 100.7646104  57.6719752  80.2347248 100.4526104
  60.0919752  82.8187248  96.0126104  59.0819752  83.5017248  95.8796104
  61.3099752  83.2637248  95.7066104  62.1072634  82.6752812  95.9019691
  61.5479752  84.5797248  95.1096104  60.8150935  85.2979249  95.4772680
  62.9409752  85.0697248  95.4856104  63.6826075  84.4601746  94.9693456
  63.0467039  86.1094433  95.1759221  63.1399752  84.9717248  96.8806104
  64.0207319  85.2837268  97.1008880  61.4319752  84.5157248  93.5846104
  61.5349752  83.4287248  93.0126104  61.2319752  85.6757248  92.9146104
  60.9209752  86.9987248  93.4966104  61.8278840  87.4245413  93.9259086
  60.1706483  86.8799899  94.2782820  60.4099752  87.7897248  92.3286104
  60.6554618  88.8435467  92.4601197  59.3287593  87.6761213  92.2500756
  61.0919752  87.2177248  91.1366104  62.0879392  87.6438968  91.0160609
  60.5186150  87.3711018  90.2223713  61.1999752  85.7167248  91.4416104
  60.3206752  85.1540936  91.1279612  62.4449752  85.1387248  90.7606104
  63.4969752  85.0017248  91.3896104  62.3209752  84.8307248  89.4716104
  61.4279997  84.9441883  89.0135493  63.4259752  84.2627248  88.7036104
  63.7152784  83.3065105  89.1395658  63.0289752  84.0337248  87.2376104
  62.1815778  83.3484106  87.2566195  62.7179521  84.9832873  86.8020697
  64.1489752  83.4327248  86.3976104  64.4059752  82.0617248  86.4236104
  63.7845040  81.4215956  87.0497954  65.4339752  81.5087248  85.6686104
  65.6121545  80.4335462  85.6871857  66.2299752  82.3307248  84.8826104
  67.2479752  81.7757248  84.1436104  67.3121037  80.8236900  84.2490473
  66.0079752  83.6987248  84.8476104  66.6344191  84.3455145  84.2333371
  64.9759752  84.2447248  85.6046104  64.7982893  85.3200252  85.5885828
  64.6979752  85.1157248  88.7446104  64.6529752  86.3467248  88.7796104
  65.8229752  84.4137248  88.7086104  65.7425894  83.4069610  88.7166238
  67.1489752  84.9967248  88.7016104  67.1600948  85.9524172  88.1775612
  67.5979752  85.2307248  90.1706104  66.9999343  84.5837589  90.8123911
  69.0209752  84.9407248  90.3746104  69.6197092  85.5876727  89.7334587
  69.2830551  85.1202333  91.4172944  69.2193287  83.8984150  90.1249170
  67.3639752  86.5877248  90.5606104  67.6470831  86.7128521  91.4693422
  68.0429752  83.9947248  87.9396104  67.8529752  82.7767248  88.0696104
  69.0169752  84.4837248  87.1726104  69.1486364  85.4813476  87.0859311
  69.8359752  83.5957248  86.3306104  69.1891157  82.8917489  85.8070744
  70.6279752  84.3967248  85.2936104  70.8998978  83.7480422  84.4609231
  70.0317429  85.2309629  84.9239433  71.8999752  84.9787248  85.8146104
  71.9289752  86.0697248  86.6536104  71.1119055  86.5647177  86.9814499
  73.1829752  86.3567248  86.9536104  73.4203573  87.1922694  87.6121041
  73.9649752  85.4917248  86.3366104  74.9738981  85.4697748  86.3777539
  73.1869752  84.6157248  85.6216104  73.6542323  83.8171788  85.0453323
  70.7689752  82.6567248  87.1206104  71.2439752  81.6627248  86.5726104
  71.0529752  82.9997248  88.3766104  70.8523874  83.9442124  88.6729329
  71.6879752  82.0847248  89.3416104  72.6126412  81.6914868  88.9191699
  72.0179752  82.8137248  90.6496104  71.1837297  83.4316948  90.9816447
  72.2658979  82.0908593  91.4268491  73.1799752  83.7087248  90.5206104
  74.4809752  83.3287248  90.4186104  74.6843023  82.2580393  90.4383725
  75.2839752  84.4267248  90.3086104  76.2898544  84.4141784  90.2183369
  74.5029752  85.5487248  90.3336104  74.8589752  86.8867248  90.2496104
  75.9149302  87.1347223  90.1421165  73.8509752  87.8217248  90.3076104
  74.0942623  88.8826901  90.2504788  72.5069752  87.4377248  90.4396104
  71.7074377  88.1771570  90.4852088  72.1609752  86.1037248  90.5156104
  71.1054384  85.8571554  90.6302676  73.1689752  85.1337248  90.4606104
  70.8519752  80.8597248  89.6866104  71.4129752  79.8167248  90.0146104
  69.5259752  81.0067248  89.6526104  69.1545300  81.9322473  89.4928111
  68.5849752  79.9217248  89.9516104  67.5668121  80.3108800  89.9527212
  68.6829752  78.8037248  88.8986104  69.6168242  78.2693196  89.0730708
  67.8428769  78.1278104  89.0582177  68.6539752  79.3167248  87.4746104
  67.6980126  79.8180852  87.3233689  69.4633832  80.0387802  87.3669222
  68.8169752  78.2167248  86.4416104  69.7595222  77.6952176  86.6081471
  67.9914295  77.5100458  86.5263362  68.8169752  78.8317248  85.0496104
  67.8187513  79.2212366  84.8497852  69.5350411  79.6517174  85.0399762
  69.1799752  77.8457248  84.0056104  68.5144738  77.0860302  84.0140829
  69.1678713  78.2938523  83.1005495  70.1050913  77.4849880  84.1903488
  68.8239752  79.4307248  91.3856104  68.9659752  80.2577248  92.2906104
  68.8389752  78.1117248  91.5976104  68.5012713  77.4983082  90.8697536
  69.2919752  77.5147248  92.8516104  69.8234793  78.2614680  93.4415063
  68.1069752  76.9997248  93.6686104  67.5645166  76.3043157  93.0281074
  68.5244797  76.4599053  94.5185427  67.1509752  78.0797248  94.1716104
  66.6404191  77.7024661  95.0576742  67.7516031  78.9484281  94.4412448
  66.1029752  78.5097248  93.1516104  65.5549752  77.6857248  92.4246104
  65.8139752  79.8067248  93.1066104  65.1264287  80.1452489  92.4487482
  66.2833108  80.4474992  93.7304963  70.2529752  76.3757248  92.5386104
  70.3519752  75.9447248  91.3896104  70.9649752  75.9077248  93.5616104
  70.8754035  76.3565329  94.4619701  71.9049752  74.7997248  93.4316104
  71.9757544  74.5047542  92.3846711  73.3039752  75.1997248  93.9246104
  73.2450109  75.4411980  94.9858899  74.3009752  74.0677248  93.7166104
  74.3608316  73.8259900  92.6554407  75.2829822  74.3774915  94.0741102
  73.9737992  73.1882292  94.2711768  73.7479752  76.3487248  93.1916104
  74.6222399  76.6037866  93.4952633  71.3809752  73.6077248  94.2226104
  71.1089752  73.7307248  95.4086104  71.2689752  72.4637248  93.5496104
  71.6677513  72.4326851  92.6221873  70.6199752  71.2597248  94.0656104
  70.1209525  71.4259172  95.0203122  69.5769752  70.7307248  93.0466104
  70.0863910  70.5272778  92.1046953  68.9029752  69.4527248  93.5476104
  68.3929248  69.6555103  94.4893256  68.1783557  69.1099540  92.8090068
  69.6565531  68.6804863  93.7021090  68.5429752  71.8057248  92.7446104
  69.0394812  72.6802815  92.3242126  67.8170208  71.4212773  92.0281678
  68.0307785  72.0866724  93.6648407  71.6739752  70.1807248  94.2966104
  72.3799752  69.8087248  93.3656104  71.7679752  69.6847248  95.5326104
  71.1757682  70.0717487  96.2534451  72.6819752  68.6007248  95.8936104
  73.3889952  68.4302269  95.0817284  73.4649752  68.9537248  97.1566104
  72.7941177  69.1343595  97.9965035  74.1309631  68.1247180  97.3960012
  74.3279752  70.1737248  97.0266104  73.7809752  71.4487248  97.1606104
  72.7122753  71.5520051  97.3485292  74.5789752  72.5777248  97.0576104
  74.1383553  73.5696291  97.1580131  75.9389752  72.4437248  96.8266104
  76.5689399  73.3291738  96.7416135  76.4979752  71.1807248  96.7036104
  77.5684709  71.0724075  96.5292355  75.6939752  70.0547248  96.8026104
  76.1324374  69.0616371  96.7044894  71.8729752  67.3337248  96.1556104
  71.1549752  67.2507248  97.1556104  71.9899752  66.3487248  95.2646104
  72.5244947  66.4909285  94.4195268  71.2959752  65.0707248  95.4406104
  70.3022227  65.2565554  95.8480684  71.1479752  64.3137248  94.1106104
  72.1102132  64.3588525  93.6005508  70.9101816  63.2762489  94.3455529
  70.0759752  64.8847248  93.2136104  68.7429752  64.9087248  93.6236104
  68.4887534  64.5006775  94.6018579  67.7519752  65.4367248  92.8156104
  66.7148213  65.4541578  93.1504382  68.0869752  65.9457248  91.5706104
  67.1059752  66.4657248  90.7696104  66.2342671  66.4250905  91.1697022
  69.4009752  65.9317248  91.1356104  69.6650081  66.3348038  90.1579016
  70.3859752  65.3987248  91.9556104  71.4225006  65.3772017  91.6190810
  71.9969752  64.1827248  96.4616104  73.2249752  64.1307248  96.5246104
  71.1919752  63.4867248  97.2536104  70.1969673  63.6492923  97.1933575
  71.6709752  62.4777248  98.1866104  72.6855447  62.7131467  98.5080518
  70.7659752  62.4437248  99.4146104  69.7856085  62.1172613  99.0676207
  71.1823359  61.6920197 100.0851947  70.6269752  63.7627248 100.1566104
  71.3739975  63.7789538 100.9502068  70.8317269  64.5662404  99.4491209
  68.9869752  64.0097248 100.8786104  68.8259752  62.5547248 101.9036104
  69.6253400  62.5413254 102.6445121  67.8613612  62.5719311 102.4108819
  68.8928844  61.6621884 101.2815146  71.6079752  61.1277248  97.4826104
  70.7839752  60.9407248  96.5856104  72.4669752  60.1937248  97.8896104
  73.1959860  60.4386464  98.5443287  72.4349752  58.8217248  97.3636104
  72.5192966  58.8432724  96.2770908  73.5979752  57.9947248  97.9296104
  74.5165142  58.4316438  97.5378361  73.5727463  58.1138896  99.0127832
  73.5519752  56.5067248  97.5796104  72.8668286  56.0274550  98.2788782
  73.1623303  56.4103138  96.5662097  74.9139752  55.8357248  97.6646104
  75.6839752  55.9357248  96.6816104  75.2139752  55.2037248  98.7066104
  71.0939752  58.1517248  97.6756104  70.4199752  57.6457248  96.7806104
  70.7279752  58.1657248  98.9536104  71.3867098  58.5146602  99.6350884
  69.4479752  57.6487248  99.4296104  68.9958641  57.0040407  98.6759014
  69.6729752  56.8267248 100.7076104  70.1475405  57.4796532 101.4401208
  68.7013984  56.5057612 101.0832709  70.5539752  55.6057248 100.4696104
  70.2669752  54.8417248  99.5216104  71.5279752  55.4017248 101.2316104
  68.5019752  58.8357248  99.6576104  68.8119752  59.9507248  99.2436104
  67.3499752  58.5947248 100.2806104  67.1304684  57.6471402 100.5526389
  66.3639752  59.6427248 100.5566104  66.8150182  60.6231462 100.4035308
  65.1589752  59.5067248  99.6206104  64.4770771  60.3253360  99.8508059
  65.5346537  59.6224507  98.6039624  64.4219752  58.1867248  99.7396104
  64.8179752  57.0747248  98.9976104  65.6678157  57.1717015  98.3219876
  64.1519752  55.8597248  99.1066104  64.4760905  54.9980469  98.5230333
  63.0699752  55.7487248  99.9616104  62.4039752  54.5507248 100.0666104
  62.7736094  53.8655755  99.5048803  62.6559752  56.8367248 100.7126104
  61.8063229  56.7473001 101.3895111  63.3299752  58.0467248 100.5996104
  63.0087569  58.9064840 101.1876010  65.9129752  59.5607248 102.0056104
  66.0809752  58.5257248 102.6526104  65.3509752  60.6577248 102.5046104
  65.3424653  61.5028146 101.9515733  64.7399752  60.6917248 103.8296104
  65.1032885  59.8500162 104.4192114  65.0859752  61.9867248 104.5626104
  64.5452934  62.7348404 103.9828817  64.6556676  61.9215208 105.5619521
  66.5529752  62.3877248 104.6666104  66.9849037  62.4206610 103.6663835
  66.6819752  63.7557248 105.3196104  66.2506503  63.7234499 106.3201183
  67.7350458  64.0288246 105.3871356  66.1527849  64.4964309 104.7201003
  67.3549752  61.3457248 105.4306104  67.2923916  60.3878777 104.9141691
  68.3972862  61.6593286 105.4884178  66.9509020  61.2420474 106.4376232
  63.2299752  60.6007248 103.6996104  62.6639752  61.0737248 102.7186104
  62.5939752  59.9957248 104.6986104  63.1431016  59.4934741 105.3814749
  61.1429752  60.0187248 104.8586104  60.6828127  60.5015820 103.9965208
  60.5669752  58.5957248 104.9916104  60.8980726  58.1710301 105.9392967
  59.0389752  58.6177248 104.9496104  58.7071054  59.0418918 104.0019584
  58.6576788  57.6010963 105.0454161  58.6611159  59.2258971 105.7714676
  61.0589752  57.7837248 103.9216104  60.7012523  56.8965516 104.0025939
  60.8689752  60.8197248 106.1276104  61.2649752  60.4107248 107.2116104
  60.1999752  61.9597248 105.9886104  59.8299789  62.2188136 105.0852417
  60.0469752  62.9037248 107.0986104  60.4431377  62.4947027 108.0280486
  60.7469752  64.2537248 106.8146104  60.5392413  64.9415132 107.6343012
  62.2499752  64.0547248 106.6886104  62.4585296  63.3673653 105.8687671
  62.7284655  65.0134994 106.4888637  62.6413217  63.6405263 107.6177978
  60.2029752  64.9327248 105.5626104  59.1370574  65.1240160 105.6864202
  60.7249890  65.8764460 105.4045234  60.3574011  64.2838381 104.7005201
  58.5849752  63.1437248 107.4346104  57.7149752  62.9887248 106.5786104
  58.3379752  63.5097248 108.6916104  59.1009241  63.4916617 109.3531859
  57.0159752  63.9077248 109.1696104  56.3040579  63.8750369 108.3448654
  56.5289752  62.9687248 110.2726104  57.2873693  62.9656320 111.0555076
  55.6016977  63.3839585 110.6673728  56.2849752  61.5457248 109.7986104
  55.7321936  61.5936026 108.8603988  57.2540805  61.0778704 109.6252629
  55.4979752  60.7227248 110.8096104  55.6571769  59.6677763 110.5863672
  55.8850026  60.9455900 111.8039143  54.0109752  61.0307248 110.7646104
  53.8622788  62.0721909 111.0498091  53.6546291  60.8791408 109.7457194
  53.2509752  60.1497248 111.6916104  53.5807257  60.2903468 112.6358507
  52.2679643  60.3760738 111.6410573  53.3882825  59.1846547 111.4272516
  57.0679752  65.3327248 109.6956104  58.1219752  65.8007248 110.1396104
  55.9209752  66.0087248 109.6486104  55.1085788  65.5467909 109.2655589
  55.7809752  67.3927248 110.1076104  56.3361903  68.0752059 109.4641394
  54.2989752  67.8197248 110.1166104  53.7970936  67.3137617 110.9413627
  54.1569752  69.3347248 110.2856104  54.6582470  69.8413952 109.4609218
  53.1005440  69.6031403 110.2879252  54.6108956  69.6397848 111.2284758
  53.6739752  67.4067248 108.8956104  52.7516585  67.6729729 108.9022564
  56.3429752  67.5777248 111.5166104  56.0649752  66.7747248 112.4036104
  57.1539752  68.6177248 111.6996104  57.3681969  69.2161356 110.9146818
  57.7539752  68.9347248 112.9996104  57.8489509  70.0198538 113.0392810
  57.0424088  68.6048890 113.7565654  59.1109752  68.3077248 113.2886104
  59.7869752  68.7197248 114.2266104  59.5209752  67.3217248 112.4936104
  58.9055062  66.9698832 111.7742324  60.8149752  66.6697248 112.6776104
  61.0223963  66.5548699 113.7415108  60.8149752  65.2857248 112.0276104
  60.6002885  65.4127760 110.9665417  61.8103428  64.8580347 112.1477128
  59.7849752  64.3527248 112.6446104  59.9509653  64.3323630 113.7217053
  58.8063674  64.7852641 112.4364383  59.8389752  62.9397248 112.0986104
  59.5219752  62.0047248 112.8616104  60.1779752  62.7477248 110.9136104
  61.9289752  67.5497248 112.1206104  61.6639752  68.5357248 111.4266104
  63.1699752  67.1847248 112.4286104  63.3283025  66.2751789 112.8381932
  64.3149752  68.0717248 112.2496104  64.0385766  68.9360481 111.6457493
  64.7859752  68.5657248 113.6286104  63.8845761  68.7395130 114.2162978
  65.3544915  67.7470330 114.0697827  65.6399752  69.8317248 113.6206104
  66.0680219  69.9509412 114.6159316  66.4391098  69.6545010 112.9008362
  64.8849752  71.0967248 113.2386104  63.6589752  71.1917248 113.4816104
  65.5369752  72.0177248 112.7036104  65.4509752  67.3657248 111.5036104
  65.9649752  66.3517248 111.9736104  65.8219752  67.8967248 110.3356104
  65.3041664  68.6781239 109.9595935  66.9509752  67.3757248 109.5626104
  67.1207033  66.3296894 109.8177606  66.7469752  67.5067248 108.0366104
  66.6901399  68.5630297 107.7737605  67.9139752  66.8567248 107.2876104
  67.9711668  65.8002284 107.5496129  67.7574862  66.9562043 106.2134988
  68.8450512  67.3504531 107.5658711  65.4149752  66.8737248 107.5996104
  65.5289261  65.7939476 107.6955124  64.6530936  67.2215308 108.2972255
  64.9949752  67.2137248 106.1816104  65.7561989  66.8657896 105.4833415
  64.0462452  66.7265823 105.9564375  64.8803687  68.2933738 106.0850542
  68.1879752  68.1567248 109.9746104  68.1999752  69.3817248 109.9006104
  69.2129752  67.4367248 110.4196104  69.1171067  66.4322117 110.4627609
  70.4719752  68.0297248 110.8516104  70.3643239  69.1122867 110.9192130
  70.8789752  67.4927248 112.2236104  70.8651523  66.4035250 112.1842139
  71.8761376  67.8330527 112.5027951  69.9599752  67.8937248 113.3406104
  69.9599752  69.1987248 113.8196104  70.6261362  69.9327863 113.3663080
  69.1229752  69.5717248 114.8646104  69.1264296  70.6007775 115.2239699
  68.2829752  68.6347248 115.4506104  67.6238655  68.9252010 116.2687167
  68.2839752  67.3267248 114.9926104  67.6304258  66.5868027 115.4546587
  69.1179752  66.9587248 113.9446104  69.1197703  65.9297440 113.5850338
  71.5779752  67.7057248 109.8606104  71.4889752  66.7427248 109.0966104
  72.6339752  68.5067248 109.8976104  72.6300649  69.3283215 110.4850309
  73.8179752  68.2337248 109.1046104  74.2451577  67.2958905 109.4596894
  73.5025690  68.1190942 108.0675578  74.8719752  69.3147248 109.1816104
  74.6919752  70.3227248 109.8646104  75.9849752  69.0767248 108.4946104
  76.1269989  68.1556701 108.1052688  77.0209752  70.0837248 108.2856104
  76.6673110  71.0566093 108.6269557  78.3329752  69.7457248 109.0306104
  79.0582959  70.5358122 108.8362601  78.0969752  69.6307248 110.5346104
  77.3720613  68.8404681 110.7297867  79.0365239  69.3924290 111.0331709
  77.7136088  70.5770579 110.9161655  78.8729752  68.5137248 108.5346104
  79.6868539  68.3102115 109.0012839  77.3179752  70.1847248 106.7966104
  77.2159752  69.1947248 106.0746104  77.6899752  71.3807248 106.3496104
  77.6231581  72.1784541 106.9654535  78.0779752  71.6087248 104.9626104
  78.3196272  70.6631613 104.4772103  76.9869752  72.3457248 104.1436104
  76.1110500  71.6990978 104.0913708  76.5949752  73.6837248 104.7656104
  77.4703484  74.3311062 104.8177621  75.8283178  74.1588115 104.1535405
  76.2059898  73.5178975 105.7702451  77.4539752  72.5557248 102.7006104
  78.1709258  73.3767329 102.7059329  77.9530209  71.6403057 102.3827095
  76.3279752  72.8757248 101.7406104  75.8287172  73.7913372 102.0576201
  76.7325253  73.0116529 100.7376338  75.6108107  72.0549104 101.7343985
  79.4179752  72.3387248 104.9416104  79.5619752  73.3977248 105.5516104
  80.3939752  71.7377248 104.2596104  80.1923667  70.8485692 103.8250350
  81.7339752  72.2937248 104.1076104  81.8612683  73.1219798 104.8046679
  82.4712085  71.5206398 104.3242349  81.9499752  72.7987248 102.6986104
  81.3639752  72.2737248 101.7526104  82.8129752  73.8017248 102.5636104
  83.3420848  74.1054210 103.3685396  83.0229752  74.4967248 101.2926104
  82.7884635  73.8478900 100.4487402  82.0899752  75.7017248 101.2546104
  81.2517103  75.4620016 101.9087847  82.6501502  76.5373775 101.6741204
  81.5689752  76.0807248  99.8866104  82.3005078  76.7005102  99.3681252
  81.3738574  75.1826548  99.3005205  80.0349752  77.0087248 100.0776104
  79.8689752  77.6017248  98.4036104  79.8034604  76.7536606  97.7219991
  78.9654032  78.2055204  98.3194138  80.7364777  78.2088922  98.1449825
  84.4789752  74.9567248 101.1596104  85.0199752  75.5577248 102.0816104
  85.1059752  74.6447248 100.0236104  84.5819874  74.1673244  99.3041488
  86.5039752  75.0057248  99.7446104  86.8076138  75.8220354 100.4000032
  87.4409752  73.8087248  99.9836104  87.0762497  73.0042599  99.3449315
  88.4281659  74.1222659  99.6441304  87.5319752  73.3157248 101.4146104
  88.1702893  74.0073363 101.9644554  86.5274509  73.3349906 101.8372945
  88.1019752  71.9027248 101.5216104  89.0185147  71.8537258 100.9336873
  88.3307959  71.7000511 102.5678723  87.1729752  70.8707248 101.0336104
  87.4107058  70.4622304 100.1410210  86.0639752  70.4437248 101.6586104
  85.3179752  69.4937248 101.0896104  85.5928283  69.1062682 100.1983006
  84.4822341  69.1669160 101.5531106  85.6779752  70.9457248 102.8366104
  86.2284528  71.6676508 103.2792134  84.8377609  70.6006082 103.2782360
  86.6529752  75.3877248  98.2806104  85.8869752  74.9047248  97.4496104
  87.6599752  76.2237248  97.9506104  88.4829752  77.0927248  98.8136104
  88.8583468  76.5105152  99.6551735  87.8696860  77.9136487  99.1851737
  89.5789752  77.5637248  97.9046104  90.4522929  76.9235796  98.0296287
  89.8425250  78.5905588  98.1580957  89.0399752  77.4807248  96.5266104
  89.8920376  77.2654062  95.8818417  88.5151138  78.3598535  96.1527751
  88.0939752  76.2817248  96.5546104  87.2235052  76.3800704  95.9059901
  88.8449752  75.0047248  96.2046104  89.5349752  74.4547248  97.0636104
  88.6989752  74.5347248  94.9666104  88.0567598  74.9896568  94.3336052
  89.3929752  73.3267248  94.5046104  89.2325371  72.5148512  95.2139905
  88.8589752  72.8907248  93.1296104  87.7711826  72.8739204  93.1968707
  89.1644644  73.6108080  92.3704947  89.3419752  71.5087248  92.7116104
  90.2409752  71.4667248  91.7376104  88.8909752  70.4937248  93.2366104
  89.2252558  69.5865356  92.9444392  88.1881579  70.5715011  93.9577896
  90.9059752  73.5917248  94.4636104  91.3359752  74.6907248  94.1086104
  91.6959752  72.5947248  94.8616104  91.2758365  71.7225098  95.1494016
  93.1549752  72.7367248  94.9756104  93.3458880  73.6404947  95.5542739
  93.7489752  71.5467248  95.7206104  93.5737741  70.6353089  95.1490111
  94.8213870  71.6951306  95.8471369  93.2770844  71.4576619  96.6991226
  93.8429752  72.9047248  93.6156104  94.8019752  73.6707248  93.4926104
  93.3629752  72.1727248  92.6116104  92.6478064  71.4858556  92.8035574
  93.8929752  72.2617248  91.2476104  94.9766182  72.3761653  91.2744514
  93.5539752  70.9837248  90.4686104  93.7379175  70.1415526  91.1357015
  92.4927145  71.0276534  90.2238740  94.3609752  70.8047248  89.1926104
  94.1232541  71.6271026  88.5178629  95.4199574  70.8398264  89.4483967
  94.0479752  69.4807248  88.5086104  94.5146615  68.6786006  89.0803619
  92.9668561  69.3419255  88.5046607  94.5689752  69.4527248  87.0756104
  94.2223801  70.3532295  86.5685959  95.6584823  69.4513333  87.1083464
  94.0929752  68.2507248  86.3336104  93.0834466  68.2520487  86.3027897
  94.4585815  68.2695400  85.3922932  94.4143914  67.4161915  86.8030195
  93.3969752  73.5037248  90.4856104  94.0989752  74.0097248  89.6036104
  92.1989752  73.9817248  90.8266104  91.6715441  73.4987974  91.5398403
  91.5899752  75.1487248  90.1826104  92.3668051  75.8193219  89.8152767
  90.7259752  74.7057248  88.9986104  91.3265329  74.0719338  88.3461239
  89.8829930  74.1329614  89.3851632  90.1859752  75.8767248  88.1796104
  90.3349752  77.0497248  88.5436104  89.5539752  75.5567248  87.0556104
  89.1733522  76.2853887  86.4688611  89.4570638  74.5862702  86.7930711
  90.7519752  75.9317248  91.1986104  89.6279752  75.5447248  91.5116104
  91.2919752  77.0527248  91.6776104  92.2049889  77.3388368  91.3541212
  90.6489752  77.8427248  92.7386104  90.4469621  77.2041085  93.5985285
  91.5579752  79.0007248  93.1886104  91.8557998  79.5646643  92.3046579
  90.9961960  79.6494980  93.8606204  92.8159752  78.5237248  93.9096104
  92.8749752  77.4037248  94.4336104  93.8339752  79.3847248  93.9456104
  94.6936609  79.1264795  94.4085896  93.7405083  80.2910191  93.5097260
  89.2639752  78.3947248  92.3826104  88.4959752  78.7277248  93.2826104
  88.9429752  78.4857248  91.0906104  89.6400145  78.2838106  90.3881389
  87.6309752  78.9817248  90.6486104  87.3159824  79.8046337  91.2902486
  87.6959752  79.4857248  89.2016104  87.8087406  78.6133576  88.5579034
  86.7470254  79.9762768  88.9849241  88.8459752  80.4627248  88.9426104
  88.9596392  81.0777244  89.8353347  89.7492830  79.8716245  88.7918204
  88.6189752  81.3627248  87.7306104  89.4782664  81.2792536  87.0652156
  87.7220985  81.0293232  87.2085425  88.4489752  82.7717248  88.1046104
  87.5005128  83.0598169  88.2983145  89.4269752  83.6817248  88.2066104
  90.7029752  83.3747248  87.9656104  90.9507171  82.4328724  87.6979576
  91.4152181  84.0856080  88.0519513  89.1249752  84.9287248  88.5576104
  88.1643867  85.1791002  88.7438412  89.8576450  85.6194530  88.6362755
  86.5089752  77.9417248  90.8176104  85.3369752  78.3107248  90.9106104
  86.8699752  76.6577248  90.8696104  87.8235640  76.4057223  90.6522110
  85.9139752  75.5787248  91.1706104  84.9289976  75.8373579  90.7819882
  86.3679752  74.2677248  90.5206104  87.3777767  74.0614199  90.8753478
  85.6981758  73.4736567  90.8506478  86.3679752  74.3317248  88.9976104
  85.6969752  75.2097248  88.4086104  87.0439752  73.4807248  88.3846104
  85.7249752  75.3767248  92.6736104  86.5609752  75.8017248  93.4656104
  84.6209752  74.7267248  93.0496104  83.9902076  74.3911453  92.3357351
  84.2669752  74.4947248  94.4576104  85.0313773  74.9229252  95.1060186
  82.9249752  75.1487248  94.7866104  82.2595503  74.7146631  94.0403535
  82.6456424  74.7868413  95.7761121  82.8069752  76.6697248  94.7496104
  83.1298114  77.0354923  93.7748839  81.3599752  77.0737248  94.9886104
  81.0365481  76.7086823  95.9634118  81.2764120  78.1601927  94.9620511
  80.7286788  76.6421859  94.2118611  83.7209752  77.3037248  95.7836104
  84.7540889  77.0254437  95.5754391  83.6216985  78.3883481  95.7407418
  83.4440588  76.9530575  96.7778180  84.1679752  73.0077248  94.8076104
  83.5569752  72.2297248  94.0726104  84.7639752  72.6357248  95.9386104
  85.4111501  73.2732722  96.3799688  84.5459752  71.3267248  96.5596104
  84.0796163  70.6521267  95.8416090  85.8729752  70.7167248  97.0126104
  86.3654686  71.4369834  97.6658922  85.6466313  69.8114618  97.5759641
  86.7939752  70.3737248  95.8506104  86.3499752  70.4157248  94.6836104
  87.9769752  70.0597248  96.1106104  83.6069752  71.4827248  97.7536104
  83.7169752  72.4417248  98.5156104  82.6779752  70.5417248  97.8976104
  82.6193453  69.8039044  97.2103819  81.7489752  70.5117248  99.0296104
  81.9796236  71.3307763  99.7108263  80.3049752  70.6597248  98.5606104
  80.0068700  69.8522965  97.8918114  79.6740708  70.6462841  99.4493618
  80.0079752  71.9437248  97.8426104  80.2769752  72.0797248  96.4896104
  80.7352314  71.2512032  95.9495612  79.9689752  73.2547248  95.8236104
  80.1939423  73.3553215  94.7618332  79.3749752  74.3017248  96.5076104
  79.1343810  75.2283418  95.9864625  79.0869752  74.1707248  97.8536104
  78.6155191  74.9908572  98.3951010  79.3979752  72.9977248  98.5116104
  79.1650643  72.8887753  99.5708471  81.8379752  69.1857248  99.7696104
  82.1799752  68.1607248  99.1806104  81.5139752  69.2167248 101.0586104
  81.4718861  70.1065198 101.5346279  81.2209752  68.0077248 101.8236104
  81.0711436  67.1704380 101.1419942  82.3509752  67.6517248 102.7956104
  82.4630440  68.4614261 103.5166684  82.0409752  66.3517248 103.5346104
  81.9292206  65.5414136 102.8141894  82.8567432  66.1188078 104.2189871
  81.1153848  66.4657672 104.0988597  83.5779752  67.5067248 102.0716104
  84.2849775  67.2837439 102.6815511  79.9429752  68.2547248 102.6066104
  79.8559752  69.2337248 103.3386104  78.9539752  67.3817248 102.4376104
  79.0575009  66.6492021 101.7500114  77.6969752  67.4657248 103.1756104
  77.7401774  68.2892228 103.8884103  76.4919752  67.6637248 102.2346104
  76.4498486  66.8281490 101.5359410  75.1899752  67.7287248 103.0286104
  75.2311700  68.5643984 103.7272185  74.3531353  67.8687585 102.3443661
  75.0545345  66.7995013 103.5820530  76.6789752  68.9477248 101.4156104
  76.7343689  69.7691252 102.1299868  77.6333645  68.8522476 100.8978028
  75.5839752  69.2287248 100.4076104  74.6292883  69.3247971 100.9247592
  75.8052090  70.1559677  99.8790507  75.5282825  68.4079177  99.6925761
  77.5259752  66.1907248 104.0006104  77.4599752  65.0947248 103.4426104
  77.4869752  66.3537248 105.3246104  77.7076770  67.2643126 105.7017309
  77.1089752  65.2917248 106.2546104  77.2516617  64.3234523 105.7748310
  77.9579752  65.3367248 107.5276104  77.9002466  66.3497930 107.9256800
  77.5175698  64.6407257 108.2415630  79.4119752  64.9677248 107.2926104
  79.8809752  64.9987248 106.1366104  80.0969752  64.6407248 108.2836104
  75.6619752  65.5277248 106.6346104  75.3289752  66.6177248 107.0806104
  74.8059752  64.5237248 106.4416104  75.1154180  63.7028963 105.9410257
  73.4159752  64.5677248 106.9156104  73.1827388  65.5784164 107.2505767
  72.4299752  64.1787248 105.8106104  72.9425561  63.3767153 105.2794411
  71.5417174  63.7797268 106.3004050  72.0189752  65.2657248 104.8176104
  72.8974674  65.8517273 104.5475114  71.4229752  64.6407248 103.5666104
  70.5441074  64.0549003 103.8358681  71.1350432  65.4270320 102.8688162
  72.1618137  63.9914553 103.0968581  71.0249752  66.2297248 105.4376104
  71.4754441  66.7071826 106.3077893  70.7520208  66.9909496 104.7067657
  70.1323016  65.6846171 105.7443520  73.2539752  63.6127248 108.0836104
  73.8729752  62.5497248 108.1156104  72.4179752  64.0047248 109.0386104
  72.0415808  64.9414929 109.0087443  72.0509752  63.1467248 110.1616104
  72.1838351  62.0996843 109.8892988  72.9399752  63.4547248 111.3746104
  73.9688298  63.5328521 111.0232509  72.6202728  64.4156810 111.7776657
  72.8549752  62.3917248 112.4666104  72.3649752  61.2627248 112.2086104
  73.2939752  62.6957248 113.6046104  70.5749752  63.3837248 110.4736104
  70.1659752  64.5147248 110.7346104  69.7749752  62.3207248 110.4046104
  70.1631423  61.4244401 110.1475123  68.3349752  62.4127248 110.6296104
  68.1061695  63.3053610 111.2118026  67.5939752  62.4977248 109.2916104
  67.8809542  63.4173135 108.7816115  67.8248478  61.6430087 108.6557973
  66.1009752  62.5347248 109.4356104  65.4699752  63.6727248 109.9256104
  66.0716208  64.5416471 110.1922497  64.0919752  63.7107248 110.0766104
  63.6058905  64.6094508 110.4562336  63.3319752  62.5997248 109.7426104
  62.2490355  62.6241608 109.8640369  63.9489752  61.4587248 109.2546104
  63.3522161  60.5873557 108.9849908  65.3269752  61.4267248 109.1096104
  65.8149636  60.5262913 108.7365330  67.8179752  61.2277248 111.4466104
  68.0909752  60.0717248 111.1146104  67.0859752  61.5397248 112.5186104
  67.0395165  62.5097167 112.7962011  66.3359752  60.5567248 113.3026104
  66.4753825  59.5675768 112.8664326  66.8059752  60.5197248 114.7596104
  66.6854738  61.5283514 115.1548964  66.1376500  59.8404216 115.2887499
  68.2429752  60.0687248 114.9536104  68.8341143  60.4677533 114.1293340
  68.6021220  60.4875088 115.8936826  68.3799752  58.5517248 114.9886104
  68.0002575  58.1875432 115.9432230  67.7883956  58.1276654 114.1772494
  69.8409752  58.1307248 114.8276104  70.4200931  58.6576170 115.5859690
  69.8955464  57.0574989 115.0101133  70.3989752  58.4347248 113.4746104
  70.3488969  59.4292022 113.3054758  71.3622797  58.1341173 113.4324249
  69.8627575  57.9462510 112.7717854  64.8729752  60.9697248 113.2676104
  64.5059752  62.0247248 113.7886104  64.0459752  60.1407248 112.6426104
  64.4113448  59.2997267 112.2191406  62.6189752  60.3987248 112.5426104
  62.3652274  61.2426137 113.1841419  62.3741097  60.6423854 111.5087972
  61.8109752  59.1977248 112.9686104  62.3539752  58.1517248 113.3226104
  60.4979752  59.3697248 112.9136104  60.1426023  60.2763447 112.6455624
  59.5409752  58.3287248 113.2636104  59.8038967  57.8766697 114.2199669
  58.1409752  58.9467248 113.3816104  58.2836864  59.9717090 113.7238678
  57.7213460  58.9552249 112.3756586  57.1899752  58.2287248 114.3196104
  56.7365967  57.3955284 113.7826443  57.7449179  57.8486295 115.1773215
  56.0839752  59.1417248 114.8226104  54.9089752  58.9467248 114.5046104
  56.4579752  60.1537248 115.6046104  55.7635048  60.7913722 115.9668507
  57.4342133  60.2785083 115.8315237  59.5609752  57.2147248 112.2086104
  59.5389752  56.0317248 112.5466104  59.6319752  57.6157248 110.9386104
  59.7002976  58.6066892 110.7557966  59.5709752  56.7027248 109.7976104
  59.1654519  55.7382171 110.1031837  58.6569752  57.2997248 108.7226104
  59.1979611  58.1936945 108.4123661  58.5972015  56.6032755 107.8862579
  57.2409752  57.6877248 109.1666104  57.3090469  58.2711234 110.0848223
  56.5409752  58.5097248 108.0946104  56.4721116  57.9267761 107.1761729
  55.5388752  58.7721398 108.4337779  57.1097375  59.4199879 107.9047925
  56.4239752  56.4497248 109.5276104  56.9124829  55.9164896 110.3431593
  55.4240636  56.7517754 109.8391284  56.3512013  55.7957034 108.6586691
  60.9319752  56.3827248 109.1636104  61.0009752  55.5317248 108.2856104
  62.0049752  57.0467248 109.5896104  61.9391815  57.6839830 110.3704257
  63.2929752  56.9177248 108.9056104  63.4678513  55.8810379 108.6178640
  63.2839752  57.7807248 107.6426104  62.6117420  57.3418854 106.9053033
  62.9443458  58.7864797 107.8900149  64.8769752  57.9797248 106.8126104
  64.4258249  58.7536853 105.8295811  64.4799752  57.3007248 109.7786104
  64.3789752  58.1757248 110.6456104  65.6079752  56.6437248 109.5106104
  65.5868044  55.9423491 108.7841648  66.8629752  56.8587248 110.2306104
  66.8730641  57.8466700 110.6910034  66.9989752  55.8057248 111.3306104
  66.0703531  55.8271592 111.9009618  67.0957120  54.8418299 110.8309619
  68.1749752  56.0087248 112.2706104  69.0801863  55.8281335 111.6908858
  68.1578821  57.0467548 112.6027260  68.1569752  55.0837248 113.4886104
  69.2099752  54.9647248 114.1536104  67.1089752  54.4647248 113.7896104
  68.0149752  56.7707248 109.2246104  68.2119752  55.7247248 108.6046104
  68.7449752  57.8737248 109.0396104  68.5323455  58.7041245 109.5737678
  69.8319752  57.9407248 108.0476104  70.2530651  56.9468032 107.8962747
  69.3079752  58.4607248 106.7036104  68.4097084  57.8685418 106.5288670
  69.0337096  59.5085854 106.8255391  70.2619752  58.3157248 105.4986104
  71.2716131  58.1432705 105.8714263  69.8459752  57.1557248 104.6076104
  68.8365443  57.3276983 104.2340156  70.5354526  57.0771108 103.7670501
  69.8673259  56.2297241 105.1822122  70.3379752  59.5907248 104.6736104
  70.7013655  60.4069661 105.2979477  71.0204774  59.4424719 103.8367633
  69.3466410  59.8380243 104.2938758  70.9819752  58.8327248 108.5086104
  70.7639752  59.8997248 109.0816104  72.2039752  58.3767248 108.2366104
  72.2905196  57.4451106 107.8562099  73.4229752  59.1397248 108.4816104
  73.1937173  60.2036210 108.5421479  74.0539752  58.6997248 109.8036104
  73.2973981  58.7695915 110.5851530  74.3761129  57.6633745 109.7020942
  75.1639752  59.5067248 110.1486104  75.5339361  59.2031568 110.9808215
  74.3749752  58.8947248 107.3106104  74.8109752  57.7667248 107.0986104
  74.6689752  59.9397248 106.5386104  74.2709131  60.8417422 106.7577231
  75.5239752  59.8257248 105.3476104  76.1333727  58.9242720 105.4117721
  74.6629752  59.7447248 104.0866104  75.2939866  59.6600284 103.2018786
  73.9943729  58.8854655 104.1389971  73.6059752  61.1867248 103.8126104
  73.0566671  60.7442135 102.6850721  76.4929752  60.9967248 105.2176104
  76.2969752  62.0447248 105.8316104  77.5309752  60.7927248 104.4046104
  77.6378039  59.8780018 103.9899192  78.5409752  61.8117248 104.1086104
  78.1457472  62.8034740 104.3284456  79.7879752  61.5807248 104.9666104
  79.4765338  61.4294122 106.0001519  80.2977431  60.6870058 104.6067450
  80.6699752  62.6877248 104.8966104  81.4413554  62.5172463 105.4420548
  78.8989752  61.7607248 102.6186104  79.3169752  60.7187248 102.1186104
  78.7369752  62.8877248 101.9236104  78.4831207  63.7317154 102.4169024
  78.9229752  62.9607248 100.4746104  79.3627289  62.0358207 100.1014237
  77.5759752  63.1907248  99.7576104  77.2359727  64.2030475  99.9760165
  77.7109752  63.0147248  98.2496104  78.0505187  62.0024245  98.0303888
  76.7441200  63.1837478  97.7755627  78.4349675  63.7319618  97.8629493
  76.6039752  62.2667248 100.2526104  75.7672603  62.4120403  99.8049590
  79.8439752  64.1157248 100.1086104  79.6259752  65.2387248 100.5556104
  80.8609752  63.8337248  99.2976104  81.0751970  62.8689566  99.0892102
  81.7069752  64.8727248  98.7146104  81.6810639  65.7608985  99.3459385
  83.1579752  64.3977248  98.5976104  83.1479795  63.4593522  98.0431230
  83.7146836  65.1463307  98.0339038  83.8259752  64.1807248  99.9516104
  83.3679752  64.7427248 100.9746104  84.8319752  63.4427248  99.9906104
  81.1699752  65.2477248  97.3336104  80.9289752  64.3727248  96.5046104
  80.9679752  66.5477248  97.1026104  81.1016320  67.2049755  97.8577638
  80.5329752  67.0617248  95.8056104  80.3280321  66.2264807  95.1359352
  79.2669752  67.9027248  95.9376104  79.5134966  68.7772321  96.5397428
  79.0148269  68.2185939  94.9253120  78.0929752  67.1907248  96.5466104
  77.9139752  67.1617248  97.9266104  78.6452729  67.6580438  98.5645529
  76.8279752  66.5157248  98.4916104  76.7008148  66.5007266  99.5740646
  75.8959752  65.8937248  97.6756104  74.8199752  65.2477248  98.2356104
  74.8144485  65.2903052  99.1946495  76.0509752  65.9147248  96.3006104
  75.3217761  65.4251102  95.6551287  77.1419752  66.5637248  95.7456104
  77.2678155  66.5900105  94.6632180  81.6119752  67.9137248  95.1536104
  82.4709752  68.4787248  95.8346104  81.5489752  68.0017248  93.8276104
  80.8843924  67.4235458  93.3335071  82.4389752  68.8547248  93.0466104
  82.9427979  69.5600092  93.7075460  83.4989752  68.0197248  92.3226104
  83.0115106  67.1135152  91.9630806  83.8506879  68.6042210  91.4724560
  84.6819752  67.6437248  93.2036104  85.0037644  68.5340024  93.7439421
  84.3525918  66.8866532  93.9152642  85.8389752  67.1017248  92.3896104
  86.1254624  67.8387563  91.6394047  86.6837739  66.9102285  93.0512325
  85.4829752  65.8537248  91.7096104  84.5448096  65.5100973  91.8574781
  86.3019752  65.1517248  90.9226104  87.5519752  65.5627248  90.6996104
  87.8847566  66.4138553  91.1296492  88.1594469  65.0207512  90.1018291
  85.8689752  64.0287248  90.3506104  84.9234838  63.7139069  90.5150356
  86.4882722  63.4975462  89.7552792  81.6399752  69.6837248  92.0476104
  80.8799752  69.1487248  91.2396104  81.8179752  70.9957248  92.1286104
  82.3928998  71.3605153  92.8745923  81.2129752  71.9347248  91.2056104
  80.4315795  71.4476359  90.6222886  80.5909752  73.0737248  91.9946104
  80.0705902  72.6217021  92.8389884  81.4144967  73.6862353  92.3616844
  79.6279752  73.9397248  91.2146104  80.1719123  74.7374349  90.7087528
  79.0997991  73.3360831  90.4765394  78.4329752  74.6657248  92.3506104
  77.8229752  75.9717248  91.3236104  77.3838448  75.5490792  90.4199323
  77.0645558  76.5367225  91.8655313  78.6443174  76.6348340  91.0519772
  82.3299752  72.4207248  90.2956104  83.2549752  73.0887248  90.7486104
  82.2499752  72.0407248  89.0226104  81.4071781  71.5824228  88.7067757
  83.3539752  72.2047248  88.0666104  83.8813624  73.1382505  88.2628036
  84.3509752  71.0377248  88.2036104  85.0157740  71.0893765  87.3413611
  84.9227690  71.2180079  89.1139125  83.7109752  69.6517248  88.2706104
  83.1745217  69.5718517  89.2160938  83.0052329  69.5643838  87.4445345
  84.7439752  68.5337248  88.1766104  85.2964578  68.6432094  87.2434035
  85.4319609  68.6192276  89.0177195  84.1279752  67.1987248  88.2056104
  83.1887328  67.1586370  88.5748203  84.6979752  66.0617248  87.7826104
  84.0189752  64.9177248  87.8656104  83.0830809  64.9159251  88.2453454
  84.4434798  64.0579189  87.5483890  85.9319752  66.0417248  87.2676104
  86.4577143  66.9006575  87.1905841  86.3325763  65.1677796  86.9580343
  82.8329752  72.2957248  86.6336104  81.6219752  72.2717248  86.3926104
  83.6079752  72.4027248  85.6816104  79.9259752  94.2567248  85.8696104
  79.0399752  93.7057248  84.7956104  77.5809752  93.6947248  85.2736104
  77.3209752  93.5757248  86.4856104  79.5059752  92.2977248  84.3996104
  79.6329752  91.3117248  85.5816104  80.1499752  89.6417248  85.1106104
  79.0699752  88.5387248  86.0636104  81.6889752  89.4487248  86.0396104
  82.9029752  89.9207248  85.2576104  83.9979752  89.9687248  86.1616104
  83.2629752  88.9027248  84.1846104  83.1449752  89.4307248  82.8756104
  84.6809752  88.4557248  84.5236104  85.5129752  88.4137248  83.3926104
  85.1389752  89.5867248  85.4226104  76.6419752  93.7977248  84.4696104
  89.8149752  91.2297248  87.0056104  88.9249752  91.8867248  86.1726104
  87.7269752  91.2697248  85.8726104  87.4199752  90.0517248  86.3846104
  88.3149752  89.3877248  87.2256104  89.5289752  89.9937248  87.5416104
  90.4279752  89.4037248  88.3336104  87.7509752  88.2137248  87.5746104
  86.5339752  88.1157248  86.9866104  86.3209752  89.2517248  86.2446104
  82.3709752  89.7387248  82.7666104  85.2539752  88.9837248  82.8326104
  91.1699752  89.8007248  88.5126104  90.2649752  88.6267248  88.6646104
  81.6279752  89.9487248  86.8686104  81.8039752  88.5157248  86.2786104
  80.7729752  94.3207248  85.7376104  79.5879752  94.5087248  86.6186104
  80.2709752  91.6687248  86.2186104  78.7779752  91.2577248  86.0366104
  79.2899752  87.6157248  85.8616104  79.1969752  88.7007248  87.0116104
  78.1449752  88.7087248  85.8286104  78.8819752  91.9317248  83.7536104
  80.3659752  92.3667248  83.9556104  79.0959752  94.2727248  84.0106104
  85.9189752  87.3707248  87.0746104  82.7139752  90.7807248  84.8516104
  82.6499752  88.1507248  84.1816104  84.7119752  87.5647248  84.9066104
  89.1379752  92.7597248  85.8086104  85.4699752  90.3357248  84.9036104
  57.4559752  59.3137248  24.3576104  56.6879752  59.9757248  23.3996104
  56.9099752  59.7377248  22.0536104  57.8979752  58.8387248  21.6766104
  58.6619752  58.1767248  22.6276104  58.4439752  58.4167248  23.9766104
  57.2539752  59.5387248  25.6166104  55.9999752  60.6007248  23.6756104
  56.3819752  60.1947248  21.3806104  58.0559752  58.6707248  20.7346104
  59.3459752  57.5477248  22.3496104  58.9779752  57.9617248  24.6476104
  56.5739752  60.1587248  25.8906104 112.1319752  67.0347248  28.4016104
 111.0869752  67.7097248  29.0326104 111.3179752  68.3787248  30.2236104
 112.5929752  68.3687248  30.7706104 113.6349752  67.7007248  30.1446104
 113.4049752  67.0257248  28.9546104 111.9169752  66.4037248  27.2916104
 110.2009752  67.7107248  28.6386104 110.5969752  68.8497248  30.6696104
 112.7579752  68.8367248  31.6056104 114.5219752  67.7057248  30.5376104
 114.1269752  66.5507248  28.5126104 111.0389752  66.4017248  26.9026104
  73.4809752  19.6397248  55.1286104  74.1679752  20.7337248  55.6536104
  73.4829752  21.6977248  56.3746104  72.1159752  21.5587248  56.5656104
  71.4289752  20.4697248  56.0466104  72.1119752  19.5047248  55.3206104
  74.1179752  18.7397248  54.4486104  75.1239752  20.8197248  55.5136104
  73.9529752  22.4627248  56.7416104  71.6329752  22.2327248  57.0696104
  70.4739752  20.3837248  56.1916104  71.6379752  18.7437248  54.9496104
  75.0639752  18.8257248  54.3096104  47.8449752 109.6427248 114.3816104
  47.5389752 110.8877248 113.8326104  47.9419752 111.1907248 112.5426104
  48.6469752 110.2457248 111.8126104  48.9519752 109.0047248 112.3536104
  48.5529752 108.6997248 113.6476104  47.4739752 109.3587248 115.5896104
  47.0439752 111.5397248 114.3526104  47.7339752 112.0547248 112.1546104
  48.9319752 110.4547248 110.9086104  49.4419752 108.3517248 111.8296104
  48.7669752 107.8367248 114.0356104  46.9859752 110.0047248 116.1056104
  47.7939752  61.1407248  31.8136104  48.9379752  60.7317248  32.4976104
  48.8519752  60.3717248  33.8326104  47.6219752  60.4227248  34.4706104
  46.4799752  60.8267248  33.7936104  46.5649752  61.1917248  32.4566104
  47.8729752  61.4827248  30.5666104  49.7929752  60.6987248  32.0396104
  49.6439752  60.0877248  34.3156104  47.5589752  60.1717248  35.4066104
  45.6259752  60.8527248  34.2516104  45.7719752  61.4807248  31.9776104
  48.7189752  61.4527248  30.1136104  26.4989752 102.1177248  60.9406104
  27.6009752 101.8627248  61.7576104  28.8309752 101.5787248  61.1886104
  28.9499752 101.5537248  59.8066104  27.8569752 101.8107248  58.9906104
  26.6219752 102.0907248  59.5586104  25.3469752 102.3777248  61.4716104
  27.5049752 101.8837248  62.7236104  29.6009752 101.3987248  61.7496104
  29.8099752 101.3547248  59.4046104  27.9559752 101.7937248  58.0256104
  25.8519752 102.2647248  58.9946104  25.2519752 102.3967248  62.4266104
  71.8059752  28.2677248  43.6496104  70.9889752  29.0097248  42.7976104
  71.1299752  28.8837248  41.4246104  72.0859752  28.0167248  40.9176104
  72.8989752  27.2747248  41.7626104  72.7629752  27.4027248  43.1376104
  71.6799752  28.3877248  44.9336104  70.3229752  29.6117248  43.1636104
  70.5659752  29.3967248  40.8246104  72.1879752  27.9267248  39.9566104
  73.5609752  26.6697248  41.3936104  73.3319752  26.8917248  43.7356104
  71.0229752  28.9857248  45.2966104  59.6949752  51.2277248 124.0336104
  60.3959752  50.2237248 123.3646104  61.4509752  49.5827248 123.9926104
  61.7949752  49.9497248 125.2856104  61.0989752  50.9457248 125.9556104
  60.0449752  51.5927248 125.3256104  58.7129752  51.8317248 123.4456104
  60.1449752  49.9747248 122.4606104  61.9439752  48.8847248 123.5336104
  62.5339752  49.5027248 125.7276104  61.3479752  51.1887248 126.8606104
  59.5559752  52.2947248 125.7856104  58.4649752  51.5877248 122.5506104
  46.2049752  92.2167248 106.2246104  45.8149752  92.0287248 107.5506104
  46.5289752  91.1637248 108.3636104  47.6279752  90.4957248 107.8446104
  48.0209752  90.6817248 106.5266104  47.3049752  91.5437248 105.7086104
  45.5359752  93.0197248 105.4606104  45.0449752  92.5027248 107.9016104
  46.2629752  91.0267248 109.2866104  48.1299752  89.8897248 108.4116104
  48.7949752  90.2117248 106.1786104  47.5699752  91.6757248 104.7846104
  44.7719752  93.4867248 105.8076104  80.7849752  81.6777248 121.9386104
  79.8909752  81.1947248 122.8946104  79.8869752  81.7347248 124.1706104
  80.7759752  82.7537248 124.4786104  81.6649752  83.2387248 123.5296104
  81.6739752  82.6967248 122.2526104  80.7949752  81.1707248 120.7476104
  79.2729752  80.4827248 122.6666104  79.2689752  81.4037248 124.8406104
  80.7759752  83.1337248 125.3716104  82.2779752  83.9547248 123.7586104
  82.2969752  83.0257248 121.5856104  80.1849752  80.4637248 120.5216104
 114.3179752  45.5337248  69.4526104 114.7929752  44.7497248  68.4016104
 116.1319752  44.3997248  68.3526104 116.9849752  44.8367248  69.3556104
 116.5159752  45.6147248  70.4046104 115.1749752  45.9697248  70.4536104
 113.0669752  45.8667248  69.4976104 114.1859752  44.4487248  67.7066104
 116.4709752  43.8557248  67.6246104 117.9239752  44.5937248  69.3236104
 117.1229752  45.9087248  71.1016104 114.8399752  46.5187248  71.1806104
 112.4669752  45.5717248  68.8086104  42.9399752  83.9417248  38.4966104
  42.9039752  82.8037248  37.6906104  42.0169752  81.7807248  37.9826104
  41.1739752  81.9047248  39.0776104  41.2059752  83.0367248  39.8796104
  42.0959752  84.0617248  39.5916104  43.7729752  84.8977248  38.2286104
  43.4979752  82.7297248  36.9276104  41.9869752  80.9857248  37.4286104
  40.5529752  81.1887248  39.2846104  40.6069752  83.1107248  40.6396104
  42.1289752  84.8537248  40.1516104  44.3619752  84.8237248  37.4746104
  32.5959752  97.2237248 111.3986104  32.8359752  96.2827248 112.3996104
  33.1279752  94.9727248 112.0586104  33.1789752  94.6147248 110.7196104
  32.9429752  95.5487248 109.7206104  32.6459752  96.8607248 110.0596104
  32.3169752  98.4487248 111.7146104  32.7979752  96.5457248 113.3326104
  33.2939752  94.3117248 112.7496104  33.3819752  93.6977248 110.4776104
  32.9869752  95.2847248 108.7886104  32.4749752  97.5187248 109.3666104
  32.2779752  98.7087248 112.6376104  26.2279752  44.7177248 105.5366104
  27.2709752  44.8107248 106.4576104  27.6359752  46.0477248 106.9636104
  26.9539752  47.1797248 106.5456104  25.9129752  47.0917248 105.6316104
  25.5479752  45.8537248 105.1196104  25.8879752  43.5627248 105.0576104
  27.7399752  44.0117248 106.7436104  28.3619752  46.1207248 107.6026104
  27.2069752  48.0477248 106.8976104  25.4419752  47.8917248 105.3516104
  24.8259752  45.7837248 104.4756104  26.3539752  42.7717248 105.3386104
  51.8829752  33.7447248  53.4876104  50.6779752  33.0507248  53.3836104
  50.2739752  32.5477248  52.1576104  51.0809752  32.7427248  51.0466104
  52.2819752  33.4317248  51.1456104  52.6859752  33.9397248  52.3726104
  52.2589752  34.2207248  54.6316104  50.1229752  32.9187248  54.1686104
  49.4369752  32.0647248  52.0766104  50.8009752  32.3927248  50.1856104
  52.8369752  33.5567248  50.3606104  53.5209752  34.4267248  52.4486104
  51.7089752  34.0927248  55.4086104 126.3499752  94.8207248  49.6036104
 125.6379752  94.5637248  50.7756104 126.2959752  94.5587248  51.9946104
 127.6589752  94.8127248  52.0316104 128.3699752  95.0717248  50.8686104
 127.7149752  95.0727248  49.6456104 125.7389752  94.8207248  48.4626104
 124.6849752  94.3887248  50.7366104 125.8089752  94.3797248  52.8136104
 128.1229752  94.8097248  52.8846104 129.3219752  95.2517248  50.9096104
 128.2049752  95.2477248  48.8266104 124.7949752  94.6447248  48.4236104
  35.4539752 116.3697248  94.9366104  36.8009752 116.7227248  94.8596104
  37.1679752 118.0577248  94.8956104  36.1839752 119.0287248  95.0076104
  34.8419752 118.6827248  95.0866104  34.4719752 117.3457248  95.0476104
  35.1079752 115.1227248  94.8976104  37.4799752 116.0337248  94.7826104
  38.1019752 118.3117248  94.8416104  36.4369752 119.9657248  95.0326104
  34.1659752 119.3717248  95.1696104  33.5359752 117.0947248  95.0956104
  35.7799752 114.4407248  94.8186104  49.3159752  60.5137248  97.3266104
  48.3459752  61.0467248  96.4786104  48.5009752  60.9487248  95.1056104
  49.6239752  60.3167248  94.5926104  50.5909752  59.7817248  95.4336104
  50.4399752  59.8837248  96.8096104  49.1759752  60.6087248  98.6106104
  47.5639752  61.4847248  96.8486104  47.8319752  61.3177248  94.5086104
  49.7359752  60.2467248  93.6316104  51.3689752  59.3387248  95.0616104
  51.1129752  59.5177248  97.4046104  48.4029752  61.0447248  98.9776104
  52.4269752  56.0917248  59.1306104  51.1549752  56.0517248  59.7016104
  51.0119752  56.1697248  61.0746104  52.1409752  56.3287248  61.8636104
  53.4079752  56.3707248  61.2986104  53.5549752  56.2477248  59.9236104
  52.5639752  55.9747248  57.8476104  50.3729752  55.9417248  59.1386104
  50.1309752  56.1417248  61.4796104  52.0439752  56.4107248  62.8256104
  54.1889752  56.4867248  61.8626104  54.4379752  56.2707248  59.5216104
  51.7899752  55.8637248  57.2906104  40.1429752 117.1047248  73.3556104
  39.0489752 116.5617248  72.6816104  39.2309752 115.9487248  71.4526104
  40.5059752 115.8827248  70.9086104  41.5969752 116.4197248  71.5776104
  41.4169752 117.0377248  72.8066104  39.9749752 117.6827248  74.5016104
  38.1629752 116.6127248  73.0726104  38.4759752 115.5697248  70.9766104
  40.6359752 115.4547248  70.0476104  42.4829752 116.3627248  71.1866104
  42.1739752 117.4207248  73.2776104  39.0979752 117.7357248  74.8876104
  84.5149752  15.4457248  65.7036104  83.9829752  15.1427248  64.4506104
  82.8129752  14.4067248  64.3576104  82.1859752  13.9797248  65.5186104
  82.7109752  14.2817248  66.7676104  83.8849752  15.0157248  66.8636104
  85.6119752  16.1287248  65.7926104  84.4299752  15.4477248  63.6456104
  82.4369752  14.1907248  63.4906104  81.3669752  13.4637248  65.4576104
  82.2589752  13.9807248  67.5716104  84.2619752  15.2257248  67.7326104
  86.0559752  16.4287248  64.9966104 102.0739752  98.7557248  66.9956104
 102.4849752  97.7487248  66.1216104 103.3439752  98.0507248  65.0766104
 103.7849752  99.3567248  64.9166104 103.3799752 100.3597248  65.7856104
 102.5159752 100.0607248  66.8296104 101.2669752  98.4767248  67.9686104
 102.1709752  96.8397248  66.2446104 103.6329752  97.3577248  64.4646104
 104.3859752  99.5717248  64.1856104 103.6989752 101.2667248  65.6636104
 102.2239752 100.7577248  67.4386104 100.9539752  97.5767248  68.0896104
  70.7619752 132.2097248  47.3256104  71.2939752 130.9507248  47.6046104
  72.3419752 130.8277248  48.5026104  72.8479752 131.9647248  49.1146104
  72.3209752 133.2197248  48.8416104  71.2739752 133.3457248  47.9396104
  69.7869752 132.3277248  46.4826104  70.9299752 130.1627248  47.1716104
  72.7179752 129.9557248  48.7006104  73.5829752 131.8817248  49.7426104
  72.6819752 134.0047248  49.2796104  70.9029752 134.2197248  47.7386104
  69.4279752 131.5487248  46.0516104  68.4829752 128.0667248  89.9276104
  69.5279752 128.9857248  90.0186104  69.5159752 130.1237248  89.2286104
  68.4579752 130.3327248  88.3546104  67.4159752 129.4207248  88.2636104
  67.4269752 128.2787248  89.0506104  68.4949752 126.9987248  90.6606104
  70.2609752 128.8297248  90.6336104  70.2389752 130.7667248  89.2846104
  68.4469752 131.1277248  87.7996104  66.6809752 129.5827248  87.6516104
  66.7049752 127.6337248  88.9886104  69.2209752 126.8427248  91.2686104
  30.4839752  58.1817248 116.2026104  30.6229752  59.5487248 115.9626104
  31.8809752  60.1287248 115.9816104  32.9889752  59.3357248 116.2406104
  32.8559752  57.9747248 116.4776104  31.5959752  57.3927248 116.4626104
  29.3089752  57.6387248 116.1916104  29.8399752  60.0927248 115.7816104
  31.9859752  61.0787248 115.8176104  33.8719752  59.7387248 116.2556104
  33.6409752  57.4327248 116.6526104  31.4939752  56.4427248 116.6336104
  28.5339752  58.1767248 116.0146104  30.6859752  50.5197248  51.6596104
  29.7859752  51.0347248  50.7266104  30.2249752  51.9347248  49.7696104
  31.5599752  52.3107248  49.7526104  32.4589752  51.7987248  50.6776104
  32.0209752  50.9007248  51.6406104  30.2779752  49.6827248  52.5596104
  28.8549752  50.7627248  50.7486104  29.6049752  52.2987248  49.1186104
  31.8699752  52.9417248  49.0836104  33.3899752  52.0677248  50.6516104
  32.6419752  50.5427248  52.2946104  29.3559752  49.4147248  52.5826104
  83.8519752  91.2367248  26.2366104  83.0819752  90.0787248  26.3506104
  82.8799752  89.5037248  27.5946104  83.4499752  90.0927248  28.7136104
  84.2149752  91.2457248  28.6056104  84.4219752  91.8207248  27.3596104
  84.0469752  91.7727248  25.0736104  82.6879752  89.6777248  25.5596104
  82.3469752  88.6987248  27.6816104  83.3109752  89.6917248  29.5866104
  84.6029752  91.6477248  29.3976104  84.9599752  92.6237248  27.2746104
  83.6589752  91.3737248  24.2906104 134.9809752  96.1127248  78.0646104
 135.2139752  96.0567248  76.6906104 135.7699752  97.1467248  76.0396104
 136.0889752  98.2827248  76.7706104 135.8609752  98.3407248  78.1376104
 135.2999752  97.2517248  78.7906104 134.4559752  95.0977248  78.6726104
 134.9879752  95.2567248  76.1906104 135.9349752  97.1167248  75.0846104
 136.4779752  99.0477248  76.3176104 136.0929752  99.1397248  78.6356104
 135.1319752  97.2867248  79.7456104 134.2299752  94.3057248  78.1786104
  67.4789752 112.8407248 126.6886104  68.5289752 112.0717248 127.1886104
  68.6449752 111.8667248 128.5546104  67.7089752 112.4337248 129.4066104
  66.6609752 113.1977248 128.9126104  66.5449752 113.4067248 127.5456104
  67.3709752 113.0377248 125.4136104  69.1769752 111.6797248 126.5826104
  69.3729752 111.3347248 128.9106104  67.7879752 112.2927248 130.3636104
  66.0119752 113.5837248 129.5206104  65.8189752 113.9447248 127.1926104
  68.0129752 112.6517248 124.8126104  91.3649752 127.5907248 106.1416104
  91.7459752 126.9267248 107.3086104  93.0749752 126.5937248 107.5096104
  94.0129752 126.9287248 106.5436104  93.6379752 127.5907248 105.3826104
  92.3059752 127.9217248 105.1766104  90.1219752 127.8977248 105.9486104
  91.0819752 126.6997248 107.9776104  93.3479752 126.1317248 108.3176104
  94.9449752 126.6967248 106.6806104  94.3049752 127.8227248 104.7176104
  92.0349752 128.3797248 104.3656104  89.4629752 127.6707248 106.6096104
  83.4979752 138.5397248  83.5786104  84.5399752 138.1907248  84.4376104
  84.2879752 137.9977248  85.7856104  82.9949752 138.1547248  86.2636104
  81.9549752 138.4997248  85.4116104  82.2059752 138.6977248  84.0616104
  83.7329752 138.7267248  82.3186104  85.4399752 138.0837248  84.0916104
  85.0079752 137.7567248  86.3896104  82.8149752 138.0207248  87.2076104
  81.0549752 138.6017248  85.7596104  81.4849752 138.9447248  83.4606104
  84.6229752 138.6227248  81.9766104  56.9609752  64.0107248 128.8966104
  57.5779752  65.0187248 128.1546104  58.1919752  64.7127248 126.9516104
  58.1839752  63.4007248 126.5006104  57.5699752  62.3957248 127.2346104
  56.9579752  62.6997248 128.4426104  56.3909752  64.2947248 130.0246104
  57.5749752  65.9327248 128.4796104  58.6239752  65.4067248 126.4306104
  58.6139752  63.1827248 125.6586104  57.5689752  61.4837248 126.9046104
  56.5309752  62.0017248 128.9646104  56.3909752  65.1987248 130.3476104
  81.9079752  36.8487248 107.6036104  81.3979752  36.5897248 106.3316104
  82.0989752  37.0007248 105.2106104  83.3059752  37.6667248 105.3706104
  83.8179752  37.9237248 106.6346104  83.1149752  37.5167248 107.7596104
  81.2509752  36.4697248 108.6536104  80.5539752  36.1217248 106.2326104
  81.7509752  36.8257248 104.3226104  83.7989752  37.9567248 104.5876104
  84.6639752  38.3867248 106.7316104  83.4629752  37.6987248 108.6476104
  80.4139752  36.0087248 108.5556104  40.7449752  73.6977248  66.2806104
  41.3589752  74.2657248  67.3976104  42.6889752  73.9897248  67.6686104
  43.3939752  73.1497248  66.8196104  42.7889752  72.5847248  65.7066104
  41.4549752  72.8557248  65.4356104  39.4999752  73.9487248  66.0286104
  40.8549752  74.8527248  67.9826104  43.1219752  74.3797248  68.4436104
  44.3259752  72.9547248  67.0076104  43.2959752  72.0027248  65.1196104
  41.0219752  72.4597248  64.6616104  39.0009752  74.5277248  66.6086104
 126.3759752  86.8527248  75.4826104 127.1819752  87.4727248  74.5276104
 126.6079752  88.0177248  73.3906104 125.2339752  87.9387248  73.2196104
 124.4289752  87.3247248  74.1686104 125.0019752  86.7747248  75.3066104
 126.9109752  86.3377248  76.5436104 128.1419752  87.5227248  74.6596104
 127.1609752  88.4487248  72.7206104 124.8289752  88.3187248  72.4236104
 123.4689752  87.2817248  74.0376104 124.4469752  86.3387248  75.9726104
 127.8609752  86.3847248  76.6736104  18.8499752  60.0297248  91.2886104
  17.9819752  60.2967248  92.3476104  17.0059752  61.2697248  92.2106104
  16.9049752  61.9657248  91.0146104  17.7639752  61.7007248  89.9576104
  18.7459752  60.7297248  90.0946104  19.7669752  59.1237248  91.4166104
  18.0629752  59.8027248  93.1786104  16.3999752  61.4637248  92.9426104
  16.2219752  62.6487248  90.9156104  17.6789752  62.1917248  89.1266104
  19.3549752  60.5417248  89.3626104  19.8479752  58.6367248  92.2396104
  37.7159752  29.5627248  76.7996104  36.7219752  29.0277248  77.6196104
  36.7519752  29.2647248  78.9836104  37.7749752  30.0347248  79.5166104
  38.7639752  30.5717248  78.7036104  38.7389752  30.3317248  77.3366104
  37.6929752  29.3387248  75.5246104  36.0109752  28.4917248  77.2346104
  36.0659752  28.8947248  79.5606104  37.7999752  30.2017248  80.4716104
  39.4709752  31.1117248  79.0896104  39.4299752  30.6987248  76.7626104
  36.9909752  28.8057248  75.1436104 106.7709752  75.4997248  59.8286104
 108.0269752  75.0167248  60.1926104 108.2739752  74.6597248  61.5086104
 107.2619752  74.7877248  62.4476104 106.0099752  75.2667248  62.0896104
 105.7609752  75.6287248  60.7726104 106.5389752  75.8397248  58.6006104
 108.7269752  74.9297248  59.5266104 109.1459752  74.3237248  61.7696104
 107.4319752  74.5397248  63.3706104 105.3099752  75.3467248  62.7556104
 104.8899752  75.9697248  60.5146104 107.2319752  75.7557248  57.9406104
  51.2019752 129.0187248  70.3626104  52.5229752 129.0167248  70.8116104
  53.5019752 129.6637248  70.0766104  53.1529752 130.3087248  68.8996104
  51.8399752 130.3157248  68.4506104  50.8569752 129.6637248  69.1826104
  50.2859752 128.4097248  71.0446104  52.7539752 128.5627248  71.6366104
  54.4229752 129.6657248  70.3816104  53.8369752 130.7627248  68.3816104
  51.6089752 130.7737248  67.6276104  49.9379752 129.6587248  68.8726104
  50.5149752 127.9587248  71.8606104  30.7029752  67.8487248  87.0796104
  31.6859752  68.6197248  87.7006104  32.8719752  68.0307248  88.1056104
  33.0649752  66.6747248  87.8866104  32.0909752  65.9037248  87.2676104
  30.8999752  66.4917248  86.8636104  29.5909752  68.3967248  86.7056104
  31.5389752  69.5677248  87.8476104  33.5589752  68.5597248  88.5396104
  33.8939752  66.2577248  88.1696104  32.2419752  64.9577248  87.1166104
  30.2119752  65.9587248  86.4356104  29.4449752  69.3337248  86.8526104
  85.4329752 131.7997248  93.9706104  84.4489752 130.8477248  94.2376104
  84.7689752 129.7077248  94.9576104  86.0699752 129.5317248  95.4056104
  87.0509752 130.4767248  95.1446104  86.7339752 131.6177248  94.4196104
  85.1379752 132.8627248  93.2926104  83.5429752 130.9837248  93.9196104
  84.0909752 129.0407248  95.1456104  86.2969752 128.7337248  95.9096104
  87.9549752 130.3417248  95.4676104  87.4159752 132.2807248  94.2276104
  84.2419752 132.9967248  92.9766104  18.9189752  48.0677248  87.1346104
  19.3879752  49.3697248  86.9576104  20.3089752  49.8987248  87.8456104
  20.7549752  49.1207248  88.9036104  20.2929752  47.8237248  89.0826104
  19.3669752  47.2937248  88.1966104  18.0529752  47.5727248  86.3086104
  19.0689752  49.9027248  86.2126104  20.6389752  50.8027248  87.7296104
  21.3999752  49.4877248  89.5286104  20.6179752  47.2897248  89.8246104
  19.0349752  46.3897248  88.3176104  17.7359752  48.1017248  85.5726104
  42.3749752 103.7157248 108.0666104  42.6919752 105.0657248 108.2116104
  42.1739752 105.9957248 107.3256104  41.3429752 105.5667248 106.3006104
  41.0229752 104.2237248 106.1546104  41.5439752 103.2907248 107.0386104
  42.8619752 102.8437248 108.8916104  43.2739752 105.3537248 108.9336104
  42.3909752 106.9357248 107.4186104  40.9789752 106.2147248 105.6776104
  40.4369752 103.9397248 105.4356104  41.3299752 102.3497248 106.9396104
  43.4399752 103.1287248 109.6036104 107.2779752  89.1537248  83.8016104
 106.4699752  89.9377248  84.6256104 107.0429752  90.6957248  85.6336104
 108.4189752  90.6647248  85.8076104 109.2259752  89.8887248  84.9876104
 108.6549752  89.1247248  83.9806104 106.7449752  88.4397248  82.8616104
 105.5099752  89.9517248  84.4926104 106.4879752  91.2417248  86.2116104
 108.8229752  91.1937248  86.5136104 110.1869752  89.8807248  85.1186104
 109.2119752  88.5747248  83.4066104 105.7939752  88.4517248  82.7316104
 104.3769752  35.7067248  94.5406104 104.1769752  34.3267248  94.5726104
 103.5859752  33.7407248  95.6796104 103.1979752  34.5397248  96.7446104
 103.3919752  35.9137248  96.7156104 103.9879752  36.5027248  95.6106104
 104.9349752  36.2567248  93.5096104 104.4519752  33.7787248  93.8206104
 103.4449752  32.7817248  95.7096104 102.7839752  34.1317248  97.5216104
 103.1109752  36.4607248  97.4666104 104.1329752  37.4617248  95.5846104
 105.2089752  35.7147248  92.7666104 119.6409752  48.1057248  81.0966104
 119.8609752  49.3877248  81.5996104 120.3799752  49.5487248  82.8736104
 120.6749752  48.4257248  83.6336104 120.4599752  47.1487248  83.1356104
 119.9359752  46.9847248  81.8606104 119.1509752  47.9517248  79.9076104
 119.6519752  50.1647248  81.0586104 120.5349752  50.4367248  83.2316104
 121.0379752  48.5357248  84.5266104 120.6749752  46.3727248  83.6766104
 119.7769752  46.0947248  81.5076104 118.9419752  48.7217248  79.3726104
 118.6319752  51.3637248  44.2016104 119.1329752  50.5157248  45.1896104
 118.9769752  50.8457248  46.5256104 118.3199752  52.0197248  46.8626104
 117.8179752  52.8647248  45.8836104 117.9769752  52.5387248  44.5436104
 118.7819752  51.0607248  42.9516104 119.5899752  49.6967248  44.9416104
 119.3239752  50.2627248  47.2186104 118.2099752  52.2537248  47.7976104
 117.3569752  53.6807248  46.1336104 117.6339752  53.1267248  43.8526104
 119.2359752  50.2507248  42.7056104  60.1659752  45.3837248  98.3136104
  58.9019752  45.8157248  98.7126104  58.6759752  47.1617248  98.9506104
  59.7179752  48.0637248  98.7866104  60.9769752  47.6377248  98.3876104
  61.2059752  46.2887248  98.1526104  60.3809752  44.1247248  98.0956104
  58.1809752  45.1757248  98.8216104  57.7999752  47.4707248  99.2296104
  59.5639752  49.0067248  98.9536104  61.6939752  48.2797248  98.2736104
  62.0849752  45.9827248  97.8786104  59.6679752  43.4907248  98.2066104
  51.6249752  65.4317248  73.3776104  50.9219752  65.2807248  74.5736104
  51.5049752  64.6087248  75.6356104  52.7849752  64.0947248  75.4926104
  53.4879752  64.2447248  74.3056104  52.9049752  64.9137248  73.2386104
  51.0799752  66.0547248  72.3816104  50.0279752  65.6457248  74.6616104
  51.0229752  64.4977248  76.4696104  53.1959752  63.6217248  76.2346104
  54.3839752  63.8837248  74.2216104  53.3869752  65.0187248  72.4036104
  50.1939752  66.4147248  72.4676104  98.1739752  28.1627248  76.9186104
  99.4789752  27.7247248  77.1436104 100.1449752  28.1047248  78.2976104
  99.4999752  28.9187248  79.2166104  98.2009752  29.3557248  78.9976104
  97.5329752  28.9797248  77.8396104  97.5519752  27.8137248  75.8376104
  99.9189752  27.1537248  76.4946104 101.0529752  27.8047248  78.4616104
  99.9639752  29.1867248  80.0256104  97.7609752  29.9207248  79.6506104
  96.6269752  29.2857248  77.6766104  97.9879752  27.2517248  75.1936104
  99.1249752 125.8107248  80.6016104  98.2319752 124.8377248  81.0476104
  98.6239752 123.5097248  81.0916104  99.9059752 123.1667248  80.6896104
 100.7989752 124.1327248  80.2466104 100.4069752 125.4637248  80.1986104
  98.7589752 127.0527248  80.5546104  97.3379752 125.0897248  81.3276104
  98.0079752 122.8267248  81.3996104 100.1839752 122.2377248  80.7176104
 101.6939752 123.8797248  79.9726104 101.0239752 126.1447248  79.8846104
  97.8739752 127.3017248  80.8296104  48.3519752 105.1617248  55.0226104
  47.0379752 104.7937248  55.3116104  46.0249752 105.7347248  55.2296104
  46.3349752 107.0347248  54.8596104  47.6409752 107.4037248  54.5686104
  48.6579752 106.4647248  54.6536104  49.3019752 104.2847248  55.1046104
  46.8339752 103.8807248  55.5686104  45.1089752 105.4877248  55.4306104
  45.6269752 107.6967248  54.8016104  47.8409752 108.3157248  54.3066104
  49.5749752 106.7157248  54.4586104  49.1009752 103.3817248  55.3606104
  53.4409752 108.8317248  82.1136104  53.6189752 110.1477248  81.6876104
  53.0929752 110.5577248  80.4736104  52.3929752 109.6467248  79.6966104
  52.2109752 108.3367248  80.1176104  52.7409752 107.9237248  81.3316104
  53.9369752 108.4457248  83.2466104  54.1099752 110.7757248  82.2406104
  53.2139752 111.4697248  80.1696104  52.0239752 109.9297248  78.8446104
  51.7149752 107.7127248  79.5656104  52.6229752 107.0087248  81.6316104
  54.4249752 109.0667248  83.7926104 118.5499752  65.3807248  49.3936104
 118.5219752  63.9857248  49.4016104 119.6939752  63.2717248  49.2136104
 120.8839752  63.9577248  49.0206104 120.9159752  65.3457248  49.0146104
 119.7429752  66.0637248  49.1986104 117.4549752  66.0507248  49.5636104
 117.6839752  63.5177248  49.5386104 119.6829752  62.3017248  49.2156104
 121.7059752  63.4607248  48.8876104 121.7559752  65.8117248  48.8826104
 119.7559752  67.0337248  49.1896104 116.6249752  65.5867248  49.6976104
  75.5249752  30.7467248  72.5076104  74.3999752  30.7347248  71.6836104
  73.7479752  31.9207248  71.3876104  74.2289752  33.1087248  71.9176104
  75.3499752  33.1257248  72.7356104  76.0009752  31.9377248  73.0376104
  76.1319752  29.6377248  72.7896104  74.0739752  29.8977248  71.3176104
  72.9649752  31.9207248  70.8166104  73.7749752  33.9417248  71.7126104
  75.6769752  33.9647248  73.0956104  76.7819752  31.9407248  73.6126104
  75.8079752  28.8087248  72.4296104  85.4439752  56.5357248 120.3846104
  86.4379752  56.7377248 119.4276104  87.7709752  56.7257248 119.8036104
  88.0979752  56.5107248 121.1346104  87.1119752  56.3067248 122.0896104
  85.7759752  56.3217248 121.7156104  84.1969752  56.5517248 120.0366104
  86.1959752  56.8857248 118.4996104  88.4679752  56.8667248 119.1446104
  89.0309752  56.5017248 121.4016104  87.3559752  56.1527248 123.0156104
  85.0799752  56.1857248 122.3786104  83.9569752  56.7007248 119.1186104
 102.7339752  76.7907248  78.0816104 102.6439752  77.9847248  77.3666104
 102.3499752  77.9577248  76.0136104 102.1479752  76.7367248  75.3866104
 102.2349752  75.5467248  76.0956104 102.5329752  75.5707248  77.4506104
 103.0139752  76.8127248  79.3456104 102.7859752  78.8327248  77.8166104
 102.2859752  78.7837248  75.5086104 101.9429752  76.7147248  74.4386104
 102.0869752  74.7007248  75.6446104 102.6019752  74.7427248  77.9516104
 103.1569752  77.6517248  79.7906104  62.6829752 117.1537248  68.3296104
  63.7409752 117.5077248  69.1666104  63.7439752 117.0917248  70.4886104
  62.6899752 116.3237248  70.9606104  61.6369752 115.9677248  70.1296104
  61.6289752 116.3867248  68.8066104  62.6749752 117.5457248  67.0956104
  64.4729752 118.0437248  68.8246104  64.4749752 117.3347248  71.0766104
  62.6889752 116.0317248  71.8856104  60.9079752 115.4267248  70.4726104
  60.8939752 116.1467248  68.2216104  63.3989752 118.0787248  66.7566104
  60.6789752 110.3477248  26.0496104  61.2419752 109.2157248  26.6376104
  62.2769752 108.5497248  26.0006104  62.7399752 109.0237248  24.7826104
  62.1839752 110.1517248  24.1956104  61.1449752 110.8177248  24.8296104
  59.7079752 110.9687248  26.6406104  60.9099752 108.8947248  27.4906104
  62.6729752 107.7607248  26.4016104  63.4639752 108.5597248  24.3336104
  62.5219752 110.4737248  23.3456104  60.7469752 111.6037248  24.4226104
  59.3779752 110.6497248  27.4836104 126.7309752  79.3637248 102.6016104
 127.5819752  78.6217248 101.7826104 127.6279752  78.8787248 100.4226104
 126.8229752  79.8767248  99.8936104 125.9769752  80.6197248 100.7046104
 125.9259752  80.3607248 102.0676104 126.6819752  79.1217248 103.8726104
 128.1409752  77.9277248 102.1656104 128.2159752  78.3667248  99.8466104
 126.8519752  80.0587248  98.9406104 125.4229752  81.3167248 100.3216104
 125.3329752  80.8707248 102.6406104 127.2339752  78.4327248 104.2516104
  91.1089752  21.5807248  94.4016104  91.7249752  22.3317248  93.4006104
  91.3409752  22.1677248  92.0796104  90.3419752  21.2557248  91.7716104
  89.7249752  20.5087248  92.7656104  90.1109752  20.6677248  94.0886104
  91.4699752  21.7287248  95.6366104  92.4209752  22.9677248  93.6286104
  91.7649752  22.6847248  91.3776104  90.0709752  21.1377248  90.8476104
  89.0249752  19.8777248  92.5356104  89.6879752  20.1457248  94.7886104
  92.1609752  22.3557248  95.8616104  75.3799752 133.5527248  76.5606104
  76.2769752 132.4867248  76.4756104  75.8609752 131.2077248  76.8056104
  74.5519752 131.0047248  77.2166104  73.6559752 132.0617248  77.2996104
  74.0709752 133.3447248  76.9736104  75.7679752 134.7507248  76.2576104
  77.1889752 132.6417248  76.1866104  76.4779752 130.4617248  76.7516104
  74.2569752 130.1097248  77.4486104  72.7419752 131.9037248  77.5836104
  73.4529752 134.0897248  77.0346104  76.6719752 134.9037248  75.9736104
  64.9139752  35.9607248 114.0346104  64.0889752  35.2157248 114.8776104
  64.6139752  34.6347248 116.0196104  65.9599752  34.8057248 116.3106104
  66.7829752  35.5487248 115.4766104  66.2609752  36.1277248 114.3286104
  64.4269752  36.5007248 112.9636104  63.1489752  35.1047248 114.6636104
  64.0479752  34.1147248 116.6106104  66.3309752  34.3997248 117.1096104
  67.7209752  35.6627248 115.6946104  66.8309752  36.6437248 113.7376104
  63.4969752  36.3887248 112.7506104  30.9029752  59.2847248 100.2616104
  31.1319752  58.5227248  99.1156104  30.4189752  57.3527248  98.9116104
  29.4819752  56.9557248  99.8546104  29.2499752  57.7117248 100.9946104
  29.9659752  58.8817248 101.2036104  31.5729752  60.3747248 100.4576104
  31.7889752  58.8117248  98.4636104  30.5729752  56.8167248  98.1186104
  28.9809752  56.1367248  99.7146104  28.5879752  57.4247248 101.6426104
  29.8139752  59.4137248 102.0006104  32.2249752  60.6607248  99.8136104
 121.1139752  76.5907248  87.4986104 120.8189752  77.5927248  86.5746104
 120.8659752  78.9227248  86.9606104 121.2079752  79.2387248  88.2666104
 121.5039752  78.2447248  89.1886104 121.4539752  76.9117248  88.8066104
 121.0649752  75.3467248  87.1426104 120.5829752  77.3597248  85.6636104
 120.6619752  79.6257248  86.3236104 121.2409752  80.1687248  88.5406104
 121.7459752  78.4807248  90.0976104 121.6539752  76.2107248  89.4466104
 120.8289752  75.1157248  86.2406104 111.1789752 106.9167248  74.6176104
 111.5149752 106.0727248  75.6766104 112.7849752 106.1287248  76.2266104
 113.7079752 107.0277248  75.7126104 113.3769752 107.8697248  74.6606104
 112.1059752 107.8137248  74.1056104 109.9939752 106.8627248  74.0986104
 110.8599752 105.4497248  76.0286104 113.0269752 105.5447248  76.9626104
 114.5989752 107.0687248  76.0956104 114.0309752 108.4967248  74.3146104
 111.8679752 108.3947248  73.3666104 109.3459752 106.2437248  74.4446104
 115.0719752  70.6497248  64.6636104 113.7729752  71.0017248  65.0276104
 113.4439752  72.3357248  65.2076104 114.4179752  73.3047248  65.0216104
 115.7119752  72.9587248  64.6576104 116.0449752  71.6227248  64.4806104
 115.3829752  69.4027248  64.5006104 113.0999752  70.3147248  65.1526104
 112.5429752  72.5887248  65.4616104 114.1919752  74.2397248  65.1476104
 116.3819752  73.6477248  64.5266104 116.9479752  71.3717248  64.2316104
 114.7179752  68.7217248  64.6266104  73.5539752 108.2707248  24.6516104
  72.7099752 107.1627248  24.5746104  72.6889752 106.2387248  25.6066104
  73.5119752 106.4317248  26.7066104  74.3509752 107.5337248  26.7876104
  74.3769752 108.4587248  25.7536104  73.5799752 109.1327248  23.6856104
  72.1389752 107.0397248  23.8006104  72.1059752 105.4647248  25.5596104
  73.4999752 105.7857248  27.4306104  74.9179752 107.6577248  27.5646104
  74.9659752 109.2287248  25.7996104  73.0159752 109.0097248  22.9176104
  77.8319752  25.0397248 101.7466104  78.4159752  25.1807248 103.0056104
  79.1099752  24.1217248 103.5666104  79.2139752  22.9297248 102.8646104
  78.6359752  22.7857248 101.6106104  77.9369752  23.8447248 101.0476104
  77.1779752  26.0267248 101.2226104  78.3379752  26.0197248 103.4866104
  79.5179752  24.2107248 104.4416104  79.6979752  22.1857248 103.2546104
  78.7199752  21.9487248 101.1296104  77.5249752  23.7507248 100.1746104
  77.0979752  26.8567248 101.6986104  65.8869752 113.3507248  80.1966104
  65.8929752 112.5037248  81.3056104  66.3369752 111.1977248  81.1736104
  66.7729752 110.7517248  79.9346104  66.7709752 111.5917248  78.8296104
  66.3219752 112.8987248  78.9586104  65.4669752 114.5697248  80.3166104
  65.5869752 112.8277248  82.1666104  66.3429752 110.6027248  81.9386104
  67.0839752 109.8367248  79.8386104  67.0819752 111.2667248  77.9706104
  66.3119752 113.4907248  78.1896104  65.1619752 114.8907248  81.1686104
  77.5829752 106.5937248  37.1156104  78.1879752 105.3617248  36.8656104
  79.4839752 105.3147248  36.3806104  80.1659752 106.5007248  36.1506104
  79.5689752 107.7287248  36.4006104  78.2689752 107.7787248  36.8826104
  76.3689752 106.6407248  37.5646104  77.7009752 104.5397248  37.0316104
  79.9109752 104.4627248  36.2026104  81.0739752 106.4717248  35.8096104
  80.0589752 108.5497248  36.2386104  77.8419752 108.6327248  37.0546104
  75.8869752 105.8267248  37.7266104  26.7509752  69.1527248  77.7526104
  26.0499752  70.0177248  78.5926104  25.9439752  69.7317248  79.9436104
  26.5419752  68.5837248  80.4436104  27.2429752  67.7227248  79.6116104
  27.3459752  68.0037248  78.2566104  26.8459752  69.4147248  76.4876104
  25.6369752  70.8177248  78.2316104  25.4569752  70.3267248  80.5346104
  26.4699752  68.3807248  81.3896104  27.6589752  66.9257248  79.9756104
  27.8289752  67.4037248  77.6666104  26.4349752  70.2047248  76.1296104
  58.8279752  47.0297248  93.6386104  57.8439752  46.7157248  92.7016104
  56.5209752  46.6137248  93.0986104  56.1929752  46.8287248  94.4296104
  57.1689752  47.1437248  95.3646104  58.4959752  47.2417248  94.9706104
  60.0669752  47.1197248  93.2716104  58.0859752  46.5697248  91.7736104
  55.8309752  46.3947248  92.4536104  55.2669752  46.7567248  94.7106104
  56.9249752  47.2957248  96.2906104  59.1849752  47.4567248  95.6186104
  60.3069752  46.9727248  92.3536104 125.9269752  54.7127248  82.2346104
 126.5869752  53.5847248  81.7486104 126.2009752  52.3237248  82.1716104
 125.1569752  52.2017248  83.0776104 124.4959752  53.3217248  83.5616104
 124.8839752  54.5867248  83.1426104 126.2899752  55.8937248  81.8446104
 127.3139752  53.6827248  81.1146104 126.6549752  51.5337248  81.8396104
 124.8839752  51.3197248  83.3766104 123.7649752  53.2217248  84.1906104
 124.4309752  55.3747248  83.4806104 127.0119752  55.9907248  81.2196104
 118.2459752  53.8717248  69.8706104 119.3239752  53.1047248  70.3116104
 119.3909752  52.7077248  71.6376104 118.3789752  53.0797248  72.5096104
 117.3029752  53.8407248  72.0736104 117.2359752  54.2437248  70.7476104
 118.1839752  54.2487248  68.6336104 120.0249752  52.8497248  69.6916104
 120.1379752  52.1757248  71.9526104 118.4239752  52.8037248  73.4386104
 116.5999752  54.0897248  72.6936104 116.4899752  54.7797248  70.4356104
 118.8789752  53.9987248  68.0196104 101.7159752 100.6997248  35.1336104
 101.2269752 100.5317248  33.8376104 100.8219752 101.6347248  33.1046104
 100.9099752 102.8967248  33.6736104 101.3979752 103.0687248  34.9616104
 101.8009752 101.9637248  35.6996104 102.0899752  99.6687248  35.8226104
 101.1709752  99.6437248  33.4506104 100.4789752 101.5267248  32.2036104
 100.6259752 103.6717248  33.1636104 101.4579752 103.9577248  35.3446104
 102.1379752 102.0747248  36.6026104 102.0329752  98.7897248  35.4406104
  31.9329752  76.0007248  44.5636104  30.7049752  75.6437248  44.0076104
  30.5269752  75.6977248  42.6356104  31.5799752  76.1077248  41.8306104
  32.8039752  76.4617248  42.3796104  32.9829752  76.4127248  43.7546104
  32.0999752  75.9567248  45.8476104  29.9769752  75.3567248  44.5806104
  29.6759752  75.4517248  42.2406104  31.4579752  76.1477248  40.8686104
  33.5319752  76.7427248  41.8046104  33.8339752  76.6647248  44.1476104
  31.3779752  75.6757248  46.4156104  67.2899752  89.6677248 124.7956104
  67.7619752  89.3207248 123.5296104  66.9239752  88.6787248 122.6336104
  65.6209752  88.3897248 123.0106104  65.1459752  88.7347248 124.2676104
  65.9849752  89.3747248 125.1696104  68.0729752  90.2637248 125.6376104
  68.6749752  89.5297248 123.2776104  67.2449752  88.4327248 121.7516104
  65.0309752  87.9387248 122.3846104  64.2309752  88.5297248 124.5156104
  65.6629752  89.6147248 126.0526104  68.9769752  90.4687248 125.3896104
  43.7009752  54.2947248  96.9106104  44.2109752  54.3197248  95.6136104
  43.3559752  54.1777248  94.5326104  41.9979752  54.0127248  94.7596104
  41.4859752  53.9887248  96.0486104  42.3409752  54.1267248  97.1336104
  44.4989752  54.4217248  97.9226104  45.1629752  54.4377248  95.4676104
  43.7039752  54.1937248  93.6276104  41.3959752  53.9117248  94.0046104
  40.5329752  53.8767248  96.1916104  41.9909752  54.1057248  98.0376104
  45.4409752  54.5357248  97.7796104  45.1239752 117.7477248  96.5566104
  46.3119752 118.2047248  97.1286104  46.5689752 117.9637248  98.4686104
  45.6369752 117.2677248  99.2236104  44.4559752 116.8097248  98.6576104
  44.1939752 117.0527248  97.3166104  44.8789752 117.9767248  95.3056104
  46.9559752 118.6887248  96.5896104  47.3919752 118.2787248  98.8746104
  45.8139752 117.0977248 100.1626104  43.8149752 116.3197248  99.1976104
  43.3679752 116.7407248  96.9146104  45.5159752 118.4587248  94.7726104
  82.2159752  37.4517248  38.8716104  81.5299752  37.4827248  40.0856104
  82.2369752  37.5337248  41.2756104  83.6239752  37.5537248  41.2406104
  84.3089752  37.5257248  40.0346104  83.6029752  37.4707248  38.8416104
  81.5569752  37.3987248  37.7576104  80.5599752  37.4697248  40.0976104
  81.7679752  37.5537248  42.1246104  84.1219752  37.5887248  42.0726104
  85.2789752  37.5447248  40.0256104  84.0749752  37.4447248  37.9936104
  80.5969752  37.3827248  37.7686104  32.7299752  86.0987248  94.0556104
  32.2199752  85.0717248  94.8496104  32.0659752  85.2657248  96.2126104
  32.4229752  86.4847248  96.7686104  32.9289752  87.5097248  95.9816104
  33.0879752  87.3167248  94.6166104  32.8809752  85.9167248  92.7816104
  31.9719752  84.2237248  94.4486104  31.7129752  84.5567248  96.7716104
  32.3169752  86.6237248  97.7236104  33.1699752  88.3587248  96.3836104
  33.4469752  88.0257248  94.0606104  32.6379752  85.0777248  92.3846104
  41.3269752  89.3337248 112.7406104  40.5879752  90.1367248 111.8716104
  40.4889752  89.7947248 110.5326104  41.1289752  88.6527248 110.0746104
  41.8629752  87.8497248 110.9366104  41.9669752  88.1917248 112.2776104
  41.4259752  89.6537248 113.9916104  40.1439752  90.9317248 112.2046104
  39.9779752  90.3487248 109.9216104  41.0619752  88.4107248 109.1376104
  42.3009752  87.0517248 110.6026104  42.4829752  87.6387248 112.8846104
  40.9879752  90.4427248 114.3206104  82.8079752  90.9727248 136.6126104
  83.9629752  90.5417248 137.2646104  83.9529752  90.3577248 138.6366104
  82.7869752  90.6047248 139.3466104  81.6339752  91.0307248 138.7016104
  81.6429752  91.2207248 137.3266104  82.8159752  91.1507248 135.3296104
  84.7719752  90.3707248 136.7566104  84.7529752  90.0597248 139.0976104
  82.7769752  90.4777248 140.3076104  80.8249752  91.1957248 139.2096104
  80.8429752  91.5237248 136.8686104  83.6179752  90.9847248 134.8276104
  41.3379752  69.1947248  67.4116104  40.4699752  70.0757248  68.0566104
  40.4359752  70.1227248  69.4406104  41.2729752  69.2887248  70.1676104
  42.1399752  68.4127248  69.5296104  42.1719752  68.3607248  68.1436104
  41.3669752  69.1457248  66.1176104  39.8909752  70.6547248  67.5366104
  39.8349752  70.7307248  69.8956104  41.2519752  69.3177248  71.1376104
  42.7219752  67.8387248  70.0516104  42.7709752  67.7467248  67.6896104
  40.7919752  69.7167248  65.6026104  31.3639752  80.8377248  48.2206104
  31.4629752  82.0657248  48.8756104  31.8189752  83.1997248  48.1646104
  32.0719752  83.0967248  46.8046104  31.9719752  81.8777248  46.1486104
  31.6199752  80.7387248  46.8596104  31.0369752  79.7747248  48.8836104
  31.2829752  82.1247248  49.8266104  31.8919752  84.0567248  48.6126104
  32.3219752  83.8887248  46.3036104  32.1469752  81.8217248  45.1966104
  31.5529752  79.8817248  46.4096104  30.8599752  79.8327248  49.8256104
  46.9869752 101.5847248  39.7346104  46.2619752 102.7517248  39.4926104
  45.8839752 103.0737248  38.1996104  46.2339752 102.2257248  37.1596104
  46.9519752 101.0617248  37.3956104  47.3359752 100.7387248  38.6896104
  47.3459752 101.2837248  40.9416104  46.0229752 103.3357248  40.2286104
  45.3819752 103.8837248  38.0226104  45.9709752 102.4487248  36.2516104
  47.1859752 100.4757248  36.6586104  47.8429752  99.9307248  38.8626104
  47.1109752 101.8637248  41.6706104 102.3519752 103.9137248  46.0286104
 103.3139752 103.5667248  45.0796104 103.3629752 104.2387248  43.8696104
 102.4499752 105.2517248  43.6186104 101.4929752 105.6017248  44.5616104
 101.4389752 104.9277248  45.7726104 102.3009752 103.2827248  47.1586104
 103.9479752 102.8567248  45.2676104 104.0269752 104.0027248  43.2036104
 102.4809752 105.7247248  42.7716104 100.8639752 106.3157248  44.3746104
 100.7699752 105.1617248  46.4346104 102.9269752 102.5787248  47.3436104
  32.8149752  46.5837248 113.3436104  32.1959752  45.3337248 113.3316104
  32.7039752  44.3047248 114.1076104  33.8249752  44.5357248 114.8906104
  34.4419752  45.7787248 114.9076104  33.9379752  46.8097248 114.1276104
  32.3459752  47.5457248 112.6146104  31.4119752  45.1857248 112.7806104
  32.2799752  43.4327248 114.1036104  34.1829752  43.8167248 115.4356104
  35.2229752  45.9267248 115.4636104  34.3669752  47.6797248 114.1296104
  31.5709752  47.3987248 112.0666104 134.3499752  60.2807248  69.0336104
 135.0109752  59.6697248  67.9686104 134.8229752  60.1397248  66.6786104
 133.9759752  61.2177248  66.4666104 133.3189752  61.8307248  67.5246104
 133.5029752  61.3587248  68.8166104 134.5199752  59.8397248  70.2396104
 135.6009752  58.9167248  68.1296104 135.2769752  59.7197248  65.9326104
 133.8419752  61.5497248  65.5646104 132.7339752  62.5867248  67.3616104
 133.0429752  61.7777248  69.5606104 135.1029752  59.0937248  70.3996104
  86.8179752  70.3997248  34.9946104  87.9659752  70.1297248  35.7396104
  87.8539752  69.7607248  37.0696104  86.5949752  69.6647248  37.6436104
  85.4499752  69.9297248  36.9046104  85.5599752  70.3037248  35.5726104
  86.9209752  70.7507248  33.7516104  88.8409752  70.1987248  35.3266104
  88.6469752  69.5717248  37.5946104  86.5119752  69.4067248  38.5756104
  84.5759752  69.8547248  37.3176104  84.7649752  70.4977248  35.0506104
  87.7879752  70.8217248  33.3436104 111.2159752  61.2527248  82.7556104
 110.5659752  60.8907248  83.9346104 109.7529752  61.8067248  84.5836104
 109.5959752  63.0757248  84.0456104 110.2399752  63.4387248  82.8706104
 111.0579752  62.5247248  82.2216104 111.9809752  60.4007248  82.1506104
 110.6819752  60.0007248  84.3006104 109.2979752  61.5627248  85.4046104
 109.0279752  63.7187248  84.4976104 110.1169752  64.3277248  82.5036104
 111.5159752  62.7727248  81.4026104 112.0989752  59.5197248  82.5136104
  25.6049752  83.1327248  59.3156104  24.7029752  82.7187248  60.2956104
  23.7869752  83.6187248  60.8146104  23.7799752  84.9257248  60.3476104
  24.6739752  85.3407248  59.3706104  25.5949752  84.4417248  58.8526104
  26.4659752  82.2947248  58.8326104  24.7169752  81.8027248  60.6136104
  23.1579752  83.3397248  61.4976104  23.1399752  85.5587248  60.7096104
  24.6539752  86.2557248  59.0506104  26.2269752  84.7247248  58.1726104
  26.4809752  81.3877248  59.1486104 114.0349752  60.7957248 126.2626104
 114.1519752  59.6237248 127.0096104 113.8769752  59.6417248 128.3676104
 113.4869752  60.8307248 128.9656104 113.3679752  61.9987248 128.2246104
 113.6469752  61.9847248 126.8656104 114.2969752  60.7827248 124.9936104
 114.4239752  58.7987248 126.5796104 113.9569752  58.8317248 128.8946104
 113.2949752  60.8467248 129.9166104 113.0899752  62.8217248 128.6556104
 113.5709752  62.7977248 126.3416104 114.5689752  59.9657248 124.5686104
  93.3749752  96.2507248  54.7046104  92.8259752  97.1507248  53.7916104
  91.9609752  96.6957248  52.8096104  91.6509752  95.3447248  52.7516104
  92.1939752  94.4467248  53.6596104  93.0639752  94.8987248  54.6416104
  94.1889752  96.6727248  55.6196104  93.0489752  98.0927248  53.8436104
  91.5759752  97.3147248  52.1706104  91.0459752  95.0227248  52.0646104
  91.9649752  93.5057248  53.6096104  93.4519752  94.2767248  55.2766104
  94.4119752  97.6057248  55.6706104  77.1629752  64.5727248 132.8536104
  77.4699752  63.7407248 133.9296104  77.6169752  64.2787248 135.1976104
  77.4549752  65.6447248 135.3786104  77.1469752  66.4757248 134.3106104
  77.0029752  65.9387248 133.0386104  77.0309752  64.0727248 131.6666104
  77.5799752  62.7867248 133.7916104  77.8319752  63.7077248 135.9516104
  77.5579752  66.0247248 136.2646104  77.0319752  67.4277248 134.4516104
  76.7939752  66.5137248 132.2856104  77.1419752  63.1287248 131.5286104
  66.5209752  54.0337248 132.5346104  66.8939752  53.0567248 133.4566104
  66.2799752  53.0087248 134.6976104  65.2969752  53.9387248 135.0036104
  64.9209752  54.9107248 134.0876104  65.5379752  54.9627248 132.8456104
  67.0979752  54.0837248 131.3756104  67.5819752  52.4117248 133.2306104
  66.5349752  52.3337248 135.3456104  64.8649752  53.9077248 135.8726104
  64.2289752  55.5507248 134.3136104  65.2849752  55.6427248 132.2016104
  67.7809752  53.4467248 131.1526104 122.6899752  62.1207248  37.2706104
 121.3689752  62.5677248  37.2946104 120.4029752  61.9067248  36.5536104
 120.7669752  60.8017248  35.7966104 122.0799752  60.3527248  35.7726104
 123.0499752  61.0167248  36.5106104 123.5949752  62.7417248  37.9576104
 121.1259752  63.3407248  37.8286104 119.4829752  62.2117248  36.5636104
 120.0929752  60.3367248  35.2766104 122.3179752  59.5767248  35.2426104
 123.9709752  60.7117248  36.4946104 123.3559752  63.5077248  38.4856104
  40.2789752 107.8207248  85.5466104  41.2529752 107.7977248  86.5456104
  41.2269752 108.7447248  87.5566104  40.2259752 109.7057248  87.5596104
  39.2539752 109.7307248  86.5696104  39.2809752 108.7857248  85.5536104
  40.3049752 106.9407248  84.5976104  41.9469752 107.1207248  86.5326104
  41.9009752 108.7367248  88.2536104  40.2049752 110.3707248  88.2656104
  38.5579752 110.4057248  86.5876104  38.6089752 108.7997248  84.8536104
  40.9929752 106.2707248  84.5836104  87.1289752  22.2527248  49.8936104
  85.8979752  21.6547248  49.6276104  85.5359752  21.3717248  48.3206104
  86.4099752  21.6887248  47.2906104  87.6369752  22.2817248  47.5516104
  87.9999752  22.5707248  48.8596104  87.4669752  22.5237248  51.1146104
  85.2959752  21.4367248  50.3556104  84.6809752  20.9567248  48.1266104
  86.1599752  21.4927248  46.3746104  88.2399752  22.4937248  46.8226104
  88.8529752  22.9907248  49.0506104  86.8699752  22.3097248  51.8356104
 129.0469752  71.9667248  75.3136104 129.9449752  70.9977248  74.8656104
 129.6919752  70.3147248  73.6876104 128.5429752  70.6067248  72.9666104
 127.6479752  71.5727248  73.4076104 127.8979752  72.2547248  74.5906104
 129.2789752  72.6017248  76.4176104 130.7449752  70.8027248  75.3776104
 130.3099752  69.6387248  73.3696104 128.3619752  70.1297248  72.1416104
 126.8519752  71.7697248  72.8916104 127.2749752  72.9267248  74.9086104
 130.0699752  72.4077248  76.9266104 119.7119752  79.7077248  70.7276104
 118.9579752  80.8417248  70.4236104 119.3469752  81.6697248  69.3846104
 120.4849752  81.3567248  68.6556104 121.2359752  80.2287248  68.9526104
 120.8509752  79.3987248  69.9966104 119.3539752  78.9347248  71.7026104
 118.1639752  81.0497248  70.9396104 118.8289752  82.4607248  69.1676104
 120.7599752  81.9357248  67.9266104 122.0269752  80.0197248  68.4316104
 121.3739752  78.6107248  70.2146104 118.5689752  79.1407248  72.2146104
 103.6769752  53.8577248 126.7916104 102.5299752  53.3737248 126.1616104
 101.5159752  52.8087248 126.9166104 101.6559752  52.7327248 128.2946104
 102.7949752  53.2147248 128.9246104 103.8139752  53.7777248 128.1706104
 104.6299752  54.3817248 126.0876104 102.4429752  53.4337248 125.1976104
 100.7159752  52.4687248 126.4866104 100.9469752  52.3367248 128.8256104
 102.8769752  53.1597248 129.8896104 104.6159752  54.1127248 128.6036104
 104.5449752  54.4387248 125.1326104  47.1589752  64.8187248 132.3336104
  47.0559752  66.1987248 132.5066104  47.4199752  66.7707248 133.7146104
  47.8839752  65.9577248 134.7386104  47.9889752  64.5847248 134.5686104
  47.6219752  64.0087248 133.3606104  46.8139752  64.2817248 131.2066104
  46.7309752  66.7577248 131.7836104  47.3499752  67.7297248 133.8446104
  48.1389752  66.3547248 135.5866104  48.3199752  64.0287248 135.2916104
  47.6869752  63.0487248 133.2356104  46.4899752  64.8337248 130.4906104
  34.1559752  88.5587248  73.7996104  32.7679752  88.4457248  73.8616104
  32.0719752  89.0457248  74.8986104  32.7719752  89.7557248  75.8636104
  34.1529752  89.8727248  75.8036104  34.8529752  89.2687248  74.7686104
  34.8089752  87.9937248  72.8346104  32.2899752  87.9477248  73.1806104
  31.1069752  88.9707248  74.9496104  32.2879752  90.1767248  76.5906104
  34.6289752  90.3757248  76.4826104  35.8189752  89.3407248  74.7226104
  34.3359752  87.4987248  72.1606104  95.6609752 115.6527248 105.2006104
  96.5919752 114.6157248 105.1406104  97.9379752 114.9037248 104.9926104
  98.3429752 116.2277248 104.9076104  97.4209752 117.2627248 104.9686104
  96.0709752 116.9767248 105.1126104  94.4009752 115.3857248 105.3326104
  96.2959752 113.6937248 105.2026104  98.5909752 114.1877248 104.9496104
  99.2859752 116.4327248 104.8026104  97.7189752 118.1837248 104.9126104
  95.4189752 117.6947248 105.1506104  94.1079752 114.4727248 105.3926104
  28.1749752  73.5657248  90.1876104  28.7809752  73.4307248  91.4366104
  28.0319752  73.6047248  92.5896104  26.6839752  73.9107248  92.4826104
  26.0759752  74.0427248  91.2416104  26.8249752  73.8737248  90.0856104
  28.8739752  73.4087248  89.1096104  29.7249752  73.2157248  91.4986104
  28.4469752  73.5147248  93.4616104  26.1569752  74.0347248  93.2876104
  25.1309752  74.2527248  91.1826104  26.4089752  73.9697248  89.2146104
  29.8079752  73.1977248  89.1696104  93.6629752 112.7667248 112.9986104
  94.8879752 113.3777248 112.7316104  95.6919752 112.8957248 111.7116104
  95.2629752 111.8077248 110.9666104  94.0439752 111.1977248 111.2266104
  93.2379752 111.6767248 112.2506104  92.9119752 113.2127248 113.9546104
  95.1769752 114.1387248 113.2586104  96.5459752 113.3137248 111.5206104
  95.8239752 111.4667248 110.2516104  93.7549752 110.4407248 110.6946104
  92.3869752 111.2527248 112.4436104  93.1989752 113.9647248 114.4786104
  85.5329752  92.8607248  17.7586104  86.5649752  93.5517248  18.3936104
  87.8809752  93.1827248  18.1706104  88.1539752  92.1257248  17.3146104
  87.1299752  91.4367248  16.6796104  85.8099752  91.8027248  16.9046104
  84.3009752  93.2007248  17.9696104  86.3619752  94.2897248  18.9886104
  88.6049752  93.6567248  18.6086104  89.0749752  91.8637248  17.1566104
  87.3359752  90.7027248  16.0806104  85.0879752  91.3227248  16.4686104
  84.0999752  93.9297248  18.5606104  49.1789752  64.3687248  83.0416104
  49.6289752  64.9737248  81.8676104  48.9229752  64.7997248  80.6876104
  47.7739752  64.0227248  80.6926104  47.3229752  63.4207248  81.8586104
  48.0299752  63.5897248  83.0406104  49.8399752  64.5257248  84.1436104
  50.4329752  65.5157248  81.8776104  49.2299752  65.2157248  79.8676104
  47.2789752  63.8977248  79.8676104  46.5149752  62.8837248  81.8476104
  47.7239752  63.1677248  83.8596104  50.6379752  65.0597248  84.1536104
  56.4339752  33.5047248  54.0786104  55.9159752  34.1317248  55.2126104
  56.1079752  35.4907248  55.3986104  56.8149752  36.2117248  54.4476104
  57.3299752  35.5927248  53.3166104  57.1419752  34.2307248  53.1316104
  56.2599752  32.2337248  53.9066104  55.4219752  33.6167248  55.8696104
  55.7529752  35.9337248  56.1846104  56.9519752  37.1637248  54.5746104
  57.8179752  36.1107248  52.6586104  57.5039752  33.7887248  52.3466104
  55.7729752  31.7227248  54.5576104 127.6199752  81.5797248  46.7066104
 126.2639752  81.3087248  46.5256104 125.4089752  81.3087248  47.6156104
 125.9179752  81.5807248  48.8766104 127.2659752  81.8527248  49.0606104
 128.1249752  81.8487248  47.9716104 128.4219752  81.5747248  45.6896104
 125.9199752  81.1217248  45.6376104 124.4649752  81.1207248  47.4976104
 125.3209752  81.5807248  49.6426104 127.6069752  82.0447248  49.9486104
 129.0699752  82.0317248  48.0926104 128.0829752  81.3867248  44.8116104
  98.2669752  94.7567248  56.8866104  97.4029752  94.2857248  55.8976104
  97.3949752  94.8817248  54.6476104  98.2509752  95.9447248  54.3976104
  99.1139752  96.4147248  55.3776104  99.1209752  95.8217248  56.6326104
  98.2719752  94.2047248  58.0576104  96.8099752  93.5407248  56.0846104
  96.7969752  94.5617248  53.9556104  98.2469752  96.3647248  53.5226104
  99.7099752  97.1557248  55.1866104  99.7159752  96.1477248  57.3246104
  97.6839752  93.4687248  58.2446104 108.4819752 113.4057248  64.6436104
 107.5009752 112.9047248  65.4996104 107.6719752 111.6647248  66.0946104
 108.8229752 110.9377248  65.8276104 109.8019752 111.4337248  64.9776104
 109.6309752 112.6727248  64.3776104 108.3209752 114.5617248  64.0816104
 106.7019752 113.4237248  65.6796104 106.9949752 111.3097248  66.6906104
 108.9459752 110.0687248  66.2416104 110.6029752 110.9157248  64.8036104
 110.3069752 113.0237248  63.7776104 107.5289752 115.0737248  64.2576104
 111.7419752  52.7957248 106.1876104 110.6229752  53.2377248 106.8926104
 110.7209752  53.4977248 108.2496104 111.9379752  53.3147248 108.8896104
 113.0539752  52.8767248 108.1916104 112.9579752  52.6117248 106.8326104
 111.6519752  52.5467248 104.9196104 109.7779752  53.3637248 106.4336104
 109.9469752  53.8047248 108.7466104 112.0089752  53.4947248 109.8406104
 113.8999752  52.7567248 108.6516104 113.7319752  52.2997248 106.3386104
 110.8149752  52.6687248 104.4656104 104.3349752  80.5887248  20.2276104
 103.0609752  80.0887248  20.4956104 102.2539752  80.7207248  21.4276104
 102.7279752  81.8477248  22.0816104 103.9939752  82.3497248  21.8156104
 104.8059752  81.7157248  20.8856104 105.0929752  79.9967248  19.3606104
 102.7399752  79.3007248  20.0296104 101.3669752  80.3777248  21.6206104
 102.1649752  82.2927248  22.7356104 104.3099752  83.1417248  22.2786104
 105.6949752  82.0577248  20.6986104 104.7769752  79.2147248  18.9016104
  89.5339752  76.5057248 131.0976104  90.3059752  77.6667248 131.1406104
  90.1539752  78.5577248 132.1906104  89.2329752  78.2787248 133.1896104
  88.4649752  77.1227248 133.1516104  88.6119752  76.2317248 132.0986104
  89.6699752  75.6747248 130.1136104  90.9479752  77.8507248 130.4366104
  90.6859752  79.3677248 132.2276104  89.1239752  78.9007248 133.9266104
  87.8279752  76.9387248 133.8596104  88.0749752  75.4247248 132.0616104
  90.3039752  75.8567248 129.4156104  76.4369752  33.3997248 117.8796104
  76.0759752  34.0427248 119.0636104  76.5819752  33.5957248 120.2726104
  77.4449752  32.5107248 120.2876104  77.8089752  31.8697248 119.1116104
  77.2999752  32.3127248 117.8996104  75.9609752  33.8117248 116.7476104
  75.4729752  34.8017248 119.0396104  76.3349752  34.0367248 121.1006104
  77.8009752  32.1947248 121.1336104  78.4169752  31.1147248 119.1376104
  77.5449752  31.8657248 117.0736104  75.3619752  34.5617248 116.7246104
  95.6299752 113.2447248  40.9606104  94.8939752 113.2047248  42.1446104
  95.5489752 113.1017248  43.3606104  96.9339752 113.0427248  43.3826104
  97.6709752 113.0847248  42.2066104  97.0169752 113.1827248  40.9866104
  95.0199752 113.3347248  39.8216104  93.9249752 113.2477248  42.1166104
  95.0439752 113.0717248  44.1886104  97.3959752 112.9697248  44.2326104
  98.6389752 113.0467248  42.2376104  97.5239752 113.2077248  40.1596104
  94.0609752 113.3757248  39.7936104 107.9259752  35.2167248  79.8546104
 106.7279752  35.8347248  79.4986104 105.7719752  36.0947248  80.4666104
 106.0229752  35.7347248  81.7826104 107.2149752  35.1217248  82.1416104
 108.1729752  34.8567248  81.1726104 108.8189752  34.9677248  78.9506104
 106.5639752  36.0837248  78.5756104 104.9349752  36.5227248  80.2276104
 105.3549752  35.9147248  82.4636104 107.3789752  34.8797248  83.0656104
 109.0069752  34.4227248  81.4136104 108.6569752  35.2117248  78.0356104
  58.7929752 112.1357248 126.4586104  57.7559752 112.3827248 127.3576104
  56.6489752 113.1097248 126.9516104  56.5879752 113.5827248 125.6486104
  57.6169752 113.3367248 124.7506104  58.7289752 112.6127248 125.1566104
  59.8309752 111.4617248 126.8376104  57.8089752 112.0457248 128.2656104
  55.9239752 113.2867248 127.5706104  55.8149752 114.0927248 125.3616104
  57.5589752 113.6697248 123.8416104  59.4549752 112.4417248 124.5356104
  59.8859752 111.1297248 127.7366104  92.8149752  38.4097248 106.8056104
  91.6599752  37.6337248 106.8906104  91.0369752  37.4557248 108.1146104
  91.5739752  38.0577248 109.2436104  92.7219752  38.8327248 109.1626104
  93.3509752  39.0087248 107.9376104  93.4029752  38.5727248 105.6626104
  91.2929752  37.2187248 106.0946104  90.2339752  36.9167248 108.1826104
  91.1399752  37.9347248 110.1026104  93.0839752  39.2507248 109.9596104
  94.1569752  39.5447248 107.8736104  93.0409752  38.1607248 104.8746104
  43.2469752  61.9807248  96.1946104  42.8699752  62.5177248  94.9636104
  43.4689752  62.0617248  93.8006104  44.4389752  61.0737248  93.8786104
  44.8139752  60.5347248  95.1016104  44.2189752  60.9927248  96.2686104
  42.6919752  62.4097248  97.2836104  42.1899752  63.2077248  94.9216104
  43.2139752  62.4307248  92.9406104  44.8609752  60.7527248  93.0656104
  45.4909752  59.8417248  95.1406104  44.4799752  60.6257248  97.1276104
  42.0199752  63.0947248  97.2426104  65.8979752  24.2737248  95.2736104
  66.9449752  23.5627248  94.6856104  67.2429752  23.7557248  93.3476104
  66.4939752  24.6587248  92.6076104  65.4539752  25.3707248  93.1896104
  65.1499752  25.1757248  94.5296104  65.6129752  24.0907248  96.5236104
  67.4619752  22.9347248  95.2136104  67.9679752  23.2647248  92.9306104
  66.6999752  24.7957248  91.6696104  64.9409752  26.0017248  92.6616104
  64.4199752  25.6647248  94.9426104  66.1239752  23.4677248  97.0456104
  42.6639752  73.7067248  31.0876104  42.1249752  74.9737248  30.8666104
  41.1669752  75.1557248  29.8836104  40.7549752  74.0667248  29.1296104
  41.2859752  72.8027248  29.3466104  42.2489752  72.6197248  30.3296104
  43.5639752  73.5357248  32.0026104  42.4209752  75.7277248  31.4016104
  40.7889752  76.0337248  29.7226104  40.0839752  74.1897248  28.4386104
  40.9849752  72.0507248  28.8146104  42.6299752  71.7407248  30.4836104
  43.8579752  74.2817248  32.5306104  68.0129752  45.4967248  45.5306104
  67.4979752  46.6987248  45.0446104  67.2869752  46.8587248  43.6846104
  67.5919752  45.8157248  42.8236104  68.1019752  44.6177248  43.3036104
  68.3179752  44.4557248  44.6646104  68.2159752  45.3467248  46.8006104
  67.2879752  47.4207248  45.6576104  66.9299752  47.6917248  43.3386104
  67.4459752  45.9247248  41.8706104  68.3059752  43.8947248  42.6896104
  68.6799752  43.6237248  45.0076104  68.0099752  46.0617248  47.4076104
  37.0479752  47.3187248 105.5516104  35.7419752  47.7267248 105.2806104
  35.4929752  49.0357248 104.9016104  36.5519752  49.9247248 104.7956104
  37.8539752  49.5217248 105.0606104  38.1049752  48.2127248 105.4456104
  37.2819752  46.0967248 105.9116104  35.0089752  47.0957248 105.3576104
  34.5879752  49.3277248 104.7126104  36.3809752  50.8427248 104.5306104
  38.5849752  50.1527248 104.9786104  39.0109752  47.9237248 105.6386104
  36.5569752  45.4727248 105.9896104  65.1149752 113.2967248  73.1416104
  65.5639752 112.0197248  73.4796104  65.3679752 111.5357248  74.7616104
  64.7229752 112.3327248  75.6966104  64.2719752 113.6027248  75.3646104
  64.4719752 114.0907248  74.0806104  65.3029752 113.7527248  71.9446104
  66.0129752 111.4717248  72.8166104  65.6779752 110.6497248  75.0046104
  64.5839752 111.9967248  76.5966104  63.8189752 114.1467248  76.0266104
  64.1649752 114.9797248  73.8426104  65.7489752 113.2117248  71.2896104
 120.2949752 114.5287248  55.7866104 121.1039752 113.4957248  56.2596104
 121.0109752 113.0967248  57.5826104 120.1089752 113.7337248  58.4216104
 119.3009752 114.7607248  57.9546104 119.3949752 115.1647248  56.6306104
 120.3839752 114.9077248  54.5516104 121.7299752 113.0567248  55.6626104
 121.5709752 112.3797248  57.9186104 120.0419752 113.4567248  59.3496104
 118.6709752 115.1937248  58.5516104 118.8369752 115.8857248  56.2986104
 121.0059752 114.4747248  53.9606104  74.1649752 138.3127248  82.9076104
  74.8419752 137.1017248  83.0546104  75.8969752 136.7947248  82.2106104
  76.2659752 137.7017248  81.2286104  75.5959752 138.9077248  81.0806104
  74.5359752 139.2157248  81.9216104  73.1739752 138.5987248  83.6916104
  74.5749752 136.4767248  83.7466104  76.3719752 135.9547248  82.3056104
  77.0039752 137.4887248  80.6356104  75.8679752 139.5347248  80.3916104
  74.0589752 140.0547248  81.8206104  72.9089752 137.9797248  84.3746104
 104.5639752  27.2837248  78.1056104 104.2599752  26.4397248  79.1736104
 103.6519752  25.2177248  78.9356104 103.3549752  24.8507248  77.6316104
 103.6589752  25.6867248  76.5666104 104.2629752  26.9127248  76.8026104
 105.1259752  28.4297248  78.3266104 104.4739752  26.7077248  80.0816104
 103.4369752  24.6257248  79.6726104 102.9289752  23.9947248  77.4616104
 103.4489752  25.4137248  75.6596104 104.4729752  27.5057248  76.0636104
 105.3359752  28.6957248  79.2246104 110.9299752 116.2907248  70.2526104
 110.0289752 115.6397248  71.0956104 108.6739752 115.6627248  70.8076104
 108.2319752 116.3377248  69.6796104 109.1249752 116.9847248  68.8366104
 110.4819752 116.9657248  69.1256104 112.1959752 116.2747248  70.5226104
 110.3509752 115.1707248  71.8816104 108.0419752 115.2137248  71.3896104
 107.2839752 116.3567248  69.4756104 108.8019752 117.4487248  68.0486104
 111.1129752 117.4207248  68.5446104 112.5149752 115.8127248  71.3016104
  26.8069752  82.4377248  63.8806104  27.9999752  83.0587248  63.5126104
  28.0929752  84.4407248  63.5316104  26.9909752  85.1897248  63.9186104
  25.8019752  84.5747248  64.2866104  25.7059752  83.1907248  64.2646104
  26.7159752  81.1457248  63.8576104  28.7639752  82.5247248  63.2456104
  28.9189752  84.8807248  63.2766104  27.0519752  86.1577248  63.9316104
  25.0419752  85.1117248  64.5596104  24.8769752  82.7537248  64.5156104
  27.4719752  80.6167248  63.5916104  42.2889752  49.4397248  45.5396104
  42.8489752  50.5397248  44.8906104  44.1629752  50.4877248  44.4526104
  44.9039752  49.3347248  44.6666104  44.3489752  48.2367248  45.3096104
  43.0349752  48.2887248  45.7536104  41.0639752  49.4877248  45.9546104
  42.3209752  51.3397248  44.7466104  44.5599752  51.2487248  44.0026104
  45.8239752  49.2947248  44.3616104  44.8779752  47.4357248  45.4486104
  42.6419752  47.5267248  46.2086104  40.5399752  50.2807248  45.8136104
  58.5629752 125.8467248  72.0136104  59.7399752 125.1047248  71.9166104
  60.0949752 124.2367248  72.9356104  59.2679752 124.1167248  74.0436104
  58.0939752 124.8507248  74.1426104  57.7389752 125.7247248  73.1246104
  58.2319752 126.6627248  71.0646104  60.3089752 125.1967248  71.1366104
  60.9119752 123.7187248  72.8766104  59.5139752 123.5097248  74.7596104
  57.5239752 124.7527248  74.9206104  56.9229752 126.2457248  73.1886104
  58.7959752 126.7557248  70.2936104  39.9059752  32.8957248  97.0316104
  39.6279752  33.6327248  98.1826104  40.0239752  33.1537248  99.4206104
  40.6969752  31.9437248  99.4966104  40.9779752  31.2087248  98.3536104
  40.5769752  31.6837248  97.1126104  39.5309752  33.3377248  95.8736104
  39.1579752  34.4787248  98.1166104  39.8339752  33.6597248 100.2256104
  40.9759752  31.6047248 100.3616104  41.4529752  30.3657248  98.4206104
  40.7649752  31.1727248  96.3086104  39.0629752  34.1737248  95.8076104
  26.7089752  79.0487248  76.7436104  27.4379752  80.2177248  76.9596104
  28.1019752  80.8227248  75.9046104  28.0289752  80.2527248  74.6416104
  27.3019752  79.0917248  74.4216104  26.6399752  78.4817248  75.4786104
  26.0929752  78.4787248  77.7296104  27.4809752  80.6077248  77.8476104
  28.6119752  81.6347248  76.0466104  28.4929752  80.6737248  73.9006104
  27.2559752  78.7067248  73.5326104  26.1339752  77.6657248  75.3346104
  26.1359752  78.8627248  78.6086104 113.0259752  39.7537248  80.3686104
 113.0489752  40.3387248  81.6346104 112.5419752  39.6477248  82.7226104
 112.0169752  38.3767248  82.5356104 111.9949752  37.7907248  81.2776104
 112.4979752  38.4827248  80.1856104 113.4939752  40.4007248  79.3486104
 113.4189752  41.2267248  81.7536104 112.5529752  40.0477248  83.6066104
 111.6609752  37.8907248  83.2956104 111.6289752  36.9007248  81.1626104
 112.4809752  38.0827248  79.3016104 113.8589752  41.2807248  79.4656104
 100.2599752  36.3117248  35.0186104  99.1939752  35.5437248  35.4876104
  98.9309752  35.4857248  36.8456104  99.7349752  36.1977248  37.7236104
 100.7939752  36.9657248  37.2616104 101.0629752  37.0207248  35.9006104
 100.5109752  36.3627248  33.7496104  98.6379752  35.0507248  34.8636104
  98.1919752  34.9527248  37.1806104  99.5529752  36.1587248  38.6766104
 101.3449752  37.4607248  37.8866104 101.8049752  37.5507248  35.5696104
  99.9629752  35.8737248  33.1316104 109.5369752  33.3897248  93.1096104
 110.5669752  33.6047248  92.1926104 110.2759752  33.7227248  90.8436104
 108.9579752  33.6247248  90.4226104 107.9299752  33.4137248  91.3316104
 108.2199752  33.2907248  92.6836104 109.8069752  33.2737248  94.3706104
 111.4839752  33.6727248  92.4996104 110.9859752  33.8707248  90.2006104
 108.7499752  33.7057248  89.4786104 107.0129752  33.3517248  91.0236104
 107.5079752  33.1377248  93.3246104 110.7159752  33.3387248  94.6746104
  99.5299752  19.8217248  61.3426104 100.6889752  19.6817248  62.1056104
 100.5949752  19.3967248  63.4576104  99.3419752  19.2527248  64.0346104
  98.1859752  19.3887248  63.2786104  98.2779752  19.6787248  61.9246104
  99.6159752  20.0937248  60.0796104 101.5599752  19.7837248  61.6896104
 101.3959752  19.2997248  63.9956104  99.2719752  19.0537248  64.9826104
  97.3169752  19.2807248  63.6956104  97.4749752  19.7807248  61.3906104
 100.4769752  20.1967248  59.6676104 111.8269752  54.0907248  70.5736104
 111.4229752  54.7437248  69.4086104 112.1209752  55.8537248  68.9626104
 113.2189752  56.3007248  69.6846104 113.6259752  55.6517248  70.8416104
 112.9249752  54.5427248  71.2936104 111.1729752  53.0567248  70.9956104
 110.6549752  54.4217248  68.9126104 111.8459752  56.3147248  68.1546104
 113.7099752  57.0777248  69.3746104 114.3969752  55.9727248  71.3336104
 113.1989752  54.0867248  72.1046104 110.4109752  52.7377248  70.5056104
  48.5019752 114.7177248  78.8476104  47.1939752 114.7167248  78.3656104
  46.8599752 113.9267248  77.2776104  47.8379752 113.1437248  76.6826104
  49.1409752 113.1407248  77.1606104  49.4789752 113.9347248  78.2476104
  48.8179752 115.4607248  79.8616104  46.5179752 115.2677248  78.7916104
  45.9529752 113.9207248  76.9356104  47.6079752 112.5897248  75.9206104
  49.8129752 112.5847248  76.7376104  50.3879752 113.9417248  78.5846104
  48.1499752 116.0077248  80.2816104  49.4389752  60.6207248  47.3346104
  50.6639752  61.2827248  47.4106104  51.4039752  61.4987248  46.2596104
  50.9099752  61.0527248  45.0416104  49.6899752  60.3957248  44.9626104
  48.9499752  60.1737248  46.1146104  48.7489752  60.4117248  48.4106104
  50.9979752  61.5907248  48.2676104  52.2569752  61.9577248  46.3036104
  51.4249752  61.2027248  44.2336104  49.3549752  60.0937248  44.1036104
  48.0989752  59.7107248  46.0686104  49.0799752  60.7147248  49.2596104
 130.6019752  97.2427248  74.3326104 129.3489752  97.8517248  74.4086104
 128.7839752  98.4097248  73.2746104 129.4759752  98.3547248  72.0736104
 130.7209752  97.7477248  71.9936104 131.2919752  97.1907248  73.1296104
 131.1349752  96.7247248  75.3936104 128.8749752  97.8827248  75.2546104
 127.9139752  98.8367248  73.3196104 129.0829752  98.7457248  71.2776104
 131.1919752  97.7117248  71.1456104 132.1649752  96.7697248  73.0826104
 130.6669752  96.7577248  76.2306104 140.1319752  87.0307248  77.7916104
 139.5199752  88.1037248  78.4396104 139.5009752  88.1537248  79.8236104
 140.0959752  87.1307248  80.5476104 140.7079752  86.0627248  79.9066104
 140.7239752  86.0087248  78.5196104 140.1459752  86.9797248  76.4976104
 139.1089752  88.8137248  77.9226104 139.0759752  88.8947248  80.2826104
 140.0839752  87.1617248  81.5176104 141.1229752  85.3567248  80.4256104
 141.1449752  85.2627248  78.0636104 139.7369752  87.6807248  75.9856104
 121.3189752  99.4577248  79.8016104 122.6319752  99.1347248  80.1476104
 122.9939752  99.0577248  81.4826104 122.0399752  99.3017248  82.4596104
 120.7329752  99.6207248  82.1196104 120.3689752  99.7037248  80.7826104
 120.9799752  99.5367248  78.5546104 123.2889752  98.9647248  79.4556104
 123.9039752  98.8347248  81.7316104 122.2909752  99.2497248  83.3956104
 120.0759752  99.7857248  82.8136104 119.4579752  99.9317248  80.5366104
 121.6309752  99.3697248  77.8686104 121.3449752  72.0657248 105.2946104
 120.5419752  71.0457248 104.7866104 119.5439752  71.3437248 103.8736104
 119.3589752  72.6597248 103.4756104 120.1569752  73.6777248 103.9776104
 121.1549752  73.3817248 104.8966104 122.2749752  71.7907248 106.1526104
 120.6819752  70.1287248 105.0706104 118.9799752  70.6407248 103.5156104
 118.6599752  72.8727248 102.8376104 120.0189752  74.5927248 103.6876104
 121.7139752  74.0887248 105.2566104 122.4129752  70.8837248 106.4366104
  44.3509752  74.4147248 112.7406104  45.4269752  74.0197248 111.9466104
  45.4079752  74.2697248 110.5846104  44.3129752  74.9147248 110.0286104
  43.2409752  75.3117248 110.8156104  43.2559752  75.0577248 112.1796104
  44.3639752  74.1767248 114.0136104  46.1879752  73.5707248 112.3476104
  46.1519752  73.9967248 110.0246104  44.2959752  75.0907248 109.0736104
  42.4839752  75.7647248 110.4136104  42.5079752  75.3267248 112.7356104
  45.1159752  73.7297248 114.4106104  59.3889752 123.0897248 111.1176104
  60.3109752 123.9457248 111.7196104  60.9769752 123.5457248 112.8666104
  60.7149752 122.2927248 113.4016104  59.7999752 121.4377248 112.8036104
  59.1289752 121.8367248 111.6566104  58.7619752 123.4627248 110.0476104
  60.4859752 124.8187248 111.3356104  61.6179752 124.1357248 113.2926104
  61.1789752 122.0107248 114.2056104  59.6309752 120.5627248 113.1866104
  58.4839752 121.2467248 111.2366104  58.9329752 124.3287248 109.6686104
 129.0699752  74.8187248  56.8486104 128.1319752  75.8467248  56.7436104
 127.4279752  76.0197248  55.5636104 127.6669752  75.1637248  54.4986104
 128.5979752  74.1387248  54.6006104 129.3069752  73.9657248  55.7806104
 129.7329752  74.6587248  57.9496104 127.9729752  76.4377248  57.4956104
 126.7759752  76.7327248  55.4816104 127.1769752  75.2827248  53.6706104
 128.7509752  73.5447248  53.8496104 129.9639752  73.2547248  55.8576104
 129.5779752  75.2457248  58.6936104  98.5399752 128.0317248  88.5726104
  98.1629752 126.7097248  88.3416104  98.5909752 126.0597248  87.1956104
  99.3929752 126.7397248  86.2906104  99.7729752 128.0547248  86.5176104
  99.3419752 128.7087248  87.6636104  98.1369752 128.6427248  89.6406104
  97.6029752 126.2447248  88.9826104  98.3319752 125.1407248  87.0266104
  99.6939752 126.2877248  85.4856104 100.3379752 128.5157248  85.8786104
  99.5979752 129.6297248  87.8266104  97.5799752 128.1837248  90.2746104
  43.9589752 101.3557248 119.4656104  44.8059752 100.5667248 118.6876104
  45.0409752 100.9047248 117.3646104  44.4269752 102.0297248 116.8326104
  43.5859752 102.8177248 117.6046104  43.3459752 102.4787248 118.9286104
  43.7339752 101.0387248 120.7016104  45.2299752  99.7837248 119.0716104
  45.6269752 100.3617248 116.8166104  44.5889752 102.2687248 115.9056104
  43.1669752 103.6037248 117.2206104  42.7539752 103.0217248 119.4736104
  44.1519752 100.2617248 121.0806104  48.0629752  25.6817248  66.9476104
  48.9189752  26.0727248  65.9186104  50.1669752  25.4827248  65.7976104
  50.5459752  24.5057248  66.7066104  49.6959752  24.1117248  67.7296104
  48.4469752  24.7047248  67.8556104  46.8979752  26.2367248  67.0666104
  48.6419752  26.7567248  65.2886104  50.7689752  25.7507248  65.0856104
  51.4189752  24.0907248  66.6246104  49.9729752  23.4247248  68.3546104
  47.8489752  24.4397248  68.5716104  46.6239752  26.9147248  66.4446104
 109.8919752  49.7207248  29.8696104 109.1419752  49.4617248  31.0166104
 109.7239752  49.5957248  32.2666104 111.0509752  49.9897248  32.3586104
 111.7999752  50.2517248  31.2196104 111.2209752  50.1127248  29.9666104
 109.3519752  49.5897248  28.7006104 108.2149752  49.1877248  30.9396104
 109.2099752  49.4167248  33.0696104 111.4619752  50.0847248  33.2326104
 112.7249752  50.5307248  31.2996104 111.7389752  50.2887248  29.1656104
 108.4349752  49.3167248  28.6236104  48.7759752 107.8537248  60.6286104
  48.7029752 107.5557248  59.2686104  47.7329752 106.6817248  58.8056104
  46.8439752 106.1147248  59.7066104  46.9119752 106.4107248  61.0606104
  47.8849752 107.2827248  61.5276104  49.6849752 108.6667248  61.0656104
  49.3289752 107.9597248  58.6476104  47.6759752 106.4677248  57.8606104
  46.1639752 105.5017248  59.3856104  46.2809752 106.0107248  61.6786104
  47.9429752 107.4907248  62.4736104  50.3069752 109.0647248  60.4516104
  16.4369752  63.6687248  58.9756104  15.7229752  63.6717248  60.1736104
  16.1539752  64.4547248  61.2326104  17.2959752  65.2277248  61.0836104
  18.0079752  65.2297248  59.8916104  17.5799752  64.4427248  58.8316104
  16.0379752  62.9347248  57.9866104  14.9249752  63.1277248  60.2656104
  15.6639752  64.4607248  62.0686104  17.6019752  65.7757248  61.8226104
  18.8019752  65.7787248  59.8006104  18.0759752  64.4347248  57.9976104
  15.2499752  62.3937248  58.0776104  81.5559752  97.3797248  24.9976104
  81.2279752  96.7817248  23.7806104  81.8789752  95.6257248  23.3826104
  82.8519752  95.0767248  24.2056104  83.1789752  95.6677248  25.4186104
  82.5309752  96.8277248  25.8176104  80.9519752  98.4637248  25.3696104
  80.5459752  97.1747248  23.2146104  81.6579752  95.2047248  22.5376104
  83.3099752  94.2677248  23.9296104  83.8569752  95.2697248  25.9856104
  82.7579752  97.2497248  26.6616104  80.2779752  98.8537248  24.8076104
  26.8379752  88.9947248 109.2036104  28.0019752  88.8707248 108.4446104
  27.9279752  88.8837248 107.0616104  26.6909752  89.0217248 106.4486104
  25.5309752  89.1477248 107.2006104  25.6019752  89.1307248 108.5866104
  26.9039752  88.9767248 110.4966104  28.8609752  88.7757248 108.8846104
  28.7319752  88.7967248 106.5266104  26.6359752  89.0307248 105.4806104
  24.6739752  89.2477248 106.7586104  24.7949752  89.2117248 109.1186104
  27.7539752  88.8807248 110.9326104 107.0629752  58.8917248 114.4576104
 106.8389752  59.1407248 113.1036104 106.5689752  60.4307248 112.6746104
 106.5269752  61.4597248 113.6046104 106.7519752  61.2157248 114.9516104
 107.0179752  59.9247248 115.3846104 107.3099752  57.6867248 114.8616104
 106.8729752  58.4137248 112.4636104 106.4109752  60.6117248 111.7356104
 106.3379752  62.3637248 113.3076104 106.7229752  61.9457248 115.5896104
 107.1709752  59.7447248 116.3256104 107.3409752  56.9657248 114.2276104
 124.8869752 101.5657248  99.0626104 123.4939752 101.6227248  99.0806104
 122.8079752 102.0887248  97.9716104 123.5219752 102.4937248  96.8536104
 124.9079752 102.4367248  96.8306104 125.5979752 101.9727248  97.9416104
 125.5309752 101.1347248 100.1006104 123.0059752 101.3347248  99.8686104
 121.8389752 102.1337248  97.9766104 123.0439752 102.8227248  96.0746104
 125.3939752 102.7187248  96.0396104 126.5669752 101.9347248  97.9356104
 125.0479752 100.8527248 100.8816104  23.7229752  96.2307248  88.7466104
  23.2989752  96.8907248  89.8996104  23.6849752  96.4227248  91.1446104
  24.4939752  95.2987248  91.2256104  24.9209752  94.6407248  90.0806104
  24.5309752  95.1047248  88.8326104  23.3579752  96.6637248  87.5816104
  22.7339752  97.6767248  89.8306104  23.3939752  96.8757248  91.9516104
  24.7659752  94.9677248  92.0966104  25.4889752  93.8587248  90.1526104
  24.8199752  94.6467248  88.0276104  22.7979752  97.4397248  87.5126104
  25.6369752 109.8807248  63.5136104  24.6379752 108.9187248  63.3656104
  24.5759752 108.1617248  62.2076104  25.5139752 108.3737248  61.2076104
  26.5109752 109.3277248  61.3526104  26.5719752 110.0907248  62.5106104
  25.6929752 110.5937248  64.5936104  23.9879752 108.7787248  64.0726104
  23.8839752 107.4917248  62.0956104  25.4719752 107.8457248  60.3946104
  27.1619752 109.4617248  60.6466104  27.2629752 110.7637248  62.6166104
  25.0489752 110.4577248  65.2926104  66.9349752  66.0457248  35.9966104
  65.5409752  66.0217248  35.9896104  64.8639752  65.5827248  34.8636104
  65.5869752  65.1707248  33.7546104  66.9749752  65.1907248  33.7576104
  67.6559752  65.6337248  34.8826104  67.5699752  66.4607248  37.0456104
  65.0459752  66.3107248  36.7716104  63.8939752  65.5637248  34.8506104
  65.1159752  64.8627248  32.9636104  67.4679752  64.8957248  32.9766104
  68.6249752  65.6567248  34.8916104  67.0809752  66.7497248  37.8196104
 115.7809752 105.0747248  68.6286104 114.7659752 104.9427248  69.5746104
 114.8159752 105.6777248  70.7486104 115.8809752 106.5387248  70.9636104
 116.8929752 106.6757248  70.0236104 116.8469752 105.9367248  68.8496104
 115.7389752 104.3847248  67.5336104 114.0249752 104.3377248  69.4116104
 114.1139752 105.5897248  71.4116104 115.9199752 107.0547248  71.7846104
 117.6289752 107.2847248  70.1856104 117.5529752 106.0227248  68.1896104
 115.0079752 103.7837248  67.3726104  94.2099752 107.3477248 125.6376104
  93.2519752 107.0237248 124.6766104  92.1019752 107.7877248 124.5636104
  91.9209752 108.8707248 125.4106104  92.8719752 109.1987248 126.3666104
  94.0229752 108.4317248 126.4846104  95.2829752 106.6317248 125.7496104
  93.3909752 106.2647248 124.0886104  91.4309752 107.5677248 123.8996104
  91.1159752 109.4077248 125.3346104  92.7339752 109.9607248 126.9496104
  94.6909752 108.6507248 127.1536104  95.4189752 105.8787248 125.1686104
 118.0039752 121.7447248  95.2666104 117.5749752 122.9467248  95.8316104
 116.6919752 123.7577248  95.1376104 116.2459752 123.3597248  93.8856104
 116.6689752 122.1637248  93.3216104 117.5569752 121.3517248  94.0136104
 118.8339752 120.9877248  95.9116104 117.8929752 123.2127248  96.7076104
 116.3899752 124.5947248  95.5216104 115.6279752 123.9257248  93.3966104
 116.3449752 121.8967248  92.4476104 117.8619752 120.5167248  93.6236104
 119.1509752 121.2527248  96.7786104 100.4689752 119.2207248  77.7976104
  99.4929752 118.3157248  77.3816104  99.7489752 117.4677248  76.3156104
 100.9779752 117.5327248  75.6766104 101.9529752 118.4307248  76.0896104
 101.6969752 119.2837248  77.1536104 100.2299752 120.0187248  78.7896104
  98.6379752 118.2787248  77.8366104  99.0749752 116.8367248  76.0196104
 101.1599752 116.9407248  74.9296104 102.8089752 118.4617248  75.6366104
 102.3709752 119.9177248  77.4456104  99.3829752 119.9837248  79.2396104
  61.1099752 129.3377248  49.7026104  60.9519752 128.5987248  48.5306104
  61.4169752 129.1047248  47.3276104  62.0359752 130.3457248  47.3076104
  62.1969752 131.0837248  48.4716104  61.7289752 130.5807248  49.6776104
  60.6709752 128.8697248  50.8276104  60.5189752 127.7317248  48.5576104
  61.3099752 128.5977248  46.5076104  62.3619752 130.7037248  46.4666104
  62.6359752 131.9477248  48.4436104  61.8319752 131.0927248  50.4956104
  60.2399752 128.0117248  50.8536104 130.2969752  69.2247248  90.3866104
 130.4979752  69.4037248  89.0176104 129.9929752  68.4777248  88.1196104
 129.2899752  67.3817248  88.5986104 129.0859752  67.2017248  89.9596104
 129.5949752  68.1257248  90.8606104 130.7739752  70.0857248  91.2286104
 130.9899752  70.1747248  88.6956104 130.1289752  68.5937248  87.1666104
 128.9349752  66.7307248  87.9716104 128.5889752  66.4327248  90.2786104
 129.4609752  68.0037248  91.8146104 131.2629752  70.8477248  90.9096104
 113.4609752 126.8637248  87.4616104 112.5049752 126.9117248  86.4476104
 111.4189752 127.7647248  86.5626104 111.2999752 128.5627248  87.6906104
 112.2509752 128.5197248  88.7016104 113.3369752 127.6627248  88.5896104
 114.4729752 126.0627248  87.3586104 112.5999752 126.3497248  85.6626104
 110.7499752 127.8027248  85.8626104 110.5409752 129.1607248  87.7746104
 112.1569752 129.0857248  89.4826104 114.0029752 127.6217248  89.2946104
 114.5669752 125.5037248  86.5836104  54.4139752 122.0857248  73.8026104
  53.8899752 120.9487248  73.1886104  54.6099752 120.3087248  72.1926104
  55.8479752 120.8117248  71.8206104  56.3739752 121.9417248  72.4306104
  55.6519752 122.5867248  73.4256104  53.7399752 122.6887248  74.7296104
  53.0239752 120.6057248  73.4586104  54.2519752 119.5177248  71.7596104
  56.3539752 120.3667248  71.1226104  57.2419752 122.2797248  72.1636104
  56.0099752 123.3807248  73.8536104  52.8819752 122.3507248  74.9956104
  61.1929752  33.4807248 119.8926104  60.8089752  34.6497248 120.5496104
  59.5499752  35.1837248 120.3296104  58.6849752  34.5427248 119.4546104
  59.0619752  33.3777248 118.8006104  60.3239752  32.8437248 119.0166104
  62.3719752  32.9827248 120.0926104  61.4229752  35.0877248 121.1596104
  59.2759752  35.9967248 120.7816104  57.8019752  34.9137248 119.2976104
  58.4449752  32.9387248 118.1956104  60.5979752  32.0327248 118.5586104
  62.9799752  33.4177248 120.6946104 112.1659752  95.2707248  80.6046104
 111.6759752  96.0417248  79.5496104 112.4259752  96.1857248  78.3946104
 113.6589752  95.5567248  78.3026104 114.1489752  94.7867248  79.3486104
 113.4009752  94.6447248  80.5096104 111.4689752  95.1397248  81.6876104
 110.8119752  96.4757248  79.6256104 112.0939752  96.7217248  77.6576104
 114.1869752  95.6557248  77.4956104 115.0099752  94.3487248  79.2686104
 113.7379752  94.1127248  81.2466104 110.6139752  95.5707248  81.7636104
  47.9099752  39.0167248  99.1166104  46.7829752  39.1507248  99.9276104
  46.9339752  39.4237248 101.2776104  48.2099752  39.5597248 101.8046104
  49.3329752  39.4287248 101.0006104  49.1849752  39.1517248  99.6486104
  47.7719752  38.7567248  97.8556104  45.8959752  39.0547248  99.5476104
  46.1549752  39.5167248 101.8486104  48.3179752  39.7497248 102.7496104
  50.2189752  39.5307248 101.3816104  49.9659752  39.0527248  99.0806104
  46.8939752  38.6587248  97.4786104  92.9859752  92.0797248  40.9126104
  92.9059752  93.0717248  41.8906104  93.1359752  92.7507248  43.2186104
  93.4469752  91.4417248  43.5566104  93.5309752  90.4527248  42.5866104
  93.2959752  90.7707248  41.2556104  92.7649752  92.3757248  39.6716104
  92.6889752  93.9837248  41.6416104  93.0809752  93.4337248  43.9046104
  93.6089752  91.2137248  44.4856104  93.7539752  89.5437248  42.8366104
  93.3469752  90.0847248  40.5716104  92.5479752  93.2787248  39.4256104
  59.6979752  87.8177248 124.7986104  60.8179752  87.4117248 124.0746104
  60.8599752  87.6017248 122.7036104  59.7799752  88.1977248 122.0676104
  58.6649752  88.6057248 122.7846104  58.6189752  88.4127248 124.1586104
  59.6539752  87.6357248 126.0796104  61.5669752  86.9967248 124.5306104
  61.6349752  87.3207248 122.1926104  59.8059752  88.3317248 121.1076104
  57.9189752  89.0257248 122.3276104  57.8399752  88.6897248 124.6666104
  60.3949752  87.2237248 126.5316104  59.1769752  88.4967248  35.9456104
  59.1559752  88.5557248  34.5526104  58.9169752  89.7627248  33.9166104
  58.7019752  90.9007248  34.6796104  58.7239752  90.8467248  36.0666104
  58.9589752  89.6377248  36.7056104  59.3939752  87.3677248  36.5426104
  59.3099752  87.7527248  34.0296104  58.8999752  89.8117248  32.9486104
  58.5339752  91.7477248  34.2376104  58.5759752  91.6517248  36.5876104
  58.9699752  89.5897248  37.6746104  59.5439752  86.5727248  36.0256104
  69.1939752  31.4117248 115.2176104  69.7719752  32.6767248 115.1106104
  70.9869752  32.8277248 114.4626104  71.6129752  31.7117248 113.9266104
  71.0409752  30.4517248 114.0296104  69.8259752  30.2977248 114.6816104
  68.0609752  31.2677248 115.8276104  69.3239752  33.4497248 115.4886104
  71.3959752  33.7037248 114.3856104  72.4649752  31.8137248 113.4736104
  71.4879752  29.6817248 113.6456104  69.4209752  29.4197248 114.7626104
  67.6179752  32.0317248 116.2046104  86.0999752 104.1207248  53.0566104
  85.4079752 103.2787248  53.9266104  84.7299752 103.8127248  55.0106104
  84.7489752 105.1847248  55.2136104  85.4349752 106.0257248  54.3486104
  86.1189752 105.4927248  53.2656104  86.7399752 103.6227248  52.0466104
  85.4009752 102.3207248  53.7736104  84.2469752 103.2337248  55.6206104
  84.2749752 105.5617248  55.9716104  85.4359752 106.9837248  54.5006104
  86.6049752 106.0737248  52.6596104  86.7349752 102.6747248  51.8956104
  62.8369752  34.7867248  81.6966104  62.0759752  35.3927248  80.6976104
  61.7519752  36.7357248  80.7956104  62.1939752  37.4617248  81.8916104
  62.9539752  36.8637248  82.8866104  63.2759752  35.5167248  82.7926104
  63.1359752  33.5297248  81.6096104  61.7739752  34.8747248  79.9346104
  61.2219752  37.1647248  80.1056104  61.9689752  38.4027248  81.9636104
  63.2599752  37.3847248  83.6456104  63.8019752  35.0887248  83.4876104
  62.8349752  33.0157248  80.8566104  85.3369752  71.6027248 123.2506104
  86.1039752  72.3967248 124.1036104  86.0439752  72.1957248 125.4726104
  85.2189752  71.2007248 125.9766104  84.4569752  70.4067248 125.1316104
  84.5119752  70.6097248 123.7596104  85.3869752  71.7927248 121.9706104
  86.6779752  73.0887248 123.7386104  86.5729752  72.7447248 126.0726104
  85.1749752  71.0577248 126.9356104  83.8879752  69.7127248 125.4976104
  83.9769752  70.0627248 123.1616104  85.9539752  72.4787248 121.6086104
  31.9629752  61.9737248  91.3806104  31.4869752  60.7377248  90.9446104
  31.8769752  60.2437248  89.7106104  32.7399752  60.9917248  88.9236104
  33.2179752  62.2207248  89.3546104  32.8259752  62.7197248  90.5886104
  31.5959752  62.4397248  92.5316104  30.8849752  60.2237248  91.5056104
  31.5489752  59.3857248  89.3996104  33.0149752  60.6487248  88.0576104
  33.8249752  62.7307248  88.7946104  33.1509752  63.5807248  90.8946104
  30.9969752  61.9327248  93.0856104  92.1549752  57.5127248  21.6826104
  92.0399752  58.6717248  22.4506104  93.0739752  59.0457248  23.2926104
  94.2139752  58.2577248  23.3596104  94.3329752  57.1057248  22.5956104
  93.2959752  56.7267248  21.7536104  91.1869752  57.1577248  20.8986104
  91.2379752  59.2147248  22.3936104  93.0009752  59.8487248  23.8306104
  94.9389752  58.5167248  23.9496104  95.1369752  56.5667248  22.6496104
  93.3689752  55.9187248  21.2206104  90.3919752  57.6937248  20.8446104
 120.4749752  44.1157248  53.1776104 121.1579752  43.4327248  54.1846104
 120.5169752  43.1427248  55.3786104 119.1989752  43.5377248  55.5536104
 118.5159752  44.2147248  54.5536104 119.1569752  44.5107248  53.3586104
 121.0739752  44.3927248  52.0636104 122.0789752  43.1607248  54.0496104
 120.9849752  42.6697248  56.0836104 118.7469752  43.3367248  56.3896104
 117.5929752  44.4807248  54.6896104 118.6879752  44.9887248  52.6566104
 121.9869752  44.1257248  51.9306104 121.1449752  79.3227248 103.0886104
 120.3809752  78.3447248 102.4516104 120.9659752  77.1427248 102.0866104
 122.3079752  76.9297248 102.3636104 123.0699752  77.8997248 102.9996104
 122.4879752  79.1057248 103.3626104 120.6019752  80.4497248 103.4256104
 119.4429752  78.5057248 102.2646104 120.4419752  76.4587248 101.6416104
 122.7209752  76.0887248 102.1086104 124.0059752  77.7347248 103.1906104
 123.0149752  79.7917248 103.8026104 119.6739752  80.6097248 103.2386104
 115.3969752 102.0957248 108.4546104 115.8849752 102.3327248 109.7396104
 116.9749752 101.6157248 110.2066104 117.5679752 100.6697248 109.3836104
 117.0869752 100.4327248 108.1036104 115.9929752 101.1457248 107.6356104
 114.3749752 102.7597248 108.0176104 115.4629752 102.9977248 110.3046104
 117.3189752 101.7737248 111.0996104 118.3309752 100.1647248 109.7086104
 117.5139752  99.7707248 107.5386104 115.6469752 100.9827248 106.7436104
 113.9549752 103.4177248 108.5776104  94.8969752  34.9467248  33.2796104
  93.6979752  35.6237248  33.5016104  93.7169752  36.9037248  34.0286104
  94.9339752  37.4967248  34.3286104  96.1299752  36.8277248  34.1066104
  96.1129752  35.5427248  33.5826104  94.8819752  33.7467248  32.7916104
  92.8529752  35.1987248  33.2866104  92.8869752  37.3807248  34.1876104
  94.9509752  38.3937248  34.6986104  96.9739752  37.2567248  34.3166104
  96.9449752  35.0657248  33.4296104  94.0459752  33.3247248  32.5816104
 116.9509752  72.1367248  93.0126104 115.6369752  71.9547248  92.5826104
 115.3829752  71.6047248  91.2666104 116.4459752  71.4387248  90.3916104
 117.7559752  71.6167248  90.8156104 118.0119752  71.9717248  92.1326104
 117.1899752  72.4697248  94.2406104 114.9009752  72.0727248  93.2046104
 114.4719752  71.4777248  90.9606104 116.2719752  71.1947248  89.4696104
 118.4889752  71.4927248  90.1936104 118.9249752  72.1037248  92.4356104
 116.4629752  72.5887248  94.8556104 113.5369752 102.4257248 114.3906104
 113.7129752 103.5517248 115.1946104 113.9809752 103.3987248 116.5456104
 114.0719752 102.1217248 117.0796104 113.8989752 100.9997248 116.2816104
 113.6259752 101.1497248 114.9296104 113.2799752 102.5667248 113.1286104
 113.6489752 104.4397248 114.8096104 114.1039752 104.1767248 117.1116104
 114.2589752 102.0117248 118.0246104 113.9689752 100.1127248 116.6676104
 113.4989752 100.3697248 114.3656104 113.2139752 103.4447248 112.7476104
  72.8259752  26.5077248  79.4636104  73.7479752  26.5377248  78.4176104
  74.2209752  27.7527248  77.9496104  73.7669752  28.9267248  78.5336104
  72.8519752  28.9007248  79.5756104  72.3739752  27.6847248  80.0436104
  72.3789752  25.3727248  79.8986104  74.0579752  25.7097248  78.0186104
  74.8609752  27.7827248  77.2226104  74.0959752  29.7807248  78.2076104
  72.5469752  29.7297248  79.9766104  71.7289752  27.6577248  80.7686104
  72.6839752  24.5527248  79.5026104 113.4329752  85.8497248 113.7296104
 113.8489752  85.2997248 112.5176104 113.4829752  85.9027248 111.3256104
 112.7059752  87.0507248 111.3556104 112.2919752  87.6027248 112.5606104
 112.6539752  86.9977248 113.7566104 113.7689752  85.2847248 114.8456104
 114.3929752  84.4967248 112.5096104 113.7669752  85.5257248 110.4776104
 112.4469752  87.4757248 110.5226104 111.7529752  88.4087248 112.5666104
 112.3639752  87.3747248 114.6026104 114.3059752  84.4887248 114.8376104
  29.0399752  44.9387248  68.4296104  30.2819752  45.1927248  67.8456104
  31.1459752  46.1017248  68.4316104  30.7629752  46.7497248  69.5966104
  29.5299752  46.4987248  70.1816104  28.6599752  45.5917248  69.5946104
  28.2279752  44.0927248  67.8816104  30.5389752  44.7317248  67.0316104
  32.0109752  46.2847248  68.0306104  31.3659752  47.3887248  70.0086104
  29.2769752  46.9567248  70.9986104  27.7939752  45.4147248  69.9946104
  28.4809752  43.6387248  67.0736104  88.1179752 138.4697248  66.4566104
  89.1419752 138.7207248  65.5426104  88.8499752 138.8357248  64.1936104
  87.5359752 138.6987248  63.7696104  86.5139752 138.4507248  64.6756104
  86.8049752 138.3307248  66.0266104  88.3889752 138.3557248  67.7176104
  90.0559752 138.8167248  65.8516104  89.5559752 139.0097248  63.5526104
  87.3289752 138.7777248  62.8246104  85.5999752 138.3617248  64.3646104
  86.0969752 138.1517248  66.6656104  89.2939752 138.4477248  68.0236104
  82.4079752  23.0247248  97.3526104  83.3689752  22.0577248  97.0566104
  83.9769752  21.3527248  98.0826104  83.6169752  21.6207248  99.3956104
  82.6589752  22.5797248  99.6936104  82.0529752  23.2907248  98.6676104
  81.8429752  23.6897248  96.3956104  83.6109752  21.8797248  96.1346104
  84.6459752  20.6807248  97.8856104  84.0409752  21.1287248 100.1166104
  82.4149752  22.7527248 100.6156104  81.3859752  23.9667248  98.8676104
  82.0839752  23.5147248  95.4826104  65.4099752 103.8727248  25.8026104
  65.6599752 102.8497248  26.7176104  64.6729752 102.4657248  27.6096104
  63.4439752 103.1077248  27.5796104  63.1899752 104.1247248  26.6696104
  64.1789752 104.5137248  25.7776104  66.3339752 104.2367248  24.9716104
  66.5229752 102.4067248  26.7276104  64.8389752 101.7557248  28.2496104
  62.7499752 102.8427248  28.2046104  62.3249752 104.5617248  26.6576104
  64.0119752 105.2277248  25.1416104  67.1889752 103.8007248  24.9826104
  71.4769752  33.3107248  33.9256104  70.8039752  33.0867248  32.7246104
  69.4469752  33.3497248  32.6336104  68.7749752  33.8357248  33.7456104
  69.4409752  34.0637248  34.9416104  70.7999752  33.7967248  35.0356104
  72.7439752  33.0597248  34.0136104  71.2859752  32.7467248  31.9536104
  68.9719752  33.1947248  31.8036104  67.8239752  34.0207248  33.6856104
  68.9589752  34.4077248  35.7096104  71.2719752  33.9467248  35.8696104
  73.2209752  32.7217248  33.2516104 113.5749752  98.4017248  85.5156104
 113.4239752  97.1197248  86.0426104 112.3569752  96.3307248  85.6446104
 111.4499752  96.8317248  84.7216104 111.5979752  98.1057248  84.1926104
 112.6639752  98.8987248  84.5936104 114.5679752  99.1427248  85.8906104
 114.0649752  96.7797248  86.6866104 112.2439752  95.4387248  86.0086104
 110.7009752  96.2817248  84.4416104 110.9589752  98.4407248  83.5446104
 112.7719752  99.7937248  84.2326104 115.2019752  98.8077248  86.5296104
 123.5749752  66.9637248  45.9336104 124.2919752  68.0367248  46.4646104
 125.6739752  67.9797248  46.5256104 126.3289752  66.8517248  46.0536104
 125.6199752  65.7837248  45.5216104 124.2339752  65.8357248  45.4636104
 122.2819752  67.0117248  45.8806104 123.8229752  68.8207248  46.7906104
 126.1799752  68.7207248  46.8946104 127.2969752  66.8087248  46.0956104
 126.0909752  65.0027248  45.1916104 123.7309752  65.0907248  45.0996104
 121.8169752  67.7867248  46.2046104  50.4509752  23.8417248  93.0266104
  50.3539752  22.4507248  92.9936104  49.6409752  21.8327248  91.9796104
  49.0319752  22.6117248  91.0066104  49.1289752  23.9957248  91.0346104
  49.8379752  24.6177248  92.0526104  51.1119752  24.4217248  93.9776104
  50.7849752  21.9167248  93.6796104  49.5679752  20.8667248  91.9506104
  48.5319752  22.1817248  90.2946104  48.7009752  24.5267248  90.3446104
  49.9059752  25.5847248  92.0826104  51.5369752  23.8937248  94.6576104
 107.2599752  68.1717248  47.4656104 108.5019752  68.5217248  47.9956104
 108.7299752  68.4007248  49.3566104 107.7139752  67.9287248  50.1756104
 106.4779752  67.5767248  49.6516104 106.2459752  67.7017248  48.2886104
 107.0419752  68.2897248  46.1946104 109.2039752  68.8487248  47.4126104
 109.5899752  68.6427248  49.7326104 107.8709752  67.8427248  51.1286104
 105.7789752  67.2447248  50.2356104 105.3829752  67.4637248  47.9156104
 107.7369752  68.6157248  45.6166104 107.5349752  85.5257248  76.2366104
 106.5509752  86.3557248  76.7746104 106.3449752  86.3827248  78.1436104
 107.1259752  85.5817248  78.9636104 108.1069752  84.7567248  78.4336104
 108.3129752  84.7237248  77.0616104 107.7259752  85.4937248  74.9566104
 106.0129752  86.9117248  76.1906104 105.6619752  86.9567248  78.5256104
 106.9829752  85.5987248  79.9236104 108.6479752  84.2047248  79.0196104
 108.9929752  84.1457248  76.6816104 107.1909752  86.0427248  74.3776104
  91.7969752 103.6777248  31.0856104  90.4529752 103.4217248  31.3606104
  89.5159752 104.4317248  31.2196104  89.9299752 105.6887248  30.8046104
  91.2649752 105.9467248  30.5286104  92.2069752 104.9377248  30.6726104
  92.6759752 102.7367248  31.2226104  90.1759752 102.5377248  31.6486104
  88.5799752 104.2617248  31.4096104  89.2749752 106.3987248  30.7056104
  91.5389752 106.8297248  30.2346104  93.1429752 105.1117248  30.4866104
  92.4019752 101.8627248  31.5096104  43.9559752  95.6707248 111.1936104
  43.1809752  95.1767248 112.2436104  41.9309752  94.6397248 111.9836104
  41.4669752  94.6007248 110.6776104  42.2359752  95.0887248 109.6306104
  43.4869752  95.6307248 109.8876104  45.1229752  96.1787248 111.4346104
  43.5169752  95.2087248 113.1526104  41.3849752  94.2957248 112.7076104
  40.5909752  94.2257248 110.4926104  41.8999752  95.0507248 108.7216104
  44.0289752  95.9797248 109.1626104  45.4549752  96.2117248 112.3346104
  53.4449752  38.2087248  46.6816104  53.4439752  36.9027248  46.1906104
  52.5869752  35.9617248  46.7366104  51.7379752  36.3347248  47.7686104
  51.7339752  37.6337248  48.2576104  52.5949752  38.5767248  47.7146104
  54.2489752  39.0887248  46.1756104  54.0409752  36.6547248  45.4676104
  52.5799752  35.0517248  46.4026104  51.1369752  35.6777248  48.1536104
  51.1319752  37.8807248  48.9766104  52.6029752  39.4857248  48.0556104
  54.8429752  38.8427248  45.4616104  78.0199752  32.4367248  40.6496104
  77.4269752  31.4857248  41.4796104  76.6359752  31.8937248  42.5406104
  76.4429752  33.2497248  42.7616104  77.0299752  34.1997248  41.9366104
  77.8259752  33.7927248  40.8756104  78.7649752  32.0577248  39.6606104
  77.5679752  30.5407248  41.3136104  76.2209752  31.2387248  43.1236104
  75.8899752  33.5387248  43.5046104  76.8829752  35.1437248  42.1006104
  78.2449752  34.4507248  40.2976104  78.9069752  31.1227248  39.4976104
  14.2079752  78.5027248  78.3736104  14.5379752  79.6587248  77.6656104
  14.1809752  79.7767248  76.3326104  13.4959752  78.7377248  75.7186104
  13.1639752  77.5877248  76.4206104  13.5249752  77.4647248  77.7546104
  14.5459752  78.3877248  79.6176104  15.0159752  80.3787248  78.1056104
  14.4069752  80.5767248  75.8326104  13.2449752  78.8177248  74.7846104
  12.6809752  76.8717248  75.9796104  13.3009752  76.6617248  78.2506104
  15.0219752  79.0997248  80.0536104  98.7289752  55.3437248  42.3546104
  99.7419752  55.1137248  43.2846104 101.0669752  55.2847248  42.9186104
 101.3669752  55.6867248  41.6246104 100.3609752  55.9197248  40.6966104
  99.0339752  55.7437248  41.0606104  97.4899752  55.1787248  42.6926104
  99.5199752  54.8337248  44.1866104 101.7769752  55.1257248  43.5586104
 102.2939752  55.8067248  41.3646104 100.5859752  56.2037248  39.7976104
  98.3249752  55.8997248  40.4156104  97.2689752  54.9007248  43.5846104
  77.0749752  41.0077248  30.6696104  76.4419752  40.8097248  29.4436104
  76.1969752  41.8897248  28.6106104  76.5889752  43.1577248  29.0126104
  77.2209752  43.3587248  30.2316104  77.4629752  42.2787248  31.0686104
  77.2999752  39.9997248  31.4526104  76.1739752  39.9177248  29.1726104
  75.7559752  41.7607248  27.7566104  76.4179752  43.9167248  28.4326104
  77.4929752  44.2507248  30.4976104  77.8999752  42.4117248  31.9256104
  77.0319752  39.1167248  31.1856104  30.3889752 107.5967248  59.1486104
  31.4729752 107.0387248  59.8276104  31.2539752 106.1027248  60.8246104
  29.9529752 105.7317248  61.1336104  28.8729752 106.2827248  60.4586104
  29.0899752 107.2237248  59.4616104  30.5909752 108.4767248  58.2196104
  32.3769752 107.3057248  59.6016104  32.0009752 105.7107248  61.3016104
  29.7969752 105.0767248  61.8316104  27.9699752 106.0097248  60.6816104
  28.3389752 107.6177248  58.9896104  31.4869752 108.7427248  57.9976104
  60.7109752 113.8277248  30.7576104  61.1419752 112.6557248  31.3796104
  60.5099752 111.4547248  31.1026104  59.4539752 111.4357248  30.2036104
  59.0229752 112.5987248  29.5806104  59.6519752 113.8037248  29.8606104
  61.2959752 114.9527248  31.0206104  61.8829752 112.6817248  32.0056104
  60.8029752 110.6357248  31.5316104  59.0079752 110.5957248  30.0076104
  58.2859752 112.5697248  28.9516104  59.3529752 114.6227248  29.4346104
  62.0279752 114.9787248  31.6416104  80.9979752  56.2587248 112.1716104
  81.3449752  57.2367248 111.2396104  82.5499752  57.1467248 110.5616104
  83.3959752  56.0787248 110.8196104  83.0529752  55.1017248 111.7446104
  81.8489752  55.1927248 112.4286104  79.8749752  56.3447248 112.8116104
  80.7449752  57.9787248 111.0666104  82.7989752  57.8237248 109.9126104
  84.2399752  56.0127248 110.3466104  83.6519752  54.3587248 111.9116104
  81.6039752  54.5177248 113.0816104  79.2819752  57.0797248 112.6426104
  62.3509752 121.8977248 108.4256104  61.1409752 121.2137248 108.3056104
  61.0429752 120.1317248 107.4456104  62.1559752 119.7427248 106.7146104
  63.3619752 120.4197248 106.8336104  63.4609752 121.5067248 107.6906104
  62.4429752 122.9127248 109.2236104  60.3699752 121.4937248 108.8226104
  60.2059752 119.6517248 107.3556104  62.0909752 118.9857248 106.1116104
  64.1329752 120.1337248 106.3196104  64.2989752 121.9887248 107.7746104
  61.6799752 123.1927248 109.7346104  74.8609752 135.2897248  90.2366104
  73.4859752 135.2537248  90.4676104  72.9129752 136.1387248  91.3656104
  73.7209752 137.0547248  92.0246104  75.0899752 137.0957248  91.7956104
  75.6659752 136.2057248  90.8996104  75.3989752 134.4587248  89.4026104
  72.9319752 134.6097248  89.9996104  71.9579752 136.1197248  91.5326104
  73.3229752 137.6757248  92.6546104  75.6409752 137.7437248  92.2606104
  76.6229752 136.2247248  90.7386104  74.8509752 133.8197248  88.9406104
  73.0669752  75.7247248 132.2356104  72.1409752  74.7107248 131.9896104
  71.2159752  74.3707248 132.9626104  71.2239752  75.0477248 134.1726104
  72.1419752  76.0587248 134.4206104  73.0719752  76.3987248 133.4496104
  73.9359752  76.0417248 131.3296104  72.1449752  74.2457248 131.1386104
  70.5699752  73.6657248 132.7996104  70.5779752  74.8107248 134.8576104
  72.1329752  76.5257248 135.2706104  73.7209752  77.1007248 133.6166104
  73.9409752  75.5797248 130.4876104  67.6909752  91.7637248 130.9856104
  67.5979752  92.7887248 130.0446104  67.3269752  92.4867248 128.7196104
  67.1499752  91.1617248 128.3486104  67.2389752  90.1387248 129.2816104
  67.5149752  90.4387248 130.6086104  67.9499752  92.0427248 132.2226104
  67.7219752  93.7107248 130.3166104  67.2619752  93.1937248 128.0586104
  66.9609752  90.9467248 127.4206104  67.1089752  89.2177248 129.0086104
  67.5849752  89.7287248 131.2666104  68.0749752  92.9557248 132.4926104
  72.3999752  94.4697248 116.8026104  73.0349752  95.5157248 116.1336104
  73.6319752  95.2877248 114.9046104  73.5869752  94.0147248 114.3546104
  72.9539752  92.9717248 115.0166104  72.3599752  93.1977248 116.2496104
  71.8469752  94.6797248 117.9546104  73.0579752  96.4017248 116.5276104
  74.0759752  96.0087248 114.4336104  74.0049752  93.8507248 113.4946104
  72.9269752  92.0877248 114.6176104  71.9199752  92.4717248 116.7216104
  71.8709752  95.5567248 118.3456104  56.3889752  30.3807248  51.2346104
  55.1669752  30.0907248  50.6276104  55.0299752  30.2197248  49.2556104
  56.1169752  30.6377248  48.5016104  57.3359752  30.9247248  49.1006104
  57.4739752  30.8007248  50.4756104  56.5179752  30.2667248  52.5176104
  54.4149752  29.7977248  51.1656104  54.1839752  30.0207248  48.8266104
  56.0239752  30.7297248  47.5396104  58.0879752  31.2117248  48.5606104
  58.3209752  31.0057248  50.9036104  55.7729752  29.9797248  53.0506104
  22.2819752  80.3717248  68.2616104  21.6829752  80.8187248  69.4396104
  21.9429752  80.1687248  70.6346104  22.7999752  79.0787248  70.6426104
  23.3999752  78.6317248  69.4726104  23.1369752  79.2787248  68.2736104
  22.0349752  80.9737248  67.1416104  21.0869752  81.5827248  69.4216104
  21.5299752  80.4727248  71.4576104  22.9839752  78.6207248  71.4776104
  23.9999752  77.8707248  69.4936104  23.5479752  78.9687248  67.4506104
  21.4429752  81.7287248  67.1236104  39.1279752  73.3587248  98.5346104
  39.5629752  72.6937248  97.3876104  40.6969752  73.1327248  96.7236104
  41.3859752  74.2337248  97.2126104  40.9579752  74.8957248  98.3546104
  39.8199752  74.4607248  99.0186104  38.0659752  72.9527248  99.1536104
  39.0739752  71.9247248  97.0566104  41.0049752  72.6777248  95.9256104
  42.1799752  74.5447248  96.7496104  41.4519752  75.6607248  98.6876104
  39.5109752  74.9217248  99.8146104  37.5789752  72.1937248  98.8246104
  53.7889752 117.5527248  41.9716104  52.7819752 117.0877248  42.8166104
  53.1149752 116.4137248  43.9806104  54.4519752 116.2117248  44.2886104
  55.4569752 116.6747248  43.4516104  55.1259752 117.3467248  42.2826104
  53.4799752 118.1787248  40.8806104  51.8499752 117.2357248  42.5916104
  52.4209752 116.0857248  44.5726104  54.6889752 115.7387248  45.1026104
  56.3879752 116.5307248  43.6816104  55.8219752 117.6697248  41.6896104
  52.5579752 118.3237248  40.6556104 107.0709752  28.8947248  75.7216104
 107.0479752  29.0147248  77.1106104 107.4249752  27.9417248  77.9016104
 107.8229752  26.7587248  77.2966104 107.8499752  26.6367248  75.9146104
 107.4679752  27.7087248  75.1196104 106.7139752  29.8947248  74.9796104
 106.7689752  29.8467248  77.5226104 107.4109752  28.0167248  78.8686104
 108.0869752  26.0047248  77.8476104 108.1339752  25.8047248  75.5046104
 107.4789752  27.6297248  74.1526104 106.4349752  30.7187248  75.3866104
 112.8699752  57.6137248  62.5296104 114.2169752  57.6037248  62.8896104
 114.5779752  57.3657248  64.2056104 113.5879752  57.1377248  65.1496104
 112.2459752  57.1447248  64.7956104 111.8819752  57.3877248  63.4786104
 112.5299752  57.8427248  61.3016104 114.8999752  57.7627248  62.2196104
 115.5119752  57.3577248  64.4646104 113.8369752  56.9707248  66.0726104
 111.5649752  56.9797248  65.4656104 110.9459752  57.3997248  63.2236104
 113.2059752  58.0027248  60.6386104  95.6389752 121.9257248 117.3636104
  96.7589752 121.8167248 118.1876104  96.5979752 121.5797248 119.5426104
  95.3179752 121.4517248 120.0616104  94.2009752 121.5567248 119.2446104
  94.3599752 121.7987248 117.8876104  95.7869752 122.1537248 116.0976104
  97.6489752 121.9067248 117.8126104  97.3719752 121.5037248 120.1226104
  95.2019752 121.2857248 121.0106104  93.3129752 121.4607248 119.6216104
  93.5839752 121.8797248 117.3106104  96.6679752 122.2457248 115.7266104
  61.3859752 100.2017248 109.9466104  61.5089752 101.1417248 110.9696104
  62.5129752 101.0047248 111.9146104  63.3849752  99.9287248 111.8276104
  63.2669752  98.9927248 110.8096104  62.2599752  99.1257248 109.8646104
  60.4449752 100.3237248 109.0646104  60.8939752 101.8897248 111.0186104
  62.6039752 101.6527248 112.6296104  64.0879752  99.8297248 112.4886104
  63.8859752  98.2487248 110.7586104  62.1669752  98.4727248 109.1526104
  59.8349752 101.0637248 109.1146104  26.4199752  99.9117248  88.9586104
  27.8039752  99.8517248  89.1196104  28.4389752 100.7417248  89.9696104
  27.6839752 101.6827248  90.6536104  26.3059752 101.7447248  90.4986104
  25.6679752 100.8567248  89.6436104  25.8249752  99.0847248  88.1596104
  28.3209752  99.1877248  88.6366104  29.4009752 100.7077248  90.0856104
  28.1259752 102.3087248  91.2496104  25.7909752 102.4057248  90.9866104
  24.7059752 100.8967248  89.5256104  26.3359752  98.4287248  87.6806104
 112.6309752  41.2077248 112.9956104 112.9379752  40.7467248 114.2756104
 112.2409752  39.6757248 114.8096104 111.2419752  39.0737248 114.0576104
 110.9349752  39.5277248 112.7826104 111.6299752  40.6027248 112.2476104
 113.2779752  42.2117248 112.4966104 113.6389752  41.1757248 114.7916104
 112.4469752  39.3507248 115.6996104 110.7509752  38.3237248 114.4286104
 110.2379752  39.0937248 112.2666104 111.4179752  40.9297248 111.3586104
 113.9699752  42.6377248 113.0076104  46.4749752 111.4947248  93.4396104
  47.1529752 112.7137248  93.4076104  46.6939752 113.7777248  94.1666104
  45.5619752 113.6127248  94.9516104  44.8869752 112.4007248  94.9876104
  45.3419752 111.3347248  94.2246104  46.8989752 110.5007248  92.7256104
  47.9439752 112.8167248  92.8566104  47.1579752 114.6287248  94.1496104
  45.2369752 114.3567248  95.4846104  44.0989752 112.2997248  95.5446104
  44.8719752 110.4867248  94.2396104  47.6809752 110.6027248  92.1776104
  94.9279752 130.1887248  87.2796104  94.6199752 130.0517248  88.6336104
  93.6879752 130.8937248  89.2176104  93.0719752 131.8657248  88.4426104
  93.3749752 132.0047248  87.0956104  94.3109752 131.1647248  86.5086104
  95.8029752 129.4067248  86.7336104  95.0559752 129.3667248  89.1646104
  93.4689752 130.8057248  90.1576104  92.4199752 132.4577248  88.8496104
  92.9329752 132.6857248  86.5656104  94.5319752 131.2587248  85.5686104
  96.2369752 128.7307248  87.2586104  52.6139752  59.4527248 131.1066104
  52.5869752  60.3147248 132.2026104  52.0019752  59.9037248 133.3886104
  51.4509752  58.6327248 133.4696104  51.4789752  57.7717248 132.3816104
  52.0599752  58.1827248 131.1906104  53.1559752  59.8367248 129.9946104
  52.9759752  61.2007248 132.1346104  51.9769752  60.4977248 134.1556104
  51.0399752  58.3417248 134.2986104  51.0929752  56.8847248 132.4536104
  52.0789752  57.5887248 130.4236104  53.5399752  60.7147248 129.9256104
  28.0739752  68.8357248  93.2026104  27.7299752  67.8237248  94.0996104
  26.9039752  68.1067248  95.1746104  26.4269752  69.3987248  95.3426104
  26.7649752  70.4077248  94.4506104  27.5959752  70.1277248  93.3756104
  28.8509752  68.5747248  92.1996104  28.0689752  66.9247248  93.9706104
  26.6619752  67.4097248  95.8036104  25.8489752  69.5997248  96.0946104
  26.4209752  71.3047248  94.5786104  27.8409752  70.8287248  92.7506104
  29.1879752  67.6847248  92.0726104  37.9779752  44.0537248 102.6506104
  38.1669752  45.2267248 101.9216104  37.7839752  45.2827248 100.5916104
  37.2139752  44.1637248 100.0026104  37.0209752  42.9947248 100.7256104
  37.4079752  42.9357248 102.0566104  38.3399752  43.9977248 103.8926104
  38.5659752  46.0037248 102.3446104  37.9139752  46.0937248 100.0766104
  36.9449752  44.1987248  99.0706104  36.6169752  42.2217248 100.3016104
  37.2819752  42.1197248 102.5676104  38.7369752  44.7647248 104.3116104
  52.6699752  45.0897248 106.6806104  53.1689752  46.3847248 106.8236104
  52.3239752  47.4707248 106.6686104  50.9859752  47.2527248 106.3726104
  50.4849752  45.9667248 106.2316104  51.3309752  44.8767248 106.3826104
  53.4599752  44.0727248 106.8196104  54.1059752  46.5237248 107.0316104
  52.6629752  48.3747248 106.7656104  50.3919752  48.0117248 106.2626104
  49.5469752  45.8297248 106.0286104  50.9899752  43.9737248 106.2796104
  54.3879752  44.2107248 107.0236104 104.6829752  92.7957248 109.8446104
 103.6249752  92.2527248 110.5746104 102.9059752  93.0537248 111.4466104
 103.2499752  94.3907248 111.5796104 104.2989752  94.9347248 110.8526104
 105.0239752  94.1337248 109.9826104 105.3599752  92.0467248 109.0336104
 103.3929752  91.3167248 110.4716104 102.1699752  92.6837248 111.9586104
 102.7479752  94.9547248 112.1896104 104.5259752  95.8727248 110.9536104
 105.7629752  94.5047248 109.4746104 105.1319752  91.1197248 108.9326104
  24.4629752 100.1047248 101.6586104  25.2399752  98.9927248 101.9806104
  26.5229752  98.8757248 101.4696104  27.0159752  99.8727248 100.6416104
  26.2459752 100.9817248 100.3196104  24.9599752 101.0987248 100.8266104
  23.2619752 100.2127248 102.1306104  24.8849752  98.3027248 102.5626104
  27.0689752  98.1057248 101.6886104  27.9139752  99.7937248 100.2806104
  26.6059752 101.6727248  99.7426104  24.4129752 101.8687248 100.6026104
  22.9079752  99.5287248 102.7046104  52.2739752  48.2757248  82.2836104
  53.0479752  48.7317248  81.2176104  53.1909752  47.9487248  80.0836104
  52.5569752  46.7167248  80.0266104  51.7839752  46.2597248  81.0846104
  51.6429752  47.0397248  82.2226104  52.1439752  49.0027248  83.3466104
  53.4849752  49.5967248  81.2686104  53.7279752  48.2587248  79.3386104
  52.6559752  46.1647248  79.2336104  51.3439752  45.3977248  81.0286104
  51.1089752  46.7257248  82.9696104  52.5779752  49.8577248  83.3996104
  95.0019752 112.1637248 120.8996104  94.8169752 113.2737248 121.7236104
  94.9659752 113.1487248 123.0946104  95.2999752 111.9137248 123.6306104
  95.4879752 110.8067248 122.8146104  95.3339752 110.9287248 121.4406104
  94.8569752 112.2777248 119.6186104  94.5839752 114.1327248 121.3366104
  94.8379752 113.9147248 123.6746104  95.4049752 111.8217248 124.5906104
  95.7249752 109.9507248 123.2026104  95.4579752 110.1587248 120.8636104
  94.6249752 113.1267248 119.2356104  38.7759752 101.2417248  60.9036104
  38.2909752 101.6877248  59.6736104  36.9329752 101.9027248  59.5046104
  36.0719752 101.6697248  60.5676104  36.5509752 101.2277248  61.7926104
  37.9109752 101.0077248  61.9626104  40.0449752 101.0347248  61.0616104
  38.9039752 101.8487248  58.9396104  36.5879752 102.2117248  58.6536104
  35.1199752 101.8177248  60.4526104  35.9379752 101.0727248  62.5276104
  38.2529752 100.6927248  62.8146104  40.6509752 101.1917248  60.3336104
  95.3229752 114.3417248  50.3366104  94.9079752 115.5147248  50.9676104
  95.6239752 116.6867248  50.7856104  96.7489752 116.6757248  49.9736104
  97.1629752 115.5117248  49.3416104  96.4499752 114.3357248  49.5256104
  94.6579752 113.2437248  50.5086104  94.1189752 115.5097248  51.5316104
  95.3429752 117.5057248  51.2226104  97.2529752 117.4947248  49.8446104
  97.9489752 115.5197248  48.7736104  96.7369752 113.5157248  49.0926104
  93.8789752 113.2387248  51.0696104  84.1999752  59.3687248 115.3266104
  85.1909752  59.8877248 116.1596104  86.4399752  59.2897248 116.1996104
  86.6869752  58.1807248 115.4046104  85.7039752  57.6637248 114.5726104
  84.4509752  58.2577248 114.5346104  83.0289752  59.9227248 115.2926104
  85.0059752  60.6647248 116.7096104  87.1339752  59.6437248 116.7766104
  87.5609752  57.7587248 115.4306104  85.8929752  56.8897248 114.0196104
  83.7559752  57.8987248 113.9596104  82.8449752  60.6907248 115.8386104
  76.4599752 121.1597248  50.3746104  75.7729752 120.1447248  51.0406104
  76.2139752 119.7117248  52.2806104  77.3389752 120.2977248  52.8426104
  78.0229752 121.3097248  52.1846104  77.5849752 121.7417248  50.9406104
  76.0519752 121.5617248  49.2126104  74.9869752 119.7437248  50.6376104
  75.7429752 119.0057248  52.7496104  77.6509752 119.9967248  53.7106104
  78.8049752 121.7127248  52.5916104  78.0619752 122.4447248  50.4706104
  75.2759752 121.1637248  48.8126104  39.4199752 124.1397248  84.9266104
  39.5319752 123.9697248  83.5466104  39.9589752 122.7557248  83.0336104
  40.2689752 121.7217248  83.9046104  40.1559752 121.8867248  85.2786104
  39.7329752 123.1037248  85.7946104  39.0269752 125.2757248  85.4086104
  39.3109752 124.6997248  82.9466104  40.0399752 122.6297248  82.0756104
  40.5689752 120.8707248  83.5486104  40.3719752 121.1537248  85.8756104
  39.6569752 123.2287248  86.7536104  38.8099752 125.9987248  84.8156104
  74.4049752  71.2077248  34.8636104  73.2929752  71.9677248  34.5006104
  72.7909752  72.9177248  35.3746104  73.4069752  73.0997248  36.6046104
  74.5149752  72.3477248  36.9686104  75.0169752  71.3927248  36.0956104
  74.8729752  70.3157248  34.0496104  72.8719752  71.8317248  33.6376104
  72.0179752  73.4487248  35.1306104  73.0569752  73.7637248  37.2196104
  74.9379752  72.4897248  37.8296104  75.7879752  70.8587248  36.3446104
  74.4549752  70.1787248  33.1956104 128.3469752  65.1697248  94.8566104
 128.0339752  64.1987248  93.9056104 127.8879752  62.8767248  94.2906104
 128.0539752  62.5367248  95.6256104 128.3629752  63.4997248  96.5756104
 128.5139752  64.8237248  96.1916104 128.4899752  66.4057248  94.4976104
 127.9189752  64.4497248  92.9756104 127.6719752  62.1957248  93.6346104
 127.9529752  61.6107248  95.8986104 128.4719752  63.2477248  97.5056104
 128.7359752  65.5027248  96.8486104 128.3779752  66.6537248  93.5766104
  77.4589752 108.7647248 111.7106104  77.3659752 109.4457248 112.9246104
  77.3419752 110.8297248 112.9386104  77.4089752 111.5227248 111.7386104
  77.4979752 110.8487248 110.5286104  77.5269752 109.4617248 110.5116104
  77.4869752 107.4697248 111.6956104  77.3189752 108.9497248 113.7576104
  77.2789752 111.3107248 113.7786104  77.3929752 112.4927248 111.7446104
  77.5399752 111.3457248 109.6966104  77.5949752 108.9827248 109.6706104
  77.4419752 106.9797248 112.5196104  39.7519752  70.3927248  89.6966104
  40.6979752  69.5457248  90.2736104  42.0409752  69.8807248  90.2306104
  42.4259752  71.0607248  89.6116104  41.4879752  71.9077248  89.0386104
  40.1419752  71.5717248  89.0766104  38.4959752  70.0777248  89.7306104
  40.4159752  68.7237248  90.7046104  42.7049752  69.2967248  90.6286104
  43.3659752  71.2987248  89.5796104  41.7709752  72.7317248  88.6136104
  39.4799752  72.1547248  88.6736104  38.2159752  69.2637248  90.1546104
 100.5629752  34.2427248 116.5036104 101.9019752  34.0447248 116.1656104
 102.7509752  35.1327248 116.0456104 102.2549752  36.4087248 116.2666104
 100.9239752  36.6097248 116.6066104 100.0699752  35.5217248 116.7226104
  99.7659752  33.2277248 116.6106104 102.2379752  33.1477248 116.0146104
 103.6829752  35.0037248 115.8096104 102.8469752  37.1727248 116.1836104
 100.5919752  37.5077248 116.7626104  99.1369752  35.6547248 116.9536104
 100.0969752  32.3397248 116.4586104 106.5649752 103.7187248  59.8206104
 106.0979752 102.5647248  60.4506104 106.6149752 101.3287248  60.0976104
 107.5949752 101.2587248  59.1176104 108.0639752 102.4037248  58.4906104
 107.5439752 103.6427248  58.8396104 106.0789752 104.8747248  60.1446104
 105.4139752 102.6277248  61.1346104 106.2959752 100.5217248  60.5296104
 107.9589752 100.3937248  58.8676104 108.7519752 102.3397248  57.8106104
 107.8619752 104.4477248  58.4016104 105.3989752 104.9367248  60.8206104
 107.8229752  62.1307248  97.9306104 106.7169752  61.9917248  98.7676104
 105.4609752  62.3687248  98.3206104 105.3229752  62.8797248  97.0386104
 106.4219752  63.0177248  96.2006104 107.6809752  62.6447248  96.6486104
 108.9989752  61.7837248  98.3496104 106.8259752  61.6317248  99.6616104
 104.6869752  62.2767248  98.8966104 104.4449752  63.1457248  96.7216104
 106.3089752  63.3727248  95.3056104 108.4549752  62.7427248  96.0716104
 109.1079752  61.4297248  99.2346104  98.8049752  31.9797248  75.7106104
  99.8959752  32.1787248  76.5576104  99.7429752  32.9237248  77.7156104
  98.5009752  33.4617248  78.0166104  97.4129752  33.2647248  77.1786104
  97.5639752  32.5227248  76.0156104  98.9469752  31.2897248  74.6246104
 100.7589752  31.7957248  76.3366104 100.4959752  33.0667248  78.3086104
  98.3909752  33.9847248  78.8276104  96.5489752  33.6437248  77.4046104
  96.8099752  32.3847248  75.4206104  99.8019752  30.9117248  74.4046104
  50.4229752  71.2817248  62.4256104  51.5599752  70.5287248  62.1336104
  52.3319752  70.8447248  61.0286104  51.9619752  71.9137248  60.2256104
  50.8329752  72.6677248  60.5136104  50.0549752  72.3487248  61.6186104
  49.6959752  70.9837248  63.4556104  51.8099752  69.7837248  62.7036104
  53.1229752  70.3247248  60.8176104  52.4999752  72.1377248  59.4496104
  50.5879752  73.4137248  59.9456104  49.2609752  72.8677248  61.8236104
  49.9419752  70.2467248  64.0186104 126.8919752  72.1927248 107.8886104
 126.8679752  70.9467248 108.5146104 126.6459752  70.8647248 109.8796104
 126.4479752  72.0297248 110.6056104 126.4689752  73.2707248 109.9866104
 126.6959752  73.3567248 108.6196104 127.1059752  72.2727248 106.6136104
 127.0069752  70.1387248 107.9956104 126.6289752  70.0017248 110.3226104
 126.2919752  71.9757248 111.5626104 126.3249752  74.0767248 110.5066104
 126.7179752  74.2207248 108.1796104 127.2449752  71.4737248 106.0996104
  43.3129752  81.2707248  23.5666104  43.3269752  82.3757248  24.4186104
  43.8849752  82.2657248  25.6816104  44.4239752  81.0527248  26.0816104
  44.4139752  79.9517248  25.2366104  43.8519752  80.0577248  23.9726104
  42.7859752  81.3697248  22.3876104  42.9479752  83.2197248  24.1266104
  43.8979752  83.0287248  26.2796104  44.8149752  80.9717248  26.9666104
  44.7979752  79.1107248  25.5286104  43.8349752  79.2917248  23.3776104
  42.4089752  82.2047248  22.0986104  50.4409752  30.3727248  99.6586104
  49.1609752  29.8337248  99.7836104  48.0919752  30.6587248 100.0946104
  48.3139752  32.0157248 100.2786104  49.5859752  32.5557248 100.1536104
  50.6579752  31.7307248  99.8456104  51.4429752  29.6027248  99.3736104
  49.0189752  28.8837248  99.6516104  47.1989752  30.2907248 100.1846104
  47.5679752  32.5957248 100.4976104  49.7249752  33.5077248 100.2806104
  51.5519752  32.1007248  99.7616104  51.3029752  28.6617248  99.2446104
 123.0089752  69.9017248 108.3856104 121.6529752  69.6277248 108.2126104
 121.2399752  68.8217248 107.1646104 122.1869752  68.2957248 106.2996104
 123.5379752  68.5637248 106.4686104 123.9539752  69.3747248 107.5156104
 123.3969752  70.6597248 109.3606104 120.9999752  69.9997248 108.8256104
 120.2979752  68.6267248 107.0376104 121.9009752  67.7307248 105.5636104
 124.1899752  68.1857248 105.8586104 124.8959752  69.5717248 107.6376104
 122.7509752  71.0307248 109.9666104  55.9459752  52.5887248  30.2926104
  56.4369752  52.8677248  29.0166104  56.0979752  52.0487248  27.9526104
  55.2689752  50.9587248  28.1736104  54.7759752  50.6797248  29.4406104
  55.1179752  51.4957248  30.5086104  56.2669752  53.3507248  31.2896104
  57.0149752  53.6337248  28.8756104  56.4359752  52.2347248  27.0636104
  55.0289752  50.3817248  27.4306104  54.1939752  49.9157248  29.5786104
  54.7829752  51.3047248  31.3986104  56.8409752  54.1077248  31.1506104
 105.2869752  43.0147248  78.0916104 104.8049752  42.5127248  79.3006104
 103.8559752  41.5027248  79.2996104 103.3989752  41.0037248  78.0886104
 103.8779752  41.4987248  76.8836104 104.8249752  42.5127248  76.8826104
 106.1689752  43.9627248  78.0906104 105.1329752  42.8697248  80.1406104
 103.5149752  41.1497248  80.1356104 102.7339752  40.2967248  78.0846104
 103.5519752  41.1367248  76.0456104 105.1599752  42.8687248  76.0446104
 106.4929752  44.3177248  78.9216104  95.5789752 132.8827248  62.4496104
  94.7499752 131.7807248  62.2396104  93.7239752 131.8567248  61.3126104
  93.5369752 133.0327248  60.6016104  94.3619752 134.1307248  60.8056104
  95.3869752 134.0587248  61.7376104  96.5359752 132.8157248  63.3196104
  94.8909752 130.9627248  62.7416104  93.1419752 131.0957248  61.1616104
  92.8189752 133.0897248  59.9516104  94.2219752 134.9447248  60.2986104
  95.9649752 134.8227248  61.8906104  96.6749752 132.0067248  63.8186104
 131.2319752  51.5327248  95.4206104 132.0399752  50.7297248  94.6156104
 131.9459752  50.8197248  93.2366104 131.0459752  51.7127248  92.6746104
 130.2419752  52.5147248  93.4716104 130.3309752  52.4237248  94.8536104
 131.3139752  51.4467248  96.7096104 132.6669752  50.1107248  95.0206104
 132.5039752  50.2637248  92.6706104 130.9769752  51.7767248  91.7086104
 129.6199752  53.1377248  93.0646104 129.7679752  52.9777248  95.4176104
 131.9319752  50.8317248  97.1116104  98.7029752  41.5297248  83.4996104
  99.6969752  40.8187248  82.8266104  99.3639752  40.0307248  81.7366104
  98.0399752  39.9617248  81.3296104  97.0489752  40.6687248  81.9946104
  97.3789752  41.4547248  83.0896104  99.0119752  42.2617248  84.5216104
 100.6199752  40.8767248  83.1206104 100.0489752  39.5327248  81.2646104
  97.8039752  39.4097248  80.5676104  96.1279752  40.6137248  81.6966104
  96.6909752  41.9477248  83.5636104  99.9239752  42.3177248  84.8146104
 120.3319752  92.7297248 110.9086104 120.0529752  92.9687248 109.5636104
 119.2429752  92.0927248 108.8606104 118.7179752  90.9847248 109.5096104
 118.9909752  90.7447248 110.8486104 119.8059752  91.6187248 111.5546104
 121.0939752  93.5447248 111.5666104 120.4249752  93.7477248 109.1206104
 119.0459752  92.2507248 107.9246104 118.1509752  90.3687248 109.0196104
 118.6129752  89.9687248 111.2906104 120.0069752  91.4547248 112.4896104
 121.4639752  94.3147248 111.1286104  42.1809752 106.1317248  46.0866104
  42.2289752 104.9887248  45.2886104  41.1159752 104.6117248  44.5556104
  39.9649752 105.3827248  44.6246104  39.9139752 106.5227248  45.4156104
  41.0259752 106.8997248  46.1546104  43.2179752 106.4827248  46.7776104
  43.0399752 104.4587248  45.2476104  41.1409752 103.8177248  43.9996104
  39.1829752 105.1207248  44.1126104  39.1029752 107.0537248  45.4506104
  40.9969752 107.6917248  46.7136104  44.0209752 105.9577248  46.7386104
 129.5489752 109.1087248  82.6886104 128.7259752 110.0437248  83.3176104
 128.8499752 110.2667248  84.6786104 129.7969752 109.5547248  85.3996104
 130.6199752 108.6267248  84.7776104 130.4949752 108.3977248  83.4146104
 129.4309752 108.8937248  81.4176104 128.0679752 110.5357248  82.8016104
 128.2809752 110.9137248  85.1226104 129.8859752 109.7087248  86.3536104
 131.2809752 108.1387248  85.2946104 131.0619752 107.7457248  82.9736104
 128.7789752 109.3797248  80.9076104  76.1659752 139.5837248  74.9276104
  75.1389752 138.6807248  75.2016104  75.2369752 137.8357248  76.2956104
  76.3609752 137.9017248  77.1056104  77.3839752 138.8007248  76.8386104
  77.2899752 139.6457248  75.7406104  76.0799752 140.3707248  73.9036104
  74.3579752 138.6447248  74.6286104  74.5279752 137.2037248  76.4916104
  76.4329752 137.3107248  77.8726104  78.1609752 138.8387248  77.4166104
  78.0029752 140.2727248  75.5436104  75.3079752 140.3337248  73.3336104
  41.2609752 110.9737248  75.8586104  40.1449752 110.1917248  75.5596104
  40.0409752 108.9117248  76.0766104  41.0539752 108.4237248  76.8896104
  42.1649752 109.1987248  77.1916104  42.2729752 110.4807248  76.6706104
  41.3639752 112.1687248  75.3706104  39.4429752 110.5447248  74.9906104
  39.2689752 108.3617248  75.8726104  40.9839752 107.5267248  77.2526104
  42.8629752 108.8457248  77.7646104  43.0499752 111.0267248  76.8716104
  40.6699752 112.5177248  74.8066104  51.2479752  71.1957248  38.7856104
  52.5099752  70.7737248  38.3686104  53.5199752  70.5967248  39.2996104
  53.2589752  70.8427248  40.6396104  52.0039752  71.2607248  41.0586104
  50.9909752  71.4427248  40.1276104  50.3029752  71.3677248  37.9166104
  52.6799752  70.6037248  37.4286104  54.4009752  70.3037248  39.0176104
  53.9649752  70.7197248  41.2946104  51.8349752  71.4247248  41.9996104
  50.1129752  71.7407248  40.4116104  50.4719752  71.2017248  36.9856104
  74.8219752  38.4617248  95.1856104  75.6579752  37.8467248  96.1166104
  75.1599752  37.4837248  97.3566104  73.8299752  37.7377248  97.6556104
  72.9929752  38.3467248  96.7306104  73.4909752  38.7157248  95.4886104
  75.2859752  38.8077248  94.0266104  76.5869752  37.6727248  95.8956104
  75.7359752  37.0567248  98.0106104  73.4779752  37.4847248  98.5236104
  72.0639752  38.5147248  96.9516104  72.9139752  39.1477248  94.8386104
  76.2059752  38.6377248  93.8086104  42.1249752  42.2177248 118.2646104
  42.2899752  43.5977248 118.1466104  42.6259752  44.3497248 119.2606104
  42.7949752  43.7137248 120.4826104  42.6339752  42.3407248 120.6026104
  42.2929752  41.5867248 119.4896104  41.8049752  41.5137248 117.2256104
  42.1709752  44.0297248 117.2876104  42.7419752  45.3097248 119.1876104
  43.0299752  44.2377248 121.2646104  42.7599752  41.9097248 121.4626104
  42.1729752  40.6267248 119.5666104  41.6839752  41.9417248 116.3746104
  75.3729752  78.5187248  31.7306104  74.9099752  79.8137248  31.4966104
  74.4689752  80.1707248  30.2326104  74.4949752  79.2287248  29.2136104
  74.9539752  77.9387248  29.4436104  75.3999752  77.5807248  30.7076104
  75.7909752  78.1847248  32.9096104  74.8949752  80.4627248  32.2166104
  74.1469752  81.0687248  30.0606104  74.1879752  79.4757248  28.3276104
  74.9619752  77.2897248  28.7236104  75.7269752  76.6827248  30.8756104
  75.7789752  78.8277248  33.6226104  41.9289752  65.9697248  48.3456104
  41.1679752  66.3187248  47.2296104  40.5259752  67.5447248  47.1896104
  40.6509752  68.4127248  48.2646104  41.4089752  68.0697248  49.3756104
  42.0499752  66.8397248  49.4196104  42.5259752  64.8207248  48.3886104
  41.0889752  65.7037248  46.4836104  39.9939752  67.7947248  46.4176104
  40.2009752  69.2717248  48.2396104  41.4909752  68.6887248  50.1176104
  42.5769752  66.5907248  50.1956104  42.4459752  64.2117248  47.6506104
  50.1079752 110.4907248  95.2006104  51.2099752 109.6507248  95.0396104
  52.3519752 110.1237248  94.4156104  52.3829752 111.4337248  93.9596104
  51.2899752 112.2727248  94.1196104  50.1419752 111.7997248  94.7406104
  49.0369752 110.0487248  95.7786104  51.1769752 108.7377248  95.3646104
  53.1219752 109.5467248  94.2986104  53.1819752 111.7677248  93.5206104
  51.3269752 113.1877248  93.7996104  49.3709752 112.3787248  94.8516104
  49.0019752 109.1437248  96.0986104  68.1769752  25.8687248  40.5356104
  69.4479752  25.4697248  40.9476104  70.5349752  25.6527248  40.1086104
  70.3399752  26.2347248  38.8646104  69.0769752  26.6357248  38.4516104
  67.9869752  26.4487248  39.2886104  67.1589752  25.6937248  41.3166104
  69.5719752  25.0657248  41.8206104  71.4219752  25.3767248  40.3866104
  71.0989752  26.3637248  38.2736104  68.9569752  27.0447248  37.5806104
  67.0999752  26.7207248  39.0056104  67.2799752  25.2907248  42.1796104
 121.5449752  84.9787248  68.2936104 122.4599752  83.9477248  68.0796104
 123.3719752  83.6187248  69.0696104 123.3599752  84.3237248  70.2646104
 122.4499752  85.3477248  70.4816104 121.5379752  85.6827248  69.4906104
 120.6949752  85.2917248  67.3676104 122.4569752  83.4617248  67.2406104
 124.0119752  82.9047248  68.9286104 123.9979752  84.0957248  70.9596104
 122.4499752  85.8287248  71.3236104 120.9019752  86.4007248  69.6316104
 120.6939752  84.8117248  66.5356104 102.7269752  84.5357248  31.5476104
 102.2949752  83.8417248  30.4166104 103.1849752  83.5767248  29.3886104
 104.4989752  84.0057248  29.5006104 104.9329752  84.6947248  30.6256104
 104.0429752  84.9647248  31.6546104 101.8959752  84.7897248  32.5066104
 101.3739752  83.5457248  30.3506104 102.8929752  83.0957248  28.5986104
 105.1249752  83.8227248  28.7826104 105.8559752  84.9847248  30.6916104
 104.3369752  85.4507248  32.4416104 100.9829752  84.4987248  32.4406104
  34.1699752 119.2527248  73.4926104  33.4009752 118.1627248  73.8996104
  33.5919752 117.6147248  75.1576104  34.5499752 118.1627248  75.9976104
  35.3159752 119.2487248  75.5976104  35.1289752 119.7967248  74.3366104
  33.9969752 119.7637248  72.3156104  32.7329752 117.7897248  73.3036104
  33.0619752 116.8567248  75.4476104  34.6869752 117.7807248  76.8796104
  35.9789752 119.6237248  76.1976104  35.6649752 120.5517248  74.0466104
  33.3379752 119.3927248  71.7236104 109.1969752 114.6447248 111.2316104
 107.8469752 114.3157248 111.3606104 107.2369752 114.3807248 112.6016104
 107.9809752 114.7747248 113.7046104 109.3229752 115.1057248 113.5806104
 109.9379752 115.0377248 112.3376104 109.7709752 114.5797248 110.0726104
 107.3369752 114.0427248 110.5816104 106.2999752 114.1517248 112.6996104
 107.5559752 114.8207248 114.5756104 109.8289752 115.3837248 114.3586104
 110.8769752 115.2617248 112.2436104 109.2669752 114.3077248 109.3026104
 114.9079752  60.3807248  81.5376104 115.0339752  59.2377248  80.7476104
 115.1919752  59.3607248  79.3776104 115.2239752  60.6257248  78.8086104
 115.1019752  61.7647248  79.5906104 114.9389752  61.6447248  80.9636104
 114.7539752  60.2687248  82.8186104 115.0109752  58.3597248  81.1576104
 115.2789752  58.5707248  78.8216104 115.3339752  60.7147248  77.8486104
 115.1299752  62.6427248  79.1796104 114.8469752  62.4367248  81.5176104
 114.7299752  59.3987248  83.2246104 111.6019752 100.6847248  51.8676104
 111.0539752  99.6897248  52.6766104 110.2479752 100.0377248  53.7476104
 109.9959752 101.3787248  53.9996104 110.5369752 102.3717248  53.1956104
 111.3489752 102.0257248  52.1246104 112.3609752 100.3617248  50.8686104
 111.2369752  98.7557248  52.4896104 109.8639752  99.3517248  54.3166104
 109.4319752 101.6257248  54.7506104 110.3489752 103.3047248  53.3816104
 111.7359752 102.7137248  51.5606104 112.5439752  99.4377248  50.6846104
  32.6859752  82.5557248  84.7226104  33.8489752  81.8147248  84.9346104
  34.9849752  82.0847248  84.1896104  34.9479752  83.0947248  83.2386104
  33.7939752  83.8357248  83.0266104  32.6539752  83.5647248  83.7696104
  31.6219752  82.3007248  85.4146104  33.8619752  81.1117248  85.6026104
  35.7959752  81.5737248  84.3296104  35.7419752  83.2857248  82.7146104
  33.7849752  84.5417248  82.3616104  31.8409752  84.0737248  83.6236104
  31.6339752  81.6037248  86.0746104 112.7519752  50.8457248  89.8966104
 112.9009752  52.1737248  90.2976104 113.3549752  53.1197248  89.3936104
 113.6549752  52.7297248  88.0966104 113.5059752  51.4097248  87.6936104
 113.0549752  50.4597248  88.5986104 112.3329752  49.9577248  90.7426104
 112.6869752  52.4337248  91.2066104 113.4629752  54.0447248  89.6636104
 113.9739752  53.3897248  87.4606104 113.7149752  51.1527248  86.7826104
 112.9539752  49.5337248  88.3266104 112.1229752  50.2147248  91.6436104
  31.2559752  88.7587248 114.5976104  30.8369752  90.0777248 114.7726104
  31.7669752  91.1037248 114.7576104  33.1079752  90.8027248 114.5666104
  33.5279752  89.4917248 114.3896104  32.5989752  88.4607248 114.4086104
  30.3889752  87.7967248 114.6176104  29.8969752  90.2757248 114.9036104
  31.4849752  92.0237248 114.8796104  33.7619752  91.5197248 114.5556104
  34.4679752  89.2967248 114.2536104  32.8849752  87.5417248 114.2916104
  29.4579752  87.9917248 114.7496104  46.9079752  64.4657248  75.5146104
  46.6599752  65.5457248  74.6676104  46.2529752  65.3197248  73.3626104
  46.0959752  64.0157248  72.9176104  46.3399752  62.9387248  73.7586104
  46.7519752  63.1627248  75.0646104  47.2939752  64.6747248  76.7336104
  46.7709752  66.4537248  74.9916104  46.0789752  66.0647248  72.7676104
  45.8119752  63.8537248  72.0046104  46.2219752  62.0317248  73.4346104
  46.9299752  62.4147248  75.6566104  47.4069752  65.5737248  77.0536104
  95.4959752  66.4957248 132.3406104  96.6059752  67.2997248 132.0836104
  96.5409752  68.2707248 131.0976104  95.3659752  68.4297248 130.3786104
  94.2579752  67.6327248 130.6326104  94.3229752  66.6567248 131.6166104
  95.5559752  65.5827248 133.2576104  97.4219752  67.1797248 132.5946104
  97.3089752  68.8337248 130.9126104  95.3169752  69.1087248 129.6866104
  93.4419752  67.7587248 130.1246104  93.5539752  66.0917248 131.7966104
  96.3639752  65.4627248 133.7616104  45.9559752 105.7527248  85.6316104
  46.4409752 104.9467248  86.6616104  46.6219752 103.5907248  86.4486104
  46.3179752 103.0517248  85.2066104  45.8379752 103.8507248  84.1786104
  45.6509752 105.2097248  84.3906104  45.7799752 107.0207248  85.8296104
  46.6509752 105.3357248  87.5246104  46.9579752 103.0227248  87.1596104
  46.4439752 102.1017248  85.0546104  45.6339752 103.4607248  83.3146104
  45.3109752 105.7737248  83.6786104  45.9849752 107.4057248  86.6856104
  99.7269752  59.6027248  95.7956104  99.7529752  58.2457248  95.4736104
  98.6289752  57.6437248  94.9316104  97.4899752  58.4047248  94.7156104
  97.4609752  59.7557248  95.0336104  98.5839752  60.3597248  95.5806104
 100.7749752  60.1657248  96.3076104 100.5569752  57.7247248  95.6276104
  98.6389752  56.7007248  94.7056104  96.7009752  57.9857248  94.3366104
  96.6579752  60.2757248  94.8726104  98.5699752  61.3017248  95.8106104
 101.5699752  59.6497248  96.4626104  82.0159752  14.5517248  83.4526104
  83.2949752  14.0037248  83.5556104  84.4009752  14.7687248  83.2256104
  84.2189752  16.0757248  82.7966104  82.9489752  16.6247248  82.6956104
  81.8379752  15.8587248  83.0216104  80.9799752  13.8357248  83.7556104
  83.4089752  13.0887248  83.8576104  85.2939752  14.3957248  83.2926104
  84.9919752  16.6137248  82.5636104  82.8369752  17.5407248  82.3986104
  80.9459752  16.2337248  82.9486104  81.0919752  12.9297248  84.0526104
 120.4099752  71.1897248  96.8526104 121.1529752  71.6797248  95.7786104
 122.2739752  70.9917248  95.3436104 122.6409752  69.8187248  95.9856104
 121.9029752  69.3257248  97.0526104 120.7829752  70.0157248  97.4926104
 119.3659752  71.8337248  97.2646104 120.8849752  72.5007248  95.3366104
 122.7959752  71.3267248  94.5986104 123.4259752  69.3347248  95.6836104
 122.1699752  68.5017248  97.4886104 120.2649752  69.6807248  98.2416104
 119.1019752  72.6477248  96.8296104 118.4409752  80.8747248  35.6956104
 117.3859752  81.7737248  35.8496104 117.6349752  83.0607248  36.2946104
 118.9389752  83.4387248  36.5806104 119.9919752  82.5487248  36.4256104
 119.7439752  81.2567248  35.9846104 118.2089752  79.6687248  35.2846104
 116.4779752  81.4977248  35.6446104 116.9069752  83.6917248  36.4056104
 119.1179752  84.3407248  36.8926104 120.8989752  82.8287248  36.6256104
 120.4739752  80.6267248  35.8796104 117.3109752  79.3937248  35.0846104
  94.6359752  55.1337248 111.1276104  93.6429752  55.3577248 112.0816104
  93.0519752  54.2837248 112.7266104  93.4589752  52.9957248 112.4116104
  94.4469752  52.7687248 111.4646104  95.0379752  53.8427248 110.8146104
  95.1859752  56.1367248 110.5186104  93.3679752  56.2637248 112.2936104
  92.3599752  54.4307248 113.3896104  93.0459752  52.2417248 112.8616104
  94.7249752  51.8627248 111.2586104  95.7259752  53.6927248 110.1466104
  94.9119752  57.0327248 110.7266104  36.6259752  79.3517248  47.1396104
  37.1379752  79.6627248  48.3996104  37.8489752  78.7087248  49.1096104
  38.0409752  77.4527248  48.5536104  37.5349752  77.1407248  47.2996104
  36.8189752  78.0937248  46.5876104  35.9559752  80.2407248  46.4766104
  36.9979752  80.5457248  48.7766104  38.2069752  78.9167248  49.9856104
  38.5379752  76.7827248  49.0486104  37.6809752  76.2597248  46.9216104
  36.4569752  77.8807248  45.7126104  35.8149752  81.1137248  46.8506104
 126.2049752  67.4247248  76.4506104 125.6309752  66.4347248  75.6516104
 126.4189752  65.7267248  74.7596104 127.7739752  66.0127248  74.6736104
 128.3479752  66.9947248  75.4686104 127.5599752  67.7087248  76.3606104
 125.4689752  68.0917248  77.2816104 124.6829752  66.2427248  75.7216104
 126.0279752  65.0377248  74.1996104 128.3279752  65.5197248  74.0496104
 129.2979752  67.1817248  75.4016104 127.9529752  68.4017248  76.9156104
 124.5299752  67.9037248  77.3486104  88.2749752  23.1787248  89.3416104
  88.1169752  22.2097248  88.3506104  88.8099752  22.3247248  87.1566104
  89.6559752  23.4067248  86.9646104  89.8179752  24.3727248  87.9486104
  89.1209752  24.2617248  89.1446104  87.6239752  23.0767248  90.4566104
  87.5239752  21.4567248  88.4976104  88.7049752  21.6557248  86.4626104
  90.1429752  23.4907248  86.1296104  90.4159752  25.1217248  87.8026104
  89.2239752  24.9357248  89.8346104  87.0339752  22.3327248  90.6006104
  56.5419752  28.1877248  79.8816104  57.0749752  27.0997248  79.1906104
  56.4099752  26.5897248  78.0876104  55.2189752  27.1737248  77.6836104
  54.6859752  28.2587248  78.3666104  55.3479752  28.7687248  79.4746104
  57.1589752  28.6627248  80.9166104  57.9099752  26.7007248  79.4816104
  56.7729752  25.8327248  77.6026104  54.7499752  26.8187248  76.9116104
  53.8549752  28.6597248  78.0706104  54.9799752  29.5227248  79.9616104
  57.9839752  28.2667248  81.2066104 118.3499752 121.5137248  67.9106104
 118.3009752 122.5287248  68.8666104 118.2229752 122.2067248  70.2116104
 118.1949752 120.8717248  70.5886104 118.2459752 119.8587248  69.6416104
 118.3199752 120.1797248  68.2936104 118.4179752 121.8127248  66.6526104
 118.3219752 123.4577248  68.5896104 118.1869752 122.9057248  70.8816104
 118.1389752 120.6427248  71.5306104 118.2299752 118.9307248  69.9206104
 118.3509752 119.4777248  67.6236104 118.4359752 122.7327248  66.3786104
  71.1689752  65.9087248 133.0676104  70.3579752  66.4187248 134.0816104
  69.6999752  67.6237248 133.8966104  69.8579752  68.3077248 132.7006104
  70.6629752  67.8017248 131.6886104  71.3259752  66.5967248 131.8726104
  71.7899752  64.7847248 133.2406104  70.2539752  65.9307248 134.9126104
  69.1349752  67.9857248 134.5966104  69.3989752  69.1517248 132.5686104
  70.7609752  68.2887248 130.8556104  71.8949752  66.2387248 131.1726104
  71.6889752  64.3027248 134.0646104  48.4399752  31.8307248  88.8016104
  48.7449752  30.7537248  87.9696104  48.3629752  30.7797248  86.6386104
  47.6789752  31.8837248  86.1506104  47.3759752  32.9587248  86.9746104
  47.7539752  32.9327248  88.3096104  48.7909752  31.8067248  90.0476104
  49.2249752  29.9877248  88.3226104  48.5699752  30.0347248  86.0536104
  47.4089752  31.9057248  85.2186104  46.9009752  33.7257248  86.6186104
  47.5409752  33.6777248  88.8936104  49.2639752  31.0477248  90.3976104
 125.6249752  60.1957248  97.8176104 124.4539752  59.8907248  98.5106104
 124.4019752  60.0587248  99.8846104 125.5209752  60.5327248 100.5526104
 126.6879752  60.8397248  99.8666104 126.7429752  60.6677248  98.4906104
 125.6769752  60.0337248  96.5336104 123.6769752  59.5607248  98.0326104
 123.5919752  59.8477248 100.3746104 125.4889752  60.6507248 101.5156104
 127.4609752  61.1737248 100.3466104 127.5569752  60.8747248  98.0036104
 124.9089752  59.7057248  96.0596104  61.2239752  82.9387248 129.5146104
  60.8659752  82.8077248 130.8566104  60.5599752  83.9337248 131.6026104
  60.6129752  85.1817248 130.9996104  60.9659752  85.3167248 129.6636104
  61.2779752  84.1897248 128.9156104  61.5159752  81.8877248 128.8176104
  60.8319752  81.9297248 131.2666104  60.3119752  83.8517248 132.5366104
  60.3999752  85.9737248 131.5196104  60.9949752  86.1957248 129.2546104
  61.5309752  84.2757248 127.9836104  61.4839752  81.0177248 129.2236104
 106.2889752 127.8607248  59.6366104 106.4359752 129.2447248  59.5446104
 106.8029752 129.8207248  58.3396104 107.0179752 129.0077248  57.2366104
 106.8689752 127.6307248  57.3226104 106.5059752 127.0507248  58.5306104
 105.9519752 127.3187248  60.7636104 106.2819752 129.8027248  60.3236104
 106.9089752 130.7817248  58.2686104 107.2749752 129.4087248  56.3906104
 107.0189752 127.0757248  56.5416104 106.4059752 126.0887248  58.6006104
 105.8009752 127.8707248  61.5346104 110.1909752  91.7357248  54.9226104
 111.4019752  91.3387248  55.4896104 112.2779752  90.5497248  54.7626104
 111.9369752  90.1657248  53.4746104 110.7339752  90.5607248  52.9046104
 109.8529752  91.3477248  53.6326104 109.3669752  92.4677248  55.6016104
 111.6299752  91.6137248  56.3906104 113.1219752  90.2687248  55.1506104
 112.5489752  89.6127248  52.9626104 110.5109752  90.2887248  52.0016104
 109.0069752  91.6237248  53.2446104 109.5919752  92.7397248  56.4956104
  99.5769752 117.4207248  89.3716104 100.7769752 117.5207248  88.6666104
 101.9329752 117.9077248  89.3256104 101.8789752 118.1887248  90.6826104
 100.6879752 118.0877248  91.3876104  99.5269752 117.7047248  90.7286104
  98.4939752 117.0647248  88.7566104 100.8019752 117.3197248  87.7186104
 102.7709752 117.9807248  88.8426104 102.6869752 118.4607248  91.1466104
 100.6659752 118.2837248  92.3366104  98.6889752 117.6377248  91.2136104
  98.5179752 116.8687248  87.8176104  98.5259752  89.3177248 124.3996104
  99.5309752  90.2007248 124.7926104 100.6739752  89.7157248 125.4066104
 100.8019752  88.3517248 125.6226104  99.8039752  87.4687248 125.2316104
  98.6569752  87.9527248 124.6196104  97.4539752  89.7697248 123.8306104
  99.4309752  91.1527248 124.6346104 101.3769752  90.3237248 125.6846104
 101.5999752  88.0087248 126.0536104  99.9089752  86.5177248 125.3846104
  97.9519752  87.3437248 124.3476104  97.3529752  90.7117248 123.6766104
  33.2689752  96.4217248  78.6376104  32.3559752  97.4737248  78.5676104
  31.8389752  98.0167248  79.7326104  32.2399752  97.5027248  80.9566104
  33.1489752  96.4567248  81.0306104  33.6659752  95.9087248  79.8646104
  33.7489752  95.9087248  77.5496104  32.0849752  97.8257248  77.7056104
  31.2029752  98.7477248  79.6926104  31.8789752  97.8807248  81.7746104
  33.4239752  96.1107248  81.8936104  34.2979752  95.1737248  79.9076104
  33.4789752  96.2547248  76.6956104 100.7929752  68.4237248  43.1156104
 101.2029752  68.6817248  41.8076104 101.4669752  69.9817248  41.4116104
 101.3219752  71.0137248  42.3276104 100.9169752  70.7607248  43.6306104
 100.6469752  69.4587248  44.0286104 100.5399752  67.2087248  43.4866104
 101.3019752  67.9517248  41.1766104 101.7509752  70.1697248  40.5036104
 101.5049752  71.9257248  42.0526104 100.8239752  71.4907248  44.2616104
 100.3579752  69.2737248  44.9366104 100.6359752  66.4867248  42.8616104
  31.3039752  71.0427248  98.2306104  31.3809752  72.4287248  98.0976104
  31.5419752  72.9937248  96.8426104  31.6219752  72.1667248  95.7316104
  31.5429752  70.7877248  95.8596104  31.3859752  70.2187248  97.1156104
  31.1589752  70.5117248  99.4026104  31.3229752  72.9967248  98.8816104
  31.5979752  73.9567248  96.7416104  31.7349752  72.5597248  94.8516104
  31.5959752  70.2217248  95.0736104  31.3359752  69.2547248  97.2146104
  31.1039752  71.0737248 100.1796104 108.9529752 108.4927248  96.8386104
 110.2669752 108.7617248  97.2216104 110.6719752 110.0717248  97.4226104
 109.7589752 111.0997248  97.2376104 108.4509752 110.8357248  96.8586104
 108.0439752 109.5247248  96.6526104 108.5739752 107.2697248  96.6446104
 110.8949752 108.0347248  97.3486104 111.5829752 110.2677248  97.6876104
 110.0399752 112.0177248  97.3766104 107.8229752 111.5637248  96.7376104
 107.1319752 109.3317248  96.3816104 109.1959752 106.5487248  96.7686104
  77.3959752  95.6427248  21.9266104  76.3479752  95.5477248  21.0116104
  76.5849752  95.0557248  19.7386104  77.8689752  94.6607248  19.3926104
  78.9149752  94.7517248  20.3006104  78.6799752  95.2487248  21.5746104
  77.1779752  96.1087248  23.1146104  75.4539752  95.8257248  21.2656104
  75.8619752  94.9877248  19.0956104  78.0389752  94.3167248  18.5016104
  79.8059752  94.4677248  20.0456104  79.4069752  95.3207248  22.2136104
  76.2939752  96.3857248  23.3666104  53.4419752 119.6357248  89.2376104
  52.3689752 118.7937248  89.5296104  51.9319752 118.6617248  90.8376104
  52.5709752 119.3727248  91.8416104  53.6379752 120.2137248  91.5556104
  54.0799752 120.3447248  90.2466104  53.8549752 119.7567248  88.0166104
  51.9289752 118.3027248  88.8186104  51.1869752 118.0777248  91.0496104
  52.2689752 119.2817248  92.7596104  54.0729752 120.7077248  92.2666104
  54.8289752 120.9257248  90.0386104  53.4219752 119.2687248  87.3126104
  71.3739752  18.6177248  80.6566104  70.0899752  18.8697248  80.1726104
  68.9969752  18.2587248  80.7636104  69.1969752  17.3997248  81.8346104
  70.4719752  17.1477248  82.3206104  71.5689752  17.7557248  81.7266104
  72.3969752  19.1837248  80.1006104  69.9629752  19.4737248  79.4236104
  68.1009752  18.4277248  80.4326104  68.4329752  16.9697248  82.2506104
  70.5959752  16.5487248  83.0736104  72.4649752  17.5807248  82.0576104
  72.2719752  19.7787248  79.3586104  25.7129752  99.9757248 106.9996104
  24.5579752 100.6927248 106.6846104  24.6549752 102.0167248 106.2876104
  25.9059752 102.6107248 106.2076104  27.0569752 101.9007248 106.5176104
  26.9619752 100.5757248 106.9206104  25.6239752  98.7407248 107.3776104
  23.6889752 100.2657248 106.7436104  23.8579752 102.5227248 106.0676104
  25.9769752 103.5377248 105.9296104  27.9249752 102.3277248 106.4526104
  27.7609752 100.0737248 107.1446104  24.7639752  98.3177248 107.4376104
  61.7639752 119.1847248  41.7186104  62.4389752 119.7417248  42.8046104
  61.7229752 120.3197248  43.8406104  60.3369752 120.3337248  43.7806104
  59.6609752 119.7787248  42.7036104  60.3769752 119.2037248  41.6626104
  62.4319752 118.6497248  40.7466104  63.4089752 119.7247248  42.8356104
  62.1849752 120.7097248  44.5986104  59.8319752 120.7387248  44.5046104
  58.6919752 119.7927248  42.6776104  59.9119752 118.8187248  40.9026104
  63.3919752 118.6347248  40.7756104  95.8529752  30.3767248  71.9666104
  95.5959752  29.1227248  71.4116104  95.0499752  28.1197248  72.1966104
  94.7649752  28.3797248  73.5286104  95.0169752  29.6267248  74.0836104
  95.5679752  30.6317248  73.3006104  96.3689752  31.3137248  71.2366104
  95.7989752  28.9527248  70.4786104  94.8699752  27.2447248  71.8186104
  94.3829752  27.6797248  74.0816104  94.8079752  29.7957248  75.0156104
  95.7519752  31.5047248  73.6826104  96.5719752  31.1457248  70.3136104
  20.6289752  74.0137248  83.7036104  20.1929752  72.9787248  84.5306104
  18.9149752  73.0137248  85.0626104  18.0829752  74.0817248  84.7616104
  18.5119752  75.1117248  83.9366104  19.7949752  75.0817248  83.4056104
  21.8259752  73.9857248  83.2096104  20.7839752  72.2367248  84.7336104
  18.6039752  72.2987248  85.6406104  17.1869752  74.1097248  85.1326104
  17.9179752  75.8497248  83.7306104  20.1039752  75.8007248  82.8326104
  22.4119752  73.2527248  83.4116104  87.0339752  98.8507248  56.4026104
  85.7249752  99.2327248  56.6956104  84.8779752  98.3507248  57.3466104
  85.3489752  97.0947248  57.7006104  86.6519752  96.7117248  57.4126104
  87.4999752  97.5927248  56.7566104  87.8249752  99.6727248  55.7896104
  85.4079752 100.1147248  56.4446104  83.9659752  98.6077248  57.5536104
  84.7579752  96.4737248  58.1556104  86.9679752  95.8317248  57.6696104
  88.4109752  97.3307248  56.5466104  87.5109752 100.5447248  55.5386104
  43.6939752  70.1837248 113.2476104  44.3609752  69.0707248 112.7346104
  43.9149752  68.4787248 111.5646104  42.8069752  69.0047248 110.9176104
  42.1429752  70.1137248 111.4226104  42.5849752  70.7067248 112.5976104
  44.1059752  70.7357248 114.3446104  45.1349752  68.7127248 113.1956104
  44.3709752  67.7037248 111.2026104  42.4909752  68.5917248 110.0976104
  41.3719752  70.4737248 110.9566104  42.1229752  71.4777248 112.9606104
  44.8709752  70.3797248 114.8026104 109.1889752 106.4747248  43.9266104
 108.5309752 106.0147248  42.7856104 107.1539752 105.8647248  42.7956104
 106.4469752 106.1767248  43.9476104 107.0969752 106.6367248  45.0846104
 108.4759752 106.7837248  45.0776104 110.4759752 106.6107248  43.9206104
 109.0369752 105.8017248  41.9856104 106.6899752 105.5437248  42.0076104
 105.4819752 106.0717248  43.9586104 106.5879752 106.8547248  45.8806104
 108.9389752 107.0997248  45.8696104 110.9779752 106.3977248  43.1306104
 121.0999752  54.0077248 112.2936104 121.4069752  54.8367248 113.3736104
 122.4739752  54.5257248 114.1996104 123.2259752  53.3897248 113.9396104
 122.9259752  52.5647248 112.8656104 121.8549752  52.8707248 112.0386104
 120.0989752  54.2927248 111.5236104 120.8739752  55.6287248 113.5446104
 122.6929752  55.0967248 114.9536104 123.9739752  53.1697248 114.5176104
 123.4629752  51.7757248 112.6926104 121.6349752  52.2957248 111.2886104
 119.5699752  55.0757248 111.6936104  41.1269752  81.9917248 102.2106104
  42.1179752  81.0347248 101.9956104  42.0849752  80.2517248 100.8536104
  41.0609752  80.4347248  99.9356104  40.0749752  81.3877248 100.1446104
  40.1039752  82.1707248 101.2896104  41.1529752  82.7207248 103.2806104
  42.8299752  80.9167248 102.6446104  42.7689752  79.5827248 100.6976104
  41.0349752  79.8867248  99.1346104  39.3679752  81.5077248  99.4916104
  39.4149752  82.8357248 101.4466104  41.8559752  82.6037248 103.9246104
 106.1079752 107.5277248  64.6776104 107.4029752 107.1117248  64.3696104
 107.6009752 105.9317248  63.6726104 106.5019752 105.1777248  63.2896104
 105.2109752 105.5887248  63.5926104 105.0109752 106.7687248  64.2946104
 105.9209752 108.6287248  65.3346104 108.1639752 107.6487248  64.6416104
 108.4979752 105.6347248  63.4556104 106.6369752 104.3497248  62.8016104
 104.4519752 105.0537248  63.3146104 104.1119752 107.0607248  64.5146104
 106.6739752 109.1587248  65.6066104  43.9789752  67.6097248  28.2906104
  45.0509752  68.3617248  27.8116104  45.2439752  68.4967248  26.4466104
  44.3619752  67.8787248  25.5726104  43.2919752  67.1307248  26.0456104
  43.0999752  66.9907248  27.4126104  43.7999752  67.4767248  29.5666104
  45.6599752  68.7907248  28.4336104  45.9879752  69.0167248  26.1056104
  44.4939752  67.9707248  24.6156104  42.6809752  66.7077248  25.4226104
  42.3579752  66.4657248  27.7516104  44.4039752  67.8997248  30.1816104
  69.8649752  26.4377248  76.6446104  69.0069752  27.4667248  76.2566104
  69.3269752  28.2577248  75.1656104  70.5019752  28.0107248  74.4706104
  71.3569752  26.9867248  74.8516104  71.0399752  26.1957248  75.9476104
  69.5699752  25.7017248  77.6686104  68.1869752  27.6287248  76.7506104
  68.7359752  28.9757248  74.8896104  70.7289752  28.5627248  73.7056104
  72.1729752  26.8227248  74.3536104  71.6359752  25.4817248  76.2246104
  68.7599752  25.8627248  78.1586104  31.2749752  70.1327248 108.7206104
  31.4809752  71.3017248 109.4526104  30.5689752  71.6757248 110.4256104
  29.4589752  70.8777248 110.6586104  29.2509752  69.7117248 109.9346104
  30.1609752  69.3367248 108.9556104  32.1229752  69.7837248 107.8066104
  32.2609752  71.8507248 109.2816104  30.7039752  72.4877248 110.9386104
  28.8179752  71.1367248 111.3396104  28.4729752  69.1607248 110.1116104
  30.0209752  68.5267248 108.4406104  32.8949752  70.3287248 107.6356104
  43.2659752  69.0667248 102.5586104  44.3879752  69.6257248 103.1706104
  44.5389752  69.5377248 104.5446104  43.5679752  68.8907248 105.2946104
  42.4519752  68.3307248 104.6886104  42.2959752  68.4217248 103.3126104
  43.1189752  69.1527248 101.2746104  45.0609752  70.0747248 102.6356104
  45.3159752  69.9247248 104.9776104  43.6709752  68.8277248 106.2566104
  41.7829752  67.8777248 105.2246104  41.5149752  68.0387248 102.8816104
  43.7839752  69.5997248 100.7446104  70.1129752  78.7537248  14.5546104
  70.7559752  79.1687248  15.7206104  72.0239752  78.6947248  16.0146104
  72.6379752  77.8107248  15.1406104  72.0019752  77.3967248  13.9776104
  70.7299752  77.8677248  13.6836104  68.9249752  79.1917248  14.2806104
  70.3169752  79.7887248  16.3236104  72.4779752  78.9777248  16.8246104
  73.5259752  77.4757248  15.3436104  72.4449752  76.7817248  13.3736104
  70.2759752  77.5787248  12.8756104  68.4889752  79.8037248  14.8786104
  34.6119752 108.1117248  47.3236104  34.3559752 109.4377248  47.6746104
  33.8629752 109.7347248  48.9336104  33.6309752 108.7047248  49.8326104
  33.8869752 107.3847248  49.4896104  34.3759752 107.0837248  48.2266104
  35.0679752 107.8307248  46.1446104  34.5229752 110.1497248  47.0376104
  33.6809752 110.6537248  49.1846104  33.2849752 108.9097248  50.7156104
  33.7239752 106.6747248  50.1296104  34.5519752 106.1627248  47.9756104
  35.2309752 108.5347248  45.5136104 127.1309752  50.4277248 100.0786104
 126.0999752  50.9217248  99.2796104 125.9139752  50.4157248  98.0036104
 126.7599752  49.4197248  97.5386104 127.7849752  48.9237248  98.3316104
 127.9759752  49.4317248  99.6086104 127.3109752  50.9037248 101.2696104
 125.5149752  51.6177248  99.6166104 125.1999752  50.7547248  97.4406104
 126.6319752  49.0627248  96.6446104 128.3659752  48.2237248  97.9946104
 128.6939752  49.0947248 100.1676104 126.7329752  51.5947248 101.6026104
  60.1819752  44.9687248 124.2586104  58.9119752  44.4297248 124.4696104
  58.2549752  44.6607248 125.6666104  58.8729752  45.4307248 126.6416104
  60.1339752  45.9707248 126.4346104  60.7959752  45.7357248 125.2376104
  60.7999752  44.7487248 123.1426104  58.4909752  43.8947248 123.7796104
  57.3729752  44.2887248 125.8216104  58.4149752  45.5937248 127.4816104
  60.5519752  46.5097248 127.1236104  61.6809752  46.1047248 125.0876104
  60.3839752  44.2167248 122.4596104 115.0349752  33.1657248  70.1356104
 115.5999752  32.6807248  71.3146104 115.3969752  33.3577248  72.5066104
 114.6289752  34.5127248  72.5076104 114.0629752  34.9967248  71.3376104
 114.2689752  34.3237248  70.1416104 115.2279752  32.5377248  69.0196104
 116.1339752  31.8707248  71.3006104 115.7879752  33.0277248  73.3306104
 114.4859752  34.9897248  73.3406104 113.5249752  35.8037248  71.3546104
 113.8809752  34.6587248  69.3176104 115.7579752  31.7377248  69.0046104
 100.5819752 101.6927248  63.5906104  99.5039752 101.7407248  64.4736104
  99.4699752 102.7017248  65.4706104 100.5159752 103.6077248  65.5756104
 101.5899752 103.5647248  64.6976104 101.6269752 102.5997248  63.7006104
 100.6179752 100.7917248  62.6616104  98.7779752 101.1027248  64.3896104
  98.7249752 102.7407248  66.0896104 100.4959752 104.2817248  66.2726104
 102.3109752 104.2067248  64.7796104 102.3769752 102.5597248  63.0856104
  99.9009752 100.1577248  62.5796104 123.9259752  85.0257248  84.1266104
 123.1889752  86.2067248  84.0416104 123.0969752  87.0437248  85.1416104
 123.7439752  86.6917248  86.3176104 124.4799752  85.5187248  86.4056104
 124.5699752  84.6767248  85.3056104 124.0089752  84.2397248  83.1006104
 122.7419752  86.4427248  83.2136104 122.5849752  87.8657248  85.0916104
 123.6799752  87.2747248  87.0906104 124.9299752  85.2877248  87.2326104
 125.0779752  83.8517248  85.3606104 123.5649752  84.4717248  82.2816104
  27.8139752  52.3967248  84.3236104  29.0809752  52.9517248  84.5016104
  29.6409752  53.7287248  83.5006104  28.9279752  53.9437248  82.3306104
  27.6659752  53.3957248  82.1506104  27.1049752  52.6137248  83.1496104
  27.2909752  51.6657248  85.2556104  29.5689752  52.7957248  85.3256104
  30.5219752  54.1167248  83.6166104  29.3179752  54.4867248  81.6266104
  27.1779752  53.5587248  81.3286104  26.2259752  52.2217248  83.0296104
  27.7739752  51.5087248  86.0706104 121.7149752  58.3857248  77.4286104
 122.7999752  59.1017248  77.9326104 123.6579752  58.5057248  78.8426104
 123.4229752  57.1977248  79.2396104 122.3459752  56.4797248  78.7386104
 121.4819752  57.0767248  77.8306104 120.9079752  58.9427248  76.5826104
 122.9549752  60.0157248  77.6466104 124.4139752  58.9967248  79.1986104
 124.0219752  56.7767248  79.8766104 122.1959752  55.5647248  79.0216104
 120.7229752  56.5847248  77.4796104 121.0589752  59.8477248  76.3006104
  80.4859752  28.7237248  51.1466104  80.4659752  27.8907248  52.2656104
  81.4999752  27.9477248  53.1866104  82.5439752  28.8377248  52.9806104
  82.5659752  29.6697248  51.8706104  81.5339752  29.6117248  50.9436104
  79.5239752  28.6687248  50.2816104  79.7299752  27.2737248  52.3986104
  81.4939752  27.3707248  53.9656104  83.2699752  28.8797248  53.6236104
  83.2999752  30.2897248  51.7416104  81.5449752  30.1857248  50.1626104
  78.7959752  28.0567248  50.4126104  31.6089752  98.9697248  56.1016104
  32.6189752  98.1537248  55.5936104  32.5619752  97.7247248  54.2766104
  31.4969752  98.1187248  53.4806104  30.4909752  98.9327248  53.9826104
  30.5439752  99.3597248  55.3026104  31.6569752  99.3667248  57.3336104
  33.3599752  97.8857248  56.1596104  33.2599752  97.1557248  53.9156104
  31.4539752  97.8197248  52.5586104  29.7549752  99.2037248  53.4126104
  29.8419752  99.9247248  55.6626104  32.3889752  99.1007248  57.8956104
  14.9949752  87.9237248  62.5856104  14.8029752  88.9497248  61.6616104
  14.7699752  90.2667248  62.0906104  14.9309752  90.5457248  63.4396104
  15.1259752  89.5267248  64.3616104  15.1549752  88.2067248  63.9356104
  15.0209752  86.6907248  62.1876104  14.6919752  88.7427248  60.7206104
  14.6349752  90.9867248  61.4546104  14.9079752  91.4667248  63.7436104
  15.2419752  89.7367248  65.3016104  15.2849752  87.4877248  64.5746104
  14.9089752  86.4857248  61.2566104 132.8849752  78.0137248 106.4386104
 132.9519752  77.0647248 107.4586104 132.0769752  77.1397248 108.5296104
 131.1419752  78.1637248 108.5716104 131.0699752  79.1087248 107.5576104
 131.9489752  79.0377248 106.4856104 133.7049752  77.9477248 105.4386104
 133.6089752  76.3527248 107.4176104 132.1179752  76.4847248 109.2436104
 130.5279752  78.2197248 109.3206104 130.4089752  79.8157248 107.5976104
 131.9089752  79.6977248 105.7756104 134.3579752  77.2447248 105.3996104
  80.7119752  20.2427248  86.9746104  80.6819752  18.8767248  86.6966104
  81.8579752  18.2057248  86.4066104  83.0549752  18.9067248  86.3976104
  83.0889752  20.2667248  86.6766104  81.9109752  20.9417248  86.9636104
  79.6119752  20.8737248  87.2406104  79.8389752  18.3967248  86.7076104
  81.8459752  17.2557248  86.2106104  83.8809752  18.4407248  86.1946104
  83.9339752  20.7427248  86.6706104  81.9259752  21.8927248  87.1536104
  78.7769752  20.3997248  87.2486104  56.9119752  25.0877248 106.7836104
  57.1819752  25.5667248 105.5026104  56.2329752  26.3237248 104.8346104
  55.0229752  26.5947248 105.4546104  54.7509752  26.1217248 106.7306104
  55.6979752  25.3597248 107.4006104  57.7949752  24.3757248 107.4076104
  58.0329752  25.3717248 105.0796104  56.4129752  26.6597248 103.9426104
  54.3559752  27.1247248 104.9896104  53.9019752  26.3237248 107.1536104
  55.5139752  25.0207248 108.2906104  58.6369752  24.1797248 106.9886104
  76.6539752  94.9267248 127.5416104  76.1019752  95.1777248 126.2866104
  76.7119752  94.6727248 125.1496104  77.8699752  93.9197248 125.2796104
  78.4219752  93.6657248 126.5276104  77.8139752  94.1737248 127.6666104
  76.0879752  95.4027248 128.6046104  75.2909752  95.7047248 126.2086104
  76.3349752  94.8447248 124.2736104  78.3009752  93.5657248 124.4856104
  79.2289752  93.1337248 126.6036104  78.1959752  94.0057248 128.5426104
  75.2869752  95.9257248 128.5286104  54.4509752 110.3127248 107.0366104
  54.6049752 110.8227248 108.3256104  53.6409752 110.5687248 109.2876104
  52.5309752 109.8077248 108.9526104  52.3749752 109.2967248 107.6716104
  53.3379752 109.5527248 106.7046104  55.3479752 110.5537248 106.1346104
  55.3859752 111.3527248 108.5486104  53.7399752 110.9207248 110.1856104
  51.8539752 109.6287248 109.6236104  51.5959752 108.7617248 107.4526104
  53.2329752 109.2037248 105.8056104  56.1199752 111.0797248 106.3536104
  42.1379752  57.7967248  54.8246104  43.1069752  57.9857248  53.8386104
  43.0099752  59.0627248  52.9736104  41.9459752  59.9427248  53.1026104
  40.9809752  59.7597248  54.0826104  41.0739752  58.6787248  54.9486104
  42.2239752  56.7867248  55.6306104  43.8479752  57.3637248  53.7596104
  43.6789752  59.1997248  52.2846104  41.8749752  60.6977248  52.4966104
  40.2449752  60.3857248  54.1636104  40.3999752  58.5407248  55.6326104
  42.9559752  56.1697248  55.5516104  95.7529752  81.4607248  25.5576104
  94.6039752  81.1917248  26.3016104  94.6189752  81.3587248  27.6766104
  95.7819752  81.7947248  28.2956104  96.9259752  82.0667248  27.5576104
  96.9139752  81.8957248  26.1806104  95.7429752  81.2997248  24.2726104
  93.7969752  80.8887248  25.8576104  93.8259752  81.1717248  28.2026104
  95.7959752  81.9117248  29.2586104  97.7299752  82.3747248  28.0026104
  97.7119752  82.0777248  25.6576104  94.9439752  80.9977248  23.8326104
  45.5239752  60.9047248  55.2356104  45.4239752  61.6077248  56.4366104
  45.1369752  60.9297248  57.6106104  44.9529752  59.5557248  57.5726104
  45.0539752  58.8527248  56.3806104  45.3369752  59.5297248  55.2026104
  45.7859752  61.5377248  54.1366104  45.5559752  62.5687248  56.4506104
  45.0649752  61.4107248  58.4496104  44.7519752  59.0777248  58.3926104
  44.9279752  57.8917248  56.3696104  45.4039752  59.0467248  54.3636104
  45.9139752  62.4887248  54.1496104  99.3199752  21.9167248  78.1866104
  98.2609752  21.5177248  79.0026104  97.0249752  21.2407248  78.4426104
  96.8579752  21.3637248  77.0706104  97.9099752  21.7577248  76.2556104
  99.1479752  22.0397248  76.8146104 100.4749752  22.1817248  78.7086104
  98.3899752  21.4347248  79.9606104  96.2829752  20.9647248  79.0036104
  95.9939752  21.1717248  76.6756104  97.7799752  21.8347248  75.2976104
  99.8869752  22.3217248  76.2526104 100.6019752  22.1007248  79.6576104
  60.1439752 115.8527248 122.1036104  61.3029752 116.4647248 122.5816104
  62.4179752 115.6967248 122.8756104  62.3649752 114.3237248 122.6866104
  61.2149752 113.7107248 122.2076104  60.0949752 114.4777248 121.9176104
  59.0989752 116.5677248 121.8336104  61.3279752 117.4257248 122.7086104
  63.2259752 116.1147248 123.2096104  63.1439752 113.7827248 122.8916104
  61.1939752 112.7507248 122.0766104  59.2859752 114.0567248 121.5876104
  59.1219752 117.5187248 121.9616104  26.4309752  83.8857248 110.7386104
  26.6599752  85.1817248 110.2766104  27.7669752  85.4467248 109.4876104
  28.6349752  84.4137248 109.1666104  28.4089752  83.1227248 109.6226104
  27.3029752  82.8547248 110.4166104  25.3989752  83.6357248 111.4816104
  26.0449752  85.8957248 110.5066104  27.9339752  86.3457248 109.1636104
  29.4119752  84.5967248 108.6146104  29.0219752  82.4087248 109.3866104
  27.1409752  81.9557248 110.7436104  24.7909752  84.3427248 111.7116104
  45.1079752  38.1497248  57.6486104  44.7279752  37.1997248  58.5966104
  45.6929752  36.5537248  59.3516104  47.0299752  36.8657248  59.1536104
  47.4119752  37.8127248  58.2136104  46.4469752  38.4567248  57.4526104
  44.2069752  38.7507248  56.9376104  43.7889752  36.9907248  58.7266104
  45.4369752  35.8917248  60.0116104  47.7089752  36.4147248  59.6806104
  48.3499752  38.0227248  58.0886104  46.7059752  39.1157248  56.7886104
  43.2789752  38.5427248  57.0646104  45.2359752  62.0707248 130.3966104
  44.9979752  61.8827248 131.7576104  45.5579752  60.7977248 132.4126104
  46.3519752  59.9107248 131.7006104  46.5929752  60.0957248 130.3466104
  46.0299752  61.1797248 129.6866104  44.7099752  63.0807248 129.7806104
  44.4429752  62.5107248 132.2456104  45.3959752  60.6597248 133.3586104
  46.7449752  59.1497248 132.1556104  47.1529752  59.4697248 129.8616104
  46.1889752  61.3127248 128.7386104  44.1569752  63.7017248 130.2626104
  30.1179752  53.2997248  93.8566104  30.8969752  52.9137248  92.7656104
  30.9499752  53.7157248  91.6376104  30.2259752  54.8987248  91.6116104
  29.4519752  55.2877248  92.6956104  29.3929752  54.4837248  93.8246104
  30.0609752  52.5487248  94.9096104  31.3999752  52.0847248  92.7966104
  31.4879752  53.4537248  90.8746104  30.2609752  55.4627248  90.8226104
  28.9539752  56.1197248  92.6646104  28.8499752  54.7457248  94.5846104
  30.5579752  51.7277248  94.9406104  93.4119752  93.3917248 129.5636104
  94.2329752  93.7667248 128.5006104  94.8559752  92.7967248 127.7336104
  94.6529752  91.4587248 128.0366104  93.8349752  91.0797248 129.0926104
  93.2119752  92.0507248 129.8646104  92.8319752  94.2967248 130.2856104
  94.3659752  94.7067248 128.2976104  95.4289752  93.0497248 126.9936104
  95.0889752  90.7757248 127.5026104  93.6979752  90.1407248 129.2896104
  92.6439752  91.7947248 130.6076104  92.9659752  95.2267248 130.0866104
  53.9469752  53.1787248  34.1526104  53.7289752  51.8867248  34.6306104
  54.7839752  51.1577248  35.1536104  56.0479752  51.7287248  35.1956104
  56.2679752  53.0147248  34.7226104  55.2139752  53.7447248  34.1946104
  52.9629752  53.8597248  33.6576104  52.8399752  51.4997248  34.5976104
  54.6419752  50.2587248  35.4876104  56.7899752  51.2197248  35.5606104
  57.1569752  53.4017248  34.7626104  55.3599752  54.6427248  33.8566104
  52.0829752  53.4767248  33.6226104 106.7179752  83.1017248 130.8926104
 106.8139752  83.0617248 129.5016104 105.7939752  83.5847248 128.7246104
 104.6879752  84.1457248 129.3446104 104.5889752  84.1897248 130.7286104
 105.6079752  83.6617248 131.5096104 107.6679752  82.6077248 131.6216104
 107.5939752  82.6677248 129.0796104 105.8529752  83.5587248 127.7566104
 103.9709752  84.5127248 128.8036104 103.8119752  84.5887248 131.1486104
 105.5439752  83.6847248 132.4776104 108.4389752  82.2167248 131.2046104
  77.5309752 111.7067248 117.5086104  76.4389752 112.4417248 117.9706104
  75.1539752 111.9577248 117.7856104  74.9719752 110.7427248 117.1416104
  76.0559752 110.0077248 116.6836104  77.3439752 110.4917248 116.8636104
  78.7319752 112.1597248 117.6756104  76.5789752 113.2897248 118.4206104
  74.3889752 112.4637248 118.1026104  74.0739752 110.4017248 117.0096104
  75.9139752 109.1577248 116.2386104  78.1069752 109.9867248 116.5406104
  78.8709752 112.9997248 118.1186104 128.4099752  62.9857248  77.0446104
 127.1539752  62.9807248  77.6506104 126.9269752  63.7597248  78.7736104
 127.9579752  64.5367248  79.2796104 129.2079752  64.5457248  78.6786104
 129.4399752  63.7637248  77.5566104 128.6269752  62.2547248  75.9976104
 126.4409752  62.4337248  77.2856104 126.0559752  63.7607248  79.2006104
 127.8019752  65.0827248  80.0666104 129.9179752  65.0977248  79.0416104
 130.3129752  63.7597248  77.1336104 127.9219752  61.7107248  75.6386104
 103.2939752  29.6537248  81.4536104 102.6929752  28.6817248  82.2526104
 102.5269752  28.9087248  83.6086104 102.9619752  30.1077248  84.1536104
 103.5579752  31.0797248  83.3626104 103.7299752  30.8517248  82.0036104
 103.4559752  29.4407248  80.1866104 102.3919752  27.8477248  81.8596104
 102.1109752  28.2377248  84.1716104 102.8479752  30.2697248  85.1036104
 103.8529752  31.9147248  83.7566104 104.1509752  31.5237248  81.4446104
 103.1589752  28.6147248  79.7976104 105.4329752  75.7357248 116.1956104
 106.5919752  75.8317248 115.4256104 107.7499752  75.1927248 115.8376104
 107.7379752  74.4617248 117.0166104 106.5859752  74.3607248 117.7846104
 105.4269752  75.0037248 117.3756104 104.3509752  76.3367248 115.8146104
 106.5869752  76.3447248 114.6026104 108.5599752  75.2557248 115.3086104
 108.5469752  74.0127248 117.3086104 106.5919752  73.8427248 118.6036104
 104.6189752  74.9437248 117.9096104 104.3469752  76.8467248 115.0016104
  42.7799752  89.2357248  47.5216104  42.6889752  90.2987248  46.6236104
  42.4019752  90.0527248  45.2906104  42.2069752  88.7457248  44.8686104
  42.2939752  87.6857248  45.7596104  42.5869752  87.9297248  47.0946104
  43.0539752  89.4627248  48.7666104  42.8259752  91.2087248  46.9306104
  42.3379752  90.7857248  44.6596104  42.0069752  88.5697248  43.9356104
  42.1519752  86.7777248  45.4516104  42.6549752  87.1937248  47.7236104
  43.1919752  90.3627248  49.0716104  44.6469752 109.8297248  82.9196104
  43.6209752 110.5517248  82.3106104  42.8889752 109.9767248  81.2846104
  43.1889752 108.6857248  80.8766104  44.2079752 107.9637248  81.4826104
  44.9459752 108.5387248  82.5076104  45.3359752 110.3667248  83.8756104
  43.4189752 111.4527248  82.6056104  42.1749752 110.4727248  80.8546104
  42.6789752 108.2807248  80.1576104  44.4039752 107.0597248  81.1896104
  45.6629752 108.0417248  82.9326104  45.1389752 111.2607248  84.1666104
  67.5939752 134.0007248  75.2606104  68.5209752 134.2937248  74.2606104
  69.8529752 133.9577248  74.4336104  70.2469752 133.3307248  75.6066104
  69.3279752 133.0347248  76.6036104  67.9929752 133.3747248  76.4336104
  66.3489752 134.3197248  75.1026104  68.2319752 134.7317248  73.4436104
  70.5039752 134.1587248  73.7436104  71.1799752 133.0937248  75.7316104
  69.6169752 132.5927248  77.4166104  67.3449752 133.1767248  77.1286104
  66.0639752 134.7547248  74.2966104  31.2529752  64.6117248 114.5716104
  30.8459752  65.4587248 115.6016104  31.7929752  66.0657248 116.4106104
  33.1389752  65.8197248 116.1816104  33.5479752  64.9787248 115.1556104
  32.6009752  64.3667248 114.3466104  30.3689752  64.0387248 113.8176104
  29.9019752  65.6237248 115.7516104  31.5179752  66.6547248 117.1296104
  33.8049752  66.2417248 116.7466104  34.4919752  64.8197248 115.0046104
  32.8779752  63.7727248 113.6316104  29.4339752  64.1997248 113.9666104
  43.2239752  62.1477248  60.3946104  42.8459752  60.8927248  59.9166104
  42.9269752  59.7857248  60.7456104  43.3829752  59.9437248  62.0456104
  43.7569752  61.1907248  62.5266104  43.6819752  62.3007248  61.6966104
  43.1549752  63.1827248  59.6196104  42.5279752  60.7957248  59.0056104
  42.6669752  58.9097248  60.4206104  43.4409752  59.1697248  62.6286104
  44.0699752  61.2867248  63.4386104  43.9469752  63.1747248  62.0226104
  42.8419752  63.0867248  58.7176104 117.3199752  93.1147248  36.8536104
 115.9809752  92.8937248  37.1776104 114.9839752  93.2987248  36.3046104
 115.3349752  93.9207248  35.1156104 116.6659752  94.1407248  34.7886104
 117.6659752  93.7397248  35.6636104 118.2529752  92.7427248  37.6706104
 115.7479752  92.4567248  38.0116104 114.0509752  93.1497248  36.5226104
 114.6399752  94.2067248  34.5026104 116.8959752  94.5727248  33.9526104
 118.5989752  93.8957248  35.4456104 118.0229752  92.3117248  38.4976104
  92.4299752 122.5157248  63.6686104  92.6949752 121.2517248  63.1416104
  93.1719752 121.1297248  61.8476104  93.3819752 122.2737248  61.0916104
  93.1219752 123.5337248  61.6126104  92.6399752 123.6577248  62.9076104
  91.9789752 122.6317248  64.8766104  92.5449752 120.4597248  63.6816104
  93.3569752 120.2547248  61.4736104  93.7149752 122.1917248  60.1836104
  93.2779752 124.3247248  61.0736104  92.4509752 124.5347248  63.2776104
  91.8279752 121.8477248  65.4106104  92.5409752  43.5987248 113.1426104
  92.5009752  42.5627248 112.2086104  91.3719752  41.7657248 112.1116104
  90.2929752  42.0117248 112.9476104  90.3289752  43.0427248 113.8766104
  91.4599752  43.8397248 113.9796104  93.5979752  44.3407248 113.2396104
  93.2609752  42.4017248 111.6286104  91.3359752  41.0427248 111.4656104
  89.5019752  41.4547248 112.8826104  89.5659752  43.2047248 114.4516104
  91.4949752  44.5587248 114.6296104  94.3509752  44.1807248 112.6666104
  38.7259752  46.0027248  50.4386104  37.5099752  46.3107248  49.8266104
  37.2419752  45.8407248  48.5516104  38.1909752  45.0677248  47.8996104
  39.3999752  44.7577248  48.5056104  39.6729752  45.2297248  49.7816104
  38.9809752  46.4447248  51.6286104  36.8539752  46.8507248  50.2936104
  36.3999752  46.0517248  48.1186104  38.0059752  44.7377248  47.0056104
  40.0519752  44.2117248  48.0396104  40.5189752  45.0227248  50.2106104
  38.3329752  46.9827248  52.0906104 112.4869752  94.2927248  54.3736104
 112.6669752  95.5227248  53.7416104 113.9269752  95.8927248  53.2996104
 114.9939752  95.0287248  53.4916104 114.8189752  93.8027248  54.1176104
 113.5579752  93.4317248  54.5656104 111.3109752  93.9467248  54.7926104
 111.9119752  96.1177248  53.6116104 114.0609752  96.7477248  52.8596104
 115.8779752  95.2857248  53.1836104 115.5739752  93.2077248  54.2416104
 113.4279752  92.5787248  55.0096104 110.5639752  94.5367248  54.6656104
  51.3819752 119.9117248  51.0236104  50.9689752 118.8327248  50.2416104
  51.2669752 118.8077248  48.8886104  51.9759752 119.8607248  48.3296104
  52.3909752 120.9347248  49.1046104  52.0899752 120.9647248  50.4596104
  51.0999752 119.9407248  52.2866104  50.4749752 118.1017248  50.6436104
  50.9819752 118.0617248  48.3376104  52.1859752 119.8467248  47.3826104
  52.8899752 121.6617248  48.7016104  52.3719752 121.7147248  51.0076104
  50.6089752 119.2177248  52.6846104  84.3769752  27.1777248  49.1396104
  85.0909752  27.0317248  47.9506104  86.4519752  27.2887248  47.9266104
  87.0869752  27.6877248  49.0936104  86.3809752  27.8317248  50.2796104
  85.0169752  27.5797248  50.3046104  83.1029752  26.9437248  49.1626104
  84.6349752  26.7507248  47.1416104  86.9549752  27.1907248  47.1036104
  88.0399752  27.8697248  49.0796104  86.8399752  28.1077248  51.0876104
  84.5149752  27.6827248  51.1286104  82.6519752  26.6677248  48.3616104
  77.3529752  42.9537248 106.0146104  75.9959752  42.7917248 106.2936104
  75.0709752  42.8247248 105.2636104  75.5119752  43.0187248 103.9626104
  76.8619752  43.1777248 103.6796104  77.7899752  43.1487248 104.7116104
  78.2189752  42.9287248 106.9776104  75.7009752  42.6557248 107.2076104
  74.1259752  42.7147248 105.4486104  74.8669752  43.0427248 103.2376104
  77.1549752  43.3077248 102.7646104  78.7339752  43.2647248 104.5236104
  77.9269752  42.7967248 107.8826104 116.9579752 112.7177248  92.2256104
 116.7369752 113.8867248  91.4956104 116.4289752 113.8097248  90.1476104
 116.3439752 112.5657248  89.5406104 116.5619752 111.4007248  90.2636104
 116.8739752 111.4747248  91.6136104 117.2519752 112.7877248  93.4846104
 116.7979752 114.7507248  91.9316104 116.2749752 114.6167248  89.6326104
 116.1299752 112.5077248  88.5956104 116.4949752 110.5377248  89.8266104
 117.0329752 110.6657248  92.1246104 117.3139752 113.6427248  93.9166104
  41.1589752  37.6587248 111.0786104  41.7169752  38.8607248 110.6436104
  41.0229752  39.6607248 109.7516104  39.7759752  39.2517248 109.3026104
  39.2149752  38.0577248 109.7346104  39.9109752  37.2527248 110.6256104
  41.8089752  36.9057248 111.9086104  42.5899752  39.1357248 110.9656104
  41.4049752  40.4967248 109.4426104  39.2869752  39.8097248 108.6766104
  38.3409752  37.7877248 109.4156104  39.5289752  36.4137248 110.9286104
  42.6729752  37.1777248 112.2266104 109.4339752  39.8717248  77.1276104
 108.4139752  39.5157248  78.0096104 108.3249752  40.1337248  79.2466104
 109.2569752  41.1027248  79.5896104 110.2709752  41.4617248  78.7126104
 110.3649752  40.8407248  77.4756104 109.5219752  39.2917248  75.9726104
 107.7679752  38.8377248  77.7576104 107.6199752  39.8907248  79.8666104
 109.1979752  41.5367248  80.4546104 110.9129752  42.1437248  78.9646104
 111.0749752  41.0817248  76.8586104 108.8839752  38.6187248  75.7236104
  78.7189752 100.8157248 119.9896104  79.1049752 101.9867248 119.3376104
  79.0499752 103.1987248 120.0056104  78.6089752 103.2287248 121.3206104
  78.2259752 102.0647248 121.9736104  78.2769752 100.8507248 121.3046104
  78.7639752  99.6817248 119.3646104  79.4129752 101.9527248 118.4186104
  79.3159752 104.0177248 119.5596104  78.5689752 104.0757248 121.7916104
  77.9239752 102.1007248 122.8946104  78.0049752 100.0337248 121.7516104
  79.0659752  99.6487248 118.4536104  49.6329752 129.5007248  85.3436104
  48.5309752 129.3497248  84.5036104  48.5379752 128.3677248  83.5256104
  49.6479752 127.5457248  83.3986104  50.7459752 127.6917248  84.2346104
  50.7429752 128.6767248  85.2116104  49.6309752 130.4217248  86.2546104
  47.7599752 129.9297248  84.6036104  47.7759752 128.2567248  82.9366104
  49.6559752 126.8577248  82.7146104  51.5129752 127.1067248  84.1366104
  51.5089752 128.7887248  85.7966104  48.8689752 130.9977248  86.3526104
  98.4289752 134.8907248  84.8426104  99.4279752 134.3157248  84.0576104
  99.4859752 134.5937248  82.7016104  98.5449752 135.4457248  82.1436104
  97.5499752 136.0217248  82.9216104  97.4879752 135.7407248  84.2796104
  98.3689752 134.6267248  86.1096104 100.0819752 133.7227248  84.4596104
 100.1769752 134.1977248  82.1486104  98.5819752 135.6427248  81.1936104
  96.9019752 136.6197248  82.5186104  96.7919752 136.1347248  84.8296104
  99.0139752 134.0377248  86.5076104 107.6659752 119.8247248 109.6706104
 108.0659752 120.9647248 110.3686104 108.5709752 120.8457248 111.6526104
 108.6729752 119.5877248 112.2276104 108.2789752 118.4507248 111.5366104
 107.7679752 118.5677248 110.2516104 107.1879752 119.9337248 108.4726104
 107.9909752 121.8387248 109.9546104 108.8499752 121.6337248 112.1446104
 109.0259752 119.5017248 113.1276104 108.3599752 117.5777248 111.9496104
 107.4849752 117.7787248 109.7636104 107.1119752 120.7997248 108.0636104
  45.8339752  94.0357248  25.2526104  44.9729752  94.9137248  25.9126104
  45.0279752  95.0257248  27.2916104  45.9429752  94.2607248  27.9996104
  46.8029752  93.3887248  27.3466104  46.7469752  93.2707248  25.9646104
  45.7809752  93.9247248  23.9636104  44.3379752  95.4437248  25.4066104
  44.4319752  95.6327248  27.7586104  45.9839752  94.3367248  28.9666104
  47.4409752  92.8637248  27.8536104  47.3409752  92.6597248  25.5016104
  45.1509752  94.4477248  23.4626104  63.1359752  84.8257248 117.5646104
  64.1589752  84.5597248 116.6546104  65.3409752  85.2807248 116.7156104
  65.4879752  86.2597248 117.6866104  64.4729752  86.5257248 118.5946104
  63.2869752  85.8087248 118.5326104  62.0279752  84.1567248 117.5056104
  64.0439752  83.8707248 115.9816104  66.0569752  85.1027248 116.0866104
  66.3139752  86.7677248 117.7316104  64.5919752  87.2107248 119.2706104
  62.5699752  85.9917248 119.1606104  61.9129752  83.4767248 116.8376104
 105.9169752  88.2797248 114.6416104 105.4649752  89.5977248 114.7056104
 105.9669752  90.5427248 113.8246104 106.9149752  90.1597248 112.8876104
 107.3659752  88.8487248 112.8196104 106.8679752  87.9017248 113.7026104
 105.4529752  87.3957248 115.4666104 104.8009752  89.8527248 115.3646104
 105.6589752  91.4607248 113.8636104 107.2699752  90.8197248 112.2706104
 108.0259752  88.5957248 112.1556104 107.1809752  86.9847248 113.6656104
 104.7969752  87.6487248 116.1206104 103.9029752  22.3447248  62.0896104
 103.6929752  21.5067248  60.9946104 103.7189752  20.1327248  61.1626104
 103.9539752  19.6077248  62.4256104 104.1609752  20.4377248  63.5176104
 104.1399752  21.8157248  63.3506104 103.8849752  23.6307248  61.9336104
 103.5289752  21.8857248  60.1166104 103.5749752  19.5427248  60.4066104
 103.9739752  18.6447248  62.5466104 104.3199752  20.0567248  64.3956104
 104.2899752  22.4027248  64.1086104 103.7249752  24.0057248  61.0646104
  43.1009752 109.6737248  66.6376104  44.0409752 109.0047248  67.4226104
  45.0509752 108.2757248  66.8176104  45.1129752 108.2217248  65.4326104
  44.1809752 108.8877248  64.6486104  43.1659752 109.6157248  65.2526104
  42.1529752 110.3527248  67.2016104  43.9879752 109.0517248  68.3896104
  45.7069752 107.8067248  67.3556104  45.8179752 107.7107248  65.0056104
  44.2399752 108.8447248  63.6816104  42.5079752 110.0797248  64.7116104
  42.0989752 110.3967248  68.1596104  25.4589752  77.5147248  88.4786104
  25.3589752  77.2537248  87.1126104  24.2019752  76.6907248  86.5996104
  23.1539752  76.3947248  87.4586104  23.2479752  76.6547248  88.8186104
  24.4079752  77.2147248  89.3346104  26.5419752  78.0357248  88.9606104
  26.0989752  77.4657248  86.5216104  24.1259752  76.5047248  85.6516104
  22.3419752  75.9997248  87.1026104  22.5049752  76.4467248  89.4066104
  24.4839752  77.3947248  90.2856104  27.2749752  78.2437248  88.3766104
  63.8429752  42.7427248 112.9136104  62.7029752  42.8217248 112.1136104
  62.8009752  42.5937248 110.7506104  64.0359752  42.2877248 110.2006104
  65.1719752  42.2047248 110.9936104  65.0779752  42.4377248 112.3586104
  63.7559752  42.9617248 114.1876104  61.8449752  43.0357248 112.5106104
  62.0129752  42.6487248 110.1866104  64.1079752  42.1277248 109.2456104
  66.0289752  41.9857248 110.5956104  65.8679752  42.3877248 112.9196104
  62.9059752  43.1757248 114.5806104  49.0619752  98.7267248 117.8026104
  50.2909752  98.8137248 117.1476104  50.3299752  98.9767248 115.7726104
  49.1399752  99.0527248 115.0646104  47.9159752  98.9687248 115.7116104
  47.8739752  98.8017248 117.0886104  49.0229752  98.5687248 119.0866104
  51.1169752  98.7617248 117.6546104  51.1809752  99.0377248 115.3106104
  49.1639752  99.1657248 114.1006104  47.0919752  99.0277248 115.2036104
  47.0219752  98.7357248 117.5486104  49.8399752  98.5137248 119.5886104
  40.5649752  77.1467248  79.8596104  41.5939752  77.7167248  80.6086104
  41.2939752  78.5917248  81.6396104  39.9669752  78.8877248  81.9136104
  38.9399752  78.3207248  81.1716104  39.2379752  77.4467248  80.1356104
  40.8439752  76.3327248  78.8916104  42.5189752  77.5017248  80.4086104
  42.0029752  78.9937248  82.1646104  39.7529752  79.5007248  82.6346104
  38.0159752  78.5327248  81.3776104  38.5269752  77.0497248  79.6096104
  41.7589752  76.1207248  78.6916104  31.1659752  85.5927248  86.4196104
  30.9349752  85.5997248  85.0436104  31.8089752  86.2677248  84.2016104
  32.9069752  86.9217248  84.7416104  33.1409752  86.9137248  86.1096104
  32.2649752  86.2497248  86.9566104  30.3479752  84.9737248  87.2096104
  30.1649752  85.1377248  84.6776104  31.6549752  86.2787248  83.2436104
  33.5199752  87.3907248  84.1546104  33.9149752  87.3717248  86.4726104
  32.4189752  86.2447248  87.9146104  29.5839752  84.5187248  86.8476104
  69.3829752  40.4247248  90.8096104  68.6239752  40.6037248  89.6536104
  67.8769752  39.5527248  89.1486104  67.8939752  38.3317248  89.8066104
  68.6459752  38.1497248  90.9586104  69.3989752  39.2007248  91.4636104
  70.0879752  41.4047248  91.2796104  68.6199752  41.4637248  89.2036104
  67.3479752  39.6687248  88.3446104  67.3719752  37.5927248  89.4556104
  68.6439752  37.2917248  91.4096104  69.9319752  39.0797248  92.2656104
  70.0849752  42.2547248  90.8336104  61.1949752  83.6387248  15.8386104
  60.0059752  83.5997248  16.5676104  59.9889752  84.0397248  17.8816104
  61.1589752  84.5147248  18.4536104  62.3429752  84.5577248  17.7306104
  62.3639752  84.1137248  16.4156104  61.2149752  83.2237248  14.6126104
  59.1939752  83.2667248  16.1566104  59.1669752  84.0147248  18.3956104
  61.1509752  84.8227248  19.3746104  63.1529752  84.8967248  18.1426104
  63.1889752  84.1347248  15.9056104  60.4109752  82.8917248  14.2046104
  92.3219752  99.2747248  34.2926104  93.3279752  98.8697248  33.4156104
  94.5609752  98.4797248  33.9126104  94.7769752  98.4977248  35.2826104
  93.7779752  98.8977248  36.1586104  92.5429752  99.2927248  35.6626104
  91.1709752  99.6447248  33.8296104  93.1649752  98.8597248  32.4586104
  95.2669752  98.1987248  33.3096104  95.6399752  98.2267248  35.6336104
  93.9409752  98.9007248  37.1146104  91.8409752  99.5787248  36.2676104
  91.0099752  99.6377248  32.8826104 118.8889752  42.2047248  71.5016104
 118.2879752  41.3297248  70.5966104 118.7909752  41.2147248  69.3106104
 119.8909752  41.9747248  68.9426104 120.4929752  42.8447248  69.8406104
 119.9879752  42.9647248  71.1286104 118.4159752  42.3177248  72.7026104
 117.5199752  40.8017248  70.8666104 118.3789752  40.6097248  68.6756104
 120.2459752  41.8977248  68.0426104 121.2639752  43.3667248  69.5706104
 120.3989752  43.5747248  71.7606104 117.6549752  41.7977248  72.9696104
  58.1199752 106.1507248  25.7796104  58.6109752 106.4637248  27.0466104
  59.4279752 105.5647248  27.7116104  59.7489752 104.3597248  27.1016104
  59.2639752 104.0457248  25.8396104  58.4409752 104.9427248  25.1746104
  57.3499752 106.9867248  25.1586104  58.3809752 107.3097248  27.4626104
  59.7729752 105.7737248  28.5936104  60.3209752 103.7277248  27.5646104
  59.4999752 103.2017248  25.4246104  58.0929752 104.7287248  24.2946104
  57.1199752 107.8237248  25.5706104 112.1949752  82.1397248 105.7226104
 112.3239752  83.2337248 104.8666104 112.0199752  83.0967248 103.5216104
 111.5899752  81.8667248 103.0456104 111.4579752  80.7767248 103.8946104
 111.7649752  80.9107248 105.2416104 112.4829752  82.2647248 106.9796104
 112.6239752  84.0887248 105.2116104 112.1079752  83.8507248 102.9196104
 111.3769752  81.7667248 102.1046104 111.1509752  79.9247248 103.5486104
 111.6809752  80.1527248 105.8406104 112.7829752  83.1097248 107.3206104
  43.3559752  93.4397248  91.6506104  42.1739752  93.0537248  91.0166104
  42.2269752  92.2797248  89.8696104  43.4619752  91.8957248  89.3666104
  44.6399752  92.2757248  89.9956104  44.5889752  93.0547248  91.1426104
  43.3079752  94.1687248  92.7196104  41.3169752  93.3267248  91.3796104
  41.4109752  92.0087248  89.4226104  43.5029752  91.3537248  88.5626104
  45.4949752  91.9967248  89.6346104  45.4079752  93.3297248  91.5846104
  42.4599752  94.4407248  93.0776104  36.6479752  75.1857248 119.7016104
  35.5929752  75.6757248 120.4706104  35.8429752  76.5857248 121.4846104
  37.1469752  76.9987248 121.7186104  38.1989752  76.5157248 120.9536104
  37.9509752  75.5997248 119.9406104  36.4169752  74.3297248 118.7576104
  34.6859752  75.3797248 120.2966104  35.1159752  76.9307248 122.0246104
  37.3249752  77.6367248 122.4286104  39.1039752  76.8167248 121.1266104
  38.6819752  75.2527248 119.4056104  35.5189752  74.0347248 118.5856104
  37.4219752  64.9037248 110.7666104  38.2499752  65.5877248 109.8756104
  38.0119752  65.5077248 108.5136104  36.9479752  64.7457248 108.0536104
  36.1209752  64.0657248 108.9366104  36.3599752  64.1407248 110.3016104
  37.6459752  64.9717248 112.0406104  38.9899752  66.1177248 110.2096104
  38.5839752  65.9787248 107.8876104  36.7789752  64.6867248 107.0996104
  35.3779752  63.5407248 108.6016104  35.7899752  63.6637248 110.9256104
  38.3799752  65.4957248 112.3706104  84.0159752 109.0867248 116.9666104
  83.0589752 108.6497248 117.8816104  83.4579752 108.0517248 119.0666104
  84.8119752 107.8977248 119.3256104  85.7679752 108.3337248 118.4186104
  85.3699752 108.9287248 117.2296104  83.6449752 109.6397248 115.8566104
  82.1149752 108.7637248 117.6896104  82.7979752 107.7447248 119.7066104
  85.0949752 107.4787248 120.1536104  86.7109752 108.2227248 118.6156104
  86.0319752 109.2307248 116.5886104  82.7109752 109.7517248 115.6646104
  53.7189752 112.2697248 113.6786104  54.8879752 112.4447248 114.4186104
  54.8589752 112.3107248 115.7966104  53.6599752 112.0037248 116.4236104
  52.4949752 111.8267248 115.6906104  52.5209752 111.9647248 114.3106104
  53.7419752 112.3997248 112.3906104  55.7209752 112.6577248 113.9686104
  55.6669752 112.4317248 116.3186104  53.6359752 111.9097248 117.3886104
  51.6649752 111.6077248 116.1426104  51.7089752 111.8477248 113.7916104
  54.5659752 112.6137248 111.9446104  47.7989752  81.3157248 112.6876104
  48.1869752  81.0817248 111.3686104  49.1409752  81.8927248 110.7756104
  49.6989752  82.9297248 111.5086104  49.3169752  83.1647248 112.8216104
  48.3589752  82.3567248 113.4166104  46.9029752  80.5627248 113.2426104
  47.7899752  80.3517248 110.8676104  49.4149752  81.7367248 109.8586104
  50.3669752  83.5007248 111.0956104  49.7189752  83.8917248 113.3226104
  48.0819752  82.5177248 114.3326104  46.5089752  79.8417248 112.7456104
  32.9739752  86.8227248  45.9816104  31.8939752  86.1737248  46.5796104
  30.8929752  85.6307248  45.7916104  30.9819752  85.7407248  44.4116104
  32.0559752  86.3827248  43.8126104  33.0579752  86.9317248  44.6006104
  33.9079752  87.3367248  46.7166104  31.8439752  86.1027248  47.5456104
  30.1379752  85.1797248  46.1996104  30.2819752  85.3617248  43.8556104
  32.1069752  86.4477248  42.8456104  33.8099752  87.3877248  44.1896104
  33.8579752  87.2677248  47.6736104 114.3859752 100.1547248  54.4096104
 113.8679752  99.3047248  55.3866104 113.9909752  99.6367248  56.7256104
 114.6289752 100.8177248  57.0766104 115.1429752 101.6677248  56.1066104
 115.0259752 101.3347248  54.7646104 114.2769752  99.8427248  53.1576104
 113.4229752  98.4827248  55.1296104 113.6349752  99.0507248  57.4116104
 114.7169752 101.0537248  58.0136104 115.5829752 102.4917248  56.3666104
 115.3869752 101.9197248  54.0816104 113.8389752  99.0277248  52.9026104
  77.2309752 131.1677248  80.0016104  76.0079752 130.7547248  80.5306104
  75.3769752 131.5267248  81.4916104  75.9729752 132.7057248  81.9136104
  77.1879752 133.1217248  81.3886104  77.8249752 132.3477248  80.4286104
  77.8259752 130.4447248  79.1066104  75.6009752 129.9287248  80.2256104
  74.5269752 131.2457248  81.8656104  75.5329752 133.2487248  82.5876104
  77.5909752 133.9507248  81.6896104  78.6769752 132.6287248  80.0596104
  77.4249752 129.6257248  78.8066104  88.2929752 105.8417248  44.9506104
  87.3059752 106.0737248  45.9086104  86.4279752 105.0587248  46.2536104
  86.5459752 103.8207248  45.6386104  87.5289752 103.5857248  44.6876104
  88.4069752 104.6017248  44.3366104  89.1119752 106.7897248  44.6226104
  87.2349752 106.9427248  46.3326104  85.7379752 105.2127248  46.9176104
  85.9319752 103.1087248  45.8776104  87.6019752 102.7137248  44.2686104
  89.0929752 104.4467248  43.6686104  89.0399752 107.6517248  45.0396104
  62.9269752 112.0847248  68.0916104  62.2659752 112.9397248  68.9736104
  62.2509752 112.6557248  70.3286104  62.8989752 111.5197248  70.7916104
  63.5599752 110.6677248  69.9176104  63.5729752 110.9477248  68.5586104
  62.9379752 112.3447248  66.8236104  61.8179752 113.7317248  68.6376104
  61.7919752 113.2437248  70.9486104  62.8899752 111.3167248  71.7406104
  64.0129752 109.8797248  70.2566104  64.0279752 110.3537248  67.9406104
  62.4919752 113.1277248  66.4906104  43.9299752  94.2527248  83.7526104
  43.0679752  94.0507248  84.8306104  43.5819752  93.6967248  86.0676104
  44.9529752  93.5487248  86.2156104  45.8139752  93.7517248  85.1466104
  45.3019752  94.1017248  83.9056104  43.4519752  94.5787248  82.5946104
  42.1109752  94.1587248  84.7146104  42.9889752  93.5527248  86.8216104
  45.3159752  93.2997248  87.0806104  46.7709752  93.6487248  85.2656104
  45.8959752  94.2397248  83.1516104  42.5039752  94.6827248  82.4786104
  50.5019752  31.5037248  40.2106104  50.7599752  31.2997248  41.5666104
  49.7249752  30.9627248  42.4226104  48.4409752  30.8307248  41.9156104
  48.1799752  31.0307248  40.5666104  49.2149752  31.3727248  39.7076104
  51.4679752  31.8247248  39.4096104  51.6629752  31.3937248  41.9086104
  49.8959752  30.8197248  43.3666104  47.7129752  30.5957248  42.5126104
  47.2779752  30.9307248  40.2256104  49.0409752  31.5197248  38.7646104
  52.3609752  31.9197248  39.7486104 105.3909752  34.5227248  48.7066104
 104.4399752  33.5127248  48.5576104 104.3389752  32.5147248  49.5116104
 105.1899752  32.5347248  50.6076104 106.1349752  33.5387248  50.7606104
 106.2409752  34.5377248  49.8036104 105.4899752  35.4547248  47.8126104
 103.8499752  33.5107248  47.7876104 103.6819752  31.8077248  49.4156104
 105.1219752  31.8357248  51.2776104 106.7199752  33.5427248  51.5336104
 106.9029752  35.2407248  49.8996104 104.9079752  35.4507248  47.0486104
  98.4389752  34.7957248  53.7466104  97.4269752  35.4087248  53.0076104
  97.3019752  35.1407248  51.6546104  98.1889752  34.2607248  51.0526104
  99.1949752  33.6467248  51.7846104  99.3249752  33.9167248  53.1396104
  98.5609752  35.0487248  55.0106104  96.8119752  36.0217248  53.4406104
  96.6029752  35.5647248  51.1336104  98.1049752  34.0717248  50.1046104
  99.8049752  33.0297248  51.3506104 100.0299752  33.4957248  53.6576104
  97.9539752  35.6567248  55.4386104 120.7879752  38.8247248 101.3746104
 121.4209752  38.3217248 100.2376104 121.2199752  38.9297248  99.0096104
 120.3879752  40.0367248  98.9286104 119.7589752  40.5417248 100.0576104
 119.9549752  39.9317248 101.2886104 120.9709752  38.2537248 102.5226104
 122.0019752  37.5477248 100.3076104 121.6549752  38.5847248  98.2146104
 120.2449752  40.4647248  98.0706104 119.1829752  41.3197248  99.9866104
 119.5139752  40.2757248 102.0816104 121.5429752  37.4867248 102.5916104
 120.0799752  72.6947248  79.7306104 120.9109752  71.5857248  79.5716104
 122.1539752  71.5627248  80.1826104 122.5539752  72.6477248  80.9476104
 121.7289752  73.7517248  81.1106104 120.4849752  73.7797248  80.4966104
 118.9189752  72.7217248  79.1566104 120.6189752  70.8327248  79.0346104
 122.7379752  70.7957248  80.0756104 123.4249752  72.6347248  81.3766104
 122.0209752  74.5007248  81.6526104 119.9049752  74.5497248  80.6006104
 118.6309752  71.9767248  78.6226104  92.1559752 120.7127248 106.4336104
  91.1079752 121.5017248 106.9066104  90.8619752 122.7387248 106.3336104
  91.6659752 123.1747248 105.2906104  92.7079752 122.3917248 104.8146104
  92.9589752 121.1537248 105.3906104  92.3909752 119.5587248 106.9716104
  90.5519752 121.1857248 107.6356104  90.1369752 123.2947248 106.6576104
  91.4979752 124.0407248 104.8876104  93.2599752 122.7077248 104.0826104
  93.6889752 120.6027248 105.0676104  91.8419752 119.2457248 107.6946104
  32.3409752  49.4387248  78.7086104  31.3329752  49.8717248  79.5696104
  31.6409752  50.2097248  80.8766104  32.9549752  50.1137248  81.3116104
  33.9609752  49.6857248  80.4566104  33.6549752  49.3417248  79.1476104
  32.0549752  49.1157248  77.4876104  30.4179752  49.9357248  79.2536104
  30.9459752  50.5107248  81.4826104  33.1739752  50.3487248  82.2266104
  34.8759752  49.6277248  80.7736104  34.3509752  49.0367248  78.5456104
  31.1489752  49.1777248  77.1746104  97.1629752  92.6907248 120.9366104
  96.5609752  92.9997248 119.7166104  96.9179752  92.3027248 118.5746104
  97.8739752  91.3007248 118.6626104  98.4739752  90.9887248 119.8746104
  98.1199752  91.6887248 121.0196104  96.8349752  93.3447248 122.0046104
  95.8929752  93.7017248 119.6686104  96.5059752  92.5127248 117.7226104
  98.1269752  90.8107248 117.8636104  99.1369752  90.2827248 119.9216104
  98.5389752  91.4797248 121.8696104  96.1749752  94.0407248 121.9566104
  69.1779752  48.0647248  36.8906104  68.3299752  47.8177248  35.8116104
  67.4549752  46.7447248  35.8536104  67.4359752  45.9287248  36.9746104
  68.2779752  46.1727248  38.0516104  69.1579752  47.2447248  38.0096104
  70.0009752  49.0647248  36.8506104  68.3509752  48.3967248  35.0336104
  66.8629752  46.5647248  35.1076104  66.8259752  45.1747248  37.0076104
  68.2499752  45.5957248  38.8306104  69.7529752  47.4187248  38.7556104
  70.0239752  49.6367248  36.0796104  47.7489752  81.7527248  74.1306104
  47.3609752  82.7077248  75.0706104  46.2379752  83.4847248  74.8426104
  45.5109752  83.2997248  73.6746104  45.8919752  82.3497248  72.7376104
  47.0199752  81.5727248  72.9626104  48.8029752  81.0297248  74.3396104
  47.8769752  82.8267248  75.8836104  45.9619752  84.1507248  75.4906104
  44.7239752  83.8427248  73.5116104  45.3719752  82.2287248  71.9286104
  47.2969752  80.9107248  72.3106104  49.3149752  81.1487248  75.1436104
  75.4209752  30.8797248  63.2246104  74.3739752  31.5437248  62.5856104
  73.0689752  31.1267248  62.7846104  72.8209752  30.0497248  63.6226104
  73.8599752  29.3877248  64.2626104  75.1689752  29.8007248  64.0616104
  76.6429752  31.2647248  63.0356104  74.5599752  32.2967248  62.0026104
  72.3349752  31.5827248  62.3426104  71.9079752  29.7547248  63.7636104
  73.6709752  28.6387248  64.8496104  75.9009752  29.3397248  64.5006104
  76.8279752  32.0087248  62.4566104  76.2949752  63.6227248  24.6656104
  75.4939752  64.7447248  24.4506104  75.1559752  65.1137248  23.1586104
  75.6219752  64.3577248  22.0936104  76.4169752  63.2397248  22.3026104
  76.7599752  62.8697248  23.5956104  76.6159752  63.2787248  25.8716104
  75.1739752  65.2647248  25.2036104  74.6009752  65.8927248  23.0006104
  75.3879752  64.6137248  21.1876104  76.7309752  62.7177248  21.5486104
  77.3199752  62.0927248  23.7506104  76.3009752  63.7947248  26.6176104
  33.0159752  91.0887248  44.7676104  31.7379752  91.6157248  44.5826104
  31.1489752  91.5727248  43.3296104  31.8419752  91.0007248  42.2726104
  33.1129752  90.4737248  42.4536104  33.7069752  90.5197248  43.7066104
  33.5709752  91.1337248  45.9366104  31.2619752  92.0117248  45.3296104
  30.2609752  91.9377248  43.1916104  31.4329752  90.9697248  41.3936104
  33.5849752  90.0727248  41.7066104  34.5979752  90.1587248  43.8406104
  33.1009752  91.5277248  46.6756104 120.0109752 108.9087248  58.4006104
 121.3739752 108.8197248  58.6826104 121.8779752 109.3987248  59.8356104
 121.0149752 110.0597248  60.6976104 119.6569752 110.1477248  60.4216104
 119.1499752 109.5717248  59.2646104 119.5379752 108.3727248  57.3206104
 121.9669752 108.3547248  58.0736104 122.8249752 109.3427248  60.0386104
 121.3649752 110.4667248  61.5056104 119.0649752 110.6087248  61.0346104
 118.2039752 109.6337248  59.0616104 120.1249752 107.9137248  56.7156104
  36.6929752  35.5697248  78.2886104  35.3649752  35.2347248  78.0206104
  35.0759752  34.1047248  77.2736104  36.1169752  33.3187248  76.8026104
  37.4389752  33.6467248  77.0686104  37.7309752  34.7807248  77.8126104
  36.9649752  36.6287248  78.9816104  34.6459752  35.7917248  78.3576104
  34.1559752  33.8657248  77.0826104  35.9179752  32.5267248  76.2776104
  38.1559752  33.0857248  76.7356104  38.6529752  35.0207248  77.9986104
  36.2539752  37.1817248  79.3126104  66.2399752  70.8387248 122.8766104
  67.5799752  70.6127248 123.1926104  68.2279752  71.4457248 124.0886104
  67.5299752  72.4987248 124.6626104  66.1959752  72.7257248 124.3536104
  65.5459752  71.8937248 123.4526104  65.6339752  70.0637248 122.0346104
  68.0569752  69.8727248 122.7856104  69.1589752  71.2967248 124.3126104
  67.9809752  73.0847248 125.2906104  65.7199752  73.4627248 124.7656104
  64.6159752  72.0497248 123.2256104  66.1069752  69.3327248 121.6296104
 132.3559752  77.2217248  51.3796104 132.5749752  77.3627248  52.7496104
 131.5619752  77.0607248  53.6446104 130.3389752  76.6197248  53.1616104
 130.1169752  76.4757248  51.7986104 131.1299752  76.7817248  50.8996104
 133.2999752  77.5087248  50.5406104 133.4349752  77.6707248  53.0756104
 131.7049752  77.1577248  54.5986104 129.6259752  76.4087248  53.7856104
 129.2589752  76.1627248  51.4756104 130.9809752  76.6887248  49.9456104
 134.1509752  77.8157248  50.8626104  54.5739752  83.7567248 132.1896104
  53.6269752  83.2267248 131.3146104  52.4609752  82.6697248 131.8146104
  52.2539752  82.6477248 133.1856104  53.1929752  83.1767248 134.0596104
  54.3629752  83.7317248 133.5616104  55.6669752  84.2737248 131.7256104
  53.7829752  83.2497248 130.3576104  51.7979752  82.2977248 131.2126104
  51.4389752  82.2577248 133.5386104  53.0319752  83.1577248 135.0156104
  55.0269752  84.0977248 134.1666104  55.8229752  84.2937248 130.7776104
 105.9669752  40.9717248  89.7956104 104.6829752  41.2527248  89.3286104
 104.4509752  41.3547248  87.9666104 105.5049752  41.1737248  87.0836104
 106.7839752  40.8907248  87.5436104 107.0199752  40.7927248  88.9076104
 106.1879752  40.8817248  91.0686104 103.9539752  41.3767248  89.9566104
 103.5619752  41.5517248  87.6346104 105.3459752  41.2447248  86.1286104
 107.5099752  40.7627248  86.9146104 107.9119752  40.6007248  89.2376104
 105.4669752  41.0057248  91.6896104  97.5829752  63.9257248 112.9506104
  96.3599752  64.5947248 113.0046104  95.2459752  63.9537248 113.5206104
  95.3639752  62.6497248 113.9786104  96.5789752  61.9817248 113.9286104
  97.6959752  62.6197248 113.4076104  98.6249752  64.5207248 112.4636104
  96.2909752  65.5067248 112.6826104  94.3919752  64.4117248 113.5606104
  94.5849752  62.1977248 114.3396104  96.6479752  61.0717248 114.2566104
  98.5479752  62.1577248 113.3646104  98.5559752  65.4227248 112.1416104
 109.4039752  64.7247248 130.9436104 109.4299752  66.0987248 131.1806104
 109.6839752  66.9747248 130.1386104 109.9089752  66.4677248 128.8666104
 109.8809752  65.1017248 128.6256104 109.6309752  64.2217248 129.6696104
 109.1719752  63.9037248 131.9176104 109.2709752  66.4407248 132.0746104
 109.7059752  67.9307248 130.2956104 110.0879752  67.0787248 128.1336104
 110.0349752  64.7617248 127.7296104 109.6159752  63.2647248 129.5106104
 109.0169752  64.2417248 132.8026104  45.3049752 107.0597248 105.8156104
  45.6909752 108.0227248 106.7466104  46.6229752 107.7057248 107.7206104
  47.1609752 106.4277248 107.7546104  46.7809752 105.4667248 106.8286104
  45.8439752 105.7807248 105.8536104  44.4289752 107.3517248 104.9066104
  45.3089752 108.9137248 106.7116104  46.8969752 108.3697248 108.3726104
  47.8139752 106.2017248 108.4366104  47.1689752 104.5787248 106.8616104
  45.5689752 105.1137248 105.2066104  44.0489752 108.2327248 104.8736104
  79.4799752  60.2977248 117.8906104  80.2589752  60.8267248 118.9196104
  79.9539752  60.5317248 120.2386104  78.8719752  59.7087248 120.5166104
  78.0959752  59.1777248 119.4956104  78.3979752  59.4757248 118.1736104
  79.7609752  60.5767248 116.6576104  81.0139752  61.4007248 118.7126104
  80.4889752  60.8967248 120.9596104  78.6549752  59.5007248 121.4386104
  77.3459752  58.6007248 119.7046104  77.8569752  59.1137248 117.4546104
  80.5059752  61.1457248 116.4526104  75.2749752 113.0357248  59.2056104
  74.7979752 113.0287248  57.8946104  74.5059752 111.8257248  57.2736104
  74.6919752 110.6397248  57.9686104  75.1639752 110.6427248  59.2736104
  75.4619752 111.8467248  59.8966104  75.5549752 114.1587248  59.7866104
  74.6709752 113.8647248  57.4196104  74.1749752 111.8127248  56.3616104
  74.4889752 109.7957248  57.5356104  75.2849752 109.8057248  59.7486104
  75.7979752 111.8567248  60.8076104  75.4309752 114.9857248  59.3156104
  91.3549752  96.4687248  37.3366104  91.2389752  96.4087248  35.9476104
  90.2199752  97.0977248  35.3106104  89.3259752  97.8397248  36.0676104
  89.4389752  97.9037248  37.4496104  90.4559752  97.2117248  38.0906104
  92.3029752  95.8217248  37.9356104  91.8719752  95.8877248  35.4296104
  90.1319752  97.0597248  34.3456104  88.6099752  98.3227248  35.6236104
  88.8089752  98.4307248  37.9646104  90.5389752  97.2467248  39.0566104
  92.9279752  95.3027248  37.4226104  40.1329752  66.4327248 114.4516104
  41.3689752  66.1387248 115.0276104  41.4429752  65.8087248 116.3706104
  40.2799752  65.7747248 117.1266104  39.0479752  66.0637248 116.5566104
  38.9719752  66.3997248 115.2116104  40.0619752  66.7477248 113.1976104
  42.1749752  66.1647248 114.4886104  42.2989752  65.6047248 116.7786104
  40.3289752  65.5447248 118.0676104  38.2429752  66.0317248 117.0966104
  38.1149752  66.6087248 114.8076104  40.8599752  66.7757248 112.6636104
  50.5659752 121.6247248  96.6166104  50.1389752 122.8567248  97.1116104
  49.3879752 122.9097248  98.2746104  49.0719752 121.7307248  98.9326104
  49.4969752 120.5027248  98.4446104  50.2459752 120.4467248  97.2776104
  51.2629752 121.5717248  95.5266104  50.3669752 123.6747248  96.6436104
  49.0859752 123.7617248  98.6246104  48.5459752 121.7637248  99.7476104
  49.2719752 119.6867248  98.9186104  50.5419752 119.5917248  96.9266104
  51.4869752 122.3807248  95.0606104  46.2729752 116.3957248 115.7176104
  45.2789752 116.7327248 114.7986104  45.3039752 116.1897248 113.5246104
  46.3239752 115.3147248 113.1806104  47.3129752 114.9747248 114.0916104
  47.2919752 115.5207248 115.3676104  46.2549752 116.9057248 116.9076104
  44.5709752 117.3447248 115.0526104  44.6179752 116.4207248 112.8796104
  46.3449752 114.9327248 112.2886104  48.0169752 114.3577248 113.8386104
  47.9839752 115.2927248 116.0096104  45.5549752 117.5147248 117.1576104
  44.1089752  79.9067248 123.3156104  43.2259752  79.4837248 124.3086104
  43.1869752  80.1467248 125.5246104  44.0299752  81.2267248 125.7356104
  44.9089752  81.6527248 124.7496104  44.9529752  80.9877248 123.5316104
  44.1519752  79.2857248 122.1796104  42.6399752  78.7277248 124.1486104
  42.5769752  79.8577248 126.2206104  44.0059752  81.6927248 126.5866104
  45.4889752  82.4127248 124.9096104  45.5679752  81.2757248 122.8396104
  43.5739752  78.5357248 122.0216104  81.7329752  94.2047248 122.9496104
  81.9109752  95.1907248 121.9796104  82.2039752  94.8297248 120.6746104
  82.3159752  93.4857248 120.3516104  82.1369752  92.5017248 121.3136104
  81.8479752  92.8607248 122.6216104  81.4649752  94.5407248 124.1716104
  81.8289752  96.1277248 122.2176104  82.3299752  95.5097248 119.9946104
  82.5209752  93.2297248 119.4386104  82.2139752  91.5657248 121.0716104
  81.7269752  92.1787248 123.3016104  81.3859752  95.4677248 124.4076104
 130.1629752  53.2197248 102.6346104 129.0019752  53.3027248 101.8656104
 129.0559752  53.0507248 100.5046104 130.2699752  52.7167248  99.9246104
 131.4269752  52.6297248 100.6856104 131.3769752  52.8857248 102.0486104
 130.1159752  53.4597248 103.9056104 128.1579752  53.5367248 102.2836104
 128.2529752  53.1087248  99.9636104 130.3119752  52.5407248  98.9706104
 132.2689752  52.3907248 100.2666104 132.1819752  52.8337248 102.5876104
 129.2809752  53.6937248 104.3196104  84.5299752 103.2727248 121.5346104
  83.6169752 103.8877248 120.6776104  82.8269752 104.9267248 121.1426104
  82.9589752 105.3427248 122.4596104  83.8689752 104.7357248 123.3136104
  84.6579752 103.6917248 122.8516104  85.2649752 102.2977248 121.1036104
  83.5339752 103.5887248 119.7586104  82.1889752 105.3587248 120.5536104
  82.4069752 106.0707248 122.7876104  83.9529752 105.0397248 124.2306104
  85.2919752 103.2577248 123.4446104  85.1819752 101.9997248 120.1946104
  25.1619752  69.5957248 115.5896104  25.9719752  69.0197248 116.5676104
  25.9449752  67.6497248 116.7666104  25.1089752  66.8667248 115.9836104
  24.3029752  67.4357248 115.0076104  24.3249752  68.8097248 114.8096104
  25.1809752  70.8777248 115.4066104  26.5529752  69.5777248 117.1076104
  26.5049752  67.2417248 117.4446104  25.0869752  65.9067248 116.1206104
  23.7269752  66.8757248 114.4656104  23.7599752  69.2157248 114.1336104
  25.7539752  71.4307248 115.9416104 108.2889752  88.0297248 120.1586104
 106.8999752  88.1317248 120.2466104 106.0979752  87.2277248 119.5696104
 106.6909752  86.2287248 118.8126104 108.0719752  86.1217248 118.7246104
 108.8779752  87.0287248 119.3986104 109.0409752  88.8767248 120.7856104
 106.4969752  88.8347248 120.7796104 105.1319752  87.2937248 119.6236104
 106.1319752  85.5947248 118.3366104 108.4729752  85.4147248 118.1946104
 109.8439752  86.9647248 119.3376104 108.6419752  89.5737248 121.3126104
 138.3839752  77.5297248  74.0436104 138.3579752  77.0397248  75.3486104
 137.2109752  76.4347248  75.8356104 136.0999752  76.3257248  75.0126104
 136.1219752  76.8097248  73.7126104 137.2689752  77.4197248  73.2236104
 139.4539752  78.1007248  73.5876104 139.1419752  77.1207248  75.9146104
 137.1839752  76.0927248  76.7426104 135.2939752  75.9027248  75.3506104
 135.3399752  76.7217248  73.1466104 137.2909752  77.7657248  72.3176104
 140.2289752  78.1827248  74.1486104 114.0009752  53.7937248  37.2686104
 113.5669752  53.9937248  35.9586104 112.2139752  54.1307248  35.6936104
 111.3069752  54.0677248  36.7416104 111.7359752  53.8717248  38.0466104
 113.0899752  53.7297248  38.3146104 115.2649752  53.6587248  37.5186104
 114.2099752  54.0367248  35.2346104 111.9039752  54.2687248  34.7846104
 110.3589752  54.1637248  36.5586104 111.0909752  53.8347248  38.7696104
 113.3969752  53.5867248  39.2236104 115.9019752  53.6997248  36.8016104
  47.9119752  64.4317248  45.1886104  48.8749752  63.8527248  44.3626104
  48.9649752  64.2347248  43.0336104  48.0899752  65.1937248  42.5436104
  47.1319752  65.7737248  43.3626104  47.0369752  65.3887248  44.6926104
  47.8229752  64.0717248  46.4296104  49.4819752  63.1847248  44.7176104
  49.6309752  63.8367248  42.4526104  48.1499752  65.4627248  41.6136104
  46.5299752  66.4457248  43.0066104  46.3659752  65.7857248  45.2706104
  48.4209752  63.4087248  46.7806104  75.4369752 102.9217248  38.8966104
  74.9639752 104.2187248  39.0916104  75.5109752 105.0107248  40.0876104
  76.5289752 104.4977248  40.8796104  77.0039752 103.2087248  40.6876104
  76.4539752 102.4117248  39.6926104  74.9219752 102.1777248  37.9706104
  74.2529752 104.5667248  38.5306104  75.1869752 105.9127248  40.2306104
  76.9139752 105.0497248  41.5786104  77.7189752 102.8647248  41.2456104
  76.7759752 101.5067248  39.5556104  74.2169752 102.5197248  37.4166104
  81.2799752  55.2887248  22.0566104  81.2709752  56.5427248  21.4456104
  81.3169752  56.6367248  20.0646104  81.3689752  55.4767248  19.3066104
  81.3749752  54.2267248  19.9106104  81.3339752  54.1307248  21.2946104
  81.2429752  55.1987248  23.3486104  81.2329752  57.3467248  21.9866104
  81.3129752  57.5047248  19.6316104  81.4009752  55.5387248  18.3386104
  81.4069752  53.4247248  19.3676104  81.3439752  53.2607248  21.7246104
  81.2079752  55.9947248  23.8836104 124.7859752 103.3947248  79.8586104
 124.4079752 104.4647248  79.0476104 123.5649752 104.2497248  77.9696104
 123.1069752 102.9657248  77.7126104 123.4789752 101.8987248  78.5186104
 124.3269752 102.1117248  79.5966104 125.5789752 103.5927248  80.8636104
 124.7339752 105.3587248  79.2386104 123.2989752 104.9877248  77.4006104
 122.5169752 102.8117248  76.9576104 123.1469752 101.0077248  78.3296104
 124.5959752 101.3697248  80.1616104 125.9039752 104.4767248  81.0516104
 115.9449752 114.4897248  67.3286104 115.8229752 113.1027248  67.4136104
 116.2849752 112.4377248  68.5376104 116.8619752 113.1657248  69.5676104
 116.9819752 114.5457248  69.4876104 116.5249752 115.2137248  68.3606104
 115.5189752 115.1127248  66.2756104 115.4169752 112.6047248  66.6866104
 116.2049752 111.4737248  68.6036104 117.1869752 112.7027248  70.3556104
 117.3839752 115.0417248  70.2176104 116.6099752 116.1777248  68.2946104
 115.1189752 114.6197248  65.5556104  49.3049752  88.5027248 114.4466104
  50.0209752  89.0747248 113.3946104  49.4879752  89.0727248 112.1156104
  48.2419752  88.5017248 111.9006104  47.5249752  87.9347248 112.9446104
  48.0589752  87.9307248 114.2256104  49.8039752  88.4977248 115.6416104
  50.8899752  89.4717248 113.5576104  49.9799752  89.4667248 111.3786104
  47.8659752  88.4987248 111.0066104  46.6539752  87.5427248 112.7806104
  47.5669752  87.5307248 114.9606104  50.6649752  88.8897248 115.8026104
 122.9089752  46.0757248  62.0996104 122.8919752  47.3537248  62.6586104
 122.9169752  47.5047248  64.0356104 122.9609752  46.3767248  64.8416104
 122.9809752  45.1037248  64.2886104 122.9509752  44.9497248  62.9096104
 122.8789752  45.9327248  60.8126104 122.8629752  48.1357248  62.0846104
 122.9039752  48.3897248  64.4316104 122.9779752  46.4787248  65.8056104
 123.0159752  44.3237248  64.8646104 122.9589752  44.0627248  62.5156104
 122.8479752  46.7057248  60.2446104  68.6679752 119.5267248  71.3916104
  69.2969752 118.3037248  71.1576104  68.8589752 117.4887248  70.1266104
  67.7959752 117.9047248  69.3376104  67.1699752 119.1227248  69.5656104
  67.6039752 119.9377248  70.6016104  69.0719752 120.2867248  72.3586104
  70.0399752 118.0237248  71.7156104  69.2899752 116.6367248  69.9576104
  67.4859752 117.3367248  68.6146104  66.4309752 119.4017248  69.0036104
  67.1679752 120.7877248  70.7706104  69.8059752 120.0097248  72.9126104
 120.8479752  75.8867248  96.3966104 121.2239752  76.3957248  97.6386104
 122.4559752  76.0617248  98.1776104 123.3009752  75.2217248  97.4686104
 122.9309752  74.7137248  96.2306104 121.6959752  75.0447248  95.6906104
 119.6949752  76.1927248  95.8936104 120.6249752  76.9837248  98.1246104
 122.7239752  76.4107248  99.0416104 124.1639752  74.9847248  97.8426104
 123.5349752  74.1317248  95.7436104 121.4279752  74.6897248  94.8286104
 119.0999752  76.7727248  96.3756104  67.4759752  31.4117248  38.5426104
  67.6209752  30.5807248  39.6526104  66.7709752  30.7237248  40.7376104
  65.7819752  31.6957248  40.7006104  65.6329752  32.5227248  39.5956104
  66.4869752  32.3847248  38.5106104  68.2739752  31.2827248  37.5296104
  68.3159752  29.9037248  39.6666104  66.8659752  30.1507248  41.5136104
  65.1859752  31.7997248  41.4586104  64.9349752  33.1957248  39.5826104
  66.3929752  32.9627248  37.7366104  68.9629752  30.6147248  37.5436104
  53.4609752  28.0507248 114.4876104  54.6389752  27.3197248 114.6426104
  55.8429752  27.9807248 114.8216104  55.8579752  29.3677248 114.8466104
  54.6879752  30.0987248 114.6946104  53.4809752  29.4387248 114.5106104
  52.3349752  27.4347248 114.3136104  54.6149752  26.3497248 114.6246104
  56.6659752  27.4807248 114.9286104  56.6989752  29.8347248 114.9706104
  54.7129752  31.0677248 114.7186104  52.6589752  29.9417248 114.3986104
  52.3119752  26.4747248 114.2936104  32.4319752  41.7747248  66.7416104
  33.4869752  42.6777248  66.6166104  34.5339752  42.6457248  67.5226104
  34.5169752  41.7097248  68.5456104  33.4699752  40.8077248  68.6726104
  32.4179752  40.8417248  67.7686104  31.4489752  41.8077248  65.8996104
  33.4879752  43.3267248  65.8956104  35.2709752  43.2707248  67.4426104
  35.2489752  41.6847248  69.1826104  33.4739752  40.1557248  69.3906104
  31.6789752  40.2177248  67.8546104  31.4479752  42.4517248  65.1876104
 128.1849752  77.1697248  83.5246104 128.2839752  78.3207248  82.7426104
 127.9779752  78.2657248  81.3926104 127.5739752  77.0597248  80.8366104
 127.4719752  75.9137248  81.6126104 127.7819752  75.9657248  82.9636104
 128.4749752  77.2177248  84.7856104 128.5649752  79.1577248  83.1426104
 128.0449752  79.0607248  80.8416104 127.3599752  77.0177248  79.8916104
 127.1849752  75.0787248  81.2106104 127.7189752  75.1667248  83.5116104
 128.7569752  78.0457248  85.1816104  28.0919752  88.2977248  96.8616104
  29.1469752  87.8767248  97.6716104  29.3799752  88.5067248  98.8836104
  28.5549752  89.5507248  99.2746104  27.5029752  89.9707248  98.4716104
  27.2709752  89.3447248  97.2556104  27.8769752  87.7137248  95.7256104
  29.7159752  87.1437248  97.3876104  30.1109752  88.2207248  99.4516104
  28.7159752  89.9947248 100.1216104  26.9319752  90.6997248  98.7606104
  26.5409752  89.6357248  96.6866104  28.4409752  86.9897248  95.4436104
  63.5809752 126.4027248  71.2956104  62.5049752 127.1627248  71.7536104
  62.6479752 127.9477248  72.8856104  63.8659752 127.9667248  73.5496104
  64.9389752 127.2137248  73.0956104  64.7979752 126.4227248  71.9636104
  63.4479752 125.6627248  70.2406104  61.6589752 127.1417248  71.2806104
  61.9039752 128.4777248  73.2116104  63.9689752 128.5147248  74.3436104
  65.7859752 127.2397248  73.5666104  65.5419752 125.8887248  71.6426104
  62.6099752 125.6407248  69.7726104 118.6929752  50.5817248 100.1496104
 118.7489752  51.8407248  99.5506104 119.1449752  52.9407248 100.2926104
 119.4829752  52.7727248 101.6276104 119.4309752  51.5217248 102.2266104
 119.0299752  50.4187248 101.4856104 118.3169752  49.5527248  99.4586104
 118.5109752  51.9447248  98.6156104 119.1859752  53.8197248  99.8846104
 119.7609752  53.5407248 102.1506104 119.6749752  51.4187248 103.1596104
 118.9859752  49.5417248 101.8986104 118.0799752  49.6567248  98.5336104
 131.5509752  97.2547248  57.8236104 131.1459752  98.5127248  58.2686104
 130.9079752  98.7227248  59.6166104 131.0779752  97.6727248  60.5076104
 131.4829752  96.4207248  60.0686104 131.7189752  96.2067248  58.7186104
 131.7689752  97.0537248  56.5626104 131.0319752  99.2387248  57.6366104
 130.6239752  99.5937248  59.9346104 130.9109752  97.8167248  61.4526104
 131.6029752  95.6977248  60.7036104 131.9969752  95.3317248  58.4026104
 131.6539752  97.7717248  55.9356104  48.3619752  51.5857248  80.8896104
  47.4279752  52.5957248  81.1166104  47.7449752  53.9097248  80.8146104
  48.9939752  54.2027248  80.2876104  49.9259752  53.1997248  80.0576104
  49.6119752  51.8837248  80.3626104  48.0699752  50.3577248  81.1766104
  46.5569752  52.3787248  81.4846104  47.1009752  54.6187248  80.9706104
  49.2199752  55.1217248  80.0756104  50.7939752  53.4187248  79.6836104
  50.2599752  51.1777248  80.2106104  47.2089752  50.1417248  81.5426104
  55.7969752  21.4587248  79.7836104  57.0089752  21.8157248  79.1926104
  57.0619752  22.0847248  77.8356104  55.9019752  21.9957248  77.0806104
  54.6929752  21.6437248  77.6646104  54.6389752  21.3687248  79.0246104
  55.7469752  21.2017248  81.0526104  57.8139752  21.8757248  79.7316104
  57.9009752  22.3327248  77.4166104  55.9349752  22.1827248  76.1286104
  53.8889752  21.5887248  77.1256104  53.7989752  21.1167248  79.4396104
  56.5429752  21.2587248  81.5856104  42.5859752  65.9407248  42.9046104
  43.3929752  64.8667248  43.2806104  42.8159752  63.7197248  43.8026104
  41.4379752  63.6577248  43.9426104  40.6309752  64.7227248  43.5676104
  41.2069752  65.8737248  43.0486104  43.1239752  67.0147248  42.4216104
  44.3559752  64.9217248  43.1766104  43.3699752  62.9697248  44.0676104
  41.0299752  62.8567248  44.3086104  39.6689752  64.6637248  43.6666104
  40.6509752  66.6257248  42.7886104  44.0769752  67.0707248  42.3206104
  79.7979752  15.3897248  78.8466104  79.9199752  15.9797248  80.1046104
  80.3899752  17.2777248  80.2156104  80.7329752  17.9757248  79.0666104
  80.6119752  17.3937248  77.8126104  80.1449752  16.0917248  77.6996104
  79.3649752  14.1747248  78.7406104  79.6749752  15.4817248  80.9006104
  80.4779752  17.6947248  81.0866104  81.0629752  18.8847248  79.1406104
  80.8519752  17.8947248  77.0186104  80.0629752  15.6747248  76.8276104
  79.1239752  13.6807248  79.5286104  80.9769752 131.1627248  98.6106104
  80.8449752 129.9857248  97.8746104  80.3219752 130.0287248  96.5926104
  79.9379752 131.2497248  96.0576104  80.0699752 132.4237248  96.7856104
  80.5889752 132.3827248  98.0716104  81.4599752 131.1247248  99.8116104
  81.1179752 129.1387248  98.2596104  80.2249752 129.2147248  96.0746104
  79.5709752 131.2837248  95.1596104  79.8009752 133.2707248  96.3966104
  80.6799752 133.1977248  98.5896104  81.7289752 130.2857248 100.1936104
  36.6189752  58.7987248  95.0586104  37.1689752  59.6477248  94.0986104
  38.5429752  59.8067248  94.0246104  39.3549752  59.1137248  94.9106104
  38.8109752  58.2667248  95.8666104  37.4349752  58.1097248  95.9446104
  35.3339752  58.6527248  95.1336104  36.5909752  60.1247248  93.4826104
  38.9339752  60.3957248  93.3606104  40.3179752  59.2237248  94.8626104
  39.3919752  57.7857248  96.4766104  37.0459752  57.5237248  96.6136104
  34.7609752  59.1277248  94.5256104  95.9439752  23.0957248  81.9656104
  96.6049752  23.5457248  83.1096104  96.1879752  23.1177248  84.3596104
  95.1159752  22.2437248  84.4546104  94.4569752  21.7917248  83.3196104
  94.8699752  22.2227248  82.0656104  96.3279752  23.4987248  80.7966104
  97.3549752  24.1557248  83.0296104  96.6409752  23.4267248  85.1596104
  94.8209752  21.9427248  85.3286104  93.7119752  21.1777248  83.4006104
  94.4119752  21.9167248  81.2676104  97.0689752  24.1047248  80.7176104
  94.8149752  28.1587248  92.1956104  93.8089752  27.7807248  91.3066104
  92.5219752  27.5667248  91.7706104  92.2509752  27.7357248  93.1206104
  93.2479752  28.1147248  94.0086104  94.5389752  28.3247248  93.5466104
  96.0199752  28.3537248  91.7646104  94.0109752  27.6667248  90.3646104
  91.8179752  27.3017248  91.1596104  91.3499752  27.5867248  93.4496104
  93.0429752  28.2327248  94.9486104  95.2439752  28.5847248  94.1616104
  96.2209752  28.2387248  90.8326104 102.6719752  86.7897248  48.3346104
 103.2479752  86.4707248  47.1046104 102.5469752  86.7057248  45.9336104
 101.2769752  87.2587248  46.0016104 100.7009752  87.5797248  47.2226104
 101.3989752  87.3417248  48.3976104 103.3219752  86.5657248  49.4316104
 104.1369752  86.0857248  47.0706104 102.9399752  86.4847248  45.0746104
 100.7829752  87.4237248  45.1826104  99.8139752  87.9697248  47.2546104
 101.0019752  87.5577248  49.2566104 104.2019752  86.1827248  49.3976104
  87.7989752  23.8987248 102.0536104  88.1019752  25.1797248 101.5926104
  88.2389752  25.4097248 100.2336104  88.0699752  24.3567248  99.3466104
  87.7649752  23.0807248  99.8006104  87.6319752  22.8467248 101.1626104
  87.6769752  23.6797248 103.3236104  88.2169752  25.9077248 102.2226104
  88.4509752  26.2967248  99.9056104  88.1649752  24.5137248  98.3946104
  87.6449752  22.3547248  99.1686104  87.4249752  21.9567248 101.4886104
  87.7919752  24.3997248 103.9476104 104.9729752  92.7447248  25.5796104
 105.6349752  93.4737248  24.5906104 104.9469752  94.4297248  23.8626104
 103.6029752  94.6497248  24.1296104 102.9419752  93.9277248  25.1136104
 103.6279752  92.9657248  25.8416104 105.6129752  91.8457248  26.2576104
 106.5749752  93.3117248  24.4146104 105.3989752  94.9397248  23.1726104
 103.1179752  95.3177248  23.6206104 102.0039752  94.0957248  25.2926104
 103.1719752  92.4537248  26.5276104 106.5429752  91.6837248  26.0816104
  96.7539752  39.5057248  59.5296104  97.2169752  39.8027248  58.2486104
  97.1849752  38.8317248  57.2606104  96.6889752  37.5727248  57.5636104
  96.2239752  37.2737248  58.8366104  96.2589752  38.2437248  59.8286104
  96.7879752  40.4097248  60.4556104  97.5609752  40.6877248  58.0486104
  97.5069752  39.0297248  56.3676104  96.6659752  36.8897248  56.8746104
  95.8759752  36.3897248  59.0326104  95.9419752  38.0407248  60.7226104
  97.1299752  41.2857248  60.2596104  98.4829752  52.6467248  26.8266104
  98.2779752  53.7477248  27.6576104  98.5139752  53.6397248  29.0186104
  98.9539752  52.4297248  29.5356104  99.1609752  51.3327248  28.7126104
  98.9219752  51.4377248  27.3496104  98.2579752  52.7447248  25.5556104
  97.9719752  54.5887248  27.2836104  98.3729752  54.3997248  29.6026104
  99.1189752  52.3497248  30.4886104  99.4729752  50.4947248  29.0876104
  99.0589752  50.6737248  26.7676104  97.9529752  53.5757248  25.1846104
  81.5069752  82.4507248 130.1536104  82.6009752  81.8017248 129.5826104
  82.6769752  80.4187248 129.6156104  81.6579752  79.6977248 130.2186104
  80.5659752  80.3397248 130.7866104  80.4899752  81.7257248 130.7586104
  81.4369752  83.7437248 130.1296104  83.3069752  82.3167248 129.1616104
  83.4349752  79.9597248 129.2216104  81.7079752  78.7287248 130.2446104
  79.8589752  79.8227248 131.2016104  79.7329752  82.1817248 131.1586104
  82.1369752  84.2547248 129.7156104  49.2819752 102.3447248  61.2336104
  48.0109752 102.6007248  60.7186104  47.8449752 102.7957248  59.3576104
  48.9499752 102.7307248  58.5226104  50.2159752 102.4737248  59.0306104
  50.3859752 102.2827248  60.3946104  49.4409752 102.1687248  62.5066104
  47.2449752 102.6427248  61.3126104  46.9649752 102.9757248  58.9916104
  48.8369752 102.8667248  57.5686104  50.9789752 102.4267248  58.4336104
  51.2679752 102.1077248  60.7576104  48.6829752 102.2117248  63.0946104
  31.1269752  92.5257248  75.9456104  30.3529752  91.5437248  76.5636104
  30.0689752  91.6397248  77.9166104  30.5609752  92.7167248  78.6386104
  31.3299752  93.6977248  78.0266104  31.6189752  93.6017248  76.6726104
  31.3989752  92.4357248  74.6826104  30.0139752  90.7957248  76.0476104
  29.5329752  90.9607248  78.3536104  30.3639752  92.7867248  79.5856104
  31.6629752  94.4467248  78.5426104  32.1599752  94.2797248  76.2386104
  31.0649752  91.6937248  74.1716104 100.2109752  68.7517248 104.9726104
 100.1759752  69.6417248 106.0456104 100.2839752  69.1647248 107.3416104
 100.4269752  67.8017248 107.5526104 100.4639752  66.9127248 106.4876104
 100.3509752  67.3877248 105.1886104 100.1039752  69.1947248 103.7606104
 100.0779752  70.5937248 105.8846104 100.2599752  69.7767248 108.0936104
 100.5019752  67.4637248 108.4596104 100.5679752  65.9617248 106.6506104
 100.3709752  66.7727248 104.4386104 100.0039752  70.1367248 103.6006104
 109.1539752  96.0577248 113.1826104 108.9549752  95.2857248 114.3266104
 109.3149752  95.7857248 115.5676104 109.8689752  97.0547248 115.6536104
 110.0659752  97.8267248 114.5176104 109.7099752  97.3267248 113.2726104
 108.8239752  95.5897248 112.0206104 108.5659752  94.4007248 114.2546104
 109.1809752  95.2547248 116.3676104 110.1219752  97.4077248 116.5206104
 110.4499752  98.7137248 114.5926104 109.8499752  97.8577248 112.4736104
 108.4399752  94.7127248 111.9486104  91.9199752  88.0557248  45.1046104
  90.9449752  88.8767248  45.6696104  91.2969752  89.7957248  46.6446104
  92.6219752  89.8847248  47.0466104  93.5959752  89.0707248  46.4846104
  93.2439752  88.1467248  45.5106104  91.5919752  87.1917248  44.1966104
  90.0219752  88.8057248  45.3796104  90.6249752  90.3697248  47.0436104
  92.8719752  90.5267248  47.7296104  94.5189752  89.1467248  46.7726104
  93.9179752  87.5697248  45.1176104  90.6779752  87.1197248  43.9116104
  15.3069752  91.4557248  80.6246104  15.1039752  92.0727248  81.8586104
  16.1889752  92.3777248  82.6646104  17.4669752  92.0637248  82.2276104
  17.6739752  91.4527248  80.9996104  16.5879752  91.1427248  80.1926104
  14.2939752  91.1647248  79.8716104  14.2049752  92.2887248  82.1526104
  16.0559752  92.8047248  83.5246104  18.2299752  92.2757248  82.7906104
  18.5739752  91.2437248  80.7046104  16.7239752  90.7097248  79.3346104
  13.4039752  91.3767248  80.1636104 101.7009752  25.1007248 100.9066104
 102.9819752  24.5527248 100.8346104 103.1399752  23.1817248 100.7176104
 102.0159752  22.3707248 100.6716104 100.7399752  22.9117248 100.7406104
 100.5789752  24.2847248 100.8626104 101.5509752  26.3817248 101.0216104
 103.7599752  25.1307248 100.8666104 104.0269752  22.7927248 100.6686104
 102.1229752  21.4097248 100.5906104  99.9629752  22.3327248 100.7026104
  99.6899752  24.6707248 100.9166104 102.3209752  26.9537248 101.0556104
 102.5609752  58.0707248 114.0856104 101.3139752  57.5437248 114.4196104
 101.0109752  57.2757248 115.7446104 101.9569752  57.5387248 116.7236104
 103.1989752  58.0647248 116.3956104 103.5069752  58.3297248 115.0686104
 102.8489752  58.3157248 112.8466104 100.6589752  57.3657248 113.7266104
 100.1459752  56.9087248 115.9856104 101.7489752  57.3517248 117.6526104
 103.8489752  58.2477248 117.0906104 104.3739752  58.6917248 114.8296104
 102.2019752  58.1377248 112.1596104  35.0479752  63.5137248 100.4456104
  36.2159752  64.2757248 100.4756104  36.1629752  65.6307248 100.1956104
  34.9419752  66.2137248  99.8906104  33.7769752  65.4597248  99.8626104
  33.8279752  64.1007248 100.1376104  35.0959752  62.2447248 100.7016104
  37.0639752  63.8567248 100.6916104  36.9709752  66.1677248 100.2126104
  34.9009752  67.1627248  99.6926104  32.9289752  65.8817248  99.6516104
  33.0189752  63.5647248 100.1146104  35.9359752  61.8297248 100.9136104
 111.7749752  47.2147248  52.6276104 110.9729752  48.1157248  53.3276104
 111.3359752  49.4507248  53.4006104 112.4979752  49.8727248  52.7716104
 113.2969752  48.9797248  52.0716104 112.9379752  47.6417248  52.0006104
 111.4399752  45.9657248  52.5626104 110.1619752  47.8087248  53.7626104
 110.7849752  50.0827248  53.8876104 112.7559752  50.8067248  52.8216104
 114.1039752  49.2907248  51.6326104 113.4939752  47.0097248  51.5176104
 110.6389752  45.6607248  52.9946104  53.5939752 114.4807248  86.1856104
  53.7529752 113.8087248  84.9736104  54.2889752 114.4727248  83.8826104
  54.6619752 115.8027248  84.0126104  54.5069752 116.4737248  85.2176104
  53.9659752 115.8127248  86.3106104  53.0879752 113.8647248  87.2056104
  53.4899752 112.8787248  84.8956104  54.4019752 114.0127248  83.0356104
  55.0369752 116.2707248  83.2496104  54.7759752 117.4017248  85.2946104
  53.8499752 116.2757248  87.1556104  52.8249752 112.9437248  87.1276104
 108.6009752  81.1307248  73.8526104 107.8149752  81.7627248  72.8896104
 106.8919752  81.0307248  72.1616104 106.7619752  79.6707248  72.4046104
 107.5399752  79.0377248  73.3636104 108.4679752  79.7687248  74.0906104
 109.4679752  81.8127248  74.5306104 107.9139752  82.7147248  72.7296104
 106.3429752  81.4627248  71.4886104 106.1169752  79.1537248  71.8956104
 107.4349752  78.0877248  73.5256104 109.0199752  79.3327248  74.7596104
 109.5679752  82.7537248  74.3706104  74.4839752 114.4617248 111.3456104
  73.9819752 115.4407248 110.4886104  74.3669752 116.7617248 110.6506104
  75.2509752 117.0917248 111.6666104  75.7549752 116.1197248 112.5196104
  75.3679752 114.7957248 112.3626104  74.1209752 113.2267248 111.2006104
  73.3639752 115.1977248 109.7816104  74.0209752 117.4487248 110.0596104
  75.5219752 118.0157248 111.7826104  76.3769752 116.3637248 113.2226104
  75.7109752 114.1117248 112.9576104  73.5079752 112.9867248 110.5016104
 100.2849752  51.1967248  22.1526104  99.1879752  52.0097248  21.8686104
  97.9039752  51.5047248  21.9926104  97.7289752  50.1907248  22.4016104
  98.8189752  49.3787248  22.6876104 100.1059752  49.8827248  22.5596104
 101.4859752  51.6657248  22.0316104  99.3229752  52.9277248  21.5846104
  97.1359752  52.0627248  21.7956104  96.8319752  49.8327248  22.4886104
  98.6809752  48.4637248  22.9766104 100.8729752  49.3197248  22.7526104
 101.6209752  52.5737248  21.7486104  73.8549752  85.4357248 128.0126104
  74.6079752  85.3127248 129.1806104  75.7899752  86.0207248 129.3166104
  76.2089752  86.8467248 128.2836104  75.4619752  86.9727248 127.1206104
  74.2789752  86.2617248 126.9806104  72.7519752  84.7697248 127.8816104
  74.3029752  84.7337248 129.8966104  76.3199752  85.9407248 130.1246104
  77.0379752  87.3437248 128.3746104  75.7649752  87.5567248 126.4086104
  73.7539752  86.3397248 126.1686104  72.4509752  84.1947248 128.5886104
  81.0439752  58.8757248  30.1226104  81.5839752  59.6697248  29.1106104
  82.3579752  59.0907248  28.1186104  82.5829752  57.7217248  28.1456104
  82.0449752  56.9277248  29.1486104  81.2739752  57.5067248  30.1466104
  80.3259752  59.4157248  31.0546104  81.4189752  60.6247248  29.1016104
  82.7379752  59.6357248  27.4116104  83.1249752  57.3127248  27.4516104
  82.2069752  55.9717248  29.1526104  80.8989752  56.9597248  30.8556104
  80.1629752  60.3617248  31.0476104 134.4669752  63.6347248  73.3586104
 135.3729752  62.7337248  72.7986104 135.7399752  62.8607248  71.4696104
 135.1989752  63.8897248  70.7116104 134.2999752  64.7897248  71.2656104
 133.9269752  64.6607248  72.5956104 134.1179752  63.5147248  74.5996104
 135.7459752  62.0197248  73.3396104 136.3689752  62.2377248  71.0726104
 135.4539752  63.9807248  69.7796104 133.9329752  65.5057248  70.7246104
 133.2939752  65.2827248  72.9896104 134.4849752  62.8067248  75.1346104
  84.5439752  73.0247248  38.5376104  85.8719752  72.8087248  38.9036104
  86.8879752  73.4827248  38.2456104  86.5659752  74.3677248  37.2266104
  85.2459752  74.5867248  36.8606104  84.2269752  73.9097248  37.5156104
  83.5929752  72.3917248  39.1476104  86.0849752  72.1887248  39.6186104
  87.8139752  73.3377248  38.4936104  87.2749752  74.8407248  36.7636104
  85.0349752  75.2117248  36.1496104  83.3009752  74.0527248  37.2616104
  83.8029752  71.7757248  39.8536104  76.2349752  20.8577248 108.8296104
  75.2169752  21.1117248 107.9106104  73.9649752  21.5027248 108.3576104
  73.7429752  21.6377248 109.7196104  74.7539752  21.3887248 110.6376104
  76.0069752  20.9917248 110.1926104  77.4039752  20.4857248 108.4146104
  75.3849752  21.0147248 106.9596104  73.2519752  21.6797248 107.7246104
  72.8679752  21.9107248 110.0366104  74.5849752  21.4917248 111.5866104
  76.7179752  20.8107248 110.8276104  77.5699752  20.3877248 107.4736104
 124.6469752  86.1407248  63.6686104 123.5329752  86.8787248  64.0696104
 123.0639752  86.7687248  65.3676104 123.7129752  85.9227248  66.2546104
 124.8229752  85.1887248  65.8616104 125.2919752  85.2937248  64.5596104
 125.0839752  86.2367248  62.4536104 123.0889752  87.4677248  63.4396104
 122.2889752  87.2777248  65.6536104 123.3859752  85.8437248  67.1656104
 125.2689752  84.6047248  66.4936104 126.0639752  84.7797248  64.2746104
 124.6429752  86.8187248  61.8296104  37.7469752  70.0497248 116.7406104
  37.6959752  70.4627248 115.4096104  38.7249752  71.2247248 114.8836104
  39.7979752  71.5667248 115.6936104  39.8549752  71.1557248 117.0176104
  38.8219752  70.3957248 117.5476104  36.7819752  69.3417248 117.2356104
  36.9399752  70.2157248 114.8526104  38.6969752  71.5177248 113.9596104
  40.5209752  72.1017248 115.3286104  40.6129752  71.3987248 117.5706104
  38.8499752  70.1087248 118.4746104  36.0339752  69.0987248 116.6856104
  61.3069752  80.8377248 123.5166104  59.9189752  80.9807248 123.5076104
  59.2869752  81.5057248 122.3926104  60.0479752  81.8827248 121.2956104
  61.4279752  81.7387248 121.2996104  62.0639752  81.2167248 122.4176104
  61.8999752  80.3517248 124.5606104  59.3979752  80.7127248 124.2806104
  58.3229752  81.6097248 122.3796104  59.6079752  82.2517248 120.5136104
  61.9469752  82.0027248 120.5236104  63.0289752  81.1187248 122.4306104
  61.3849752  80.0887248 125.3266104  58.4719752  82.9147248  23.5776104
  57.5099752  83.0697248  24.5756104  57.8649752  82.9117248  25.9056104
  59.1779752  82.6007248  26.2256104  60.1379752  82.4477248  25.2356104
  59.7849752  82.6017248  23.9016104  58.1419752  83.0557248  22.3336104
  56.5949752  83.2887248  24.3396104  57.2019752  83.0167248  26.6056104
  59.4289752  82.4887248  27.1556104  61.0539752  82.2347248  25.4746104
  60.4489752  82.4907248  23.2036104  57.2359752  83.2697248  22.0986104
  71.7939752  36.5247248 129.1476104  71.0559752  35.9017248 128.1416104
  71.7089752  35.2367248 127.1176104  73.0959752  35.1997248 127.1086104
  73.8339752  35.8157248 128.1096104  73.1809752  36.4867248 129.1336104
  71.1849752  37.1517248 130.1026104  70.0859752  35.9337248 128.1586104
  71.2029752  34.8017248 126.4136104  73.5569752  34.7347248 126.3926104
  74.8029752  35.7777248 128.0926104  73.6899752  36.9247248 129.8346104
  70.2249752  37.1857248 130.1196104 133.9039752  79.2247248  86.0836104
 133.8539752  77.8677248  85.7676104 134.7959752  77.0007248  86.2986104
 135.7779752  77.4997248  87.1416104 135.8289752  78.8497248  87.4596104
 134.8899752  79.7197248  86.9256104 133.0279752  80.0377248  85.5846104
 133.1619752  77.5307248  85.1786104 134.7689752  76.0557248  86.0826104
 136.4389752  76.8957248  87.5146104 136.5189752  79.1827248  88.0536104
 134.9219752  80.6657248  87.1396104 132.3439752  79.7047248  84.9986104
  51.5939752 120.8647248  85.5716104  52.6569752 120.4147248  84.7876104
  53.9219752 120.9467248  84.9706104  54.1149752 121.9227248  85.9366104
  53.0609752 122.3717248  86.7196104  51.7909752 121.8437248  86.5356104
  50.4089752 120.3737248  85.3976104  52.5099752 119.7307248  84.1166104
  54.6659752 120.6397248  84.4286104  54.9999752 122.2987248  86.0666104
  53.2109752 123.0527248  87.3946104  51.0469752 122.1567248  87.0746104
  50.2619752 119.6977248  84.7316104  72.6339752 116.3527248  51.1006104
  73.6859752 116.0437248  50.2386104  74.1749752 117.0097248  49.3736104
  73.6089752 118.2757248  49.3796104  72.5629752 118.5877248  50.2386104
  72.0689752 117.6207248  51.1026104  72.1709752 115.4497248  51.9056104
  74.0739752 115.1557248  50.2446104  74.9049752 116.8027248  48.7706104
  73.9479752 118.9537248  48.7746104  72.1799752 119.4787248  50.2346104
  71.3349752 117.8287248  51.7016104  72.5539752 114.5697248  51.9106104
 114.5109752 124.3977248  72.9296104 113.6539752 123.8197248  71.9926104
 113.8919752 123.9957248  70.6396104 114.9849752 124.7477248  70.2346104
 115.8409752 125.3227248  71.1626104 115.6029752 125.1517248  72.5196104
 114.2879752 124.2397248  74.1946104 112.8939752 123.2947248  72.2886104
 113.2999752 123.5977248  69.9826104 115.1529752 124.8737248  69.2876104
 116.6039752 125.8417248  70.8646104 116.1929752 125.5547248  73.1746104
 113.5339752 123.7217248  74.4886104  76.6299752  59.0937248  30.7556104
  75.9499752  59.2217248  31.9656104  75.5349752  58.0887248  32.6466104
  75.8049752  56.8387248  32.1116104  76.4849752  56.7067248  30.9086104
  76.8969752  57.8407248  30.2226104  77.0139752  60.1517248  30.1146104
  75.7679752  60.1017248  32.3306104  75.0599752  58.1687248  33.4886104
  75.5159752  56.0427248  32.5856104  76.6709752  55.8257248  30.5486104
  77.3679752  57.7577248  29.3776104  76.8319752  61.0237248  30.4736104
 136.0159752  91.9567248  91.1766104 136.2069752  90.6767248  90.6546104
 137.0389752  90.4947248  89.5626104 137.6739752  91.5927248  89.0026104
 137.4889752  92.8667248  89.5206104 136.6519752  93.0537248  90.6116104
 135.2329752  92.1307248  92.1936104 135.7579752  89.9167248  91.0566104
 137.1759752  89.6087248  89.1936104 138.2579752  91.4687248  88.2376104
 137.9429752  93.6247248  89.1206104 136.5129752  93.9417248  90.9756104
 134.7869752  91.3787248  92.5896104 118.2549752 122.9547248  76.8016104
 118.0649752 121.5877248  77.0066104 117.8999752 120.7437248  75.9206104
 117.9269752 121.2747248  74.6386104 118.1179752 122.6327248  74.4306104
 118.2789752 123.4807248  75.5176104 118.4039752 123.7457248  77.8156104
 118.0489752 121.2287248  77.9076104 117.7659752 119.7927248  76.0546104
 117.8099752 120.6857248  73.8756104 118.1389752 122.9887248  73.5296104
 118.4069752 124.4327248  75.3806104 118.3859752 123.3917248  78.7076104
  91.1269752  29.0457248  55.4816104  90.8829752  28.8657248  56.8436104
  89.5789752  28.8087248  57.3086104  88.5309752  28.9307248  56.4086104
  88.7699752  29.1077248  55.0526104  90.0749752  29.1697248  54.5846104
  92.3439752  29.1047248  55.0456104  91.6239752  28.7797248  57.4626104
  89.4009752  28.6847248  58.2546104  87.6169752  28.8927248  56.7316104
  88.0269752  29.1877248  54.4346104  90.2499752  29.2987248  53.6396104
  93.0779752  29.0217248  55.6586104 115.9379752  83.9317248  40.7656104
 115.1599752  83.3497248  41.7656104 115.2669752  81.9917248  42.0206104
 116.1509752  81.2287248  41.2726104 116.9289752  81.8047248  40.2786104
 116.8209752  83.1637248  40.0186104 115.8359752  85.1997248  40.5216104
 114.5459752  83.8937248  42.2826104 114.7279752  81.5787248  42.7126104
 116.2279752  80.2777248  41.4486104 117.5469752  81.2597248  39.7666104
 117.3569752  83.5727248  39.3206104 115.2269752  85.7387248  41.0316104
 127.5089752 112.4417248  80.1726104 126.3629752 112.3727248  79.3806104
 126.4299752 111.8117248  78.1166104 127.6439752 111.3217248  77.6556104
 128.7859752 111.3857248  78.4416104 128.7219752 111.9517248  79.7066104
 127.4499752 112.9717248  81.3526104 125.5199752 112.7177248  79.7146104
 125.6379752 111.7607248  77.5586104 127.6949752 110.9277248  76.7696104
 129.6259752 111.0357248  78.1076104 129.5169752 112.0057248  80.2596104
 126.6159752 113.3157248  81.6826104  56.6089752  34.1447248  48.2886104
  55.4229752  34.0307248  47.5626104  55.4589752  33.5977248  46.2476104
  56.6799752  33.2807248  45.6706104  57.8619752  33.3907248  46.3906104
  57.8289752  33.8297248  47.7066104  56.5779752  34.5557248  49.5166104
  54.5759752  34.2537248  47.9776104  54.6399752  33.5167248  45.7356104
  56.7089752  32.9777248  44.7486104  58.7079752  33.1627248  45.9756104
  58.6509752  33.9147248  48.2156104  55.7389752  34.7787248  49.9276104
  30.8479752 108.7857248  65.4796104  30.7869752 107.9297248  64.3796104
  30.2299752 108.3717248  63.1906104  29.7399752 109.6667248  63.1116104
  29.7999752 110.5227248  64.2026104  30.3539752 110.0807248  65.3956104
  31.3629752 108.3727248  66.5936104  31.1339752 107.0267248  64.4476104
  30.1829752 107.7817248  62.4226104  29.3479752 109.9787248  62.2806104
  29.4579752 111.4267248  64.1306104  30.3949752 110.6707248  66.1646104
  31.7049752 107.4777248  66.6606104  45.6929752  66.8537248  49.1156104
  45.5749752  66.9907248  50.4986104  45.1629752  65.9147248  51.2666104
  44.8729752  64.7087248  50.6446104  44.9919752  64.5667248  49.2686104
  45.3999752  65.6457248  48.4966104  46.0719752  67.8607248  48.3946104
  45.7809752  67.8387248  50.9216104  45.0769752  66.0027248  52.2286104
  44.5839752  63.9527248  51.1796104  44.7899752  63.7167248  48.8486104
  45.4799752  65.5557248  47.5346104  46.2739752  68.7007248  48.8136104
 112.2269752  98.0477248  90.5066104 113.5719752  97.8997248  90.1656104
 113.9659752  96.8487248  89.3546104 113.0119752  95.9547248  88.8906104
 111.6729752  96.0997248  89.2246104 111.2759752  97.1497248  90.0416104
 111.8569752  99.0257248  91.2696104 114.2289752  98.5317248  90.4956104
 114.8989752  96.7377248  89.1136104 113.2859752  95.2167248  88.3226104
 111.0169752  95.4697248  88.8896104 110.3429752  97.2547248  90.2846104
 112.5079752  99.6507248  91.5976104  44.9329752 113.2667248  65.1266104
  43.5789752 113.4607248  64.8496104  42.6559752 113.4527248  65.8826104
  43.0949752 113.2517248  67.1826104  44.4409752 113.0607248  67.4626104
  45.3669752 113.0637248  66.4296104  45.7969752 113.2677248  64.1616104
  43.2849752 113.6017248  63.9366104  41.7129752 113.5857248  65.6986104
  42.4499752 113.2447248  67.9086104  44.7329752 112.9257248  68.3776104
  46.3089752 112.9247248  66.6156104  45.5059752 113.4047248  63.2576104
  82.6969752 100.9977248 122.2396104  81.7699752 101.6937248 123.0156104
  81.9749752 101.8287248 124.3786104  83.1049752 101.2667248 124.9536104
  84.0309752 100.5747248 124.1846104  83.8259752 100.4347248 122.8196104
  82.5049752 100.8657248 120.9656104  80.9849752 102.0837248 122.6006104
  81.3349752 102.3097248 124.9256104  83.2509752 101.3577248 125.9086104
  84.8179752 100.1907248 124.5996104  84.4649752  99.9487248 122.2756104
  81.7259752 101.2497248 120.5556104  77.5929752  41.9677248  39.5616104
  77.1749752  42.3717248  38.2936104  77.4549752  43.6537248  37.8506104
  78.1519752  44.5207248  38.6796104  78.5719752  44.1217248  39.9406104
  78.2879752  42.8397248  40.3886104  77.3269752  40.7717248  39.9796104
  76.6899752  41.7557248  37.7226104  77.1669752  43.9427248  36.9706104
  78.3499752  45.4197248  38.3726104  79.0619752  44.7377248  40.5076104
  78.5729752  42.5547248  41.2706104  76.8439752  40.1617248  39.4166104
  51.1629752  62.8407248 129.3716104  49.9379752  62.1797248 129.4426104
  49.7509752  60.9977248 128.7446104  50.7919752  60.4867248 127.9836104
  52.0139752  61.1407248 127.9126104  52.2019752  62.3277248 128.6076104
  51.3389752  63.9497248 130.0186104  49.2179752  62.5457248 129.9796104
  48.9009752  60.5317248 128.7876104  50.6639752  59.6597248 127.4936104
  52.7339752  60.7697248 127.3796104  53.0509752  62.7937248 128.5586104
  50.6249752  64.3137248 130.5486104  66.2659752  43.6377248  27.1816104
  64.9899752  43.8337248  26.6536104  64.7619752  43.6217248  25.3036104
  65.8129752  43.2157248  24.4936104  67.0829752  43.0177248  25.0166104
  67.3139752  43.2327248  26.3676104  66.4819752  43.8397248  28.4426104
  64.2629752  44.1157248  27.2296104  63.8789752  43.7577248  24.9276104
  65.6569752  43.0677248  23.5476104  67.8069752  42.7297248  24.4386104
  68.2009752  43.1017248  26.7396104  65.7629752  44.1217248  29.0136104
  27.5099752  42.6677248  76.8476104  26.6119752  43.4147248  76.0846104
  26.4589752  43.1417248  74.7356104  27.2039752  42.1227248  74.1606104
  28.0969752  41.3757248  74.9166104  28.2549752  41.6497248  76.2676104
  27.6589752  42.9257248  78.1076104  26.0959752  44.1237248  76.4986104
  25.8379752  43.6567248  74.1986104  27.0999752  41.9287248  73.2156104
  28.6079752  40.6627248  74.5026104  28.8809752  41.1357248  76.8016104
  27.1489752  43.6287248  78.5176104  15.2299752  64.7807248  76.4986104
  14.1119752  65.5507248  76.8206104  14.1709752  66.4447248  77.8766104
  15.3479752  66.5607248  78.6016104  16.4629752  65.7987248  78.2826104
  16.4049752  64.8997248  77.2276104  15.1749752  63.9407248  75.5146104
  13.2949752  65.4607248  76.3046104  13.3979752  66.9817248  78.1076104
  15.3929752  67.1857248  79.3426104  17.2809752  65.8947248  78.7956104
  17.1779752  64.3587248  77.0016104  14.3659752  63.8497248  75.0056104
  66.6029752  92.0077248 123.2516104  67.9059752  91.8667248 122.7726104
  68.1229752  91.3857248 121.4926104  67.0339752  91.0507248 120.7006104
  65.7369752  91.1917248 121.1716104  65.5169752  91.6697248 122.4556104
  66.3989752  92.4517248 124.4506104  68.6589752  92.1057248 123.3356104
  69.0249752  91.2827248 121.1526104  67.1829752  90.7127248 119.8026104
  64.9849752  90.9577248 120.6046104  64.6129752  91.7657248 122.7946104
  67.1439752  92.6867248 125.0086104  56.2259752  32.8317248  95.4186104
  56.9659752  31.9797248  96.2386104  56.5779752  30.6587248  96.3886104
  55.4549752  30.2007248  95.7156104  54.7179752  31.0447248  94.8976104
  55.1009752  32.3697248  94.7496104  56.5829752  34.0697248  95.2816104
  57.7499752  32.3117248  96.7026104  57.0869752  30.0597248  96.9576104
  55.1799752  29.2757248  95.8196104  53.9369752  30.7087248  94.4306104
  54.5879752  32.9677248  94.1836104  57.3579752  34.3987248  95.7426104
  34.6189752  69.2697248  96.9396104  35.3739752  69.2497248  95.7676104
  35.5589752  68.0577248  95.0866104  34.9859752  66.8957248  95.5826104
  34.2319752  66.9127248  96.7476104  34.0479752  68.1047248  97.4336104
  34.4489752  70.3817248  97.5806104  35.7689752  70.0687248  95.4296104
  36.0839752  68.0347248  94.2716104  35.1149752  66.0597248  95.1086104
  33.8329752  66.0937248  97.0806104  33.5269752  68.1237248  98.2526104
  34.8409752  71.1927248  97.2476104 118.6439752 109.8667248  78.1136104
 118.8139752 108.6057248  78.6836104 119.1649752 107.5297248  77.8846104
 119.3439752 107.7257248  76.5226104 119.1779752 108.9797248  75.9526104
 118.8219752 110.0577248  76.7506104 118.3099752 110.8727248  78.8576104
 118.6879752 108.4817248  79.6366104 119.2839752 106.6487248  78.2726104
 119.5889752 106.9737248  75.9606104 119.3099752 109.1027248  74.9996104
 118.6979752 110.9377248  76.3586104 118.1829752 110.7507248  79.8016104
  87.4609752  98.8407248  52.5496104  87.3389752  97.8117248  51.6156104
  88.4079752  97.4947248  50.7936104  89.5909752  98.2097248  50.9136104
  89.7169752  99.2327248  51.8426104  88.6459752  99.5547248  52.6646104
  86.4609752  99.1417248  53.3146104  86.5069752  97.3177248  51.5426104
  88.3309752  96.7817248  50.1416104  90.3409752  97.9917248  50.3386104
  90.5509752  99.7217248  51.9186104  88.7239752 100.2727248  53.3126104
  85.6369752  98.6547248  53.2406104  31.3769752 102.9607248  55.1596104
  31.3289752 104.3467248  55.0146104  31.8949752 105.1617248  55.9806104
  32.5059752 104.5837248  57.0836104  32.5569752 103.2047248  57.2316104
  31.9869752 102.3857248  56.2666104  30.8429752 102.1967248  54.2606104
  30.9009752 104.7397248  54.2376104  31.8649752 106.1267248  55.8866104
  32.9029752 105.1517248  57.7626104  32.9909752 102.8147248  58.0056104
  32.0139752 101.4207248  56.3656104  30.4169752 102.5847248  53.4926104
  85.6579752  44.4277248  34.7456104  86.9789752  43.9917248  34.8516104
  87.7529752  43.8517248  33.7116104  87.1999752  44.1507248  32.4756104
  85.8869752  44.5867248  32.3656104  85.1079752  44.7237248  33.5056104
  84.9299752  44.5537248  35.8096104  87.3539752  43.7877248  35.7226104
  88.6719752  43.5487248  33.7776104  87.7389752  44.0527248  31.6746104
  85.5149752  44.7957248  31.4946104  84.1879752  45.0227248  33.4366104
  85.3009752  44.3497248  36.6716104  56.4229752 116.6767248  70.9056104
  57.0409752 115.8427248  69.9736104  56.9979752 114.4677248  70.1436104
  56.3359752 113.9397248  71.2416104  55.7179752 114.7667248  72.1696104
  55.7629752 116.1437248  72.0046104  56.4669752 117.9617248  70.7526104
  57.4999752 116.2237248  69.2086104  57.4269752 113.8817248  69.5006104
  56.3049752 112.9777248  71.3636104  55.2549752 114.3827248  72.9306104
  55.3379752 116.7287248  72.6516104  56.9219752 118.3397248  69.9966104
 122.1849752 114.8077248  64.2666104 121.3619752 113.6837248  64.1996104
 120.5649752 113.3467248  65.2826104 120.5979752 114.1387248  66.4206104
 121.4129752 115.2597248  66.4896104 122.2149752 115.5957248  65.4086104
 122.9339752 115.1217248  63.2576104 121.3469752 113.1387248  63.3976104
 119.9919752 112.5657248  65.2446104 120.0419752 113.9047248  67.1806104
 121.4229752 115.8057248  67.2906104 122.7929752 116.3747248  65.4506104
 122.9209752 114.5807248  62.4646104  94.0059752  27.0327248 101.7366104
  92.7149752  26.7017248 102.1486104  92.2949752  27.0247248 103.4276104
  93.1689752  27.6777248 104.2846104  94.4539752  28.0107248 103.8776104
  94.8779752  27.6837248 102.5976104  94.4029752  26.7257248 100.5426104
  92.1119752  26.2467248 101.5396104  91.3989752  26.7977248 103.7226104
  92.8779752  27.9057248 105.1816104  95.0519752  28.4717248 104.4856104
  95.7769752  27.9087248 102.3076104  93.8069752  26.2727248  99.9406104
  28.5969752  47.2707248  78.0586104  28.9699752  48.2137248  77.1006104
  29.7749752  47.8367248  76.0386104  30.1989752  46.5197248  75.9426104
  29.8289752  45.5777248  76.8916104  29.0259752  45.9537248  77.9596104
  27.8489752  47.6217248  79.0556104  28.6659752  49.1317248  77.1786104
  30.0399752  48.4867248  75.3696104  30.7639752  46.2527248  75.1996104
  30.1289752  44.6597248  76.8086104  28.7669752  45.3027248  78.6306104
  27.5499752  48.5307248  79.1336104  66.5539752 119.5687248 123.4116104
  66.1649752 118.6527248 122.4336104  67.1109752 118.1147248 121.5776104
  68.4379752 118.4967248 121.7066104  68.8299752 119.4057248 122.6796104
  67.8829752 119.9497248 123.5356104  65.6699752 120.0777248 124.2096104
  65.2329752 118.3927248 122.3546104  66.8479752 117.4787248 120.8946104
  69.1029752 118.1217248 121.1076104  69.7619752 119.6597248 122.7606104
  68.1469752 120.5897248 124.2146104  64.7479752 119.8227248 124.1296104
 108.2459752  95.6927248 124.1666104 107.1579752  96.3987248 123.6556104
 106.8319752  96.2877248 122.3146104 107.5969752  95.4697248 121.4956104
 108.6789752  94.7637248 122.0006104 109.0099752  94.8767248 123.3436104
 108.5559752  95.7997248 125.4196104 106.6299752  96.9667248 124.2386104
 106.0769752  96.7767248 121.9506104 107.3719752  95.3907248 120.5546104
 109.2019752  94.1917248 121.4176104 109.7689752  94.3907248 123.7036104
 108.0349752  96.3627248 125.9966104  43.7499752  30.8667248  85.1606104
  42.9729752  30.0587248  85.9896104  42.9119752  30.3207248  87.3486104
  43.6269752  31.3907248  87.8656104  44.3999752  32.1997248  87.0436104
  44.4659752  31.9357248  85.6826104  43.8129752  30.6197248  83.8906104
  42.4759752  29.3137248  85.6166104  42.3749752  29.7627248  87.9326104
  43.5869752  31.5777248  88.8166104  44.8909752  32.9467248  87.4176104
  45.0079752  32.4927248  85.1016104  43.3229752  29.8817248  83.5206104
 122.8989752  60.5077248  90.7806104 122.5829752  60.2197248  92.1086104
 123.5949752  59.9577248  93.0176104 124.9149752  59.9867248  92.5896104
 125.2329752  60.2747248  91.2696104 124.2199752  60.5337248  90.3576104
 121.9539752  60.7477248  89.9286104 121.6569752  60.2047248  92.3956104
 123.3839752  59.7557248  93.9416104 125.6259752  59.8027248  93.2236104
 126.1599752  60.2947248  90.9866104 124.4339752  60.7297248  89.4316104
 121.0359752  60.7297248  90.2116104 112.2169752  78.2567248 130.5636104
 112.5869752  78.0007248 129.2426104 112.3139752  78.9337248 128.2566104
 111.6739752  80.1157248 128.5996104 111.3069752  80.3757248 129.9126104
 111.5749752  79.4407248 130.9016104 112.4659752  77.3837248 131.4866104
 113.0349752  77.1707248 129.0156104 112.5659752  78.7627248 127.3356104
 111.4799752  80.7717248 127.9106104 110.8639752  81.2087248 130.1376104
 111.3169752  79.6117248 131.8206104 112.9079752  76.5607248 131.2616104
  84.0799752  73.5117248 132.0656104  83.7749752  74.5207248 131.1526104
  82.6969752  75.3587248 131.3856104  81.9339752  75.1817248 132.5306104
  82.2369752  74.1797248 133.4436104  83.3139752  73.3367248 133.2096104
  85.0839752  72.7237248 131.8466104  84.3159752  74.6357248 130.3556104
  82.4759752  76.0617248 130.7546104  81.1779752  75.7657248 132.6966104
  81.6979752  74.0707248 134.2416104  83.5289752  72.6307248 133.8396104
  85.6189752  72.8357248 131.0576104  26.5009752  84.7957248  68.8606104
  27.7839752  84.5567248  69.3536104  28.0819752  83.3367248  69.9396104
  27.0939752  82.3667248  70.0276104  25.8169752  82.6007248  69.5366104
  25.5149752  83.8227248  68.9526104  26.2189752  85.9367248  68.3176104
  28.4669752  85.2417248  69.2846104  28.9709752  83.1637248  70.2856104
  27.2989752  81.5127248  70.4386104  25.1379752  81.9107248  69.6006104
  24.6229752  83.9957248  68.6116104  26.8939752  86.6167248  68.2516104
  23.3759752  63.4237248  51.9386104  23.0569752  62.6087248  50.8526104
  21.8609752  62.7947248  50.1786104  20.9949752  63.7947248  50.5976104
  21.3099752  64.6087248  51.6756104  22.5059752  64.4217248  52.3556104
  24.4909752  63.2477248  52.5736104  23.6719752  61.9147248  50.5686104
  21.6309752  62.2317248  49.4236104  20.1559752  63.9267248  50.1276104
  20.6969752  65.3057248  51.9546104  22.7309752  64.9827248  53.1136104
  25.0989752  62.5587248  52.2946104  45.3149752  54.8947248 110.0696104
  46.2909752  55.8877248 109.9766104  46.9519752  56.3137248 111.1166104
  46.6329752  55.7417248 112.3396104  45.6649752  54.7527248 112.4356104
  44.9979752  54.3277248 111.2956104  44.6909752  54.4997248 109.0056104
  46.5059752  56.2787248 109.1156104  47.6309752  57.0037248 111.0606104
  47.0939752  56.0387248 113.1396104  45.4559752  54.3597248 113.2976104
  44.3159752  53.6397248 111.3556104  44.9019752  54.8877248 108.1536104
  40.4319752  69.9867248 107.5896104  39.5669752  70.6507248 108.4596104
  39.5859752  72.0347248 108.5286104  40.4699752  72.7417248 107.7266104
  41.3309752  72.0837248 106.8586104  41.3159752  70.6977248 106.7906104
  40.4199752  68.6927248 107.5286104  38.9529752  70.1457248 109.0146104
  38.9889752  72.5037248 109.1306104  40.4869752  73.7107248 107.7726104
  41.9399752  72.5917248 106.3006104  41.9189752  70.2307248 106.1906104
  39.8129752  68.1917248 108.0786104  46.2889752  48.4187248  51.0076104
  46.5569752  47.9537248  49.7206104  45.5439752  47.9147248  48.7766104
  44.2709752  48.3407248  49.1286104  44.0009752  48.8067248  50.4076104
  45.0139752  48.8427248  51.3556104  47.2329752  48.4507248  51.8936104
  47.4509752  47.6597248  49.4856104  45.7209752  47.5917248  47.8796104
  43.5589752  48.3137248  48.4696104  43.1079752  49.1057248  50.6376104
  44.8319752  49.1617248  52.2546104  48.1169752  48.1577248  51.6626104
 125.7699752  66.3457248  41.0716104 125.7149752  67.0517248  39.8696104
 126.0489752  66.4197248  38.6826104 126.4339752  65.0877248  38.7086104
 126.4879752  64.3817248  39.9026104 126.1579752  65.0137248  41.0926104
 125.4629752  66.9357248  42.1826104 125.4419752  67.9827248  39.8646104
 126.0139752  66.9037248  37.8436104 126.6699752  64.6417248  37.8796104
 126.7559752  63.4497248  39.9046104 126.1989752  64.5287248  41.9326104
 125.1959752  67.8587248  42.1786104  96.9619752  75.6927248 114.9656104
  95.8499752  74.9577248 115.3776104  95.5889752  74.8017248 116.7286104
  96.4409752  75.3817248 117.6566104  97.5469752  76.1157248 117.2506104
  97.8139752  76.2707248 115.8976104  97.2119752  75.8357248 113.7026104
  95.2609752  74.5577248 114.7196104  94.8189752  74.2907248 117.0236104
  96.2619752  75.2737248 118.6036104  98.1319752  76.5197248 117.9106104
  98.5879752  76.7767248 115.6056104  96.6299752  75.4377248 113.0506104
  19.5839752  95.6867248  92.3016104  20.7919752  95.9057248  92.9646104
  20.7979752  96.5437248  94.1946104  19.5959752  96.9547248  94.7516104
  18.3919752  96.7367248  94.0966104  18.3839752  96.1017248  92.8616104
  19.5769752  95.0957248  91.1496104  21.6259752  95.6127248  92.5656104
  21.6329752  96.7007248  94.6606104  19.5969752  97.4027248  95.6126104
  17.5589752  97.0257248  94.4996104  17.5469752  95.9507248  92.3946104
  20.4019752  94.8077248  90.7526104 101.7539752  94.0657248  61.8066104
 100.9429752  95.1777248  62.0336104  99.7199752  95.0207248  62.6656104
  99.3199752  93.7547248  63.0666104 100.1259752  92.6467248  62.8446104
 101.3499752  92.7997248  62.2076104 102.8949752  94.2087248  61.2116104
 101.2339752  96.0577248  61.7496104  99.1489752  95.7877248  62.8256104
  98.4639752  93.6417248  63.5086104  99.8359752  91.7677248  63.1336104
 101.9159752  92.0297248  62.0436104 103.1829752  95.0807248  60.9286104
 110.4129752  99.8347248  75.9946104 111.6169752  99.8637248  76.6986104
 111.6129752  99.7177248  78.0766104 110.4059752  99.5447248  78.7376104
 109.2069752  99.5137248  78.0406104 109.2069752  99.6627248  76.6606104
 110.4129752  99.9767248  74.7076104 112.4539752  99.9837248  76.2256104
 112.4449752  99.7377248  78.5736104 110.3999752  99.4427248  79.7026104
 108.3709752  99.3867248  78.5156104 108.3719752  99.6477248  76.1656104
 111.2419752 100.0977248  74.2386104  41.0189752  71.7277248  43.4216104
  42.3719752  71.7227248  43.0846104  43.2789752  71.0437248  43.8826104
  42.8229752  70.3747248  45.0096104  41.4769752  70.3747248  45.3456104
  40.5679752  71.0577248  44.5506104  40.1699752  72.3657248  42.6796104
  42.6789752  72.1927248  42.2936104  44.2219752  71.0367248  43.6566104
  43.4559752  69.8987248  45.5706104  41.1729752  69.8997248  46.1346104
  39.6249752  71.0677248  44.7826104  40.4729752  72.8337248  41.8986104
  66.3149752  41.1787248  34.6896104  65.2569752  41.4657248  33.8276104
  64.5919752  40.4347248  33.1846104  64.9889752  39.1257248  33.4116104
  66.0389752  38.8357248  34.2716104  66.7109752  39.8667248  34.9126104
  66.9429752  42.1417248  35.2876104  64.9879752  42.3857248  33.6776104
  63.8559752  40.6267248  32.5826104  64.5249752  38.4007248  32.9626104
  66.3029752  37.9147248  34.4236104  67.4499752  39.6727248  35.5106104
  66.6779752  43.0517248  35.1376104  68.8479752  99.2117248 120.4356104
  68.6269752  97.8637248 120.7186104  67.4549752  97.4737248 121.3446104
  66.5129752  98.4347248 121.6816104  66.7279752  99.7767248 121.3996104
  67.9029752 100.1707248 120.7766104  69.9459752  99.5797248 119.8556104
  69.2929752  97.2017248 120.4766104  67.2939752  96.5387248 121.5456104
  65.6909752  98.1647248 122.1206104  66.0579752 100.4367248 121.6376104
  68.0639752 101.1077248 120.5816104  70.6059752  98.9247248 119.6186104
  49.9879752  88.9767248 131.7446104  50.1019752  90.3547248 131.9346104
  49.1499752  91.0287248 132.6806104  48.0919752  90.3197248 133.2306104
  47.9759752  88.9497248 133.0466104  48.9269752  88.2717248 132.2956104
  50.8739752  88.3457248 131.0426104  50.8469752  90.8387248 131.5456104
  49.2209752  91.9867248 132.8166104  47.4229752  90.7897248 133.7536104
  47.2339752  88.4667248 133.4406104  48.8499752  87.3147248 132.1566104
  51.6109752  88.8247248 130.6556104  59.9989752  40.7557248 116.5316104
  60.6769752  41.1837248 117.6726104  60.2339752  40.7947248 118.9256104
  59.1169752  39.9787248 119.0266104  58.4399752  39.5477248 117.8936104
  58.8799752  39.9407248 116.6376104  60.4079752  41.1227248 115.3586104
  61.4579752  41.7527248 117.5886104  60.6989752  41.0887248 119.7236104
  58.8029752  39.7047248 119.9026104  57.6629752  38.9747248 117.9796104
  58.4089752  39.6487248 115.8406104  61.1799752  41.6887248 115.2756104
  81.6439752 127.0157248 113.5786104  82.5089752 126.4947248 112.6156104
  83.2329752 127.3517248 111.8036104  83.0859752 128.7217248 111.9616104
  82.2289752 129.2437248 112.9196104  81.4989752 128.3877248 113.7316104
  80.9619752 126.2157248 114.3356104  82.6039752 125.5347248 112.5156104
  83.8359752 126.9977248 111.1306104  83.5919752 129.3247248 111.3936104
  82.1399752 130.2037248 113.0216104  80.8929752 128.7437248 114.3996104
  81.0539752 125.2657248 114.2346104 135.0059752  71.3377248  57.9066104
 135.4809752  70.1567248  58.4756104 135.7439752  69.0607248  57.6696104
 135.5309752  69.1567248  56.3026104 135.0599752  70.3307248  55.7326104
 134.7909752  71.4287248  56.5386104 134.7539752  72.3617248  58.6586104
 135.6279752  70.1027248  59.4326104 136.0739752  68.2347248  58.0576104
 135.7129752  68.3907248  55.7356104 134.9189752  70.3847248  54.7746104
 134.4569752  72.2517248  56.1486104 134.8969752  72.3077248  59.6066104
 108.5299752  38.5697248  98.3046104 109.4519752  38.6637248  97.2626104
 109.0209752  38.9857248  95.9856104 107.6709752  39.2107248  95.7626104
 106.7499752  39.1207248  96.7976104 107.1789752  38.7947248  98.0756104
 108.9299752  38.2637248  99.4976104 110.3939752  38.5057248  97.4316104
 109.6559752  39.0517248  95.2556104 107.3649752  39.4357248  94.8696104
 105.8089752  39.2857248  96.6276104 106.5409752  38.7237248  98.8036104
 109.8619752  38.1047248  99.6646104  91.5329752  97.8977248 113.7596104
  90.4709752  97.5347248 114.5866104  90.5439752  97.7727248 115.9486104
  91.6799752  98.3737248 116.4726104  92.7389752  98.7387248 115.6526104
  92.6689752  98.4967248 114.2876104  91.4689752  97.6707248 112.4856104
  89.6809752  97.1167248 114.2086104  89.8109752  97.5227248 116.5316104
  91.7349752  98.5417248 117.4266104  93.5239752  99.1617248 116.0316104
  93.4069752  98.7437248 113.7086104  90.6889752  97.2547248 112.1116104
  47.1179752 118.7327248  51.1136104  48.1829752 119.6177248  50.9426104
  48.5309752 120.0407248  49.6706104  47.8099752 119.5767248  48.5806104
  46.7489752 118.6977248  48.7456104  46.4009752 118.2687248  50.0196104
  46.7939752 118.3317248  52.3016104  48.6779752 119.9367248  51.7136104
  49.2709752 120.6547248  49.5436104  48.0519752 119.8707248  47.6876104
  46.2509752 118.3847248  47.9746104  45.6639752 117.6507248  50.1426104
  47.2859752 118.6447248  53.0646104  33.3029752  59.4547248  79.4816104
  34.2399752  59.4607248  78.4486104  35.0439752  58.3517248  78.2396104
  34.9019752  57.2457248  79.0646104  33.9689752  57.2347248  80.0926104
  33.1659752  58.3467248  80.3066104  32.5549752  60.4927248  79.6826104
  34.3289752  60.2397248  77.8776104  35.6989752  58.3487248  77.5246104
  35.4639752  56.4677248  78.9216104  33.8779752  56.4527248  80.6586104
  32.5149752  58.3487248  81.0256104  32.6439752  61.2647248  79.1186104
  97.2029752 127.3437248 101.6256104  97.6189752 128.5527248 102.1826104
  98.8909752 129.0337248 101.9156104  99.7339752 128.3017248 101.0916104
  99.3219752 127.0997248 100.5336104  98.0509752 126.6127248 100.8036104
  96.0169752 126.8887248 101.8786104  97.0199752 129.0557248 102.7556104
  99.1879752 129.8727248 102.2996104 100.6249752 128.6347248 100.9036104
  99.9209752 126.6007248  99.9566104  97.7569752 125.7707248 100.4226104
  95.4239752 127.3857248 102.4486104  62.8499752 130.2217248 102.6106104
  61.9949752 130.6467248 101.5926104  60.6309752 130.7167248 101.8216104
  60.1329752 130.3637248 103.0666104  60.9799752 129.9427248 104.0836104
  62.3459752 129.8667248 103.8546104  64.1249752 130.1497248 102.3966104
  62.3559752 130.8927248 100.7266104  60.0309752 131.0097248 101.1196104
  59.1779752 130.4107248 103.2306104  60.6169752 129.7027248 104.9496104
  62.9449752 129.5687248 104.5576104  64.4819752 130.3907248 101.5386104
  53.9169752  61.6247248  67.0076104  54.5259752  62.6887248  67.6736104
  54.5259752  62.7267248  69.0576104  53.9179752  61.7007248  69.7656104
  53.3129752  60.6387248  69.1066104  53.3079752  60.6007248  67.7196104
  53.9099752  61.5897248  65.7136104  54.9489752  63.3997248  67.1676104
  54.9459752  63.4637248  69.5286104  53.9149752  61.7247248  70.7356104
  52.8949752  59.9257248  69.6146104  52.8819752  59.8647248  67.2516104
  54.3269752  62.2947248  65.2126104 115.3849752  87.1477248  35.4906104
 115.7359752  88.4357248  35.0866104 116.5619752  88.6137248  33.9896104
 117.0299752  87.5017248  33.3046104 116.6809752  86.2187248  33.7016104
 115.8569752  86.0377248  34.8036104 114.6169752  86.9787248  36.5196104
 115.4009752  89.2057248  35.5726104 116.8119752  89.5057248  33.7036104
 117.6099752  87.6227248  32.5366104 117.0129752  85.4507248  33.2106104
 115.6129752  85.1437248  35.0906104 114.2869752  87.7407248  37.0026104
  65.4219752 131.4637248  59.2806104  64.2649752 131.5377248  58.5046104
  64.3159752 131.2177248  57.1576104  65.5229752 130.8267248  56.5986104
  66.6759752 130.7487248  57.3676104  66.6279752 131.0727248  58.7156104
  65.3779752 131.7677248  60.5386104  63.4259752 131.8117248  58.9076104
  63.5159752 131.2677248  56.6116104  65.5619752 130.6027248  55.6556104
  67.5119752 130.4697248  56.9636104  67.4309752 131.0267248  59.2596104
  64.5479752 132.0407248  60.9366104 121.5229752  82.0167248  56.4456104
 121.0309752  83.3147248  56.5856104 121.9079752  84.3647248  56.8036104
 123.2689752  84.1087248  56.8796104 123.7619752  82.8187248  56.7386104
 122.8859752  81.7647248  56.5236104 120.7049752  81.0327248  56.2476104
 120.0769752  83.4817248  56.5296104 121.5739752  85.2697248  56.9036104
 123.8849752  84.8417248  57.0326104 124.7169752  82.6547248  56.7886104
 123.2219752  80.8597248  56.4296104 119.7599752  81.1977248  56.1946104
 135.3449752  86.9147248  77.6616104 135.4219752  85.8297248  78.5346104
 134.9579752  85.9547248  79.8346104 134.4199752  87.1647248  80.2486104
 134.3389752  88.2457248  79.3826104 134.8069752  88.1237248  78.0816104
 135.7829752  86.8017248  76.4486104 135.7999752  84.9887248  78.2336104
 135.0099752  85.2057248  80.4476104 134.0939752  87.2557248  81.1586104
 133.9559752  89.0837248  79.6846104 134.7589752  88.8767248  77.4716104
 136.1589752  85.9697248  76.1496104  88.9019752  29.3507248  90.9456104
  88.4249752  29.1357248  92.2386104  88.1589752  30.2157248  93.0646104
  88.3719752  31.5017248  92.5896104  88.8439752  31.7197248  91.3036104
  89.1149752  30.6387248  90.4756104  89.1559752  28.3427248  90.1746104
  88.2789752  28.2317248  92.5596104  87.8289752  30.0747248  93.9656104
  88.1879752  32.2597248  93.1656104  88.9839752  32.6247248  90.9836104
  89.4509752  30.7827248  89.5766104  89.0139752  27.4477248  90.4916104
  34.1189752  97.5647248 103.8516104  33.8649752  96.8517248 105.0236104
  34.4129752  97.2777248 106.2226104  35.2089752  98.4137248 106.2386104
  35.4619752  99.1267248 105.0756104  34.9179752  98.6997248 103.8726104
  33.6119752  97.1647248 102.7296104  33.3059752  96.0597248 104.9996104
  34.2429752  96.7877248 107.0416104  35.5949752  98.7147248 107.0766104
  36.0169752  99.9217248 105.1026104  35.0939752  99.1887248 103.0536104
  33.0599752  96.3787248 102.7046104  85.8159752 122.6837248  36.9696104
  86.5469752 123.8167248  37.3276104  87.6349752 124.2057248  36.5636104
  87.9819752 123.4587248  35.4476104  87.2559752 122.3317248  35.0866104
  86.1679752 121.9377248  35.8536104  84.8019752 122.3157248  37.6866104
  86.2939752 124.3317248  38.1096104  88.1489752 124.9907248  36.8066104
  88.7439752 123.7277248  34.9106104  87.5079752 121.8217248  34.3016104
  85.6589752 121.1487248  35.6116104  84.5519752 122.8237248  38.4616104
 105.9069752  35.9967248  87.3516104 105.7949752  35.0327248  88.3526104
 105.0689752  35.3097248  89.4996104 104.4609752  36.5497248  89.6336104
 104.5669752  37.5107248  88.6386104 105.2969752  37.2357248  87.4906104
 106.5889752  35.7407248  86.2806104 106.2239752  34.1687248  88.2466104
 104.9879752  34.6457248  90.2016104 103.9519752  36.7477248  90.4366104
 104.1329752  38.3707248  88.7436104 105.3819752  37.9047248  86.7926104
 107.0159752  34.8867248  86.1766104 108.6679752  86.7177248  96.0676104
 108.3129752  85.4297248  96.4686104 108.0229752  84.4667248  95.5176104
 108.0919752  84.7987248  94.1726104 108.4469752  86.0777248  93.7686104
 108.7339752  87.0467248  94.7206104 108.9339752  87.6217248  96.9566104
 108.2689752  85.2097248  97.4126104 107.7729752  83.5687248  95.7876104
 107.8879752  84.1257248  93.5026104 108.4959752  86.2947248  92.8246104
 108.9779752  87.9447248  94.4476104 108.8889752  87.4047248  97.8906104
  55.3529752  93.7977248 119.8496104  55.4619752  93.3177248 121.1546104
  54.5649752  93.7387248 122.1216104  53.5659752  94.6367248 121.7746104
  53.4519752  95.1147248 120.4776104  54.3529752  94.6977248 119.5076104
  56.1939752  93.4087248 118.9446104  56.1639752  92.6887248 121.3836104
  54.6349752  93.4107248 123.0316104  52.9359752  94.9347248 122.4506104
  52.7459752  95.7387248 120.2486104  54.2839752  95.0317248 118.5986104
  56.8909752  92.7887248 119.1716104 132.3669752  57.7977248  91.9876104
 131.6009752  58.3227248  93.0286104 132.1979752  59.1277248  93.9846104
 133.5539752  59.4017248  93.8916104 134.3189752  58.8827248  92.8556104
 133.7239752  58.0727248  91.8986104 131.8119752  57.0397248  91.0956104
 130.6529752  58.1257248  93.0826104 131.6729752  59.4967248  94.7126104
 133.9759752  59.9647248  94.5596104 135.2649752  59.0867248  92.8006104
 134.2529752  57.7007248  91.1746104 130.8739752  56.8417248  91.1496104
  80.6519752  94.1167248  28.2496104  81.4439752  95.1547248  28.7406104
  81.6099752  95.3097248  30.1076104  80.9829752  94.4237248  30.9716104
  80.1969752  93.3877248  30.4866104  80.0259752  93.2327248  29.1186104
  80.4909752  93.9737248  26.9726104  81.8779752  95.7677248  28.1266104
  82.1569752  96.0297248  30.4566104  81.0969752  94.5287248  31.9286104
  79.7689752  92.7727248  31.1026104  79.4729752  92.5147248  28.7716104
  80.9189752  94.5807248  26.3646104  51.5979752  61.5667248 122.6456104
  51.1179752  61.9797248 123.8886104  51.9429752  62.6897248 124.7446104
  53.2399752  62.9827248 124.3506104  53.7199752  62.5757248 123.1136104
  52.8969752  61.8597248 122.2556104  50.8299752  60.8967248 121.8456104
  50.2079752  61.7697248 124.1526104  51.6169752  62.9797248 125.6116104
  53.8209752  63.4797248 124.9486104  54.6279752  62.7907248 122.8496104
  53.2279752  61.5667248 121.3916104  49.9309752  60.6877248 122.1076104
  88.0949752  92.9947248  38.0396104  88.2449752  93.8067248  36.9166104
  89.2949752  93.5857248  36.0406104  90.1849752  92.5527248  36.2956104
  90.0369752  91.7397248  37.4106104  88.9879752  91.9627248  38.2916104
  87.1169752  93.2037248  38.8636104  87.6159752  94.5257248  36.7486104
  89.4079752  94.1467248  35.2576104  90.9219752  92.3947248  35.6836104
  90.6639752  91.0187248  37.5736104  88.8809752  91.4027248  39.0766104
  86.4949752  93.9157248  38.6986104  69.6009752  38.0647248 125.2086104
  69.8649752  38.8757248 126.3126104  70.5819752  40.0497248 126.1496104
  71.0269752  40.4027248 124.8846104  70.7639752  39.5997248 123.7826104
  70.0499752  38.4207248 123.9446104  68.9359752  36.9637248 125.3596104
  69.5469752  38.6187248 127.1916104  70.7709752  40.6187248 126.9116104
  71.5299752  41.2247248 124.7666104  71.0779752  39.8617248 122.9036104
  69.8659752  37.8517248 123.1806104  68.6229752  36.7077248 126.2306104
 135.8119752  68.0247248  73.6576104 136.3279752  67.8637248  72.3716104
 137.6849752  67.6537248  72.1936104 138.5149752  67.6047248  73.3036104
 138.0059752  67.7627248  74.5846104 136.6469752  67.9777248  74.7656104
 134.5449752  68.2277248  73.8256104 135.7369752  67.8987248  71.6026104
 138.0509752  67.5417248  71.3026104 139.4669752  67.4587248  73.1816104
 138.5979752  67.7217248  75.3516104 136.2839752  68.0947248  75.6576104
 133.9589752  68.2647248  73.0656104  75.7129752  70.1807248 132.1026104
  74.4769752  69.5337248 132.1146104  74.2529752  68.4607248 131.2686104
  75.2659752  68.0427248 130.4186104  76.4979752  68.6817248 130.4056104
  76.7239752  69.7607248 131.2496104  75.9229752  71.1877248 132.8886104
  73.7769752  69.8347248 132.7146104  73.3959752  68.0057248 131.2696104
  75.1119752  67.2917248 129.8236104  77.1989752  68.3767248 129.8086104
  77.5799752  70.2167248 131.2426104  75.2289752  71.4877248 133.4806104
  63.0899752  36.5117248  75.5606104  62.7269752  35.8537248  74.3856104
  61.8829752  34.7567248  74.4426104  61.4099752  34.3267248  75.6736104
  61.7669752  34.9807248  76.8446104  62.6159752  36.0777248  76.7906104
  63.8829752  37.5337248  75.5106104  63.0629752  36.1637248  73.5306104
  61.6269752  34.2927248  73.6296104  60.8189752  33.5587248  75.7166104
  61.4249752  34.6717248  77.6976104  62.8749752  36.5367248  77.6056104
  64.2189752  37.8407248  74.6646104 125.0039752  81.4097248  93.2816104
 124.9619752  81.4787248  94.6736104 124.1749752  80.5887248  95.3846104
 123.4359752  79.6367248  94.6976104 123.4769752  79.5637248  93.3116104
 124.2619752  80.4567248  92.5966104 125.7359752  82.2447248  92.6136104
 125.4839752  82.1477248  95.1436104 124.1389752  80.6307248  96.3526104
 122.8829752  79.0117248  95.1926104 122.9589752  78.8897248  92.8446104
 124.2919752  80.4167248  91.6276104 126.2509752  82.9087248  93.0786104
  48.7219752  90.0857248 125.4246104  48.3199752  89.0397248 126.2556104
  48.3269752  89.2077248 127.6296104  48.7359752  90.4217248 128.1626104
  49.1339752  91.4667248 127.3406104  49.1309752  91.2987248 125.9626104
  48.7209752  89.9287248 124.1396104  48.0349752  88.1957248 125.8706104
  48.0509752  88.4847248 128.2146104  48.7429752  90.5427248 129.1256104
  49.4129752  92.3107248 127.7266104  49.4139752  92.0217248 125.3806104
  48.4409752  89.0937248 123.7586104 103.9519752 109.4947248  58.1936104
 105.1889752 109.3317248  58.8186104 106.1989752 108.6347248  58.1776104
 105.9649752 108.1067248  56.9166104 104.7369752 108.2687248  56.2896104
 103.7219752 108.9627248  56.9326104 103.0039752 110.1417248  58.7936104
 105.3409752 109.7067248  59.6996104 107.0609752 108.5157248  58.6056104
 106.6699752 107.6167248  56.4646104 104.5889752 107.8977248  55.4066104
 102.8579752 109.0757248  56.5036104 103.1539752 110.5107248  59.6666104
  97.1099752  93.4807248  31.9866104  98.3639752  93.3857248  32.5886104
  98.4769752  92.8727248  33.8706104  97.3329752  92.4597248  34.5386104
  96.0839752  92.5507248  33.9416104  95.9679752  93.0677248  32.6586104
  97.0019752  93.9657248  30.7896104  99.1569752  93.6767248  32.1106104
  99.3449752  92.8047248  34.2966104  97.4079752  92.1007248  35.4366104
  95.2939752  92.2537248  34.4186104  95.0979752  93.1397248  32.2366104
  97.7859752  94.2557248  30.3176104  48.5819752  22.4847248  61.7726104
  48.4789752  21.8477248  63.0086104  47.5279752  22.2667248  63.9236104
  46.6869752  23.3197248  63.5936104  46.7849752  23.9547248  62.3636104
  47.7399752  23.5397248  61.4476104  49.4749752  22.0977248  60.9176104
  49.0719752  21.1117248  63.2276104  47.4499752  21.8297248  64.7856104
  46.0199752  23.6167248  64.2326104  46.1869752  24.6867248  62.1456104
  47.8189752  23.9817248  60.5876104  50.0639752  21.3717248  61.1346104
  42.6689752  69.9847248 120.3326104  41.3599752  69.6097248 120.0336104
  40.5959752  68.9527248 120.9846104  41.1489752  68.6787248 122.2266104
  42.4509752  69.0527248 122.5296104  43.2189752  69.7067248 121.5766104
  43.3869752  70.5937248 119.4426104  40.9839752  69.8077248 119.1616104
  39.6849752  68.6877248 120.7846104  40.6169752  68.2187248 122.8956104
  42.8219752  68.8587248 123.4036104  44.1319752  69.9667248 121.7776104
  43.0159752  70.7887248 118.5786104  84.1989752  78.0957248  37.9696104
  83.8639752  77.8507248  36.6376104  84.8579752  77.7897248  35.6756104
  86.1799752  77.9727248  36.0536104  86.5189752  78.2147248  37.3776104
  85.5229752  78.2807248  38.3426104  83.2709752  78.1597248  38.8696104
  82.9359752  77.7237248  36.3856104  84.6329752  77.6217248  34.7476104
  86.8789752  77.9317248  35.3816104  87.4469752  78.3367248  37.6276104
  85.7509752  78.4547248  39.2696104  82.3519752  78.0357248  38.6206104
  96.1369752  85.1537248 134.5976104  96.1229752  85.0827248 135.9906104
  97.0119752  84.2477248 136.6476104  97.9079752  83.4927248 135.9056104
  97.9269752  83.5617248 134.5196104  97.0339752  84.3937248 133.8586104
  95.3029752  85.9287248 133.9806104  95.4929752  85.6167248 136.4976104
  97.0079752  84.1917248 137.6156104  98.5319752  82.9057248 136.3626104
  98.5619752  83.0307248 134.0146104  97.0369752  84.4437248 132.8896104
  94.6769752  86.4567248 134.4826104 122.3979752  53.0297248  98.3296104
 121.4909752  52.2817248  97.5786104 121.6449752  52.1887248  96.2046104
 122.7049752  52.8427248  95.5946104 123.6109752  53.5857248  96.3386104
 123.4569752  53.6837248  97.7146104 122.2529752  53.1227248  99.6126104
 120.7549752  51.8277248  98.0166104 121.0179752  51.6717248  95.6756104
 122.8159752  52.7797248  94.6326104 124.3499752  54.0337248  95.8996104
 124.0829752  54.2057248  98.2416104 121.5229752  52.6757248 100.0466104
  58.7659752 110.3197248  34.6616104  58.9939752 109.3137248  35.5996104
  60.1499752 109.3307248  36.3616104  61.0679752 110.3547248  36.1806104
  60.8439752 111.3587248  35.2496104  59.6879752 111.3417248  34.4816104
  57.6889752 110.3037248  33.9426104  58.3439752 108.6037248  35.7186104
  60.3169752 108.6337248  37.0156104  61.8789752 110.3687248  36.7126104
  61.4929752 112.0707248  35.1366104  59.5269752 112.0377248  33.8246104
  57.0459752 109.5997248  34.0586104  99.8679752 109.8167248 117.7376104
 101.1089752 109.8177248 118.3746104 101.1829752 110.0407248 119.7396104
 100.0149752 110.2587248 120.4556104  98.7789752 110.2557248 119.8256104
  98.7019752 110.0367248 118.4576104  99.7969752 109.6147248 116.4606104
 101.9179752 109.6627248 117.8636104 102.0419752 110.0437248 120.1906104
 100.0639752 110.4157248 121.4126104  97.9699752 110.4047248 120.3406104
  97.8419752 110.0387248 118.0086104 100.5989752 109.4637248 115.9526104
  91.6929752  48.4947248 106.3046104  91.9349752  48.0817248 104.9946104
  92.8369752  48.7787248 104.2076104  93.4909752  49.8807248 104.7376104
  93.2549752  50.2937248 106.0416104  92.3479752  49.5997248 106.8306104
  90.8459752  47.8487248 107.0406104  91.4729752  47.3087248 104.6356104
  93.0099752  48.4987248 103.2946104  94.1229752  50.3717248 104.1886104
  93.7229752  51.0637248 106.4006104  92.1739752  49.8857248 107.7416104
  90.3859752  47.0847248 106.6846104  41.9169752  99.1287248 126.7606104
  42.8219752  98.8317248 125.7416104  42.4009752  98.1187248 124.6316104
  41.0779752  97.7097248 124.5486104  40.1739752  98.0047248 125.5596104
  40.5949752  98.7147248 126.6756104  42.3099752  99.7897248 127.8026104
  43.7439752  99.1247248 125.8106104  43.0239752  97.9077248 123.9186104
  40.7799752  97.2097248 123.7726104  39.2509752  97.7157248 125.4866104
  39.9699752  98.9197248 127.3886104  43.2229752 100.0777248 127.8716104
  65.9319752  71.5777248  19.7836104  64.6789752  71.7947248  20.3566104
  64.5709752  72.5457248  21.5156104  65.7169752  73.0737248  22.0906104
  66.9649752  72.8627248  21.5226104  67.0759752  72.1067248  20.3636104
  66.0359752  70.8717248  18.7026104  63.8839752  71.4207248  19.9436104
  63.7039752  72.6997248  21.9206104  65.6449752  73.5997248  22.9036104
  67.7579752  73.2417248  21.9336104  67.9459752  71.9497248  19.9626104
  65.2499752  70.4997248  18.2956104  52.0559752 111.6887248  44.3276104
  52.1209752 112.7627248  43.4396104  51.9649752 112.5447248  42.0806104
  51.7429752 111.2537248  41.6216104  51.6749752 110.1837248  42.5016104
  51.8359752 110.3987248  43.8636104  52.2069752 111.8897248  45.5976104
  52.2759752 113.6597248  43.7726104  52.0109752 113.2847248  41.4566104
  51.6339752 111.0977248  40.6706104  51.5149752 109.2877248  42.1666104
  51.7949752 109.6547248  44.4856104  52.3619752 112.7777248  45.9276104
 112.2139752  74.9757248  76.3116104 111.8429752  75.1377248  74.9766104
 111.4599752  74.0357248  74.2286104 111.4499752  72.7827248  74.8236104
 111.8159752  72.6187248  76.1526104 112.2039752  73.7197248  76.9016104
 112.5779752  76.0037248  77.0106104 111.8529752  76.0187248  74.5726104
 111.2019752  74.1387248  73.2996104 111.1829752  72.0087248  74.3026104
 111.7999752  71.7367248  76.5556104 112.4669752  73.6127248  77.8296104
 112.5899752  76.8767248  76.6106104  37.7919752  98.3217248  50.2036104
  37.9419752  97.0577248  50.7746104  37.5769752  96.8497248  52.0946104
  37.0639752  97.9077248  52.8316104  36.9119752  99.1657248  52.2656104
  37.2809752  99.3777248  50.9446104  38.1389752  98.5187248  48.9716104
  38.2999752  96.3257248  50.2486104  37.6789752  95.9747248  52.4996104
  36.8079752  97.7657248  53.7566104  36.5479752  99.8947248  52.7916104
  37.1829752 100.2557248  50.5436104  38.4959752  97.7957248  48.4506104
  74.1489752 107.8227248  44.1186104  74.3879752 107.8937248  42.7466104
  74.5829752 109.1247248  42.1426104  74.5389752 110.2747248  42.9166104
  74.3029752 110.2087248  44.2826104  74.1029752 108.9767248  44.8896104
  73.9599752 106.6737248  44.6846104  74.4179752 107.0817248  42.2156104
  74.7489752 109.1827248  41.1886104  74.6739752 111.1387248  42.4966104
  74.2789752 111.0207248  44.8116104  73.9319752 108.9227248  45.8426104
  73.9869752 105.8697248  44.1596104  27.4019752  97.8737248  71.3876104
  28.3589752  96.8827248  71.6086104  29.1839752  96.9567248  72.7176104
  29.0449752  98.0197248  73.5976104  28.0929752  99.0067248  73.3826104
  27.2679752  98.9367248  72.2696104  26.6329752  97.8097248  70.3476104
  28.4459752  96.1437248  70.9866104  29.8529752  96.2727248  72.8776104
  29.6229752  98.0747248  74.3756104  28.0039752  99.7417248  74.0086104
  26.6029752  99.6257248  72.1086104  26.7199752  97.0797248  69.7296104
  89.0209752  38.9357248 120.2996104  89.4539752  38.1357248 121.3566104
  89.2729752  38.5607248 122.6626104  88.6589752  39.7817248 122.9006104
  88.2249752  40.5797248 121.8516104  88.4089752  40.1587248 120.5416104
  89.1939752  38.5437248 119.0776104  89.8809752  37.2837248 121.1776104
  89.5729752  38.0107248 123.4036104  88.5319752  40.0827248 123.8136104
  87.7929752  41.4287248 122.0326104  88.1129752  40.7127248 119.8026104
  89.6189752  37.7007248 118.9006104 106.2479752 107.6567248 110.9826104
 105.8429752 106.8787248 112.0676104 105.4269752 107.4907248 113.2386104
 105.4199752 108.8757248 113.3146104 105.8199752 109.6537248 112.2366104
 106.2409752 109.0427248 111.0636104 106.6429752 107.0867248 109.8896104
 105.8509752 105.9117248 112.0016104 105.1449752 106.9577248 113.9976104
 105.1299752 109.3077248 114.1336104 105.8049752 110.6207248 112.3026104
 106.5279752 109.5787248 110.3076104 106.6529752 106.1287248 109.8246104
  27.1449752  59.8957248  50.2836104  27.9109752  59.3047248  51.2876104
  27.3309752  58.9957248  52.5066104  25.9879752  59.2797248  52.7106104
  25.2219752  59.8657248  51.7126104  25.8019752  60.1797248  50.4926104
  27.6869752  60.1897248  49.1446104  28.8489752  59.1097248  51.1326104
  27.8569752  58.5857248  53.2106104  25.5789752  59.0657248  53.5636104
  24.2829752  60.0547248  51.8686104  25.2739752  60.5947248  49.7916104
  28.6149752  59.9997248  48.9916104 122.7589752  37.2027248  82.9026104
 123.2619752  38.1597248  82.0216104 122.8669752  38.1507248  80.6936104
 121.9729752  37.1837248  80.2586104 121.4679752  36.2307248  81.1326104
 121.8649752  36.2357248  82.4626104 123.1309752  37.2057248  84.1426104
 123.8859752  38.8317248  82.3376104 123.2129752  38.8117248  80.0746104
 121.6949752  37.1737248  79.3296104 120.8399752  35.5637248  80.8156104
 121.5219752  35.5697248  83.0786104 123.7499752  37.8697248  84.4566104
 129.4169752  98.9057248  89.6546104 130.3199752  99.6247248  88.8716104
 130.5069752  99.2817248  87.5426104 129.7879752  98.2227248  87.0076104
 128.8869752  97.5057248  87.7826104 128.7009752  97.8447248  89.1156104
 129.2449752  99.2207248  90.8986104 130.8159752 100.3637248  89.2566104
 131.1339752  99.7757248  86.9916104 129.9179752  97.9787248  86.0776104
 128.3879752  96.7707248  87.3946104 128.0779752  97.3457248  89.6656104
 129.7379752  99.9517248  91.2806104 127.1059752  89.8567248  84.7746104
 126.8079752  88.4997248  84.6566104 127.6369752  87.5577248  85.2426104
 128.7559752  87.9817248  85.9446104 129.0549752  89.3307248  86.0666104
 128.2279752  90.2767248  85.4756104 126.3359752  90.7387248  84.2226104
 126.0219752  88.2157248  84.1646104 127.4369752  86.6117248  85.1646104
 129.3389752  87.3237248  86.3556104 129.8379752  89.6127248  86.5636104
 128.4329752  91.2217248  85.5516104 125.5579752  90.4587248  83.7336104
  82.7089752  42.2957248  37.7116104  83.2079752  41.1477248  38.3266104
  83.1129752  41.0047248  39.7016104  82.5189752  42.0107248  40.4486104
  82.0179752  43.1527248  39.8406104  82.1169752  43.3007248  38.4636104
  82.8019752  42.4337248  36.4276104  83.6209752  40.4497248  37.7936104
  83.4589752  40.2097248  40.1376104  82.4509752  41.9137248  41.4116104
  81.6009752  43.8467248  40.3746104  81.7749752  44.0987248  38.0316104
  83.2119752  41.7447248  35.8996104  87.1229752  61.6817248 110.4666104
  88.2359752  62.4607248 110.1536104  88.3569752  63.7357248 110.6806104
  87.3629752  64.2207248 111.5176104  86.2549752  63.4477248 111.8346104
  86.1289752  62.1717248 111.3036104  87.0049752  60.4907248 109.9706104
  88.9249752  62.1097248 109.5676104  89.1279752  64.2837248 110.4666104
  87.4439752  65.1137248 111.8886104  85.5699752  63.7977248 112.4246104
  85.3549752  61.6267248 111.5156104  87.6859752  60.1447248 109.3886104
 137.7519752  80.9717248  76.9146104 138.6789752  81.7367248  77.6226104
 138.7139752  81.6717248  79.0056104 137.8229752  80.8407248  79.6686104
 136.9009752  80.0757248  78.9686104 136.8609752  80.1427248  77.5826104
 137.7129752  81.0357248  75.6216104 139.2969752  82.3127248  77.1476104
 139.3539752  82.2017248  79.5056104 137.8449752  80.7937248  80.6376104
 136.2869752  79.4967248  79.4446104 136.2149752  79.6157248  77.0856104
 138.3239752  81.6077248  75.1506104 128.7029752  93.5747248  94.9336104
 127.5729752  93.3267248  95.7126104 127.5939752  93.6067248  97.0686104
 128.7459752  94.1337248  97.6346104 129.8719752  94.3847248  96.8626104
 129.8539752  94.1007248  95.5046104 128.6869752  93.3087248  93.6666104
 126.7729752  92.9587248  95.3046104 126.8129752  93.4357248  97.6166104
 128.7649752  94.3297248  98.5846104 130.6679752  94.7567248  97.2716104
 130.6389752  94.2677248  94.9596104 127.8969752  92.9427248  93.2626104
 115.3359752 108.9617248  81.2196104 115.1719752 108.8447248  79.8386104
 114.1809752 109.5707248  79.1986104 113.3639752 110.4077248  79.9446104
 113.5259752 110.5277248  81.3176104 114.5149752 109.7987248  81.9616104
 116.2589752 108.2797248  81.8206104 115.7509752 108.2567248  79.3286104
 114.0589752 109.4937248  78.2396104 112.6679752 110.9167248  79.4996104
 112.9499752 111.1207248  81.8256104 114.6309752 109.8727248  82.9226104
 116.8299752 107.6957248  81.3156104  34.6269752  58.9847248 112.9586104
  34.4529752  59.3227248 111.6166104  35.5579752  59.5857248 110.8226104
  36.8259752  59.5077248 111.3786104  37.0039752  59.1687248 112.7126104
  35.8979752  58.9087248 113.5106104  33.5949752  58.7437248 113.7036104
  33.5609752  59.3727248 111.2396104  35.4459752  59.8227248 109.8896104
  37.6019752  59.6917248 110.8256104  37.8969752  59.1137248 113.0866104
  36.0129752  58.6777248 114.4456104  32.7119752  58.7957248 113.3316104
 121.2339752  41.0787248 106.3896104 121.9519752  42.0957248 107.0186104
 122.0089752  42.1467248 108.4016104 121.3479752  41.1777248 109.1436104
 120.6349752  40.1627248 108.5216104 120.5729752  40.1127248 107.1356104
 121.1749752  41.0337248 105.0966104 122.4109752  42.7667248 106.4896104
 122.5039752  42.8507248 108.8476104 121.3849752  41.2107248 110.1126104
 120.1819752  39.4897248 109.0526104 120.0719752  39.4097248 106.6926104
 121.6269752  41.6987248 104.5716104  27.3109752  64.4957248  88.1726104
  28.2579752  64.7387248  89.1676104  28.4829752  66.0337248  89.6046104
  27.7579752  67.0747248  89.0426104  26.8129752  66.8377248  88.0546104
  26.5889752  65.5407248  87.6126104  27.1029752  63.2867248  87.7586104
  28.7579752  64.0027248  89.5526104  29.1409752  66.2117248  90.2946104
  27.9139752  67.9837248  89.3466104  26.3099752  67.5747248  87.6746104
  25.9339752  65.3667248  86.9176104  27.5999752  62.5577248  88.1386104
  43.2589752 100.5237248  40.8296104  42.2209752  99.5917248  40.8436104
  40.9529752  99.9777248  41.2426104  40.7319752 101.2927248  41.6236104
  41.7609752 102.2237248  41.6096104  43.0349752 101.8377248  41.2136104
  44.4479752 100.1627248  40.4626104  42.3879752  98.6747248  40.5726104
  40.2259752  99.3357248  41.2556104  39.8449752 101.5667248  41.9046104
  41.5919752 103.1407248  41.8746104  43.7609752 102.4817248  41.2066104
  44.6129752  99.2547248  40.1966104  40.9869752  28.8867248  55.6156104
  40.3109752  27.8697248  56.2896104  40.0619752  27.9887248  57.6466104
  40.4889752  29.1247248  58.3176104  41.1589752  30.1407248  57.6506104
  41.4139752  30.0217248  56.2916104  41.2259752  28.7747248  54.3476104
  40.0159752  27.0807248  55.8086104  39.5939752  27.2857248  58.1226104
  40.3169752  29.2107248  59.2686104  41.4479752  30.9307248  58.1326104
  41.8869752  30.7247248  55.8186104  40.9369752  27.9927248  53.8716104
 128.4059752  43.3867248  98.4856104 128.5249752  44.6177248  99.1296104
 127.9599752  44.7987248 100.3816104 127.2819752  43.7457248 100.9786104
 127.1639752  42.5177248 100.3416104 127.7259752  42.3357248  99.0856104
 128.9289752  43.2167248  97.3126104 129.0019752  45.3457248  98.7026104
 128.0369752  45.6517248 100.8356104 126.8849752  43.8687248 101.8546104
 126.6909752  41.7897248 100.7736104 127.6429752  41.4827248  98.6316104
 129.3999752  43.9387248  96.8886104  25.8939752  66.4407248  54.8086104
  24.7059752  67.1617248  54.6906104  24.1729752  67.4127248  53.4366104
  24.8329752  66.9397248  52.3116104  26.0139752  66.2207248  52.4246104
  26.5519752  65.9707248  53.6796104  26.3969752  66.2087248  55.9786104
  24.2539752  67.4857248  55.4846104  23.3479752  67.9147248  53.3466104
  24.4619752  67.1157248  51.4326104  26.4619752  65.8927248  51.6296104
  27.3799752  65.4727248  53.7666104  25.9509752  66.5317248  56.7656104
  93.7529752  56.0257248 104.8356104  92.7839752  56.3457248 105.7866104
  91.8919752  55.3757248 106.2156104  91.9789752  54.0947248 105.6906104
  92.9439752  53.7717248 104.7466104  93.8349752  54.7427248 104.3126104
  94.5839752  56.9317248 104.4296104  92.7339752  57.2447248 106.1466104
  91.2139752  55.5907248 106.8746104  91.3549752  53.4137248 105.9886104
  92.9949752  52.8707248 104.3926104  94.5089752  54.5267248 103.6486104
  94.5339752  57.8227248 104.7846104  94.2559752 102.8697248  63.8866104
  93.6699752 103.7037248  64.8396104  94.2729752 104.9067248  65.1666104
  95.4559752 105.2667248  64.5376104  96.0399752 104.4407248  63.5866104
  95.4399752 103.2327248  63.2606104  93.6969752 101.7417248  63.5826104
  92.8429752 103.4417248  65.2716104  93.8739752 105.4917248  65.8286104
  95.8809752 106.1087248  64.7646104  96.8649752 104.7077248  63.1516104
  95.8449752 102.6477248  62.6006104  92.8789752 101.4807248  64.0126104
  21.7099752  52.0757248  62.4766104  20.8979752  50.9487248  62.5946104
  21.4369752  49.6867248  62.4066104  22.7849752  49.5627248  62.1036104
  23.5979752  50.6827248  61.9876104  23.0579752  51.9477248  62.1706104
  21.2069752  53.2567248  62.6456104  19.9569752  51.0477248  62.8076104
  20.8789752  48.8977248  62.4856104  23.1659752  48.6807248  61.9706104
  24.5389752  50.5807248  61.7796104  23.6179752  52.7357248  62.0856104
  20.2749752  53.3557248  62.8546104  61.5969752  77.1657248 130.8616104
  60.4529752  77.5687248 131.5496104  59.2119752  77.0857248 131.1666104
  59.1269752  76.2027248 130.1006104  60.2639752  75.7977248 129.4146104
  61.5069752  76.2837248 129.7926104  62.7569752  77.6207248 131.2136104
  60.5249752  78.1857248 132.2946104  58.4109752  77.3617248 131.6396104
  58.2589752  75.8627248 129.8296104  60.1889752  75.1767248 128.6736104
  62.3059752  76.0097248 129.3156104  62.8289752  78.2327248 131.9496104
  79.3609752 108.0687248 121.2766104  79.5339752 109.3377248 120.7246104
  79.7479752 109.4747248 119.3626104  79.7849752 108.3407248 118.5646104
  79.6109752 107.0757248 119.1096104  79.4009752 106.9367248 120.4746104
  79.1669752 107.9387248 122.5506104  79.5049752 110.1237248 121.2926104
  79.8709752 110.3527248 118.9706104  79.9359752 108.4327248 117.6106104
  79.6349752 106.2927248 118.5396104  79.2829752 106.0557248 120.8646104
  79.1399752 108.7157248 123.1136104  70.9089752 139.7437248  77.2996104
  69.5609752 139.5827248  77.6186104  69.0619752 138.3197248  77.8916104
  69.9169752 137.2277248  77.8436104  71.2589752 137.3837248  77.5286104
  71.7599752 138.6477248  77.2506104  71.3759752 140.9227248  77.0386104
  68.9739752 140.3547248  77.6506104  68.1259752 138.1997248  78.1136104
  69.5699752 136.3417248  78.0326104  71.8459752 136.6117248  77.5026104
  72.6959752 138.7647248  77.0236104  70.7949752 141.6857248  77.0676104
 104.0929752  52.8487248  90.2806104 103.5619752  53.2217248  91.5156104
 103.3579752  52.2647248  92.4956104 103.6869752  50.9427248  92.2336104
 104.2179752  50.5677248  91.0066104 104.4189752  51.5247248  90.0206104
 104.2789752  53.7407248  89.3606104 103.3369752  54.1487248  91.6876104
 102.9889752  52.5157248  93.3566104 103.5449752  50.2697248  92.9176104
 104.4469752  49.6407248  90.8386104 104.7839752  51.2697248  89.1586104
 104.0539752  54.6587248  89.5296104  48.5189752  64.0987248 126.3796104
  49.0889752  65.2677248 125.8746104  48.3389752  66.1067248 125.0676104
  47.0259752  65.7707248 124.7726104  46.4549752  64.6097248 125.2756104
  47.2059752  63.7647248 126.0806104  49.2199752  63.3097248 127.1306104
  50.0069752  65.4927248 126.0896104  48.7279752  66.9207248 124.7106104
  46.4979752  66.3557248 124.2066104  45.5349752  64.3887248 125.0646104
  46.8159752  62.9487248 126.4316104  50.1309752  63.5317248 127.3416104
  24.1929752  40.2457248  89.3656104  24.0749752  40.1457248  87.9796104
  24.4839752  41.1957248  87.1746104  25.0079752  42.3377248  87.7626104
  25.1299752  42.4407248  89.1416104  24.7169752  41.3917248  89.9506104
  23.8059752  39.2677248  90.1216104  23.7079752  39.3417248  87.5806104
  24.4039752  41.1347248  86.2106104  25.2949752  43.0757248  87.2016104
  25.5019752  43.2427248  89.5386104  24.7929752  41.4577248  90.9156104
  23.4399752  38.4727248  89.7266104 112.1279752  33.0507248 103.9826104
 111.9929752  33.9537248 102.9286104 112.7389752  33.7827248 101.7746104
 113.6129752  32.7087248 101.6836104 113.7479752  31.8067248 102.7286104
 113.0049752  31.9787248 103.8886104 111.4359752  33.2117248 105.0656104
 111.3779752  34.6997248 103.0036104 112.6519752  34.4077248 101.0376104
 114.1369752  32.5867248 100.8766104 114.3589752  31.0577248 102.6496104
 113.0979752  31.3547248 104.6266104 110.8289752  33.9507248 105.1416104
  71.1349752  23.5167248 108.4676104  71.0979752  23.5857248 107.0746104
  71.5489752  24.7257248 106.4286104  72.0339752  25.7857248 107.1806104
  72.0749752  25.7197248 108.5666104  71.6199752  24.5807248 109.2166104
  70.7089752  22.4547248 109.0736104  70.7579752  22.8377248 106.5596104
  71.5249752  24.7817248 105.4606104  72.3489752  26.5857248 106.7316104
  72.4199752  26.4667248 109.0786104  71.6389752  24.5287248 110.1846104
  70.3709752  21.7147248 108.5646104  39.6929752  68.3417248  39.7246104
  38.7099752  67.4507248  39.2936104  37.5069752  67.3697248  39.9746104
  37.2959752  68.1817248  41.0796104  38.2699752  69.0717248  41.5096104
  39.4789752  69.1517248  40.8316104  40.8209752  68.4157248  39.0926104
  38.8689752  66.8897248  38.5186104  36.8189752  66.7517248  39.6826104
  36.4539752  68.1267248  41.5586104  38.1069752  69.6357248  42.2806104
  40.1669752  69.7667248  41.1296104  40.9799752  67.8587248  38.3276104
 107.9209752 113.0247248  91.5156104 107.5149752 112.2137248  90.4566104
 106.1729752 112.1327248  90.1236104 105.2479752 112.8657248  90.8526104
 105.6479752 113.6767248  91.9056104 106.9919752 113.7557248  92.2436104
 109.1749752 113.0967248  91.8316104 108.1719752 111.7067248  89.9536104
 105.8819752 111.5697248  89.3896104 104.3069752 112.8117248  90.6226104
 104.9909752 114.1867248  92.4036104 107.2789752 114.3157248  92.9826104
 109.8239752 112.5937248  91.3356104  82.0189752  29.6257248  57.4596104
  81.1049752  28.9047248  58.2276104  80.8889752  29.2537248  59.5506104
  81.5879752  30.3217248  60.0936104  82.4969752  31.0427248  59.3316104
  82.7179752  30.6927248  58.0076104  82.2269752  29.2977248  56.2236104
  80.6209752  28.1607248  57.8366104  80.2559752  28.7567248  60.0916104
  81.4389752  30.5677248  61.0206104  82.9749752  31.7897248  59.7236104
  83.3559752  31.1887248  57.4696104  81.7499752  28.5597248  55.8366104
  61.6819752  34.4667248  94.7166104  62.7549752  34.0667248  95.5126104
  63.5709752  33.0267248  95.0986104  63.3069752  32.3967248  93.8916104
  62.2419752  32.7937248  93.0946104  61.4209752  33.8327248  93.5096104
  60.9149752  35.4357248  95.1036104  62.9299752  34.5157248  96.3536104
  64.3179752  32.7407248  95.6466104  63.8759752  31.6667248  93.5986104
  62.0719752  32.3467248  92.2516104  60.6709752  34.1127248  92.9616104
  61.0869752  35.8787248  95.9386104  38.3219752  62.4347248  97.7536104
  37.1429752  62.7347248  97.0706104  36.0539752  61.8837248  97.1676104
  36.1539752  60.7417248  97.9476104  37.3239752  60.4407248  98.6306104
  38.4179752  61.2887248  98.5316104  39.3429752  63.2257248  97.6596104
  37.0859752  63.5377248  96.5296104  35.2319752  62.0847248  96.6956104
  35.3929752  60.1427248  98.0176104  37.3769752  59.6407248  99.1756104
  39.2409752  61.0827248  99.0006104  39.2879752  64.0197248  97.1216104
  24.2569752 103.5917248  71.3566104  24.9249752 104.3137248  72.3456104
  26.2369752 103.9997248  72.6616104  26.8689752 102.9667248  71.9866104
  26.2079752 102.2467248  71.0006104  24.8929752 102.5567248  70.6846104
  23.0289752 103.8797248  71.0636104  24.4729752 105.0357248  72.8096104
  26.7079752 104.4967248  73.3486104  27.7869752 102.7437248  72.2056104
  26.6639752 101.5297248  70.5336104  24.4219752 102.0547248  70.0006104
  22.5799752 104.5927248  71.5246104  30.7749752  42.7567248  52.1986104
  31.1839752  41.6367248  52.9226104  30.3439752  41.0867248  53.8756104
  29.0999752  41.6597248  54.0966104  28.6879752  42.7727248  53.3766104
  29.5299752  43.3287248  52.4236104  31.5609752  43.2767248  51.3106104
  32.0559752  41.2437248  52.7586104  30.6219752  40.3087248  54.3846104
  28.5089752  41.2777248  54.7636104  27.8139752  43.1607248  53.5386104
  29.2519752  44.1097248  51.9206104  32.4249752  42.8887248  51.1496104
  77.3109752 109.0497248  30.1926104  77.2699752 109.5267248  28.8826104
  77.2449752 108.6347248  27.8236104  77.2599752 107.2727248  28.0836104
  77.2979752 106.7927248  29.3856104  77.3279752 107.6847248  30.4486104
  77.3399752 109.8817248  31.1846104  77.2589752 110.4817248  28.7136104
  77.2179752 108.9587248  26.9106104  77.2429752 106.6447248  27.3446104
  77.3039752 105.8377248  29.5526104  77.3599752 107.3587248  31.3616104
  77.3309752 110.8277248  31.0176104 122.7179752 117.2557248  89.2826104
 121.7479752 118.1117248  88.7606104 121.5709752 119.3707248  89.3106104
 122.3659752 119.7627248  90.3786104 123.3329752 118.9147248  90.8996104
 123.5089752 117.6517248  90.3526104 122.8809752 116.0757248  88.7736104
 121.1999752 117.8267248  88.0136104 120.8979752 119.9707248  88.9546104
 122.2429752 120.6427248  90.7666104 123.8839752 119.2037248  91.6426104
 124.1799752 117.0497248  90.7146104 122.3369752 115.7927248  88.0356104
  26.7629752  95.3787248  75.6536104  27.6939752  95.9977248  76.4876104
  27.4829752  96.0237248  77.8566104  26.3439752  95.4297248  78.3796104
  25.4169752  94.8107248  77.5526104  25.6229752  94.7867248  76.1806104
  26.9549752  95.3577248  74.3726104  28.4869752  96.4087248  76.1106104
  28.1249752  96.4537248  78.4436104  26.1929752  95.4477248  79.3376104
  24.6269752  94.3957248  77.9326104  24.9769752  94.3607248  75.5956104
  27.7389752  95.7657248  73.9986104 110.7019752  98.9077248  66.4716104
 111.9079752  99.3397248  67.0236104 112.7169752 100.2147248  66.3166104
 112.3109752 100.6507248  65.0636104 111.1109752 100.2257248  64.5126104
 110.3009752  99.3467248  65.2166104 109.9469752  98.0857248  67.1286104
 112.1799752  99.0277248  67.9006104 113.5569752 100.5177248  66.6926104
 112.8759752 101.2637248  64.5656104 110.8379752 100.5437248  63.6376104
 109.4629752  99.0397248  64.8356104 110.2179752  97.7757248  67.9956104
  26.7039752  92.1827248  64.5996104  27.5279752  91.9057248  65.6906104
  26.9869752  91.3557248  66.8406104  25.6269752  91.0857248  66.8896104
  24.8049752  91.3577248  65.8046104  25.3439752  91.9127248  64.6526104
  27.2069752  92.7027248  63.5256104  28.4769752  92.0977248  65.6446104
  27.5519752  91.1617248  67.6046104  25.2449752  90.7007248  67.6936104
  23.8569752  91.1597248  65.8516104  24.7749752  92.1117248  63.8926104
  28.1459752  92.8957248  63.4796104  99.6059752 106.5917248 122.9906104
  99.0199752 107.8557248 122.9226104  97.9209752 108.0637248 122.1066104
  97.4169752 107.0057248 121.3646104  97.9949752 105.7457248 121.4306104
  99.0989752 105.5357248 122.2446104 100.6369752 106.3957248 123.7486104
  99.3819752 108.5877248 123.4476104  97.5089752 108.9397248 122.0526104
  96.6479752 107.1487248 120.7906104  97.6289752 105.0147248 120.9096104
  99.5129752 104.6597248 122.2916104 100.9969752 107.1207248 124.2666104
 124.8989752  55.4957248 103.1246104 124.8999752  55.6187248 101.7346104
 125.7179752  56.5547248 101.1256104 126.5299752  57.3607248 101.9106104
 126.5339752  57.2407248 103.2926104 125.7109752  56.3057248 103.9066104
 124.1309752  54.6257248 103.6976104 124.3289752  55.0477248 101.1966104
 125.7229752  56.6467248 100.1596104 127.1029752  58.0177248 101.4866104
 127.1099752  57.8077248 103.8286104 125.7039752  56.2197248 104.8726104
 123.5629752  54.0627248 103.1646104  77.6429752  47.7487248 115.0876104
  76.9629752  46.9017248 114.2126104  77.2949752  45.5587248 114.1536104
  78.3049752  45.0737248 114.9716104  78.9829752  45.9117248 115.8456104
  78.6549752  47.2587248 115.9026104  77.3379752  49.0057248 115.1406104
  76.2569752  47.2527248 113.6476104  76.8279752  44.9637248 113.5476104
  78.5419752  44.1327248 114.9326104  79.6839752  45.5577248 116.4136104
  79.1279752  47.8527248 116.5066104  76.6409752  49.3547248 114.5786104
  61.2209752  73.9907248  37.4516104  60.5659752  74.8367248  36.5566104
  60.5979752  74.5627248  35.1986104  61.2839752  73.4437248  34.7486104
  61.9349752  72.5987248  35.6366104  61.9079752  72.8737248  36.9966104
  61.1969752  74.2487248  38.7206104  60.0879752  75.6147248  36.8836104
  60.1459752  75.1457248  34.5696104  61.3099752  73.2497248  33.7986104
  62.4069752  71.8177248  35.3076104  62.3659752  72.2917248  37.6236104
  60.7259752  75.0197248  39.0446104  84.4439752 103.7427248  60.6206104
  84.6799752 102.4477248  60.1606104  85.4749752 102.2467248  59.0446104
  86.0269752 103.3427248  58.3976104  85.7969752 104.6327248  58.8536104
  84.9969752 104.8367248  59.9696104  83.6969752 103.9337248  61.6616104
  84.2889752 101.6887248  60.6226104  85.6429752 101.3487248  58.7176104
  86.5829752 103.2047248  57.6146104  86.1929752 105.3887248  58.3946104
  84.8269752 105.7367248  60.2916104  83.3079752 103.1837248  62.1166104
  84.5389752  17.1157248  90.2926104  84.8579752  16.3957248  91.4436104
  84.4549752  15.0757248  91.5656104  83.7389752  14.4877248  90.5336104
  83.4219752  15.1997248  89.3856104  83.8199752  16.5237248  89.2636104
  84.9089752  18.3517248  90.1796104  85.3609752  16.8177248  92.1576104
  84.6719752  14.5677248  92.3626104  83.4549752  13.5627248  90.6156104
  82.9239752  14.7737248  88.6706104  83.5979752  17.0307248  88.4666104
  85.4049752  18.7707248  90.8876104  74.3419752 126.6657248 107.2736104
  73.5199752 127.7877248 107.3756104  72.7059752 127.9487248 108.4836104
  72.7209752 126.9857248 109.4826104  73.5389752 125.8687248 109.3866104
  74.3529752 125.7027248 108.2746104  75.0999752 126.5097248 106.2356104
  73.5199752 128.4547248 106.6706104  72.1299752 128.7257248 108.5616104
  72.1509752 127.0947248 110.2596104  73.5419752 125.2057248 110.0946104
  74.9229752 124.9227248 108.1976104  75.0979752 127.1687248 105.5376104
  86.9069752  66.1927248 125.8396104  86.8349752  66.6477248 127.1566104
  87.2569752  67.9297248 127.4686104  87.7469752  68.7467248 126.4596104
  87.8179752  68.2987248 125.1486104  87.3999752  67.0137248 124.8346104
  86.5189752  64.9927248 125.5476104  86.4889752  66.0677248 127.8526104
  87.2109752  68.2527248 128.3816104  88.0439752  69.6447248 126.6746104
  88.1589752  68.8827248 124.4526104  87.4519752  66.6907248 123.9206104
  86.1789752  64.4177248 126.2366104  61.6149752 124.5817248  91.3756104
  62.4659752 125.4267248  92.0886104  63.5859752 124.9077248  92.7166104
  63.8459752 123.5477248  92.6246104  63.0029752 122.7047248  91.9146104
  61.8779752 123.2217248  91.2886104  60.5639752 125.0647248  90.7926104
  62.2739752 126.3757248  92.1446104  64.1819752 125.4877248  93.2156104
  64.6299752 123.1807248  93.0646104  63.1999752 121.7567248  91.8556104
  61.2809752 122.6377248  90.7946104  60.3719752 126.0037248  90.8496104
 100.4649752  37.3847248  83.7726104 100.1839752  36.0557248  84.0906104
 101.0699752  35.0567248  83.7236104 102.2299752  35.3947248  83.0416104
 102.5139752  36.7157248  82.7246104 101.6259752  37.7177248  83.0886104
  99.6359752  38.3197248  84.1096104  99.3709752  35.8327248  84.5686104
 100.8819752  34.1297248  83.9396104 102.8519752  34.6967248  82.7816104
 103.3309752  36.9377248  82.2516104 101.8149752  38.6437248  82.8656104
  98.8289752  38.0987248  84.5816104  34.1149752  83.1147248  56.9016104
  33.0279752  82.6367248  57.6326104  32.8299752  81.2717248  57.7626104
  33.7229752  80.3967248  57.1616104  34.8079752  80.8687248  56.4356104
  35.0049752  82.2357248  56.2996104  34.2989752  84.3907248  56.7736104
  32.4109752  83.2587248  58.0496104  32.0759752  80.9317248  58.2686104
  33.5869752  79.4397248  57.2496104  35.4259752  80.2447248  56.0236104
  35.7579752  82.5737248  55.7896104  33.6869752  85.0067248  57.1846104
  86.0949752 114.9227248 120.7646104  84.9449752 115.0587248 121.5416104
  84.6269752 114.0897248 122.4786104  85.4629752 112.9937248 122.6316104
  86.6099752 112.8557248 121.8616104  86.9279752 113.8227248 120.9196104
  86.3919752 115.8247248 119.8836104  84.3689752 115.8307248 121.4266104
  83.8289752 114.1767248 123.0226104  85.2429752 112.3127248 123.2866104
  87.1869752 112.0857248 121.9826104  87.7249752 113.7307248 120.3736104
  85.8209752 116.5877248 119.7676104 116.4519752  35.3027248  97.5206104
 117.7049752  35.0067248  98.0556104 118.0169752  35.4087248  99.3446104
 117.0729752  36.1027248 100.0866104 115.8239752  36.3977248  99.5576104
 115.5099752  35.9997248  98.2656104 116.1589752  34.9327248  96.3146104
 118.3559752  34.5197248  97.5276104 118.8869752  35.2077248  99.7236104
 117.2889752  36.3857248 100.9886104 115.1719752  36.8797248 100.0896104
 114.6409752  36.2067248  97.8876104 116.8049752  34.4527248  95.7906104
  68.8049752  36.3957248  40.9986104  68.2599752  35.1547248  41.3256104
  68.3629752  34.0987248  40.4356104  69.0129752  34.2927248  39.2256104
  69.5589752  35.5257248  38.8966104  69.4529752  36.5867248  39.7846104
  68.7049752  37.3867248  41.8266104  67.8089752  35.0317248  42.1756104
  67.9859752  33.2337248  40.6556104  69.0859752  33.5557248  38.5996104
  70.0139752  35.6457248  38.0486104  69.8269752  37.4527248  39.5606104
  68.2569752  37.2647248  42.6666104  56.4379752  73.2847248  27.2676104
  55.8829752  74.5647248  27.2796104  55.1719752  74.9977248  28.3876104
  55.0239752  74.1467248  29.4726104  55.5759752  72.8737248  29.4656104
  56.2849752  72.4367248  28.3556104  57.0979752  72.8767248  26.2306104
  55.9949752  75.1507248  26.5146104  54.7819752  75.8857248  28.4036104
  54.5259752  74.4467248  30.2496104  55.4679752  72.2917248  30.2336104
  56.6699752  71.5457248  28.3396104  57.2069752  73.4557248  25.4726104
 105.8159752  33.1297248  72.6116104 104.6429752  33.1877248  71.8586104
 104.7129752  33.2267248  70.4756104 105.9549752  33.2057248  69.8586104
 107.1229752  33.1457248  70.6036104 107.0559752  33.1107248  71.9896104
 105.7529752  33.0997248  73.9046104 103.7799752  33.2007248  72.3016104
 103.9019752  33.2687248  69.9446104 106.0069752  33.2337248  68.8896104
 107.9839752  33.1267248  70.1586104 107.8689752  33.0747248  72.5186104
 104.8989752  33.1147248  74.3446104 106.1459752  60.7207248 105.7136104
 104.9919752  60.9277248 106.4696104 105.0949752  61.2087248 107.8226104
 106.3509752  61.2827248 108.4066104 107.5019752  61.0797248 107.6566104
 107.4009752  60.7927248 106.3026104 106.0519752  60.4517248 104.4506104
 104.1199752  60.8747248 106.0496104 104.2979752  61.3527248 108.3556104
 106.4269752  61.4787248 109.3536104 108.3729752  61.1387248 108.0776104
 108.1999752  60.6447248 105.7726104 105.1879752  60.3967248 104.0346104
  77.2949752  40.1627248 113.6486104  77.0729752  38.8967248 113.1066104
  77.9679752  37.8707248 113.3616104  79.0769752  38.1197248 114.1576104
  79.2999752  39.3767248 114.7006104  78.4069752  40.4077248 114.4426104
  76.4629752  41.1247248 113.4066104  76.2929752  38.7347248 112.5536104
  77.8219752  36.9877248 112.9886104  79.7059752  37.4027248 114.3376104
  80.0769752  39.5357248 115.2586104  78.5589752  41.2917248 114.8136104
  75.6919752  40.9657248 112.8566104 127.0159752  96.3647248  56.0986104
 126.3809752  95.1537248  55.8196104 126.6259752  94.0477248  56.6166104
 127.5029752  94.1617248  57.6856104 128.1339752  95.3647248  57.9676104
 127.8939752  96.4737248  57.1686104 126.7919752  97.3987248  55.3526104
 125.7689752  95.0867248  55.0706104 126.1899752  93.2017248  56.4286104
 127.6769752  93.3877248  58.2446104 128.7409752  95.4307248  58.7206104
 128.3349752  97.3167248  57.3556104 126.1879752  97.3327248  54.6086104
  88.3939752 122.4697248  47.9306104  88.8179752 123.4037248  48.8756104
  88.3659752 123.3177248  50.1826104  87.4929752 122.2967248  50.5326104
  87.0709752 121.3647248  49.5956104  87.5189752 121.4517248  48.2846104
  88.8109752 122.5527248  46.7076104  89.4289752 124.1117248  48.6196104
  88.6549752 123.9637248  50.8456104  87.1739752 122.2337248  51.4466104
  86.4639752 120.6537248  49.8556104  87.2239752 120.8067248  47.6226104
  89.4139752 123.2547248  46.4526104  55.0639752  39.2967248 120.8256104
  54.2849752  39.9147248 121.8046104  52.9839752  39.4907248 122.0206104
  52.4739752  38.4517248 121.2566104  53.2459752  37.8317248 120.2836104
  54.5479752  38.2577248 120.0626104  56.2789752  39.6947248 120.6186104
  54.6539752  40.6397248 122.3326104  52.4359752  39.9167248 122.6976104
  51.5629752  38.1527248 121.4046104  52.8769752  37.1037248 119.7606104
  55.0929752  37.8337248 119.3806104  56.6429752  40.4137248 121.1396104
  58.1529752 124.5737248  51.7886104  57.4119752 123.4587248  51.3956104
  56.5699752 122.8367248  52.3016104  56.4749752 123.3347248  53.5926104
  57.2079752 124.4457248  53.9866104  58.0559752 125.0687248  53.0816104
  58.9449752 125.1547248  50.9446104  57.4869752 123.1207248  50.4896104
  56.0529752 122.0597248  52.0366104  55.8859752 122.9007248  54.2306104
  57.1279752 124.7847248  54.8916104  58.5759752 125.8417248  53.3506104
  59.0209752 124.8187248  50.0476104 105.3169752  76.6917248  42.8016104
 105.4449752  77.2327248  41.5226104 106.3269752  76.6647248  40.6186104
 107.0729752  75.5587248  41.0016104 106.9469752  75.0167248  42.2726104
 106.0669752  75.5867248  43.1816104 104.4979752  77.2247248  43.6506104
 104.9169752  78.0047248  41.2666104 106.4229752  77.0347248  39.7276104
 107.6929752  75.1587248  40.3706104 107.4719752  74.2407248  42.5246104
 105.9769752  75.2167248  44.0736104 103.9769752  77.9907248  43.3986104
  51.0249752 116.1457248  96.4136104  52.2669752 116.6697248  96.7716104
  52.6669752 117.8987248  96.2736104  51.8199752 118.5937248  95.4226104
  50.5819752 118.0767248  95.0666104  50.1819752 116.8437248  95.5606104
  50.6519752 114.9937248  96.8736104  52.8499752 116.1747248  97.3686104
  53.5289752 118.2697248  96.5166104  52.0969752 119.4547248  95.0716104
  49.9989752 118.5767248  94.4736104  49.3199752 116.4727248  95.3116104
  51.2289752 114.5027248  97.4626104 128.0699752  77.1097248  95.8336104
 127.8699752  78.4297248  95.4306104 126.8889752  79.1957248  96.0396104
 126.1179752  78.6337248  97.0466104 126.3159752  77.3207248  97.4516104
 127.2939752  76.5507248  96.8396104 128.9829752  76.3897248  95.2616104
 128.4169752  78.8117248  94.7266104 126.7429752  80.1137248  95.7656104
 125.4299752  79.1667248  97.4746104 125.7719752  76.9437248  98.1596104
 127.4349752  75.6307248  97.1126104 129.5219752  76.7667248  94.5626104
 123.2719752  76.4537248 106.8306104 122.0449752  77.0607248 106.5636104
 121.4479752  77.8617248 107.5236104 122.0849752  78.0497248 108.7416104
 123.3069752  77.4497248 109.0096104 123.9049752  76.6427248 108.0516104
 123.8279752  75.6987248 105.9366104 121.6099752  76.9217248 105.7076104
 120.5949752  78.2857248 107.3466104 121.6699752  78.6097248 109.4156104
 123.7429752  77.5937248 109.8636104 124.7559752  76.2147248 108.2326104
 123.3969752  75.5607248 105.0896104  79.9029752  38.4787248 101.5876104
  79.3149752  37.4077248 102.2606104  79.9889752  36.2017248 102.3596104
  81.2459752  36.0777248 101.7856104  81.8349752  37.1417248 101.1176104
  81.1599752  38.3497248 101.0136104  79.2719752  39.6057248 101.4896104
  78.4369752  37.5077248 102.6596104  79.5869752  35.4517248 102.8246104
  81.7199752  35.2337248 101.8526104  82.7159752  37.0417248 100.7246104
  81.5619752  39.0967248 100.5426104  78.4009752  39.7037248 101.8816104
  73.1649752 129.8117248  61.0686104  72.0029752 129.3437248  60.4546104
  71.4549752 130.0417248  59.3916104  72.0749752 131.2017248  58.9506104
  73.2319752 131.6697248  59.5566104  73.7809752 130.9737248  60.6246104
  73.6769752 129.1637248  62.0656104  71.5799752 128.5307248  60.7716104
  70.6469752 129.7237248  58.9606104  71.6929752 131.6947248  58.2066104
  73.6569752 132.4797248  59.2346104  74.5869752 131.2977248  61.0576104
  73.2569752 128.3597248  62.3816104 126.8729752  86.3117248  68.4756104
 126.1239752  85.8347248  69.5516104 125.2309752  86.6737248  70.1966104
 125.0929752  87.9827248  69.7586104 125.8339752  88.4607248  68.6876104
 126.7329752  87.6227248  68.0426104 127.7129752  85.5307248  67.8756104
 126.2289752  84.9167248  69.8476104 124.7079752  86.3497248  70.9466104
 124.4679752  88.5737248  70.2086104 125.7229752  89.3767248  68.3896104
 127.2589752  87.9507248  67.2956104 127.8179752  84.6227248  68.1696104
  29.3599752  92.6767248  95.4156104  30.5059752  92.6947248  94.6206104
  30.4769752  92.1277248  93.3566104  29.3029752  91.5497248  92.8986104
  28.1599752  91.5317248  93.6866104  28.1869752  92.0947248  94.9546104
  29.3859752  93.2007248  96.5996104  31.3209752  93.1037248  94.9516104
  31.2699752  92.1357248  92.7976104  29.2799752  91.1507248  92.0146104
  27.3449752  91.1277248  93.3506104  27.3939752  92.0817248  95.5136104
  30.1939752  93.6037248  96.9286104  96.9869752 125.9577248  50.3926104
  96.2899752 127.1397248  50.6436104  95.3099752 127.1677248  51.6226104
  95.0359752 126.0137248  52.3416104  95.7289752 124.8367248  52.0956104
  96.7079752 124.8047248  51.1126104  97.8999752 125.9277248  49.4746104
  96.4919752 127.9407248  50.1356104  94.8199752 127.9847248  51.8026104
  94.3489752 126.0297248  53.0266104  95.5289752 124.0387248  52.6096104
  97.1929752 123.9847248  50.9316104  98.0979752 126.7197248  48.9696104
  52.6119752  93.2297248 126.3496104  52.6049752  94.4487248 125.6726104
  51.8829752  95.5157248 126.1816104  51.1759752  95.3547248 127.3636104
  51.1829752  94.1427248 128.0416104  51.9009752  93.0717248 127.5316104
  53.2819752  92.2287248 125.8716104  53.1039752  94.5497248 124.8476104
  51.8709752  96.3667248 125.7166104  50.6679752  96.0997248 127.7226104
  50.6869752  94.0457248 128.8696104  51.9069752  92.2197248 127.9956104
  53.7739752  92.3277248 125.0536104  29.4659752  56.0857248  50.2556104
  28.7279752  54.9577248  50.6156104  27.9349752  54.3237248  49.6736104
  27.8869752  54.8217248  48.3806104  28.6209752  55.9427248  48.0176104
  29.4139752  56.5817248  48.9606104  30.2039752  56.6837248  51.1366104
  28.7709752  54.6177248  51.5226104  27.4179752  53.5397248  49.9166104
  27.3309752  54.3807248  47.7186104  28.5809752  56.2777248  47.1086104
  29.9259752  57.3697248  48.7176104  30.2449752  56.3487248  52.0356104
 104.6249752  22.2527248  86.2366104 103.9089752  21.0587248  86.3236104
 104.2429752  19.9937248  85.5036104 105.2899752  20.1307248  84.6046104
 106.0059752  21.3167248  84.5166104 105.6709752  22.3867248  85.3346104
 104.3109752  23.2527248  86.9986104 103.1799752  20.9747248  86.9576104
 103.7489752  19.1607248  85.5576104 105.5259752  19.3867248  84.0286104
 106.7389752  21.3967248  83.8866104 106.1629752  23.2207248  85.2746104
 103.5869752  23.1697248  87.6236104  93.6999752 103.0897248  53.4366104
  93.2209752 104.3357248  53.8406104  93.5269752 104.8167248  55.1026104
  94.3099752 104.0467248  55.9506104  94.7909752 102.8077248  55.5516104
  94.4819752 102.3217248  54.2886104  93.4099752 102.6357248  52.2586104
  92.6749752 104.8647248  53.2386104  93.1969752 105.6807248  55.3916104
  94.5259752 104.3797248  56.8356104  95.3409752 102.2827248  56.1526104
  94.8089752 101.4537248  54.0036104  92.8679752 103.1587248  51.6636104
 102.9799752  47.2757248  70.1716104 103.3739752  45.9387248  70.1406104
 104.6749752  45.6097248  69.7986104 105.5719752  46.6227248  69.4906104
 105.1849752  47.9547248  69.5216104 103.8799752  48.2857248  69.8606104
 101.7619752  47.5847248  70.4856104 102.7379752  45.2397248  70.3596104
 104.9569752  44.6827248  69.7736104 106.4839752  46.3957248  69.2496104
 105.8239752  48.6527248  69.3086104 103.5999752  49.2147248  69.8796104
 101.1319752  46.8937248  70.6996104  86.9739752 104.5047248  63.9226104
  87.4599752 104.7147248  65.2136104  88.7139752 105.2747248  65.3956104
  89.4699752 105.6217248  64.2856104  88.9889752 105.4167248  63.0006104
  87.7349752 104.8517248  62.8146104  85.8049752 103.9757248  63.7496104
  86.9209752 104.4687248  65.9816104  89.0599752 105.4227248  66.2896104
  90.3489752 106.0137248  64.4106104  89.5269752 105.6687248  62.2336104
  87.3939752 104.6997248  61.9196104  85.2719752 103.7307248  64.5096104
  74.5879752  30.3877248 112.9556104  74.9809752  31.4227248 113.8046104
  74.9689752  31.2327248 115.1766104  74.5649752  30.0077248 115.6876104
  74.1749752  28.9747248 114.8466104  74.1829752  29.1647248 113.4726104
  74.5929752  30.5657248 111.6736104  75.2619752  32.2747248 113.4346104
  75.2389752  31.9477248 115.7726104  74.5549752  29.8717248 116.6486104
  73.8999752  28.1227248 115.2186104  73.9059752  28.4497248 112.8776104
  74.8689752  31.4087248 111.3066104  40.0989752  40.2797248 104.6856104
  41.4219752  40.6867248 104.5156104  42.4379752  39.7457248 104.5046104
  42.1219752  38.4047248 104.6636104  40.8059752  37.9947248 104.8306104
  39.7869752  38.9367248 104.8466104  39.1489752  41.1587248 104.7016104
  41.6309752  41.6277248 104.4036104  43.3609752  40.0207248 104.3876104
  42.8309752  37.7417248 104.6566104  40.5999752  37.0527248 104.9356104
  38.8659752  38.6587248 104.9686104  39.3549752  42.0907248 104.5936104
 100.2969752  53.3167248  95.4496104 100.0829752  53.7397248  94.1376104
 101.0229752  54.5387248  93.5086104 102.1699752  54.9067248  94.1966104
 102.3879752  54.4857248  95.5006104 101.4449752  53.6887248  96.1346104
  99.4159752  52.5737248  96.0416104  99.2769752  53.4747248  93.6666104
 100.8809752  54.8387248  92.5976104 102.8309752  55.4667248  93.7586104
 103.1969752  54.7467248  95.9676104 101.5869752  53.3947248  97.0486104
  98.6179752  52.3137248  95.5766104 110.0289752  80.9727248  83.7296104
 108.8309752  80.9187248  83.0166104 107.6599752  81.3727248  83.6006104
 107.6969752  81.8787248  84.8916104 108.8869752  81.9367248  85.6036104
 110.0609752  81.4777248  85.0216104 111.1239752  80.5427248  83.1876104
 108.8179752  80.5637248  82.1136104 106.8229752  81.3377248  83.1126104
 106.8789752  82.1977248  85.3036104 108.8989752  82.2967248  86.5036104
 110.8959752  81.5087248  85.5146104 111.1109752  80.1897248  82.2946104
 117.2869752  98.3877248  89.5196104 118.1979752  98.0757248  88.5116104
 118.7179752  96.7947248  88.4226104 118.3199752  95.8367248  89.3426104
 117.4109752  96.1417248  90.3466104 116.8929752  97.4257248  90.4406104
 116.8049752  99.5867248  89.6086104 118.4679752  98.7547248  87.8726104
 119.3529752  96.5707248  87.7256104 118.6819752  94.9377248  89.2846104
 117.1389752  95.4607248  90.9806104 116.2619752  97.6497248  91.1426104
 117.0729752 100.2587248  88.9776104  97.2929752  47.9957248  85.5256104
  96.0069752  48.4577248  85.2476104  95.8309752  49.7097248  84.6806104
  96.9429752  50.4877248  84.3956104  98.2249752  50.0307248  84.6676104
  98.4029752  48.7787248  85.2406104  97.4589752  46.8287248  86.0606104
  95.2369752  47.9037248  85.4506104  94.9399752  50.0387248  84.4856104
  96.8239752  51.3647248  83.9986104  98.9929752  50.5837248  84.4596104
  99.2959752  48.4537248  85.4396104  96.6969752  46.2807248  86.2636104
  35.5159752  42.2817248  83.7906104  34.6699752  41.8637248  82.7646104
  34.0239752  40.6417248  82.8566104  34.2309752  39.8487248  83.9766104
  35.0709752  40.2627248  85.0006104  35.7219752  41.4847248  84.9086104
  36.1249752  43.4217248  83.7036104  34.5319752  42.4277248  81.9876104
  33.4349752  40.3427248  82.1476104  33.7809752  38.9917248  84.0446104
  35.2019752  39.6997248  85.7796104  36.3149752  41.7787248  85.6176104
  35.9909752  43.9797248  82.9336104  96.5949752  77.5057248  44.5186104
  95.2519752  77.2597248  44.8006104  94.2649752  77.8627248  44.0376104
  94.6309752  78.7067248  42.9996104  95.9669752  78.9527248  42.7146104
  96.9569752  78.3527248  43.4806104  97.5189752  76.9477248  45.2346104
  95.0079752  76.6667248  45.5286104  93.3289752  77.6977248  44.2276104
  93.9429752  79.1307248  42.4636104  96.2079752  79.5417248  41.9826104
  97.8929752  78.5237248  43.2916104  97.2789752  76.3627248  45.9566104
 135.6199752  68.9877248  92.9596104 136.8419752  69.0727248  92.2926104
 136.8669752  69.2987248  90.9256104 135.6699752  69.4397248  90.2396104
 134.4519752  69.3587248  90.8996104 134.4239752  69.1267248  92.2686104
 135.5939752  68.7697248  94.2356104 137.6719752  68.9737248  92.7836104
 137.7119752  69.3577248  90.4546104 135.6839752  69.5977248  89.2816104
 133.6239752  69.4627248  90.4076104 133.5769752  69.0637248  92.7366104
 136.4149752  68.6697248  94.7226104  81.1559752  19.5517248 102.7386104
  82.0549752  20.3337248 103.4646104  82.1629752  20.1687248 104.8356104
  81.3719752  19.2207248 105.4686104  80.4779752  18.4397248 104.7506104
  80.3649752  18.6067248 103.3776104  81.0489752  19.7097248 101.4576104
  82.6029752  20.9927248 103.0096104  82.7839752  20.7087248 105.3476104
  81.4449752  19.1027248 106.4296104  79.9349752  17.7777248 105.2056104
  79.7379752  18.0687248 102.8686104  81.5899752  20.3627248 101.0086104
  50.0439752  68.3707248  45.5776104  48.8659752  68.0737248  46.2616104
  47.6849752  68.7087248  45.9116104  47.6929752  69.6347248  44.8796104
  48.8629752  69.9317248  44.1946104  50.0479752  69.2997248  44.5456104
  51.1499752  67.7827248  45.9066104  48.8729752  67.4227248  46.9816104
  46.8619752  68.5077248  46.3836104  46.8689752  70.0817248  44.6326104
  48.8529752  70.5777248  43.4716104  50.8709752  69.5057248  44.0756104
  51.1569752  67.1407248  46.6206104  86.0849752  34.7837248 115.2736104
  86.2459752  35.7937248 116.2206104  87.5149752  36.2577248 116.5266104
  88.6119752  35.7067248 115.8816104  88.4559752  34.7027248 114.9356104
  87.1859752  34.2337248 114.6316104  84.8999752  34.3447248 114.9896104
  85.4699752  36.1727248 116.6646104  87.6349752  36.9587248 117.1856104
  89.5029752  36.0287248 116.0936104  89.2319752  34.3297248 114.4896104
  87.0689752  33.5277248 113.9756104  84.1329752  34.7167248 115.4306104
 125.4679752  80.1507248 110.7146104 124.4979752  80.0517248 111.7126104
 124.8559752  80.2177248 113.0406104 126.1799752  80.4807248 113.3586104
 127.1469752  80.5817248 112.3686104 126.7919752  80.4117248 111.0376104
 125.1359752  79.9907248 109.4736104 123.5749752  79.8687248 111.4776104
 124.1879752  80.1487248 113.7406104 126.4349752  80.5957248 114.2886104
 128.0689752  80.7707248 112.6056104 127.4629752  80.4757248 110.3396104
 124.2229752  79.8067248 109.2396104 129.3839752  97.1187248  80.7206104
 129.5679752  96.2567248  81.8016104 129.3379752  96.7087248  83.0906104
 128.9249752  98.0187248  83.2866104 128.7379752  98.8777248  82.2136104
 128.9719752  98.4287248  80.9216104 129.6039752  96.6997248  79.5146104
 129.8559752  95.3427248  81.6516104 129.4649752  96.1167248  83.8476104
 128.7639752  98.3387248  84.1886104 128.4449752  99.7897248  82.3656104
 128.8499752  99.0247248  80.1656104 129.8909752  95.7957248  79.3656104
  86.8319752  77.4957248 122.4166104  85.9479752  78.1867248 123.2446104
  84.7439752  77.6037248 123.6066104  84.4369752  76.3347248 123.1386104
  85.3149752  75.6437248 122.3156104  86.5189752  76.2267248 121.9486104
  87.9549752  78.0407248 122.0716104  86.1749752  79.0727248 123.5676104
  84.1229752  78.0777248 124.1816104  83.5939752  75.9247248 123.3896104
  85.0879752  74.7557248 121.9996104  87.1359752  75.7527248 121.3686104
  88.1799752  78.9187248 122.3886104  32.1729752  41.3117248 105.6716104
  30.8069752  41.1397248 105.4486104  29.9599752  42.2357248 105.4746104
  30.4869752  43.4947248 105.7236104  31.8459752  43.6707248 105.9436104
  32.6959752  42.5737248 105.9216104  32.9659752  40.2887248 105.6536104
  30.4499752  40.2547248 105.2746104  29.0089752  42.1237248 105.3226104
  29.8959752  44.2647248 105.7436104  32.2009752  44.5577248 106.1116104
  33.6459752  42.6877248 106.0806104  32.6129752  39.4117248 105.4836104
  34.5949752  56.2877248  74.6536104  35.0049752  55.2657248  73.7966104
  35.4279752  55.5707248  72.5136104  35.4379752  56.8947248  72.0986104
  35.0329752  57.9137248  72.9486104  34.6049752  57.6107248  74.2336104
  34.1949752  56.0047248  75.8526104  34.9949752  54.3447248  74.0986104
  35.7129752  54.8667248  71.9106104  35.7319752  57.1107248  71.1996104
  35.0489752  58.8347248  72.6466104  34.3149752  58.3167248  74.8326104
  34.1819752  55.0917248  76.1516104 108.3879752  65.5237248  79.8216104
 107.1879752  65.1507248  79.2156104 106.3359752  66.1217248  78.7166104
 106.6909752  67.4587248  78.8276104 107.8839752  67.8337248  79.4286104
 108.7379752  66.8627248  79.9326104 109.1829752  64.6177248  80.2936104
 106.9519752  64.2127248  79.1426104 105.4989752  65.8707248  78.2956104
 106.0949752  68.1417248  78.4806104 108.1209752  68.7717248  79.4946104
 109.5719752  67.1177248  80.3586104 108.9489752  63.6897248  80.2236104
  71.7529752  92.6847248  17.9576104  71.9009752  93.4197248  16.7816104
  71.7269752  92.7997248  15.5546104  71.4059752  91.4517248  15.5156104
  71.2559752  90.7167248  16.6836104  71.4329752  91.3337248  17.9136104
  71.9199752  93.2597248  19.1056104  72.1239752  94.3627248  16.8226104
  71.8289752  93.3037248  14.7326104  71.2849752  91.0147248  14.6576104
  71.0269752  89.7757248  16.6396104  71.3359752  90.8267248  18.7346104
  72.1439752  94.1927248  19.1466104  52.5339752  27.6457248  83.1326104
  51.7149752  26.7897248  83.8696104  51.3769752  27.1117248  85.1736104
  51.8599752  28.2867248  85.7296104  52.6729752  29.1427248  84.9986104
  53.0159752  28.8197248  83.6926104  52.8549752  27.3437248  81.9146104
  51.3819752  25.9717248  83.4696104  50.8099752  26.5217248  85.6926104
  51.6259752  28.5157248  86.6426104  52.9999752  29.9627248  85.3986104
  53.5889752  29.4097248  83.1776104  52.5279752  26.5327248  81.5186104
  60.6909752  38.3197248  37.3676104  60.4349752  36.9817248  37.0686104
  60.9549752  36.4197248  35.9146104  61.7279752  37.2017248  35.0686104
  61.9879752  38.5327248  35.3636104  61.4639752  39.0987248  36.5166104
  60.2009752  38.8477248  38.4426104  59.8929752  36.4447248  37.6686104
  60.7799752  35.4907248  35.6986104  62.0939752  36.8117248  34.2586104
  62.5339752  39.0657248  34.7646104  61.6359752  40.0297248  36.7276104
  59.6629752  38.3177248  39.0356104  93.8969752  57.2227248  27.4396104
  92.7529752  56.4227248  27.4316104  92.7409752  55.2437248  26.7056104
  93.8729752  54.8737248  25.9936104  95.0129752  55.6647248  26.0006104
  95.0259752  56.8487248  26.7236104  93.9079752  58.3287248  28.1126104
  91.9689752  56.6927248  27.9346104  91.9499752  54.6827248  26.6936104
  93.8669752  54.0477248  25.4836104  95.7979752  55.3907248  25.5016104
  95.8169752  57.4107248  26.7296104  93.1309752  58.5967248  28.6086104
 110.0249752 107.5577248  86.7576104 109.2249752 108.6917248  86.9026104
 108.9419752 109.1787248  88.1676104 109.4609752 108.5287248  89.2776104
 110.2599752 107.4017248  89.1376104 110.5419752 106.9097248  87.8706104
 110.2869752 107.0977248  85.5756104 108.8689752 109.1377248  86.1186104
 108.3849752 109.9657248  88.2766104 109.2639752 108.8667248  90.1646104
 110.6199752 106.9607248  89.9226104 111.0939752 106.1187248  87.7646104
 109.9329752 107.5377248  84.7996104  25.9979752  56.0237248  98.0026104
  26.4789752  55.1377248  97.0396104  27.1049752  53.9657248  97.4326104
  27.2419752  53.6907248  98.7856104  26.7619752  54.5687248  99.7466104
  26.1389752  55.7457248  99.3546104  25.4179752  57.1227248  97.6376104
  26.3759752  55.3407248  96.0966104  27.4439752  53.3447248  96.7696104
  27.6799752  52.8707248  99.0636104  26.8609752  54.3607248 100.6886104
  25.8049752  56.3677248 100.0206104  25.3169752  57.3257248  96.7046104
 106.8609752  88.2427248  44.8786104 106.6169752  89.2787248  45.7796104
 106.8029752  89.0717248  47.1366104 107.2319752  87.8297248  47.5806104
 107.4779752  86.7967248  46.6866104 107.2889752  87.0007248  45.3276104
 106.6829752  88.4327248  43.6096104 106.3179752  90.1437248  45.4566104
 106.6339752  89.7867248  47.7696104 107.3619752  87.6807248  48.5306104
 107.7819752  85.9347248  47.0116104 107.4529752  86.2817248  44.6966104
 106.3849752  89.2877248  43.2896104 107.7369752  79.9577248 128.5146104
 106.4449752  79.9857248 127.9906104 105.3769752  79.5637248 128.7646104
 105.6109752  79.1187248 130.0576104 106.8949752  79.0917248 130.5836104
 107.9669752  79.5097248 129.8086104 108.7379752  80.3467248 127.7906104
 106.2939752  80.3007248 127.0856104 104.4759752  79.5787248 128.4076104
 104.8649752  78.8207248 130.6026104 107.0419752  78.7817248 131.4906104
 108.8679752  79.4887248 130.1666104 108.5889752  80.6567248 126.8936104
  44.1599752  87.8147248 127.8546104  44.6099752  88.9347248 127.1566104
  43.7229752  89.6737248 126.3916104  42.3919752  89.2877248 126.3336104
  41.9389752  88.1747248 127.0296104  42.8269752  87.4307248 127.7926104
  44.9889752  87.1187248 128.5656104  45.5429752  89.1957248 127.2056104
  44.0289752  90.4537248 125.9026104  41.7679752  89.8027248 125.7986104
  41.0049752  87.9197248 126.9826104  42.5199752  86.6477248 128.2766104
  45.9129752  87.3747248 128.6136104 110.3139752  95.7477248  93.1046104
 110.5379752  94.7897248  92.1166104 111.4299752  93.7547248  92.3476104
 112.0889752  93.6877248  93.5656104 111.8669752  94.6377248  94.5526104
 110.9769752  95.6767248  94.3216104 109.4839752  96.7187248  92.8886104
 110.0689752  94.8467248  91.2686104 111.5919752  93.0857248  91.6646104
 112.7149752  92.9647248  93.7306104 112.3319752  94.5747248  95.4016104
 110.8209752  96.3487248  95.0046104 109.0219752  96.7767248  92.0486104
  32.0949752 100.1087248  42.1006104  30.7839752  99.7417248  41.7976104
  30.5379752  98.5577248  41.1216104  31.6049752  97.7497248  40.7566104
  32.9109752  98.1097248  41.0596104  33.1599752  99.2977248  41.7316104
  32.3279752 101.2177248  42.7276104  30.0459752 100.3147248  42.0586104
  29.6289752  98.2957248  40.9056104  31.4359752  96.9207248  40.2826104
  33.6469752  97.5337248  40.8016104  34.0709752  99.5597248  41.9426104
  31.5979752 101.7857248  42.9846104  74.2569752  39.2167248 103.1646104
  74.9729752  38.3787248 104.0186104  74.7889752  38.4687248 105.3886104
  73.8879752  39.3957248 105.8926104  73.1709752  40.2297248 105.0456104
  73.3569752  40.1437248 103.6726104  74.4319752  39.1377248 101.8836104
  75.5999752  37.7337248 103.6546104  75.2839752  37.8917248 105.9896104
  73.7569752  39.4627248 106.8516104  72.5409752  40.8697248 105.4116104
  72.8639752  40.7267248 103.0746104  75.0529752  38.5007248 101.5236104
  44.2359752 122.6857248  73.5386104  44.1919752 122.5067248  74.9216104
  43.8419752 123.5657248  75.7436104  43.5379752 124.7937248  75.1746104
  43.5779752 124.9757248  73.7996104  43.9319752 123.9177248  72.9746104
  44.5679752 121.6987248  72.7686104  44.4049752 121.6427248  75.3066104
  43.8109752 123.4497248  76.7056104  43.2929752 125.5377248  75.7476104
  43.3589752 125.8387248  73.4166104  43.9679752 124.0377248  72.0126104
  44.7809752 120.8437248  73.1506104  79.3389752 116.1137248 109.7796104
  78.2459752 115.3827248 109.3136104  77.8349752 115.5197248 107.9976104
  78.5219752 116.3857248 107.1596104  79.6109752 117.1127248 107.6186104
  80.0219752 116.9797248 108.9376104  79.7209752 115.9917248 111.0116104
  77.7739752 114.7797248 109.9096104  77.0749752 115.0167248 107.6666104
  78.2359752 116.4847248 106.2376104  80.0839752 117.7107248 107.0196104
  80.7789752 117.4887248 109.2686104  79.2529752 115.3957248 111.6016104
  73.2939752 116.3547248 113.9486104  72.6079752 115.7797248 112.8776104
  72.4639752 114.4037248 112.8096104  73.0049752 113.6147248 113.8136104
  73.6849752 114.1817248 114.8816104  73.8349752 115.5597248 114.9496104
  73.4349752 117.6397248 114.0116104  72.2329752 116.3427248 112.1826104
  71.9899752 113.9967248 112.0676104  72.9059752 112.6507248 113.7686104
  74.0539752 113.6177248 115.5786104  74.3139752 115.9647248 115.6906104
  73.0659752 118.1977248 113.3216104  96.7039752  40.3287248 110.4476104
  96.4549752  39.5887248 111.6036104  96.2849752  40.2397248 112.8146104
  96.3629752  41.6237248 112.8586104  96.6079752  42.3627248 111.7096104
  96.7839752  41.7137248 110.4966104  96.8699752  39.7217248 109.3146104
  96.4019752  38.6217248 111.5596104  96.1129752  39.7327248 113.6236104
  96.2449752  42.0817248 113.7056104  96.6559752  43.3307248 111.7546104
  96.9609752  42.2227248 109.6896104  96.8189752  38.7647248 109.2716104
  94.3109752 108.2637248  44.9036104  93.5309752 107.1327248  44.6646104
  94.1279752 105.9637248  44.2226104  95.5009752 105.9357248  44.0256104
  96.2809752 107.0577248  44.2646104  95.6849752 108.2317248  44.7026104
  93.7549752 109.3597248  45.3106104  92.5719752 107.1647248  44.8076104
  93.5919752 105.1737248  44.0526104  95.9219752 105.1177248  43.7156104
  97.2399752 107.0217248  44.1266104  96.2219752 109.0227248  44.8666104
  92.8049752 109.3927248  45.4506104  62.5339752 132.4027248 105.2966104
  61.8329752 131.9147248 106.3986104  62.3759752 130.8987248 107.1676104
  63.6169752 130.3807248 106.8286104  64.3199752 130.8647248 105.7336104
  63.7749752 131.8797248 104.9596104  62.0259752 133.3487248 104.5726104
  60.9659752 132.2867248 106.6266104  61.8939752 130.5537248 107.9356104
  63.9999752 129.6687248 107.3646104  65.1879752 130.4957248 105.5116104
  64.2569752 132.2197248 104.1896104  61.1669752 133.7147248 104.7966104
  43.4679752 124.2727248  59.0056104  44.0799752 124.4627248  60.2446104
  45.1949752 123.7147248  60.5856104  45.6899752 122.7847248  59.6836104
  45.0859752 122.5937248  58.4486104  43.9659752 123.3387248  58.1066104
  42.4219752 124.9657248  58.6866104  43.7259752 125.1177248  60.8656104
  45.6249752 123.8407248  61.4456104  46.4699752 122.2587248  59.9196104
  45.4449752 121.9427248  57.8266104  43.5339752 123.2067248  57.2476104
  42.0699752 125.6127248  59.3026104 100.4969752  59.3517248  45.7486104
 101.4829752  59.9817248  44.9906104 101.2219752  60.3377248  43.6776104
  99.9749752  60.0607248  43.1346104  98.9899752  59.4357248  43.8866104
  99.2509752  59.0747248  45.2006104 100.7409752  59.0127248  46.9746104
 102.3499752  60.1707248  45.3816104 101.9029752  60.7747248  43.1426104
  99.7889752  60.3087248  42.2146104  98.1219752  59.2527248  43.4956104
  98.5699752  58.6327248  45.7316104 101.5999752  59.1977248  47.3616104
  47.4569752 107.8947248 102.5606104  47.4199752 106.5127248 102.7516104
  46.2029752 105.8537248 102.7876104  45.0319752 106.5817248 102.6316104
  45.0649752 107.9557248 102.4386104  46.2829752 108.6187248 102.4066104
  48.5939752 108.5137248 102.5316104  48.2459752 106.0147248 102.8576104
  46.1679752 104.8937248 102.9206104  44.1769752 106.1227248 102.6566104
  44.2379752 108.4507248 102.3266104  46.3139752 109.5797248 102.2776104
  49.4109752 108.0207248 102.6396104  83.3709752  48.2637248  24.3166104
  83.0639752  49.4907248  24.9036104  82.8749752  49.5717248  26.2736104
  82.9979752  48.4247248  27.0446104  83.3059752  47.2027248  26.4636104
  83.4909752  47.1187248  25.0906104  83.5419752  48.1847248  23.0346104
  82.9819752  50.2857248  24.3546104  82.6599752  50.4207248  26.6896104
  82.8659752  48.4777248  28.0046104  83.3929752  46.4097248  27.0156104
  83.7019752  46.2667248  24.6766104  83.4589752  48.9717248  22.4906104
 106.7829752  83.7477248 103.2526104 106.3539752  84.5207248 104.3306104
 107.1939752  84.7217248 105.4136104 108.4569752  84.1487248 105.4076104
 108.8889752  83.3807248 104.3356104 108.0479752  83.1747248 103.2516104
 105.9969752  83.5537248 102.2416104 105.4679752  84.9167248 104.3226104
 106.9019752  85.2567248 106.1676104 109.0479752  84.2877248 106.1646104
 109.7769752  82.9907248 104.3436104 108.3399752  82.6347248 102.5006104
 105.1199752  83.9437248 102.2346104  51.6139752  83.6527248  26.1856104
  51.2339752  84.7637248  25.4336104  52.0099752  85.1687248  24.3606104
  53.1609752  84.4587248  24.0486104  53.5409752  83.3517248  24.7936104
  52.7669752  82.9457248  25.8716104  50.8919752  83.2747248  27.1926104
  50.4259752  85.2507248  25.6606104  51.7529752  85.9407248  23.8326104
  53.7069752  84.7407248  23.2986104  54.3459752  82.8617248  24.5616104
  53.0289752  82.1757248  26.4006104  50.0949752  83.7587248  27.4186104
  37.3799752  57.7237248 107.2206104  36.0179752  57.7137248 107.5186104
  35.1489752  56.9547248 106.7506104  35.6519752  56.2107248 105.6936104
  37.0069752  56.2157248 105.3956104  37.8789752  56.9787248 106.1606104
  38.1929752  58.4367248 107.9336104  35.6789752  58.2377248 108.2616104
  34.1999752  56.9447248 106.9506104  35.0459752  55.6787248 105.1536104
  37.3449752  55.6867248 104.6566104  38.8269752  56.9917248 105.9556104
  37.8579752  58.9567248 108.6676104 107.2099752  94.7927248  47.7196104
 105.9709752  95.4327248  47.7426104 105.1489752  95.3847248  46.6286104
 105.5739752  94.6967248  45.5006104 106.8049752  94.0567248  45.4746104
 107.6319752  94.1077248  46.5886104 107.9829752  94.8417248  48.7576104
 105.6849752  95.9097248  48.5366104 104.2869752  95.8277248  46.6356104
 105.0009752  94.6617248  44.7186104 107.0869752  93.5767248  44.6816104
 108.4969752  93.6677248  46.5766104 107.7009752  95.3157248  49.5436104
 104.2219752  74.3957248 130.0006104 105.2459752  73.4557248 129.8836104
 106.1159752  73.5127248 128.8076104 105.9559752  74.5107248 127.8576104
 104.9399752  75.4497248 127.9706104 104.0639752  75.3917248 129.0456104
 103.4039752  74.3407248 131.0026104 105.3489752  72.7637248 130.5556104
 106.8299752  72.8627248 128.7186104 106.5629752  74.5537248 127.1026104
 104.8419752  76.1437248 127.3016104 103.3479752  76.0407248 129.1296104
 103.5039752  73.6547248 131.6666104  72.3019752  65.4577248  21.0886104
  72.3489752  66.8487248  21.0046104  72.3979752  67.6087248  22.1626104
  72.4009752  66.9697248  23.3936104  72.3579752  65.5857248  23.4816104
  72.3039752  64.8227248  22.3236104  72.2509752  64.7457248  20.0086104
  72.3469752  67.2837248  20.1376104  72.4289752  68.5767248  22.1126104
  72.4349752  67.4987248  24.2066104  72.3649752  65.1527248  24.3486104
  72.2679752  63.8537248  22.3756104  72.2469752  65.1757248  19.1496104
  54.4579752 102.5737248 101.0166104  54.1789752 103.6237248 101.8916104
  53.3939752 103.3997248 103.0096104  52.8949752 102.1267248 103.2456104
  53.1729752 101.0787248 102.3796104  53.9559752 101.3017248 101.2556104
  55.1879752 102.7817248  99.9676104  54.5339752 104.5097248 101.7166104
  53.1939752 104.1247248 103.6216104  52.3439752 101.9667248 104.0276104
  52.8209752 100.1927248 102.5586104  54.1499752 100.5757248 100.6416104
  55.5379752 103.6587248  99.7926104  50.0919752  51.8957248  39.2026104
  48.9459752  52.6147248  38.8656104  47.8829752  51.9717248  38.2526104
  47.9759752  50.6137248  37.9836104  49.1139752  49.8937248  38.3206104
  50.1819752  50.5377248  38.9306104  51.0889752  52.4967248  39.7706104
  48.8919752  53.5637248  39.0596104  47.0829752  52.4647248  38.0126104
  47.2339752  50.1597248  37.5536104  49.1629752  48.9447248  38.1296104
  50.9829752  50.0427248  39.1636104  51.0369752  53.4357248  39.9616104
  39.5709752  53.6097248  82.3896104  40.0169752  52.4087248  82.9396104
  39.4209752  51.2157248  82.5656104  38.3849752  51.2337248  81.6436104
  37.9399752  52.4277248  81.0926104  38.5319752  53.6247248  81.4686104
  40.1219752  54.7277248  82.7426104  40.7429752  52.4077248  83.5826104
  39.7239752  50.3757248  82.9446104  37.9649752  50.3997248  81.3796104
  37.2169752  52.4247248  80.4456104  38.2229752  54.4637248  81.0926104
  40.8399752  54.7277248  83.3806104  50.2309752 118.9607248  76.9956104
  51.4179752 118.4797248  76.4436104  51.6159752 118.5407248  75.0736104
  50.6259752 119.0837248  74.2686104  49.4439752 119.5657248  74.8146104
  49.2419752 119.5007248  76.1856104  50.0409752 118.8987248  78.2756104
  52.1039752 118.1037248  77.0166104  52.4379752 118.2077248  74.6816104
  50.7609752 119.1277248  73.3086104  48.7629752 119.9467248  74.2396104
  48.4159752 119.8307248  76.5756104  50.7189752 118.5247248  78.8436104
  50.0179752  67.0337248  64.2256104  48.9339752  66.3457248  64.7706104
  49.1339752  65.4597248  65.8156104  50.4159752  65.2697248  66.3086104
  51.4979752  65.9537248  65.7706104  51.2999752  66.8397248  64.7206104
  49.8339752  67.8587248  63.2446104  48.0409752  66.4887248  64.4176104
  48.3849752  64.9767248  66.1996104  50.5599752  64.6487248  67.0396104
  52.3879752  65.8147248  66.1276104  52.0519752  67.3177248  64.3346104
  48.9509752  67.9987248  62.8936104  84.0329752  88.6857248  17.2916104
  85.1079752  88.9527248  16.4446104  84.8759752  89.4227248  15.1626104
  83.5699752  89.6217248  14.7386104  82.4979752  89.3597248  15.5796104
  82.7279752  88.8847248  16.8626104  84.2469752  88.2417248  18.4896104
  86.0169752  88.8107248  16.7536104  85.6179752  89.6087248  14.5666104
  83.4039752  89.9497248  13.8406104  81.5899752  89.5077248  15.2706104
  81.9829752  88.6937248  17.4546104  85.1459752  88.0987248  18.7936104
 114.8549752 108.5007248  92.5736104 115.4739752 108.5827248  93.8206104
 116.8559752 108.6357248  93.9026104 117.6059752 108.6067248  92.7356104
 116.9939752 108.5277248  91.4936104 115.6099752 108.4707248  91.4086104
 113.5629752 108.4457248  92.4946104 114.9379752 108.6037248  94.6286104
 117.2939752 108.6917248  94.7656104 118.5739752 108.6427248  92.7896104
 117.5309752 108.5137248  90.6866104 115.1739752 108.4097248  90.5436104
 113.0329752 108.4637248  93.2946104  50.2849752  54.9567248  83.6296104
  50.1749752  53.6307248  84.0476104  49.4839752  53.3287248  85.2096104
  48.9099752  54.3557248  85.9436104  49.0159752  55.6757248  85.5306104
  49.7109752  55.9817248  84.3696104  50.9349752  55.2427248  82.5466104
  50.5799752  52.9217248  83.5246104  49.4039752  52.4087248  85.5066104
  48.4269752  54.1467248  86.7596104  48.6049752  56.3827248  86.0526104
  49.7939752  56.9027248  84.0766104  51.3379752  54.5407248  82.0296104
  87.9009752  74.7447248  21.1986104  86.5289752  74.5287248  21.3326104
  85.7909752  74.0897248  20.2456104  86.4309752  73.8697248  19.0346104
  87.7959752  74.0807248  18.8986104  88.5369752  74.5257248  19.9846104
  88.5919752  75.1607248  22.2116104  86.0929752  74.6847248  22.1846104
  84.8369752  73.9377248  20.3296104  85.9169752  73.5627248  18.2716104
  88.2309752  73.9187248  18.0476104  89.4899752  74.6807248  19.8966104
  88.1599752  75.3177248  23.0556104  54.9899752  63.3587248  42.2126104
  55.3519752  62.2507248  42.9786104  55.3669752  62.3427248  44.3606104
  55.0179752  63.5417248  44.9646104  54.6549752  64.6457248  44.2056104
  54.6439752  64.5567248  42.8206104  54.9819752  63.2767248  40.9196104
  55.5929752  61.4177248  42.5446104  55.6189752  61.5767248  44.8996104
  55.0279752  63.6087248  45.9326104  54.4089752  65.4757248  44.6426104
  54.3959752  65.3257248  42.2836104  55.2219752  62.4527248  40.4896104
  41.5979752  21.6187248  77.3646104  42.7679752  21.6697248  78.1226104
  42.7049752  21.5327248  79.4996104  41.4719752  21.3447248  80.1066104
  40.3049752  21.2907248  79.3556104  40.3659752  21.4317248  77.9766104
  41.6539752  21.7517248  76.0776104  43.6239752  21.7997248  77.6866104
  43.5129752  21.5687248  80.0336104  41.4229752  21.2497248  81.0716104
  39.4509752  21.1547248  79.7936104  39.5549752  21.4017248  77.4456104
  42.5019752  21.8837248  75.6456104  38.2169752  28.5877248  91.7486104
  38.1379752  27.4717248  90.9156104  37.5119752  27.5737248  89.6846104
  36.9709752  28.7907248  89.2956104  37.0499752  29.9037248  90.1206104
  37.6729752  29.8037248  91.3576104  38.7969752  28.4937248  92.9026104
  38.5209752  26.6267248  91.1976104  37.4509752  26.8017248  89.0996104
  36.5309752  28.8647248  88.4346104  36.6719752  30.7497248  89.8346104
  37.7279752  30.5757248  91.9426104  39.1739752  27.6557248  93.1836104
  88.7149752  21.1947248  83.0346104  87.8489752  21.7457248  82.0916104
  87.9809752  23.0757248  81.7266104  88.9799752  23.8427248  82.3086104
  89.8449752  23.2977248  83.2466104  89.7119752  21.9667248  83.6166104
  88.5889752  19.9537248  83.3816104  87.1549752  21.1997248  81.6906104
  87.3819752  23.4667248  81.0726104  89.0749752  24.7747248  82.0566104
  90.5419752  23.8447248  83.6416104  90.3089752  21.5787248  84.2756104
  87.9009752  19.4127248  82.9866104 125.9899752  89.4167248  57.6406104
 125.5039752  88.1087248  57.6626104 124.5159752  87.7557248  58.5676104
 124.0219752  88.7127248  59.4406104 124.5009752  90.0147248  59.4206104
 125.4939752  90.3707248  58.5186104 126.9179752  89.7477248  56.8006104
 125.8569752  87.4487248  57.0456104 124.1739752  86.8487248  58.5896104
 123.3299752  88.4687248  60.0756104 124.1429752  90.6747248  60.0346104
 125.8389752  91.2777248  58.5016104 127.2689752  89.0937248  56.1906104
 117.5479752  48.3057248  64.6146104 116.7309752  48.4927248  65.7296104
 116.7769752  47.5887248  66.7786104 117.6399752  46.5057248  66.7026104
 118.4569752  46.3167248  65.5966104 118.4089752  47.2197248  64.5426104
 117.5019752  49.1467248  63.6316104 116.1319752  49.2547248  65.7716104
 116.2109752  47.7107248  67.5566104 117.6749752  45.8697248  67.4356104
 119.0589752  45.5577248  65.5596104 118.9729752  47.0917248  63.7636104
 116.9079752  49.8997248  63.6706104  66.5779752 101.7587248  21.8516104
  67.4719752 101.8807248  20.7886104  67.0969752 102.5677248  19.6456104
  65.8299752 103.1287248  19.5776104  64.9379752 103.0117248  20.6336104
  65.3099752 102.3197248  21.7776104  66.9249752 101.1117248  22.9186104
  68.3559752 101.4847248  20.8486104  67.7119752 102.6557248  18.9016104
  65.5629752 103.6107248  18.7776104  64.0569752 103.4127248  20.5736104
  64.6899752 102.2297248  22.5186104  67.7979752 100.7187248  22.9776104
  63.3619752  20.5867248  93.9926104  62.1449752  21.0807248  94.4616104
  61.4559752  22.0297248  93.7246104  61.9899752  22.4757248  92.5246104
  63.1999752  21.9847248  92.0536104  63.8939752  21.0367248  92.7926104
  64.0109752  19.7037248  94.6836104  61.7819752  20.7607248  95.3016104
  60.6099752  22.3797248  94.0436104  61.5109752  23.1407248  92.0056104
  63.5589752  22.3017248  91.2106104  64.7429752  20.6927248  92.4726104
  63.6519752  19.3877248  95.5156104  72.2689752 108.8047248 109.5986104
  71.1839752 108.1237248 110.1496104  70.9739752 108.1517248 111.5186104
  71.8519752 108.8627248 112.3236104  72.9309752 109.5437248 111.7796104
  73.1459752 109.5127248 110.4086104  72.4699752 108.7747248 108.3196104
  70.5769752 107.6307248 109.5746104  70.2229752 107.6797248 111.9096104
  71.7089752 108.8837248 113.2836104  73.5339752 110.0397248 112.3546104
  73.9009752 109.9817248 110.0206104  71.8709752 108.2857248 107.7506104
  53.7259752 128.8897248  74.2666104  53.4059752 130.2447248  74.3486104
  54.2239752 131.1847248  73.7446104  55.3549752 130.7617248  73.0616104
  55.6759752 129.4147248  72.9746104  54.8599752 128.4707248  73.5836104
  52.9659752 128.0087248  74.8356104  52.6109752 130.5277248  74.8276104
  54.0089752 132.1287248  73.7976104  55.9299752 131.4177248  72.6376104
  56.4669752 129.1327248  72.4906104  55.0809752 127.5267248  73.5326104
  52.1809752 128.2897248  75.3116104 111.8219752  72.2997248  39.0186104
 111.5359752  73.5127248  39.6436104 111.9649752  73.7387248  40.9416104
 112.6769752  72.7487248  41.6026104 112.9659752  71.5407248  40.9826104
 112.5339752  71.3107248  39.6846104 111.4179752  72.0847248  37.8076104
 111.0379752  74.1977248  39.1706104 111.7689752  74.5787248  41.3836104
 112.9779752  72.9027248  42.5116104 113.4689752  70.8597248  41.4556104
 112.7269752  70.4667248  39.2456104 110.9229752  72.7617248  37.3396104
  54.2899752 107.5747248  87.1906104  53.1199752 108.1967248  87.6256104
  53.0959752 108.8417248  88.8506104  54.2429752 108.8607248  89.6296104
  55.4109752 108.2457248  89.1996104  55.4349752 107.5947248  87.9746104
  54.3129752 106.9657248  86.0476104  52.3239752 108.1777248  87.0706104
  52.2859752 109.2757248  89.1616104  54.2299752 109.3117248  90.4896104
  56.2059752 108.2707248  89.7526104  56.2459752 107.1567248  87.6686104
  53.5249752 106.9447248  85.4996104  61.6099752  27.8957248  96.0286104
  61.7899752  26.7457248  96.7966104  60.9509752  26.4957248  97.8706104
  59.9389752  27.3967248  98.1656104  59.7549752  28.5407248  97.4016104
  60.5969752  28.7957248  96.3276104  62.3969752  28.1337248  95.0276104
  62.4999752  26.1217248  96.5796104  61.0699752  25.6987248  98.4106104
  59.3499752  27.2257248  98.9166104  59.0409752  29.1607248  97.6166104
  60.4789752  29.5967248  95.7926104  63.1019752  27.5177248  94.8136104
  49.9069752  52.6957248 106.1006104  49.7399752  52.3427248 104.7616104
  48.4679752  52.1167248 104.2616104  47.3739752  52.2457248 105.1056104
  47.5369752  52.5997248 106.4376104  48.8109752  52.8227248 106.9416104
  51.0959752  52.9027248 106.5706104  50.5119752  52.2567248 104.1816104
  48.3429752  51.8687248 103.3326104  46.4819752  52.0877248 104.7596104
  46.7629752  52.6917248 107.0146104  48.9329752  53.0657248 107.8736104
  51.8609752  52.8157248 105.9976104 100.8609752  73.5867248  39.0286104
 101.0569752  74.0167248  37.7166104 100.6239752  73.2307248  36.6616104
  99.9959752  72.0227248  36.9276104  99.7959752  71.5937248  38.2326104
 100.2339752  72.3767248  39.2916104 101.2709752  74.3177248  40.0166104
 101.4959752  74.8637248  37.5426104 100.7579752  73.5217248  35.7456104
  99.6909752  71.4697248  36.1916104  99.3519752  70.7487248  38.4036104
 100.1029752  72.0807248  40.2056104 101.7069752  75.1547248  39.8456104
  53.0319752 128.3037248  81.5366104  52.0629752 128.9617248  80.7786104
  51.9909752 128.7447248  79.4126104  52.8869752 127.8707248  78.8166104
  53.8519752 127.2117248  79.5666104  53.9289752 127.4307248  80.9346104
  53.1059752 128.5097248  82.8126104  51.4409752 129.5697248  81.2086104
  51.3209752 129.1987248  78.8796104  52.8399752 127.7167248  77.8596104
  54.4689752 126.5997248  79.1366104  54.6039752 126.9787248  81.4656104
  52.4919752 129.1127248  83.2376104  90.1429752 115.8077248  33.3126104
  91.0759752 116.6527248  32.7126104  92.3139752 116.1587248  32.3376104
  92.6089752 114.8227248  32.5646104  91.6819752 113.9767248  33.1596104
  90.4429752 114.4717248  33.5406104  88.9869752 116.2687248  33.6696104
  90.8579752 117.5857248  32.5576104  92.9689752 116.7407248  31.9206104
  93.4759752 114.4727248  32.3036104  91.8999752 113.0437248  33.3086104
  89.7909752 113.8887248  33.9616104  88.7719752 117.1927248  33.5186104
  51.4719752  45.0897248  71.3296104  52.6659752  44.5517248  70.8476104
  52.7309752  44.0677248  69.5516104  51.6019752  44.1267248  68.7486104
  50.4129752  44.6627248  69.2226104  50.3439752  45.1447248  70.5226104
  51.4079752  45.5367248  72.5436104  53.4489752  44.5167248  71.4196104
  53.5559752  43.6907248  69.2096104  51.6429752  43.7877248  67.8396104
  49.6329752  44.7017248  68.6486104  49.5159752  45.5157248  70.8646104
  52.1819752  45.5007248  73.1096104  48.5019752  94.8887248  30.5776104
  48.3609752  95.8747248  29.6016104  48.7499752  95.6147248  28.2976104
  49.2759752  94.3707248  27.9816104  49.4159752  93.3867248  28.9496104
  49.0309752  93.6467248  30.2576104  48.1449752  95.1317248  31.7986104
  47.9899752  96.7407248  29.8346104  48.6559752  96.2957248  27.6126104
  49.5499752  94.1857248  27.0696104  49.7819752  92.5207248  28.7136104
  49.1309752  92.9657248  30.9416104  47.7799752  95.9887248  32.0306104
  96.7089752  95.6757248 128.8816104  96.6959752  95.3987248 127.5146104
  95.8009752  96.0567248 126.6866104  94.9279752  96.9857248 127.2326104
  94.9399752  97.2657248 128.5926104  95.8329752  96.6057248 129.4246104
  97.5409752  95.0577248 129.6586104  97.3119752  94.7477248 127.1446104
  95.7839752  95.8687248 125.7356104  94.2989752  97.4477248 126.6556104
  94.3269752  97.9217248 128.9596104  95.8439752  96.7907248 130.3766104
  98.1499752  94.4117248 129.2926104  76.3649752 124.5157248  51.5576104
  77.2229752 125.2067248  50.7006104  76.8699752 125.3927248  49.3746104
  75.6619752 124.8877248  48.9166104  74.8039752 124.2027248  49.7656104
  75.1579752 124.0107248  51.0946104  76.6949752 124.3357248  52.7966104
  78.0639752 125.5557248  51.0336104  77.4609752 125.8697248  48.7726104
  75.4119752 125.0157248  47.9876104  73.9609752 123.8587248  49.4326104
  74.5669752 123.5277248  51.6936104  77.5289752 124.6797248  53.1256104
  82.2329752  66.4257248 122.9626104  82.2579752  65.6497248 124.1206104
  82.0179752  66.2377248 125.3516104  81.7549752  67.5987248 125.4126104
  81.7279752  68.3747248 124.2626104  81.9719752  67.7877248 123.0286104
  82.4629752  65.8787248 121.8116104  82.4409752  64.6987248 124.0646104
  82.0339752  65.7057248 126.1616104  81.5879752  68.0147248 126.2736104
  81.5379752  69.3237248 124.3206104  81.9599752  68.3237248 122.2206104
  82.6469752  64.9377248 121.7556104  90.3799752 127.8927248  89.8506104
  91.0219752 126.9687248  89.0256104  90.8759752 127.0527248  87.6516104
  90.0899752 128.0607248  87.1126104  89.4519752 128.9837248  87.9296104
  89.5939752 128.8987248  89.3076104  90.5109752 127.8127248  91.1366104
  91.5699752 126.2687248  89.4146104  91.3179752 126.4137248  87.0706104
  89.9849752 128.1227248  86.1496104  88.9099752 129.6867248  87.5386104
  89.1459752 129.5367248  89.8856104  91.0509752 127.1187248  91.5216104
 103.7209752 111.9117248 123.8806104 104.4589752 110.9847248 123.1446104
 105.0119752 111.3517248 121.9286104 104.8219752 112.6437248 121.4596104
 104.0899752 113.5697248 122.1896104 103.5319752 113.2027248 123.4066104
 103.1979752 111.5687248 125.0146104 104.5859752 110.0847248 123.4846104
 105.5249752 110.7127248 121.4106104 105.2069752 112.9037248 120.6076104
 103.9699752 114.4697248 121.8516104 103.0139752 113.8427248 123.9206104
 103.3219752 110.6777248 125.3496104  43.6389752  33.6027248  57.2616104
  42.4219752  33.6257248  56.5816104  41.2359752  33.7037248  57.2926104
  41.2769752  33.7587248  58.6786104  42.4869752  33.7377248  59.3586104
  43.6759752  33.6557248  58.6486104  44.7489752  33.5247248  56.5996104
  42.4049752  33.5887248  55.6126104  40.3849752  33.7187248  56.8276104
  40.4479752  33.8117248  59.1796104  42.5009752  33.7817248  60.3276104
  44.5259752  33.6357248  59.1166104  44.7329752  33.4847248  55.6396104
  95.8729752 102.4047248  32.5386104  96.3979752 103.1097248  31.4546104
  96.3979752 104.4947248  31.4676104  95.8749752 105.1637248  32.5646104
  95.3549752 104.4667248  33.6456104  95.3489752 103.0787248  33.6336104
  95.8659752 101.1097248  32.5266104  96.7619752 102.6297248  30.6946104
  96.7599752 104.9917248  30.7176104  95.8739752 106.1337248  32.5766104
  94.9959752 104.9477248  34.4076104  94.9809752 102.5837248  34.3826104
  96.2239752 100.6357248  31.7726104  98.9069752  45.7667248  81.1766104
  99.2489752  44.5557248  81.7786104 100.5719752  44.1477248  81.8036104
 101.5419752  44.9537248  81.2276104 101.2069752  46.1607248  80.6306104
  99.8809752  46.5707248  80.5996104  97.6699752  46.1487248  81.1476104
  98.5609752  44.0007248  82.1796104 100.8169752  43.3057248  82.2186104
 102.4699752  44.6707248  81.2426104 101.8959752  46.7167248  80.2356104
  99.6369752  47.4097248  80.1796104  96.9879752  45.5987248  81.5416104
 115.3489752  75.5147248  51.9116104 114.1169752  75.5977248  52.5606104
 113.5109752  74.4477248  53.0406104 114.1439752  73.2257248  52.8686104
 115.3709752  73.1387248  52.2256104 115.9769752  74.2887248  51.7406104
 115.9139752  76.5877248  51.4566104 113.6849752  76.4587248  52.6756104
 112.6539752  74.4967248  53.4916104 113.7219752  72.4187248  53.2026104
 115.8029752  72.2777248  52.1166104 116.8319752  74.2367248  51.2846104
 115.4859752  77.4397248  51.5686104 103.2109752  70.3257248  47.3306104
 102.7809752  70.4247248  48.6546104 101.8909752  69.4927248  49.1616104
 101.4389752  68.4697248  48.3416104 101.8659752  68.3657248  47.0256104
 102.7549752  69.3007248  46.5136104 104.0399752  71.1987248  46.8526104
 103.1059752  71.1437248  49.2176104 101.5859752  69.5557248  50.0806104
 100.8139752  67.8157248  48.6946104 101.5449752  67.6427248  46.4656104
 103.0539752  69.2387248  45.5926104 104.3589752  71.9127248  47.4096104
  39.4269752  72.9617248  35.1376104  39.4949752  72.4067248  36.4156104
  40.4239752  71.4167248  36.6896104  41.2779752  70.9907248  35.6836104
  41.2159752  71.5417248  34.4116104  40.2829752  72.5307248  34.1336104
  38.5559752  73.8837248  34.8776104  38.8929752  72.7147248  37.1116104
  40.4759752  71.0257248  37.5756104  41.9299752  70.2967248  35.8726104
  41.8229752  71.2377248  33.7196104  40.2299752  72.9177248  33.2446104
  37.9579752  74.1867248  35.5656104 100.3829752 112.6417248  49.6186104
  99.4309752 112.6037248  50.6376104  99.2229752 113.7217248  51.4296104
  99.9679752 114.8677248  51.1936104 100.9139752 114.9097248  50.1786104
 101.1269752 113.7897248  49.3876104 100.5829752 111.5957248  48.8816104
  98.9159752 111.7967248  50.7926104  98.5639752 113.7027248  52.1406104
  99.8249752 115.6527248  51.7466104 101.4239752 115.7197248  50.0226104
 101.7909752 113.8097248  48.6806104 100.0749752 110.7957248  49.0356104
  94.0189752  21.8537248  89.1856104  94.1419752  23.0177248  89.9436104
  95.1279752  23.1087248  90.9126104  95.9829752  22.0357248  91.1146104
  95.8649752  20.8757248  90.3606104  94.8759752  20.7807248  89.3926104
  93.0939752  21.7637248  88.2836104  93.5389752  23.7627248  89.7926104
  95.2189752  23.9147248  91.4456104  96.6739752  22.0957248  91.7926104
  96.4729752  20.1357248  90.5096104  94.7829752  19.9717248  88.8646104
  92.4959752  22.4997248  88.1356104  66.7369752  88.3917248 115.7116104
  66.3439752  89.6467248 116.1776104  67.0929752  90.2857248 117.1526104
  68.2289752  89.6647248 117.6516104  68.6239752  88.4177248 117.1886104
  67.8729752  87.7737248 116.2156104  66.0349752  87.7897248 114.8056104
  65.5489752  90.0717248 115.8196104  66.8259752  91.1577248 117.4826104
  68.7549752  90.1097248 118.3346104  69.4219752  87.9977248 117.5436104
  68.1389752  86.8987248 115.8906104  65.2459752  88.2087248 114.4526104
 108.4949752 116.8967248  75.0666104 107.1349752 116.7977248  75.3616104
 106.2189752 117.5597248  74.6556104 106.6699752 118.4127248  73.6596104
 108.0219752 118.5127248  73.3616104 108.9419752 117.7537248  74.0706104
 109.3539752 116.1897248  75.7286104 106.8319752 116.1957248  76.0596104
 105.2719752 117.4977248  74.8556104 106.0309752 118.9487248  73.1636104
 108.3219752 119.1107248  72.6596104 109.8889752 117.8217248  73.8716104
 109.0539752 115.5957248  76.4216104 137.4829752  61.0847248  74.6366104
 136.5029752  60.5517248  75.4736104 135.6599752  59.5577248  75.0036104
 135.8059752  59.1047248  73.7006104 136.7819752  59.6307248  72.8656104
 137.6249752  60.6297248  73.3326104 138.2689752  62.0177248  75.0726104
 136.4109752  60.8757248  76.3826104 134.9749752  59.1837248  75.5786104
 135.2169752  58.4097248  73.3676104 136.8749752  59.3007248  71.9586104
 138.3059752  61.0057248  72.7536104 138.1769752  62.3407248  75.9716104
  37.7729752  45.8857248  95.1766104  38.9929752  45.8507248  95.8526104
  39.4569752  44.6557248  96.3766104  38.6979752  43.5047248  96.2186104
  37.4859752  43.5347248  95.5446104  37.0159752  44.7317248  95.0226104
  37.3349752  47.0027248  94.6906104  39.5149752  46.6617248  95.9556104
  40.3029752  44.6227248  96.8496104  39.0199752  42.6657248  96.5856104
  36.9679752  42.7217248  95.4386104  36.1669752  44.7627248  94.5546104
  37.8499752  47.8067248  94.7946104  71.4269752  98.1767248  27.0466104
  71.9429752  97.8207248  25.7996104  71.7479752  98.6527248  24.7096104
  71.0389752  99.8337248  24.8756104  70.5249752 100.1917248  26.1146104
  70.7159752  99.3577248  27.2076104  71.6029752  97.3977248  28.0656104
  72.4379752  96.9937248  25.6966104  72.1019752  98.4127248  23.8396104
  70.8989752 100.4187248  24.1136104  70.0349752 101.0227248  26.2166104
  70.3559752  99.5977248  28.0756104  72.0909752  96.5767248  27.9636104
  37.1209752  62.1487248  44.6676104  36.8579752  62.8237248  45.8596104
  36.1729752  64.0277248  45.8346104  35.7559752  64.5457248  44.6166104
  36.0139752  63.8757248  43.4286104  36.7029752  62.6717248  43.4516104
  37.7659752  61.0257248  44.6886104  37.1529752  62.4507248  46.7046104
  35.9879752  64.5037248  46.6586104  35.2769752  65.3887248  44.5956104
  35.7119752  64.2477248  42.5856104  36.8919752  62.1997248  42.6246104
  38.0599752  60.6577248  45.5246104 130.2569752  65.1157248  51.1206104
 130.2979752  63.8217248  51.6406104 131.5169752  63.2357248  51.9356104
 132.6859752  63.9487248  51.7096104 132.6489752  65.2367248  51.1946104
 131.4279752  65.8247248  50.8936104 129.1179752  65.6637248  50.8386104
 129.4739752  63.3337248  51.7956104 131.5549752  62.3367248  52.2966104
 133.5419752  63.5407248  51.9146104 133.4729752  65.7247248  51.0456104
 131.3939752  66.7227248  50.5286104 128.3019752  65.1797248  50.9896104
  56.3009752  51.1587248  73.7726104  56.4379752  52.0467248  72.7056104
  55.7989752  51.7857248  71.5046104  55.0269752  50.6387248  71.3816104
  54.8869752  49.7537248  72.4416104  55.5299752  50.0117248  73.6446104
  56.9019752  51.3977248  74.8946104  56.9789752  52.8457248  72.8046104
  55.8899752  52.3967248  70.7576104  54.5789752  50.4527248  70.5416104
  54.3409752  48.9587248  72.3426104  55.4409752  49.3947248  74.3886104
  57.4399752  52.1867248  74.9916104  62.2299752  44.2897248  44.7576104
  62.3709752  45.3827248  45.6126104  62.3689752  46.6677248  45.0956104
  62.2239752  46.8487248  43.7276104  62.0809752  45.7637248  42.8746104
  62.0869752  44.4757248  43.3896104  62.2369752  43.0877248  45.2386104
  62.4699752  45.2437248  46.5676104  62.4679752  47.4337248  45.6836104
  62.2229752  47.7477248  43.3626104  61.9769752  45.9057248  41.9206104
  61.9939752  43.7117248  42.7986104  62.3369752  42.9497248  46.1836104
  39.1819752  97.0107248  59.7706104  40.5519752  97.0307248  60.0326104
  41.0049752  97.2137248  61.3286104  40.0829752  97.3747248  62.3526104
  38.7189752  97.3537248  62.0976104  38.2629752  97.1737248  60.7986104
  38.7569752  96.8447248  58.5596104  41.1869752  96.9157248  59.3076104
  41.9549752  97.2307248  61.5186104  40.3969752  97.5047248  63.2616104
  38.0859752  97.4627248  62.8236104  37.3109752  97.1637248  60.6106104
  39.3849752  96.7337248  57.8416104  33.3309752  72.0057248  91.2646104
  33.3929752  72.6987248  90.0556104  33.7929752  74.0247248  90.0396104
  34.1299752  74.6457248  91.2336104  34.0729752  73.9587248  92.4386104
  33.6679752  72.6317248  92.4566104  32.9519752  70.7677248  91.2816104
  33.1559752  72.2527248  89.2266104  33.8369752  74.5137248  89.2036104
  34.4099752  75.5747248  91.2266104  34.3149752  74.4047248  93.2646104
  33.6189752  72.1457248  93.2956104  32.7149752  70.3267248  90.4616104
  51.9369752  61.4227248  64.1886104  52.7709752  61.4237248  63.0706104
  52.8189752  62.5367248  62.2466104  52.0329752  63.6387248  62.5496104
  51.2039752  63.6427248  63.6636104  51.1519752  62.5267248  64.4866104
  51.8869752  60.3807248  64.9566104  53.3169752  60.6477248  62.8696104
  53.3949752  62.5457248  61.4666104  52.0639752  64.4197248  61.9746104
  50.6639752  64.4217248  63.8646104  50.5699752  62.5187248  65.2636104
  52.4249752  59.6107248  64.7566104 128.8949752  88.1937248  79.7806104
 129.7489752  87.7437248  78.7726104 129.9539752  86.3847248  78.5986104
 129.3039752  85.4877248  79.4336104 128.4519752  85.9317248  80.4356104
 128.2479752  87.2927248  80.6146104 128.7059752  89.4637248  79.9486104
 130.1969752  88.3807248  78.1946104 130.5469752  86.0637248  77.9016104
 129.4459752  84.5357248  79.3146104 128.0009752  85.2927248  81.0086104
 127.6589752  87.6107248  81.3166104 129.1509752  90.0947248  79.3786104
 108.8689752  54.2297248  95.5296104 109.0829752  53.3667248  94.4556104
 109.3859752  53.8817248  93.2066104 109.4749752  55.2557248  93.0416104
 109.2649752  56.1187248  94.1086104 108.9569752  55.6047248  95.3606104
 108.5799752  53.7507248  96.6976104 109.0189752  52.4067248  94.5836104
 109.5349752  53.2877248  92.4536104 109.6859752  55.6197248  92.1676104
 109.3349752  57.0767248  93.9796104 108.8029752  56.2017248  96.1106104
 108.5149752  52.8017248  96.8246104  66.0719752  39.0107248 129.8446104
  67.4529752  39.0777248 130.0326104  68.0639752  40.3057248 130.2226104
  67.2889752  41.4567248 130.2236104  65.9149752  41.3937248 130.0386104
  65.3009752  40.1647248 129.8446104  65.4989752  37.8637248 129.6606104
  67.9829752  38.2657248 130.0306104  69.0229752  40.3617248 130.3526104
  67.7139752  42.3187248 130.3556104  65.3859752  42.2057248 130.0466104
  64.3409752  40.1127248 129.7086104  66.0249752  37.0597248 129.6566104
 114.6389752  96.0887248  64.5866104 114.2809752  96.6507248  65.8116104
 115.2399752  97.2797248  66.5886104 116.5479752  97.3417248  66.1326104
 116.9079752  96.7857248  64.9126104 115.9499752  96.1507248  64.1346104
 113.7449752  95.4957248  63.8606104 113.3619752  96.6027248  66.1186104
 114.9999752  97.6727248  67.4416104 117.2229752  97.7807248  66.6746104
 117.8259752  96.8397248  64.6046104 116.1939752  95.7547248  63.2836104
 112.8359752  95.4447248  64.1656104 105.3269752  99.6837248 112.2856104
 106.5809752  99.7247248 111.6756104 107.7209752  99.8577248 112.4506104
 107.5969752  99.9467248 113.8296104 106.3519752  99.9037248 114.4406104
 105.2079752  99.7747248 113.6656104 104.2589752  99.5647248 111.5626104
 106.6539752  99.6597248 110.7106104 108.5959752  99.8887248 112.0346104
 108.3939752 100.0407248 114.3756104 106.2809752  99.9627248 115.4056104
 104.3329752  99.7497248 114.0846104 104.3309752  99.5027248 110.6066104
  45.0619752  19.5827248  81.1646104  45.2739752  20.8127248  81.7876104
  45.7059752  21.8977248  81.0426104  45.9199752  21.7437248  79.6806104
  45.7069752  20.5227248  79.0566104  45.2789752  19.4327248  79.8026104
  44.6639752  18.5657248  81.8606104  45.1189752  20.9087248  82.7406104
  45.8569752  22.7557248  81.4676104  46.2229752  22.5017248  79.1556104
  45.8569752  20.4307248  78.1036104  45.1339752  18.5737248  79.3746104
  44.5129752  18.6597248  82.8046104  58.5059752  18.4957248  74.1336104
  59.6909752  18.7567248  74.8216104  60.8649752  18.9707248  74.1186104
  60.8429752  18.9227248  72.7326104  59.6659752  18.6667248  72.0436104
  58.4899752  18.4467248  72.7456104  57.4089752  18.2897248  74.7896104
  59.6929752  18.7887248  75.7916104  61.6929752  19.1517248  74.5896104
  61.6639752  19.0717248  72.2366104  59.6659752  18.6407248  71.0736104
  57.6639752  18.2617248  72.2726104  57.4109752  18.3187248  75.7486104
  99.3889752  51.2397248  98.6546104  99.9519752  52.4147248  99.1536104
  99.1369752  53.4887248  99.4716104  97.7659752  53.3777248  99.2896104
  97.2019752  52.2097248  98.7956104  98.0169752  51.1337248  98.4716104
 100.1499752  50.2357248  98.3506104 100.9109752  52.4787248  99.2776104
  99.5199752  54.3087248  99.8176104  97.1919752  54.1277248  99.5106104
  96.2419752  52.1447248  98.6776104  97.6309752  50.3157248  98.1206104
 101.0999752  50.3007248  98.4716104  91.0909752  47.6747248 126.9576104
  91.2629752  46.5097248 127.7066104  90.9109752  46.4937248 129.0456104
  90.3889752  47.6407248 129.6246104  90.2139752  48.8007248 128.8826104
  90.5699752  48.8207248 127.5416104  91.4249752  47.6937248 125.7066104
  91.6279752  45.7137248 127.2896104  91.0289752  45.6887248 129.5736104
  90.1429752  47.6327248 130.5636104  89.8439752  49.5937248 129.2996104
  90.4569752  49.6287248 127.0166104  91.7879752  46.9057248 125.2946104
  43.4509752  97.8627248 104.1886104  43.1489752  97.8167248 105.5496104
  44.1049752  98.1857248 106.4816104  45.3549752  98.5997248 106.0436104
  45.6579752  98.6487248 104.6896104  44.7029752  98.2747248 103.7556104
  42.5599752  97.5127248 103.3166104  42.2709752  97.5267248 105.8436104
  43.9039752  98.1557248 107.4296104  46.0269752  98.8577248 106.6936104
  46.5349752  98.9437248 104.3986104  44.9089752  98.3017248 102.8076104
  41.6919752  97.2237248 103.6066104  24.0159752  63.4027248 109.4256104
  23.8019752  63.0927248 110.7686104  24.7819752  62.4257248 111.4866104
  25.9669752  62.0767248 110.8556104  26.1839752  62.3867248 109.5206104
  25.2029752  63.0507248 108.7976104  23.0999752  64.0207248 108.7506104
  22.9699752  63.3427248 111.1986104  24.6399752  62.2047248 112.4196104
  26.6539752  61.6097248 111.3556104  27.0199752  62.1407248 109.0936104
  25.3449752  63.2657248 107.8626104  22.2749752  64.2667248 109.1756104
 121.3139752  55.1987248  48.7616104 122.0209752  54.3707248  47.8886104
 122.0249752  54.6437248  46.5306104 121.3229752  55.7427248  46.0576104
 120.6199752  56.5697248  46.9226104 120.6109752  56.2957248  48.2826104
 121.3039752  54.9417248  50.0306104 122.5089752  53.6067248  48.2326104
 122.5129752  54.0727248  45.9176104 121.3229752  55.9357248  45.1066104
 120.1369752  57.3367248  46.5776104 120.1169752  56.8657248  48.8936104
 121.7849752  54.1837248  50.3706104  29.9659752  67.6307248  66.2666104
  28.9529752  66.8667248  66.8456104  29.2469752  66.0127248  67.8966104
  30.5519752  65.9317248  68.3586104  31.5629752  66.6917248  67.7866104
  31.2709752  67.5447248  66.7316104  29.6939752  68.4257248  65.2806104
  28.0439752  66.9337248  66.5146104  28.5489752  65.4777248  68.3036104
  30.7619752  65.3337248  69.0936104  32.4699752  66.6267248  68.1236104
  31.9729752  68.0747248  66.3226104  28.7949752  68.4897248  64.9506104
  83.9499752  47.7547248 126.5176104  83.7549752  48.8677248 127.3346104
  83.9059752  48.7527248 128.7066104  84.2529752  47.5237248 129.2496104
  84.4499752  46.4137248 128.4406104  84.2949752  46.5267248 127.0666104
  83.8039752  47.8587248 125.2356104  83.5139752  49.7217248 126.9426104
  83.7709752  49.5217248 129.2816104  84.3589752  47.4397248 130.2106104
  84.6959752  45.5627248 128.8346104  84.4259752  45.7537248 126.4936104
  83.5629752  48.7037248 124.8476104  56.3049752  98.3237248  88.8516104
  55.8989752  97.0647248  88.4076104  54.7969752  96.4537248  88.9816104
  54.1099752  97.1057248  89.9946104  54.5089752  98.3597248  90.4376104
  55.6149752  98.9727248  89.8666104  57.3389752  98.8947248  88.3196104
  56.3869752  96.6197248  87.6976104  54.5089752  95.5777248  88.6796104
  53.3379752  96.6797248  90.3996104  54.0159752  98.8057248  91.1436104
  55.9039752  99.8457248  90.1746104  57.8239752  98.4527248  87.6186104
  77.3519752 121.1697248 110.9986104  76.6139752 121.7777248 109.9836104
  76.8369752 121.4257248 108.6626104  77.7959752 120.4687248 108.3686104
  78.5319752 119.8587248 109.3756104  78.3129752 120.2127248 110.6996104
  77.1489752 121.5007248 112.2346104  75.9449752 122.4447248 110.2026104
  76.3289752 121.8447248 107.9516104  77.9559752 120.2197248 107.4446104
  79.1959752 119.1877248 109.1556104  78.8269752 119.7957248 111.4096104
  76.4889752 122.1627248 112.4516104  27.8869752 113.0297248  70.6756104
  26.5759752 112.5607248  70.7676104  25.6109752 113.0357248  69.8946104
  25.9649752 113.9747248  68.9366104  27.2689752 114.4427248  68.8406104
  28.2359752 113.9717248  69.7176104  28.7889752 112.5917248  71.4946104
  26.3409752 111.9037248  71.4406104  24.6979752 112.7157248  69.9526104
  25.2909752 114.3107248  68.3246104  27.5019752 115.0957248  68.1636104
  29.1479752 114.2967248  69.6606104  28.5569752 111.9427248  72.1626104
  88.8109752  25.4147248 109.5356104  89.8999752  25.3467248 108.6666104
  90.2079752  24.1507248 108.0396104  89.4229752  23.0337248 108.2856104
  88.3369752  23.0977248 109.1476104  88.0299752  24.2937248 109.7806104
  88.5249752  26.5307248 110.1286104  90.4399752  26.1357248 108.5016104
  90.9639752  24.0947248 107.4346104  89.6359752  22.1947248 107.8486104
  87.7949752  22.3097248 109.3066104  87.2759752  24.3457248 110.3896104
  89.0609752  27.3107248 109.9666104  15.7679752  55.6157248  78.7856104
  16.8009752  55.3117248  79.6716104  17.6799752  56.3047248  80.0726104
  17.5159752  57.5937248  79.5866104  16.4869752  57.9007248  78.7066104
  15.6089752  56.9067248  78.2986104  14.9489752  54.6877248  78.4036104
  16.9049752  54.4077248  80.0056104  18.4019752  56.1017248  80.6876104
  18.1299752  58.2917248  79.8646104  16.3829752  58.8067248  78.3776104
  14.8909752  57.1117248  77.6796104  15.0519752  53.7917248  78.7326104
  73.2199752  44.2837248 130.5246104  74.5149752  44.7307248 130.7866104
  75.4509752  43.8597248 131.3196104  75.0839752  42.5487248 131.5846104
  73.7969752  42.0987248 131.3226104  72.8559752  42.9717248 130.7936104
  72.3419752  45.0987248 130.0316104  74.7599752  45.6497248 130.5956104
  76.3529752  44.1627248 131.5056104  75.7359752  41.9357248 131.9586104
  73.5549752  41.1787248 131.5096104  71.9529752  42.6667248 130.6126104
  72.5839752  46.0087248 129.8446104  21.7059752  74.6637248  71.6526104
  20.8349752  75.0557248  72.6686104  21.3149752  75.2447248  73.9546104
  22.6629752  75.0407248  74.2116104  23.5329752  74.6527248  73.2026104
  23.0529752  74.4587248  71.9146104  21.2579752  74.4807248  70.4516104
  19.8949752  75.1957248  72.4766104  20.7159752  75.5157248  74.6666104
  23.0029752  75.1707248  75.1116104  24.4739752  74.5187248  73.3966104
  23.6539752  74.1827248  71.2046104  20.3269752  74.6177248  70.2606104
  72.0919752  70.2247248 137.3176104  72.9989752  71.2797248 137.4146104
  73.1229752  72.1817248 136.3696104  72.3369752  72.0217248 135.2386104
  71.4309752  70.9747248 135.1386104  71.3089752  70.0677248 136.1816104
  71.9789752  69.3777248 138.2896104  73.5419752  71.3827248 138.2116104
  73.7519752  72.9177248 136.4286104  72.4209752  72.6507248 134.5046104
  70.8849752  70.8777248 134.3436104  70.6819752  69.3297248 136.1176104
  72.5179752  69.4777248 139.0786104  86.2189752  47.1287248  30.1006104
  87.0949752  46.2237248  29.5006104  88.4619752  46.4277248  29.5856104
  88.9419752  47.5337248  30.2706104  88.0739752  48.4347248  30.8716104
  86.7029752  48.2347248  30.7836104  84.9399752  46.9427248  30.0166104
  86.7469752  45.4527248  29.0246104  89.0779752  45.8037248  29.1696104
  89.8989752  47.6797248  30.3316104  88.4239752  49.2017248  31.3516104
  86.0899752  48.8637248  31.1956104  84.5949752  46.1817248  29.5446104
  58.7259752 135.0737248  89.9656104  59.7389752 135.7787248  90.6166104
  59.8109752 135.7637248  91.9996104  58.8699752 135.0427248  92.7206104
  57.8619752 134.3387248  92.0766104  57.7849752 134.3557248  90.6916104
  58.6529752 135.0907248  88.6726104  60.3919752 136.2777248  90.1006104
  60.5119752 136.2517248  92.4596104  58.9179752 135.0307248  93.6896104
  57.2139752 133.8357248  92.5936104  57.0809752 133.8707248  90.2336104
  59.2979752 135.5867248  88.1626104  40.1149752  47.8397248  88.2806104
  40.8239752  48.8367248  87.6116104  41.8339752  48.4917248  86.7286104
  42.1239752  47.1507248  86.5206104  41.4179752  46.1557248  87.1816104
  40.4099752  46.4997248  88.0706104  39.1739752  48.1607248  89.1106104
  40.6109752  49.7707248  87.7646104  42.3329752  49.1787248  86.2606104
  42.8309752  46.9057248  85.9026104  41.6289752  45.2227248  87.0226104
  39.9149752  45.8097248  88.5406104  38.9649752  49.0847248  89.2646104
  55.4749752 104.4527248  64.0606104  55.0099752 104.9277248  62.8346104
  55.5529752 106.0797248  62.2906104  56.5579752 106.7467248  62.9766104
  57.0249752 106.2757248  64.1956104  56.4799752 105.1237248  64.7446104
  54.9649752 103.3787248  64.5746104  54.3079752 104.4517248  62.3636104
  55.2339752 106.4177248  61.4386104  56.9399752 107.5547248  62.5986104
  57.7309752 106.7497248  64.6616104  56.7969752 104.7917248  65.5996104
  54.2689752 102.9087248  64.1096104  55.0779752  78.5117248 136.0056104
  53.9629752  78.3717248 135.1796104  54.1229752  78.3307248 133.8046104
  55.3969752  78.4297248 133.2666104  56.5099752  78.5667248 134.0846104
  56.3519752  78.6127248 135.4626104  54.9299752  78.5567248 137.2906104
  53.0759752  78.3027248 135.5686104  53.3519752  78.2347248 133.2236104
  55.5129752  78.4027248 132.3036104  57.3959752  78.6307248 133.6946104
  57.1239752  78.7137248 136.0406104  54.0529752  78.4897248 137.6756104
 105.9529752  86.0947248  37.7546104 105.0539752  85.4177248  36.9296104
 103.7099752  85.7517248  36.9536104 103.2759752  86.7597248  37.8016104
 104.1679752  87.4377248  38.6226104 105.5139752  87.1017248  38.6026104
 107.2089752  85.7807248  37.7376104 105.3699752  84.7157248  36.3396104
 103.0789752  85.2847248  36.3846104 102.3349752  86.9957248  37.8216104
 103.8509752  88.1427248  39.2066104 106.1429752  87.5667248  39.1776104
 107.5219752  85.0837248  37.1556104  80.1289752  62.9407248 135.1096104
  80.5059752  63.9327248 134.2046104  80.6669752  63.6197248 132.8646104
  80.4479752  62.3177248 132.4416104  80.0709752  61.3277248 133.3376104
  79.9129752  61.6377248 134.6816104  79.9839752  63.2297248 136.3636104
  80.6549752  64.8407248 134.5126104  80.9299752  64.3037248 132.2296104
  80.5609752  62.0947248 131.5036104  79.9169752  60.4217248 133.0266104
  79.6549752  60.9507248 135.3156104  80.1329752  64.1267248 136.6686104
 123.8949752  97.4567248  59.3936104 123.5529752  96.6617248  58.3006104
 123.4529752  95.2877248  58.4506104 123.6939752  94.7227248  59.6936104
 124.0319752  95.5107248  60.7856104 124.1369752  96.8857248  60.6356104
 123.9959752  98.7407248  59.2536104 123.3859752  97.0687248  57.4356104
 123.2169752  94.7277248  57.6946104 123.6249752  93.7607248  59.8026104
 124.1929752  95.1017248  61.6496104 124.3789752  97.4437248  61.3926104
 123.8319752  99.1437248  58.3986104  64.6549752  70.1877248 128.2126104
  64.7939752  69.3897248 127.0776104  65.7029752  68.3437248 127.0766104
  66.4639752  68.1057248 128.2116104  66.3269752  68.8967248 129.3436104
  65.4199752  69.9467248 129.3456104  63.8099752  71.1687248 128.2136104
  64.2549752  69.5647248 126.2906104  65.8069752  67.7847248 126.2916104
  67.1029752  67.3757248 128.2146104  66.8619752  68.7157248 130.1316104
  65.3219752  70.5087248 130.1306104  63.2779752  71.3447248 127.4336104
  84.0369752 112.6217248 115.3986104  85.1279752 111.9207248 115.9096104
  85.5139752 112.1077248 117.2266104  84.8029752 112.9947248 118.0216104
  83.7139752 113.6927248 117.5176104  83.3289752 113.5097248 116.1976104
  83.6779752 112.4527248 114.1656104  85.6169752 111.3017248 115.3436104
  86.2719752 111.6247248 117.5896104  85.0699752 113.1287248 118.9446104
  83.2239752 114.3057248 118.0866104  82.5729752 113.9987248 115.8356104
  84.1629752 111.8427248 113.6046104  42.4379752  53.1417248 105.4426104
  41.3179752  53.8897248 105.0806104  41.4499752  54.9457248 104.1946104
  42.7019752  55.2447248 103.6776104  43.8189752  54.5027248 104.0346104
  43.6899752  53.4457248 104.9246104  42.3179752  52.1577248 106.2756104
  40.4469752  53.6697248 105.4476104  40.6759752  55.4707248 103.9386104
  42.7989752  55.9847248 103.0576104  44.6869752  54.7207248 103.6616104
  44.4659752  52.9257248 105.1836104  41.4559752  51.9407248 106.6406104
  67.3119752  22.2727248  68.9186104  67.2429752  23.3687248  68.0586104
  66.2509752  24.3197248  68.2316104  65.3369752  24.1667248  69.2626104
  65.4029752  23.0787248  70.1216104  66.3929752  22.1217248  69.9486104
  68.2349752  21.3787248  68.7556104  67.8899752  23.4657248  67.3416104
  66.1959752  25.0837248  67.6376104  64.6399752  24.8307248  69.3866104
  64.7589752  22.9867248  70.8416104  66.4429752  21.3557248  70.5406104
  68.8739752  21.4737248  68.0446104 131.7279752  74.4327248  94.3286104
 132.7669752  74.5807248  95.2466104 132.4969752  74.5507248  96.6056104
 131.1899752  74.3717248  97.0336104 130.1529752  74.2217248  96.1226104
 130.4209752  74.2557248  94.7616104 131.9769752  74.4657248  93.0586104
 133.6769752  74.7037248  94.9356104 133.2139752  74.6547248  97.2506104
 130.9969752  74.3507248  97.9846104 129.2449752  74.0927248  96.4366104
 129.7009752  74.1567248  94.1186104 132.8769752  74.5907248  92.7496104
 115.3089752  72.1487248  44.1956104 116.5339752  71.5727248  44.5336104
 116.6179752  70.7227248  45.6246104 115.4779752  70.4567248  46.3676104
 114.2569752  71.0267248  46.0336104 114.1709752  71.8817248  44.9436104
 115.2289752  72.9477248  43.1796104 117.3239752  71.7657248  44.0056104
 117.4659752  70.3197248  45.8666104 115.5339752  69.8627248  47.1326104
 113.4669752  70.8277248  46.5596104 113.3219752  72.2887248  44.7066104
 116.0119752  73.1407248  42.6586104  62.0179752  36.0717248 117.9196104
  61.8889752  37.3697248 117.4246104  62.9989752  38.1957248 117.3606104
  64.2279752  37.7177248 117.7906104  64.3599752  36.4257248 118.2816104
  63.2489752  35.5977248 118.3506104  60.9809752  35.2987248 117.9856104
  61.0249752  37.6917248 117.1256104  62.9179752  39.0997248 117.0186104
  65.0069752  38.2947248 117.7476104  65.2259752  36.1037248 118.5746104
  63.3319752  34.6947248 118.6976104  60.1249752  35.6187248 117.6916104
 121.8729752  48.3937248 101.0746104 121.2439752  47.5977248 100.1166104
 121.5199752  47.7887248  98.7726104 122.4229752  48.7727248  98.3986104
 123.0529752  49.5647248  99.3486104 122.7749752  49.3777248 100.6956104
 121.6129752  48.2207248 102.3316104 120.6149752  46.9127248 100.3906104
 121.0859752  47.2407248  98.1006104 122.6179752  48.9097248  97.4576104
 123.6859752  50.2457248  99.0726104 123.2069752  49.9307248 101.3656104
 120.9879752  47.5437248 102.6026104  81.3409752  23.4867248  66.3466104
  80.0599752  23.3107248  65.8226104  79.8899752  23.1477248  64.4576104
  81.0019752  23.1597248  63.6286104  82.2779752  23.3317248  64.1466104
  82.4509752  23.5007248  65.5136104  81.5019752  23.6457248  67.6216104
  79.2899752  23.3027248  66.4126104  79.0019752  23.0267248  64.0856104
  80.8859752  23.0467248  62.6726104  83.0459752  23.3347248  63.5556104
  83.3389752  23.6267248  65.8826104  80.7399752  23.6397248  68.2056104
  49.5939752  71.4827248  49.8496104  50.9449752  71.4297248  49.5086104
  51.5709752  70.2027248  49.3576104  50.8389752  69.0397248  49.5476104
  49.4939752  69.0887248  49.8856104  48.8659752  70.3167248  50.0416104
  49.0089752  72.6287248  49.9976104  51.4459752  72.2497248  49.3766104
  52.5099752  70.1567248  49.1206104  51.2739752  68.1787248  49.4436104
  48.9939752  68.2667248  50.0116104  47.9269752  70.3587248  50.2836104
  49.5039752  73.4407248  49.8696104  63.4059752  32.8567248  35.5706104
  64.5729752  32.1927248  35.1916104  64.6339752  31.5517248  33.9646104
  63.5279752  31.5807248  33.1286104  62.3659752  32.2427248  33.5006104
  62.3009752  32.8817248  34.7306104  63.3449752  33.4527248  36.7186104
  65.3399752  32.1807248  35.7846104  65.4409752  31.0867248  33.6946104
  63.5679752  31.1317248  32.2686104  61.6029752  32.2577248  32.9036104
  61.4909752  33.3417248  35.0006104  64.1029752  33.4387248  37.3076104
 103.2569752 110.6457248  73.3576104 104.3369752 110.6697248  74.2416104
 105.2699752 111.6897248  74.1616104 105.1149752 112.6787248  73.2016104
 104.0409752 112.6597248  72.3226104 103.1069752 111.6357248  72.3966104
 102.3859752 109.6897248  73.4266104 104.4329752 109.9737248  74.9096104
 106.0239752 111.7127248  74.7716104 105.7669752 113.3947248  73.1426104
 103.9429752 113.3597248  71.6586104 102.3559752 111.6117248  71.7826104
 102.4829752 108.9987248  74.0866104  97.5229752  32.6297248  81.5676104
  97.7259752  32.0937248  82.8396104  97.0039752  30.9827248  83.2426104
  96.0859752  30.4167248  82.3706104  95.8829752  30.9457248  81.1036104
  96.6019752  32.0617248  80.6986104  98.1929752  33.6727248  81.1906104
  98.3719752  32.4977248  83.4396104  97.1389752  30.6047248  84.1256104
  95.5779752  29.6387248  82.6506104  95.2409752  30.5367248  80.5036104
  96.4619752  32.4417248  79.8176104  98.8309752  34.0737248  81.7856104
  40.3919752 102.7697248  68.8836104  40.1439752 103.8837248  69.6846104
  40.3829752 103.8207248  71.0476104  40.8699752 102.6437248  71.5966104
  41.1209752 101.5337248  70.8026104  40.8769752 101.5927248  69.4376104
  40.1629752 102.8247248  67.6096104  39.8039752 104.7017248  69.2886104
  40.2119752 104.5907248  71.6116104  41.0389752 102.5957248  72.5506104
  41.4649752 100.7187248  71.1996104  41.0439752 100.8197248  68.8756104
  39.8249752 103.6327248  67.2176104  42.6709752 105.8517248  68.0346104
  42.2779752 106.5247248  66.8786104  42.2299752 105.8497248  65.6696104
  42.5759752 104.5067248  65.6286104  42.9649752 103.8327248  66.7776104
  43.0179752 104.5077248  67.9886104  42.7209752 106.4817248  69.1656104
  42.0369752 107.4637248  66.9206104  41.9589752 106.3107248  64.8606104
  42.5449752 104.0317248  64.7826104  43.1999752 102.8927248  66.7336104
  43.2939752 104.0457248  68.7956104  42.4859752 107.4117248  69.2066104
  22.7449752  68.9317248  47.9736104  21.4809752  68.6227248  47.4716104
  20.4399752  68.3527248  48.3436104  20.6709752  68.3967248  49.7106104
  21.9269752  68.7067248  50.2146104  22.9729752  68.9727248  49.3416104
  23.7219752  69.1787248  47.1596104  21.3319752  68.5957248  46.5136104
  19.5579752  68.1357248  48.0026104  19.9439752  68.2077248  50.3246104
  22.0729752  68.7377248  51.1726104  23.8549752  69.1837248  49.6856104
  23.5749752  69.1507248  46.2106104 122.6709752  42.1667248  96.9536104
 121.5589752  42.6877248  97.6136104 121.7309752  43.4567248  98.7536104
 123.0139752  43.6977248  99.2216104 124.1229752  43.1827248  98.5666104
 123.9529752  42.4087248  97.4266104 122.5119752  41.4427248  95.8916104
 120.6659752  42.5137248  97.2756104 120.9619752  43.8217248  99.2186104
 123.1379752  44.2357248 100.0206104 125.0139752  43.3637248  98.9026104
 124.7229752  42.0397248  96.9656104 121.6289752  41.2677248  95.5576104
 113.1969752  51.5767248  75.0796104 114.5019752  52.0417248  74.9216104
 115.2479752  52.3977248  76.0336104 114.6809752  52.2847248  77.2946104
 113.3839752  51.8197248  77.4566104 112.6329752  51.4667248  76.3436104
 112.4959752  51.2487248  74.0416104 114.8879752  52.1157248  74.0346104
 116.1549752  52.7237248  75.9316104 115.1999752  52.5337248  78.0756104
 113.0019752  51.7417248  78.3446104 111.7239752  51.1457248  76.4486104
 112.8769752  51.3237248  73.1626104  62.0799752 124.6787248  61.3856104
  60.7639752 124.2177248  61.4016104  60.3169752 123.3737248  60.3986104
  61.1899752 122.9977248  59.3886104  62.5019752 123.4527248  59.3706104
  62.9509752 124.3017248  60.3726104  62.4989752 125.4727248  62.3196104
  60.1629752 124.4867248  62.1146104  59.4029752 123.0497248  60.4016104
  60.8799752 122.4067248  58.6846104  63.1019752 123.1777248  58.6606104
  63.8639752 124.6287248  60.3636104  61.9039752 125.7417248  63.0236104
  30.3699752  99.3017248 116.1426104  30.1929752  97.9227248 116.2596104
  29.4209752  97.2457248 115.3296104  28.8329752  97.9527248 114.2906104
  29.0099752  99.3247248 114.1696104  29.7789752 100.0057248 115.1026104
  31.0869752  99.9377248 117.0136104  30.6099752  97.4387248 116.9896104
  29.2909752  96.2877248 115.4046104  28.2909752  97.4817248 113.6386104
  28.5969752  99.8047248 113.4356104  29.9029752 100.9647248 115.0276104
  31.4979752  99.4587248 117.7376104  94.4019752  40.6717248  88.4306104
  93.0239752  40.6847248  88.6486104  92.3079752  39.4997248  88.6036104
  92.9759752  38.3127248  88.3426104  94.3469752  38.2947248  88.1276104
  95.0659752  39.4817248  88.1676104  95.0729752  41.7787248  88.4656104
  92.5689752  41.5207248  88.8306104  91.3499752  39.4997248  88.7526104
  92.4769752  37.4807248  88.3106104  94.8009752  37.4567248  87.9506104
  96.0239752  39.4787248  88.0126104  94.6219752  42.6077248  88.6446104
  42.7469752  75.7987248 124.8826104  43.9519752  75.1787248 124.5506104
  45.0819752  75.4107248 125.3166104  44.9969752  76.2607248 126.4106104
  43.7999752  76.8767248 126.7456104  42.6669752  76.6497248 125.9766104
  41.6909752  75.5867248 124.1636104  43.9979752  74.5857248 123.7836104
  45.9229752  74.9857248 125.0916104  45.7869752  76.4257248 126.9486104
  43.7539752  77.4647248 127.5156104  41.8279752  77.0807248 126.2016104
  41.7369752  75.0017248 123.4046104 112.7219752 116.5047248  53.4916104
 112.2699752 116.8067248  52.2066104 112.0269752 115.7847248  51.3036104
 112.2369752 114.4707248  51.6936104 112.6839752 114.1657248  52.9716104
 112.9329752 115.1877248  53.8766104 112.9559752 117.4587248  54.3356104
 112.1259752 117.7297248  51.9466104 111.7139752 115.9867248  50.4086104
 112.0679752 113.7527248  51.0626104 112.8229752 113.2417248  53.2316104
 113.2509752 114.9837248  54.7706104 112.8149752 118.3727248  54.0776104
  94.6629752  52.5147248 121.5806104  93.5059752  53.2927248 121.5416104
  93.1519752  53.9457248 120.3726104  93.9589752  53.8147248 119.2516104
  95.1089752  53.0397248 119.2846104  95.4679752  52.3877248 120.4566104
  94.9979752  51.9077248 122.6736104  92.9489752  53.3757248 122.3316104
  92.3499752  54.4897248 120.3376104  93.7149752  54.2717248 118.4316104
  95.6609752  52.9537248 118.4926104  96.2739752  51.8477248 120.4896104
  94.4479752  51.9907248 123.4566104  67.2829752 115.2297248 122.2986104
  66.1739752 115.1477248 123.1406104  66.3369752 115.2757248 124.5106104
  67.6069752 115.4847248 125.0266104  68.7129752 115.5697248 124.1916104
  68.5529752 115.4377248 122.8196104  67.1339752 115.1047248 121.0186104
  65.2909752 115.0017248 122.7676104  65.5709752 115.2187248 125.1026104
  67.7249752 115.5737248 125.9856104  69.5949752 115.7207248 124.5666104
  69.3219752 115.4897248 122.2296104  66.2599752 114.9587248 120.6496104
 120.8119752 115.7867248  89.8516104 121.5879752 114.7977248  90.4576104
 121.6449752 113.5297248  89.9026104 120.9279752 113.2627248  88.7456104
 120.1579752 114.2437248  88.1386104 120.0949752 115.5137248  88.6946104
 120.7519752 116.9707248  90.3716104 122.0849752 114.9977248  91.2656104
 122.1809752 112.8367248  90.3186104 120.9659752 112.3747248  88.3546104
 119.6649752 114.0437248  87.3276104 119.5539752 116.2037248  88.2796104
 121.2429752 117.1687248  91.1726104 106.5589752  49.7747248  57.4486104
 107.1579752  51.0317248  57.5326104 107.5539752  51.5257248  58.7646104
 107.3489752  50.7587248  59.9016104 106.7549752  49.5057248  59.8216104
 106.3539752  49.0107248  58.5886104 106.1829752  49.3137248  56.2986104
 107.2979752  51.5587248  56.7306104 107.9699752  52.3997248  58.8326104
 107.6239752  51.1017248  60.7666104 106.6219752  48.9787248  60.6246104
 105.9329752  48.1387248  58.5256104 106.3189752  49.8357248  55.5046104
  76.1699752  18.6247248  83.6756104  77.2649752  18.3727248  82.8496104
  77.1799752  18.6347248  81.4926104  75.9999752  19.1477248  80.9736104
  74.9089752  19.4017248  81.7926104  74.9909752  19.1357248  83.1526104
  76.2459752  18.3747248  84.9446104  78.0849752  18.0157248  83.2246104
  77.9359752  18.4617248  80.9106104  75.9359752  19.3317248  80.0226104
  74.0919752  19.7647248  81.4166104  74.2309752  19.3057248  83.7306104
  77.0569752  18.0187248  85.3156104 111.1489752 127.2417248  71.4466104
 111.4249752 126.1127248  70.6756104 111.3879752 126.1967248  69.2936104
 111.0779752 127.4087248  68.6946104 110.8049752 128.5347248  69.4596104
 110.8359752 128.4527248  70.8436104 111.1769752 127.1637248  72.7396104
 111.6419752 125.2707248  71.1056104 111.5769752 125.4167248  68.7496104
 111.0509752 127.4707248  67.7266104 110.5939752 129.3767248  69.0266104
 110.6419752 129.2337248  71.3856104 111.3889752 126.3307248  73.1656104
  55.6089752  48.3607248 119.8566104  55.3839752  49.0627248 121.0406104
  55.3459752  50.4477248 121.0256104  55.5319752  51.1177248 119.8256104
  55.7529752  50.4237248 118.6446104  55.7969752  49.0367248 118.6586104
  55.6519752  47.0667248 119.8696104  55.2539752  48.5827248 121.8736104
  55.1909752  50.9427248 121.8446104  55.5059752  52.0877248 119.8116104
  55.8769752  50.9057248 117.8126104  55.9569752  48.5437248 117.8376104
  55.5249752  46.5907248 120.6936104 100.9309752  35.3347248  57.9506104
 100.1339752  36.1187248  58.7856104 100.2769752  36.0277248  60.1606104
 101.2159752  35.1537248  60.6886104 102.0119752  34.3737248  59.8616104
 101.8679752  34.4597248  58.4836104 100.7949752  35.4147248  56.6656104
  99.4819752  36.7277248  58.4036104  99.7259752  36.5687248  60.7476104
 101.3179752  35.0867248  61.6516104 102.6669752  33.7707248  60.2446104
 102.4159752  33.9137248  57.8986104 100.1479752  36.0147248  56.2876104
  49.8409752  61.5407248  60.7616104  50.9129752  61.3417248  59.8916104
  51.1319752  60.0907248  59.3406104  50.2749752  59.0477248  59.6626104
  49.2049752  59.2417248  60.5256104  48.9869752  60.4937248  61.0826104
  49.6379752  62.7087248  61.2826104  51.5039752  62.0797248  59.6736104
  51.8759752  59.9437248  58.7366104  50.4259752  58.1697248  59.2786104
  48.6119752  58.5047248  60.7386104  48.2449752  60.6367248  61.6916104
  50.2239752  63.4377248  61.0686104  92.2919752 103.5187248  59.4946104
  91.0309752 103.5197248  60.0916104  90.0519752 102.6517248  59.6366104
  90.3429752 101.7897248  58.5896104  91.5969752 101.7837248  57.9946104
  92.5779752 102.6547248  58.4466104  93.2069752 104.3327248  59.9146104
  90.8399752 104.1267248  60.8236104  89.1719752 102.6477248  60.0446104
  89.6589752 101.1807248  58.2676104  91.7869752 101.1717248  57.2666104
  93.4559752 102.6617248  58.0326104  93.0179752 104.9357248  60.6376104
  64.3929752 137.7757248  80.1346104  65.4379752 137.0087248  79.6186104
  65.1619752 135.9397248  78.7826104  63.8419752 135.6467248  78.4686104
  62.7999752 136.4087248  78.9786104  63.0749752 137.4777248  79.8196104
  64.6489752 138.7717248  80.9206104  66.3569752 137.2247248  79.8436104
  65.8819752 135.4007248  78.4206104  63.6449752 134.8977248  77.8846104
  61.8829752 136.1947248  78.7476104  62.3509752 138.0117248  80.1846104
  65.5579752 138.9837248  81.1466104  75.6189752  79.9547248 125.5446104
  76.1249752  79.0157248 124.6456104  76.1299752  79.2917248 123.2886104
  75.6299752  80.5057248 122.8416104  75.1269752  81.4437248 123.7326104
  75.1169752  81.1677248 125.0916104  75.6079752  79.6957248 126.8126104
  76.4739752  78.1707248 124.9706104  76.4799752  78.6437248 122.6576104
  75.6309752  80.7017248 121.8916104  74.7849752  82.2897248 123.4056104
  74.7619752  81.8157248 125.7206104  75.9499752  78.8587248 127.1346104
 109.1279752  33.1427248  53.2836104 110.0569752  32.5607248  52.4206104
 111.2109752  33.2497248  52.0836104 111.4259752  34.5137248  52.6136104
 110.5059752  35.0937248  53.4746104 109.3469752  34.4077248  53.8106104
 108.0459752  32.5027248  53.5956104 109.8959752  31.6757248  52.0576104
 111.8609752  32.8527248  51.4836104 112.2329752  34.9987248  52.3796104
 110.6719752  35.9767248  53.8416104 108.6959752  34.8097248  54.4066104
 107.8849752  31.6277248  53.2346104 117.9059752  83.1917248  89.8006104
 117.6499752  84.0497248  88.7316104 116.3809752  84.5787248  88.5596104
 115.3799752  84.2457248  89.4596104 115.6309752  83.3937248  90.5266104
 116.8999752  82.8597248  90.6976104 119.0899752  82.6917248  89.9596104
 118.3589752  84.2767248  88.1096104 116.1939752  85.1757248  87.8186104
 114.4889752  84.6137248  89.3426104 114.9219752  83.1737248  91.1506104
 117.0819752  82.2587248  91.4376104 119.7909752  82.9137248  89.3426104
 102.6079752  74.6807248 119.1176104 102.5069752  75.8807248 118.4126104
 102.5999752  77.0867248 119.0876104 102.7919752  77.0827248 120.4616104
 102.8949752  75.8917248 121.1656104 102.7989752  74.6817248 120.4926104
 102.5159752  73.5517248 118.4896104 102.3739752  75.8707248 117.4526104
 102.5299752  77.9247248 118.6056104 102.8569752  77.9257248 120.9376104
 103.0339752  75.9037248 122.1256104 102.8629752  73.8447248 120.9786104
 102.3809752  73.5417248 117.5386104  68.6649752 103.3357248 121.8056104
  69.7099752 102.8957248 120.9936104  69.6139752 103.0217248 119.6176104
  68.4739752 103.5877248 119.0656104  67.4339752 104.0297248 119.8706104
  67.5259752 103.9007248 121.2496104  68.7509752 103.2137248 123.0926104
  70.5029752 102.5027248 121.3906104  70.3359752 102.7167248 119.0456104
  68.4039752 103.6767248 118.1016104  66.6449752 104.4277248 119.4716104
  66.7999752 104.2007248 121.8186104  69.5339752 102.8227248 123.4866104
  43.2309752 106.0157248  97.3866104  44.1209752 106.4717248  98.3596104
  44.0359752 105.9847248  99.6536104  43.0639752 105.0457248  99.9626104
  42.1789752 104.5877248  98.9966104  42.2579752 105.0777248  97.7006104
  43.3049752 106.4737248  96.1766104  44.7969752 107.1277248  98.1306104
  44.6499752 106.2977248 100.3356104  43.0009752 104.7027248 100.8686104
  41.5069752 103.9277248  99.2266104  41.6399752 104.7667248  97.0216104
  43.9729752 107.1257248  95.9506104  54.1329752  16.1987248  72.8286104
  52.8109752  16.0117248  72.4236104  51.8419752  15.6877248  73.3596104
  52.2039752  15.5547248  74.6926104  53.5169752  15.7427248  75.0996104
  54.4899752  16.0627248  74.1636104  55.0409752  16.4957248  71.9556104
  52.5709752  16.1087248  71.4896104  50.9219752  15.5547248  73.0856104
  51.5279752  15.3277248  75.3496104  53.7539752  15.6507248  76.0356104
  55.4119752  16.1907248  74.4396104  54.8039752  16.5897248  71.0296104
 100.3469752 120.6927248  54.2276104  99.4729752 119.6607248  54.5696104
  98.4259752 119.9047248  55.4436104  98.2609752 121.1797248  55.9656104
  99.1259752 122.2097248  55.6256104 100.1789752 121.9667248  54.7546104
 101.3299752 120.4657248  53.4166104  99.5979752 118.7747248  54.1976104
  97.8149752 119.1927248  55.6876104  97.5279752 121.3537248  56.5776104
  98.9959752 123.0967248  55.9956104 100.7919752 122.6797248  54.5166104
 101.4559752 119.5877248  53.0486104  40.4559752  66.0487248  69.3156104
  39.6679752  66.9527248  70.0276104  39.9399752  67.2017248  71.3626104
  40.9989752  66.5457248  71.9736104  41.7869752  65.6477248  71.2676104
  41.5129752  65.3937248  69.9316104  40.1999752  65.8107248  68.0686104
  38.9309752  67.4067248  69.5896104  39.3959752  67.8277248  71.8656104
  41.1909752  66.7177248  72.9096104  42.5259752  65.1997248  71.7066104
  42.0559752  64.7627248  69.4316104  39.4689752  66.2577248  67.6346104
  67.3119752  84.7537248 121.1456104  67.7449752  85.3517248 122.3296104
  67.1259752  85.0367248 123.5276104  66.0789752  84.1267248 123.5326104
  65.6459752  83.5287248 122.3566104  66.2629752  83.8457248 121.1546104
  67.8859752  85.0507248 120.0236104  68.4789752  85.9857248 122.3136104
  67.4199752  85.4487248 124.3546104  65.6419752  83.9047248 124.3696104
  64.9159752  82.8907248 122.3756104  65.9629752  83.4357248 120.3276104
  68.6109752  85.6797248 120.0076104  97.5569752  63.9067248  52.2996104
  96.3059752  64.3257248  52.7526104  96.1629752  65.5797248  53.3226104
  97.2719752  66.4057248  53.4326104  98.5179752  65.9937248  52.9806104
  98.6649752  64.7357248  52.4136104  97.6939752  62.7327248  51.7716104
  95.5369752  63.7397248  52.6686104  95.2969752  65.8777248  53.6416104
  97.1749752  67.2847248  53.8316104  99.2839752  66.5837248  53.0606104
  99.5329752  64.4377248  52.0996104  96.9339752  62.1507248  51.6906104
  79.7669752  66.0257248  24.1346104  80.5459752  67.0977248  24.5716104
  79.9349752  68.2437248  25.0516104  78.5499752  68.3077248  25.0926104
  77.7709752  67.2427248  24.6616104  78.3809752  66.0957248  24.1756104
  80.3359752  64.9557248  23.6796104  81.5129752  67.0397248  24.5386104
  80.4689752  68.9937248  25.3566104  78.1179752  69.1097248  25.4286104
  76.8039752  67.3007248  24.7006104  77.8439752  65.3487248  23.8666104
  81.2939752  64.8987248  23.6446104  43.2799752  99.0247248  83.0196104
  42.2309752  99.9397248  83.1016104  42.1979752 101.0287248  82.2466104
  43.2139752 101.1927248  81.3166104  44.2579752 100.2827248  81.2306104
  44.2959752  99.1927248  82.0886104  43.3169752  98.0087248  83.8216104
  41.5259752  99.8137248  83.7556104  41.4719752 101.6707248  82.2976104
  43.1939752 101.9547248  80.7166104  44.9589752 100.4077248  80.5716104
  45.0249752  98.5557248  82.0386104  42.6199752  97.8847248  84.4706104
  49.0909752  48.8757248 111.5286104  50.4099752  48.4527248 111.6886104
  50.7819752  47.7737248 112.8376104  49.8309752  47.5227248 113.8156104
  48.5159752  47.9397248 113.6586104  48.1429752  48.6247248 112.5106104
  48.7419752  49.5157248 110.4576104  51.0659752  48.6327248 110.9976104
  51.6969752  47.4767248 112.9576104  50.0879752  47.0477248 114.6216104
  47.8609752  47.7537248 114.3486104  47.2269752  48.9247248 112.3956104
  49.3919752  49.6967248 109.7736104  37.2839752  84.4517248 110.1046104
  37.1149752  83.6937248 108.9456104  38.2239752  83.2387248 108.2516104
  39.4919752  83.5457248 108.7226104  39.6639752  84.2977248 109.8766104
  38.5549752  84.7577248 110.5706104  36.2479752  84.8827248 110.7516104
  36.2229752  83.4847248 108.6276104  38.1159752  82.7117248 107.4446104
  40.2709752  83.2297248 108.2386104  40.5569752  84.5007248 110.1956104
  38.6659752  85.2897248 111.3756104  35.3649752  84.6777248 110.4356104
  94.4019752 125.1227248  42.3426104  93.9659752 123.8167248  42.1216104
  94.7079752 122.7507248  42.6036104  95.8789752 123.0007248  43.3046104
  96.3149752 124.2997248  43.5286104  95.5749752 125.3687248  43.0426104
  93.7129752 126.1207248  41.8876104  93.1449752 123.6537248  41.6316104
  94.4129752 121.8397248  42.4536104  96.4009752 122.2567248  43.6426104
  97.1329752 124.4597248  44.0236104  95.8759752 126.2787248  43.1896104
  92.9009752 125.9597248  41.4006104  52.9669752 116.6997248  68.2186104
  53.6239752 115.4907248  68.4416104  53.3239752 114.7397248  69.5666104
  52.3669752 115.2047248  70.4576104  51.7089752 116.4067248  70.2376104
  52.0119752 117.1627248  69.1136104  53.2499752 117.4067248  67.1706104
  54.2899752 115.1757248  67.8116104  53.7769752 113.8977248  69.7296104
  52.1549752 114.6817248  71.2466104  51.0399752 116.7167248  70.8666104
  51.5599752 118.0067248  68.9556104  53.9109752 117.0957248  66.5476104
  36.5959752  70.7257248  65.8236104  36.6539752  69.6257248  66.6796104
  36.7289752  69.8207248  68.0496104  36.7449752  71.1137248  68.5506104
  36.6849752  72.2107248  67.7026104  36.6129752  72.0177248  66.3306104
  36.5309752  70.5457248  64.5436104  36.6409752  68.7267248  66.3176104
  36.7709752  69.0617248  68.6506104  36.7979752  71.2537248  69.5096104
  36.6919752  73.1087248  68.0676104  36.5769752  72.7797248  65.7306104
  36.5199752  69.6557248  64.1836104  63.7739752  21.2227248  82.9856104
  62.6589752  20.3877248  83.0566104  62.4229752  19.4647248  82.0516104
  63.3049752  19.3837248  80.9846104  64.4179752  20.2107248  80.9106104
  64.6539752  21.1387248  81.9146104  63.9939752  22.0897248  83.9216104
  62.0499752  20.4527248  83.8086104  61.6489752  18.8817248  82.0926104
  63.1429752  18.7387248  80.2776104  65.0279752  20.1387248  80.1606104
  65.4259752  21.7247248  81.8686104  63.3899752  22.1567248  84.6656104
  59.5629752  29.3127248 111.5996104  59.3309752  27.9817248 111.9486104
  59.9469752  26.9647248 111.2396104  60.7919752  27.2877248 110.1876104
  61.0279752  28.6097248 109.8386104  60.4079752  29.6307248 110.5456104
  58.9829752  30.2647248 112.2586104  58.7389752  27.7697248 112.6876104
  59.7899752  26.0377248 111.4746104  61.2249752  26.5767248 109.6876104
  61.6239752  28.8197248 109.1036104  60.5629752  30.5577248 110.3046104
  58.3959752  30.0547248 112.9886104 130.0189752  85.1847248  71.0056104
 129.8379752  86.3587248  70.2746104 130.9169752  86.9467248  69.6346104
 132.1679752  86.3537248  69.7316104 132.3519752  85.1847248  70.4556104
 131.2729752  84.5957248  71.1006104 129.0129752  84.6367248  71.6086104
 128.9579752  86.7627248  70.2136104 130.7999752  87.7637248  69.1256104
 132.9259752  86.7637248  69.2856104 133.2309752  84.7787248  70.5106104
 131.3939752  83.7817248  71.6136104 128.1419752  85.0377248  71.5506104
 103.5649752  44.2747248  40.6726104 104.9259752  44.5687248  40.7476104
 105.4709752  45.0087248  41.9426104 104.6499752  45.1497248  43.0526104
 103.2949752  44.8547248  42.9816104 102.7459752  44.4177248  41.7846104
 103.0519752  43.8687248  39.5546104 105.4899752  44.4657248  39.9656104
 106.4159752  45.2167248  42.0036104 105.0279752  45.4577248  43.8906104
 102.7349752  44.9537248  43.7666104 101.7989752  44.2157248  41.7246104
 103.6089752  43.7677248  38.7796104  91.7479752  87.5687248 115.8956104
  91.0999752  86.4257248 116.3656104  90.4869752  86.4417248 117.6076104
  90.5259752  87.6007248 118.3676104  91.1669752  88.7407248 117.9026104
  91.7859752  88.7257248 116.6606104  92.3259752  87.5537248 114.7366104
  91.0789752  85.6217248 115.8236104  90.0359752  85.6507248 117.9416104
  90.0979752  87.6157248 119.2386104  91.1819752  89.5457248 118.4446104
  92.2409752  89.5167248 116.3306104  92.3069752  86.7567248 114.2006104
  68.8459752  26.0237248  72.6586104  68.0869752  25.7437248  71.5216104
  67.9119752  24.4307248  71.1166104  68.4959752  23.4097248  71.8516104
  69.2499752  23.6847248  72.9846104  69.4299752  24.9987248  73.3896104
  69.0159752  27.2507248  73.0356104  67.6829752  26.4657248  71.0166104
  67.3869752  24.2267248  70.3266104  68.3759752  22.4887248  71.5696104
  69.6479752  22.9597248  73.4906104  69.9599752  25.1997248  74.1776104
  68.6179752  27.9667248  72.5346104 107.6699752 120.6267248  52.1296104
 107.6729752 122.0157248  51.9926104 107.7839752 122.5837248  50.7336104
 107.8909752 121.7587248  49.6236104 107.8859752 120.3777248  49.7556104
 107.7789752 119.8057248  51.0156104 107.5719752 120.0937248  53.3056104
 107.5959752 122.5817248  52.7766104 107.7879752 123.5477248  50.6306104
 107.9689752 122.1547248  48.7406104 107.9569752 119.8137248  48.9706104
 107.7809752 118.8407248  51.1176104 107.4989752 120.6537248  54.0816104
  42.6069752  25.6627248  92.1706104  42.2119752  25.5327248  93.5026104
  43.0339752  24.8797248  94.4056104  44.2459752  24.3637248  93.9696104
  44.6439752  24.4927248  92.6466104  43.8189752  25.1427248  91.7386104
  41.8369752  26.2677248  91.3236104  41.3629752  25.8997248  93.7956104
  42.7659752  24.7847248  95.3326104  44.8239752  23.9047248  94.5996104
  45.4949752  24.1297248  92.3576104  44.0879752  25.2317248  90.8106104
  40.9959752  26.6287248  91.6126104  86.8609752  33.0937248  49.4146104
  85.6379752  33.0507248  50.0846104  84.5129752  32.5707248  49.4356104
  84.6199752  32.1367248  48.1216104  85.8349752  32.1767248  47.4526104
  86.9629752  32.6607248  48.0996104  87.9129752  33.5477248  50.0176104
  85.5759752  33.3557248  51.0036104  83.6589752  32.5377248  49.8936104
  83.8329752  31.8007248  47.6646104  85.8959752  31.8657248  46.5366104
  87.8149752  32.6977248  47.6366104  87.8519752  33.8517248  50.9266104
  36.3319752  90.6797248  70.8166104  36.6879752  92.0117248  71.0276104
  37.4679752  92.3527248  72.1206104  37.8859752  91.3577248  72.9916104
  37.5369752  90.0307248  72.7836104  36.7519752  89.6877248  71.6926104
  35.5989752  90.3597248  69.7986104  36.3899752  92.6977248  70.4106104
  37.7179752  93.2767248  72.2756104  38.4319752  91.5937248  73.7586104
  37.8409752  89.3457248  73.3996104  36.4989752  88.7627248  71.5426104
  35.3019752  91.0387248  69.1886104 116.9579752  89.4397248  98.0516104
 116.3959752  89.2827248  96.7846104 115.3049752  90.0517248  96.4136104
 114.7869752  90.9727248  97.3136104 115.3449752  91.1337248  98.5736104
 116.4349752  90.3607248  98.9486104 117.9749752  88.7177248  98.4026104
 116.7679752  88.6367248  96.1646104 114.9079752  89.9477248  95.5356104
 114.0219752  91.5127248  97.0566104 114.9749752  91.7837248  99.1906104
 116.8279752  90.4637248  99.8306104 118.3419752  88.0767248  97.7896104
 120.6249752  69.1757248  89.3256104 120.4739752  69.5597248  87.9936104
 120.3189752  68.5957248  87.0106104 120.3159752  67.2557248  87.3696104
 120.4629752  66.8697248  88.6946104 120.6229752  67.8327248  89.6796104
 120.7759752  70.0747248  90.2456104 120.4769752  70.4997248  87.7556104
 120.2149752  68.8547248  86.0826104 120.2079752  66.5777248  86.6836104
 120.4549752  65.9287248  88.9306104 120.7319752  67.5717248  90.6076104
 120.7809752  71.0057248  90.0096104  34.5519752  85.2937248 102.1716104
  33.7399752  86.2657248 101.5856104  33.2339752  86.0657248 100.3126104
  33.5429752  84.8957248  99.6356104  34.3479752  83.9247248 100.2146104
  34.8599752  84.1247248 101.4896104  35.0309752  85.4817248 103.3596104
  33.5299752  87.0797248 102.0706104  32.6699752  86.7367248  99.8976104
  33.1899752  84.7527248  98.7426104  34.5519752  83.1097248  99.7316104
  35.4279752  83.4537248 101.8996104  34.8249752  86.2877248 103.8386104
  79.1009752  32.0077248  89.6056104  79.2829752  33.2047248  90.2976104
  79.5459752  34.3717248  89.6006104  79.6239752  34.3317248  88.2156104
  79.4399752  33.1427248  87.5226104  79.1809752  31.9717248  88.2206104
  78.8599752  30.9137248  90.2566104  79.2249752  33.2197248  91.2656104
  79.6749752  35.2077248  90.0736104  79.8079752  35.1477248  87.7236104
  79.4929752  33.1317248  86.5546104  79.0569752  31.1357248  87.7436104
  78.8049752  30.9277248  91.2146104  31.4859752  76.9057248  75.3966104
  30.9459752  75.6997248  75.8456104  29.9229752  75.7077248  76.7786104
  29.4469752  76.9207248  77.2536104  29.9799752  78.1227248  76.8086104
  31.0079752  78.1167248  75.8766104  32.4469752  76.9007248  74.5286104
  31.2869752  74.8577248  75.5046104  29.5429752  74.8737248  77.0966104
  28.7309752  76.9297248  77.9086104  29.6339752  78.9627248  77.1466104
  31.3899752  78.9527248  75.5636104  32.7859752  76.0677248  74.1916104
  23.8839752  57.1237248  69.3796104  24.7249752  57.5117248  68.3366104
  24.2449752  58.3397248  67.3356104  22.9289752  58.7737248  67.3866104
  22.0889752  58.3917248  68.4246104  22.5669752  57.5577248  69.4256104
  24.3289752  56.3437248  70.3136104  25.6439752  57.2027248  68.3126104
  24.8229752  58.6137248  66.6066104  22.5889752  59.3537248  66.6866104
  21.1719752  58.7057248  68.4486104  21.9849752  57.2817248  70.1516104
  25.2379752  56.0367248  70.2896104 118.3409752  76.2247248  58.9186104
 119.2569752  77.0307248  58.2426104 119.1879752  77.1477248  56.8646104
 118.2019752  76.4587248  56.1736104 117.2869752  75.6577248  56.8426104
 117.3569752  75.5347248  58.2226104 118.4069752  76.1087248  60.2066104
 119.9409752  77.5087248  58.7376104 119.8219752  77.7047248  56.3866104
 118.1509752  76.5377248  55.2076104 116.5999752  75.1847248  56.3466104
 116.7249752  74.9727248  58.6976104 119.0859752  76.5807248  60.6956104
  66.0469752  40.6757248 116.3766104  65.0679752  41.0767248 117.2856104
  65.3139752  40.9927248 118.6466104  66.5379752  40.5077248 119.0856104
  67.5149752  40.1097248 118.1836104  67.2689752  40.1897248 116.8206104
  65.8159752  40.7487248 115.1046104  64.2169752  41.4157248 116.9666104
  64.6389752  41.2687248 119.2846104  66.7129752  40.4467248 120.0376104
  68.3669752  39.7777248 118.5056104  67.9439752  39.9077248 116.1836104
  64.9729752  41.0807248 114.7876104  35.7179752  49.4977248  86.3706104
  36.1569752  49.5097248  85.0476104  35.2939752  49.1337248  84.0306104
  33.9989752  48.7507248  84.3476104  33.5579752  48.7397248  85.6626104
  34.4219752  49.1107248  86.6836104  36.5239752  49.8427248  87.3236104
  37.0639752  49.7807248  84.8386104  35.5919752  49.1377248  83.1076104
  33.3919752  48.4857248  83.6376104  32.6479752  48.4727248  85.8686104
  34.1229752  49.1007248  87.6066104  37.4239752  50.1097248  87.1176104
  21.4149752  79.9777248  98.9236104  21.1139752  81.0637248  99.7456104
  21.3799752  80.9957248 101.1036104  21.9449752  79.8427248 101.6266104
  22.2479752  78.7607248 100.8126104  21.9789752  78.8247248  99.4526104
  21.1619752  80.0377248  97.6546104  20.7209752  81.8657248  99.3676104
  21.1729752  81.7457248 101.6816104  22.1319752  79.7907248 102.5776104
  22.6469752  77.9627248 101.1916104  22.1819752  78.0707248  98.8766104
  20.7699752  80.8297248  97.2806104  39.2119752  91.9327248 102.1606104
  38.7549752  92.7007248 103.2316104  39.6169752  93.0217248 104.2676104
  40.9289752  92.5727248 104.2216104  41.3879752  91.8097248 103.1566104
  40.5239752  91.4837248 102.1196104  38.4059752  91.6277248 101.1936104
  37.8359752  93.0107248 103.2506104  39.3079752  93.5537248 105.0166104
  41.5349752  92.7947248 104.9466104  42.3079752  91.5067248 103.1366104
  40.8359752  90.9467248 101.3746104  37.4949752  91.9317248 101.2136104
  46.2719752 109.1477248  45.5586104  46.4459752 108.0867248  44.6686104
  46.3999752 108.3177248  43.3036104  46.1809752 109.6067248  42.8406104
  46.0099752 110.6647248  43.7226104  46.0509752 110.4357248  45.0906104
  46.3079752 108.9327248  46.8356104  46.5999752 107.1907248  45.0056104
  46.5189752 107.5857248  42.6786104  46.1479752 109.7717248  41.8846104
  45.8619752 111.5607248  43.3836104  45.9259752 111.1687248  45.7136104
  46.4579752 108.0447248  47.1686104  84.0519752 119.9877248 101.4396104
  83.3889752 120.9747248 102.1686104  83.6399752 121.1177248 103.5236104
  84.5529752 120.2727248 104.1366104  85.2169752 119.2907248 103.4136104
  84.9629752 119.1437248 102.0576104  83.8139752 119.8497248 100.1736104
  82.7529752 121.5607248 101.7286104  83.1819752 121.8007248 104.0376104
  84.7309752 120.3687248 105.0856104  85.8559752 118.7097248 103.8556104
  85.4189752 118.4557248 101.5466104  83.1829752 120.4277248  99.7376104
 107.1689752  25.1817248  60.5156104 107.3879752  26.5557248  60.6176104
 108.6019752  27.0277248  61.0896104 109.5869752  26.1217248  61.4536104
 109.3739752  24.7537248  61.3506104 108.1569752  24.2787248  60.8826104
 106.0329752  24.7387248  60.0806104 106.6919752  27.1797248  60.3586104
 108.7609752  27.9807248  61.1656104 110.4379752  26.4487248  61.7856104
 110.0729752  24.1317248  61.6056104 107.9979752  23.3237248  60.8136104
 105.3429752  25.3557248  59.8256104  76.2569752  45.0407248 108.3566104
  75.6039752  45.4927248 107.2086104  74.3529752  44.9927248 106.8856104
  73.7649752  44.0477248 107.7126104  74.4099752  43.5977248 108.8566104
  75.6649752  44.0927248 109.1806104  77.4289752  45.5017248 108.6576104
  76.0249752  46.1547248 106.6396104  73.8939752  45.3007248 106.0886104
  72.8889752  43.6957248 107.4886104  73.9849752  42.9397248 109.4276104
  76.1249752  43.7797248 109.9746104  77.8469752  46.1557248 108.0926104
 113.6719752 122.9307248  60.0726104 112.5299752 122.7077248  59.3036104
 112.6519752 122.4347248  57.9506104 113.9149752 122.3857248  57.3796104
 115.0539752 122.6047248  58.1416104 114.9339752 122.8827248  59.4966104
 113.5599752 123.1917248  61.3356104 111.6519752 122.7427248  59.7146104
 111.8629752 122.2797248  57.4086104 114.0039752 122.1957248  56.4316104
 115.9309752 122.5637248  57.7296104 115.7249752 123.0427248  60.0346104
 112.6919752 123.2287248  61.7436104  96.9829752  40.7007248  43.6326104
  98.2239752  40.3847248  43.0796104  98.7769752  41.2077248  42.1116104
  98.0849752  42.3387248  41.7066104  96.8509752  42.6577248  42.2556104
  96.2919752  41.8327248  43.2216104  96.4609752  39.9297248  44.5326104
  98.6989752  39.5917248  43.3726104  99.6389752  40.9947248  41.7216104
  98.4689752  42.9167248  41.0276104  96.3799752  43.4537248  41.9656104
  95.4269752  42.0457248  43.6066104  96.9299752  39.1437248  44.8216104
 120.4979752 105.4867248  82.0226104 120.6359752 104.1117248  81.8356104
 121.2749752 103.3447248  82.7956104 121.7699752 103.9607248  83.9366104
 121.6329752 105.3287248  84.1276104 120.9959752 106.0987248  83.1636104
 119.9059752 106.2057248  81.1226104 120.2849752 103.6917248  81.0346104
 121.3759752 102.3887248  82.6726104 122.2189752 103.4277248  84.6106104
 121.9799752 105.7447248  84.9316104 120.9009752 107.0567248  83.2876104
 119.5599752 105.7917248  80.3286104  40.9519752  27.7557248  80.3556104
  41.2079752  26.8277248  79.3456104  41.6489752  27.2617248  78.1066104
  41.8299752  28.6197248  77.8876104  41.5779752  29.5457248  78.8896104
  41.1319752  29.1137248  80.1316104  40.5339752  27.3527248  81.5136104
  41.0789752  25.8807248  79.5116104  41.8279752  26.6237248  77.3986104
  42.1379752  28.9267248  77.0196104  41.7129752  30.4907248  78.7236104
  40.9479752  29.7547248  80.8356104  40.4039752  26.4157248  81.6766104
  94.3889752 100.0477248  40.7906104  93.0959752 100.5677248  40.8246104
  92.8819752 101.8547248  41.2896104  93.9639752 102.6117248  41.7156104
  95.2529752 102.0987248  41.6806104  95.4689752 100.8077248  41.2196104
  94.5909752  98.8427248  40.3626104  92.3469752 100.0297248  40.5236104
  91.9849752 102.2237248  41.3176104  93.8169752 103.5137248  42.0416104
  95.9999752 102.6407248  41.9776104  96.3669752 100.4397248  41.1976104
  93.8499752  98.3087248  40.0656104  98.7389752  34.0637248 101.1126104
  98.9189752  33.0507248 102.0546104  98.7539752  33.3237248 103.4026104
  98.4089752  34.6087248 103.7966104  98.2279752  35.6187248 102.8636104
  98.3969752  35.3487248 101.5126104  98.8989752  33.8117248  99.8526104
  99.1579752  32.1557248 101.7656104  98.8779752  32.6247248 104.0626104
  98.2939752  34.8037248 104.7406104  97.9829752  36.5107248 103.1536104
  98.2769752  36.0507248 100.8536104  99.1379752  32.9267248  99.5666104
 124.2199752  96.8247248  98.7776104 125.1899752  95.9337248  99.2406104
 126.5249752  96.3017248  99.2286104 126.8799752  97.5557248  98.7556104
 125.9179752  98.4457248  98.2966104 124.5799752  98.0787248  98.3036104
 122.9719752  96.4807248  98.7826104 124.9289752  95.0597248  99.5696104
 127.2049752  95.6877248  99.5476104 127.8149752  97.8157248  98.7456104
 126.1809752  99.3207248  97.9726104 123.9019752  98.6917248  97.9786104
 122.7139752  95.6147248  99.1066104 116.3999752  44.6367248  99.7656104
 116.1349752  43.5637248  98.9146104 116.5699752  43.6017248  97.5996104
 117.2679752  44.7127248  97.1486104 117.5369752  45.7807248  97.9926104
 117.0979752  45.7467248  99.3086104 115.9889752  44.6057248 100.9926104
 115.6459752  42.7927248  99.2416104 116.3879752  42.8607248  97.0016104
 117.5739752  44.7427248  96.2276104 118.0299752  46.5477248  97.6646104
 117.2769752  46.4917248  99.9036104 115.5039752  43.8427248 101.3176104
  99.4909752  99.3107248  57.1036104  98.6659752  99.5637248  56.0076104
  97.2999752  99.3577248  56.1106104  96.7709752  98.8997248  57.3086104
  97.5879752  98.6487248  58.4016104  98.9569752  98.8507248  58.2996104
 100.7689752  99.4977248  57.0086104  99.0479752  99.8847248  55.1756104
  96.7199752  99.5297248  55.3526104  95.8149752  98.7537248  57.3826104
  97.2039752  98.3337248  59.2336104  99.5359752  98.6727248  59.0576104
 101.1479752  99.8127248  56.1846104  76.2679752  55.9617248 128.9216104
  75.6539752  56.5897248 127.8376104  76.4109752  57.3497248 126.9616104
  77.7759752  57.4747248 127.1766104  78.3909752  56.8487248 128.2526104
  77.6329752  56.0907248 129.1346104  75.5609752  55.2557248 129.7456104
  74.6989752  56.4937248 127.6976104  75.9919752  57.7907248 126.2066104
  78.3089752  58.0067248 126.5656104  79.3469752  56.9417248 128.3876104
  78.0549752  55.6547248 129.8916104  74.6149752  55.1627248 129.6086104
 101.7409752  56.2547248  34.6296104 102.7469752  57.0007248  34.0146104
 102.5199752  57.5727248  32.7736104 101.2899752  57.3927248  32.1576104
 100.2869752  56.6537248  32.7676104 100.5119752  56.0757248  34.0086104
 101.9519752  55.7147248  35.7876104 103.6019752  57.1197248  34.4566104
 103.2149752  58.0917248  32.3386104 101.1289752  57.7917248  31.2876104
  99.4299752  56.5397248  32.3266104  99.8179752  55.5527248  34.4386104
 102.7999752  55.8307248  36.2236104  63.3579752  26.7217248 100.9846104
  62.5009752  26.7367248 102.0856104  61.5229752  25.7647248 102.2116104
  61.4099752  24.7847248 101.2356104  62.2609752  24.7647248 100.1396104
  63.2399752  25.7407248 100.0096104  64.2689752  27.6327248 100.8616104
  62.5909752  27.4257248 102.7616104  60.9219752  25.7687248 102.9726104
  60.7249752  24.1027248 101.3206104  62.1729752  24.0717248  99.4676104
  63.8349752  25.7377248  99.2436104  64.3569752  28.3167248 101.5296104
  58.3179752 129.3277248  83.4866104  57.8509752 130.0007248  82.3586104
  57.3819752 131.2997248  82.4746104  57.3859752 131.9127248  83.7186104
  57.8529752 131.2477248  84.8436104  58.3189752 129.9447248  84.7296104
  58.7519752 128.1117248  83.3806104  57.8539752 129.5617248  81.4936104
  57.0529752 131.7737248  81.6956104  57.0569752 132.8217248  83.8036104
  57.8539752 131.6907248  85.7056104  58.6419752 129.4707248  85.5126104
  58.7529752 127.6757248  82.5256104  41.9509752  89.5797248  63.1196104
  41.6069752  88.5737248  64.0226104  42.0959752  88.6127248  65.3186104
  42.9239752  89.6577248  65.6996104  43.2659752  90.6617248  64.8046104
  42.7809752  90.6227248  63.5056104  41.4999752  89.5417248  61.9066104
  41.0259752  87.8477248  63.7446104  41.8619752  87.9167248  65.9516104
  43.2679752  89.6877248  66.6066104  43.8429752  91.3897248  65.0876104
  43.0209752  91.3177248  62.8716104  40.9269752  88.8227248  61.6296104
  43.0289752 105.9587248 121.3086104  43.7689752 104.7767248 121.3496104
  44.9579752 104.6827248 120.6456104  45.3979752 105.7717248 119.9076104
  44.6669752 106.9497248 119.8666104  43.4729752 107.0457248 120.5676104
  41.9139752 106.0477248 121.9616104  43.4509752 104.0227248 121.8696104
  45.4769752 103.8637248 120.6676104  46.2299752 105.7087248 119.4126104
  44.9889752 107.7047248 119.3496104  42.9519752 107.8637248 120.5396104
  41.5989752 105.2997248 122.4746104  25.5999752 113.1587248  62.9996104
  24.7379752 113.1647248  64.0966104  25.0349752 113.9437248  65.2026104
  26.1909752 114.7117248  65.2006104  27.0489752 114.7097248  64.1106104
  26.7559752 113.9267248  63.0036104  25.3269752 112.4257248  61.9666104
  23.9329752 112.6247248  64.0856104  24.4429752 113.9527248  65.9696104
  26.4029752 115.2577248  65.9746104  27.8509752 115.2547248  64.1216104
  27.3529752 113.9157248  62.2386104  24.5299752 111.8897248  61.9566104
  21.8449752  73.7847248 109.6886104  22.8589752  74.7387248 109.7726104
  23.3519752  75.3247248 108.6186104  22.8259752  74.9527248 107.3896104
  21.8149752  74.0057248 107.3026104  21.3219752  73.4137248 108.4566104
  21.3859752  73.2307248 110.7656104  23.2179752  74.9917248 110.6376104
  24.0579752  75.9877248 108.6676104  23.1689752  75.3607248 106.5796104
  21.4529752  73.7587248 106.4366104  20.6199752  72.7467248 108.4036104
  21.7429752  73.4797248 111.6216104  76.1829752  56.8037248 134.3876104
  75.5349752  56.3997248 135.5556104  75.5879752  57.1987248 136.6856104
  76.2879752  58.3957248 136.6376104  76.9319752  58.8027248 135.4776104
  76.8839752  58.0007248 134.3456104  76.1399752  56.0547248 133.3326104
  75.0479752  55.5617248 135.5756104  75.1409752  56.9257248 137.5016104
  76.3269752  58.9577248 137.4276104  77.4139752  59.6437248 135.4576104
  77.3369752  58.2747248 133.5326104  75.6599752  55.2237248 133.3526104
  64.2109752  59.7227248  24.9476104  62.8759752  59.3747248  25.1546104
  61.9349752  59.6357248  24.1726104  62.3369752  60.2407248  22.9906104
  63.6639752  60.5857248  22.7796104  64.6079752  60.3297248  23.7646104
  65.0909752  59.4847248  25.8666104  62.6069752  58.9507248  25.9846104
  61.0039752  59.3977248  24.3096104  61.6799752  60.4257248  22.3016104
  63.9319752  61.0047248  21.9476104  65.5369752  60.5737248  23.6276104
  64.8249752  59.0667248  26.6896104  54.2399752 105.1177248  51.9816104
  55.3999752 104.8497248  51.2536104  55.3669752 103.9307248  50.2176104
  54.1749752 103.2877248  49.9186104  53.0189752 103.5527248  50.6386104
  53.0499752 104.4707248  51.6796104  54.2699752 105.9727248  52.9536104
  56.2269752 105.3067248  51.4716104  56.1689752 103.7377248  49.7076104
  54.1489752 102.6417248  49.1946104  52.1919752 103.0987248  50.4156104
  52.2469752 104.6577248  52.1916104  55.0889752 106.4237248  53.1706104
  70.5049752  70.6157248  36.4506104  69.4259752  70.6657248  37.3336104
  69.6149752  70.3597248  38.6716104  70.8809752  70.0057248  39.1146104
  71.9569752  69.9567248  38.2396104  71.7699752  70.2597248  36.8976104
  70.3289752  70.8967248  35.1986104  68.5459752  70.9157248  37.0126104
  68.8699752  70.3907248  39.2916104  71.0169752  69.7897248  40.0506104
  72.8379752  69.7127248  38.5636104  72.5159752  70.2227248  36.2786104
  69.4579752  71.1417248  34.8796104  66.8679752  56.9107248  39.7656104
  65.4989752  56.8257248  40.0186104  64.6109752  56.6797248  38.9656104
  65.0999752  56.6197248  37.6686104  66.4609752  56.7007248  37.4136104
  67.3529752  56.8507248  38.4656104  67.6999752  57.0517248  40.7476104
  65.1689752  56.8677248  40.9296104  63.6569752  56.6217248  39.1326104
  64.4799752  56.5187248  36.9286104  66.7889752  56.6527248  36.5016104
  68.3059752  56.9147248  38.2956104  67.3739752  57.0967248  41.6496104
  59.6099752 113.5357248  38.2766104  60.4999752 114.4077248  37.6496104
  60.2459752 115.7697248  37.6496104  59.1039752 116.2477248  38.2756104
  58.2169752 115.3827248  38.9016104  58.4669752 114.0177248  38.9006104
  59.8419752 112.2617248  38.2726104  61.2959752 114.0617248  37.2166104
  60.8589752 116.3827248  37.2156104  58.9229752 117.2007248  38.2766104
  57.4249752 115.7317248  39.3396104  57.8489752 113.4067248  39.3306104
  60.6279752 111.9187248  37.8416104  43.2609752  88.0467248  97.0556104
  43.9949752  87.4857248  96.0096104  44.9809752  86.5527248  96.2826104
  45.2249752  86.1877248  97.5986104  44.4959752  86.7417248  98.6416104
  43.5099752  87.6797248  98.3706104  42.3419752  88.9237248  96.8036104
  43.8139752  87.7477248  95.0936104  45.4969752  86.1587248  95.5616104
  45.9159752  85.5347248  97.7926104  44.6749752  86.4737248  99.5556104
  42.9999752  88.0767248  99.0946104  42.1649752  89.1847248  95.8966104
 104.7089752  88.3127248 129.4126104 105.3959752  87.1187248 129.6346104
 105.9469752  86.8617248 130.8796104 105.8059752  87.7997248 131.8916104
 105.1209752  88.9877248 131.6756104 104.5719752  89.2497248 130.4276104
 104.1979752  88.5587248 128.2486104 105.4859752  86.4707248 128.9196104
 106.4259752  86.0347248 131.0416104 106.1909752  87.6227248 132.7636104
 105.0269752  89.6317248 132.3936104 104.0969752  90.0807248 130.2666104
 104.2899752  87.9177248 127.5396104  85.2219752 135.9067248  69.5916104
  85.3739752 137.1827248  70.1356104  86.1969752 137.3697248  71.2346104
  86.8609752 136.2797248  71.7786104  86.7129752 135.0097248  71.2386104
  85.8859752 134.8187248  70.1406104  84.4489752 135.7287248  68.5676104
  84.9059752 137.9367248  69.7456104  86.3069752 138.2527248  71.6196104
  87.4369752 136.4077248  72.5486104  87.1869752 134.2587248  71.6266104
  85.7739752 133.9337248  69.7606104  83.9829752 136.4747248  68.1826104
  23.4809752  69.0957248 108.3246104  23.0749752  69.6957248 109.5166104
  21.8519752  69.3637248 110.0746104  21.0449752  68.4327248 109.4366104
  21.4469752  67.8307248 108.2516104  22.6699752  68.1657248 107.6886104
  24.6219752  69.4097248 107.7976104  23.6479752  70.3447248 109.9536104
  21.5619752  69.7777248 110.9026104  20.1869752  68.1977248 109.8246104
  20.8739752  67.1787248 107.8196104  22.9549752  67.7537248 106.8576104
  25.1879752  70.0527248 108.2286104 110.2779752  58.1937248 102.9116104
 111.2889752  58.8547248 103.6086104 111.0989752  59.2027248 104.9366104
 109.8989752  58.8847248 105.5556104 108.8909752  58.2247248 104.8656104
 109.0779752  57.8797248 103.5346104 110.4519752  57.8727248 101.6696104
 112.1249752  59.0697248 103.1656104 111.7959752  59.6627248 105.4276104
 109.7619752  59.1277248 106.4846104 108.0589752  58.0057248 105.3126104
 108.3759752  57.4237248 103.0446104 111.2779752  58.0877248 101.2296104
  67.5009752 117.9377248 108.6616104  67.3569752 119.1237248 107.9426104
  68.1679752 119.3687248 106.8466104  69.1159752 118.4247248 106.4796104
  69.2609752 117.2427248 107.1906104  68.4529752 116.9967248 108.2916104
  66.7479752 117.7087248 109.6906104  66.6889752 119.7747248 108.2086104
  68.0739752 120.1917248 106.3416104  69.6859752 118.5947248 105.7126104
  69.9249752 116.5897248 106.9196104  68.5519752 116.1747248 108.7986104
  66.0889752 118.3537248 109.9556104 111.5649752  56.6297248 118.4706104
 112.0819752  57.7127248 119.1826104 113.4229752  57.7337248 119.5286104
 114.2359752  56.6727248 119.1596104 113.7269752  55.5947248 118.4486104
 112.3829752  55.5687248 118.1036104 110.3109752  56.6057248 118.1496104
 111.5029752  58.4487248 119.4346104 113.7889752  58.4817248 120.0256104
 115.1759752  56.6837248 119.4006104 114.3079752  54.8617248 118.1926104
 112.0169752  54.8167248 117.6116104 109.7369752  57.3337248 118.4016104
  89.2099752  30.2817248  47.8196104  87.9169752  30.0677248  47.3436104
  87.7259752  29.5357248  46.0796104  88.8319752  29.2217248  45.3016104
  90.1199752  29.4307248  45.7726104  90.3129752  29.9677248  47.0386104
  89.3899752  30.7847248  48.9996104  87.1519752  30.2897248  47.8976104
  86.8309752  29.3847248  45.7406104  88.7019752  28.8487248  44.4156104
  90.8829752  29.2027248  45.2206104  91.2109752  30.1227248  47.3726104
  88.6329752  31.0067248  49.5476104  96.8529752  46.5727248 104.0466104
  96.1519752  47.6717248 103.5516104  96.8399752  48.7237248 102.9696104
  98.2239752  48.6667248 102.8866104  98.9249752  47.5727248 103.3756104
  98.2379752  46.5197248 103.9636104  96.2129752  45.5907248 104.5966104
  95.1849752  47.6997248 103.6146104  96.3599752  49.4927248 102.6246104
  98.7089752  49.4017248 102.4796104  99.8919752  47.5447248 103.3066104
  98.7209752  45.7547248 104.3126104  95.2549752  45.6187248 104.6616104
 110.4209752  97.0867248  49.7286104 110.5129752  96.7007248  51.0656104
 109.3999752  96.7877248  51.8866104 108.2059752  97.2597248  51.3626104
 108.1099752  97.6427248  50.0326104 109.2239752  97.5607248  49.2096104
 111.4609752  97.0117248  48.9616104 111.3529752  96.3707248  51.4206104
 109.4559752  96.5227248  52.8176104 107.4249752  97.3227248  51.9356104
 107.2669752  97.9667248  49.6786104 109.1669752  97.8317248  48.2796104
 112.2939752  96.6877248  49.3126104  27.6189752  39.1227248  60.4916104
  28.6779752  38.5207248  61.1706104  28.4299752  37.4837248  62.0546104
  27.1249752  37.0567248  62.2506104  26.0679752  37.6517248  61.5756104
  26.3139752  38.6937248  60.6926104  27.8479752  40.0967248  59.6696104
  29.5869752  38.8267248  61.0236104  29.1609752  37.0607248  62.5316104
  26.9469752  36.3307248  62.8696104  25.1619752  37.3397248  61.7196104
  25.5809752  39.1187248  60.2206104  28.7469752  40.4017248  59.5256104
  57.1759752 111.7077248  89.0966104  57.6749752 112.9997248  89.2606104
  56.8029752 114.0737248  89.3226104  55.4379752 113.8467248  89.2216104
  54.9369752 112.5617248  89.0616104  55.8089752 111.4847248  88.9946104
  57.9899752 110.7027248  89.0326104  58.6309752 113.1457248  89.3316104
  57.1419752 114.9747248  89.4346104  54.8239752 114.5967248  89.2636104
  53.9799752 112.4177248  88.9966104  55.4669752 110.5847248  88.8766104
  58.9369752 110.8467248  89.1006104  35.9089752  61.7467248  33.1566104
  35.1389752  61.3357248  32.0686104  33.9169752  60.7197248  32.2806104
  33.4739752  60.5207248  33.5796104  34.2349752  60.9297248  34.6656104
  35.4619752  61.5427248  34.4556104  37.0539752  62.3177248  32.9616104
  35.4589752  61.4827248  31.1646104  33.3769752  60.4307248  31.5286104
  32.6189752  60.0887248  33.7316104  33.9109752  60.7867248  35.5686104
  36.0029752  61.8267248  35.2096104  37.3719752  62.4607248  32.0666104
  18.9619752  52.6467248  87.5296104  18.0699752  52.2347248  88.5196104
  18.4909752  52.1537248  89.8366104  19.7999752  52.4857248  90.1516104
  20.6899752  52.8987248  89.1706104  20.2719752  52.9767248  87.8496104
  18.5729752  52.7177248  86.2966104  17.1569752  52.0067248  88.2856104
  17.8779752  51.8667248  90.5306104  20.0989752  52.4297248  91.0736104
  21.6009752  53.1317248  89.4066104  20.8899752  53.2587248  87.1556104
  17.6689752  52.4897248  86.0646104  73.1109752  49.8117248  27.9426104
  72.3269752  49.5577248  29.0676104  72.4999752  50.3157248  30.2146104
  73.4549752  51.3217248  30.2246104  74.2349752  51.5797248  29.1066104
  74.0659752  50.8187248  27.9586104  72.9549752  49.1007248  26.8716104
  71.6619752  48.8517248  29.0476104  71.9599752  50.1437248  31.0016104
  73.5789752  51.8537248  31.0266104  74.8949752  52.2887248  29.1266104
  74.6119752  50.9887248  27.1736104  72.2979752  48.4007248  26.8516104
  76.7959752  24.5147248 114.4056104  77.9009752  24.8897248 113.6416104
  77.7799752  25.0147248 112.2676104  76.5539752  24.7637248 111.6686104
  75.4519752  24.3917248 112.4256104  75.5719752  24.2617248 113.8016104
  76.9089752  24.3917248 115.6896104  78.7529752  25.0647248 114.0716104
  78.5439752  25.2737248 111.7296104  76.4659752  24.8487248 110.7066104
  74.5999752  24.2237248 111.9936104  74.8069752  23.9967248 114.3376104
  77.7519752  24.5617248 116.1156104  53.5889752 101.1197248  68.3356104
  52.3449752 100.6407248  67.9246104  52.1639752 100.2267248  66.6156104
  53.2289752 100.2927248  65.7286104  54.4689752 100.7667248  66.1346104
  54.6509752 101.1867248  67.4436104  53.7589752 101.5137248  69.5566104
  51.6089752 100.5987248  68.5536104  51.3019752  99.8937248  66.3216104
  53.1049752 100.0037248  64.8106104  55.2049752 100.8037248  65.5046104
  55.5139752 101.5247248  67.7346104  53.0299752 101.4737248  70.1806104
  93.9479752  45.8167248 117.4146104  93.8499752  44.4777248 117.7926104
  92.6849752  43.7727248 117.5376104  91.6289752  44.4127248 116.9056104
  91.7229752  45.7447248 116.5266104  92.8869752  46.4537248 116.7846104
  95.0329752  46.4797248 117.6566104  94.5959752  44.0417248 118.2316104
  92.6079752  42.8417248 117.7986104  90.8109752  43.9217248 116.7266104
  90.9779752  46.1777248 116.0816104  92.9589752  47.3867248 116.5276104
  95.7709752  46.0487248 118.0936104 116.8119752  64.9817248  85.4726104
 116.2319752  63.7197248  85.5986104 114.9059752  63.6047248  85.9826104
 114.1709752  64.7537248  86.2346104 114.7429752  66.0117248  86.1076104
 116.0729752  66.1287248  85.7286104 118.0529752  65.0917248  85.1196104
 116.7559752  62.9237248  85.4176104 114.4959752  62.7307248  86.0736104
 113.2419752  64.6767248  86.5046104 114.2159752  66.8057248  86.2836104
 116.4819752  67.0047248  85.6426104 118.5729752  64.3037248  84.9426104
  44.4349752  54.6377248  47.9756104  43.3269752  54.5917248  47.1286104
  43.5089752  54.5067248  45.7586104  44.7969752  54.4667248  45.2456104
  45.9019752  54.5097248  46.0846104  45.7229752  54.5997248  47.4576104
  44.2669752  54.7227248  49.2566104  42.4309752  54.6187248  47.4996104
  42.7439752  54.4757248  45.1636104  44.9279752  54.4087248  44.2866104
  46.7969752  54.4777248  45.7126104  46.4899752  54.6357248  48.0506104
  43.3809752  54.7517248  49.6236104  67.0649752  34.9647248 110.0776104
  68.2739752  34.4197248 109.6446104  68.7279752  33.2287248 110.1876104
  67.9679752  32.5937248 111.1586104  66.7629752  33.1307248 111.5896104
  66.3089752  34.3257248 111.0506104  66.6409752  36.0807248 109.5746104
  68.7949752  34.8737248 108.9636104  69.5679752  32.8447248 109.8936104
  68.2829752  31.7597248 111.5416104  66.2399752  32.6727248 112.2666104
  65.4699752  34.7107248 111.3506104  67.1589752  36.5307248 108.9026104
  34.7969752 117.9787248  69.6826104  35.6799752 117.4357248  70.6156104
  35.3239752 116.2977248  71.3216104  34.0889752 115.7127248  71.0866104
  33.2079752 116.2477248  70.1566104  33.5609752 117.3897248  69.4516104
  35.1249752 119.0457248  69.0256104  36.5409752 117.8537248  70.7706104
  35.9309752 115.9157248  71.9736104  33.8359752 114.9157248  71.5796104
  32.3499752 115.8257248  69.9996104  32.9489752 117.7737248  68.8036104
  35.9769752 119.4607248  69.1796104  87.5059752  51.5757248 132.5126104
  88.7549752  50.9677248 132.6436104  89.6579752  51.4427248 133.5796104
  89.3039752  52.5207248 134.3786104  88.0619752  53.1257248 134.2526104
  87.1569752  52.6547248 133.3126104  86.6619752  51.1367248 131.6336104
  88.9899752  50.2137248 132.0796104  90.5289752  51.0267248 133.6756104
  89.9349752  52.8557248 135.0346104  87.8269752  53.8757248 134.8216104
  86.2879752  53.0767248 133.2146104  86.8949752  50.3917248 131.0746104
 107.8789752 103.8707248 117.2686104 107.3499752 104.8187248 116.3926104
 107.8039752 104.8787248 115.0856104 108.7809752 103.9887248 114.6656104
 109.3069752 103.0417248 115.5326104 108.8579752 102.9837248 116.8446104
 107.4599752 103.8167248 118.4936104 106.6659752 105.4357248 116.6986104
 107.4419752 105.5357248 114.4706104 109.1009752 104.0277248 113.7496104
 109.9869752 102.4237248 115.2236104 109.2249752 102.3287248 117.4596104
 106.7849752 104.4287248 118.7966104  31.3789752  52.6117248  59.8826104
  31.9799752  51.4307248  60.3176104  31.2239752  50.2757248  60.4376104
  29.8739752  50.3127248  60.1206104  29.2729752  51.4857248  59.6856104
  30.0269752  52.6447248  59.5686104  32.0819752  53.6937248  59.7756104
  32.9249752  51.4177248  60.5346104  31.6339752  49.4507248  60.7396104
  29.3419752  49.5057248  60.2046104  28.3289752  51.4947248  59.4636104
  29.6129752  53.4697248  59.2716104  33.0179752  53.6817248  59.9926104
 106.0929752  31.9347248 113.8686104 105.9199752  32.6967248 115.0246104
 107.0239752  33.2147248 115.6806104 108.2919752  32.9677248 115.1736104
 108.4679752  32.2137248 114.0226104 107.3629752  31.6897248 113.3666104
 105.0619752  31.4447248 113.2566104 105.0279752  32.8627248 115.3676104
 106.9129752  33.7437248 116.4856104 109.0679752  33.3297248 115.6316104
 109.3599752  32.0527248 113.6776104 107.4779752  31.1557248 112.5636104
 104.1789752  31.6077248 113.5976104  98.3729752  24.0657248  62.1016104
  98.6129752  23.6307248  63.4046104  97.7129752  22.7807248  64.0256104
  96.5789752  22.3727248  63.3376104  96.3379752  22.8017248  62.0396104
  97.2359752  23.6567248  61.4176104  99.2099752  24.8647248  61.5216104
  99.4099752  23.9217248  63.8756104  97.8719752  22.4747248  64.9316104
  95.9459752  21.7777248  63.7696104  95.5429752  22.5047248  61.5696104
  97.0719752  23.9657248  60.5126104  99.9979752  25.1547248  61.9876104
 100.1119752  49.4047248  93.7496104  99.3429752  49.2067248  94.8966104
  98.1259752  49.8537248  95.0296104  97.6879752  50.6917248  94.0156104
  98.4489752  50.8897248  92.8716104  99.6709752  50.2457248  92.7376104
 101.2539752  48.8047248  93.6246104  99.6599752  48.6167248  95.5986104
  97.5849752  49.7227248  95.8246104  96.8359752  51.1477248  94.1066104
  98.1279752  51.4747248  92.1686104 100.2119752  50.3827248  91.9436104
 101.5679752  48.2227248  94.3206104 125.8919752  56.5147248  50.0006104
 126.3339752  55.4497248  49.2166104 126.5529752  55.6347248  47.8616104
 126.3289752  56.8847248  47.3026104 125.8909752  57.9477248  48.0806104
 125.6669752  57.7627248  49.4376104 125.6809752  56.3417248  51.2666104
 126.4889752  54.5807248  49.6186104 126.8599752  54.8997248  47.3086104
 126.4809752  57.0177248  46.3536104 125.7429752  58.8167248  47.6766104
 125.3549752  58.4997248  49.9866104 125.8309752  55.4807248  51.6656104
  31.8959752  94.8007248 117.8006104  30.6549752  95.3757248 118.0736104
  30.5269752  96.2787248 119.1166104  31.6419752  96.5987248 119.8776104
  32.8789752  96.0307248 119.6076104  33.0089752  95.1237248 118.5656104
  32.0169752  93.9527248 116.8296104  29.8829752  95.1447248 117.5336104
  29.6669752  96.6817248 119.3136104  31.5549752  97.2297248 120.6096104
  33.6509752  96.2677248 120.1456104  33.8689752  94.7177248 118.3746104
  31.2519752  93.7217248 116.2966104  60.4419752  62.8187248  27.9526104
  60.1239752  63.0407248  29.2926104  61.0819752  62.8347248  30.2716104
  62.3489752  62.4087248  29.9026104  62.6699752  62.1897248  28.5696104
  61.7109752  62.3917248  27.5876104  59.5459752  63.0057248  27.0356104
  59.2349752  63.3397248  29.5376104  60.8689752  62.9847248  31.2056104
  63.0219752  62.2627248  30.5856104  63.5619752  61.8967248  28.3256104
  61.9259752  62.2347248  26.6536104  58.6649752  63.2987248  27.2786104
  72.3089752  31.1377248  42.7236104  72.9519752  30.2697248  41.8416104
  72.8639752  30.4827248  40.4756104  72.1329752  31.5637248  40.0046104
  71.4929752  32.4317248  40.8786104  71.5769752  32.2167248  42.2476104
  72.3859752  30.9367248  44.0006104  73.4609752  29.5177248  42.1836104
  73.3069752  29.8837248  39.8566104  72.0679752  31.7157248  39.0476104
  70.9899752  33.1847248  40.5346104  71.1279752  32.8157248  42.8646104
  72.8869752  30.1917248  44.3396104  51.5699752  18.7207248  77.5126104
  51.0089752  19.1787248  78.7056104  51.7359752  19.1047248  79.8826104
  53.0169752  18.5737248  79.8566104  53.5789752  18.1187248  78.6726104
  52.8519752  18.1877248  77.4926104  50.8909752  18.7837248  76.4126104
  50.1129752  19.5497248  78.7106104  51.3529752  19.4197248  80.7156104
  53.5279752  18.5187248  80.6796104  54.4769752  17.7537248  78.6686104
  53.2349752  17.8667248  76.6606104  50.0019752  19.1487248  76.4176104
  38.1099752 113.0547248  61.5676104  38.5129752 113.5217248  62.8186104
  39.8609752 113.5747248  63.1346104  40.7939752 113.1597248  62.1966104
  40.3979752 112.6957248  60.9496104  39.0479752 112.6387248  60.6326104
  36.8509752 112.9997248  61.2726104  37.8509752 113.8107248  63.4666104
  40.1489752 113.8967248  64.0026104  41.7389752 113.1937248  62.4146104
  41.0619752 112.4137248  60.3016104  38.7619752 112.3107248  59.7656104
  36.1949752 113.2827248  61.9146104 111.3429752  99.3407248  97.2656104
 112.5839752  99.8827248  96.9296104 113.6569752  99.0437248  96.6746104
 113.4789752  97.6707248  96.7576104 112.2449752  97.1277248  97.0896104
 111.1699752  97.9667248  97.3486104 110.3409752 100.1237248  97.5096104
 112.6959752 100.8447248  96.8736104 114.5229752  99.4117248  96.4426104
 114.2279752  97.0797248  96.5806104 112.1339752  96.1657248  97.1386104
 110.3059752  97.5947248  97.5866104 110.4509752 101.0757248  97.4566104
 126.2919752 101.6417248  56.7536104 126.3719752 101.6567248  55.3606104
 127.3139752 102.4547248  54.7326104 128.1689752 103.2287248  55.5016104
 128.0949752 103.2147248  56.8876104 127.1489752 102.4197248  57.5196104
 125.4079752 100.9017248  57.3426104 125.7679752 101.1097248  54.8336104
 127.3749752 102.4717248  53.7646104 128.8299752 103.7887248  55.0646104
 128.7029752 103.7577248  57.4126104 127.0869752 102.4087248  58.4876104
 124.8089752 100.3617248  56.8216104 110.4619752  67.4517248  98.1876104
 109.8289752  67.5237248  99.4286104 110.0329752  66.5247248 100.3666104
 110.8699752  65.4627248 100.0556104 111.5039752  65.3887248  98.8236104
 111.2969752  66.3857248  97.8806104 110.2679752  68.3807248  97.3076104
 109.2469752  68.2717248  99.6346104 109.5959752  66.5667248 101.2306104
 111.0149752  64.7617248 100.7096104 112.0889752  64.6427248  98.6216104
 111.7319752  66.3387248  97.0146104 109.6899752  69.1207248  97.5106104
  76.3019752  55.0067248  17.5526104  75.9439752  55.9047248  18.5576104
  76.4329752  55.7347248  19.8426104  77.2779752  54.6677248  20.1106104
  77.6389752  53.7727248  19.1126104  77.1459752  53.9387248  17.8266104
  75.8399752  55.1607248  16.3526104  75.3529752  56.6477248  18.3576104
  76.1879752  56.3537248  20.5466104  77.6219752  54.5447248  21.0096104
  78.2339752  53.0337248  19.3136104  77.3889752  53.3147248  17.1246104
  75.2539752  55.8947248  16.1546104 112.6589752 102.7847248 120.4446104
 113.7729752 103.5867248 120.6956104 114.5679752 103.3357248 121.8006104
 114.2449752 102.2837248 122.6446104 113.1389752 101.4817248 122.3966104
 112.3379752 101.7337248 121.2926104 111.9099752 103.0217248 119.4146104
 113.9889752 104.3187248 120.0966104 115.3429752 103.8887248 121.9836104
 114.7999752 102.1047248 123.4206104 112.9279752 100.7467248 122.9936104
 111.5599752 101.1817248 121.1156104 112.1229752 103.7477248 118.8236104
  55.5589752  39.8467248  74.0506104  54.5749752  40.8107248  74.2676104
  53.4209752  40.4757248  74.9566104  53.2609752  39.1797248  75.4236104
  54.2389752  38.2177248  75.2116104  55.3939752  38.5497248  74.5176104
  56.6359752  40.1557248  73.4016104  54.6989752  41.7147248  73.9376104
  52.7309752  41.1407248  75.1106104  52.4539752  38.9417248  75.9056104
  54.1149752  37.3167248  75.5466104  56.0799752  37.8817248  74.3596104
  56.7579752  41.0497248  73.0726104 106.0259752  30.7337248  63.7696104
 107.0189752  30.9537248  64.7236104 107.9169752  29.9447248  65.0306104
 107.8149752  28.7247248  64.3786104 106.8299752  28.5027248  63.4266104
 105.9259752  29.5107248  63.1216104 105.1809752  31.6737248  63.4856104
 107.0809752  31.8117248  65.1726104 108.6099752  30.0897248  65.6936104
 108.4419752  28.0157248  64.5916104 106.7729752  27.6457248  62.9756104
 105.2309752  29.3617248  62.4606104 105.2409752  32.5227248  63.9306104
 111.0659752  75.5767248  85.5766104 111.6399752  76.6137248  86.3116104
 111.9019752  76.4407248  87.6606104 111.5889752  75.2307248  88.2626104
 111.0209752  74.1947248  87.5346104 110.7529752  74.3677248  86.1836104
 110.8139752  75.7387248  84.3166104 111.8549752  77.4547248  85.8796104
 112.2989752  77.1567248  88.1796104 111.7709752  75.1057248  89.2076104
 110.8109752  73.3527248  87.9676104 110.3499752  73.6507248  85.6686104
 111.0249752  76.5717248  83.8886104 115.3399752  77.7657248 122.5736104
 114.1059752  78.0137248 121.9716104 114.0189752  78.1107248 120.5926104
 115.1659752  77.9557248 119.8276104 116.3939752  77.7057248 120.4226104
 116.4849752  77.6137248 121.8046104 115.4249752  77.6807248 123.8636104
 113.3109752  78.1187248 122.5176104 113.1659752  78.2847248 120.1666104
 115.1079752  78.0237248 118.8616104 117.1869752  77.5957248 119.8746104
 117.3409752  77.4447248 122.2286104 114.6379752  77.7867248 124.4036104
 120.0449752 117.4517248  94.1536104 120.2329752 116.6317248  95.2666104
 121.4899752 116.5207248  95.8376104 122.5479752 117.2317248  95.2916104
 122.3649752 118.0517248  94.1866104 121.1079752 118.1607248  93.6096104
 118.8719752 117.5527248  93.6146104 119.4839752 116.1407248  95.6396104
 121.6289752 115.9517248  96.6106104 123.4299752 117.1567248  95.6896104
 123.1139752 118.5457248  93.8186104 120.9729752 118.7267248  92.8336104
 118.1319752 117.0647248  93.9816104  60.3849752  22.5497248  51.2686104
  61.1899752  23.0957248  50.2696104  60.9039752  22.8417248  48.9376104
  59.8149752  22.0437248  48.6176104  59.0099752  21.5007248  49.6096104
  59.2969752  21.7507248  50.9446104  60.6539752  22.7807248  52.5146104
  61.9479752  23.6527248  50.5056104  61.4599752  23.2157248  48.2366104
  59.6119752  21.8637248  47.6866104  58.2499752  20.9487248  49.3706104
  58.7429752  21.3697248  51.6436104  61.4059752  23.3307248  52.7486104
  97.6219752  79.1907248  16.9336104  96.8199752  78.4397248  17.7936104
  96.7299752  78.7877248  19.1316104  97.4419752  79.8837248  19.5966104
  98.2379752  80.6347248  18.7436104  98.3339752  80.2857248  17.4036104
  97.7119752  78.8637248  15.6836104  96.3259752  77.6767248  17.4556104
  96.1759752  78.2707248  19.7366104  97.3809752  80.1297248  20.5336104
  98.7259752  81.4007248  19.0826104  98.8929752  80.8017248  16.8016104
  97.2249752  78.1067248  15.3496104  59.5859752 121.0197248  80.1686104
  60.3649752 120.7197248  79.0506104  60.6069752 121.6947248  78.0966104
  60.0709752 122.9617248  78.2706104  59.2979752 123.2657248  79.3826104
  59.0499752 122.2887248  80.3366104  59.3529752 120.1087248  81.0586104
  60.7349752 119.8297248  78.9406104  61.1459752 121.4937248  77.3156104
  60.2379752 123.6467248  77.6036104  58.9329752 124.1567248  79.4926104
  58.5059752 122.4917248  81.1146104  59.7179752 119.2267248  80.9496104
  92.1479752  76.1407248  26.4996104  91.4719752  75.1877248  27.2606104
  91.2189752  75.4267248  28.6006104  91.6439752  76.6187248  29.1696104
  92.3149752  77.5717248  28.4156104  92.5729752  77.3317248  27.0736104
  92.3909752  75.9167248  25.2476104  91.1789752  74.3577248  26.8516104
  90.7499752  74.7687248  29.1366104  91.4689752  76.7897248  30.1086104
  92.6019752  78.4017248  28.8256104  93.0469752  77.9897248  26.5406104
  92.1029752  75.0947248  24.8426104  78.3439752 123.8717248  57.9226104
  78.6019752 122.5117248  57.7506104  79.8849752 122.0237248  57.9396104
  80.8979752 122.9007248  58.3006104  80.6439752 124.2537248  58.4756104
  79.3609752 124.7457248  58.2816104  77.1469752 124.3307248  57.7406104
  77.8859752 121.9087248  57.4996104  80.0729752 121.0807248  57.8206104
  81.7979752 122.5627248  58.4326104  81.3609752 124.8537248  58.7316104
  79.1759752 125.6907248  58.3966104  76.4369752 123.7337248  57.4896104
 108.7589752  82.8027248  32.0806104 108.7509752  84.1957248  32.0136104
 107.9349752  84.9227248  32.8656104 107.1349752  84.2497248  33.7776104
 107.1419752  82.8637248  33.8486104 107.9559752  82.1327248  32.9936104
 109.5169752  82.1217248  31.2816104 109.3149752  84.6557248  31.3726104
 107.9219752  85.8917248  32.8246104 106.5619752  84.7557248  34.3746104
 106.5809752  82.4067248  34.4946104 107.9619752  81.1637248  33.0326104
 110.0739752  82.5757248  30.6456104  98.5859752 121.0517248 104.9236104
  99.7089752 120.9367248 105.7416104  99.5599752 120.9117248 107.1186104
  98.2889752 120.9997248 107.6656104  97.1679752 121.1107248 106.8546104
  97.3149752 121.1407248 105.4746104  98.7229752 121.0807248 103.6366104
 100.5929752 120.8757248 105.3476104 100.3369752 120.8337248 107.6946104
  98.1809752 120.9827248 108.6296104  96.2839752 121.1667248 107.2506104
  96.5369752 121.2237248 104.9016104  99.5979752 121.0217248 103.2456104
 100.4919752  22.8177248  67.4096104 101.1109752  22.4357248  66.2196104
 101.8019752  23.3737248  65.4696104 101.8689752  24.6847248  65.9176104
 101.2559752  25.0677248  67.1026104 100.5599752  24.1307248  67.8526104
  99.8409752  21.9437248  68.1086104 101.0589752  21.5157248  65.9176104
 102.2339752  23.1167248  64.6406104 102.3509752  25.3447248  65.3946104
 101.3149752  25.9867248  67.4056104 100.1239752  24.3917248  68.6796104
  99.7869752  21.0327248  67.8096104 115.1929752  71.9667248 116.3536104
 114.2769752  71.1417248 115.7016104 114.3469752  70.9847248 114.3266104
 115.3339752  71.6527248 113.6176104 116.2489752  72.4727248 114.2626104
 116.1779752  72.6347248 115.6396104 115.1259752  72.1197248 117.6386104
 113.5919752  70.6787248 116.2086104 113.7129752  70.4147248 113.8656104
 115.3849752  71.5457248 112.6546104 116.9359752  72.9297248 113.7546104
 116.8109752  73.2097248 116.0976104 114.4469752  71.6627248 118.1406104
  99.9959752 124.4657248  53.1386104 100.8849752 125.0497248  54.0406104
 102.2329752 124.7397248  53.9786104 102.6809752 123.8507248  53.0126104
 101.7999752 123.2707248  52.1106104 100.4479752 123.5757248  52.1746104
  98.7329752 124.7497248  53.1986104 100.5589752 125.6707248  54.7106104
 102.8579752 125.1397248  54.6026104 103.6259752 123.6317248  52.9666104
 102.1289752 122.6537248  51.4386104  99.8249752 123.1697248  51.5516104
  98.4109752 125.3627248  53.8636104  50.2769752 113.9867248  83.3426104
  49.1549752 113.1627248  83.4226104  48.1719752 113.4257248  84.3626104
  48.3199752 114.5107248  85.2136104  49.4339752 115.3347248  85.1356104
  50.4219752 115.0707248  84.1976104  51.1999752 113.7397248  82.4686104
  49.0619752 112.4077248  82.8206104  47.3889752 112.8567248  84.4256104
  47.6339752 114.6967248  85.8746104  49.5219752 116.0927248  85.7346104
  51.2069752 115.6387248  84.1406104  51.1099752 112.9907248  81.8736104
  43.2299752  53.2897248  31.0406104  43.5199752  53.5367248  32.3826104
  44.5349752  54.4167248  32.7176104  45.2509752  55.0437248  31.7086104
  44.9629752  54.8027248  30.3716104  43.9499752  53.9177248  30.0336104
  42.2849752  52.4627248  30.7246104  43.0119752  53.0927248  33.0796104
  44.7439752  54.5937248  33.6486104  45.9629752  55.6607248  31.9396104
  45.4689752  55.2517248  29.6766104  43.7459752  53.7387248  29.1016104
  41.7829752  52.0217248  31.4146104 105.3979752  71.1957248 112.3626104
 104.9769752  71.8507248 111.2056104 103.9159752  72.7387248 111.2616104
 103.2849752  72.9657248 112.4756104 103.7019752  72.3177248 113.6306104
 104.7619752  71.4247248 113.5756104 106.3859752  70.3607248 112.3116104
 105.4269752  71.6837248 110.3616104 103.6169752  73.1967248 110.4616104
 102.5409752  73.5867248 112.5196104 103.2539752  72.4897248 114.4736104
 105.0559752  70.9637248 114.3776104 106.8299752  70.1937248 111.4766104
  49.4399752 115.6167248  64.9376104  48.9159752 115.8107248  66.2156104
  47.7569752 116.5517248  66.3796104  47.1329752 117.0917248  65.2646104
  47.6499752 116.8987248  63.9916104  48.8139752 116.1607248  63.8246104
  50.5269752 114.9297248  64.7826104  49.3599752 115.4267248  66.9876104
  47.3859752 116.6927248  67.2646104  46.3209752 117.6117248  65.3766104
  47.2009752 117.2787248  63.2216104  49.1849752 116.0257248  62.9386104
  50.9689752 114.5507248  65.5456104  55.2529752  41.8657248  39.1646104
  55.0789752  40.5627248  39.6296104  54.0659752  40.2817248  40.5316104
  53.2359752  41.3057248  40.9616104  53.4039752  42.6037248  40.4996104
  54.4209752  42.8887248  39.5986104  56.2019752  42.1327248  38.3256104
  55.6649752  39.8537248  39.3206104  53.9389752  39.3777248  40.8606104
  52.5259752  41.1127248  41.5936104  52.8129752  43.3097248  40.8056104
  54.5489752  43.7947248  39.2756104  56.7839752  41.4317248  38.0216104
  78.4779752 134.8237248  71.6616104  77.7709752 135.5677248  72.6066104
  76.4409752 135.8817248  72.3816104  75.8289752 135.4487248  71.2146104
  76.5279752 134.7057248  70.2736104  77.8619752 134.3937248  70.4946104
  79.7229752 134.5337248  71.8666104  78.2089752 135.8637248  73.4196104
  75.9419752 136.3997248  73.0326104  74.8969752 135.6677248  71.0536104
  76.0859752 134.4057248  69.4646104  78.3599752 133.8797248  69.8386104
  80.1579752 134.8287248  72.6706104  92.5329752  42.2307248  27.5586104
  92.1559752  42.3357248  26.2196104  92.9869752  42.9807248  25.3186104
  94.1879752  43.5137248  25.7636104  94.5669752  43.4087248  27.0946104
  93.7339752  42.7677248  28.0006104  91.7549752  41.6337248  28.4046104
  91.3149752  41.9577248  25.9206104  92.7319752  43.0587248  24.3856104
  94.7719752  43.9667248  25.1346104  95.4119752  43.7827248  27.3906104
  93.9889752  42.6957248  28.9336104  90.9209752  41.2617248  28.1096104
 109.4479752  29.8277248  90.9366104 110.7149752  30.3107248  91.2626104
 111.2239752  30.1097248  92.5346104 110.4619752  29.4257248  93.4706104
 109.2019752  28.9407248  93.1496104 108.6879752  29.1447248  91.8766104
 108.9679752  30.0187248  89.7496104 111.2389752  30.7867248  90.5986104
 112.1039752  30.4437248  92.7696104 110.8159752  29.2837248  94.3626104
 108.6819752  28.4607248  93.8126104 107.8059752  28.8137248  91.6456104
 109.4849752  30.4917248  89.0936104  61.0589752  51.9407248 133.6956104
  62.2979752  51.6457248 133.1266104  62.3649752  50.8567248 131.9896104
  61.1919752  50.3707248 131.4316104  59.9569752  50.6637248 131.9926104
  59.8879752  51.4497248 133.1346104  60.9949752  52.6727248 134.7616104
  63.1109752  51.9927248 133.5256104  63.2219752  50.6457248 131.5886104
  61.2349752  49.8167248 130.6356104  59.1449752  50.3207248 131.5886104
  59.0289752  51.6547248 133.5366104  61.7999752  53.0147248 135.1576104
 107.7059752 104.3447248  54.8256104 108.4049752 105.1207248  53.9006104
 108.3749752 104.7857248  52.5566104 107.6459752 103.6787248  52.1496104
 106.9479752 102.9057248  53.0666104 106.9799752 103.2367248  54.4136104
 107.7369752 104.6527248  56.0826104 108.9099752 105.8937248  54.1976104
 108.8589752 105.3197248  51.9076104 107.6239752 103.4407248  51.2086104
 106.4389752 102.1367248  52.7666104 106.4989752 102.6977248  55.0616104
 108.2389752 105.4167248  56.3776104  49.5649752  64.6597248  51.5536104
  50.7639752  63.9777248  51.7606104  51.8269752  64.6217248  52.3696104
  51.6829752  65.9427248  52.7686104  50.4909752  66.6247248  52.5666104
  49.4249752  65.9817248  51.9516104  48.5699752  64.0607248  50.9786104
  50.8519752  63.0537248  51.4786104  52.6649752  64.1557248  52.5166104
  52.4259752  66.3977248  53.1946104  50.4019752  67.5457248  52.8536104
  48.5899752  66.4527248  51.8016104  48.6579752  63.1467248  50.6976104
 105.7999752 106.8267248  32.5706104 106.3459752 105.6697248  33.1256104
 107.1549752 104.8507248  32.3556104 107.4119752 105.1967248  31.0366104
 106.8719752 106.3487248  30.4816104 106.0579752 107.1687248  31.2496104
 105.0379752 107.5917248  33.2866104 106.1599752 105.4397248  34.0496104
 107.5369752 104.0437248  32.7336104 107.9769752 104.6247248  30.4946104
 107.0639752 106.5797248  29.5596104 105.6719752 107.9727248  30.8676104
 104.8519752 107.3627248  34.2006104 101.7499752  92.7747248  46.8886104
 101.6949752  92.0377248  45.7056104 100.6079752  91.2177248  45.4536104
  99.5829752  91.1437248  46.3856104  99.6319752  91.8777248  47.5626104
 100.7229752  92.6957248  47.8196104 102.7679752  93.5377248  47.1296104
 102.4169752  92.0987248  45.0616104 100.5629752  90.7007248  44.6346104
  98.8199752  90.5697248  46.2116104  98.9059752  91.8187248  48.2026104
 100.7669752  93.2077248  48.6426104 103.4839752  93.5967248  46.4926104
  47.5219752 120.2397248 112.7086104  46.3819752 119.4807248 112.4446104
  46.0329752 119.1927248 111.1346104  46.8279752 119.6657248 110.1016104
  47.9639752 120.4187248 110.3596104  48.3129752 120.7127248 111.6706104
  47.8459752 120.5157248 113.9316104  45.8349752 119.1547248 113.1756104
  45.2409752 118.6667248 110.9426104  46.5859752 119.4657248 109.1826104
  48.5129752 120.7387248 109.6266104  49.1029752 121.2437248 111.8596104
  47.3039752 120.1947248 114.6556104  46.4819752  96.2537248  98.6256104
  47.7309752  95.7867248  98.2156104  48.8819752  96.3057248  98.7846104
  48.7739752  97.2857248  99.7606104  47.5329752  97.7507248 100.1736104
  46.3789752  97.2357248  99.6006104  45.4049752  95.7737248  98.0906104
  47.7929752  95.1007248  97.5326104  49.7539752  95.9877248  98.5046104
  49.5789752  97.6517248 100.1616104  47.4729752  98.4327248 100.8596104
  45.5079752  97.5597248  99.8796104  45.4659752  95.0957248  97.4136104
  79.0929752  98.0647248  20.1486104  79.4469752  99.2207248  20.8456104
  80.6429752  99.8587248  20.5616104  81.4739752  99.3367248  19.5806104
  81.1249752  98.1887248  18.8836104  79.9289752  97.5447248  19.1706104
  77.9789752  97.4627248  20.4176104  78.8569752  99.5767248  21.5286104
  80.8969752 100.6617248  21.0416104  82.3129752  99.7807248  19.3796104
  81.7139752  97.8377248  18.1976104  79.6799752  96.7387248  18.6916104
  77.3949752  97.8137248  21.0946104  61.5529752 119.6447248  49.6346104
  60.5019752 120.5617248  49.5996104  60.0059752 121.0887248  50.7806104
  60.5669752 120.6947248  51.9866104  61.6139752 119.7847248  52.0256104
  62.1089752 119.2527248  50.8436104  62.0139752 119.1467248  48.5316104
  60.1189752 120.8297248  48.7496104  59.2749752 121.7247248  50.7646104
  60.2209752 121.0617248  52.8166104  61.9989752 119.5227248  52.8766104
  62.8379752 118.6117248  50.8626104  61.6339752 119.4107248  47.6906104
 125.0709752  64.9837248  55.0356104 126.0999752  65.4527248  54.2196104
 125.8389752  65.7817248  52.8996104 124.5499752  65.6387248  52.4076104
 123.5219752  65.1747248  53.2166104 123.7829752  64.8407248  54.5386104
 125.3139752  64.6707248  56.2686104 126.9969752  65.5497248  54.5756104
 126.5489752  66.1067248  52.3256104 124.3629752  65.8667248  51.4826104
 122.6249752  65.0837248  52.8606104 123.0709752  64.5107248  55.1096104
 126.2019752  64.7637248  56.6206104  72.7339752 131.3977248  72.3896104
  73.8989752 131.3097248  73.1516104  74.1809752 130.1477248  73.8506104
  73.2949752 129.0827248  73.7806104  72.1349752 129.1647248  73.0216104
  71.8489752 130.3297248  72.3246104  72.4649752 132.4847248  71.7396104
  74.5109752 132.0617248  73.1906104  74.9879752 130.0797248  74.3826104
  73.4889752 128.2667248  74.2696104  71.5279752 128.4107248  72.9796104
  71.0379752 130.3977248  71.7966104  73.0699752 133.2297248  71.7806104
 113.4179752  94.0597248 111.0776104 112.8659752  95.3087248 110.7926104
 112.8959752  96.3107248 111.7476104 113.4789752  96.0557248 112.9806104
 114.0309752  94.8147248 113.2676104 113.9979752  93.8077248 112.3136104
 113.3849752  93.1197248 110.1876104 112.4619752  95.4747248 109.9266104
 112.5139752  97.1807248 111.5576104 113.5009752  96.7547248 113.6526104
 114.4389752  94.6527248 114.1326104 114.3769752  92.9357248 112.5076104
 112.9839752  93.2827248 109.3316104 136.7389752  66.2567248  85.6136104
 136.8259752  67.1617248  84.5546104 137.9849752  67.2317248  83.8006104
 139.0479752  66.3967248  84.1106104 138.9649752  65.4927248  85.1606104
 137.8059752  65.4237248  85.9206104 135.6579752  66.1927248  86.3236104
 136.0749752  67.7397248  84.3476104 138.0539752  67.8597248  83.0646104
 139.8619752  66.4437248  83.5846104 139.7149752  64.9117248  85.3626104
 137.7419752  64.7987248  86.6606104 134.9159752  66.7667248  86.1196104
  35.0799752  40.9167248  73.1746104  35.2009752  42.3047248  73.2376104
  36.1549752  42.9497248  72.4686104  36.9789752  42.2017248  71.6406104
  36.8599752  40.8197248  71.5726104  35.9079752  40.1707248  72.3466104
  34.1929752  40.3107248  73.8976104  34.6179752  42.8167248  73.8196104
  36.2459752  43.9147248  72.5076104  37.6489752  42.6497248  71.1006104
  37.4399752  40.3107248  70.9866104  35.8219752  39.2057248  72.3086104
  33.6169752  40.8177248  74.4746104 111.0619752  75.5447248  31.0536104
 109.9039752  75.4127248  30.2876104 109.9959752  75.0387248  28.9566104
 111.2459752  74.7997248  28.4046104 112.3999752  74.9277248  29.1636104
 112.3109752  75.3057248  30.4956104 110.9779752  75.8997248  32.2966104
 109.0359752  75.5817248  30.6856104 109.1959752  74.9467248  28.4166104
 111.3139752  74.5387248  27.4716104 113.2669752  74.7527248  28.7656104
 113.1129752  75.4037248  31.0326104 110.1189752  76.0687248  32.6906104
  77.3629752 115.6617248  36.1596104  76.8079752 116.7037248  36.9026104
  77.1249752 118.0157248  36.5946104  77.9949752 118.2757248  35.5456104
  78.5479752 117.2417248  34.8026104  78.2349752 115.9257248  35.1116104
  77.0729752 114.4337248  36.4496104  76.1999752 116.5087248  37.6326104
  76.7439752 118.7457248  37.1066104  78.2199752 119.1937248  35.3276104
  79.1509752 117.4387248  34.0696104  78.6219752 115.1977248  34.6016104
  76.4729752 114.2407248  37.1736104  40.7709752  25.6017248  75.0706104
  42.1369752  25.3397248  75.1766104  43.0199752  25.9097248  74.2746104
  42.5299752  26.7377248  73.2756104  41.1719752  27.0027248  73.1686104
  40.2839752  26.4287248  74.0686104  39.9429752  25.0647248  75.9096104
  42.4679752  24.7597248  75.8806104  43.9709752  25.7327248  74.3406104
  43.1459752  27.1387248  72.6426104  40.8439752  27.5877248  72.4676104
  39.3329752  26.6047248  73.9966104  40.2699752  24.4887248  76.6046104
 119.5289752  58.1317248  64.5426104 119.8869752  59.4587248  64.7826104
 121.1359752  59.7517248  65.3046104 122.0159752  58.7157248  65.5826104
 121.6639752  57.3947248  65.3436104 120.4109752  57.0987248  64.8236104
 118.3589752  57.8547248  64.0596104 119.2639752  60.1747248  64.5826104
 121.3929752  60.6707248  65.4756104 122.8909752  58.9177248  65.9496104
 122.2909752  56.6817248  65.5386104 120.1549752  56.1767248  64.6586104
 117.7409752  58.5637248  63.8646104 102.4169752  86.1557248  73.7616104
 102.3969752  86.6977248  72.4766104 103.4059752  86.3857248  71.5806104
 104.4259752  85.5337248  71.9766104 104.4479752  84.9897248  73.2536104
 103.4409752  85.3047248  74.1546104 101.4779752  86.4507248  74.6036104
 101.6779752  87.2917248  72.2106104 103.3999752  86.7597248  70.6856104
 105.1339752  85.3127248  71.3516104 105.1649752  84.3917248  73.5146104
 103.4529752  84.9337248  75.0516104 100.7669752  87.0407248  74.3416104
  44.3189752 102.6027248  46.5016104  43.2739752 101.7267248  46.7936104
  43.1329752 100.5547248  46.0696104  44.0399752 100.2687248  45.0596104
  45.0829752 101.1357248  44.7666104  45.2229752 102.3127248  45.4886104
  44.4499752 103.7017248  47.1746104  42.6469752 101.9367248  47.5036104
  42.4089752  99.9407248  46.2656104  43.9439752  99.4487248  44.5486104
  45.7119752 100.9207248  44.0606104  45.9459752 102.9277248  45.2876104
  43.8279752 103.9117248  47.8756104 101.7039752  88.1597248  76.5606104
 101.1379752  89.1437248  75.7496104 101.9339752  90.1517248  75.2316104
 103.2899752  90.1657248  75.5266104 103.8569752  89.1867248  76.3306104
 103.0599752  88.1787248  76.8546104 100.9599752  87.2197248  77.0506104
 100.1889752  89.1227248  75.5496104 101.5489752  90.8407248  74.6686104
 103.8499752  90.8707248  75.1656104 104.8059752  89.2067248  76.5256104
 103.4479752  87.4937248  77.4226104 100.0209752  87.1997248  76.8546104
 105.9259752  63.8917248  33.2666104 104.6769752  63.2717248  33.3086104
 104.0739752  63.0167248  34.5296104 104.7249752  63.3847248  35.6976104
 105.9669752  64.0037248  35.6606104 106.5749752  64.2557248  34.4386104
 106.4939752  64.1257248  32.1266104 104.2309752  63.0197248  32.4846104
 103.2069752  62.5847248  34.5676104 104.3059752  63.2067248  36.5546104
 106.4079752  64.2587248  36.4846104 107.4449752  64.6837248  34.4036104
 106.0539752  63.8747248  31.3116104 111.4679752  31.9587248  79.7946104
 111.9239752  31.1607248  80.8436104 112.7999752  31.6857248  81.7796104
 113.2119752  33.0047248  81.6576104 112.7579752  33.8027248  80.6166104
 111.8839752  33.2777248  79.6756104 110.6529752  31.4677248  78.9166104
 111.6279752  30.2397248  80.9186104 113.1229752  31.1377248  82.5106104
 113.8269752  33.3757248  82.3106104 113.0509752  34.7247248  80.5466104
 111.5659752  33.8267248  78.9416104 110.3609752  30.5557248  78.9886104
 116.8579752  36.7867248 107.1106104 117.1269752  35.6817248 107.9186104
 116.2029752  34.6547248 108.0126104 115.0189752  34.7397248 107.2966104
 114.7479752  35.8357248 106.4896104 115.6699752  36.8687248 106.3976104
 117.7179752  37.7517248 107.0266104 117.9599752  35.6337248 108.4136104
 116.3819752  33.8837248 108.5726104 114.3689752  34.0217248 107.3596104
 113.9169752  35.8797248 105.9906104 115.4859752  37.6417248 105.8396104
 118.5409752  37.7047248 107.5186104 102.7259752  91.1427248  36.4456104
 102.9889752  91.0297248  35.0806104 104.2789752  90.7777248  34.6446104
 105.2959752  90.6407248  35.5786104 105.0379752  90.7497248  36.9376104
 103.7469752  91.0067248  37.3766104 101.5209752  91.3847248  36.8546104
 102.2689752  91.1267248  34.4376104 104.4709752  90.6987248  33.6976104
 106.2009752  90.4647248  35.2766104 105.7579752  90.6477248  37.5796104
 103.5589752  91.0907248  38.3246104 100.8089752  91.4827248  36.2186104
  48.9359752  18.8277248  85.2426104  50.0679752  19.5947248  84.9696104
  50.1929752  20.2277248  83.7446104  49.1839752  20.0907248  82.8026104
  48.0539752  19.3307248  83.0716104  47.9289752  18.6907248  84.2966104
  48.8189752  18.2297248  86.3856104  50.7669752  19.6837248  85.6366104
  50.9779752  20.7617248  83.5466104  49.2689752  20.5327248  81.9436104
  47.3539752  19.2467248  82.4056104  47.1449752  18.1527248  84.4906104
  49.5119752  18.3157248  87.0446104 130.2799752  43.8197248  69.4726104
 129.6039752  42.9957248  68.5726104 128.4139752  42.3957248  68.9476104
 127.9089752  42.6257248  70.2186104 128.5769752  43.4467248  71.1156104
 129.7719752  44.0457248  70.7446104 131.3969752  44.3777248  69.1256104
 129.9669752  42.8437248  67.6856104 127.9379752  41.8197248  68.3276104
 127.0749752  42.2057248  70.4846104 128.2089752  43.6017248  71.9996104
 130.2479752  44.6167248  71.3676104 131.7569752  44.2257248  68.2496104
  94.9239752  83.7857248 125.2976104  94.8139752  83.9357248 126.6796104
  95.0119752  85.1797248 127.2566104  95.3189752  86.2617248 126.4456104
  95.4279752  86.1167248 125.0696104  95.2339752  84.8707248 124.4896104
  94.7449752  82.6227248 124.7566104  94.5969752  83.1707248 127.2356104
  94.9379752  85.2917248 128.2166104  95.4599752  87.1347248 126.8456104
  95.6389752  86.8837248 124.5146104  95.3129752  84.7597248 123.5286104
  94.5329752  81.8647248 125.3076104  49.0679752  88.6527248  90.0796104
  50.0589752  87.7497248  90.4636104  51.3469752  88.1987248  90.7036104
  51.6329752  89.5487248  90.5606104  50.6489752  90.4517248  90.1816104
  49.3589752  90.0027248  89.9356104  47.8649752  88.2347248  89.8486104
  49.8469752  86.8077248  90.5616104  52.0419752  87.5767248  90.9696104
  52.5339752  89.8667248  90.7276104  50.8619752  91.3927248  90.0886104
  48.6669752  90.6267248  89.6646104  47.6549752  87.3027248  89.9436104
 104.7149752  82.0297248  77.5456104 106.0689752  81.9827248  77.2146104
 106.4569752  81.5507248  75.9566104 105.4869752  81.1727248  75.0406104
 104.1379752  81.2207248  75.3646104 103.7479752  81.6477248  76.6266104
 104.3499752  82.4267248  78.7236104 106.7379752  82.2507248  77.8636104
 107.3959752  81.5137248  75.7186104 105.7549752  80.8687248  74.1586104
 103.4709752  80.9567248  74.7126104 102.8069752  81.6787248  76.8636104
 105.0119752  82.6907248  79.3666104  82.3589752  42.0927248 103.5306104
  81.9929752  42.9717248 104.5486104  82.4789752  42.7817248 105.8316104
  83.3289752  41.7157248 106.0846104  83.6979752  40.8397248 105.0726104
  83.2079752  41.0247248 103.7876104  81.8999752  42.2637248 102.3316104
  81.3989752  43.7147248 104.3596104  82.2289752  43.3887248 106.5466104
  83.6719752  41.5797248 106.9826104  84.2969752  40.1007248 105.2636104
  83.4569752  40.4137248 103.0766104  81.3109752  42.9987248 102.1436104
 114.8209752  39.9077248  99.9206104 113.6629752  40.3747248  99.2986104
 112.4219752  40.0827248  99.8416104 112.3509752  39.3257248 101.0016104
 113.5009752  38.8617248 101.6256104 114.7439752  39.1497248 101.0806104
 115.9809752  40.1757248  99.4116104 113.7259752  40.9047248  98.4886104
 111.6129752  40.4017248  99.4146104 111.4839752  39.1187248 101.3846104
 113.4359752  38.3377248 102.4386104 115.5529752  38.8237248 101.5066104
 116.0439752  40.6977248  98.6086104  91.2759752  88.2847248 126.0506104
  90.2609752  88.7667248 126.8776104  90.4949752  88.9297248 128.2336104
  91.7429752  88.6107248 128.7496104  92.7559752  88.1337248 127.9296104
  92.5219752  87.9647248 126.5726104  91.0579752  88.1257248 124.7846104
  89.3939752  88.9877248 126.5046104  89.7949752  89.2627248 128.8156104
  91.9099752  88.7227248 129.6996104  93.6239752  87.9187248 128.3046104
  93.2229752  87.6267248 125.9936104  90.1979752  88.3427248 124.4146104
 121.0849752  86.2927248  77.6096104 121.4199752  86.7287248  76.3276104
 121.3209752  85.8587248  75.2546104 120.8849752  84.5597248  75.4736104
 120.5479752  84.1227248  76.7466104 120.6509752  84.9917248  77.8236104
 121.1829752  87.1027248  78.6156104 121.7229752  87.6397248  76.1876104
 121.5529752  86.1527248  74.3606104 120.8149752  83.9467248  74.7236104
 120.2409752  83.2127248  76.8836104 120.4229752  84.6917248  78.7176104
 121.4839752  88.0037248  78.4776104  63.9649752  76.5887248 123.1966104
  62.8659752  76.6307248 124.0546104  62.9479752  77.3337248 125.2456104
  64.1269752  77.9887248 125.5676104  65.2219752  77.9507248 124.7156104
  65.1439752  77.2447248 123.5236104  63.8919752  75.9277248 122.0846104
  62.0459752  76.1697248 123.8176104  62.1889752  77.3667248 125.8486104
  64.1879752  78.4807248 126.4016104  66.0389752  78.4177248 124.9516104
  65.9059752  77.2087248 122.9246104  63.0819752  75.4697248 121.8516104
 108.1379752  78.6787248  29.0486104 108.7089752  79.8327248  28.5116104
 108.1319752  80.4377248  27.4076104 106.9889752  79.8847248  26.8506104
 106.4159752  78.7387248  27.3836104 106.9939752  78.1277248  28.4866104
 108.6789752  78.1077248  30.0776104 109.5079752  80.2107248  28.9106104
 108.5239752  81.2397248  27.0276104 106.5819752  80.3057248  26.0766104
 105.6139752  78.3657248  26.9856104 106.6039752  77.3227248  28.8616104
 109.4709752  78.4807248  30.4716104 123.7429752  84.0027248  95.5276104
 123.4119752  84.4207248  94.2386104 122.2699752  83.9317248  93.6266104
 121.4679752  83.0297248  94.3096104 121.7919752  82.6127248  95.5936104
 122.9379752  83.0977248  96.2066104 124.8129752  84.4547248  96.1006104
 123.9799752  85.0537248  93.7726104 122.0339752  84.2167248  92.7306104
 120.6669752  82.6837248  93.8836104 121.2189752  81.9847248  96.0596104
 123.1749752  82.8077248  97.1016104 125.3769752  85.0787248  95.6376104
  74.3746500  97.1519840  51.6631110  72.5138260  50.8272410  99.9345580
  75.7907660  88.6552000  42.8083280  61.3449820  72.6666180  83.8529380
  68.3064130 102.4185140  56.8817210  78.0346000  66.0552480 112.8147060
 101.2029680  47.1034150  62.0615800 103.3027780 106.9607370  93.5476820
  54.1282560  63.2007170  92.0906160  58.4649090  80.9040250  70.3228330
  94.0444090  94.4264390  65.5125330  85.6717970  62.9803570 105.5676330
  58.4540760  99.5878450  39.3240140 145.3107000 148.5073430 146.6249070
 144.4223700 148.8489400 146.5228950 145.5948190 148.3073750 145.7329900
 147.4868390 147.0904930 147.6587450 147.5935140 147.9908660 147.9656210
 146.5760750 147.0422900 147.3682100 150.9755440 143.8982090 150.5891090
 151.2830420 143.3428980 149.8726590 150.0456140 144.0326550 150.4064080
 148.9692840 152.4895660 150.1070940 148.5649840 151.7772910 149.6116840
 149.0555960 152.1448900 150.9958980 145.6697470 151.3840640 147.6077590
 145.5495070 152.1102730 146.9958860 145.3598360 150.6143550 147.1305500
 148.1361130 144.7275710 150.9901260 147.6929280 145.5085250 150.6585780
 148.6946120 145.0505600 151.6972200 151.2519950 144.3486410 145.8707090
 150.6274130 144.3446280 146.5960400 151.1650070 143.4817370 145.4743060
 147.9275350 149.8509280 148.7182510 147.7016270 149.6346450 149.6229130
 147.1467880 150.2837740 148.3728480 142.9872380 149.0257110 142.7809360
 142.9047050 149.9687870 142.9224350 142.6355440 148.8832020 141.9021710
 146.6372890 147.6422630 150.8073920 146.2972940 148.1197860 151.5640970
 145.8750210 147.1887750 150.4475020 150.8490660 148.7608220 144.8386470
 150.9703480 148.7194700 145.7872290 150.4639170 149.6232370 144.6833200
 149.8612160 151.0709360 144.2369770 149.2929060 150.6227610 143.6105680
 150.5701160 151.4302140 143.7034920 143.9518970 146.5641610 149.7238590
 143.6665890 146.1997280 150.5617210 143.8897830 145.8322070 149.1101730
 143.4449630 151.7000560 143.6835290 144.3144480 151.9825360 143.9671210
 142.9539950 152.5136430 143.5684100 146.5096220 143.4311420 148.2766090
 146.3810850 143.4229320 149.2251010 145.6858240 143.7694510 147.9257100
 150.3374990 148.9167740 147.7119680 149.6291140 149.3854080 148.1533290
 150.6219470 148.2589750 148.3464870 148.5410010 147.2252820 145.0870390
 149.3900540 147.6622970 145.0210580 148.1741280 147.5373080 145.9142450
 146.1348190 150.9110250 144.2438810 146.2151780 149.9637760 144.3556210
 147.0267940 151.2417130 144.3499470 148.3679360 149.5483540 142.4806720
 148.1668420 148.6850900 142.8420060 148.1971410 149.4616900 141.5428320
 147.1662160 146.6484160 142.4684600 147.4688060 146.6551590 141.5603750
 147.9056750 146.2982020 142.9652260 150.3847090 145.5918780 143.4540800
 150.0369090 144.9142770 142.8743250 150.5859860 145.1308290 144.2684190
 143.7252730 152.1206430 149.8505170 143.0701570 151.8518070 149.2064870
 144.5630680 152.0110910 149.4007150 142.9390810 149.3305360 145.7930500
 142.0354890 149.5935560 145.6182160 143.4231430 149.6016530 145.0130460
 145.4818020 148.3870900 143.7024880 146.1909720 147.9654120 143.2172160
 144.7657960 148.4546130 143.0708230 145.1292180 144.4410230 142.7427530
 145.8520310 144.9819170 143.0608750 145.4016700 144.1673650 141.8669070
 144.5539020 144.4803490 146.3363100 145.3118380 144.5932370 145.7627130
 144.0916190 145.3172690 146.2906530 151.0952830 146.5942760 149.3265410
 150.2827340 146.2199650 148.9861290 151.5994470 145.8387840 149.6286600
 146.9264170 145.0067540 144.8765070 147.4556930 144.2197340 144.7473020
 147.5592490 145.6858730 145.1100600 149.1202010 144.7442680 147.9310460
 148.4904750 144.0429990 148.0980590 148.5807150 145.5046810 147.7143620
 145.3107000 148.5073430 127.8505580 144.4223700 148.8489400 127.7485460
 145.5948190 148.3073750 126.9586410 143.2740010 151.1079080 133.7345280
 143.8456120 150.3401280 133.7348920 143.2741550 151.4067840 132.8251890
 144.5164880 146.5163440 135.5214210 144.3367720 145.6189190 135.8016970
 144.1144960 147.0635310 136.1961160 147.4868390 147.0904930 128.8843960
 147.5935140 147.9908660 129.1912720 146.5760750 147.0422900 128.5938610
 145.1351550 149.0123940 134.1296550 145.8161660 149.2762310 134.7483950
 144.8199600 148.1724810 134.4634560 149.3276120 150.0591300 133.2169140
 149.8354340 150.5572270 133.8574160 149.8589360 149.2826500 133.0408500
 147.6112220 144.6989860 137.4832560 147.6130660 145.2162250 136.6778460
 146.7816530 144.2220040 137.4602490 147.2927550 146.4099820 135.4903010
 147.6344360 147.2541870 135.1956880 146.3543360 146.5583560 135.6068350
 150.9755440 143.8982090 131.8147600 151.2830420 143.3428980 131.0983100
 150.0456140 144.0326550 131.6320590 148.9692840 152.4895660 131.3327450
 148.5649840 151.7772910 130.8373350 149.0555960 152.1448900 132.2215490
 147.6821460 149.2638870 135.1126490 148.2336050 149.3734210 134.3379740
 148.1964970 149.6376470 135.8281720 145.6697470 151.3840640 128.8334100
 145.5495070 152.1102730 128.2215370 145.3598360 150.6143550 128.3562010
 148.1361130 144.7275710 132.2157770 147.6929280 145.5085250 131.8842290
 148.6946120 145.0505600 132.9228710 152.4230940 147.5944230 137.8193090
 151.9610310 147.8027250 138.6313030 152.0209050 146.7803580 137.5163760
 151.2519950 144.3486410 127.0963600 150.6274130 144.3446280 127.8216910
 151.1650070 143.4817370 126.6999570 150.1737030 145.2723040 134.0747370
 150.4709360 146.1785870 133.9939390 150.7222590 144.7841820 133.4606940
 147.9275350 149.8509280 129.9439020 147.7016270 149.6346450 130.8485640
 147.1467880 150.2837740 129.5984990 150.3674560 150.7494860 140.6099290
 150.2718160 149.8089590 140.4599690 151.2106540 150.9709930 140.2147360
 145.4985100 147.1608530 138.7633070 145.1048490 148.0083740 138.9705850
 144.8103500 146.5234900 138.9541710 142.8002150 145.0836990 132.7963150
 142.5115200 145.6539850 133.5088130 143.5447910 144.6041440 133.1594380
 142.9872380 149.0257110 124.0065870 142.9047050 149.9687870 124.1480860
 142.6355440 148.8832020 123.1278220 150.7870510 147.7596140 133.0736220
 150.7906570 147.3186090 132.2240760 151.6821630 148.0813470 133.1808040
 146.6372890 147.6422630 132.0330430 146.2972940 148.1197860 132.7897480
 145.8750210 147.1887750 131.6731530 150.8490660 148.7608220 126.0642980
 150.9703480 148.7194700 127.0128800 150.4639170 149.6232370 125.9089710
 149.8612160 151.0709360 125.4626280 149.2929060 150.6227610 124.8362190
 150.5701160 151.4302140 124.9291430 143.9518970 146.5641610 130.9495100
 143.6665890 146.1997280 131.7873720 143.8897830 145.8322070 130.3358240
 148.8777850 150.8606560 137.1385840 148.5734920 151.7398540 137.3636200
 149.8324310 150.9206350 137.1743280 144.9341580 151.7009300 138.2857200
 144.5756520 152.3663150 138.8730540 144.6396140 150.8692850 138.6569820
 148.1354700 152.1593540 141.1696750 147.8354840 152.3050720 140.2724570
 148.9065940 151.5998830 141.0770140 143.4449630 151.7000560 124.9091800
 144.3144480 151.9825360 125.1927720 142.9539950 152.5136430 124.7940610
 146.5096220 143.4311420 129.5022600 146.3810850 143.4229320 130.4507520
 145.6858240 143.7694510 129.1513610 143.5090150 145.1902540 138.9629300
 142.7948670 145.3899460 139.5681910 143.9285190 144.4142110 139.3344100
 150.3374990 148.9167740 128.9376190 149.6291140 149.3854080 129.3789800
 150.6219470 148.2589750 129.5721380 151.9630920 150.3364440 136.9368720
 152.4616170 150.8110260 137.6020570 152.1053870 149.4127960 137.1438750
 148.5410010 147.2252820 126.3126900 149.3900540 147.6622970 126.2467090
 148.1741280 147.5373080 127.1398960 146.1348190 150.9110250 125.4695320
 146.2151780 149.9637760 125.5812720 147.0267940 151.2417130 125.5755980
 145.6942070 150.8754760 141.6001560 145.7347410 150.5768630 142.5086790
 146.5487570 151.2762370 141.4409080 147.6347880 149.4546860 139.5676050
 147.1044340 148.9637810 138.9399390 148.3035950 149.8831060 139.0333980
 148.1220180 146.4209230 139.6473340 148.0277050 145.8029980 138.9224210
 147.5417570 147.1475520 139.4203250 150.8881620 144.9782470 136.6800730
 150.4398920 145.0006730 135.8346280 150.2546820 144.5801490 137.2771030
 148.3679360 149.5483540 123.7063230 148.1668420 148.6850900 124.0676570
 148.1971410 149.4616900 122.7684830 150.3973840 148.1474330 139.9426830
 150.9873530 147.8390180 140.6304650 149.5794080 147.6754080 140.0986730
 147.1662160 146.6484160 123.6941110 147.4688060 146.6551590 122.7860260
 147.9056750 146.2982020 124.1908770 150.3847090 145.5918780 124.6797310
 150.0369090 144.9142770 124.0999760 150.5859860 145.1308290 125.4940700
 143.7252730 152.1206430 131.0761680 143.0701570 151.8518070 130.4321380
 144.5630680 152.0110910 130.6263660 144.7628660 152.5059000 135.6165020
 145.1301700 152.4186400 136.4961040 144.1939480 151.7425550 135.5171880
 144.3144660 149.4168090 139.5223440 143.4200710 149.3834850 139.8617150
 144.8542210 149.6154880 140.2874690 142.9390810 149.3305360 127.0187010
 142.0354890 149.5935560 126.8438670 143.4231430 149.6016530 126.2386970
 145.4818020 148.3870900 124.9281390 146.1909720 147.9654120 124.4428670
 144.7657960 148.4546130 124.2964740 145.1292180 144.4410230 123.9684040
 145.8520310 144.9819170 124.2865260 145.4016700 144.1673650 123.0925580
 144.8184370 143.6916420 133.8706660 145.4660560 143.1413800 133.4301820
 145.2386210 143.9459570 134.6922470 144.5716370 143.8472090 136.6131980
 144.2231190 144.3035910 137.3790160 144.2404070 142.9529220 136.6954410
 145.2437010 143.3748290 139.8882750 145.7920000 143.1936340 139.1248860
 145.3092320 142.5842400 140.4239060 144.5539020 144.4803490 127.5619610
 145.3118380 144.5932370 126.9883640 144.0916190 145.3172690 127.5163040
 151.0952830 146.5942760 130.5521920 150.2827340 146.2199650 130.2117800
 151.5994470 145.8387840 130.8543110 146.9264170 145.0067540 126.1021580
 147.4556930 144.2197340 125.9729530 147.5592490 145.6858730 126.3357110
 149.1202010 144.7442680 129.1566970 148.4904750 144.0429990 129.3237100
 148.5807150 145.5046810 128.9400130 149.2457570 144.0226660 141.5919460
 148.9641840 144.5260260 140.8280280 149.6277270 143.2248410 141.2261590
 145.3107000 148.5073430 109.0762090 144.4223700 148.8489400 108.9741970
 145.5948190 148.3073750 108.1842920 143.2740010 151.1079080 114.9601790
 143.8456120 150.3401280 114.9605430 143.2741550 151.4067840 114.0508400
 144.5164880 146.5163440 116.7470720 144.3367720 145.6189190 117.0273480
 144.1144960 147.0635310 117.4217670 147.4868390 147.0904930 110.1100470
 147.5935140 147.9908660 110.4169230 146.5760750 147.0422900 109.8195120
 145.1351550 149.0123940 115.3553060 145.8161660 149.2762310 115.9740460
 144.8199600 148.1724810 115.6891070 149.3276120 150.0591300 114.4425650
 149.8354340 150.5572270 115.0830670 149.8589360 149.2826500 114.2665010
 147.6112220 144.6989860 118.7089070 147.6130660 145.2162250 117.9034970
 146.7816530 144.2220040 118.6859000 147.2927550 146.4099820 116.7159520
 147.6344360 147.2541870 116.4213390 146.3543360 146.5583560 116.8324860
 150.9755440 143.8982090 113.0404110 151.2830420 143.3428980 112.3239610
 150.0456140 144.0326550 112.8577100 148.9692840 152.4895660 112.5583960
 148.5649840 151.7772910 112.0629860 149.0555960 152.1448900 113.4472000
 147.6821460 149.2638870 116.3383000 148.2336050 149.3734210 115.5636250
 148.1964970 149.6376470 117.0538230 145.6697470 151.3840640 110.0590610
 145.5495070 152.1102730 109.4471880 145.3598360 150.6143550 109.5818520
 148.1361130 144.7275710 113.4414280 147.6929280 145.5085250 113.1098800
 148.6946120 145.0505600 114.1485220 152.4230940 147.5944230 119.0449600
 151.9610310 147.8027250 119.8569540 152.0209050 146.7803580 118.7420270
 151.2519950 144.3486410 108.3220110 150.6274130 144.3446280 109.0473420
 151.1650070 143.4817370 107.9256080 150.1737030 145.2723040 115.3003880
 150.4709360 146.1785870 115.2195900 150.7222590 144.7841820 114.6863450
 147.9275350 149.8509280 111.1695530 147.7016270 149.6346450 112.0742150
 147.1467880 150.2837740 110.8241500 150.3674560 150.7494860 121.8355800
 150.2718160 149.8089590 121.6856200 151.2106540 150.9709930 121.4403870
 145.4985100 147.1608530 119.9889580 145.1048490 148.0083740 120.1962360
 144.8103500 146.5234900 120.1798220 142.8002150 145.0836990 114.0219660
 142.5115200 145.6539850 114.7344640 143.5447910 144.6041440 114.3850890
 142.9872380 149.0257110 105.2322380 142.9047050 149.9687870 105.3737370
 142.6355440 148.8832020 104.3534730 150.7870510 147.7596140 114.2992730
 150.7906570 147.3186090 113.4497270 151.6821630 148.0813470 114.4064550
 146.6372890 147.6422630 113.2586940 146.2972940 148.1197860 114.0153990
 145.8750210 147.1887750 112.8988040 150.8490660 148.7608220 107.2899490
 150.9703480 148.7194700 108.2385310 150.4639170 149.6232370 107.1346220
 149.8612160 151.0709360 106.6882790 149.2929060 150.6227610 106.0618700
 150.5701160 151.4302140 106.1547940 143.9518970 146.5641610 112.1751610
 143.6665890 146.1997280 113.0130230 143.8897830 145.8322070 111.5614750
 148.8777850 150.8606560 118.3642350 148.5734920 151.7398540 118.5892710
 149.8324310 150.9206350 118.3999790 144.9341580 151.7009300 119.5113710
 144.5756520 152.3663150 120.0987050 144.6396140 150.8692850 119.8826330
 148.1354700 152.1593540 122.3953260 147.8354840 152.3050720 121.4981080
 148.9065940 151.5998830 122.3026650 143.4449630 151.7000560 106.1348310
 144.3144480 151.9825360 106.4184230 142.9539950 152.5136430 106.0197120
 146.5096220 143.4311420 110.7279110 146.3810850 143.4229320 111.6764030
 145.6858240 143.7694510 110.3770120 143.5090150 145.1902540 120.1885810
 142.7948670 145.3899460 120.7938420 143.9285190 144.4142110 120.5600610
 150.3374990 148.9167740 110.1632700 149.6291140 149.3854080 110.6046310
 150.6219470 148.2589750 110.7977890 151.9630920 150.3364440 118.1625230
 152.4616170 150.8110260 118.8277080 152.1053870 149.4127960 118.3695260
 148.5410010 147.2252820 107.5383410 149.3900540 147.6622970 107.4723600
 148.1741280 147.5373080 108.3655470 146.1348190 150.9110250 106.6951830
 146.2151780 149.9637760 106.8069230 147.0267940 151.2417130 106.8012490
 145.6942070 150.8754760 122.8258070 145.7347410 150.5768630 123.7343300
 146.5487570 151.2762370 122.6665590 147.6347880 149.4546860 120.7932560
 147.1044340 148.9637810 120.1655900 148.3035950 149.8831060 120.2590490
 148.1220180 146.4209230 120.8729850 148.0277050 145.8029980 120.1480720
 147.5417570 147.1475520 120.6459760 150.8881620 144.9782470 117.9057240
 150.4398920 145.0006730 117.0602790 150.2546820 144.5801490 118.5027540
 148.3679360 149.5483540 104.9319740 148.1668420 148.6850900 105.2933080
 148.1971410 149.4616900 103.9941340 150.3973840 148.1474330 121.1683340
 150.9873530 147.8390180 121.8561160 149.5794080 147.6754080 121.3243240
 147.1662160 146.6484160 104.9197620 147.4688060 146.6551590 104.0116770
 147.9056750 146.2982020 105.4165280 150.3847090 145.5918780 105.9053820
 150.0369090 144.9142770 105.3256270 150.5859860 145.1308290 106.7197210
 143.7252730 152.1206430 112.3018190 143.0701570 151.8518070 111.6577890
 144.5630680 152.0110910 111.8520170 144.7628660 152.5059000 116.8421530
 145.1301700 152.4186400 117.7217550 144.1939480 151.7425550 116.7428390
 144.3144660 149.4168090 120.7479950 143.4200710 149.3834850 121.0873660
 144.8542210 149.6154880 121.5131200 142.9390810 149.3305360 108.2443520
 142.0354890 149.5935560 108.0695180 143.4231430 149.6016530 107.4643480
 145.4818020 148.3870900 106.1537900 146.1909720 147.9654120 105.6685180
 144.7657960 148.4546130 105.5221250 145.1292180 144.4410230 105.1940550
 145.8520310 144.9819170 105.5121770 145.4016700 144.1673650 104.3182090
 144.8184370 143.6916420 115.0963170 145.4660560 143.1413800 114.6558330
 145.2386210 143.9459570 115.9178980 144.5716370 143.8472090 117.8388490
 144.2231190 144.3035910 118.6046670 144.2404070 142.9529220 117.9210920
 145.2437010 143.3748290 121.1139260 145.7920000 143.1936340 120.3505370
 145.3092320 142.5842400 121.6495570 144.5539020 144.4803490 108.7876120
 145.3118380 144.5932370 108.2140150 144.0916190 145.3172690 108.7419550
 151.0952830 146.5942760 111.7778430 150.2827340 146.2199650 111.4374310
 151.5994470 145.8387840 112.0799620 146.9264170 145.0067540 107.3278090
 147.4556930 144.2197340 107.1986040 147.5592490 145.6858730 107.5613620
 149.1202010 144.7442680 110.3823480 148.4904750 144.0429990 110.5493610
 148.5807150 145.5046810 110.1656640 149.2457570 144.0226660 122.8175970
 148.9641840 144.5260260 122.0536790 149.6277270 143.2248410 122.4518100
 145.3107000 148.5073430  90.3018600 144.4223700 148.8489400  90.1998480
 145.5948190 148.3073750  89.4099430 143.2740010 151.1079080  96.1858300
 143.8456120 150.3401280  96.1861940 143.2741550 151.4067840  95.2764910
 144.5164880 146.5163440  97.9727230 144.3367720 145.6189190  98.2529990
 144.1144960 147.0635310  98.6474180 147.4868390 147.0904930  91.3356980
 147.5935140 147.9908660  91.6425740 146.5760750 147.0422900  91.0451630
 145.1351550 149.0123940  96.5809570 145.8161660 149.2762310  97.1996970
 144.8199600 148.1724810  96.9147580 149.3276120 150.0591300  95.6682160
 149.8354340 150.5572270  96.3087180 149.8589360 149.2826500  95.4921520
 147.6112220 144.6989860  99.9345580 147.6130660 145.2162250  99.1291480
 146.7816530 144.2220040  99.9115510 147.2927550 146.4099820  97.9416030
 147.6344360 147.2541870  97.6469900 146.3543360 146.5583560  98.0581370
 150.9755440 143.8982090  94.2660620 151.2830420 143.3428980  93.5496120
 150.0456140 144.0326550  94.0833610 148.9692840 152.4895660  93.7840470
 148.5649840 151.7772910  93.2886370 149.0555960 152.1448900  94.6728510
 147.6821460 149.2638870  97.5639510 148.2336050 149.3734210  96.7892760
 148.1964970 149.6376470  98.2794740 145.6697470 151.3840640  91.2847120
 145.5495070 152.1102730  90.6728390 145.3598360 150.6143550  90.8075030
 148.1361130 144.7275710  94.6670790 147.6929280 145.5085250  94.3355310
 148.6946120 145.0505600  95.3741730 152.4230940 147.5944230 100.2706110
 151.9610310 147.8027250 101.0826050 152.0209050 146.7803580  99.9676780
 151.2519950 144.3486410  89.5476620 150.6274130 144.3446280  90.2729930
 151.1650070 143.4817370  89.1512590 150.1737030 145.2723040  96.5260390
 150.4709360 146.1785870  96.4452410 150.7222590 144.7841820  95.9119960
 147.9275350 149.8509280  92.3952040 147.7016270 149.6346450  93.2998660
 147.1467880 150.2837740  92.0498010 150.3674560 150.7494860 103.0612310
 150.2718160 149.8089590 102.9112710 151.2106540 150.9709930 102.6660380
 145.4985100 147.1608530 101.2146090 145.1048490 148.0083740 101.4218870
 144.8103500 146.5234900 101.4054730 142.8002150 145.0836990  95.2476170
 142.5115200 145.6539850  95.9601150 143.5447910 144.6041440  95.6107400
 142.9872380 149.0257110  86.4578890 142.9047050 149.9687870  86.5993880
 142.6355440 148.8832020  85.5791240 150.7870510 147.7596140  95.5249240
 150.7906570 147.3186090  94.6753780 151.6821630 148.0813470  95.6321060
 146.6372890 147.6422630  94.4843450 146.2972940 148.1197860  95.2410500
 145.8750210 147.1887750  94.1244550 150.8490660 148.7608220  88.5156000
 150.9703480 148.7194700  89.4641820 150.4639170 149.6232370  88.3602730
 149.8612160 151.0709360  87.9139300 149.2929060 150.6227610  87.2875210
 150.5701160 151.4302140  87.3804450 143.9518970 146.5641610  93.4008120
 143.6665890 146.1997280  94.2386740 143.8897830 145.8322070  92.7871260
 148.8777850 150.8606560  99.5898860 148.5734920 151.7398540  99.8149220
 149.8324310 150.9206350  99.6256300 144.9341580 151.7009300 100.7370220
 144.5756520 152.3663150 101.3243560 144.6396140 150.8692850 101.1082840
 148.1354700 152.1593540 103.6209770 147.8354840 152.3050720 102.7237590
 148.9065940 151.5998830 103.5283160 143.4449630 151.7000560  87.3604820
 144.3144480 151.9825360  87.6440740 142.9539950 152.5136430  87.2453630
 146.5096220 143.4311420  91.9535620 146.3810850 143.4229320  92.9020540
 145.6858240 143.7694510  91.6026630 143.5090150 145.1902540 101.4142320
 142.7948670 145.3899460 102.0194930 143.9285190 144.4142110 101.7857120
 150.3374990 148.9167740  91.3889210 149.6291140 149.3854080  91.8302820
 150.6219470 148.2589750  92.0234400 151.9630920 150.3364440  99.3881740
 152.4616170 150.8110260 100.0533590 152.1053870 149.4127960  99.5951770
 148.5410010 147.2252820  88.7639920 149.3900540 147.6622970  88.6980110
 148.1741280 147.5373080  89.5911980 146.1348190 150.9110250  87.9208340
 146.2151780 149.9637760  88.0325740 147.0267940 151.2417130  88.0269000
 145.6942070 150.8754760 104.0514580 145.7347410 150.5768630 104.9599810
 146.5487570 151.2762370 103.8922100 147.6347880 149.4546860 102.0189070
 147.1044340 148.9637810 101.3912410 148.3035950 149.8831060 101.4847000
 148.1220180 146.4209230 102.0986360 148.0277050 145.8029980 101.3737230
 147.5417570 147.1475520 101.8716270 150.8881620 144.9782470  99.1313750
 150.4398920 145.0006730  98.2859300 150.2546820 144.5801490  99.7284050
 148.3679360 149.5483540  86.1576250 148.1668420 148.6850900  86.5189590
 148.1971410 149.4616900  85.2197850 150.3973840 148.1474330 102.3939850
 150.9873530 147.8390180 103.0817670 149.5794080 147.6754080 102.5499750
 147.1662160 146.6484160  86.1454130 147.4688060 146.6551590  85.2373280
 147.9056750 146.2982020  86.6421790 150.3847090 145.5918780  87.1310330
 150.0369090 144.9142770  86.5512780 150.5859860 145.1308290  87.9453720
 143.7252730 152.1206430  93.5274700 143.0701570 151.8518070  92.8834400
 144.5630680 152.0110910  93.0776680 144.7628660 152.5059000  98.0678040
 145.1301700 152.4186400  98.9474060 144.1939480 151.7425550  97.9684900
 144.3144660 149.4168090 101.9736460 143.4200710 149.3834850 102.3130170
 144.8542210 149.6154880 102.7387710 142.9390810 149.3305360  89.4700030
 142.0354890 149.5935560  89.2951690 143.4231430 149.6016530  88.6899990
 145.4818020 148.3870900  87.3794410 146.1909720 147.9654120  86.8941690
 144.7657960 148.4546130  86.7477760 145.1292180 144.4410230  86.4197060
 145.8520310 144.9819170  86.7378280 145.4016700 144.1673650  85.5438600
 144.8184370 143.6916420  96.3219680 145.4660560 143.1413800  95.8814840
 145.2386210 143.9459570  97.1435490 144.5716370 143.8472090  99.0645000
 144.2231190 144.3035910  99.8303180 144.2404070 142.9529220  99.1467430
 145.2437010 143.3748290 102.3395770 145.7920000 143.1936340 101.5761880
 145.3092320 142.5842400 102.8752080 144.5539020 144.4803490  90.0132630
 145.3118380 144.5932370  89.4396660 144.0916190 145.3172690  89.9676060
 151.0952830 146.5942760  93.0034940 150.2827340 146.2199650  92.6630820
 151.5994470 145.8387840  93.3056130 146.9264170 145.0067540  88.5534600
 147.4556930 144.2197340  88.4242550 147.5592490 145.6858730  88.7870130
 149.1202010 144.7442680  91.6079990 148.4904750 144.0429990  91.7750120
 148.5807150 145.5046810  91.3913150 149.2457570 144.0226660 104.0432480
 148.9641840 144.5260260 103.2793300 149.6277270 143.2248410 103.6774610
 145.3107000 148.5073430  71.5275110 144.4223700 148.8489400  71.4254990
 145.5948190 148.3073750  70.6355940 143.2740010 151.1079080  77.4114810
 143.8456120 150.3401280  77.4118450 143.2741550 151.4067840  76.5021420
 144.5164880 146.5163440  79.1983740 144.3367720 145.6189190  79.4786500
 144.1144960 147.0635310  79.8730690 147.4868390 147.0904930  72.5613490
 147.5935140 147.9908660  72.8682250 146.5760750 147.0422900  72.2708140
 145.1351550 149.0123940  77.8066080 145.8161660 149.2762310  78.4253480
 144.8199600 148.1724810  78.1404090 149.3276120 150.0591300  76.8938670
 149.8354340 150.5572270  77.5343690 149.8589360 149.2826500  76.7178030
 147.6112220 144.6989860  81.1602090 147.6130660 145.2162250  80.3547990
 146.7816530 144.2220040  81.1372020 147.2927550 146.4099820  79.1672540
 147.6344360 147.2541870  78.8726410 146.3543360 146.5583560  79.2837880
 150.9755440 143.8982090  75.4917130 151.2830420 143.3428980  74.7752630
 150.0456140 144.0326550  75.3090120 148.9692840 152.4895660  75.0096980
 148.5649840 151.7772910  74.5142880 149.0555960 152.1448900  75.8985020
 147.6821460 149.2638870  78.7896020 148.2336050 149.3734210  78.0149270
 148.1964970 149.6376470  79.5051250 145.6697470 151.3840640  72.5103630
 145.5495070 152.1102730  71.8984900 145.3598360 150.6143550  72.0331540
 148.1361130 144.7275710  75.8927300 147.6929280 145.5085250  75.5611820
 148.6946120 145.0505600  76.5998240 152.4230940 147.5944230  81.4962620
 151.9610310 147.8027250  82.3082560 152.0209050 146.7803580  81.1933290
 151.2519950 144.3486410  70.7733130 150.6274130 144.3446280  71.4986440
 151.1650070 143.4817370  70.3769100 150.1737030 145.2723040  77.7516900
 150.4709360 146.1785870  77.6708920 150.7222590 144.7841820  77.1376470
 147.9275350 149.8509280  73.6208550 147.7016270 149.6346450  74.5255170
 147.1467880 150.2837740  73.2754520 150.3674560 150.7494860  84.2868820
 150.2718160 149.8089590  84.1369220 151.2106540 150.9709930  83.8916890
 145.4985100 147.1608530  82.4402600 145.1048490 148.0083740  82.6475380
 144.8103500 146.5234900  82.6311240 142.8002150 145.0836990  76.4732680
 142.5115200 145.6539850  77.1857660 143.5447910 144.6041440  76.8363910
 142.9872380 149.0257110  67.6835400 142.9047050 149.9687870  67.8250390
 142.6355440 148.8832020  66.8047750 150.7870510 147.7596140  76.7505750
 150.7906570 147.3186090  75.9010290 151.6821630 148.0813470  76.8577570
 146.6372890 147.6422630  75.7099960 146.2972940 148.1197860  76.4667010
 145.8750210 147.1887750  75.3501060 150.8490660 148.7608220  69.7412510
 150.9703480 148.7194700  70.6898330 150.4639170 149.6232370  69.5859240
 149.8612160 151.0709360  69.1395810 149.2929060 150.6227610  68.5131720
 150.5701160 151.4302140  68.6060960 143.9518970 146.5641610  74.6264630
 143.6665890 146.1997280  75.4643250 143.8897830 145.8322070  74.0127770
 148.8777850 150.8606560  80.8155370 148.5734920 151.7398540  81.0405730
 149.8324310 150.9206350  80.8512810 144.9341580 151.7009300  81.9626730
 144.5756520 152.3663150  82.5500070 144.6396140 150.8692850  82.3339350
 148.1354700 152.1593540  84.8466280 147.8354840 152.3050720  83.9494100
 148.9065940 151.5998830  84.7539670 143.4449630 151.7000560  68.5861330
 144.3144480 151.9825360  68.8697250 142.9539950 152.5136430  68.4710140
 146.5096220 143.4311420  73.1792130 146.3810850 143.4229320  74.1277050
 145.6858240 143.7694510  72.8283140 143.5090150 145.1902540  82.6398830
 142.7948670 145.3899460  83.2451440 143.9285190 144.4142110  83.0113630
 150.3374990 148.9167740  72.6145720 149.6291140 149.3854080  73.0559330
 150.6219470 148.2589750  73.2490910 151.9630920 150.3364440  80.6138250
 152.4616170 150.8110260  81.2790100 152.1053870 149.4127960  80.8208280
 148.5410010 147.2252820  69.9896430 149.3900540 147.6622970  69.9236620
 148.1741280 147.5373080  70.8168490 146.1348190 150.9110250  69.1464850
 146.2151780 149.9637760  69.2582250 147.0267940 151.2417130  69.2525510
 145.6942070 150.8754760  85.2771090 145.7347410 150.5768630  86.1856320
 146.5487570 151.2762370  85.1178610 147.6347880 149.4546860  83.2445580
 147.1044340 148.9637810  82.6168920 148.3035950 149.8831060  82.7103510
 148.1220180 146.4209230  83.3242870 148.0277050 145.8029980  82.5993740
 147.5417570 147.1475520  83.0972780 150.8881620 144.9782470  80.3570260
 150.4398920 145.0006730  79.5115810 150.2546820 144.5801490  80.9540560
 148.3679360 149.5483540  67.3832760 148.1668420 148.6850900  67.7446100
 148.1971410 149.4616900  66.4454360 150.3973840 148.1474330  83.6196360
 150.9873530 147.8390180  84.3074180 149.5794080 147.6754080  83.7756260
 147.1662160 146.6484160  67.3710640 147.4688060 146.6551590  66.4629790
 147.9056750 146.2982020  67.8678300 150.3847090 145.5918780  68.3566840
 150.0369090 144.9142770  67.7769290 150.5859860 145.1308290  69.1710230
 143.7252730 152.1206430  74.7531210 143.0701570 151.8518070  74.1090910
 144.5630680 152.0110910  74.3033190 144.7628660 152.5059000  79.2934550
 145.1301700 152.4186400  80.1730570 144.1939480 151.7425550  79.1941410
 144.3144660 149.4168090  83.1992970 143.4200710 149.3834850  83.5386680
 144.8542210 149.6154880  83.9644220 142.9390810 149.3305360  70.6956540
 142.0354890 149.5935560  70.5208200 143.4231430 149.6016530  69.9156500
 145.4818020 148.3870900  68.6050920 146.1909720 147.9654120  68.1198200
 144.7657960 148.4546130  67.9734270 145.1292180 144.4410230  67.6453570
 145.8520310 144.9819170  67.9634790 145.4016700 144.1673650  66.7695110
 144.8184370 143.6916420  77.5476190 145.4660560 143.1413800  77.1071350
 145.2386210 143.9459570  78.3692000 144.5716370 143.8472090  80.2901510
 144.2231190 144.3035910  81.0559690 144.2404070 142.9529220  80.3723940
 145.2437010 143.3748290  83.5652280 145.7920000 143.1936340  82.8018390
 145.3092320 142.5842400  84.1008590 144.5539020 144.4803490  71.2389140
 145.3118380 144.5932370  70.6653170 144.0916190 145.3172690  71.1932570
 151.0952830 146.5942760  74.2291450 150.2827340 146.2199650  73.8887330
 151.5994470 145.8387840  74.5312640 146.9264170 145.0067540  69.7791110
 147.4556930 144.2197340  69.6499060 147.5592490 145.6858730  70.0126640
 149.1202010 144.7442680  72.8336500 148.4904750 144.0429990  73.0006630
 148.5807150 145.5046810  72.6169660 149.2457570 144.0226660  85.2688990
 148.9641840 144.5260260  84.5049810 149.6277270 143.2248410  84.9031120
 145.3107000 148.5073430  52.7531620 144.4223700 148.8489400  52.6511500
 145.5948190 148.3073750  51.8612450 143.2740010 151.1079080  58.6371320
 143.8456120 150.3401280  58.6374960 143.2741550 151.4067840  57.7277930
 144.5164880 146.5163440  60.4240250 144.3367720 145.6189190  60.7043010
 144.1144960 147.0635310  61.0987200 147.4868390 147.0904930  53.7870000
 147.5935140 147.9908660  54.0938760 146.5760750 147.0422900  53.4964650
 145.1351550 149.0123940  59.0322590 145.8161660 149.2762310  59.6509990
 144.8199600 148.1724810  59.3660600 149.3276120 150.0591300  58.1195180
 149.8354340 150.5572270  58.7600200 149.8589360 149.2826500  57.9434540
 147.6112220 144.6989860  62.3858600 147.6130660 145.2162250  61.5804500
 146.7816530 144.2220040  62.3628530 147.2927550 146.4099820  60.3929050
 147.6344360 147.2541870  60.0982920 146.3543360 146.5583560  60.5094390
 150.9755440 143.8982090  56.7173640 151.2830420 143.3428980  56.0009140
 150.0456140 144.0326550  56.5346630 148.9692840 152.4895660  56.2353490
 148.5649840 151.7772910  55.7399390 149.0555960 152.1448900  57.1241530
 147.6821460 149.2638870  60.0152530 148.2336050 149.3734210  59.2405780
 148.1964970 149.6376470  60.7307760 145.6697470 151.3840640  53.7360140
 145.5495070 152.1102730  53.1241410 145.3598360 150.6143550  53.2588050
 148.1361130 144.7275710  57.1183810 147.6929280 145.5085250  56.7868330
 148.6946120 145.0505600  57.8254750 152.4230940 147.5944230  62.7219130
 151.9610310 147.8027250  63.5339070 152.0209050 146.7803580  62.4189800
 151.2519950 144.3486410  51.9989640 150.6274130 144.3446280  52.7242950
 151.1650070 143.4817370  51.6025610 150.1737030 145.2723040  58.9773410
 150.4709360 146.1785870  58.8965430 150.7222590 144.7841820  58.3632980
 147.9275350 149.8509280  54.8465060 147.7016270 149.6346450  55.7511680
 147.1467880 150.2837740  54.5011030 150.3674560 150.7494860  65.5125330
 150.2718160 149.8089590  65.3625730 151.2106540 150.9709930  65.1173400
 145.4985100 147.1608530  63.6659110 145.1048490 148.0083740  63.8731890
 144.8103500 146.5234900  63.8567750 142.8002150 145.0836990  57.6989190
 142.5115200 145.6539850  58.4114170 143.5447910 144.6041440  58.0620420
 142.9872380 149.0257110  48.9091910 142.9047050 149.9687870  49.0506900
 142.6355440 148.8832020  48.0304260 150.7870510 147.7596140  57.9762260
 150.7906570 147.3186090  57.1266800 151.6821630 148.0813470  58.0834080
 146.6372890 147.6422630  56.9356470 146.2972940 148.1197860  57.6923520
 145.8750210 147.1887750  56.5757570 150.8490660 148.7608220  50.9669020
 150.9703480 148.7194700  51.9154840 150.4639170 149.6232370  50.8115750
 149.8612160 151.0709360  50.3652320 149.2929060 150.6227610  49.7388230
 150.5701160 151.4302140  49.8317470 143.9518970 146.5641610  55.8521140
 143.6665890 146.1997280  56.6899760 143.8897830 145.8322070  55.2384280
 148.8777850 150.8606560  62.0411880 148.5734920 151.7398540  62.2662240
 149.8324310 150.9206350  62.0769320 144.9341580 151.7009300  63.1883240
 144.5756520 152.3663150  63.7756580 144.6396140 150.8692850  63.5595860
 148.1354700 152.1593540  66.0722790 147.8354840 152.3050720  65.1750610
 148.9065940 151.5998830  65.9796180 143.4449630 151.7000560  49.8117840
 144.3144480 151.9825360  50.0953760 142.9539950 152.5136430  49.6966650
 146.5096220 143.4311420  54.4048640 146.3810850 143.4229320  55.3533560
 145.6858240 143.7694510  54.0539650 143.5090150 145.1902540  63.8655340
 142.7948670 145.3899460  64.4707950 143.9285190 144.4142110  64.2370140
 150.3374990 148.9167740  53.8402230 149.6291140 149.3854080  54.2815840
 150.6219470 148.2589750  54.4747420 151.9630920 150.3364440  61.8394760
 152.4616170 150.8110260  62.5046610 152.1053870 149.4127960  62.0464790
 148.5410010 147.2252820  51.2152940 149.3900540 147.6622970  51.1493130
 148.1741280 147.5373080  52.0425000 146.1348190 150.9110250  50.3721360
 146.2151780 149.9637760  50.4838760 147.0267940 151.2417130  50.4782020
 145.6942070 150.8754760  66.5027600 145.7347410 150.5768630  67.4112830
 146.5487570 151.2762370  66.3435120 147.6347880 149.4546860  64.4702090
 147.1044340 148.9637810  63.8425430 148.3035950 149.8831060  63.9360020
 148.1220180 146.4209230  64.5499380 148.0277050 145.8029980  63.8250250
 147.5417570 147.1475520  64.3229290 150.8881620 144.9782470  61.5826770
 150.4398920 145.0006730  60.7372320 150.2546820 144.5801490  62.1797070
 148.3679360 149.5483540  48.6089270 148.1668420 148.6850900  48.9702610
 148.1971410 149.4616900  47.6710870 150.3973840 148.1474330  64.8452870
 150.9873530 147.8390180  65.5330690 149.5794080 147.6754080  65.0012770
 147.1662160 146.6484160  48.5967150 147.4688060 146.6551590  47.6886300
 147.9056750 146.2982020  49.0934810 150.3847090 145.5918780  49.5823350
 150.0369090 144.9142770  49.0025800 150.5859860 145.1308290  50.3966740
 143.7252730 152.1206430  55.9787720 143.0701570 151.8518070  55.3347420
 144.5630680 152.0110910  55.5289700 144.7628660 152.5059000  60.5191060
 145.1301700 152.4186400  61.3987080 144.1939480 151.7425550  60.4197920
 144.3144660 149.4168090  64.4249480 143.4200710 149.3834850  64.7643190
 144.8542210 149.6154880  65.1900730 142.9390810 149.3305360  51.9213050
 142.0354890 149.5935560  51.7464710 143.4231430 149.6016530  51.1413010
 145.4818020 148.3870900  49.8307430 146.1909720 147.9654120  49.3454710
 144.7657960 148.4546130  49.1990780 145.1292180 144.4410230  48.8710080
 145.8520310 144.9819170  49.1891300 145.4016700 144.1673650  47.9951620
 144.8184370 143.6916420  58.7732700 145.4660560 143.1413800  58.3327860
 145.2386210 143.9459570  59.5948510 144.5716370 143.8472090  61.5158020
 144.2231190 144.3035910  62.2816200 144.2404070 142.9529220  61.5980450
 145.2437010 143.3748290  64.7908790 145.7920000 143.1936340  64.0274900
 145.3092320 142.5842400  65.3265100 144.5539020 144.4803490  52.4645650
 145.3118380 144.5932370  51.8909680 144.0916190 145.3172690  52.4189080
 151.0952830 146.5942760  55.4547960 150.2827340 146.2199650  55.1143840
 151.5994470 145.8387840  55.7569150 146.9264170 145.0067540  51.0047620
 147.4556930 144.2197340  50.8755570 147.5592490 145.6858730  51.2383150
 149.1202010 144.7442680  54.0593010 148.4904750 144.0429990  54.2263140
 148.5807150 145.5046810  53.8426170 149.2457570 144.0226660  66.4945500
 148.9641840 144.5260260  65.7306320 149.6277270 143.2248410  66.1287630
 145.3107000 148.5073430  33.9788130 144.4223700 148.8489400  33.8768010
 145.5948190 148.3073750  33.0868960 143.2740010 151.1079080  39.8627830
 143.8456120 150.3401280  39.8631470 143.2741550 151.4067840  38.9534440
 144.5164880 146.5163440  41.6496760 144.3367720 145.6189190  41.9299520
 144.1144960 147.0635310  42.3243710 147.4868390 147.0904930  35.0126510
 147.5935140 147.9908660  35.3195270 146.5760750 147.0422900  34.7221160
 145.1351550 149.0123940  40.2579100 145.8161660 149.2762310  40.8766500
 144.8199600 148.1724810  40.5917110 149.3276120 150.0591300  39.3451690
 149.8354340 150.5572270  39.9856710 149.8589360 149.2826500  39.1691050
 147.6112220 144.6989860  43.6115110 147.6130660 145.2162250  42.8061010
 146.7816530 144.2220040  43.5885040 147.2927550 146.4099820  41.6185560
 147.6344360 147.2541870  41.3239430 146.3543360 146.5583560  41.7350900
 150.9755440 143.8982090  37.9430150 151.2830420 143.3428980  37.2265650
 150.0456140 144.0326550  37.7603140 148.9692840 152.4895660  37.4610000
 148.5649840 151.7772910  36.9655900 149.0555960 152.1448900  38.3498040
 147.6821460 149.2638870  41.2409040 148.2336050 149.3734210  40.4662290
 148.1964970 149.6376470  41.9564270 145.6697470 151.3840640  34.9616650
 145.5495070 152.1102730  34.3497920 145.3598360 150.6143550  34.4844560
 148.1361130 144.7275710  38.3440320 147.6929280 145.5085250  38.0124840
 148.6946120 145.0505600  39.0511260 152.4230940 147.5944230  43.9475640
 151.9610310 147.8027250  44.7595580 152.0209050 146.7803580  43.6446310
 151.2519950 144.3486410  33.2246150 150.6274130 144.3446280  33.9499460
 151.1650070 143.4817370  32.8282120 150.1737030 145.2723040  40.2029920
 150.4709360 146.1785870  40.1221940 150.7222590 144.7841820  39.5889490
 147.9275350 149.8509280  36.0721570 147.7016270 149.6346450  36.9768190
 147.1467880 150.2837740  35.7267540 150.3674560 150.7494860  46.7381840
 150.2718160 149.8089590  46.5882240 151.2106540 150.9709930  46.3429910
 145.4985100 147.1608530  44.8915620 145.1048490 148.0083740  45.0988400
 144.8103500 146.5234900  45.0824260 142.8002150 145.0836990  38.9245700
 142.5115200 145.6539850  39.6370680 143.5447910 144.6041440  39.2876930
 142.9872380 149.0257110  30.1348420 142.9047050 149.9687870  30.2763410
 142.6355440 148.8832020  29.2560770 150.7870510 147.7596140  39.2018770
 150.7906570 147.3186090  38.3523310 151.6821630 148.0813470  39.3090590
 146.6372890 147.6422630  38.1612980 146.2972940 148.1197860  38.9180030
 145.8750210 147.1887750  37.8014080 150.8490660 148.7608220  32.1925530
 150.9703480 148.7194700  33.1411350 150.4639170 149.6232370  32.0372260
 149.8612160 151.0709360  31.5908830 149.2929060 150.6227610  30.9644740
 150.5701160 151.4302140  31.0573980 143.9518970 146.5641610  37.0777650
 143.6665890 146.1997280  37.9156270 143.8897830 145.8322070  36.4640790
 148.8777850 150.8606560  43.2668390 148.5734920 151.7398540  43.4918750
 149.8324310 150.9206350  43.3025830 144.9341580 151.7009300  44.4139750
 144.5756520 152.3663150  45.0013090 144.6396140 150.8692850  44.7852370
 148.1354700 152.1593540  47.2979300 147.8354840 152.3050720  46.4007120
 148.9065940 151.5998830  47.2052690 143.4449630 151.7000560  31.0374350
 144.3144480 151.9825360  31.3210270 142.9539950 152.5136430  30.9223160
 146.5096220 143.4311420  35.6305150 146.3810850 143.4229320  36.5790070
 145.6858240 143.7694510  35.2796160 143.5090150 145.1902540  45.0911850
 142.7948670 145.3899460  45.6964460 143.9285190 144.4142110  45.4626650
 150.3374990 148.9167740  35.0658740 149.6291140 149.3854080  35.5072350
 150.6219470 148.2589750  35.7003930 151.9630920 150.3364440  43.0651270
 152.4616170 150.8110260  43.7303120 152.1053870 149.4127960  43.2721300
 148.5410010 147.2252820  32.4409450 149.3900540 147.6622970  32.3749640
 148.1741280 147.5373080  33.2681510 146.1348190 150.9110250  31.5977870
 146.2151780 149.9637760  31.7095270 147.0267940 151.2417130  31.7038530
 145.6942070 150.8754760  47.7284110 145.7347410 150.5768630  48.6369340
 146.5487570 151.2762370  47.5691630 147.6347880 149.4546860  45.6958600
 147.1044340 148.9637810  45.0681940 148.3035950 149.8831060  45.1616530
 148.1220180 146.4209230  45.7755890 148.0277050 145.8029980  45.0506760
 147.5417570 147.1475520  45.5485800 150.8881620 144.9782470  42.8083280
 150.4398920 145.0006730  41.9628830 150.2546820 144.5801490  43.4053580
 148.3679360 149.5483540  29.8345780 148.1668420 148.6850900  30.1959120
 148.1971410 149.4616900  28.8967380 150.3973840 148.1474330  46.0709380
 150.9873530 147.8390180  46.7587200 149.5794080 147.6754080  46.2269280
 147.1662160 146.6484160  29.8223660 147.4688060 146.6551590  28.9142810
 147.9056750 146.2982020  30.3191320 150.3847090 145.5918780  30.8079860
 150.0369090 144.9142770  30.2282310 150.5859860 145.1308290  31.6223250
 143.7252730 152.1206430  37.2044230 143.0701570 151.8518070  36.5603930
 144.5630680 152.0110910  36.7546210 144.7628660 152.5059000  41.7447570
 145.1301700 152.4186400  42.6243590 144.1939480 151.7425550  41.6454430
 144.3144660 149.4168090  45.6505990 143.4200710 149.3834850  45.9899700
 144.8542210 149.6154880  46.4157240 142.9390810 149.3305360  33.1469560
 142.0354890 149.5935560  32.9721220 143.4231430 149.6016530  32.3669520
 145.4818020 148.3870900  31.0563940 146.1909720 147.9654120  30.5711220
 144.7657960 148.4546130  30.4247290 145.1292180 144.4410230  30.0966590
 145.8520310 144.9819170  30.4147810 145.4016700 144.1673650  29.2208130
 144.8184370 143.6916420  39.9989210 145.4660560 143.1413800  39.5584370
 145.2386210 143.9459570  40.8205020 144.5716370 143.8472090  42.7414530
 144.2231190 144.3035910  43.5072710 144.2404070 142.9529220  42.8236960
 145.2437010 143.3748290  46.0165300 145.7920000 143.1936340  45.2531410
 145.3092320 142.5842400  46.5521610 144.5539020 144.4803490  33.6902160
 145.3118380 144.5932370  33.1166190 144.0916190 145.3172690  33.6445590
 151.0952830 146.5942760  36.6804470 150.2827340 146.2199650  36.3400350
 151.5994470 145.8387840  36.9825660 146.9264170 145.0067540  32.2304130
 147.4556930 144.2197340  32.1012080 147.5592490 145.6858730  32.4639660
 149.1202010 144.7442680  35.2849520 148.4904750 144.0429990  35.4519650
 148.5807150 145.5046810  35.0682680 149.2457570 144.0226660  47.7202010
 148.9641840 144.5260260  46.9562830 149.6277270 143.2248410  47.3544140
 145.3107000 148.5073430  15.2044640 144.4223700 148.8489400  15.1024520
 145.5948190 148.3073750  14.3125470 143.2740010 151.1079080  21.0884340
 143.8456120 150.3401280  21.0887980 143.2741550 151.4067840  20.1790950
 144.5164880 146.5163440  22.8753270 144.3367720 145.6189190  23.1556030
 144.1144960 147.0635310  23.5500220 147.4868390 147.0904930  16.2383020
 147.5935140 147.9908660  16.5451780 146.5760750 147.0422900  15.9477670
 145.1351550 149.0123940  21.4835610 145.8161660 149.2762310  22.1023010
 144.8199600 148.1724810  21.8173620 149.3276120 150.0591300  20.5708200
 149.8354340 150.5572270  21.2113220 149.8589360 149.2826500  20.3947560
 147.6112220 144.6989860  24.8371620 147.6130660 145.2162250  24.0317520
 146.7816530 144.2220040  24.8141550 147.2927550 146.4099820  22.8442070
 147.6344360 147.2541870  22.5495940 146.3543360 146.5583560  22.9607410
 150.9755440 143.8982090  19.1686660 151.2830420 143.3428980  18.4522160
 150.0456140 144.0326550  18.9859650 148.9692840 152.4895660  18.6866510
 148.5649840 151.7772910  18.1912410 149.0555960 152.1448900  19.5754550
 147.6821460 149.2638870  22.4665550 148.2336050 149.3734210  21.6918800
 148.1964970 149.6376470  23.1820780 145.6697470 151.3840640  16.1873160
 145.5495070 152.1102730  15.5754430 145.3598360 150.6143550  15.7101070
 148.1361130 144.7275710  19.5696830 147.6929280 145.5085250  19.2381350
 148.6946120 145.0505600  20.2767770 152.4230940 147.5944230  25.1732150
 151.9610310 147.8027250  25.9852090 152.0209050 146.7803580  24.8702820
 151.2519950 144.3486410  14.4502660 150.6274130 144.3446280  15.1755970
 151.1650070 143.4817370  14.0538630 150.1737030 145.2723040  21.4286430
 150.4709360 146.1785870  21.3478450 150.7222590 144.7841820  20.8146000
 147.9275350 149.8509280  17.2978080 147.7016270 149.6346450  18.2024700
 147.1467880 150.2837740  16.9524050 150.3674560 150.7494860  27.9638350
 150.2718160 149.8089590  27.8138750 151.2106540 150.9709930  27.5686420
 145.4985100 147.1608530  26.1172130 145.1048490 148.0083740  26.3244910
 144.8103500 146.5234900  26.3080770 142.8002150 145.0836990  20.1502210
 142.5115200 145.6539850  20.8627190 143.5447910 144.6041440  20.5133440
 142.9872380 149.0257110  11.3604930 142.9047050 149.9687870  11.5019920
 142.6355440 148.8832020  10.4817280 150.7870510 147.7596140  20.4275280
 150.7906570 147.3186090  19.5779820 151.6821630 148.0813470  20.5347100
 146.6372890 147.6422630  19.3869490 146.2972940 148.1197860  20.1436540
 145.8750210 147.1887750  19.0270590 150.8490660 148.7608220  13.4182040
 150.9703480 148.7194700  14.3667860 150.4639170 149.6232370  13.2628770
 149.8612160 151.0709360  12.8165340 149.2929060 150.6227610  12.1901250
 150.5701160 151.4302140  12.2830490 143.9518970 146.5641610  18.3034160
 143.6665890 146.1997280  19.1412780 143.8897830 145.8322070  17.6897300
 148.8777850 150.8606560  24.4924900 148.5734920 151.7398540  24.7175260
 149.8324310 150.9206350  24.5282340 144.9341580 151.7009300  25.6396260
 144.5756520 152.3663150  26.2269600 144.6396140 150.8692850  26.0108880
 148.1354700 152.1593540  28.5235810 147.8354840 152.3050720  27.6263630
 148.9065940 151.5998830  28.4309200 143.4449630 151.7000560  12.2630860
 144.3144480 151.9825360  12.5466780 142.9539950 152.5136430  12.1479670
 146.5096220 143.4311420  16.8561660 146.3810850 143.4229320  17.8046580
 145.6858240 143.7694510  16.5052670 143.5090150 145.1902540  26.3168360
 142.7948670 145.3899460  26.9220970 143.9285190 144.4142110  26.6883160
 150.3374990 148.9167740  16.2915250 149.6291140 149.3854080  16.7328860
 150.6219470 148.2589750  16.9260440 151.9630920 150.3364440  24.2907780
 152.4616170 150.8110260  24.9559630 152.1053870 149.4127960  24.4977810
 148.5410010 147.2252820  13.6665960 149.3900540 147.6622970  13.6006150
 148.1741280 147.5373080  14.4938020 146.1348190 150.9110250  12.8234380
 146.2151780 149.9637760  12.9351780 147.0267940 151.2417130  12.9295040
 145.6942070 150.8754760  28.9540620 145.7347410 150.5768630  29.8625850
 146.5487570 151.2762370  28.7948140 147.6347880 149.4546860  26.9215110
 147.1044340 148.9637810  26.2938450 148.3035950 149.8831060  26.3873040
 148.1220180 146.4209230  27.0012400 148.0277050 145.8029980  26.2763270
 147.5417570 147.1475520  26.7742310 150.8881620 144.9782470  24.0339790
 150.4398920 145.0006730  23.1885340 150.2546820 144.5801490  24.6310090
 148.3679360 149.5483540  11.0602290 148.1668420 148.6850900  11.4215630
 148.1971410 149.4616900  10.1223890 150.3973840 148.1474330  27.2965890
 150.9873530 147.8390180  27.9843710 149.5794080 147.6754080  27.4525790
 147.1662160 146.6484160  11.0480170 147.4688060 146.6551590  10.1399320
 147.9056750 146.2982020  11.5447830 150.3847090 145.5918780  12.0336370
 150.0369090 144.9142770  11.4538820 150.5859860 145.1308290  12.8479760
 143.7252730 152.1206430  18.4300740 143.0701570 151.8518070  17.7860440
 144.5630680 152.0110910  17.9802720 144.7628660 152.5059000  22.9704080
 145.1301700 152.4186400  23.8500100 144.1939480 151.7425550  22.8710940
 144.3144660 149.4168090  26.8762500 143.4200710 149.3834850  27.2156210
 144.8542210 149.6154880  27.6413750 142.9390810 149.3305360  14.3726070
 142.0354890 149.5935560  14.1977730 143.4231430 149.6016530  13.5926030
 145.4818020 148.3870900  12.2820450 146.1909720 147.9654120  11.7967730
 144.7657960 148.4546130  11.6503800 145.1292180 144.4410230  11.3223100
 145.8520310 144.9819170  11.6404320 145.4016700 144.1673650  10.4464640
 144.8184370 143.6916420  21.2245720 145.4660560 143.1413800  20.7840880
 145.2386210 143.9459570  22.0461530 144.5716370 143.8472090  23.9671040
 144.2231190 144.3035910  24.7329220 144.2404070 142.9529220  24.0493470
 145.2437010 143.3748290  27.2421810 145.7920000 143.1936340  26.4787920
 145.3092320 142.5842400  27.7778120 144.5539020 144.4803490  14.9158670
 145.3118380 144.5932370  14.3422700 144.0916190 145.3172690  14.8702100
 151.0952830 146.5942760  17.9060980 150.2827340 146.2199650  17.5656860
 151.5994470 145.8387840  18.2082170 146.9264170 145.0067540  13.4560640
 147.4556930 144.2197340  13.3268590 147.5592490 145.6858730  13.6896170
 149.1202010 144.7442680  16.5106030 148.4904750 144.0429990  16.6776160
 148.5807150 145.5046810  16.2939190 149.2457570 144.0226660  28.9458520
 148.9641840 144.5260260  28.1819340 149.6277270 143.2248410  28.5800650
 144.5164880 146.5163440   4.1009780 144.3367720 145.6189190   4.3812540
 144.1144960 147.0635310   4.7756730 145.1351550 149.0123940   2.7092120
 145.8161660 149.2762310   3.3279520 144.8199600 148.1724810   3.0430130
 149.3276120 150.0591300   1.7964710 149.8354340 150.5572270   2.4369730
 149.8589360 149.2826500   1.6204070 147.6112220 144.6989860   6.0628130
 147.6130660 145.2162250   5.2574030 146.7816530 144.2220040   6.0398060
 147.2927550 146.4099820   4.0698580 147.6344360 147.2541870   3.7752450
 146.3543360 146.5583560   4.1863920 147.6821460 149.2638870   3.6922060
 148.2336050 149.3734210   2.9175310 148.1964970 149.6376470   4.4077290
 152.4230940 147.5944230   6.3988660 151.9610310 147.8027250   7.2108600
 152.0209050 146.7803580   6.0959330 150.1737030 145.2723040   2.6542940
 150.4709360 146.1785870   2.5734960 150.7222590 144.7841820   2.0402510
 150.3674560 150.7494860   9.1894860 150.2718160 149.8089590   9.0395260
 151.2106540 150.9709930   8.7942930 145.4985100 147.1608530   7.3428640
 145.1048490 148.0083740   7.5501420 144.8103500 146.5234900   7.5337280
 148.8777850 150.8606560   5.7181410 148.5734920 151.7398540   5.9431770
 149.8324310 150.9206350   5.7538850 144.9341580 151.7009300   6.8652770
 144.5756520 152.3663150   7.4526110 144.6396140 150.8692850   7.2365390
 148.1354700 152.1593540   9.7492320 147.8354840 152.3050720   8.8520140
 148.9065940 151.5998830   9.6565710 143.5090150 145.1902540   7.5424870
 142.7948670 145.3899460   8.1477480 143.9285190 144.4142110   7.9139670
 151.9630920 150.3364440   5.5164290 152.4616170 150.8110260   6.1816140
 152.1053870 149.4127960   5.7234320 145.6942070 150.8754760  10.1797130
 145.7347410 150.5768630  11.0882360 146.5487570 151.2762370  10.0204650
 147.6347880 149.4546860   8.1471620 147.1044340 148.9637810   7.5194960
 148.3035950 149.8831060   7.6129550 148.1220180 146.4209230   8.2268910
 148.0277050 145.8029980   7.5019780 147.5417570 147.1475520   7.9998820
 150.8881620 144.9782470   5.2596300 150.4398920 145.0006730   4.4141850
 150.2546820 144.5801490   5.8566600 150.3973840 148.1474330   8.5222400
 150.9873530 147.8390180   9.2100220 149.5794080 147.6754080   8.6782300
 144.7628660 152.5059000   4.1960590 145.1301700 152.4186400   5.0756610
 144.1939480 151.7425550   4.0967450 144.3144660 149.4168090   8.1019010
 143.4200710 149.3834850   8.4412720 144.8542210 149.6154880   8.8670260
 144.8184370 143.6916420   2.4502230 145.4660560 143.1413800   2.0097390
 145.2386210 143.9459570   3.2718040 144.5716370 143.8472090   5.1927550
 144.2231190 144.3035910   5.9585730 144.2404070 142.9529220   5.2749980
 145.2437010 143.3748290   8.4678320 145.7920000 143.1936340   7.7044430
 145.3092320 142.5842400   9.0034630 149.2457570 144.0226660  10.1715030
 148.9641840 144.5260260   9.4075850 149.6277270 143.2248410   9.8057160
 145.3107000 129.7329940 146.6249070 144.4223700 130.0745910 146.5228950
 145.5948190 129.5330260 145.7329900 147.4868390 128.3161440 147.6587450
 147.5935140 129.2165170 147.9656210 146.5760750 128.2679410 147.3682100
 143.3666510 136.7222210 145.1305580 142.9894490 137.2109310 144.3990480
 143.6239580 137.3947490 145.7612110 150.9755440 125.1238600 150.5891090
 151.2830420 124.5685490 149.8726590 150.0456140 125.2583060 150.4064080
 148.9692840 133.7152170 150.1070940 148.5649840 133.0029420 149.6116840
 149.0555960 133.3705410 150.9958980 145.6697470 132.6097150 147.6077590
 145.5495070 133.3359240 146.9958860 145.3598360 131.8400060 147.1305500
 144.5530470 137.4812480 149.8252410 144.1458550 137.6227070 148.9706010
 145.4443480 137.1972640 149.6223620 148.8252130 141.6958260 147.9375080
 148.6494610 140.7793800 147.7242880 147.9707870 142.0545550 148.1772880
 148.1361130 125.9532220 150.9901260 147.6929280 126.7341760 150.6585780
 148.6946120 126.2762110 151.6972200 151.2519950 125.5742920 145.8707090
 150.6274130 125.5702790 146.5960400 151.1650070 124.7073880 145.4743060
 147.9275350 131.0765790 148.7182510 147.7016270 130.8602960 149.6229130
 147.1467880 131.5094250 148.3728480 142.9872380 130.2513620 142.7809360
 142.9047050 131.1944380 142.9224350 142.6355440 130.1088530 141.9021710
 146.6372890 128.8679140 150.8073920 146.2972940 129.3454370 151.5640970
 145.8750210 128.4144260 150.4475020 150.8490660 129.9864730 144.8386470
 150.9703480 129.9451210 145.7872290 150.4639170 130.8488880 144.6833200
 149.8612160 132.2965870 144.2369770 149.2929060 131.8484120 143.6105680
 150.5701160 132.6558650 143.7034920 143.9518970 127.7898120 149.7238590
 143.6665890 127.4253790 150.5617210 143.8897830 127.0578580 149.1101730
 147.4059640 136.2924060 146.5096180 146.6321900 135.7521680 146.3494900
 148.1354270 135.7730670 146.1713940 147.4497040 135.9604440 150.1474990
 147.9675710 135.1572700 150.0931880 146.9981060 135.8983580 150.9891820
 151.3057230 137.3084250 148.1918210 151.9928360 137.8553460 148.5725800
 150.5189650 137.8524980 148.2267820 143.4449630 132.9257070 143.6835290
 144.3144480 133.2081870 143.9671210 142.9539950 133.7392940 143.5684100
 150.6084440 134.3130280 147.8043570 151.0647220 135.1235530 148.0303760
 150.2572650 133.9953420 148.6362060 146.5096220 124.6567930 148.2766090
 146.3810850 124.6485830 149.2251010 145.6858240 124.9951020 147.9257100
 143.8120880 142.1384450 144.2496920 144.1718520 142.7373790 143.5954190
 143.6713220 142.6844340 145.0231950 149.8289500 139.5215650 145.0670590
 149.8199600 140.2545340 144.4515100 148.9087860 139.2747230 145.1597550
 145.4296140 134.7430540 145.8117350 144.8224090 135.4829440 145.8212650
 145.9045490 134.8329900 144.9855550 150.3374990 130.1424250 147.7119680
 149.6291140 130.6110590 148.1533290 150.6219470 129.4846260 148.3464870
 151.4567210 142.1030210 148.4243450 151.7108710 142.0651600 147.5022820
 150.5079690 141.9763540 148.4171700 148.5410010 128.4509330 145.0870390
 149.3900540 128.8879480 145.0210580 148.1741280 128.7629590 145.9142450
 147.4401430 134.7041690 143.5605920 148.2064700 134.5923050 144.1231350
 147.5176120 134.0079660 142.9082690 146.1348190 132.1366760 144.2438810
 146.2151780 131.1894270 144.3556210 147.0267940 132.4673640 144.3499470
 146.9362900 142.2862150 151.3473350 147.6725380 141.7377610 151.6181920
 147.3203820 143.1518160 151.2079340 143.8208380 138.3535720 147.2214860
 142.8948160 138.5956860 147.2120270 144.2864810 139.1809980 147.0999610
 150.0465210 141.4592460 143.1698920 150.8393820 141.7481290 142.7180710
 149.5269560 141.0284630 142.4911400 150.5642610 136.6795870 143.0341270
 150.4593250 136.0648220 143.7602650 150.3966830 136.1561760 142.2504280
 149.4720460 134.7006820 145.5348560 149.8936880 134.5346690 146.3779950
 149.5971300 133.8907050 145.0403700 151.9848100 133.7244430 142.7825660
 152.5053760 133.0093450 142.4166810 152.6316500 134.3630300 143.0826170
 148.3679360 130.7740050 142.4806720 148.1668420 129.9107410 142.8420060
 148.1971410 130.6873410 141.5428320 147.1662160 127.8740670 142.4684600
 147.4688060 127.8808100 141.5603750 147.9056750 127.5238530 142.9652260
 150.3847090 126.8175290 143.4540800 150.0369090 126.1399280 142.8743250
 150.5859860 126.3564800 144.2684190 146.1892290 137.1783090 143.3014400
 146.6267160 137.7212760 143.9571980 146.6740020 136.3530040 143.3110740
 143.4038090 139.9672120 150.7534660 143.7341100 139.0993180 150.5213300
 143.8329090 140.1730640 151.5839620 148.0000010 138.2981130 148.4136630
 147.6995550 138.1746100 149.3140540 147.8937500 137.4389720 148.0052360
 143.7252730 133.3462940 149.8505170 143.0701570 133.0774580 149.2064870
 144.5630680 133.2367420 149.4007150 142.9390810 130.5561870 145.7930500
 142.0354890 130.8192070 145.6182160 143.4231430 130.8273040 145.0130460
 145.4818020 129.6127410 143.7024880 146.1909720 129.1910630 143.2172160
 144.7657960 129.6802640 143.0708230 145.1292180 125.6666740 142.7427530
 145.8520310 126.2075680 143.0608750 145.4016700 125.3930160 141.8669070
 143.9311000 141.8743220 148.8331240 143.7633040 141.2413900 149.5313130
 143.0645510 142.0802620 148.4825430 144.5539020 125.7060000 146.3363100
 145.3118380 125.8188880 145.7627130 144.0916190 126.5429200 146.2906530
 151.0952830 127.8199270 149.3265410 150.2827340 127.4456160 148.9861290
 151.5994470 127.0644350 149.6286600 145.5373700 140.5676450 146.2781380
 145.0121320 140.9484480 145.5743340 145.4618280 141.1927220 146.9991090
 146.9264170 126.2324050 144.8765070 147.4556930 125.4453850 144.7473020
 147.5592490 126.9115240 145.1100600 149.1202010 125.9699190 147.9310460
 148.4904750 125.2686500 148.0980590 148.5807150 126.7303320 147.7143620
 148.1366670 142.5158830 145.1530630 148.8685490 142.2318110 144.6054520
 148.3960340 142.2772110 146.0430010 147.2981460 138.6323560 145.1576960
 146.6690340 139.1008660 145.7062790 147.4129290 137.7872780 145.5923150
 146.9015050 134.7728050 134.0663190 146.0699930 134.5176760 134.4659700
 147.5096030 134.8438820 134.8021110 146.8816310 138.8068140 134.2621210
 147.1844350 137.9165880 134.0831430 147.6259900 139.3638360 134.0343460
 145.3107000 129.7329940 127.8505580 144.4223700 130.0745910 127.7485460
 145.5948190 129.5330260 126.9586410 143.2740010 132.3335590 133.7345280
 143.8456120 131.5657790 133.7348920 143.2741550 132.6324350 132.8251890
 144.5164880 127.7419950 135.5214210 144.3367720 126.8445700 135.8016970
 144.1144960 128.2891820 136.1961160 147.4868390 128.3161440 128.8843960
 147.5935140 129.2165170 129.1912720 146.5760750 128.2679410 128.5938610
 145.1351550 130.2380450 134.1296550 145.8161660 130.5018820 134.7483950
 144.8199600 129.3981320 134.4634560 149.3276120 131.2847810 133.2169140
 149.8354340 131.7828780 133.8574160 149.8589360 130.5083010 133.0408500
 147.6112220 125.9246370 137.4832560 147.6130660 126.4418760 136.6778460
 146.7816530 125.4476550 137.4602490 148.8615070 135.5641550 135.6606060
 148.5284450 136.1910470 136.3027130 149.0381750 136.0903430 134.8807730
 147.2927550 127.6356330 135.4903010 147.6344360 128.4798380 135.1956880
 146.3543360 127.7840070 135.6068350 148.0734170 137.5322350 137.4755240
 148.6908170 138.2073430 137.1939690 147.2127290 137.9410330 137.3842740
 143.3666510 136.7222210 126.3562090 142.9894490 137.2109310 125.6246990
 143.6239580 137.3947490 126.9868620 150.9755440 125.1238600 131.8147600
 151.2830420 124.5685490 131.0983100 150.0456140 125.2583060 131.6320590
 148.9692840 133.7152170 131.3327450 148.5649840 133.0029420 130.8373350
 149.0555960 133.3705410 132.2215490 149.4374540 137.4019730 133.4966660
 149.1402830 136.7965200 132.8174440 150.3874360 137.4397040 133.3856020
 147.6821460 130.4895380 135.1126490 148.2336050 130.5990720 134.3379740
 148.1964970 130.8632980 135.8281720 148.5292970 137.1401420 140.1474460
 147.6321500 137.3641390 140.3947860 148.5545840 137.2636360 139.1985860
 147.3564190 134.0114740 138.7231830 147.2171960 134.8837540 139.0919230
 146.4745550 133.6687550 138.5779770 149.1544540 139.9536440 140.9316980
 149.1259970 140.3579390 140.0645410 148.9909510 139.0246800 140.7688580
 145.6697470 132.6097150 128.8334100 145.5495070 133.3359240 128.2215370
 145.3598360 131.8400060 128.3562010 143.3082840 135.7812290 134.6402740
 143.3863260 135.9161060 133.6958460 143.9224520 135.0728180 134.8330860
 144.5530470 137.4812480 131.0508920 144.1458550 137.6227070 130.1962520
 145.4443480 137.1972640 130.8480130 148.8252130 141.6958260 129.1631590
 148.6494610 140.7793800 128.9499390 147.9707870 142.0545550 129.4029390
 143.3642360 136.8226460 137.1797200 143.5273400 136.3531820 136.3616570
 143.8294810 136.3150020 137.8446040 148.1361130 125.9532220 132.2157770
 147.6929280 126.7341760 131.8842290 148.6946120 126.2762110 132.9228710
 152.4230940 128.8200740 137.8193090 151.9610310 129.0283760 138.6313030
 152.0209050 128.0060090 137.5163760 151.2519950 125.5742920 127.0963600
 150.6274130 125.5702790 127.8216910 151.1650070 124.7073880 126.6999570
 150.1737030 126.4979550 134.0747370 150.4709360 127.4042380 133.9939390
 150.7222590 126.0098330 133.4606940 147.9275350 131.0765790 129.9439020
 147.7016270 130.8602960 130.8485640 147.1467880 131.5094250 129.5984990
 150.3674560 131.9751370 140.6099290 150.2718160 131.0346100 140.4599690
 151.2106540 132.1966440 140.2147360 145.4985100 128.3865040 138.7633070
 145.1048490 129.2340250 138.9705850 144.8103500 127.7491410 138.9541710
 142.8002150 126.3093500 132.7963150 142.5115200 126.8796360 133.5088130
 143.5447910 125.8297950 133.1594380 142.9872380 130.2513620 124.0065870
 142.9047050 131.1944380 124.1480860 142.6355440 130.1088530 123.1278220
 150.7870510 128.9852650 133.0736220 150.7906570 128.5442600 132.2240760
 151.6821630 129.3069980 133.1808040 146.6372890 128.8679140 132.0330430
 146.2972940 129.3454370 132.7897480 145.8750210 128.4144260 131.6731530
 150.8490660 129.9864730 126.0642980 150.9703480 129.9451210 127.0128800
 150.4639170 130.8488880 125.9089710 149.8612160 132.2965870 125.4626280
 149.2929060 131.8484120 124.8362190 150.5701160 132.6558650 124.9291430
 144.9381340 136.1977890 139.3393010 144.5536130 135.5571560 139.9375970
 145.2493530 136.9014010 139.9087740 151.0878480 133.0454430 134.8201630
 151.4548610 132.5713000 135.5662970 150.8983540 133.9196000 135.1609970
 143.9518970 127.7898120 130.9495100 143.6665890 127.4253790 131.7873720
 143.8897830 127.0578580 130.3358240 148.8777850 132.0863070 137.1385840
 148.5734920 132.9655050 137.3636200 149.8324310 132.1462860 137.1743280
 147.4059640 136.2924060 127.7352690 146.6321900 135.7521680 127.5751410
 148.1354270 135.7730670 127.3970450 147.4497040 135.9604440 131.3731500
 147.9675710 135.1572700 131.3188390 146.9981060 135.8983580 132.2148330
 144.9341580 132.9265810 138.2857200 144.5756520 133.5919660 138.8730540
 144.6396140 132.0949360 138.6569820 148.1354700 133.3850050 141.1696750
 147.8354840 133.5307230 140.2724570 148.9065940 132.8255340 141.0770140
 151.3057230 137.3084250 129.4174720 151.9928360 137.8553460 129.7982310
 150.5189650 137.8524980 129.4524330 143.4449630 132.9257070 124.9091800
 144.3144480 133.2081870 125.1927720 142.9539950 133.7392940 124.7940610
 150.6084440 134.3130280 129.0300080 151.0647220 135.1235530 129.2560270
 150.2572650 133.9953420 129.8618570 146.5096220 124.6567930 129.5022600
 146.3810850 124.6485830 130.4507520 145.6858240 124.9951020 129.1513610
 143.8120880 142.1384450 125.4753430 144.1718520 142.7373790 124.8210700
 143.6713220 142.6844340 126.2488460 143.5090150 126.4159050 138.9629300
 142.7948670 126.6155970 139.5681910 143.9285190 125.6398620 139.3344100
 143.7962740 140.4039310 139.9495830 143.9053860 139.4634050 139.8091220
 143.1443300 140.6694060 139.3009560 151.7875330 138.6755200 141.3493950
 151.4672200 137.9564440 141.8939640 151.1133690 139.3510270 141.4230010
 149.8289500 139.5215650 126.2927100 149.8199600 140.2545340 125.6771610
 148.9087860 139.2747230 126.3854060 145.4296140 134.7430540 127.0373860
 144.8224090 135.4829440 127.0469160 145.9045490 134.8329900 126.2112060
 150.3374990 130.1424250 128.9376190 149.6291140 130.6110590 129.3789800
 150.6219470 129.4846260 129.5721380 151.9630920 131.5620950 136.9368720
 152.4616170 132.0366770 137.6020570 152.1053870 130.6384470 137.1438750
 151.4567210 142.1030210 129.6499960 151.7108710 142.0651600 128.7279330
 150.5079690 141.9763540 129.6428210 148.5410010 128.4509330 126.3126900
 149.3900540 128.8879480 126.2467090 148.1741280 128.7629590 127.1398960
 147.4401430 134.7041690 124.7862430 148.2064700 134.5923050 125.3487860
 147.5176120 134.0079660 124.1339200 146.1348190 132.1366760 125.4695320
 146.2151780 131.1894270 125.5812720 147.0267940 132.4673640 125.5755980
 146.9362900 142.2862150 132.5729860 147.6725380 141.7377610 132.8438430
 147.3203820 143.1518160 132.4335850 143.8208380 138.3535720 128.4471370
 142.8948160 138.5956860 128.4376780 144.2864810 139.1809980 128.3256120
 145.9421180 141.4708220 141.7615440 146.7433910 141.7920270 142.1750840
 145.4273000 141.1103800 142.4835350 150.0465210 141.4592460 124.3955430
 150.8393820 141.7481290 123.9437220 149.5269560 141.0284630 123.7167910
 143.6618990 133.9581680 140.7051490 144.1658010 133.3788960 141.2767720
 142.9226410 134.2421910 141.2427860 150.5642610 136.6795870 124.2597780
 150.4593250 136.0648220 124.9859160 150.3966830 136.1561760 123.4760790
 150.7156930 135.3652670 140.2387010 149.9502600 135.9337670 140.1541680
 150.8972890 135.0728880 139.3455240 145.6942070 132.1011270 141.6001560
 145.7347410 131.8025140 142.5086790 146.5487570 132.5018880 141.4409080
 149.4720460 134.7006820 126.7605070 149.8936880 134.5346690 127.6036460
 149.5971300 133.8907050 126.2660210 147.6347880 130.6803370 139.5676050
 147.1044340 130.1894320 138.9399390 148.3035950 131.1087570 139.0333980
 151.9848100 133.7244430 124.0082170 152.5053760 133.0093450 123.6423320
 152.6316500 134.3630300 124.3082680 148.1220180 127.6465740 139.6473340
 148.0277050 127.0286490 138.9224210 147.5417570 128.3732030 139.4203250
 150.8881620 126.2038980 136.6800730 150.4398920 126.2263240 135.8346280
 150.2546820 125.8058000 137.2771030 151.2941170 135.0993310 137.3013170
 151.7129280 135.9426040 137.1289410 150.3749800 135.2365350 137.0719950
 148.3679360 130.7740050 123.7063230 148.1668420 129.9107410 124.0676570
 148.1971410 130.6873410 122.7684830 149.1448590 141.4046320 138.4170900
 148.6069680 142.1292380 138.0979600 149.3982550 140.9276660 137.6268240
 150.3973840 129.3730840 139.9426830 150.9873530 129.0646690 140.6304650
 149.5794080 128.9010590 140.0986730 147.1662160 127.8740670 123.6941110
 147.4688060 127.8808100 122.7860260 147.9056750 127.5238530 124.1908770
 152.0010800 142.6397530 138.6757550 151.9269500 143.5432670 138.9829920
 151.0989640 142.3209430 138.6479620 150.3847090 126.8175290 124.6797310
 150.0369090 126.1399280 124.0999760 150.5859860 126.3564800 125.4940700
 146.1892290 137.1783090 124.5270910 146.6267160 137.7212760 125.1828490
 146.6740020 136.3530040 124.5367250 143.4038090 139.9672120 131.9791170
 143.7341100 139.0993180 131.7469810 143.8329090 140.1730640 132.8096130
 148.0000010 138.2981130 129.6393140 147.6995550 138.1746100 130.5397050
 147.8937500 137.4389720 129.2308870 143.8928300 140.8342710 134.7172800
 143.4559290 141.0143510 135.5496950 144.4605980 141.5917330 134.5754520
 143.7252730 133.3462940 131.0761680 143.0701570 133.0774580 130.4321380
 144.5630680 133.2367420 130.6263660 144.7628660 133.7315510 135.6165020
 145.1301700 133.6442910 136.4961040 144.1939480 132.9682060 135.5171880
 144.3144660 130.6424600 139.5223440 143.4200710 130.6091360 139.8617150
 144.8542210 130.8411390 140.2874690 142.9390810 130.5561870 127.0187010
 142.0354890 130.8192070 126.8438670 143.4231430 130.8273040 126.2386970
 145.4818020 129.6127410 124.9281390 146.1909720 129.1910630 124.4428670
 144.7657960 129.6802640 124.2964740 145.1292180 125.6666740 123.9684040
 145.8520310 126.2075680 124.2865260 145.4016700 125.3930160 123.0925580
 144.8184370 124.9172930 133.8706660 145.4660560 124.3670310 133.4301820
 145.2386210 125.1716080 134.6922470 144.5716370 125.0728600 136.6131980
 144.2231190 125.5292420 137.3790160 144.2404070 124.1785730 136.6954410
 146.1780740 138.2448200 140.7785170 146.1350370 137.8741110 141.6599630
 146.3091750 139.1825770 140.9186990 149.8786770 139.8007790 136.3794890
 149.6378130 140.0682350 135.4925410 150.8189410 139.9713520 136.4345750
 145.2437010 124.6004800 139.8882750 145.7920000 124.4192850 139.1248860
 145.3092320 123.8098910 140.4239060 146.0168770 141.1910450 137.8982950
 145.4229090 141.0595150 138.6372990 146.0092610 140.3548590 137.4325050
 145.6481000 138.5568830 136.8490990 144.9215060 137.9374120 136.7816940
 145.7090150 138.9509440 135.9789070 149.2526100 140.7713830 133.6340400
 149.7691120 140.1601190 133.1088660 149.9023480 141.2742610 134.1251410
 151.9921600 141.6622320 134.4609380 152.2799410 141.4076620 133.5842390
 152.5044820 141.1099680 135.0514950 143.9311000 141.8743220 130.0587750
 143.7633040 141.2413900 130.7569640 143.0645510 142.0802620 129.7081940
 144.5539020 125.7060000 127.5619610 145.3118380 125.8188880 126.9883640
 144.0916190 126.5429200 127.5163040 151.0952830 127.8199270 130.5521920
 150.2827340 127.4456160 130.2117800 151.5994470 127.0644350 130.8543110
 145.5373700 140.5676450 127.5037890 145.0121320 140.9484480 126.7999850
 145.4618280 141.1927220 128.2247600 146.9264170 126.2324050 126.1021580
 147.4556930 125.4453850 125.9729530 147.5592490 126.9115240 126.3357110
 149.1202010 125.9699190 129.1566970 148.4904750 125.2686500 129.3237100
 148.5807150 126.7303320 128.9400130 149.2457570 125.2483170 141.5919460
 148.9641840 125.7516770 140.8280280 149.6277270 124.4504920 141.2261590
 148.1366670 142.5158830 126.3787140 148.8685490 142.2318110 125.8311030
 148.3960340 142.2772110 127.2686520 147.2981460 138.6323560 126.3833470
 146.6690340 139.1008660 126.9319300 147.4129290 137.7872780 126.8179660
 146.9015050 134.7728050 115.2919700 146.0699930 134.5176760 115.6916210
 147.5096030 134.8438820 116.0277620 146.8816310 138.8068140 115.4877720
 147.1844350 137.9165880 115.3087940 147.6259900 139.3638360 115.2599970
 145.3107000 129.7329940 109.0762090 144.4223700 130.0745910 108.9741970
 145.5948190 129.5330260 108.1842920 143.2740010 132.3335590 114.9601790
 143.8456120 131.5657790 114.9605430 143.2741550 132.6324350 114.0508400
 144.5164880 127.7419950 116.7470720 144.3367720 126.8445700 117.0273480
 144.1144960 128.2891820 117.4217670 147.4868390 128.3161440 110.1100470
 147.5935140 129.2165170 110.4169230 146.5760750 128.2679410 109.8195120
 145.1351550 130.2380450 115.3553060 145.8161660 130.5018820 115.9740460
 144.8199600 129.3981320 115.6891070 149.3276120 131.2847810 114.4425650
 149.8354340 131.7828780 115.0830670 149.8589360 130.5083010 114.2665010
 147.6112220 125.9246370 118.7089070 147.6130660 126.4418760 117.9034970
 146.7816530 125.4476550 118.6859000 148.8615070 135.5641550 116.8862570
 148.5284450 136.1910470 117.5283640 149.0381750 136.0903430 116.1064240
 147.2927550 127.6356330 116.7159520 147.6344360 128.4798380 116.4213390
 146.3543360 127.7840070 116.8324860 148.0734170 137.5322350 118.7011750
 148.6908170 138.2073430 118.4196200 147.2127290 137.9410330 118.6099250
 143.3666510 136.7222210 107.5818600 142.9894490 137.2109310 106.8503500
 143.6239580 137.3947490 108.2125130 150.9755440 125.1238600 113.0404110
 151.2830420 124.5685490 112.3239610 150.0456140 125.2583060 112.8577100
 148.9692840 133.7152170 112.5583960 148.5649840 133.0029420 112.0629860
 149.0555960 133.3705410 113.4472000 149.4374540 137.4019730 114.7223170
 149.1402830 136.7965200 114.0430950 150.3874360 137.4397040 114.6112530
 147.6821460 130.4895380 116.3383000 148.2336050 130.5990720 115.5636250
 148.1964970 130.8632980 117.0538230 148.5292970 137.1401420 121.3730970
 147.6321500 137.3641390 121.6204370 148.5545840 137.2636360 120.4242370
 147.3564190 134.0114740 119.9488340 147.2171960 134.8837540 120.3175740
 146.4745550 133.6687550 119.8036280 149.1544540 139.9536440 122.1573490
 149.1259970 140.3579390 121.2901920 148.9909510 139.0246800 121.9945090
 145.6697470 132.6097150 110.0590610 145.5495070 133.3359240 109.4471880
 145.3598360 131.8400060 109.5818520 143.3082840 135.7812290 115.8659250
 143.3863260 135.9161060 114.9214970 143.9224520 135.0728180 116.0587370
 144.5530470 137.4812480 112.2765430 144.1458550 137.6227070 111.4219030
 145.4443480 137.1972640 112.0736640 148.8252130 141.6958260 110.3888100
 148.6494610 140.7793800 110.1755900 147.9707870 142.0545550 110.6285900
 143.3642360 136.8226460 118.4053710 143.5273400 136.3531820 117.5873080
 143.8294810 136.3150020 119.0702550 148.1361130 125.9532220 113.4414280
 147.6929280 126.7341760 113.1098800 148.6946120 126.2762110 114.1485220
 152.4230940 128.8200740 119.0449600 151.9610310 129.0283760 119.8569540
 152.0209050 128.0060090 118.7420270 151.2519950 125.5742920 108.3220110
 150.6274130 125.5702790 109.0473420 151.1650070 124.7073880 107.9256080
 150.1737030 126.4979550 115.3003880 150.4709360 127.4042380 115.2195900
 150.7222590 126.0098330 114.6863450 147.9275350 131.0765790 111.1695530
 147.7016270 130.8602960 112.0742150 147.1467880 131.5094250 110.8241500
 150.3674560 131.9751370 121.8355800 150.2718160 131.0346100 121.6856200
 151.2106540 132.1966440 121.4403870 145.4985100 128.3865040 119.9889580
 145.1048490 129.2340250 120.1962360 144.8103500 127.7491410 120.1798220
 142.8002150 126.3093500 114.0219660 142.5115200 126.8796360 114.7344640
 143.5447910 125.8297950 114.3850890 142.9872380 130.2513620 105.2322380
 142.9047050 131.1944380 105.3737370 142.6355440 130.1088530 104.3534730
 150.7870510 128.9852650 114.2992730 150.7906570 128.5442600 113.4497270
 151.6821630 129.3069980 114.4064550 146.6372890 128.8679140 113.2586940
 146.2972940 129.3454370 114.0153990 145.8750210 128.4144260 112.8988040
 150.8490660 129.9864730 107.2899490 150.9703480 129.9451210 108.2385310
 150.4639170 130.8488880 107.1346220 149.8612160 132.2965870 106.6882790
 149.2929060 131.8484120 106.0618700 150.5701160 132.6558650 106.1547940
 144.9381340 136.1977890 120.5649520 144.5536130 135.5571560 121.1632480
 145.2493530 136.9014010 121.1344250 151.0878480 133.0454430 116.0458140
 151.4548610 132.5713000 116.7919480 150.8983540 133.9196000 116.3866480
 143.9518970 127.7898120 112.1751610 143.6665890 127.4253790 113.0130230
 143.8897830 127.0578580 111.5614750 148.8777850 132.0863070 118.3642350
 148.5734920 132.9655050 118.5892710 149.8324310 132.1462860 118.3999790
 147.4059640 136.2924060 108.9609200 146.6321900 135.7521680 108.8007920
 148.1354270 135.7730670 108.6226960 147.4497040 135.9604440 112.5988010
 147.9675710 135.1572700 112.5444900 146.9981060 135.8983580 113.4404840
 144.9341580 132.9265810 119.5113710 144.5756520 133.5919660 120.0987050
 144.6396140 132.0949360 119.8826330 148.1354700 133.3850050 122.3953260
 147.8354840 133.5307230 121.4981080 148.9065940 132.8255340 122.3026650
 151.3057230 137.3084250 110.6431230 151.9928360 137.8553460 111.0238820
 150.5189650 137.8524980 110.6780840 143.4449630 132.9257070 106.1348310
 144.3144480 133.2081870 106.4184230 142.9539950 133.7392940 106.0197120
 150.6084440 134.3130280 110.2556590 151.0647220 135.1235530 110.4816780
 150.2572650 133.9953420 111.0875080 146.5096220 124.6567930 110.7279110
 146.3810850 124.6485830 111.6764030 145.6858240 124.9951020 110.3770120
 143.8120880 142.1384450 106.7009940 144.1718520 142.7373790 106.0467210
 143.6713220 142.6844340 107.4744970 143.5090150 126.4159050 120.1885810
 142.7948670 126.6155970 120.7938420 143.9285190 125.6398620 120.5600610
 143.7962740 140.4039310 121.1752340 143.9053860 139.4634050 121.0347730
 143.1443300 140.6694060 120.5266070 151.7875330 138.6755200 122.5750460
 151.4672200 137.9564440 123.1196150 151.1133690 139.3510270 122.6486520
 149.8289500 139.5215650 107.5183610 149.8199600 140.2545340 106.9028120
 148.9087860 139.2747230 107.6110570 145.4296140 134.7430540 108.2630370
 144.8224090 135.4829440 108.2725670 145.9045490 134.8329900 107.4368570
 150.3374990 130.1424250 110.1632700 149.6291140 130.6110590 110.6046310
 150.6219470 129.4846260 110.7977890 151.9630920 131.5620950 118.1625230
 152.4616170 132.0366770 118.8277080 152.1053870 130.6384470 118.3695260
 151.4567210 142.1030210 110.8756470 151.7108710 142.0651600 109.9535840
 150.5079690 141.9763540 110.8684720 148.5410010 128.4509330 107.5383410
 149.3900540 128.8879480 107.4723600 148.1741280 128.7629590 108.3655470
 147.4401430 134.7041690 106.0118940 148.2064700 134.5923050 106.5744370
 147.5176120 134.0079660 105.3595710 146.1348190 132.1366760 106.6951830
 146.2151780 131.1894270 106.8069230 147.0267940 132.4673640 106.8012490
 146.9362900 142.2862150 113.7986370 147.6725380 141.7377610 114.0694940
 147.3203820 143.1518160 113.6592360 143.8208380 138.3535720 109.6727880
 142.8948160 138.5956860 109.6633290 144.2864810 139.1809980 109.5512630
 145.9421180 141.4708220 122.9871950 146.7433910 141.7920270 123.4007350
 145.4273000 141.1103800 123.7091860 150.0465210 141.4592460 105.6211940
 150.8393820 141.7481290 105.1693730 149.5269560 141.0284630 104.9424420
 143.6618990 133.9581680 121.9308000 144.1658010 133.3788960 122.5024230
 142.9226410 134.2421910 122.4684370 150.5642610 136.6795870 105.4854290
 150.4593250 136.0648220 106.2115670 150.3966830 136.1561760 104.7017300
 150.7156930 135.3652670 121.4643520 149.9502600 135.9337670 121.3798190
 150.8972890 135.0728880 120.5711750 145.6942070 132.1011270 122.8258070
 145.7347410 131.8025140 123.7343300 146.5487570 132.5018880 122.6665590
 149.4720460 134.7006820 107.9861580 149.8936880 134.5346690 108.8292970
 149.5971300 133.8907050 107.4916720 147.6347880 130.6803370 120.7932560
 147.1044340 130.1894320 120.1655900 148.3035950 131.1087570 120.2590490
 151.9848100 133.7244430 105.2338680 152.5053760 133.0093450 104.8679830
 152.6316500 134.3630300 105.5339190 148.1220180 127.6465740 120.8729850
 148.0277050 127.0286490 120.1480720 147.5417570 128.3732030 120.6459760
 150.8881620 126.2038980 117.9057240 150.4398920 126.2263240 117.0602790
 150.2546820 125.8058000 118.5027540 151.2941170 135.0993310 118.5269680
 151.7129280 135.9426040 118.3545920 150.3749800 135.2365350 118.2976460
 148.3679360 130.7740050 104.9319740 148.1668420 129.9107410 105.2933080
 148.1971410 130.6873410 103.9941340 149.1448590 141.4046320 119.6427410
 148.6069680 142.1292380 119.3236110 149.3982550 140.9276660 118.8524750
 150.3973840 129.3730840 121.1683340 150.9873530 129.0646690 121.8561160
 149.5794080 128.9010590 121.3243240 147.1662160 127.8740670 104.9197620
 147.4688060 127.8808100 104.0116770 147.9056750 127.5238530 105.4165280
 152.0010800 142.6397530 119.9014060 151.9269500 143.5432670 120.2086430
 151.0989640 142.3209430 119.8736130 150.3847090 126.8175290 105.9053820
 150.0369090 126.1399280 105.3256270 150.5859860 126.3564800 106.7197210
 146.1892290 137.1783090 105.7527420 146.6267160 137.7212760 106.4085000
 146.6740020 136.3530040 105.7623760 143.4038090 139.9672120 113.2047680
 143.7341100 139.0993180 112.9726320 143.8329090 140.1730640 114.0352640
 148.0000010 138.2981130 110.8649650 147.6995550 138.1746100 111.7653560
 147.8937500 137.4389720 110.4565380 143.8928300 140.8342710 115.9429310
 143.4559290 141.0143510 116.7753460 144.4605980 141.5917330 115.8011030
 143.7252730 133.3462940 112.3018190 143.0701570 133.0774580 111.6577890
 144.5630680 133.2367420 111.8520170 144.7628660 133.7315510 116.8421530
 145.1301700 133.6442910 117.7217550 144.1939480 132.9682060 116.7428390
 144.3144660 130.6424600 120.7479950 143.4200710 130.6091360 121.0873660
 144.8542210 130.8411390 121.5131200 142.9390810 130.5561870 108.2443520
 142.0354890 130.8192070 108.0695180 143.4231430 130.8273040 107.4643480
 145.4818020 129.6127410 106.1537900 146.1909720 129.1910630 105.6685180
 144.7657960 129.6802640 105.5221250 145.1292180 125.6666740 105.1940550
 145.8520310 126.2075680 105.5121770 145.4016700 125.3930160 104.3182090
 144.8184370 124.9172930 115.0963170 145.4660560 124.3670310 114.6558330
 145.2386210 125.1716080 115.9178980 144.5716370 125.0728600 117.8388490
 144.2231190 125.5292420 118.6046670 144.2404070 124.1785730 117.9210920
 146.1780740 138.2448200 122.0041680 146.1350370 137.8741110 122.8856140
 146.3091750 139.1825770 122.1443500 149.8786770 139.8007790 117.6051400
 149.6378130 140.0682350 116.7181920 150.8189410 139.9713520 117.6602260
 145.2437010 124.6004800 121.1139260 145.7920000 124.4192850 120.3505370
 145.3092320 123.8098910 121.6495570 146.0168770 141.1910450 119.1239460
 145.4229090 141.0595150 119.8629500 146.0092610 140.3548590 118.6581560
 145.6481000 138.5568830 118.0747500 144.9215060 137.9374120 118.0073450
 145.7090150 138.9509440 117.2045580 149.2526100 140.7713830 114.8596910
 149.7691120 140.1601190 114.3345170 149.9023480 141.2742610 115.3507920
 151.9921600 141.6622320 115.6865890 152.2799410 141.4076620 114.8098900
 152.5044820 141.1099680 116.2771460 143.9311000 141.8743220 111.2844260
 143.7633040 141.2413900 111.9826150 143.0645510 142.0802620 110.9338450
 144.5539020 125.7060000 108.7876120 145.3118380 125.8188880 108.2140150
 144.0916190 126.5429200 108.7419550 151.0952830 127.8199270 111.7778430
 150.2827340 127.4456160 111.4374310 151.5994470 127.0644350 112.0799620
 145.5373700 140.5676450 108.7294400 145.0121320 140.9484480 108.0256360
 145.4618280 141.1927220 109.4504110 146.9264170 126.2324050 107.3278090
 147.4556930 125.4453850 107.1986040 147.5592490 126.9115240 107.5613620
 149.1202010 125.9699190 110.3823480 148.4904750 125.2686500 110.5493610
 148.5807150 126.7303320 110.1656640 149.2457570 125.2483170 122.8175970
 148.9641840 125.7516770 122.0536790 149.6277270 124.4504920 122.4518100
 148.1366670 142.5158830 107.6043650 148.8685490 142.2318110 107.0567540
 148.3960340 142.2772110 108.4943030 147.2981460 138.6323560 107.6089980
 146.6690340 139.1008660 108.1575810 147.4129290 137.7872780 108.0436170
 146.9015050 134.7728050  96.5176210 146.0699930 134.5176760  96.9172720
 147.5096030 134.8438820  97.2534130 146.8816310 138.8068140  96.7134230
 147.1844350 137.9165880  96.5344450 147.6259900 139.3638360  96.4856480
 145.3107000 129.7329940  90.3018600 144.4223700 130.0745910  90.1998480
 145.5948190 129.5330260  89.4099430 143.2740010 132.3335590  96.1858300
 143.8456120 131.5657790  96.1861940 143.2741550 132.6324350  95.2764910
 144.5164880 127.7419950  97.9727230 144.3367720 126.8445700  98.2529990
 144.1144960 128.2891820  98.6474180 147.4868390 128.3161440  91.3356980
 147.5935140 129.2165170  91.6425740 146.5760750 128.2679410  91.0451630
 145.1351550 130.2380450  96.5809570 145.8161660 130.5018820  97.1996970
 144.8199600 129.3981320  96.9147580 149.3276120 131.2847810  95.6682160
 149.8354340 131.7828780  96.3087180 149.8589360 130.5083010  95.4921520
 147.6112220 125.9246370  99.9345580 147.6130660 126.4418760  99.1291480
 146.7816530 125.4476550  99.9115510 148.8615070 135.5641550  98.1119080
 148.5284450 136.1910470  98.7540150 149.0381750 136.0903430  97.3320750
 147.2927550 127.6356330  97.9416030 147.6344360 128.4798380  97.6469900
 146.3543360 127.7840070  98.0581370 148.0734170 137.5322350  99.9268260
 148.6908170 138.2073430  99.6452710 147.2127290 137.9410330  99.8355760
 143.3666510 136.7222210  88.8075110 142.9894490 137.2109310  88.0760010
 143.6239580 137.3947490  89.4381640 150.9755440 125.1238600  94.2660620
 151.2830420 124.5685490  93.5496120 150.0456140 125.2583060  94.0833610
 148.9692840 133.7152170  93.7840470 148.5649840 133.0029420  93.2886370
 149.0555960 133.3705410  94.6728510 149.4374540 137.4019730  95.9479680
 149.1402830 136.7965200  95.2687460 150.3874360 137.4397040  95.8369040
 147.6821460 130.4895380  97.5639510 148.2336050 130.5990720  96.7892760
 148.1964970 130.8632980  98.2794740 148.5292970 137.1401420 102.5987480
 147.6321500 137.3641390 102.8460880 148.5545840 137.2636360 101.6498880
 147.3564190 134.0114740 101.1744850 147.2171960 134.8837540 101.5432250
 146.4745550 133.6687550 101.0292790 149.1544540 139.9536440 103.3830000
 149.1259970 140.3579390 102.5158430 148.9909510 139.0246800 103.2201600
 145.6697470 132.6097150  91.2847120 145.5495070 133.3359240  90.6728390
 145.3598360 131.8400060  90.8075030 143.3082840 135.7812290  97.0915760
 143.3863260 135.9161060  96.1471480 143.9224520 135.0728180  97.2843880
 144.5530470 137.4812480  93.5021940 144.1458550 137.6227070  92.6475540
 145.4443480 137.1972640  93.2993150 148.8252130 141.6958260  91.6144610
 148.6494610 140.7793800  91.4012410 147.9707870 142.0545550  91.8542410
 143.3642360 136.8226460  99.6310220 143.5273400 136.3531820  98.8129590
 143.8294810 136.3150020 100.2959060 148.1361130 125.9532220  94.6670790
 147.6929280 126.7341760  94.3355310 148.6946120 126.2762110  95.3741730
 152.4230940 128.8200740 100.2706110 151.9610310 129.0283760 101.0826050
 152.0209050 128.0060090  99.9676780 151.2519950 125.5742920  89.5476620
 150.6274130 125.5702790  90.2729930 151.1650070 124.7073880  89.1512590
 150.1737030 126.4979550  96.5260390 150.4709360 127.4042380  96.4452410
 150.7222590 126.0098330  95.9119960 147.9275350 131.0765790  92.3952040
 147.7016270 130.8602960  93.2998660 147.1467880 131.5094250  92.0498010
 150.3674560 131.9751370 103.0612310 150.2718160 131.0346100 102.9112710
 151.2106540 132.1966440 102.6660380 145.4985100 128.3865040 101.2146090
 145.1048490 129.2340250 101.4218870 144.8103500 127.7491410 101.4054730
 142.8002150 126.3093500  95.2476170 142.5115200 126.8796360  95.9601150
 143.5447910 125.8297950  95.6107400 142.9872380 130.2513620  86.4578890
 142.9047050 131.1944380  86.5993880 142.6355440 130.1088530  85.5791240
 150.7870510 128.9852650  95.5249240 150.7906570 128.5442600  94.6753780
 151.6821630 129.3069980  95.6321060 146.6372890 128.8679140  94.4843450
 146.2972940 129.3454370  95.2410500 145.8750210 128.4144260  94.1244550
 150.8490660 129.9864730  88.5156000 150.9703480 129.9451210  89.4641820
 150.4639170 130.8488880  88.3602730 149.8612160 132.2965870  87.9139300
 149.2929060 131.8484120  87.2875210 150.5701160 132.6558650  87.3804450
 144.9381340 136.1977890 101.7906030 144.5536130 135.5571560 102.3888990
 145.2493530 136.9014010 102.3600760 151.0878480 133.0454430  97.2714650
 151.4548610 132.5713000  98.0175990 150.8983540 133.9196000  97.6122990
 143.9518970 127.7898120  93.4008120 143.6665890 127.4253790  94.2386740
 143.8897830 127.0578580  92.7871260 148.8777850 132.0863070  99.5898860
 148.5734920 132.9655050  99.8149220 149.8324310 132.1462860  99.6256300
 147.4059640 136.2924060  90.1865710 146.6321900 135.7521680  90.0264430
 148.1354270 135.7730670  89.8483470 147.4497040 135.9604440  93.8244520
 147.9675710 135.1572700  93.7701410 146.9981060 135.8983580  94.6661350
 144.9341580 132.9265810 100.7370220 144.5756520 133.5919660 101.3243560
 144.6396140 132.0949360 101.1082840 148.1354700 133.3850050 103.6209770
 147.8354840 133.5307230 102.7237590 148.9065940 132.8255340 103.5283160
 151.3057230 137.3084250  91.8687740 151.9928360 137.8553460  92.2495330
 150.5189650 137.8524980  91.9037350 143.4449630 132.9257070  87.3604820
 144.3144480 133.2081870  87.6440740 142.9539950 133.7392940  87.2453630
 150.6084440 134.3130280  91.4813100 151.0647220 135.1235530  91.7073290
 150.2572650 133.9953420  92.3131590 146.5096220 124.6567930  91.9535620
 146.3810850 124.6485830  92.9020540 145.6858240 124.9951020  91.6026630
 143.8120880 142.1384450  87.9266450 144.1718520 142.7373790  87.2723720
 143.6713220 142.6844340  88.7001480 143.5090150 126.4159050 101.4142320
 142.7948670 126.6155970 102.0194930 143.9285190 125.6398620 101.7857120
 143.7962740 140.4039310 102.4008850 143.9053860 139.4634050 102.2604240
 143.1443300 140.6694060 101.7522580 151.7875330 138.6755200 103.8006970
 151.4672200 137.9564440 104.3452660 151.1133690 139.3510270 103.8743030
 149.8289500 139.5215650  88.7440120 149.8199600 140.2545340  88.1284630
 148.9087860 139.2747230  88.8367080 145.4296140 134.7430540  89.4886880
 144.8224090 135.4829440  89.4982180 145.9045490 134.8329900  88.6625080
 150.3374990 130.1424250  91.3889210 149.6291140 130.6110590  91.8302820
 150.6219470 129.4846260  92.0234400 151.9630920 131.5620950  99.3881740
 152.4616170 132.0366770 100.0533590 152.1053870 130.6384470  99.5951770
 151.4567210 142.1030210  92.1012980 151.7108710 142.0651600  91.1792350
 150.5079690 141.9763540  92.0941230 148.5410010 128.4509330  88.7639920
 149.3900540 128.8879480  88.6980110 148.1741280 128.7629590  89.5911980
 147.4401430 134.7041690  87.2375450 148.2064700 134.5923050  87.8000880
 147.5176120 134.0079660  86.5852220 146.1348190 132.1366760  87.9208340
 146.2151780 131.1894270  88.0325740 147.0267940 132.4673640  88.0269000
 146.9362900 142.2862150  95.0242880 147.6725380 141.7377610  95.2951450
 147.3203820 143.1518160  94.8848870 143.8208380 138.3535720  90.8984390
 142.8948160 138.5956860  90.8889800 144.2864810 139.1809980  90.7769140
 145.9421180 141.4708220 104.2128460 146.7433910 141.7920270 104.6263860
 145.4273000 141.1103800 104.9348370 150.0465210 141.4592460  86.8468450
 150.8393820 141.7481290  86.3950240 149.5269560 141.0284630  86.1680930
 143.6618990 133.9581680 103.1564510 144.1658010 133.3788960 103.7280740
 142.9226410 134.2421910 103.6940880 150.5642610 136.6795870  86.7110800
 150.4593250 136.0648220  87.4372180 150.3966830 136.1561760  85.9273810
 150.7156930 135.3652670 102.6900030 149.9502600 135.9337670 102.6054700
 150.8972890 135.0728880 101.7968260 145.6942070 132.1011270 104.0514580
 145.7347410 131.8025140 104.9599810 146.5487570 132.5018880 103.8922100
 149.4720460 134.7006820  89.2118090 149.8936880 134.5346690  90.0549480
 149.5971300 133.8907050  88.7173230 147.6347880 130.6803370 102.0189070
 147.1044340 130.1894320 101.3912410 148.3035950 131.1087570 101.4847000
 151.9848100 133.7244430  86.4595190 152.5053760 133.0093450  86.0936340
 152.6316500 134.3630300  86.7595700 148.1220180 127.6465740 102.0986360
 148.0277050 127.0286490 101.3737230 147.5417570 128.3732030 101.8716270
 150.8881620 126.2038980  99.1313750 150.4398920 126.2263240  98.2859300
 150.2546820 125.8058000  99.7284050 151.2941170 135.0993310  99.7526190
 151.7129280 135.9426040  99.5802430 150.3749800 135.2365350  99.5232970
 148.3679360 130.7740050  86.1576250 148.1668420 129.9107410  86.5189590
 148.1971410 130.6873410  85.2197850 149.1448590 141.4046320 100.8683920
 148.6069680 142.1292380 100.5492620 149.3982550 140.9276660 100.0781260
 150.3973840 129.3730840 102.3939850 150.9873530 129.0646690 103.0817670
 149.5794080 128.9010590 102.5499750 147.1662160 127.8740670  86.1454130
 147.4688060 127.8808100  85.2373280 147.9056750 127.5238530  86.6421790
 152.0010800 142.6397530 101.1270570 151.9269500 143.5432670 101.4342940
 151.0989640 142.3209430 101.0992640 150.3847090 126.8175290  87.1310330
 150.0369090 126.1399280  86.5512780 150.5859860 126.3564800  87.9453720
 146.1892290 137.1783090  86.9783930 146.6267160 137.7212760  87.6341510
 146.6740020 136.3530040  86.9880270 143.4038090 139.9672120  94.4304190
 143.7341100 139.0993180  94.1982830 143.8329090 140.1730640  95.2609150
 148.0000010 138.2981130  92.0906160 147.6995550 138.1746100  92.9910070
 147.8937500 137.4389720  91.6821890 143.8928300 140.8342710  97.1685820
 143.4559290 141.0143510  98.0009970 144.4605980 141.5917330  97.0267540
 143.7252730 133.3462940  93.5274700 143.0701570 133.0774580  92.8834400
 144.5630680 133.2367420  93.0776680 144.7628660 133.7315510  98.0678040
 145.1301700 133.6442910  98.9474060 144.1939480 132.9682060  97.9684900
 144.3144660 130.6424600 101.9736460 143.4200710 130.6091360 102.3130170
 144.8542210 130.8411390 102.7387710 142.9390810 130.5561870  89.4700030
 142.0354890 130.8192070  89.2951690 143.4231430 130.8273040  88.6899990
 145.4818020 129.6127410  87.3794410 146.1909720 129.1910630  86.8941690
 144.7657960 129.6802640  86.7477760 145.1292180 125.6666740  86.4197060
 145.8520310 126.2075680  86.7378280 145.4016700 125.3930160  85.5438600
 144.8184370 124.9172930  96.3219680 145.4660560 124.3670310  95.8814840
 145.2386210 125.1716080  97.1435490 144.5716370 125.0728600  99.0645000
 144.2231190 125.5292420  99.8303180 144.2404070 124.1785730  99.1467430
 146.1780740 138.2448200 103.2298190 146.1350370 137.8741110 104.1112650
 146.3091750 139.1825770 103.3700010 149.8786770 139.8007790  98.8307910
 149.6378130 140.0682350  97.9438430 150.8189410 139.9713520  98.8858770
 145.2437010 124.6004800 102.3395770 145.7920000 124.4192850 101.5761880
 145.3092320 123.8098910 102.8752080 146.0168770 141.1910450 100.3495970
 145.4229090 141.0595150 101.0886010 146.0092610 140.3548590  99.8838070
 145.6481000 138.5568830  99.3004010 144.9215060 137.9374120  99.2329960
 145.7090150 138.9509440  98.4302090 149.2526100 140.7713830  96.0853420
 149.7691120 140.1601190  95.5601680 149.9023480 141.2742610  96.5764430
 151.9921600 141.6622320  96.9122400 152.2799410 141.4076620  96.0355410
 152.5044820 141.1099680  97.5027970 143.9311000 141.8743220  92.5100770
 143.7633040 141.2413900  93.2082660 143.0645510 142.0802620  92.1594960
 144.5539020 125.7060000  90.0132630 145.3118380 125.8188880  89.4396660
 144.0916190 126.5429200  89.9676060 151.0952830 127.8199270  93.0034940
 150.2827340 127.4456160  92.6630820 151.5994470 127.0644350  93.3056130
 145.5373700 140.5676450  89.9550910 145.0121320 140.9484480  89.2512870
 145.4618280 141.1927220  90.6760620 146.9264170 126.2324050  88.5534600
 147.4556930 125.4453850  88.4242550 147.5592490 126.9115240  88.7870130
 149.1202010 125.9699190  91.6079990 148.4904750 125.2686500  91.7750120
 148.5807150 126.7303320  91.3913150 149.2457570 125.2483170 104.0432480
 148.9641840 125.7516770 103.2793300 149.6277270 124.4504920 103.6774610
 148.1366670 142.5158830  88.8300160 148.8685490 142.2318110  88.2824050
 148.3960340 142.2772110  89.7199540 147.2981460 138.6323560  88.8346490
 146.6690340 139.1008660  89.3832320 147.4129290 137.7872780  89.2692680
 146.9015050 134.7728050  77.7432720 146.0699930 134.5176760  78.1429230
 147.5096030 134.8438820  78.4790640 146.8816310 138.8068140  77.9390740
 147.1844350 137.9165880  77.7600960 147.6259900 139.3638360  77.7112990
 145.3107000 129.7329940  71.5275110 144.4223700 130.0745910  71.4254990
 145.5948190 129.5330260  70.6355940 143.2740010 132.3335590  77.4114810
 143.8456120 131.5657790  77.4118450 143.2741550 132.6324350  76.5021420
 144.5164880 127.7419950  79.1983740 144.3367720 126.8445700  79.4786500
 144.1144960 128.2891820  79.8730690 147.4868390 128.3161440  72.5613490
 147.5935140 129.2165170  72.8682250 146.5760750 128.2679410  72.2708140
 145.1351550 130.2380450  77.8066080 145.8161660 130.5018820  78.4253480
 144.8199600 129.3981320  78.1404090 149.3276120 131.2847810  76.8938670
 149.8354340 131.7828780  77.5343690 149.8589360 130.5083010  76.7178030
 147.6112220 125.9246370  81.1602090 147.6130660 126.4418760  80.3547990
 146.7816530 125.4476550  81.1372020 148.8615070 135.5641550  79.3375590
 148.5284450 136.1910470  79.9796660 149.0381750 136.0903430  78.5577260
 147.2927550 127.6356330  79.1672540 147.6344360 128.4798380  78.8726410
 146.3543360 127.7840070  79.2837880 148.0734170 137.5322350  81.1524770
 148.6908170 138.2073430  80.8709220 147.2127290 137.9410330  81.0612270
 143.3666510 136.7222210  70.0331620 142.9894490 137.2109310  69.3016520
 143.6239580 137.3947490  70.6638150 150.9755440 125.1238600  75.4917130
 151.2830420 124.5685490  74.7752630 150.0456140 125.2583060  75.3090120
 148.9692840 133.7152170  75.0096980 148.5649840 133.0029420  74.5142880
 149.0555960 133.3705410  75.8985020 149.4374540 137.4019730  77.1736190
 149.1402830 136.7965200  76.4943970 150.3874360 137.4397040  77.0625550
 147.6821460 130.4895380  78.7896020 148.2336050 130.5990720  78.0149270
 148.1964970 130.8632980  79.5051250 148.5292970 137.1401420  83.8243990
 147.6321500 137.3641390  84.0717390 148.5545840 137.2636360  82.8755390
 147.3564190 134.0114740  82.4001360 147.2171960 134.8837540  82.7688760
 146.4745550 133.6687550  82.2549300 149.1544540 139.9536440  84.6086510
 149.1259970 140.3579390  83.7414940 148.9909510 139.0246800  84.4458110
 145.6697470 132.6097150  72.5103630 145.5495070 133.3359240  71.8984900
 145.3598360 131.8400060  72.0331540 143.3082840 135.7812290  78.3172270
 143.3863260 135.9161060  77.3727990 143.9224520 135.0728180  78.5100390
 144.5530470 137.4812480  74.7278450 144.1458550 137.6227070  73.8732050
 145.4443480 137.1972640  74.5249660 148.8252130 141.6958260  72.8401120
 148.6494610 140.7793800  72.6268920 147.9707870 142.0545550  73.0798920
 143.3642360 136.8226460  80.8566730 143.5273400 136.3531820  80.0386100
 143.8294810 136.3150020  81.5215570 148.1361130 125.9532220  75.8927300
 147.6929280 126.7341760  75.5611820 148.6946120 126.2762110  76.5998240
 152.4230940 128.8200740  81.4962620 151.9610310 129.0283760  82.3082560
 152.0209050 128.0060090  81.1933290 151.2519950 125.5742920  70.7733130
 150.6274130 125.5702790  71.4986440 151.1650070 124.7073880  70.3769100
 150.1737030 126.4979550  77.7516900 150.4709360 127.4042380  77.6708920
 150.7222590 126.0098330  77.1376470 147.9275350 131.0765790  73.6208550
 147.7016270 130.8602960  74.5255170 147.1467880 131.5094250  73.2754520
 150.3674560 131.9751370  84.2868820 150.2718160 131.0346100  84.1369220
 151.2106540 132.1966440  83.8916890 145.4985100 128.3865040  82.4402600
 145.1048490 129.2340250  82.6475380 144.8103500 127.7491410  82.6311240
 142.8002150 126.3093500  76.4732680 142.5115200 126.8796360  77.1857660
 143.5447910 125.8297950  76.8363910 142.9872380 130.2513620  67.6835400
 142.9047050 131.1944380  67.8250390 142.6355440 130.1088530  66.8047750
 150.7870510 128.9852650  76.7505750 150.7906570 128.5442600  75.9010290
 151.6821630 129.3069980  76.8577570 146.6372890 128.8679140  75.7099960
 146.2972940 129.3454370  76.4667010 145.8750210 128.4144260  75.3501060
 150.8490660 129.9864730  69.7412510 150.9703480 129.9451210  70.6898330
 150.4639170 130.8488880  69.5859240 149.8612160 132.2965870  69.1395810
 149.2929060 131.8484120  68.5131720 150.5701160 132.6558650  68.6060960
 144.9381340 136.1977890  83.0162540 144.5536130 135.5571560  83.6145500
 145.2493530 136.9014010  83.5857270 151.0878480 133.0454430  78.4971160
 151.4548610 132.5713000  79.2432500 150.8983540 133.9196000  78.8379500
 143.9518970 127.7898120  74.6264630 143.6665890 127.4253790  75.4643250
 143.8897830 127.0578580  74.0127770 148.8777850 132.0863070  80.8155370
 148.5734920 132.9655050  81.0405730 149.8324310 132.1462860  80.8512810
 147.4059640 136.2924060  71.4122220 146.6321900 135.7521680  71.2520940
 148.1354270 135.7730670  71.0739980 147.4497040 135.9604440  75.0501030
 147.9675710 135.1572700  74.9957920 146.9981060 135.8983580  75.8917860
 144.9341580 132.9265810  81.9626730 144.5756520 133.5919660  82.5500070
 144.6396140 132.0949360  82.3339350 148.1354700 133.3850050  84.8466280
 147.8354840 133.5307230  83.9494100 148.9065940 132.8255340  84.7539670
 151.3057230 137.3084250  73.0944250 151.9928360 137.8553460  73.4751840
 150.5189650 137.8524980  73.1293860 143.4449630 132.9257070  68.5861330
 144.3144480 133.2081870  68.8697250 142.9539950 133.7392940  68.4710140
 150.6084440 134.3130280  72.7069610 151.0647220 135.1235530  72.9329800
 150.2572650 133.9953420  73.5388100 146.5096220 124.6567930  73.1792130
 146.3810850 124.6485830  74.1277050 145.6858240 124.9951020  72.8283140
 143.8120880 142.1384450  69.1522960 144.1718520 142.7373790  68.4980230
 143.6713220 142.6844340  69.9257990 143.5090150 126.4159050  82.6398830
 142.7948670 126.6155970  83.2451440 143.9285190 125.6398620  83.0113630
 143.7962740 140.4039310  83.6265360 143.9053860 139.4634050  83.4860750
 143.1443300 140.6694060  82.9779090 151.7875330 138.6755200  85.0263480
 151.4672200 137.9564440  85.5709170 151.1133690 139.3510270  85.0999540
 149.8289500 139.5215650  69.9696630 149.8199600 140.2545340  69.3541140
 148.9087860 139.2747230  70.0623590 145.4296140 134.7430540  70.7143390
 144.8224090 135.4829440  70.7238690 145.9045490 134.8329900  69.8881590
 150.3374990 130.1424250  72.6145720 149.6291140 130.6110590  73.0559330
 150.6219470 129.4846260  73.2490910 151.9630920 131.5620950  80.6138250
 152.4616170 132.0366770  81.2790100 152.1053870 130.6384470  80.8208280
 151.4567210 142.1030210  73.3269490 151.7108710 142.0651600  72.4048860
 150.5079690 141.9763540  73.3197740 148.5410010 128.4509330  69.9896430
 149.3900540 128.8879480  69.9236620 148.1741280 128.7629590  70.8168490
 147.4401430 134.7041690  68.4631960 148.2064700 134.5923050  69.0257390
 147.5176120 134.0079660  67.8108730 146.1348190 132.1366760  69.1464850
 146.2151780 131.1894270  69.2582250 147.0267940 132.4673640  69.2525510
 146.9362900 142.2862150  76.2499390 147.6725380 141.7377610  76.5207960
 147.3203820 143.1518160  76.1105380 143.8208380 138.3535720  72.1240900
 142.8948160 138.5956860  72.1146310 144.2864810 139.1809980  72.0025650
 145.9421180 141.4708220  85.4384970 146.7433910 141.7920270  85.8520370
 145.4273000 141.1103800  86.1604880 150.0465210 141.4592460  68.0724960
 150.8393820 141.7481290  67.6206750 149.5269560 141.0284630  67.3937440
 143.6618990 133.9581680  84.3821020 144.1658010 133.3788960  84.9537250
 142.9226410 134.2421910  84.9197390 150.5642610 136.6795870  67.9367310
 150.4593250 136.0648220  68.6628690 150.3966830 136.1561760  67.1530320
 150.7156930 135.3652670  83.9156540 149.9502600 135.9337670  83.8311210
 150.8972890 135.0728880  83.0224770 145.6942070 132.1011270  85.2771090
 145.7347410 131.8025140  86.1856320 146.5487570 132.5018880  85.1178610
 149.4720460 134.7006820  70.4374600 149.8936880 134.5346690  71.2805990
 149.5971300 133.8907050  69.9429740 147.6347880 130.6803370  83.2445580
 147.1044340 130.1894320  82.6168920 148.3035950 131.1087570  82.7103510
 151.9848100 133.7244430  67.6851700 152.5053760 133.0093450  67.3192850
 152.6316500 134.3630300  67.9852210 148.1220180 127.6465740  83.3242870
 148.0277050 127.0286490  82.5993740 147.5417570 128.3732030  83.0972780
 150.8881620 126.2038980  80.3570260 150.4398920 126.2263240  79.5115810
 150.2546820 125.8058000  80.9540560 151.2941170 135.0993310  80.9782700
 151.7129280 135.9426040  80.8058940 150.3749800 135.2365350  80.7489480
 148.3679360 130.7740050  67.3832760 148.1668420 129.9107410  67.7446100
 148.1971410 130.6873410  66.4454360 149.1448590 141.4046320  82.0940430
 148.6069680 142.1292380  81.7749130 149.3982550 140.9276660  81.3037770
 150.3973840 129.3730840  83.6196360 150.9873530 129.0646690  84.3074180
 149.5794080 128.9010590  83.7756260 147.1662160 127.8740670  67.3710640
 147.4688060 127.8808100  66.4629790 147.9056750 127.5238530  67.8678300
 152.0010800 142.6397530  82.3527080 151.9269500 143.5432670  82.6599450
 151.0989640 142.3209430  82.3249150 150.3847090 126.8175290  68.3566840
 150.0369090 126.1399280  67.7769290 150.5859860 126.3564800  69.1710230
 146.1892290 137.1783090  68.2040440 146.6267160 137.7212760  68.8598020
 146.6740020 136.3530040  68.2136780 143.4038090 139.9672120  75.6560700
 143.7341100 139.0993180  75.4239340 143.8329090 140.1730640  76.4865660
 148.0000010 138.2981130  73.3162670 147.6995550 138.1746100  74.2166580
 147.8937500 137.4389720  72.9078400 143.8928300 140.8342710  78.3942330
 143.4559290 141.0143510  79.2266480 144.4605980 141.5917330  78.2524050
 143.7252730 133.3462940  74.7531210 143.0701570 133.0774580  74.1090910
 144.5630680 133.2367420  74.3033190 144.7628660 133.7315510  79.2934550
 145.1301700 133.6442910  80.1730570 144.1939480 132.9682060  79.1941410
 144.3144660 130.6424600  83.1992970 143.4200710 130.6091360  83.5386680
 144.8542210 130.8411390  83.9644220 142.9390810 130.5561870  70.6956540
 142.0354890 130.8192070  70.5208200 143.4231430 130.8273040  69.9156500
 145.4818020 129.6127410  68.6050920 146.1909720 129.1910630  68.1198200
 144.7657960 129.6802640  67.9734270 145.1292180 125.6666740  67.6453570
 145.8520310 126.2075680  67.9634790 145.4016700 125.3930160  66.7695110
 144.8184370 124.9172930  77.5476190 145.4660560 124.3670310  77.1071350
 145.2386210 125.1716080  78.3692000 144.5716370 125.0728600  80.2901510
 144.2231190 125.5292420  81.0559690 144.2404070 124.1785730  80.3723940
 146.1780740 138.2448200  84.4554700 146.1350370 137.8741110  85.3369160
 146.3091750 139.1825770  84.5956520 149.8786770 139.8007790  80.0564420
 149.6378130 140.0682350  79.1694940 150.8189410 139.9713520  80.1115280
 145.2437010 124.6004800  83.5652280 145.7920000 124.4192850  82.8018390
 145.3092320 123.8098910  84.1008590 146.0168770 141.1910450  81.5752480
 145.4229090 141.0595150  82.3142520 146.0092610 140.3548590  81.1094580
 145.6481000 138.5568830  80.5260520 144.9215060 137.9374120  80.4586470
 145.7090150 138.9509440  79.6558600 149.2526100 140.7713830  77.3109930
 149.7691120 140.1601190  76.7858190 149.9023480 141.2742610  77.8020940
 151.9921600 141.6622320  78.1378910 152.2799410 141.4076620  77.2611920
 152.5044820 141.1099680  78.7284480 143.9311000 141.8743220  73.7357280
 143.7633040 141.2413900  74.4339170 143.0645510 142.0802620  73.3851470
 144.5539020 125.7060000  71.2389140 145.3118380 125.8188880  70.6653170
 144.0916190 126.5429200  71.1932570 151.0952830 127.8199270  74.2291450
 150.2827340 127.4456160  73.8887330 151.5994470 127.0644350  74.5312640
 145.5373700 140.5676450  71.1807420 145.0121320 140.9484480  70.4769380
 145.4618280 141.1927220  71.9017130 146.9264170 126.2324050  69.7791110
 147.4556930 125.4453850  69.6499060 147.5592490 126.9115240  70.0126640
 149.1202010 125.9699190  72.8336500 148.4904750 125.2686500  73.0006630
 148.5807150 126.7303320  72.6169660 149.2457570 125.2483170  85.2688990
 148.9641840 125.7516770  84.5049810 149.6277270 124.4504920  84.9031120
 148.1366670 142.5158830  70.0556670 148.8685490 142.2318110  69.5080560
 148.3960340 142.2772110  70.9456050 147.2981460 138.6323560  70.0603000
 146.6690340 139.1008660  70.6088830 147.4129290 137.7872780  70.4949190
 146.9015050 134.7728050  58.9689230 146.0699930 134.5176760  59.3685740
 147.5096030 134.8438820  59.7047150 146.8816310 138.8068140  59.1647250
 147.1844350 137.9165880  58.9857470 147.6259900 139.3638360  58.9369500
 145.3107000 129.7329940  52.7531620 144.4223700 130.0745910  52.6511500
 145.5948190 129.5330260  51.8612450 143.2740010 132.3335590  58.6371320
 143.8456120 131.5657790  58.6374960 143.2741550 132.6324350  57.7277930
 144.5164880 127.7419950  60.4240250 144.3367720 126.8445700  60.7043010
 144.1144960 128.2891820  61.0987200 147.4868390 128.3161440  53.7870000
 147.5935140 129.2165170  54.0938760 146.5760750 128.2679410  53.4964650
 145.1351550 130.2380450  59.0322590 145.8161660 130.5018820  59.6509990
 144.8199600 129.3981320  59.3660600 149.3276120 131.2847810  58.1195180
 149.8354340 131.7828780  58.7600200 149.8589360 130.5083010  57.9434540
 147.6112220 125.9246370  62.3858600 147.6130660 126.4418760  61.5804500
 146.7816530 125.4476550  62.3628530 148.8615070 135.5641550  60.5632100
 148.5284450 136.1910470  61.2053170 149.0381750 136.0903430  59.7833770
 147.2927550 127.6356330  60.3929050 147.6344360 128.4798380  60.0982920
 146.3543360 127.7840070  60.5094390 148.0734170 137.5322350  62.3781280
 148.6908170 138.2073430  62.0965730 147.2127290 137.9410330  62.2868780
 143.3666510 136.7222210  51.2588130 142.9894490 137.2109310  50.5273030
 143.6239580 137.3947490  51.8894660 150.9755440 125.1238600  56.7173640
 151.2830420 124.5685490  56.0009140 150.0456140 125.2583060  56.5346630
 148.9692840 133.7152170  56.2353490 148.5649840 133.0029420  55.7399390
 149.0555960 133.3705410  57.1241530 149.4374540 137.4019730  58.3992700
 149.1402830 136.7965200  57.7200480 150.3874360 137.4397040  58.2882060
 147.6821460 130.4895380  60.0152530 148.2336050 130.5990720  59.2405780
 148.1964970 130.8632980  60.7307760 148.5292970 137.1401420  65.0500500
 147.6321500 137.3641390  65.2973900 148.5545840 137.2636360  64.1011900
 147.3564190 134.0114740  63.6257870 147.2171960 134.8837540  63.9945270
 146.4745550 133.6687550  63.4805810 149.1544540 139.9536440  65.8343020
 149.1259970 140.3579390  64.9671450 148.9909510 139.0246800  65.6714620
 145.6697470 132.6097150  53.7360140 145.5495070 133.3359240  53.1241410
 145.3598360 131.8400060  53.2588050 143.3082840 135.7812290  59.5428780
 143.3863260 135.9161060  58.5984500 143.9224520 135.0728180  59.7356900
 144.5530470 137.4812480  55.9534960 144.1458550 137.6227070  55.0988560
 145.4443480 137.1972640  55.7506170 148.8252130 141.6958260  54.0657630
 148.6494610 140.7793800  53.8525430 147.9707870 142.0545550  54.3055430
 143.3642360 136.8226460  62.0823240 143.5273400 136.3531820  61.2642610
 143.8294810 136.3150020  62.7472080 148.1361130 125.9532220  57.1183810
 147.6929280 126.7341760  56.7868330 148.6946120 126.2762110  57.8254750
 152.4230940 128.8200740  62.7219130 151.9610310 129.0283760  63.5339070
 152.0209050 128.0060090  62.4189800 151.2519950 125.5742920  51.9989640
 150.6274130 125.5702790  52.7242950 151.1650070 124.7073880  51.6025610
 150.1737030 126.4979550  58.9773410 150.4709360 127.4042380  58.8965430
 150.7222590 126.0098330  58.3632980 147.9275350 131.0765790  54.8465060
 147.7016270 130.8602960  55.7511680 147.1467880 131.5094250  54.5011030
 150.3674560 131.9751370  65.5125330 150.2718160 131.0346100  65.3625730
 151.2106540 132.1966440  65.1173400 145.4985100 128.3865040  63.6659110
 145.1048490 129.2340250  63.8731890 144.8103500 127.7491410  63.8567750
 142.8002150 126.3093500  57.6989190 142.5115200 126.8796360  58.4114170
 143.5447910 125.8297950  58.0620420 142.9872380 130.2513620  48.9091910
 142.9047050 131.1944380  49.0506900 142.6355440 130.1088530  48.0304260
 150.7870510 128.9852650  57.9762260 150.7906570 128.5442600  57.1266800
 151.6821630 129.3069980  58.0834080 146.6372890 128.8679140  56.9356470
 146.2972940 129.3454370  57.6923520 145.8750210 128.4144260  56.5757570
 150.8490660 129.9864730  50.9669020 150.9703480 129.9451210  51.9154840
 150.4639170 130.8488880  50.8115750 149.8612160 132.2965870  50.3652320
 149.2929060 131.8484120  49.7388230 150.5701160 132.6558650  49.8317470
 144.9381340 136.1977890  64.2419050 144.5536130 135.5571560  64.8402010
 145.2493530 136.9014010  64.8113780 151.0878480 133.0454430  59.7227670
 151.4548610 132.5713000  60.4689010 150.8983540 133.9196000  60.0636010
 143.9518970 127.7898120  55.8521140 143.6665890 127.4253790  56.6899760
 143.8897830 127.0578580  55.2384280 148.8777850 132.0863070  62.0411880
 148.5734920 132.9655050  62.2662240 149.8324310 132.1462860  62.0769320
 147.4059640 136.2924060  52.6378730 146.6321900 135.7521680  52.4777450
 148.1354270 135.7730670  52.2996490 147.4497040 135.9604440  56.2757540
 147.9675710 135.1572700  56.2214430 146.9981060 135.8983580  57.1174370
 144.9341580 132.9265810  63.1883240 144.5756520 133.5919660  63.7756580
 144.6396140 132.0949360  63.5595860 148.1354700 133.3850050  66.0722790
 147.8354840 133.5307230  65.1750610 148.9065940 132.8255340  65.9796180
 151.3057230 137.3084250  54.3200760 151.9928360 137.8553460  54.7008350
 150.5189650 137.8524980  54.3550370 143.4449630 132.9257070  49.8117840
 144.3144480 133.2081870  50.0953760 142.9539950 133.7392940  49.6966650
 150.6084440 134.3130280  53.9326120 151.0647220 135.1235530  54.1586310
 150.2572650 133.9953420  54.7644610 146.5096220 124.6567930  54.4048640
 146.3810850 124.6485830  55.3533560 145.6858240 124.9951020  54.0539650
 143.8120880 142.1384450  50.3779470 144.1718520 142.7373790  49.7236740
 143.6713220 142.6844340  51.1514500 143.5090150 126.4159050  63.8655340
 142.7948670 126.6155970  64.4707950 143.9285190 125.6398620  64.2370140
 143.7962740 140.4039310  64.8521870 143.9053860 139.4634050  64.7117260
 143.1443300 140.6694060  64.2035600 151.7875330 138.6755200  66.2519990
 151.4672200 137.9564440  66.7965680 151.1133690 139.3510270  66.3256050
 149.8289500 139.5215650  51.1953140 149.8199600 140.2545340  50.5797650
 148.9087860 139.2747230  51.2880100 145.4296140 134.7430540  51.9399900
 144.8224090 135.4829440  51.9495200 145.9045490 134.8329900  51.1138100
 150.3374990 130.1424250  53.8402230 149.6291140 130.6110590  54.2815840
 150.6219470 129.4846260  54.4747420 151.9630920 131.5620950  61.8394760
 152.4616170 132.0366770  62.5046610 152.1053870 130.6384470  62.0464790
 151.4567210 142.1030210  54.5526000 151.7108710 142.0651600  53.6305370
 150.5079690 141.9763540  54.5454250 148.5410010 128.4509330  51.2152940
 149.3900540 128.8879480  51.1493130 148.1741280 128.7629590  52.0425000
 147.4401430 134.7041690  49.6888470 148.2064700 134.5923050  50.2513900
 147.5176120 134.0079660  49.0365240 146.1348190 132.1366760  50.3721360
 146.2151780 131.1894270  50.4838760 147.0267940 132.4673640  50.4782020
 146.9362900 142.2862150  57.4755900 147.6725380 141.7377610  57.7464470
 147.3203820 143.1518160  57.3361890 143.8208380 138.3535720  53.3497410
 142.8948160 138.5956860  53.3402820 144.2864810 139.1809980  53.2282160
 145.9421180 141.4708220  66.6641480 146.7433910 141.7920270  67.0776880
 145.4273000 141.1103800  67.3861390 150.0465210 141.4592460  49.2981470
 150.8393820 141.7481290  48.8463260 149.5269560 141.0284630  48.6193950
 143.6618990 133.9581680  65.6077530 144.1658010 133.3788960  66.1793760
 142.9226410 134.2421910  66.1453900 150.5642610 136.6795870  49.1623820
 150.4593250 136.0648220  49.8885200 150.3966830 136.1561760  48.3786830
 150.7156930 135.3652670  65.1413050 149.9502600 135.9337670  65.0567720
 150.8972890 135.0728880  64.2481280 145.6942070 132.1011270  66.5027600
 145.7347410 131.8025140  67.4112830 146.5487570 132.5018880  66.3435120
 149.4720460 134.7006820  51.6631110 149.8936880 134.5346690  52.5062500
 149.5971300 133.8907050  51.1686250 147.6347880 130.6803370  64.4702090
 147.1044340 130.1894320  63.8425430 148.3035950 131.1087570  63.9360020
 151.9848100 133.7244430  48.9108210 152.5053760 133.0093450  48.5449360
 152.6316500 134.3630300  49.2108720 148.1220180 127.6465740  64.5499380
 148.0277050 127.0286490  63.8250250 147.5417570 128.3732030  64.3229290
 150.8881620 126.2038980  61.5826770 150.4398920 126.2263240  60.7372320
 150.2546820 125.8058000  62.1797070 151.2941170 135.0993310  62.2039210
 151.7129280 135.9426040  62.0315450 150.3749800 135.2365350  61.9745990
 148.3679360 130.7740050  48.6089270 148.1668420 129.9107410  48.9702610
 148.1971410 130.6873410  47.6710870 149.1448590 141.4046320  63.3196940
 148.6069680 142.1292380  63.0005640 149.3982550 140.9276660  62.5294280
 150.3973840 129.3730840  64.8452870 150.9873530 129.0646690  65.5330690
 149.5794080 128.9010590  65.0012770 147.1662160 127.8740670  48.5967150
 147.4688060 127.8808100  47.6886300 147.9056750 127.5238530  49.0934810
 152.0010800 142.6397530  63.5783590 151.9269500 143.5432670  63.8855960
 151.0989640 142.3209430  63.5505660 150.3847090 126.8175290  49.5823350
 150.0369090 126.1399280  49.0025800 150.5859860 126.3564800  50.3966740
 146.1892290 137.1783090  49.4296950 146.6267160 137.7212760  50.0854530
 146.6740020 136.3530040  49.4393290 143.4038090 139.9672120  56.8817210
 143.7341100 139.0993180  56.6495850 143.8329090 140.1730640  57.7122170
 148.0000010 138.2981130  54.5419180 147.6995550 138.1746100  55.4423090
 147.8937500 137.4389720  54.1334910 143.8928300 140.8342710  59.6198840
 143.4559290 141.0143510  60.4522990 144.4605980 141.5917330  59.4780560
 143.7252730 133.3462940  55.9787720 143.0701570 133.0774580  55.3347420
 144.5630680 133.2367420  55.5289700 144.7628660 133.7315510  60.5191060
 145.1301700 133.6442910  61.3987080 144.1939480 132.9682060  60.4197920
 144.3144660 130.6424600  64.4249480 143.4200710 130.6091360  64.7643190
 144.8542210 130.8411390  65.1900730 142.9390810 130.5561870  51.9213050
 142.0354890 130.8192070  51.7464710 143.4231430 130.8273040  51.1413010
 145.4818020 129.6127410  49.8307430 146.1909720 129.1910630  49.3454710
 144.7657960 129.6802640  49.1990780 145.1292180 125.6666740  48.8710080
 145.8520310 126.2075680  49.1891300 145.4016700 125.3930160  47.9951620
 144.8184370 124.9172930  58.7732700 145.4660560 124.3670310  58.3327860
 145.2386210 125.1716080  59.5948510 144.5716370 125.0728600  61.5158020
 144.2231190 125.5292420  62.2816200 144.2404070 124.1785730  61.5980450
 146.1780740 138.2448200  65.6811210 146.1350370 137.8741110  66.5625670
 146.3091750 139.1825770  65.8213030 149.8786770 139.8007790  61.2820930
 149.6378130 140.0682350  60.3951450 150.8189410 139.9713520  61.3371790
 145.2437010 124.6004800  64.7908790 145.7920000 124.4192850  64.0274900
 145.3092320 123.8098910  65.3265100 146.0168770 141.1910450  62.8008990
 145.4229090 141.0595150  63.5399030 146.0092610 140.3548590  62.3351090
 145.6481000 138.5568830  61.7517030 144.9215060 137.9374120  61.6842980
 145.7090150 138.9509440  60.8815110 149.2526100 140.7713830  58.5366440
 149.7691120 140.1601190  58.0114700 149.9023480 141.2742610  59.0277450
 151.9921600 141.6622320  59.3635420 152.2799410 141.4076620  58.4868430
 152.5044820 141.1099680  59.9540990 143.9311000 141.8743220  54.9613790
 143.7633040 141.2413900  55.6595680 143.0645510 142.0802620  54.6107980
 144.5539020 125.7060000  52.4645650 145.3118380 125.8188880  51.8909680
 144.0916190 126.5429200  52.4189080 151.0952830 127.8199270  55.4547960
 150.2827340 127.4456160  55.1143840 151.5994470 127.0644350  55.7569150
 145.5373700 140.5676450  52.4063930 145.0121320 140.9484480  51.7025890
 145.4618280 141.1927220  53.1273640 146.9264170 126.2324050  51.0047620
 147.4556930 125.4453850  50.8755570 147.5592490 126.9115240  51.2383150
 149.1202010 125.9699190  54.0593010 148.4904750 125.2686500  54.2263140
 148.5807150 126.7303320  53.8426170 149.2457570 125.2483170  66.4945500
 148.9641840 125.7516770  65.7306320 149.6277270 124.4504920  66.1287630
 148.1366670 142.5158830  51.2813180 148.8685490 142.2318110  50.7337070
 148.3960340 142.2772110  52.1712560 147.2981460 138.6323560  51.2859510
 146.6690340 139.1008660  51.8345340 147.4129290 137.7872780  51.7205700
 146.9015050 134.7728050  40.1945740 146.0699930 134.5176760  40.5942250
 147.5096030 134.8438820  40.9303660 146.8816310 138.8068140  40.3903760
 147.1844350 137.9165880  40.2113980 147.6259900 139.3638360  40.1626010
 145.3107000 129.7329940  33.9788130 144.4223700 130.0745910  33.8768010
 145.5948190 129.5330260  33.0868960 143.2740010 132.3335590  39.8627830
 143.8456120 131.5657790  39.8631470 143.2741550 132.6324350  38.9534440
 144.5164880 127.7419950  41.6496760 144.3367720 126.8445700  41.9299520
 144.1144960 128.2891820  42.3243710 147.4868390 128.3161440  35.0126510
 147.5935140 129.2165170  35.3195270 146.5760750 128.2679410  34.7221160
 145.1351550 130.2380450  40.2579100 145.8161660 130.5018820  40.8766500
 144.8199600 129.3981320  40.5917110 149.3276120 131.2847810  39.3451690
 149.8354340 131.7828780  39.9856710 149.8589360 130.5083010  39.1691050
 147.6112220 125.9246370  43.6115110 147.6130660 126.4418760  42.8061010
 146.7816530 125.4476550  43.5885040 148.8615070 135.5641550  41.7888610
 148.5284450 136.1910470  42.4309680 149.0381750 136.0903430  41.0090280
 147.2927550 127.6356330  41.6185560 147.6344360 128.4798380  41.3239430
 146.3543360 127.7840070  41.7350900 148.0734170 137.5322350  43.6037790
 148.6908170 138.2073430  43.3222240 147.2127290 137.9410330  43.5125290
 143.3666510 136.7222210  32.4844640 142.9894490 137.2109310  31.7529540
 143.6239580 137.3947490  33.1151170 150.9755440 125.1238600  37.9430150
 151.2830420 124.5685490  37.2265650 150.0456140 125.2583060  37.7603140
 148.9692840 133.7152170  37.4610000 148.5649840 133.0029420  36.9655900
 149.0555960 133.3705410  38.3498040 149.4374540 137.4019730  39.6249210
 149.1402830 136.7965200  38.9456990 150.3874360 137.4397040  39.5138570
 147.6821460 130.4895380  41.2409040 148.2336050 130.5990720  40.4662290
 148.1964970 130.8632980  41.9564270 148.5292970 137.1401420  46.2757010
 147.6321500 137.3641390  46.5230410 148.5545840 137.2636360  45.3268410
 147.3564190 134.0114740  44.8514380 147.2171960 134.8837540  45.2201780
 146.4745550 133.6687550  44.7062320 149.1544540 139.9536440  47.0599530
 149.1259970 140.3579390  46.1927960 148.9909510 139.0246800  46.8971130
 145.6697470 132.6097150  34.9616650 145.5495070 133.3359240  34.3497920
 145.3598360 131.8400060  34.4844560 143.3082840 135.7812290  40.7685290
 143.3863260 135.9161060  39.8241010 143.9224520 135.0728180  40.9613410
 144.5530470 137.4812480  37.1791470 144.1458550 137.6227070  36.3245070
 145.4443480 137.1972640  36.9762680 148.8252130 141.6958260  35.2914140
 148.6494610 140.7793800  35.0781940 147.9707870 142.0545550  35.5311940
 143.3642360 136.8226460  43.3079750 143.5273400 136.3531820  42.4899120
 143.8294810 136.3150020  43.9728590 148.1361130 125.9532220  38.3440320
 147.6929280 126.7341760  38.0124840 148.6946120 126.2762110  39.0511260
 152.4230940 128.8200740  43.9475640 151.9610310 129.0283760  44.7595580
 152.0209050 128.0060090  43.6446310 151.2519950 125.5742920  33.2246150
 150.6274130 125.5702790  33.9499460 151.1650070 124.7073880  32.8282120
 150.1737030 126.4979550  40.2029920 150.4709360 127.4042380  40.1221940
 150.7222590 126.0098330  39.5889490 147.9275350 131.0765790  36.0721570
 147.7016270 130.8602960  36.9768190 147.1467880 131.5094250  35.7267540
 150.3674560 131.9751370  46.7381840 150.2718160 131.0346100  46.5882240
 151.2106540 132.1966440  46.3429910 145.4985100 128.3865040  44.8915620
 145.1048490 129.2340250  45.0988400 144.8103500 127.7491410  45.0824260
 142.8002150 126.3093500  38.9245700 142.5115200 126.8796360  39.6370680
 143.5447910 125.8297950  39.2876930 142.9872380 130.2513620  30.1348420
 142.9047050 131.1944380  30.2763410 142.6355440 130.1088530  29.2560770
 150.7870510 128.9852650  39.2018770 150.7906570 128.5442600  38.3523310
 151.6821630 129.3069980  39.3090590 146.6372890 128.8679140  38.1612980
 146.2972940 129.3454370  38.9180030 145.8750210 128.4144260  37.8014080
 150.8490660 129.9864730  32.1925530 150.9703480 129.9451210  33.1411350
 150.4639170 130.8488880  32.0372260 149.8612160 132.2965870  31.5908830
 149.2929060 131.8484120  30.9644740 150.5701160 132.6558650  31.0573980
 144.9381340 136.1977890  45.4675560 144.5536130 135.5571560  46.0658520
 145.2493530 136.9014010  46.0370290 151.0878480 133.0454430  40.9484180
 151.4548610 132.5713000  41.6945520 150.8983540 133.9196000  41.2892520
 143.9518970 127.7898120  37.0777650 143.6665890 127.4253790  37.9156270
 143.8897830 127.0578580  36.4640790 148.8777850 132.0863070  43.2668390
 148.5734920 132.9655050  43.4918750 149.8324310 132.1462860  43.3025830
 147.4059640 136.2924060  33.8635240 146.6321900 135.7521680  33.7033960
 148.1354270 135.7730670  33.5253000 147.4497040 135.9604440  37.5014050
 147.9675710 135.1572700  37.4470940 146.9981060 135.8983580  38.3430880
 144.9341580 132.9265810  44.4139750 144.5756520 133.5919660  45.0013090
 144.6396140 132.0949360  44.7852370 148.1354700 133.3850050  47.2979300
 147.8354840 133.5307230  46.4007120 148.9065940 132.8255340  47.2052690
 151.3057230 137.3084250  35.5457270 151.9928360 137.8553460  35.9264860
 150.5189650 137.8524980  35.5806880 143.4449630 132.9257070  31.0374350
 144.3144480 133.2081870  31.3210270 142.9539950 133.7392940  30.9223160
 150.6084440 134.3130280  35.1582630 151.0647220 135.1235530  35.3842820
 150.2572650 133.9953420  35.9901120 146.5096220 124.6567930  35.6305150
 146.3810850 124.6485830  36.5790070 145.6858240 124.9951020  35.2796160
 143.8120880 142.1384450  31.6035980 144.1718520 142.7373790  30.9493250
 143.6713220 142.6844340  32.3771010 143.5090150 126.4159050  45.0911850
 142.7948670 126.6155970  45.6964460 143.9285190 125.6398620  45.4626650
 143.7962740 140.4039310  46.0778380 143.9053860 139.4634050  45.9373770
 143.1443300 140.6694060  45.4292110 151.7875330 138.6755200  47.4776500
 151.4672200 137.9564440  48.0222190 151.1133690 139.3510270  47.5512560
 149.8289500 139.5215650  32.4209650 149.8199600 140.2545340  31.8054160
 148.9087860 139.2747230  32.5136610 145.4296140 134.7430540  33.1656410
 144.8224090 135.4829440  33.1751710 145.9045490 134.8329900  32.3394610
 150.3374990 130.1424250  35.0658740 149.6291140 130.6110590  35.5072350
 150.6219470 129.4846260  35.7003930 151.9630920 131.5620950  43.0651270
 152.4616170 132.0366770  43.7303120 152.1053870 130.6384470  43.2721300
 151.4567210 142.1030210  35.7782510 151.7108710 142.0651600  34.8561880
 150.5079690 141.9763540  35.7710760 148.5410010 128.4509330  32.4409450
 149.3900540 128.8879480  32.3749640 148.1741280 128.7629590  33.2681510
 147.4401430 134.7041690  30.9144980 148.2064700 134.5923050  31.4770410
 147.5176120 134.0079660  30.2621750 146.1348190 132.1366760  31.5977870
 146.2151780 131.1894270  31.7095270 147.0267940 132.4673640  31.7038530
 146.9362900 142.2862150  38.7012410 147.6725380 141.7377610  38.9720980
 147.3203820 143.1518160  38.5618400 143.8208380 138.3535720  34.5753920
 142.8948160 138.5956860  34.5659330 144.2864810 139.1809980  34.4538670
 145.9421180 141.4708220  47.8897990 146.7433910 141.7920270  48.3033390
 145.4273000 141.1103800  48.6117900 150.0465210 141.4592460  30.5237980
 150.8393820 141.7481290  30.0719770 149.5269560 141.0284630  29.8450460
 143.6618990 133.9581680  46.8334040 144.1658010 133.3788960  47.4050270
 142.9226410 134.2421910  47.3710410 150.5642610 136.6795870  30.3880330
 150.4593250 136.0648220  31.1141710 150.3966830 136.1561760  29.6043340
 150.7156930 135.3652670  46.3669560 149.9502600 135.9337670  46.2824230
 150.8972890 135.0728880  45.4737790 145.6942070 132.1011270  47.7284110
 145.7347410 131.8025140  48.6369340 146.5487570 132.5018880  47.5691630
 149.4720460 134.7006820  32.8887620 149.8936880 134.5346690  33.7319010
 149.5971300 133.8907050  32.3942760 147.6347880 130.6803370  45.6958600
 147.1044340 130.1894320  45.0681940 148.3035950 131.1087570  45.1616530
 151.9848100 133.7244430  30.1364720 152.5053760 133.0093450  29.7705870
 152.6316500 134.3630300  30.4365230 148.1220180 127.6465740  45.7755890
 148.0277050 127.0286490  45.0506760 147.5417570 128.3732030  45.5485800
 150.8881620 126.2038980  42.8083280 150.4398920 126.2263240  41.9628830
 150.2546820 125.8058000  43.4053580 151.2941170 135.0993310  43.4295720
 151.7129280 135.9426040  43.2571960 150.3749800 135.2365350  43.2002500
 148.3679360 130.7740050  29.8345780 148.1668420 129.9107410  30.1959120
 148.1971410 130.6873410  28.8967380 149.1448590 141.4046320  44.5453450
 148.6069680 142.1292380  44.2262150 149.3982550 140.9276660  43.7550790
 150.3973840 129.3730840  46.0709380 150.9873530 129.0646690  46.7587200
 149.5794080 128.9010590  46.2269280 147.1662160 127.8740670  29.8223660
 147.4688060 127.8808100  28.9142810 147.9056750 127.5238530  30.3191320
 152.0010800 142.6397530  44.8040100 151.9269500 143.5432670  45.1112470
 151.0989640 142.3209430  44.7762170 150.3847090 126.8175290  30.8079860
 150.0369090 126.1399280  30.2282310 150.5859860 126.3564800  31.6223250
 146.1892290 137.1783090  30.6553460 146.6267160 137.7212760  31.3111040
 146.6740020 136.3530040  30.6649800 143.4038090 139.9672120  38.1073720
 143.7341100 139.0993180  37.8752360 143.8329090 140.1730640  38.9378680
 148.0000010 138.2981130  35.7675690 147.6995550 138.1746100  36.6679600
 147.8937500 137.4389720  35.3591420 143.8928300 140.8342710  40.8455350
 143.4559290 141.0143510  41.6779500 144.4605980 141.5917330  40.7037070
 143.7252730 133.3462940  37.2044230 143.0701570 133.0774580  36.5603930
 144.5630680 133.2367420  36.7546210 144.7628660 133.7315510  41.7447570
 145.1301700 133.6442910  42.6243590 144.1939480 132.9682060  41.6454430
 144.3144660 130.6424600  45.6505990 143.4200710 130.6091360  45.9899700
 144.8542210 130.8411390  46.4157240 142.9390810 130.5561870  33.1469560
 142.0354890 130.8192070  32.9721220 143.4231430 130.8273040  32.3669520
 145.4818020 129.6127410  31.0563940 146.1909720 129.1910630  30.5711220
 144.7657960 129.6802640  30.4247290 145.1292180 125.6666740  30.0966590
 145.8520310 126.2075680  30.4147810 145.4016700 125.3930160  29.2208130
 144.8184370 124.9172930  39.9989210 145.4660560 124.3670310  39.5584370
 145.2386210 125.1716080  40.8205020 144.5716370 125.0728600  42.7414530
 144.2231190 125.5292420  43.5072710 144.2404070 124.1785730  42.8236960
 146.1780740 138.2448200  46.9067720 146.1350370 137.8741110  47.7882180
 146.3091750 139.1825770  47.0469540 149.8786770 139.8007790  42.5077440
 149.6378130 140.0682350  41.6207960 150.8189410 139.9713520  42.5628300
 145.2437010 124.6004800  46.0165300 145.7920000 124.4192850  45.2531410
 145.3092320 123.8098910  46.5521610 146.0168770 141.1910450  44.0265500
 145.4229090 141.0595150  44.7655540 146.0092610 140.3548590  43.5607600
 145.6481000 138.5568830  42.9773540 144.9215060 137.9374120  42.9099490
 145.7090150 138.9509440  42.1071620 149.2526100 140.7713830  39.7622950
 149.7691120 140.1601190  39.2371210 149.9023480 141.2742610  40.2533960
 151.9921600 141.6622320  40.5891930 152.2799410 141.4076620  39.7124940
 152.5044820 141.1099680  41.1797500 143.9311000 141.8743220  36.1870300
 143.7633040 141.2413900  36.8852190 143.0645510 142.0802620  35.8364490
 144.5539020 125.7060000  33.6902160 145.3118380 125.8188880  33.1166190
 144.0916190 126.5429200  33.6445590 151.0952830 127.8199270  36.6804470
 150.2827340 127.4456160  36.3400350 151.5994470 127.0644350  36.9825660
 145.5373700 140.5676450  33.6320440 145.0121320 140.9484480  32.9282400
 145.4618280 141.1927220  34.3530150 146.9264170 126.2324050  32.2304130
 147.4556930 125.4453850  32.1012080 147.5592490 126.9115240  32.4639660
 149.1202010 125.9699190  35.2849520 148.4904750 125.2686500  35.4519650
 148.5807150 126.7303320  35.0682680 149.2457570 125.2483170  47.7202010
 148.9641840 125.7516770  46.9562830 149.6277270 124.4504920  47.3544140
 148.1366670 142.5158830  32.5069690 148.8685490 142.2318110  31.9593580
 148.3960340 142.2772110  33.3969070 147.2981460 138.6323560  32.5116020
 146.6690340 139.1008660  33.0601850 147.4129290 137.7872780  32.9462210
 146.9015050 134.7728050  21.4202250 146.0699930 134.5176760  21.8198760
 147.5096030 134.8438820  22.1560170 146.8816310 138.8068140  21.6160270
 147.1844350 137.9165880  21.4370490 147.6259900 139.3638360  21.3882520
 145.3107000 129.7329940  15.2044640 144.4223700 130.0745910  15.1024520
 145.5948190 129.5330260  14.3125470 143.2740010 132.3335590  21.0884340
 143.8456120 131.5657790  21.0887980 143.2741550 132.6324350  20.1790950
 144.5164880 127.7419950  22.8753270 144.3367720 126.8445700  23.1556030
 144.1144960 128.2891820  23.5500220 147.4868390 128.3161440  16.2383020
 147.5935140 129.2165170  16.5451780 146.5760750 128.2679410  15.9477670
 145.1351550 130.2380450  21.4835610 145.8161660 130.5018820  22.1023010
 144.8199600 129.3981320  21.8173620 149.3276120 131.2847810  20.5708200
 149.8354340 131.7828780  21.2113220 149.8589360 130.5083010  20.3947560
 147.6112220 125.9246370  24.8371620 147.6130660 126.4418760  24.0317520
 146.7816530 125.4476550  24.8141550 148.8615070 135.5641550  23.0145120
 148.5284450 136.1910470  23.6566190 149.0381750 136.0903430  22.2346790
 147.2927550 127.6356330  22.8442070 147.6344360 128.4798380  22.5495940
 146.3543360 127.7840070  22.9607410 148.0734170 137.5322350  24.8294300
 148.6908170 138.2073430  24.5478750 147.2127290 137.9410330  24.7381800
 143.3666510 136.7222210  13.7101150 142.9894490 137.2109310  12.9786050
 143.6239580 137.3947490  14.3407680 150.9755440 125.1238600  19.1686660
 151.2830420 124.5685490  18.4522160 150.0456140 125.2583060  18.9859650
 148.9692840 133.7152170  18.6866510 148.5649840 133.0029420  18.1912410
 149.0555960 133.3705410  19.5754550 149.4374540 137.4019730  20.8505720
 149.1402830 136.7965200  20.1713500 150.3874360 137.4397040  20.7395080
 147.6821460 130.4895380  22.4665550 148.2336050 130.5990720  21.6918800
 148.1964970 130.8632980  23.1820780 148.5292970 137.1401420  27.5013520
 147.6321500 137.3641390  27.7486920 148.5545840 137.2636360  26.5524920
 147.3564190 134.0114740  26.0770890 147.2171960 134.8837540  26.4458290
 146.4745550 133.6687550  25.9318830 149.1544540 139.9536440  28.2856040
 149.1259970 140.3579390  27.4184470 148.9909510 139.0246800  28.1227640
 145.6697470 132.6097150  16.1873160 145.5495070 133.3359240  15.5754430
 145.3598360 131.8400060  15.7101070 143.3082840 135.7812290  21.9941800
 143.3863260 135.9161060  21.0497520 143.9224520 135.0728180  22.1869920
 144.5530470 137.4812480  18.4047980 144.1458550 137.6227070  17.5501580
 145.4443480 137.1972640  18.2019190 148.8252130 141.6958260  16.5170650
 148.6494610 140.7793800  16.3038450 147.9707870 142.0545550  16.7568450
 143.3642360 136.8226460  24.5336260 143.5273400 136.3531820  23.7155630
 143.8294810 136.3150020  25.1985100 148.1361130 125.9532220  19.5696830
 147.6929280 126.7341760  19.2381350 148.6946120 126.2762110  20.2767770
 152.4230940 128.8200740  25.1732150 151.9610310 129.0283760  25.9852090
 152.0209050 128.0060090  24.8702820 151.2519950 125.5742920  14.4502660
 150.6274130 125.5702790  15.1755970 151.1650070 124.7073880  14.0538630
 150.1737030 126.4979550  21.4286430 150.4709360 127.4042380  21.3478450
 150.7222590 126.0098330  20.8146000 147.9275350 131.0765790  17.2978080
 147.7016270 130.8602960  18.2024700 147.1467880 131.5094250  16.9524050
 150.3674560 131.9751370  27.9638350 150.2718160 131.0346100  27.8138750
 151.2106540 132.1966440  27.5686420 145.4985100 128.3865040  26.1172130
 145.1048490 129.2340250  26.3244910 144.8103500 127.7491410  26.3080770
 142.8002150 126.3093500  20.1502210 142.5115200 126.8796360  20.8627190
 143.5447910 125.8297950  20.5133440 142.9872380 130.2513620  11.3604930
 142.9047050 131.1944380  11.5019920 142.6355440 130.1088530  10.4817280
 150.7870510 128.9852650  20.4275280 150.7906570 128.5442600  19.5779820
 151.6821630 129.3069980  20.5347100 146.6372890 128.8679140  19.3869490
 146.2972940 129.3454370  20.1436540 145.8750210 128.4144260  19.0270590
 150.8490660 129.9864730  13.4182040 150.9703480 129.9451210  14.3667860
 150.4639170 130.8488880  13.2628770 149.8612160 132.2965870  12.8165340
 149.2929060 131.8484120  12.1901250 150.5701160 132.6558650  12.2830490
 144.9381340 136.1977890  26.6932070 144.5536130 135.5571560  27.2915030
 145.2493530 136.9014010  27.2626800 151.0878480 133.0454430  22.1740690
 151.4548610 132.5713000  22.9202030 150.8983540 133.9196000  22.5149030
 143.9518970 127.7898120  18.3034160 143.6665890 127.4253790  19.1412780
 143.8897830 127.0578580  17.6897300 148.8777850 132.0863070  24.4924900
 148.5734920 132.9655050  24.7175260 149.8324310 132.1462860  24.5282340
 147.4059640 136.2924060  15.0891750 146.6321900 135.7521680  14.9290470
 148.1354270 135.7730670  14.7509510 147.4497040 135.9604440  18.7270560
 147.9675710 135.1572700  18.6727450 146.9981060 135.8983580  19.5687390
 144.9341580 132.9265810  25.6396260 144.5756520 133.5919660  26.2269600
 144.6396140 132.0949360  26.0108880 148.1354700 133.3850050  28.5235810
 147.8354840 133.5307230  27.6263630 148.9065940 132.8255340  28.4309200
 151.3057230 137.3084250  16.7713780 151.9928360 137.8553460  17.1521370
 150.5189650 137.8524980  16.8063390 143.4449630 132.9257070  12.2630860
 144.3144480 133.2081870  12.5466780 142.9539950 133.7392940  12.1479670
 150.6084440 134.3130280  16.3839140 151.0647220 135.1235530  16.6099330
 150.2572650 133.9953420  17.2157630 146.5096220 124.6567930  16.8561660
 146.3810850 124.6485830  17.8046580 145.6858240 124.9951020  16.5052670
 143.8120880 142.1384450  12.8292490 144.1718520 142.7373790  12.1749760
 143.6713220 142.6844340  13.6027520 143.5090150 126.4159050  26.3168360
 142.7948670 126.6155970  26.9220970 143.9285190 125.6398620  26.6883160
 143.7962740 140.4039310  27.3034890 143.9053860 139.4634050  27.1630280
 143.1443300 140.6694060  26.6548620 151.7875330 138.6755200  28.7033010
 151.4672200 137.9564440  29.2478700 151.1133690 139.3510270  28.7769070
 149.8289500 139.5215650  13.6466160 149.8199600 140.2545340  13.0310670
 148.9087860 139.2747230  13.7393120 145.4296140 134.7430540  14.3912920
 144.8224090 135.4829440  14.4008220 145.9045490 134.8329900  13.5651120
 150.3374990 130.1424250  16.2915250 149.6291140 130.6110590  16.7328860
 150.6219470 129.4846260  16.9260440 151.9630920 131.5620950  24.2907780
 152.4616170 132.0366770  24.9559630 152.1053870 130.6384470  24.4977810
 151.4567210 142.1030210  17.0039020 151.7108710 142.0651600  16.0818390
 150.5079690 141.9763540  16.9967270 148.5410010 128.4509330  13.6665960
 149.3900540 128.8879480  13.6006150 148.1741280 128.7629590  14.4938020
 147.4401430 134.7041690  12.1401490 148.2064700 134.5923050  12.7026920
 147.5176120 134.0079660  11.4878260 146.1348190 132.1366760  12.8234380
 146.2151780 131.1894270  12.9351780 147.0267940 132.4673640  12.9295040
 146.9362900 142.2862150  19.9268920 147.6725380 141.7377610  20.1977490
 147.3203820 143.1518160  19.7874910 143.8208380 138.3535720  15.8010430
 142.8948160 138.5956860  15.7915840 144.2864810 139.1809980  15.6795180
 145.9421180 141.4708220  29.1154500 146.7433910 141.7920270  29.5289900
 145.4273000 141.1103800  29.8374410 150.0465210 141.4592460  11.7494490
 150.8393820 141.7481290  11.2976280 149.5269560 141.0284630  11.0706970
 143.6618990 133.9581680  28.0590550 144.1658010 133.3788960  28.6306780
 142.9226410 134.2421910  28.5966920 150.5642610 136.6795870  11.6136840
 150.4593250 136.0648220  12.3398220 150.3966830 136.1561760  10.8299850
 150.7156930 135.3652670  27.5926070 149.9502600 135.9337670  27.5080740
 150.8972890 135.0728880  26.6994300 145.6942070 132.1011270  28.9540620
 145.7347410 131.8025140  29.8625850 146.5487570 132.5018880  28.7948140
 149.4720460 134.7006820  14.1144130 149.8936880 134.5346690  14.9575520
 149.5971300 133.8907050  13.6199270 147.6347880 130.6803370  26.9215110
 147.1044340 130.1894320  26.2938450 148.3035950 131.1087570  26.3873040
 151.9848100 133.7244430  11.3621230 152.5053760 133.0093450  10.9962380
 152.6316500 134.3630300  11.6621740 148.1220180 127.6465740  27.0012400
 148.0277050 127.0286490  26.2763270 147.5417570 128.3732030  26.7742310
 150.8881620 126.2038980  24.0339790 150.4398920 126.2263240  23.1885340
 150.2546820 125.8058000  24.6310090 151.2941170 135.0993310  24.6552230
 151.7129280 135.9426040  24.4828470 150.3749800 135.2365350  24.4259010
 148.3679360 130.7740050  11.0602290 148.1668420 129.9107410  11.4215630
 148.1971410 130.6873410  10.1223890 149.1448590 141.4046320  25.7709960
 148.6069680 142.1292380  25.4518660 149.3982550 140.9276660  24.9807300
 150.3973840 129.3730840  27.2965890 150.9873530 129.0646690  27.9843710
 149.5794080 128.9010590  27.4525790 147.1662160 127.8740670  11.0480170
 147.4688060 127.8808100  10.1399320 147.9056750 127.5238530  11.5447830
 152.0010800 142.6397530  26.0296610 151.9269500 143.5432670  26.3368980
 151.0989640 142.3209430  26.0018680 150.3847090 126.8175290  12.0336370
 150.0369090 126.1399280  11.4538820 150.5859860 126.3564800  12.8479760
 146.1892290 137.1783090  11.8809970 146.6267160 137.7212760  12.5367550
 146.6740020 136.3530040  11.8906310 143.4038090 139.9672120  19.3330230
 143.7341100 139.0993180  19.1008870 143.8329090 140.1730640  20.1635190
 148.0000010 138.2981130  16.9932200 147.6995550 138.1746100  17.8936110
 147.8937500 137.4389720  16.5847930 143.8928300 140.8342710  22.0711860
 143.4559290 141.0143510  22.9036010 144.4605980 141.5917330  21.9293580
 143.7252730 133.3462940  18.4300740 143.0701570 133.0774580  17.7860440
 144.5630680 133.2367420  17.9802720 144.7628660 133.7315510  22.9704080
 145.1301700 133.6442910  23.8500100 144.1939480 132.9682060  22.8710940
 144.3144660 130.6424600  26.8762500 143.4200710 130.6091360  27.2156210
 144.8542210 130.8411390  27.6413750 142.9390810 130.5561870  14.3726070
 142.0354890 130.8192070  14.1977730 143.4231430 130.8273040  13.5926030
 145.4818020 129.6127410  12.2820450 146.1909720 129.1910630  11.7967730
 144.7657960 129.6802640  11.6503800 145.1292180 125.6666740  11.3223100
 145.8520310 126.2075680  11.6404320 145.4016700 125.3930160  10.4464640
 144.8184370 124.9172930  21.2245720 145.4660560 124.3670310  20.7840880
 145.2386210 125.1716080  22.0461530 144.5716370 125.0728600  23.9671040
 144.2231190 125.5292420  24.7329220 144.2404070 124.1785730  24.0493470
 146.1780740 138.2448200  28.1324230 146.1350370 137.8741110  29.0138690
 146.3091750 139.1825770  28.2726050 149.8786770 139.8007790  23.7333950
 149.6378130 140.0682350  22.8464470 150.8189410 139.9713520  23.7884810
 145.2437010 124.6004800  27.2421810 145.7920000 124.4192850  26.4787920
 145.3092320 123.8098910  27.7778120 146.0168770 141.1910450  25.2522010
 145.4229090 141.0595150  25.9912050 146.0092610 140.3548590  24.7864110
 145.6481000 138.5568830  24.2030050 144.9215060 137.9374120  24.1356000
 145.7090150 138.9509440  23.3328130 149.2526100 140.7713830  20.9879460
 149.7691120 140.1601190  20.4627720 149.9023480 141.2742610  21.4790470
 151.9921600 141.6622320  21.8148440 152.2799410 141.4076620  20.9381450
 152.5044820 141.1099680  22.4054010 143.9311000 141.8743220  17.4126810
 143.7633040 141.2413900  18.1108700 143.0645510 142.0802620  17.0621000
 144.5539020 125.7060000  14.9158670 145.3118380 125.8188880  14.3422700
 144.0916190 126.5429200  14.8702100 151.0952830 127.8199270  17.9060980
 150.2827340 127.4456160  17.5656860 151.5994470 127.0644350  18.2082170
 145.5373700 140.5676450  14.8576950 145.0121320 140.9484480  14.1538910
 145.4618280 141.1927220  15.5786660 146.9264170 126.2324050  13.4560640
 147.4556930 125.4453850  13.3268590 147.5592490 126.9115240  13.6896170
 149.1202010 125.9699190  16.5106030 148.4904750 125.2686500  16.6776160
 148.5807150 126.7303320  16.2939190 149.2457570 125.2483170  28.9458520
 148.9641840 125.7516770  28.1819340 149.6277270 124.4504920  28.5800650
 148.1366670 142.5158830  13.7326200 148.8685490 142.2318110  13.1850090
 148.3960340 142.2772110  14.6225580 147.2981460 138.6323560  13.7372530
 146.6690340 139.1008660  14.2858360 147.4129290 137.7872780  14.1718720
 146.9015050 134.7728050   2.6458760 146.0699930 134.5176760   3.0455270
 147.5096030 134.8438820   3.3816680 146.8816310 138.8068140   2.8416780
 147.1844350 137.9165880   2.6627000 147.6259900 139.3638360   2.6139030
 144.5164880 127.7419950   4.1009780 144.3367720 126.8445700   4.3812540
 144.1144960 128.2891820   4.7756730 145.1351550 130.2380450   2.7092120
 145.8161660 130.5018820   3.3279520 144.8199600 129.3981320   3.0430130
 149.3276120 131.2847810   1.7964710 149.8354340 131.7828780   2.4369730
 149.8589360 130.5083010   1.6204070 147.6112220 125.9246370   6.0628130
 147.6130660 126.4418760   5.2574030 146.7816530 125.4476550   6.0398060
 148.8615070 135.5641550   4.2401630 148.5284450 136.1910470   4.8822700
 149.0381750 136.0903430   3.4603300 147.2927550 127.6356330   4.0698580
 147.6344360 128.4798380   3.7752450 146.3543360 127.7840070   4.1863920
 148.0734170 137.5322350   6.0550810 148.6908170 138.2073430   5.7735260
 147.2127290 137.9410330   5.9638310 147.6821460 130.4895380   3.6922060
 148.2336050 130.5990720   2.9175310 148.1964970 130.8632980   4.4077290
 148.5292970 137.1401420   8.7270030 147.6321500 137.3641390   8.9743430
 148.5545840 137.2636360   7.7781430 147.3564190 134.0114740   7.3027400
 147.2171960 134.8837540   7.6714800 146.4745550 133.6687550   7.1575340
 149.1544540 139.9536440   9.5112550 149.1259970 140.3579390   8.6440980
 148.9909510 139.0246800   9.3484150 143.3082840 135.7812290   3.2198310
 143.3863260 135.9161060   2.2754030 143.9224520 135.0728180   3.4126430
 143.3642360 136.8226460   5.7592770 143.5273400 136.3531820   4.9412140
 143.8294810 136.3150020   6.4241610 152.4230940 128.8200740   6.3988660
 151.9610310 129.0283760   7.2108600 152.0209050 128.0060090   6.0959330
 150.1737030 126.4979550   2.6542940 150.4709360 127.4042380   2.5734960
 150.7222590 126.0098330   2.0402510 150.3674560 131.9751370   9.1894860
 150.2718160 131.0346100   9.0395260 151.2106540 132.1966440   8.7942930
 145.4985100 128.3865040   7.3428640 145.1048490 129.2340250   7.5501420
 144.8103500 127.7491410   7.5337280 144.9381340 136.1977890   7.9188580
 144.5536130 135.5571560   8.5171540 145.2493530 136.9014010   8.4883310
 151.0878480 133.0454430   3.3997200 151.4548610 132.5713000   4.1458540
 150.8983540 133.9196000   3.7405540 148.8777850 132.0863070   5.7181410
 148.5734920 132.9655050   5.9431770 149.8324310 132.1462860   5.7538850
 144.9341580 132.9265810   6.8652770 144.5756520 133.5919660   7.4526110
 144.6396140 132.0949360   7.2365390 148.1354700 133.3850050   9.7492320
 147.8354840 133.5307230   8.8520140 148.9065940 132.8255340   9.6565710
 143.5090150 126.4159050   7.5424870 142.7948670 126.6155970   8.1477480
 143.9285190 125.6398620   7.9139670 143.7962740 140.4039310   8.5291400
 143.9053860 139.4634050   8.3886790 143.1443300 140.6694060   7.8805130
 151.7875330 138.6755200   9.9289520 151.4672200 137.9564440  10.4735210
 151.1133690 139.3510270  10.0025580 151.9630920 131.5620950   5.5164290
 152.4616170 132.0366770   6.1816140 152.1053870 130.6384470   5.7234320
 145.9421180 141.4708220  10.3411010 146.7433910 141.7920270  10.7546410
 145.4273000 141.1103800  11.0630920 143.6618990 133.9581680   9.2847060
 144.1658010 133.3788960   9.8563290 142.9226410 134.2421910   9.8223430
 150.7156930 135.3652670   8.8182580 149.9502600 135.9337670   8.7337250
 150.8972890 135.0728880   7.9250810 145.6942070 132.1011270  10.1797130
 145.7347410 131.8025140  11.0882360 146.5487570 132.5018880  10.0204650
 147.6347880 130.6803370   8.1471620 147.1044340 130.1894320   7.5194960
 148.3035950 131.1087570   7.6129550 148.1220180 127.6465740   8.2268910
 148.0277050 127.0286490   7.5019780 147.5417570 128.3732030   7.9998820
 150.8881620 126.2038980   5.2596300 150.4398920 126.2263240   4.4141850
 150.2546820 125.8058000   5.8566600 151.2941170 135.0993310   5.8808740
 151.7129280 135.9426040   5.7084980 150.3749800 135.2365350   5.6515520
 149.1448590 141.4046320   6.9966470 148.6069680 142.1292380   6.6775170
 149.3982550 140.9276660   6.2063810 150.3973840 129.3730840   8.5222400
 150.9873530 129.0646690   9.2100220 149.5794080 128.9010590   8.6782300
 152.0010800 142.6397530   7.2553120 151.9269500 143.5432670   7.5625490
 151.0989640 142.3209430   7.2275190 143.8928300 140.8342710   3.2968370
 143.4559290 141.0143510   4.1292520 144.4605980 141.5917330   3.1550090
 144.7628660 133.7315510   4.1960590 145.1301700 133.6442910   5.0756610
 144.1939480 132.9682060   4.0967450 144.3144660 130.6424600   8.1019010
 143.4200710 130.6091360   8.4412720 144.8542210 130.8411390   8.8670260
 144.8184370 124.9172930   2.4502230 145.4660560 124.3670310   2.0097390
 145.2386210 125.1716080   3.2718040 144.5716370 125.0728600   5.1927550
 144.2231190 125.5292420   5.9585730 144.2404070 124.1785730   5.2749980
 146.1780740 138.2448200   9.3580740 146.1350370 137.8741110  10.2395200
 146.3091750 139.1825770   9.4982560 149.8786770 139.8007790   4.9590460
 149.6378130 140.0682350   4.0720980 150.8189410 139.9713520   5.0141320
 145.2437010 124.6004800   8.4678320 145.7920000 124.4192850   7.7044430
 145.3092320 123.8098910   9.0034630 146.0168770 141.1910450   6.4778520
 145.4229090 141.0595150   7.2168560 146.0092610 140.3548590   6.0120620
 145.6481000 138.5568830   5.4286560 144.9215060 137.9374120   5.3612510
 145.7090150 138.9509440   4.5584640 149.2526100 140.7713830   2.2135970
 149.7691120 140.1601190   1.6884230 149.9023480 141.2742610   2.7046980
 151.9921600 141.6622320   3.0404950 152.2799410 141.4076620   2.1637960
 152.5044820 141.1099680   3.6310520 149.2457570 125.2483170  10.1715030
 148.9641840 125.7516770   9.4075850 149.6277270 124.4504920   9.8057160
 145.3107000 110.9586450 146.6249070 144.4223700 111.3002420 146.5228950
 145.5948190 110.7586770 145.7329900 147.4868390 109.5417950 147.6587450
 147.5935140 110.4421680 147.9656210 146.5760750 109.4935920 147.3682100
 143.3666510 117.9478720 145.1305580 142.9894490 118.4365820 144.3990480
 143.6239580 118.6204000 145.7612110 150.9755440 106.3495110 150.5891090
 151.2830420 105.7942000 149.8726590 150.0456140 106.4839570 150.4064080
 148.9692840 114.9408680 150.1070940 148.5649840 114.2285930 149.6116840
 149.0555960 114.5961920 150.9958980 145.6697470 113.8353660 147.6077590
 145.5495070 114.5615750 146.9958860 145.3598360 113.0656570 147.1305500
 144.5530470 118.7068990 149.8252410 144.1458550 118.8483580 148.9706010
 145.4443480 118.4229150 149.6223620 148.8252130 122.9214770 147.9375080
 148.6494610 122.0050310 147.7242880 147.9707870 123.2802060 148.1772880
 148.1361130 107.1788730 150.9901260 147.6929280 107.9598270 150.6585780
 148.6946120 107.5018620 151.6972200 151.2519950 106.7999430 145.8707090
 150.6274130 106.7959300 146.5960400 151.1650070 105.9330390 145.4743060
 147.9275350 112.3022300 148.7182510 147.7016270 112.0859470 149.6229130
 147.1467880 112.7350760 148.3728480 142.9872380 111.4770130 142.7809360
 142.9047050 112.4200890 142.9224350 142.6355440 111.3345040 141.9021710
 146.6372890 110.0935650 150.8073920 146.2972940 110.5710880 151.5640970
 145.8750210 109.6400770 150.4475020 150.8490660 111.2121240 144.8386470
 150.9703480 111.1707720 145.7872290 150.4639170 112.0745390 144.6833200
 149.8612160 113.5222380 144.2369770 149.2929060 113.0740630 143.6105680
 150.5701160 113.8815160 143.7034920 143.9518970 109.0154630 149.7238590
 143.6665890 108.6510300 150.5617210 143.8897830 108.2835090 149.1101730
 147.4059640 117.5180570 146.5096180 146.6321900 116.9778190 146.3494900
 148.1354270 116.9987180 146.1713940 147.4497040 117.1860950 150.1474990
 147.9675710 116.3829210 150.0931880 146.9981060 117.1240090 150.9891820
 151.3057230 118.5340760 148.1918210 151.9928360 119.0809970 148.5725800
 150.5189650 119.0781490 148.2267820 143.4449630 114.1513580 143.6835290
 144.3144480 114.4338380 143.9671210 142.9539950 114.9649450 143.5684100
 150.6084440 115.5386790 147.8043570 151.0647220 116.3492040 148.0303760
 150.2572650 115.2209930 148.6362060 146.5096220 105.8824440 148.2766090
 146.3810850 105.8742340 149.2251010 145.6858240 106.2207530 147.9257100
 143.8120880 123.3640960 144.2496920 144.1718520 123.9630300 143.5954190
 143.6713220 123.9100850 145.0231950 149.8289500 120.7472160 145.0670590
 149.8199600 121.4801850 144.4515100 148.9087860 120.5003740 145.1597550
 145.4296140 115.9687050 145.8117350 144.8224090 116.7085950 145.8212650
 145.9045490 116.0586410 144.9855550 150.3374990 111.3680760 147.7119680
 149.6291140 111.8367100 148.1533290 150.6219470 110.7102770 148.3464870
 151.4567210 123.3286720 148.4243450 151.7108710 123.2908110 147.5022820
 150.5079690 123.2020050 148.4171700 148.5410010 109.6765840 145.0870390
 149.3900540 110.1135990 145.0210580 148.1741280 109.9886100 145.9142450
 147.4401430 115.9298200 143.5605920 148.2064700 115.8179560 144.1231350
 147.5176120 115.2336170 142.9082690 146.1348190 113.3623270 144.2438810
 146.2151780 112.4150780 144.3556210 147.0267940 113.6930150 144.3499470
 146.9362900 123.5118660 151.3473350 147.6725380 122.9634120 151.6181920
 147.3203820 124.3774670 151.2079340 143.8208380 119.5792230 147.2214860
 142.8948160 119.8213370 147.2120270 144.2864810 120.4066490 147.0999610
 150.0465210 122.6848970 143.1698920 150.8393820 122.9737800 142.7180710
 149.5269560 122.2541140 142.4911400 150.5642610 117.9052380 143.0341270
 150.4593250 117.2904730 143.7602650 150.3966830 117.3818270 142.2504280
 149.4720460 115.9263330 145.5348560 149.8936880 115.7603200 146.3779950
 149.5971300 115.1163560 145.0403700 151.9848100 114.9500940 142.7825660
 152.5053760 114.2349960 142.4166810 152.6316500 115.5886810 143.0826170
 148.3679360 111.9996560 142.4806720 148.1668420 111.1363920 142.8420060
 148.1971410 111.9129920 141.5428320 147.1662160 109.0997180 142.4684600
 147.4688060 109.1064610 141.5603750 147.9056750 108.7495040 142.9652260
 150.3847090 108.0431800 143.4540800 150.0369090 107.3655790 142.8743250
 150.5859860 107.5821310 144.2684190 146.1892290 118.4039600 143.3014400
 146.6267160 118.9469270 143.9571980 146.6740020 117.5786550 143.3110740
 143.4038090 121.1928630 150.7534660 143.7341100 120.3249690 150.5213300
 143.8329090 121.3987150 151.5839620 148.0000010 119.5237640 148.4136630
 147.6995550 119.4002610 149.3140540 147.8937500 118.6646230 148.0052360
 143.7252730 114.5719450 149.8505170 143.0701570 114.3031090 149.2064870
 144.5630680 114.4623930 149.4007150 142.9390810 111.7818380 145.7930500
 142.0354890 112.0448580 145.6182160 143.4231430 112.0529550 145.0130460
 145.4818020 110.8383920 143.7024880 146.1909720 110.4167140 143.2172160
 144.7657960 110.9059150 143.0708230 145.1292180 106.8923250 142.7427530
 145.8520310 107.4332190 143.0608750 145.4016700 106.6186670 141.8669070
 143.9311000 123.0999730 148.8331240 143.7633040 122.4670410 149.5313130
 143.0645510 123.3059130 148.4825430 144.5539020 106.9316510 146.3363100
 145.3118380 107.0445390 145.7627130 144.0916190 107.7685710 146.2906530
 151.0952830 109.0455780 149.3265410 150.2827340 108.6712670 148.9861290
 151.5994470 108.2900860 149.6286600 145.5373700 121.7932960 146.2781380
 145.0121320 122.1740990 145.5743340 145.4618280 122.4183730 146.9991090
 146.9264170 107.4580560 144.8765070 147.4556930 106.6710360 144.7473020
 147.5592490 108.1371750 145.1100600 149.1202010 107.1955700 147.9310460
 148.4904750 106.4943010 148.0980590 148.5807150 107.9559830 147.7143620
 148.1366670 123.7415340 145.1530630 148.8685490 123.4574620 144.6054520
 148.3960340 123.5028620 146.0430010 147.2981460 119.8580070 145.1576960
 146.6690340 120.3265170 145.7062790 147.4129290 119.0129290 145.5923150
 146.9015050 115.9984560 134.0663190 146.0699930 115.7433270 134.4659700
 147.5096030 116.0695330 134.8021110 146.8816310 120.0324650 134.2621210
 147.1844350 119.1422390 134.0831430 147.6259900 120.5894870 134.0343460
 145.3107000 110.9586450 127.8505580 144.4223700 111.3002420 127.7485460
 145.5948190 110.7586770 126.9586410 143.2740010 113.5592100 133.7345280
 143.8456120 112.7914300 133.7348920 143.2741550 113.8580860 132.8251890
 144.5164880 108.9676460 135.5214210 144.3367720 108.0702210 135.8016970
 144.1144960 109.5148330 136.1961160 147.4868390 109.5417950 128.8843960
 147.5935140 110.4421680 129.1912720 146.5760750 109.4935920 128.5938610
 145.1351550 111.4636960 134.1296550 145.8161660 111.7275330 134.7483950
 144.8199600 110.6237830 134.4634560 149.3276120 112.5104320 133.2169140
 149.8354340 113.0085290 133.8574160 149.8589360 111.7339520 133.0408500
 147.6112220 107.1502880 137.4832560 147.6130660 107.6675270 136.6778460
 146.7816530 106.6733060 137.4602490 148.8615070 116.7898060 135.6606060
 148.5284450 117.4166980 136.3027130 149.0381750 117.3159940 134.8807730
 147.2927550 108.8612840 135.4903010 147.6344360 109.7054890 135.1956880
 146.3543360 109.0096580 135.6068350 148.0734170 118.7578860 137.4755240
 148.6908170 119.4329940 137.1939690 147.2127290 119.1666840 137.3842740
 143.3666510 117.9478720 126.3562090 142.9894490 118.4365820 125.6246990
 143.6239580 118.6204000 126.9868620 150.9755440 106.3495110 131.8147600
 151.2830420 105.7942000 131.0983100 150.0456140 106.4839570 131.6320590
 148.9692840 114.9408680 131.3327450 148.5649840 114.2285930 130.8373350
 149.0555960 114.5961920 132.2215490 149.4374540 118.6276240 133.4966660
 149.1402830 118.0221710 132.8174440 150.3874360 118.6653550 133.3856020
 147.6821460 111.7151890 135.1126490 148.2336050 111.8247230 134.3379740
 148.1964970 112.0889490 135.8281720 148.5292970 118.3657930 140.1474460
 147.6321500 118.5897900 140.3947860 148.5545840 118.4892870 139.1985860
 147.3564190 115.2371250 138.7231830 147.2171960 116.1094050 139.0919230
 146.4745550 114.8944060 138.5779770 149.1544540 121.1792950 140.9316980
 149.1259970 121.5835900 140.0645410 148.9909510 120.2503310 140.7688580
 145.6697470 113.8353660 128.8334100 145.5495070 114.5615750 128.2215370
 145.3598360 113.0656570 128.3562010 143.3082840 117.0068800 134.6402740
 143.3863260 117.1417570 133.6958460 143.9224520 116.2984690 134.8330860
 144.5530470 118.7068990 131.0508920 144.1458550 118.8483580 130.1962520
 145.4443480 118.4229150 130.8480130 148.8252130 122.9214770 129.1631590
 148.6494610 122.0050310 128.9499390 147.9707870 123.2802060 129.4029390
 143.3642360 118.0482970 137.1797200 143.5273400 117.5788330 136.3616570
 143.8294810 117.5406530 137.8446040 148.1361130 107.1788730 132.2157770
 147.6929280 107.9598270 131.8842290 148.6946120 107.5018620 132.9228710
 152.4230940 110.0457250 137.8193090 151.9610310 110.2540270 138.6313030
 152.0209050 109.2316600 137.5163760 151.2519950 106.7999430 127.0963600
 150.6274130 106.7959300 127.8216910 151.1650070 105.9330390 126.6999570
 150.1737030 107.7236060 134.0747370 150.4709360 108.6298890 133.9939390
 150.7222590 107.2354840 133.4606940 147.9275350 112.3022300 129.9439020
 147.7016270 112.0859470 130.8485640 147.1467880 112.7350760 129.5984990
 150.3674560 113.2007880 140.6099290 150.2718160 112.2602610 140.4599690
 151.2106540 113.4222950 140.2147360 145.4985100 109.6121550 138.7633070
 145.1048490 110.4596760 138.9705850 144.8103500 108.9747920 138.9541710
 142.8002150 107.5350010 132.7963150 142.5115200 108.1052870 133.5088130
 143.5447910 107.0554460 133.1594380 142.9872380 111.4770130 124.0065870
 142.9047050 112.4200890 124.1480860 142.6355440 111.3345040 123.1278220
 150.7870510 110.2109160 133.0736220 150.7906570 109.7699110 132.2240760
 151.6821630 110.5326490 133.1808040 146.6372890 110.0935650 132.0330430
 146.2972940 110.5710880 132.7897480 145.8750210 109.6400770 131.6731530
 150.8490660 111.2121240 126.0642980 150.9703480 111.1707720 127.0128800
 150.4639170 112.0745390 125.9089710 149.8612160 113.5222380 125.4626280
 149.2929060 113.0740630 124.8362190 150.5701160 113.8815160 124.9291430
 144.9381340 117.4234400 139.3393010 144.5536130 116.7828070 139.9375970
 145.2493530 118.1270520 139.9087740 151.0878480 114.2710940 134.8201630
 151.4548610 113.7969510 135.5662970 150.8983540 115.1452510 135.1609970
 143.9518970 109.0154630 130.9495100 143.6665890 108.6510300 131.7873720
 143.8897830 108.2835090 130.3358240 148.8777850 113.3119580 137.1385840
 148.5734920 114.1911560 137.3636200 149.8324310 113.3719370 137.1743280
 147.4059640 117.5180570 127.7352690 146.6321900 116.9778190 127.5751410
 148.1354270 116.9987180 127.3970450 147.4497040 117.1860950 131.3731500
 147.9675710 116.3829210 131.3188390 146.9981060 117.1240090 132.2148330
 144.9341580 114.1522320 138.2857200 144.5756520 114.8176170 138.8730540
 144.6396140 113.3205870 138.6569820 148.1354700 114.6106560 141.1696750
 147.8354840 114.7563740 140.2724570 148.9065940 114.0511850 141.0770140
 151.3057230 118.5340760 129.4174720 151.9928360 119.0809970 129.7982310
 150.5189650 119.0781490 129.4524330 143.4449630 114.1513580 124.9091800
 144.3144480 114.4338380 125.1927720 142.9539950 114.9649450 124.7940610
 150.6084440 115.5386790 129.0300080 151.0647220 116.3492040 129.2560270
 150.2572650 115.2209930 129.8618570 146.5096220 105.8824440 129.5022600
 146.3810850 105.8742340 130.4507520 145.6858240 106.2207530 129.1513610
 143.8120880 123.3640960 125.4753430 144.1718520 123.9630300 124.8210700
 143.6713220 123.9100850 126.2488460 143.5090150 107.6415560 138.9629300
 142.7948670 107.8412480 139.5681910 143.9285190 106.8655130 139.3344100
 143.7962740 121.6295820 139.9495830 143.9053860 120.6890560 139.8091220
 143.1443300 121.8950570 139.3009560 151.7875330 119.9011710 141.3493950
 151.4672200 119.1820950 141.8939640 151.1133690 120.5766780 141.4230010
 149.8289500 120.7472160 126.2927100 149.8199600 121.4801850 125.6771610
 148.9087860 120.5003740 126.3854060 145.4296140 115.9687050 127.0373860
 144.8224090 116.7085950 127.0469160 145.9045490 116.0586410 126.2112060
 150.3374990 111.3680760 128.9376190 149.6291140 111.8367100 129.3789800
 150.6219470 110.7102770 129.5721380 151.9630920 112.7877460 136.9368720
 152.4616170 113.2623280 137.6020570 152.1053870 111.8640980 137.1438750
 151.4567210 123.3286720 129.6499960 151.7108710 123.2908110 128.7279330
 150.5079690 123.2020050 129.6428210 148.5410010 109.6765840 126.3126900
 149.3900540 110.1135990 126.2467090 148.1741280 109.9886100 127.1398960
 147.4401430 115.9298200 124.7862430 148.2064700 115.8179560 125.3487860
 147.5176120 115.2336170 124.1339200 146.1348190 113.3623270 125.4695320
 146.2151780 112.4150780 125.5812720 147.0267940 113.6930150 125.5755980
 146.9362900 123.5118660 132.5729860 147.6725380 122.9634120 132.8438430
 147.3203820 124.3774670 132.4335850 143.8208380 119.5792230 128.4471370
 142.8948160 119.8213370 128.4376780 144.2864810 120.4066490 128.3256120
 145.9421180 122.6964730 141.7615440 146.7433910 123.0176780 142.1750840
 145.4273000 122.3360310 142.4835350 150.0465210 122.6848970 124.3955430
 150.8393820 122.9737800 123.9437220 149.5269560 122.2541140 123.7167910
 143.6618990 115.1838190 140.7051490 144.1658010 114.6045470 141.2767720
 142.9226410 115.4678420 141.2427860 150.5642610 117.9052380 124.2597780
 150.4593250 117.2904730 124.9859160 150.3966830 117.3818270 123.4760790
 150.7156930 116.5909180 140.2387010 149.9502600 117.1594180 140.1541680
 150.8972890 116.2985390 139.3455240 145.6942070 113.3267780 141.6001560
 145.7347410 113.0281650 142.5086790 146.5487570 113.7275390 141.4409080
 149.4720460 115.9263330 126.7605070 149.8936880 115.7603200 127.6036460
 149.5971300 115.1163560 126.2660210 147.6347880 111.9059880 139.5676050
 147.1044340 111.4150830 138.9399390 148.3035950 112.3344080 139.0333980
 151.9848100 114.9500940 124.0082170 152.5053760 114.2349960 123.6423320
 152.6316500 115.5886810 124.3082680 148.1220180 108.8722250 139.6473340
 148.0277050 108.2543000 138.9224210 147.5417570 109.5988540 139.4203250
 150.8881620 107.4295490 136.6800730 150.4398920 107.4519750 135.8346280
 150.2546820 107.0314510 137.2771030 151.2941170 116.3249820 137.3013170
 151.7129280 117.1682550 137.1289410 150.3749800 116.4621860 137.0719950
 148.3679360 111.9996560 123.7063230 148.1668420 111.1363920 124.0676570
 148.1971410 111.9129920 122.7684830 149.1448590 122.6302830 138.4170900
 148.6069680 123.3548890 138.0979600 149.3982550 122.1533170 137.6268240
 150.3973840 110.5987350 139.9426830 150.9873530 110.2903200 140.6304650
 149.5794080 110.1267100 140.0986730 147.1662160 109.0997180 123.6941110
 147.4688060 109.1064610 122.7860260 147.9056750 108.7495040 124.1908770
 152.0010800 123.8654040 138.6757550 151.9269500 124.7689180 138.9829920
 151.0989640 123.5465940 138.6479620 150.3847090 108.0431800 124.6797310
 150.0369090 107.3655790 124.0999760 150.5859860 107.5821310 125.4940700
 146.1892290 118.4039600 124.5270910 146.6267160 118.9469270 125.1828490
 146.6740020 117.5786550 124.5367250 143.4038090 121.1928630 131.9791170
 143.7341100 120.3249690 131.7469810 143.8329090 121.3987150 132.8096130
 148.0000010 119.5237640 129.6393140 147.6995550 119.4002610 130.5397050
 147.8937500 118.6646230 129.2308870 143.8928300 122.0599220 134.7172800
 143.4559290 122.2400020 135.5496950 144.4605980 122.8173840 134.5754520
 143.7252730 114.5719450 131.0761680 143.0701570 114.3031090 130.4321380
 144.5630680 114.4623930 130.6263660 144.7628660 114.9572020 135.6165020
 145.1301700 114.8699420 136.4961040 144.1939480 114.1938570 135.5171880
 144.3144660 111.8681110 139.5223440 143.4200710 111.8347870 139.8617150
 144.8542210 112.0667900 140.2874690 142.9390810 111.7818380 127.0187010
 142.0354890 112.0448580 126.8438670 143.4231430 112.0529550 126.2386970
 145.4818020 110.8383920 124.9281390 146.1909720 110.4167140 124.4428670
 144.7657960 110.9059150 124.2964740 145.1292180 106.8923250 123.9684040
 145.8520310 107.4332190 124.2865260 145.4016700 106.6186670 123.0925580
 144.8184370 106.1429440 133.8706660 145.4660560 105.5926820 133.4301820
 145.2386210 106.3972590 134.6922470 144.5716370 106.2985110 136.6131980
 144.2231190 106.7548930 137.3790160 144.2404070 105.4042240 136.6954410
 146.1780740 119.4704710 140.7785170 146.1350370 119.0997620 141.6599630
 146.3091750 120.4082280 140.9186990 149.8786770 121.0264300 136.3794890
 149.6378130 121.2938860 135.4925410 150.8189410 121.1970030 136.4345750
 145.2437010 105.8261310 139.8882750 145.7920000 105.6449360 139.1248860
 145.3092320 105.0355420 140.4239060 146.0168770 122.4166960 137.8982950
 145.4229090 122.2851660 138.6372990 146.0092610 121.5805100 137.4325050
 145.6481000 119.7825340 136.8490990 144.9215060 119.1630630 136.7816940
 145.7090150 120.1765950 135.9789070 149.2526100 121.9970340 133.6340400
 149.7691120 121.3857700 133.1088660 149.9023480 122.4999120 134.1251410
 151.9921600 122.8878830 134.4609380 152.2799410 122.6333130 133.5842390
 152.5044820 122.3356190 135.0514950 143.9311000 123.0999730 130.0587750
 143.7633040 122.4670410 130.7569640 143.0645510 123.3059130 129.7081940
 144.5539020 106.9316510 127.5619610 145.3118380 107.0445390 126.9883640
 144.0916190 107.7685710 127.5163040 151.0952830 109.0455780 130.5521920
 150.2827340 108.6712670 130.2117800 151.5994470 108.2900860 130.8543110
 145.5373700 121.7932960 127.5037890 145.0121320 122.1740990 126.7999850
 145.4618280 122.4183730 128.2247600 146.9264170 107.4580560 126.1021580
 147.4556930 106.6710360 125.9729530 147.5592490 108.1371750 126.3357110
 149.1202010 107.1955700 129.1566970 148.4904750 106.4943010 129.3237100
 148.5807150 107.9559830 128.9400130 149.2457570 106.4739680 141.5919460
 148.9641840 106.9773280 140.8280280 149.6277270 105.6761430 141.2261590
 148.1366670 123.7415340 126.3787140 148.8685490 123.4574620 125.8311030
 148.3960340 123.5028620 127.2686520 147.2981460 119.8580070 126.3833470
 146.6690340 120.3265170 126.9319300 147.4129290 119.0129290 126.8179660
 146.9015050 115.9984560 115.2919700 146.0699930 115.7433270 115.6916210
 147.5096030 116.0695330 116.0277620 146.8816310 120.0324650 115.4877720
 147.1844350 119.1422390 115.3087940 147.6259900 120.5894870 115.2599970
 145.3107000 110.9586450 109.0762090 144.4223700 111.3002420 108.9741970
 145.5948190 110.7586770 108.1842920 143.2740010 113.5592100 114.9601790
 143.8456120 112.7914300 114.9605430 143.2741550 113.8580860 114.0508400
 144.5164880 108.9676460 116.7470720 144.3367720 108.0702210 117.0273480
 144.1144960 109.5148330 117.4217670 147.4868390 109.5417950 110.1100470
 147.5935140 110.4421680 110.4169230 146.5760750 109.4935920 109.8195120
 145.1351550 111.4636960 115.3553060 145.8161660 111.7275330 115.9740460
 144.8199600 110.6237830 115.6891070 149.3276120 112.5104320 114.4425650
 149.8354340 113.0085290 115.0830670 149.8589360 111.7339520 114.2665010
 147.6112220 107.1502880 118.7089070 147.6130660 107.6675270 117.9034970
 146.7816530 106.6733060 118.6859000 148.8615070 116.7898060 116.8862570
 148.5284450 117.4166980 117.5283640 149.0381750 117.3159940 116.1064240
 147.2927550 108.8612840 116.7159520 147.6344360 109.7054890 116.4213390
 146.3543360 109.0096580 116.8324860 148.0734170 118.7578860 118.7011750
 148.6908170 119.4329940 118.4196200 147.2127290 119.1666840 118.6099250
 143.3666510 117.9478720 107.5818600 142.9894490 118.4365820 106.8503500
 143.6239580 118.6204000 108.2125130 150.9755440 106.3495110 113.0404110
 151.2830420 105.7942000 112.3239610 150.0456140 106.4839570 112.8577100
 148.9692840 114.9408680 112.5583960 148.5649840 114.2285930 112.0629860
 149.0555960 114.5961920 113.4472000 149.4374540 118.6276240 114.7223170
 149.1402830 118.0221710 114.0430950 150.3874360 118.6653550 114.6112530
 147.6821460 111.7151890 116.3383000 148.2336050 111.8247230 115.5636250
 148.1964970 112.0889490 117.0538230 148.5292970 118.3657930 121.3730970
 147.6321500 118.5897900 121.6204370 148.5545840 118.4892870 120.4242370
 147.3564190 115.2371250 119.9488340 147.2171960 116.1094050 120.3175740
 146.4745550 114.8944060 119.8036280 149.1544540 121.1792950 122.1573490
 149.1259970 121.5835900 121.2901920 148.9909510 120.2503310 121.9945090
 145.6697470 113.8353660 110.0590610 145.5495070 114.5615750 109.4471880
 145.3598360 113.0656570 109.5818520 143.3082840 117.0068800 115.8659250
 143.3863260 117.1417570 114.9214970 143.9224520 116.2984690 116.0587370
 144.5530470 118.7068990 112.2765430 144.1458550 118.8483580 111.4219030
 145.4443480 118.4229150 112.0736640 148.8252130 122.9214770 110.3888100
 148.6494610 122.0050310 110.1755900 147.9707870 123.2802060 110.6285900
 143.3642360 118.0482970 118.4053710 143.5273400 117.5788330 117.5873080
 143.8294810 117.5406530 119.0702550 148.1361130 107.1788730 113.4414280
 147.6929280 107.9598270 113.1098800 148.6946120 107.5018620 114.1485220
 152.4230940 110.0457250 119.0449600 151.9610310 110.2540270 119.8569540
 152.0209050 109.2316600 118.7420270 151.2519950 106.7999430 108.3220110
 150.6274130 106.7959300 109.0473420 151.1650070 105.9330390 107.9256080
 150.1737030 107.7236060 115.3003880 150.4709360 108.6298890 115.2195900
 150.7222590 107.2354840 114.6863450 147.9275350 112.3022300 111.1695530
 147.7016270 112.0859470 112.0742150 147.1467880 112.7350760 110.8241500
 150.3674560 113.2007880 121.8355800 150.2718160 112.2602610 121.6856200
 151.2106540 113.4222950 121.4403870 145.4985100 109.6121550 119.9889580
 145.1048490 110.4596760 120.1962360 144.8103500 108.9747920 120.1798220
 142.8002150 107.5350010 114.0219660 142.5115200 108.1052870 114.7344640
 143.5447910 107.0554460 114.3850890 142.9872380 111.4770130 105.2322380
 142.9047050 112.4200890 105.3737370 142.6355440 111.3345040 104.3534730
 150.7870510 110.2109160 114.2992730 150.7906570 109.7699110 113.4497270
 151.6821630 110.5326490 114.4064550 146.6372890 110.0935650 113.2586940
 146.2972940 110.5710880 114.0153990 145.8750210 109.6400770 112.8988040
 150.8490660 111.2121240 107.2899490 150.9703480 111.1707720 108.2385310
 150.4639170 112.0745390 107.1346220 149.8612160 113.5222380 106.6882790
 149.2929060 113.0740630 106.0618700 150.5701160 113.8815160 106.1547940
 144.9381340 117.4234400 120.5649520 144.5536130 116.7828070 121.1632480
 145.2493530 118.1270520 121.1344250 151.0878480 114.2710940 116.0458140
 151.4548610 113.7969510 116.7919480 150.8983540 115.1452510 116.3866480
 143.9518970 109.0154630 112.1751610 143.6665890 108.6510300 113.0130230
 143.8897830 108.2835090 111.5614750 148.8777850 113.3119580 118.3642350
 148.5734920 114.1911560 118.5892710 149.8324310 113.3719370 118.3999790
 147.4059640 117.5180570 108.9609200 146.6321900 116.9778190 108.8007920
 148.1354270 116.9987180 108.6226960 147.4497040 117.1860950 112.5988010
 147.9675710 116.3829210 112.5444900 146.9981060 117.1240090 113.4404840
 144.9341580 114.1522320 119.5113710 144.5756520 114.8176170 120.0987050
 144.6396140 113.3205870 119.8826330 148.1354700 114.6106560 122.3953260
 147.8354840 114.7563740 121.4981080 148.9065940 114.0511850 122.3026650
 151.3057230 118.5340760 110.6431230 151.9928360 119.0809970 111.0238820
 150.5189650 119.0781490 110.6780840 143.4449630 114.1513580 106.1348310
 144.3144480 114.4338380 106.4184230 142.9539950 114.9649450 106.0197120
 150.6084440 115.5386790 110.2556590 151.0647220 116.3492040 110.4816780
 150.2572650 115.2209930 111.0875080 146.5096220 105.8824440 110.7279110
 146.3810850 105.8742340 111.6764030 145.6858240 106.2207530 110.3770120
 143.8120880 123.3640960 106.7009940 144.1718520 123.9630300 106.0467210
 143.6713220 123.9100850 107.4744970 143.5090150 107.6415560 120.1885810
 142.7948670 107.8412480 120.7938420 143.9285190 106.8655130 120.5600610
 143.7962740 121.6295820 121.1752340 143.9053860 120.6890560 121.0347730
 143.1443300 121.8950570 120.5266070 151.7875330 119.9011710 122.5750460
 151.4672200 119.1820950 123.1196150 151.1133690 120.5766780 122.6486520
 149.8289500 120.7472160 107.5183610 149.8199600 121.4801850 106.9028120
 148.9087860 120.5003740 107.6110570 145.4296140 115.9687050 108.2630370
 144.8224090 116.7085950 108.2725670 145.9045490 116.0586410 107.4368570
 150.3374990 111.3680760 110.1632700 149.6291140 111.8367100 110.6046310
 150.6219470 110.7102770 110.7977890 151.9630920 112.7877460 118.1625230
 152.4616170 113.2623280 118.8277080 152.1053870 111.8640980 118.3695260
 151.4567210 123.3286720 110.8756470 151.7108710 123.2908110 109.9535840
 150.5079690 123.2020050 110.8684720 148.5410010 109.6765840 107.5383410
 149.3900540 110.1135990 107.4723600 148.1741280 109.9886100 108.3655470
 147.4401430 115.9298200 106.0118940 148.2064700 115.8179560 106.5744370
 147.5176120 115.2336170 105.3595710 146.1348190 113.3623270 106.6951830
 146.2151780 112.4150780 106.8069230 147.0267940 113.6930150 106.8012490
 146.9362900 123.5118660 113.7986370 147.6725380 122.9634120 114.0694940
 147.3203820 124.3774670 113.6592360 143.8208380 119.5792230 109.6727880
 142.8948160 119.8213370 109.6633290 144.2864810 120.4066490 109.5512630
 145.9421180 122.6964730 122.9871950 146.7433910 123.0176780 123.4007350
 145.4273000 122.3360310 123.7091860 150.0465210 122.6848970 105.6211940
 150.8393820 122.9737800 105.1693730 149.5269560 122.2541140 104.9424420
 143.6618990 115.1838190 121.9308000 144.1658010 114.6045470 122.5024230
 142.9226410 115.4678420 122.4684370 150.5642610 117.9052380 105.4854290
 150.4593250 117.2904730 106.2115670 150.3966830 117.3818270 104.7017300
 150.7156930 116.5909180 121.4643520 149.9502600 117.1594180 121.3798190
 150.8972890 116.2985390 120.5711750 145.6942070 113.3267780 122.8258070
 145.7347410 113.0281650 123.7343300 146.5487570 113.7275390 122.6665590
 149.4720460 115.9263330 107.9861580 149.8936880 115.7603200 108.8292970
 149.5971300 115.1163560 107.4916720 147.6347880 111.9059880 120.7932560
 147.1044340 111.4150830 120.1655900 148.3035950 112.3344080 120.2590490
 151.9848100 114.9500940 105.2338680 152.5053760 114.2349960 104.8679830
 152.6316500 115.5886810 105.5339190 148.1220180 108.8722250 120.8729850
 148.0277050 108.2543000 120.1480720 147.5417570 109.5988540 120.6459760
 150.8881620 107.4295490 117.9057240 150.4398920 107.4519750 117.0602790
 150.2546820 107.0314510 118.5027540 151.2941170 116.3249820 118.5269680
 151.7129280 117.1682550 118.3545920 150.3749800 116.4621860 118.2976460
 148.3679360 111.9996560 104.9319740 148.1668420 111.1363920 105.2933080
 148.1971410 111.9129920 103.9941340 149.1448590 122.6302830 119.6427410
 148.6069680 123.3548890 119.3236110 149.3982550 122.1533170 118.8524750
 150.3973840 110.5987350 121.1683340 150.9873530 110.2903200 121.8561160
 149.5794080 110.1267100 121.3243240 147.1662160 109.0997180 104.9197620
 147.4688060 109.1064610 104.0116770 147.9056750 108.7495040 105.4165280
 152.0010800 123.8654040 119.9014060 151.9269500 124.7689180 120.2086430
 151.0989640 123.5465940 119.8736130 150.3847090 108.0431800 105.9053820
 150.0369090 107.3655790 105.3256270 150.5859860 107.5821310 106.7197210
 146.1892290 118.4039600 105.7527420 146.6267160 118.9469270 106.4085000
 146.6740020 117.5786550 105.7623760 143.4038090 121.1928630 113.2047680
 143.7341100 120.3249690 112.9726320 143.8329090 121.3987150 114.0352640
 148.0000010 119.5237640 110.8649650 147.6995550 119.4002610 111.7653560
 147.8937500 118.6646230 110.4565380 143.8928300 122.0599220 115.9429310
 143.4559290 122.2400020 116.7753460 144.4605980 122.8173840 115.8011030
 143.7252730 114.5719450 112.3018190 143.0701570 114.3031090 111.6577890
 144.5630680 114.4623930 111.8520170 144.7628660 114.9572020 116.8421530
 145.1301700 114.8699420 117.7217550 144.1939480 114.1938570 116.7428390
 144.3144660 111.8681110 120.7479950 143.4200710 111.8347870 121.0873660
 144.8542210 112.0667900 121.5131200 142.9390810 111.7818380 108.2443520
 142.0354890 112.0448580 108.0695180 143.4231430 112.0529550 107.4643480
 145.4818020 110.8383920 106.1537900 146.1909720 110.4167140 105.6685180
 144.7657960 110.9059150 105.5221250 145.1292180 106.8923250 105.1940550
 145.8520310 107.4332190 105.5121770 145.4016700 106.6186670 104.3182090
 144.8184370 106.1429440 115.0963170 145.4660560 105.5926820 114.6558330
 145.2386210 106.3972590 115.9178980 144.5716370 106.2985110 117.8388490
 144.2231190 106.7548930 118.6046670 144.2404070 105.4042240 117.9210920
 146.1780740 119.4704710 122.0041680 146.1350370 119.0997620 122.8856140
 146.3091750 120.4082280 122.1443500 149.8786770 121.0264300 117.6051400
 149.6378130 121.2938860 116.7181920 150.8189410 121.1970030 117.6602260
 145.2437010 105.8261310 121.1139260 145.7920000 105.6449360 120.3505370
 145.3092320 105.0355420 121.6495570 146.0168770 122.4166960 119.1239460
 145.4229090 122.2851660 119.8629500 146.0092610 121.5805100 118.6581560
 145.6481000 119.7825340 118.0747500 144.9215060 119.1630630 118.0073450
 145.7090150 120.1765950 117.2045580 149.2526100 121.9970340 114.8596910
 149.7691120 121.3857700 114.3345170 149.9023480 122.4999120 115.3507920
 151.9921600 122.8878830 115.6865890 152.2799410 122.6333130 114.8098900
 152.5044820 122.3356190 116.2771460 143.9311000 123.0999730 111.2844260
 143.7633040 122.4670410 111.9826150 143.0645510 123.3059130 110.9338450
 144.5539020 106.9316510 108.7876120 145.3118380 107.0445390 108.2140150
 144.0916190 107.7685710 108.7419550 151.0952830 109.0455780 111.7778430
 150.2827340 108.6712670 111.4374310 151.5994470 108.2900860 112.0799620
 145.5373700 121.7932960 108.7294400 145.0121320 122.1740990 108.0256360
 145.4618280 122.4183730 109.4504110 146.9264170 107.4580560 107.3278090
 147.4556930 106.6710360 107.1986040 147.5592490 108.1371750 107.5613620
 149.1202010 107.1955700 110.3823480 148.4904750 106.4943010 110.5493610
 148.5807150 107.9559830 110.1656640 149.2457570 106.4739680 122.8175970
 148.9641840 106.9773280 122.0536790 149.6277270 105.6761430 122.4518100
 148.1366670 123.7415340 107.6043650 148.8685490 123.4574620 107.0567540
 148.3960340 123.5028620 108.4943030 147.2981460 119.8580070 107.6089980
 146.6690340 120.3265170 108.1575810 147.4129290 119.0129290 108.0436170
 146.9015050 115.9984560  96.5176210 146.0699930 115.7433270  96.9172720
 147.5096030 116.0695330  97.2534130 146.8816310 120.0324650  96.7134230
 147.1844350 119.1422390  96.5344450 147.6259900 120.5894870  96.4856480
 145.3107000 110.9586450  90.3018600 144.4223700 111.3002420  90.1998480
 145.5948190 110.7586770  89.4099430 143.2740010 113.5592100  96.1858300
 143.8456120 112.7914300  96.1861940 143.2741550 113.8580860  95.2764910
 144.5164880 108.9676460  97.9727230 144.3367720 108.0702210  98.2529990
 144.1144960 109.5148330  98.6474180 147.4868390 109.5417950  91.3356980
 147.5935140 110.4421680  91.6425740 146.5760750 109.4935920  91.0451630
 145.1351550 111.4636960  96.5809570 145.8161660 111.7275330  97.1996970
 144.8199600 110.6237830  96.9147580 149.3276120 112.5104320  95.6682160
 149.8354340 113.0085290  96.3087180 149.8589360 111.7339520  95.4921520
 147.6112220 107.1502880  99.9345580 147.6130660 107.6675270  99.1291480
 146.7816530 106.6733060  99.9115510 148.8615070 116.7898060  98.1119080
 148.5284450 117.4166980  98.7540150 149.0381750 117.3159940  97.3320750
 147.2927550 108.8612840  97.9416030 147.6344360 109.7054890  97.6469900
 146.3543360 109.0096580  98.0581370 148.0734170 118.7578860  99.9268260
 148.6908170 119.4329940  99.6452710 147.2127290 119.1666840  99.8355760
 143.3666510 117.9478720  88.8075110 142.9894490 118.4365820  88.0760010
 143.6239580 118.6204000  89.4381640 150.9755440 106.3495110  94.2660620
 151.2830420 105.7942000  93.5496120 150.0456140 106.4839570  94.0833610
 148.9692840 114.9408680  93.7840470 148.5649840 114.2285930  93.2886370
 149.0555960 114.5961920  94.6728510 149.4374540 118.6276240  95.9479680
 149.1402830 118.0221710  95.2687460 150.3874360 118.6653550  95.8369040
 147.6821460 111.7151890  97.5639510 148.2336050 111.8247230  96.7892760
 148.1964970 112.0889490  98.2794740 148.5292970 118.3657930 102.5987480
 147.6321500 118.5897900 102.8460880 148.5545840 118.4892870 101.6498880
 147.3564190 115.2371250 101.1744850 147.2171960 116.1094050 101.5432250
 146.4745550 114.8944060 101.0292790 149.1544540 121.1792950 103.3830000
 149.1259970 121.5835900 102.5158430 148.9909510 120.2503310 103.2201600
 145.6697470 113.8353660  91.2847120 145.5495070 114.5615750  90.6728390
 145.3598360 113.0656570  90.8075030 143.3082840 117.0068800  97.0915760
 143.3863260 117.1417570  96.1471480 143.9224520 116.2984690  97.2843880
 144.5530470 118.7068990  93.5021940 144.1458550 118.8483580  92.6475540
 145.4443480 118.4229150  93.2993150 148.8252130 122.9214770  91.6144610
 148.6494610 122.0050310  91.4012410 147.9707870 123.2802060  91.8542410
 143.3642360 118.0482970  99.6310220 143.5273400 117.5788330  98.8129590
 143.8294810 117.5406530 100.2959060 148.1361130 107.1788730  94.6670790
 147.6929280 107.9598270  94.3355310 148.6946120 107.5018620  95.3741730
 152.4230940 110.0457250 100.2706110 151.9610310 110.2540270 101.0826050
 152.0209050 109.2316600  99.9676780 151.2519950 106.7999430  89.5476620
 150.6274130 106.7959300  90.2729930 151.1650070 105.9330390  89.1512590
 150.1737030 107.7236060  96.5260390 150.4709360 108.6298890  96.4452410
 150.7222590 107.2354840  95.9119960 147.9275350 112.3022300  92.3952040
 147.7016270 112.0859470  93.2998660 147.1467880 112.7350760  92.0498010
 150.3674560 113.2007880 103.0612310 150.2718160 112.2602610 102.9112710
 151.2106540 113.4222950 102.6660380 145.4985100 109.6121550 101.2146090
 145.1048490 110.4596760 101.4218870 144.8103500 108.9747920 101.4054730
 142.8002150 107.5350010  95.2476170 142.5115200 108.1052870  95.9601150
 143.5447910 107.0554460  95.6107400 142.9872380 111.4770130  86.4578890
 142.9047050 112.4200890  86.5993880 142.6355440 111.3345040  85.5791240
 150.7870510 110.2109160  95.5249240 150.7906570 109.7699110  94.6753780
 151.6821630 110.5326490  95.6321060 146.6372890 110.0935650  94.4843450
 146.2972940 110.5710880  95.2410500 145.8750210 109.6400770  94.1244550
 150.8490660 111.2121240  88.5156000 150.9703480 111.1707720  89.4641820
 150.4639170 112.0745390  88.3602730 149.8612160 113.5222380  87.9139300
 149.2929060 113.0740630  87.2875210 150.5701160 113.8815160  87.3804450
 144.9381340 117.4234400 101.7906030 144.5536130 116.7828070 102.3888990
 145.2493530 118.1270520 102.3600760 151.0878480 114.2710940  97.2714650
 151.4548610 113.7969510  98.0175990 150.8983540 115.1452510  97.6122990
 143.9518970 109.0154630  93.4008120 143.6665890 108.6510300  94.2386740
 143.8897830 108.2835090  92.7871260 148.8777850 113.3119580  99.5898860
 148.5734920 114.1911560  99.8149220 149.8324310 113.3719370  99.6256300
 147.4059640 117.5180570  90.1865710 146.6321900 116.9778190  90.0264430
 148.1354270 116.9987180  89.8483470 147.4497040 117.1860950  93.8244520
 147.9675710 116.3829210  93.7701410 146.9981060 117.1240090  94.6661350
 144.9341580 114.1522320 100.7370220 144.5756520 114.8176170 101.3243560
 144.6396140 113.3205870 101.1082840 148.1354700 114.6106560 103.6209770
 147.8354840 114.7563740 102.7237590 148.9065940 114.0511850 103.5283160
 151.3057230 118.5340760  91.8687740 151.9928360 119.0809970  92.2495330
 150.5189650 119.0781490  91.9037350 143.4449630 114.1513580  87.3604820
 144.3144480 114.4338380  87.6440740 142.9539950 114.9649450  87.2453630
 150.6084440 115.5386790  91.4813100 151.0647220 116.3492040  91.7073290
 150.2572650 115.2209930  92.3131590 146.5096220 105.8824440  91.9535620
 146.3810850 105.8742340  92.9020540 145.6858240 106.2207530  91.6026630
 143.8120880 123.3640960  87.9266450 144.1718520 123.9630300  87.2723720
 143.6713220 123.9100850  88.7001480 143.5090150 107.6415560 101.4142320
 142.7948670 107.8412480 102.0194930 143.9285190 106.8655130 101.7857120
 143.7962740 121.6295820 102.4008850 143.9053860 120.6890560 102.2604240
 143.1443300 121.8950570 101.7522580 151.7875330 119.9011710 103.8006970
 151.4672200 119.1820950 104.3452660 151.1133690 120.5766780 103.8743030
 149.8289500 120.7472160  88.7440120 149.8199600 121.4801850  88.1284630
 148.9087860 120.5003740  88.8367080 145.4296140 115.9687050  89.4886880
 144.8224090 116.7085950  89.4982180 145.9045490 116.0586410  88.6625080
 150.3374990 111.3680760  91.3889210 149.6291140 111.8367100  91.8302820
 150.6219470 110.7102770  92.0234400 151.9630920 112.7877460  99.3881740
 152.4616170 113.2623280 100.0533590 152.1053870 111.8640980  99.5951770
 151.4567210 123.3286720  92.1012980 151.7108710 123.2908110  91.1792350
 150.5079690 123.2020050  92.0941230 148.5410010 109.6765840  88.7639920
 149.3900540 110.1135990  88.6980110 148.1741280 109.9886100  89.5911980
 147.4401430 115.9298200  87.2375450 148.2064700 115.8179560  87.8000880
 147.5176120 115.2336170  86.5852220 146.1348190 113.3623270  87.9208340
 146.2151780 112.4150780  88.0325740 147.0267940 113.6930150  88.0269000
 146.9362900 123.5118660  95.0242880 147.6725380 122.9634120  95.2951450
 147.3203820 124.3774670  94.8848870 143.8208380 119.5792230  90.8984390
 142.8948160 119.8213370  90.8889800 144.2864810 120.4066490  90.7769140
 145.9421180 122.6964730 104.2128460 146.7433910 123.0176780 104.6263860
 145.4273000 122.3360310 104.9348370 150.0465210 122.6848970  86.8468450
 150.8393820 122.9737800  86.3950240 149.5269560 122.2541140  86.1680930
 143.6618990 115.1838190 103.1564510 144.1658010 114.6045470 103.7280740
 142.9226410 115.4678420 103.6940880 150.5642610 117.9052380  86.7110800
 150.4593250 117.2904730  87.4372180 150.3966830 117.3818270  85.9273810
 150.7156930 116.5909180 102.6900030 149.9502600 117.1594180 102.6054700
 150.8972890 116.2985390 101.7968260 145.6942070 113.3267780 104.0514580
 145.7347410 113.0281650 104.9599810 146.5487570 113.7275390 103.8922100
 149.4720460 115.9263330  89.2118090 149.8936880 115.7603200  90.0549480
 149.5971300 115.1163560  88.7173230 147.6347880 111.9059880 102.0189070
 147.1044340 111.4150830 101.3912410 148.3035950 112.3344080 101.4847000
 151.9848100 114.9500940  86.4595190 152.5053760 114.2349960  86.0936340
 152.6316500 115.5886810  86.7595700 148.1220180 108.8722250 102.0986360
 148.0277050 108.2543000 101.3737230 147.5417570 109.5988540 101.8716270
 150.8881620 107.4295490  99.1313750 150.4398920 107.4519750  98.2859300
 150.2546820 107.0314510  99.7284050 151.2941170 116.3249820  99.7526190
 151.7129280 117.1682550  99.5802430 150.3749800 116.4621860  99.5232970
 148.3679360 111.9996560  86.1576250 148.1668420 111.1363920  86.5189590
 148.1971410 111.9129920  85.2197850 149.1448590 122.6302830 100.8683920
 148.6069680 123.3548890 100.5492620 149.3982550 122.1533170 100.0781260
 150.3973840 110.5987350 102.3939850 150.9873530 110.2903200 103.0817670
 149.5794080 110.1267100 102.5499750 147.1662160 109.0997180  86.1454130
 147.4688060 109.1064610  85.2373280 147.9056750 108.7495040  86.6421790
 152.0010800 123.8654040 101.1270570 151.9269500 124.7689180 101.4342940
 151.0989640 123.5465940 101.0992640 150.3847090 108.0431800  87.1310330
 150.0369090 107.3655790  86.5512780 150.5859860 107.5821310  87.9453720
 146.1892290 118.4039600  86.9783930 146.6267160 118.9469270  87.6341510
 146.6740020 117.5786550  86.9880270 143.4038090 121.1928630  94.4304190
 143.7341100 120.3249690  94.1982830 143.8329090 121.3987150  95.2609150
 148.0000010 119.5237640  92.0906160 147.6995550 119.4002610  92.9910070
 147.8937500 118.6646230  91.6821890 143.8928300 122.0599220  97.1685820
 143.4559290 122.2400020  98.0009970 144.4605980 122.8173840  97.0267540
 143.7252730 114.5719450  93.5274700 143.0701570 114.3031090  92.8834400
 144.5630680 114.4623930  93.0776680 144.7628660 114.9572020  98.0678040
 145.1301700 114.8699420  98.9474060 144.1939480 114.1938570  97.9684900
 144.3144660 111.8681110 101.9736460 143.4200710 111.8347870 102.3130170
 144.8542210 112.0667900 102.7387710 142.9390810 111.7818380  89.4700030
 142.0354890 112.0448580  89.2951690 143.4231430 112.0529550  88.6899990
 145.4818020 110.8383920  87.3794410 146.1909720 110.4167140  86.8941690
 144.7657960 110.9059150  86.7477760 145.1292180 106.8923250  86.4197060
 145.8520310 107.4332190  86.7378280 145.4016700 106.6186670  85.5438600
 144.8184370 106.1429440  96.3219680 145.4660560 105.5926820  95.8814840
 145.2386210 106.3972590  97.1435490 144.5716370 106.2985110  99.0645000
 144.2231190 106.7548930  99.8303180 144.2404070 105.4042240  99.1467430
 146.1780740 119.4704710 103.2298190 146.1350370 119.0997620 104.1112650
 146.3091750 120.4082280 103.3700010 149.8786770 121.0264300  98.8307910
 149.6378130 121.2938860  97.9438430 150.8189410 121.1970030  98.8858770
 145.2437010 105.8261310 102.3395770 145.7920000 105.6449360 101.5761880
 145.3092320 105.0355420 102.8752080 146.0168770 122.4166960 100.3495970
 145.4229090 122.2851660 101.0886010 146.0092610 121.5805100  99.8838070
 145.6481000 119.7825340  99.3004010 144.9215060 119.1630630  99.2329960
 145.7090150 120.1765950  98.4302090 149.2526100 121.9970340  96.0853420
 149.7691120 121.3857700  95.5601680 149.9023480 122.4999120  96.5764430
 151.9921600 122.8878830  96.9122400 152.2799410 122.6333130  96.0355410
 152.5044820 122.3356190  97.5027970 143.9311000 123.0999730  92.5100770
 143.7633040 122.4670410  93.2082660 143.0645510 123.3059130  92.1594960
 144.5539020 106.9316510  90.0132630 145.3118380 107.0445390  89.4396660
 144.0916190 107.7685710  89.9676060 151.0952830 109.0455780  93.0034940
 150.2827340 108.6712670  92.6630820 151.5994470 108.2900860  93.3056130
 145.5373700 121.7932960  89.9550910 145.0121320 122.1740990  89.2512870
 145.4618280 122.4183730  90.6760620 146.9264170 107.4580560  88.5534600
 147.4556930 106.6710360  88.4242550 147.5592490 108.1371750  88.7870130
 149.1202010 107.1955700  91.6079990 148.4904750 106.4943010  91.7750120
 148.5807150 107.9559830  91.3913150 149.2457570 106.4739680 104.0432480
 148.9641840 106.9773280 103.2793300 149.6277270 105.6761430 103.6774610
 148.1366670 123.7415340  88.8300160 148.8685490 123.4574620  88.2824050
 148.3960340 123.5028620  89.7199540 147.2981460 119.8580070  88.8346490
 146.6690340 120.3265170  89.3832320 147.4129290 119.0129290  89.2692680
 146.9015050 115.9984560  77.7432720 146.0699930 115.7433270  78.1429230
 147.5096030 116.0695330  78.4790640 146.8816310 120.0324650  77.9390740
 147.1844350 119.1422390  77.7600960 147.6259900 120.5894870  77.7112990
 145.3107000 110.9586450  71.5275110 144.4223700 111.3002420  71.4254990
 145.5948190 110.7586770  70.6355940 143.2740010 113.5592100  77.4114810
 143.8456120 112.7914300  77.4118450 143.2741550 113.8580860  76.5021420
 144.5164880 108.9676460  79.1983740 144.3367720 108.0702210  79.4786500
 144.1144960 109.5148330  79.8730690 147.4868390 109.5417950  72.5613490
 147.5935140 110.4421680  72.8682250 146.5760750 109.4935920  72.2708140
 145.1351550 111.4636960  77.8066080 145.8161660 111.7275330  78.4253480
 144.8199600 110.6237830  78.1404090 149.3276120 112.5104320  76.8938670
 149.8354340 113.0085290  77.5343690 149.8589360 111.7339520  76.7178030
 147.6112220 107.1502880  81.1602090 147.6130660 107.6675270  80.3547990
 146.7816530 106.6733060  81.1372020 148.8615070 116.7898060  79.3375590
 148.5284450 117.4166980  79.9796660 149.0381750 117.3159940  78.5577260
 147.2927550 108.8612840  79.1672540 147.6344360 109.7054890  78.8726410
 146.3543360 109.0096580  79.2837880 148.0734170 118.7578860  81.1524770
 148.6908170 119.4329940  80.8709220 147.2127290 119.1666840  81.0612270
 143.3666510 117.9478720  70.0331620 142.9894490 118.4365820  69.3016520
 143.6239580 118.6204000  70.6638150 150.9755440 106.3495110  75.4917130
 151.2830420 105.7942000  74.7752630 150.0456140 106.4839570  75.3090120
 148.9692840 114.9408680  75.0096980 148.5649840 114.2285930  74.5142880
 149.0555960 114.5961920  75.8985020 149.4374540 118.6276240  77.1736190
 149.1402830 118.0221710  76.4943970 150.3874360 118.6653550  77.0625550
 147.6821460 111.7151890  78.7896020 148.2336050 111.8247230  78.0149270
 148.1964970 112.0889490  79.5051250 148.5292970 118.3657930  83.8243990
 147.6321500 118.5897900  84.0717390 148.5545840 118.4892870  82.8755390
 147.3564190 115.2371250  82.4001360 147.2171960 116.1094050  82.7688760
 146.4745550 114.8944060  82.2549300 149.1544540 121.1792950  84.6086510
 149.1259970 121.5835900  83.7414940 148.9909510 120.2503310  84.4458110
 145.6697470 113.8353660  72.5103630 145.5495070 114.5615750  71.8984900
 145.3598360 113.0656570  72.0331540 143.3082840 117.0068800  78.3172270
 143.3863260 117.1417570  77.3727990 143.9224520 116.2984690  78.5100390
 144.5530470 118.7068990  74.7278450 144.1458550 118.8483580  73.8732050
 145.4443480 118.4229150  74.5249660 148.8252130 122.9214770  72.8401120
 148.6494610 122.0050310  72.6268920 147.9707870 123.2802060  73.0798920
 143.3642360 118.0482970  80.8566730 143.5273400 117.5788330  80.0386100
 143.8294810 117.5406530  81.5215570 148.1361130 107.1788730  75.8927300
 147.6929280 107.9598270  75.5611820 148.6946120 107.5018620  76.5998240
 152.4230940 110.0457250  81.4962620 151.9610310 110.2540270  82.3082560
 152.0209050 109.2316600  81.1933290 151.2519950 106.7999430  70.7733130
 150.6274130 106.7959300  71.4986440 151.1650070 105.9330390  70.3769100
 150.1737030 107.7236060  77.7516900 150.4709360 108.6298890  77.6708920
 150.7222590 107.2354840  77.1376470 147.9275350 112.3022300  73.6208550
 147.7016270 112.0859470  74.5255170 147.1467880 112.7350760  73.2754520
 150.3674560 113.2007880  84.2868820 150.2718160 112.2602610  84.1369220
 151.2106540 113.4222950  83.8916890 145.4985100 109.6121550  82.4402600
 145.1048490 110.4596760  82.6475380 144.8103500 108.9747920  82.6311240
 142.8002150 107.5350010  76.4732680 142.5115200 108.1052870  77.1857660
 143.5447910 107.0554460  76.8363910 142.9872380 111.4770130  67.6835400
 142.9047050 112.4200890  67.8250390 142.6355440 111.3345040  66.8047750
 150.7870510 110.2109160  76.7505750 150.7906570 109.7699110  75.9010290
 151.6821630 110.5326490  76.8577570 146.6372890 110.0935650  75.7099960
 146.2972940 110.5710880  76.4667010 145.8750210 109.6400770  75.3501060
 150.8490660 111.2121240  69.7412510 150.9703480 111.1707720  70.6898330
 150.4639170 112.0745390  69.5859240 149.8612160 113.5222380  69.1395810
 149.2929060 113.0740630  68.5131720 150.5701160 113.8815160  68.6060960
 144.9381340 117.4234400  83.0162540 144.5536130 116.7828070  83.6145500
 145.2493530 118.1270520  83.5857270 151.0878480 114.2710940  78.4971160
 151.4548610 113.7969510  79.2432500 150.8983540 115.1452510  78.8379500
 143.9518970 109.0154630  74.6264630 143.6665890 108.6510300  75.4643250
 143.8897830 108.2835090  74.0127770 148.8777850 113.3119580  80.8155370
 148.5734920 114.1911560  81.0405730 149.8324310 113.3719370  80.8512810
 147.4059640 117.5180570  71.4122220 146.6321900 116.9778190  71.2520940
 148.1354270 116.9987180  71.0739980 147.4497040 117.1860950  75.0501030
 147.9675710 116.3829210  74.9957920 146.9981060 117.1240090  75.8917860
 144.9341580 114.1522320  81.9626730 144.5756520 114.8176170  82.5500070
 144.6396140 113.3205870  82.3339350 148.1354700 114.6106560  84.8466280
 147.8354840 114.7563740  83.9494100 148.9065940 114.0511850  84.7539670
 151.3057230 118.5340760  73.0944250 151.9928360 119.0809970  73.4751840
 150.5189650 119.0781490  73.1293860 143.4449630 114.1513580  68.5861330
 144.3144480 114.4338380  68.8697250 142.9539950 114.9649450  68.4710140
 150.6084440 115.5386790  72.7069610 151.0647220 116.3492040  72.9329800
 150.2572650 115.2209930  73.5388100 146.5096220 105.8824440  73.1792130
 146.3810850 105.8742340  74.1277050 145.6858240 106.2207530  72.8283140
 143.8120880 123.3640960  69.1522960 144.1718520 123.9630300  68.4980230
 143.6713220 123.9100850  69.9257990 143.5090150 107.6415560  82.6398830
 142.7948670 107.8412480  83.2451440 143.9285190 106.8655130  83.0113630
 143.7962740 121.6295820  83.6265360 143.9053860 120.6890560  83.4860750
 143.1443300 121.8950570  82.9779090 151.7875330 119.9011710  85.0263480
 151.4672200 119.1820950  85.5709170 151.1133690 120.5766780  85.0999540
 149.8289500 120.7472160  69.9696630 149.8199600 121.4801850  69.3541140
 148.9087860 120.5003740  70.0623590 145.4296140 115.9687050  70.7143390
 144.8224090 116.7085950  70.7238690 145.9045490 116.0586410  69.8881590
 150.3374990 111.3680760  72.6145720 149.6291140 111.8367100  73.0559330
 150.6219470 110.7102770  73.2490910 151.9630920 112.7877460  80.6138250
 152.4616170 113.2623280  81.2790100 152.1053870 111.8640980  80.8208280
 151.4567210 123.3286720  73.3269490 151.7108710 123.2908110  72.4048860
 150.5079690 123.2020050  73.3197740 148.5410010 109.6765840  69.9896430
 149.3900540 110.1135990  69.9236620 148.1741280 109.9886100  70.8168490
 147.4401430 115.9298200  68.4631960 148.2064700 115.8179560  69.0257390
 147.5176120 115.2336170  67.8108730 146.1348190 113.3623270  69.1464850
 146.2151780 112.4150780  69.2582250 147.0267940 113.6930150  69.2525510
 146.9362900 123.5118660  76.2499390 147.6725380 122.9634120  76.5207960
 147.3203820 124.3774670  76.1105380 143.8208380 119.5792230  72.1240900
 142.8948160 119.8213370  72.1146310 144.2864810 120.4066490  72.0025650
 145.9421180 122.6964730  85.4384970 146.7433910 123.0176780  85.8520370
 145.4273000 122.3360310  86.1604880 150.0465210 122.6848970  68.0724960
 150.8393820 122.9737800  67.6206750 149.5269560 122.2541140  67.3937440
 143.6618990 115.1838190  84.3821020 144.1658010 114.6045470  84.9537250
 142.9226410 115.4678420  84.9197390 150.5642610 117.9052380  67.9367310
 150.4593250 117.2904730  68.6628690 150.3966830 117.3818270  67.1530320
 150.7156930 116.5909180  83.9156540 149.9502600 117.1594180  83.8311210
 150.8972890 116.2985390  83.0224770 145.6942070 113.3267780  85.2771090
 145.7347410 113.0281650  86.1856320 146.5487570 113.7275390  85.1178610
 149.4720460 115.9263330  70.4374600 149.8936880 115.7603200  71.2805990
 149.5971300 115.1163560  69.9429740 147.6347880 111.9059880  83.2445580
 147.1044340 111.4150830  82.6168920 148.3035950 112.3344080  82.7103510
 151.9848100 114.9500940  67.6851700 152.5053760 114.2349960  67.3192850
 152.6316500 115.5886810  67.9852210 148.1220180 108.8722250  83.3242870
 148.0277050 108.2543000  82.5993740 147.5417570 109.5988540  83.0972780
 150.8881620 107.4295490  80.3570260 150.4398920 107.4519750  79.5115810
 150.2546820 107.0314510  80.9540560 151.2941170 116.3249820  80.9782700
 151.7129280 117.1682550  80.8058940 150.3749800 116.4621860  80.7489480
 148.3679360 111.9996560  67.3832760 148.1668420 111.1363920  67.7446100
 148.1971410 111.9129920  66.4454360 149.1448590 122.6302830  82.0940430
 148.6069680 123.3548890  81.7749130 149.3982550 122.1533170  81.3037770
 150.3973840 110.5987350  83.6196360 150.9873530 110.2903200  84.3074180
 149.5794080 110.1267100  83.7756260 147.1662160 109.0997180  67.3710640
 147.4688060 109.1064610  66.4629790 147.9056750 108.7495040  67.8678300
 152.0010800 123.8654040  82.3527080 151.9269500 124.7689180  82.6599450
 151.0989640 123.5465940  82.3249150 150.3847090 108.0431800  68.3566840
 150.0369090 107.3655790  67.7769290 150.5859860 107.5821310  69.1710230
 146.1892290 118.4039600  68.2040440 146.6267160 118.9469270  68.8598020
 146.6740020 117.5786550  68.2136780 143.4038090 121.1928630  75.6560700
 143.7341100 120.3249690  75.4239340 143.8329090 121.3987150  76.4865660
 148.0000010 119.5237640  73.3162670 147.6995550 119.4002610  74.2166580
 147.8937500 118.6646230  72.9078400 143.8928300 122.0599220  78.3942330
 143.4559290 122.2400020  79.2266480 144.4605980 122.8173840  78.2524050
 143.7252730 114.5719450  74.7531210 143.0701570 114.3031090  74.1090910
 144.5630680 114.4623930  74.3033190 144.7628660 114.9572020  79.2934550
 145.1301700 114.8699420  80.1730570 144.1939480 114.1938570  79.1941410
 144.3144660 111.8681110  83.1992970 143.4200710 111.8347870  83.5386680
 144.8542210 112.0667900  83.9644220 142.9390810 111.7818380  70.6956540
 142.0354890 112.0448580  70.5208200 143.4231430 112.0529550  69.9156500
 145.4818020 110.8383920  68.6050920 146.1909720 110.4167140  68.1198200
 144.7657960 110.9059150  67.9734270 145.1292180 106.8923250  67.6453570
 145.8520310 107.4332190  67.9634790 145.4016700 106.6186670  66.7695110
 144.8184370 106.1429440  77.5476190 145.4660560 105.5926820  77.1071350
 145.2386210 106.3972590  78.3692000 144.5716370 106.2985110  80.2901510
 144.2231190 106.7548930  81.0559690 144.2404070 105.4042240  80.3723940
 146.1780740 119.4704710  84.4554700 146.1350370 119.0997620  85.3369160
 146.3091750 120.4082280  84.5956520 149.8786770 121.0264300  80.0564420
 149.6378130 121.2938860  79.1694940 150.8189410 121.1970030  80.1115280
 145.2437010 105.8261310  83.5652280 145.7920000 105.6449360  82.8018390
 145.3092320 105.0355420  84.1008590 146.0168770 122.4166960  81.5752480
 145.4229090 122.2851660  82.3142520 146.0092610 121.5805100  81.1094580
 145.6481000 119.7825340  80.5260520 144.9215060 119.1630630  80.4586470
 145.7090150 120.1765950  79.6558600 149.2526100 121.9970340  77.3109930
 149.7691120 121.3857700  76.7858190 149.9023480 122.4999120  77.8020940
 151.9921600 122.8878830  78.1378910 152.2799410 122.6333130  77.2611920
 152.5044820 122.3356190  78.7284480 143.9311000 123.0999730  73.7357280
 143.7633040 122.4670410  74.4339170 143.0645510 123.3059130  73.3851470
 144.5539020 106.9316510  71.2389140 145.3118380 107.0445390  70.6653170
 144.0916190 107.7685710  71.1932570 151.0952830 109.0455780  74.2291450
 150.2827340 108.6712670  73.8887330 151.5994470 108.2900860  74.5312640
 145.5373700 121.7932960  71.1807420 145.0121320 122.1740990  70.4769380
 145.4618280 122.4183730  71.9017130 146.9264170 107.4580560  69.7791110
 147.4556930 106.6710360  69.6499060 147.5592490 108.1371750  70.0126640
 149.1202010 107.1955700  72.8336500 148.4904750 106.4943010  73.0006630
 148.5807150 107.9559830  72.6169660 149.2457570 106.4739680  85.2688990
 148.9641840 106.9773280  84.5049810 149.6277270 105.6761430  84.9031120
 148.1366670 123.7415340  70.0556670 148.8685490 123.4574620  69.5080560
 148.3960340 123.5028620  70.9456050 147.2981460 119.8580070  70.0603000
 146.6690340 120.3265170  70.6088830 147.4129290 119.0129290  70.4949190
 146.9015050 115.9984560  58.9689230 146.0699930 115.7433270  59.3685740
 147.5096030 116.0695330  59.7047150 146.8816310 120.0324650  59.1647250
 147.1844350 119.1422390  58.9857470 147.6259900 120.5894870  58.9369500
 145.3107000 110.9586450  52.7531620 144.4223700 111.3002420  52.6511500
 145.5948190 110.7586770  51.8612450 143.2740010 113.5592100  58.6371320
 143.8456120 112.7914300  58.6374960 143.2741550 113.8580860  57.7277930
 144.5164880 108.9676460  60.4240250 144.3367720 108.0702210  60.7043010
 144.1144960 109.5148330  61.0987200 147.4868390 109.5417950  53.7870000
 147.5935140 110.4421680  54.0938760 146.5760750 109.4935920  53.4964650
 145.1351550 111.4636960  59.0322590 145.8161660 111.7275330  59.6509990
 144.8199600 110.6237830  59.3660600 149.3276120 112.5104320  58.1195180
 149.8354340 113.0085290  58.7600200 149.8589360 111.7339520  57.9434540
 147.6112220 107.1502880  62.3858600 147.6130660 107.6675270  61.5804500
 146.7816530 106.6733060  62.3628530 148.8615070 116.7898060  60.5632100
 148.5284450 117.4166980  61.2053170 149.0381750 117.3159940  59.7833770
 147.2927550 108.8612840  60.3929050 147.6344360 109.7054890  60.0982920
 146.3543360 109.0096580  60.5094390 148.0734170 118.7578860  62.3781280
 148.6908170 119.4329940  62.0965730 147.2127290 119.1666840  62.2868780
 143.3666510 117.9478720  51.2588130 142.9894490 118.4365820  50.5273030
 143.6239580 118.6204000  51.8894660 150.9755440 106.3495110  56.7173640
 151.2830420 105.7942000  56.0009140 150.0456140 106.4839570  56.5346630
 148.9692840 114.9408680  56.2353490 148.5649840 114.2285930  55.7399390
 149.0555960 114.5961920  57.1241530 149.4374540 118.6276240  58.3992700
 149.1402830 118.0221710  57.7200480 150.3874360 118.6653550  58.2882060
 147.6821460 111.7151890  60.0152530 148.2336050 111.8247230  59.2405780
 148.1964970 112.0889490  60.7307760 148.5292970 118.3657930  65.0500500
 147.6321500 118.5897900  65.2973900 148.5545840 118.4892870  64.1011900
 147.3564190 115.2371250  63.6257870 147.2171960 116.1094050  63.9945270
 146.4745550 114.8944060  63.4805810 149.1544540 121.1792950  65.8343020
 149.1259970 121.5835900  64.9671450 148.9909510 120.2503310  65.6714620
 145.6697470 113.8353660  53.7360140 145.5495070 114.5615750  53.1241410
 145.3598360 113.0656570  53.2588050 143.3082840 117.0068800  59.5428780
 143.3863260 117.1417570  58.5984500 143.9224520 116.2984690  59.7356900
 144.5530470 118.7068990  55.9534960 144.1458550 118.8483580  55.0988560
 145.4443480 118.4229150  55.7506170 148.8252130 122.9214770  54.0657630
 148.6494610 122.0050310  53.8525430 147.9707870 123.2802060  54.3055430
 143.3642360 118.0482970  62.0823240 143.5273400 117.5788330  61.2642610
 143.8294810 117.5406530  62.7472080 148.1361130 107.1788730  57.1183810
 147.6929280 107.9598270  56.7868330 148.6946120 107.5018620  57.8254750
 152.4230940 110.0457250  62.7219130 151.9610310 110.2540270  63.5339070
 152.0209050 109.2316600  62.4189800 151.2519950 106.7999430  51.9989640
 150.6274130 106.7959300  52.7242950 151.1650070 105.9330390  51.6025610
 150.1737030 107.7236060  58.9773410 150.4709360 108.6298890  58.8965430
 150.7222590 107.2354840  58.3632980 147.9275350 112.3022300  54.8465060
 147.7016270 112.0859470  55.7511680 147.1467880 112.7350760  54.5011030
 150.3674560 113.2007880  65.5125330 150.2718160 112.2602610  65.3625730
 151.2106540 113.4222950  65.1173400 145.4985100 109.6121550  63.6659110
 145.1048490 110.4596760  63.8731890 144.8103500 108.9747920  63.8567750
 142.8002150 107.5350010  57.6989190 142.5115200 108.1052870  58.4114170
 143.5447910 107.0554460  58.0620420 142.9872380 111.4770130  48.9091910
 142.9047050 112.4200890  49.0506900 142.6355440 111.3345040  48.0304260
 150.7870510 110.2109160  57.9762260 150.7906570 109.7699110  57.1266800
 151.6821630 110.5326490  58.0834080 146.6372890 110.0935650  56.9356470
 146.2972940 110.5710880  57.6923520 145.8750210 109.6400770  56.5757570
 150.8490660 111.2121240  50.9669020 150.9703480 111.1707720  51.9154840
 150.4639170 112.0745390  50.8115750 149.8612160 113.5222380  50.3652320
 149.2929060 113.0740630  49.7388230 150.5701160 113.8815160  49.8317470
 144.9381340 117.4234400  64.2419050 144.5536130 116.7828070  64.8402010
 145.2493530 118.1270520  64.8113780 151.0878480 114.2710940  59.7227670
 151.4548610 113.7969510  60.4689010 150.8983540 115.1452510  60.0636010
 143.9518970 109.0154630  55.8521140 143.6665890 108.6510300  56.6899760
 143.8897830 108.2835090  55.2384280 148.8777850 113.3119580  62.0411880
 148.5734920 114.1911560  62.2662240 149.8324310 113.3719370  62.0769320
 147.4059640 117.5180570  52.6378730 146.6321900 116.9778190  52.4777450
 148.1354270 116.9987180  52.2996490 147.4497040 117.1860950  56.2757540
 147.9675710 116.3829210  56.2214430 146.9981060 117.1240090  57.1174370
 144.9341580 114.1522320  63.1883240 144.5756520 114.8176170  63.7756580
 144.6396140 113.3205870  63.5595860 148.1354700 114.6106560  66.0722790
 147.8354840 114.7563740  65.1750610 148.9065940 114.0511850  65.9796180
 151.3057230 118.5340760  54.3200760 151.9928360 119.0809970  54.7008350
 150.5189650 119.0781490  54.3550370 143.4449630 114.1513580  49.8117840
 144.3144480 114.4338380  50.0953760 142.9539950 114.9649450  49.6966650
 150.6084440 115.5386790  53.9326120 151.0647220 116.3492040  54.1586310
 150.2572650 115.2209930  54.7644610 146.5096220 105.8824440  54.4048640
 146.3810850 105.8742340  55.3533560 145.6858240 106.2207530  54.0539650
 143.8120880 123.3640960  50.3779470 144.1718520 123.9630300  49.7236740
 143.6713220 123.9100850  51.1514500 143.5090150 107.6415560  63.8655340
 142.7948670 107.8412480  64.4707950 143.9285190 106.8655130  64.2370140
 143.7962740 121.6295820  64.8521870 143.9053860 120.6890560  64.7117260
 143.1443300 121.8950570  64.2035600 151.7875330 119.9011710  66.2519990
 151.4672200 119.1820950  66.7965680 151.1133690 120.5766780  66.3256050
 149.8289500 120.7472160  51.1953140 149.8199600 121.4801850  50.5797650
 148.9087860 120.5003740  51.2880100 145.4296140 115.9687050  51.9399900
 144.8224090 116.7085950  51.9495200 145.9045490 116.0586410  51.1138100
 150.3374990 111.3680760  53.8402230 149.6291140 111.8367100  54.2815840
 150.6219470 110.7102770  54.4747420 151.9630920 112.7877460  61.8394760
 152.4616170 113.2623280  62.5046610 152.1053870 111.8640980  62.0464790
 151.4567210 123.3286720  54.5526000 151.7108710 123.2908110  53.6305370
 150.5079690 123.2020050  54.5454250 148.5410010 109.6765840  51.2152940
 149.3900540 110.1135990  51.1493130 148.1741280 109.9886100  52.0425000
 147.4401430 115.9298200  49.6888470 148.2064700 115.8179560  50.2513900
 147.5176120 115.2336170  49.0365240 146.1348190 113.3623270  50.3721360
 146.2151780 112.4150780  50.4838760 147.0267940 113.6930150  50.4782020
 146.9362900 123.5118660  57.4755900 147.6725380 122.9634120  57.7464470
 147.3203820 124.3774670  57.3361890 143.8208380 119.5792230  53.3497410
 142.8948160 119.8213370  53.3402820 144.2864810 120.4066490  53.2282160
 145.9421180 122.6964730  66.6641480 146.7433910 123.0176780  67.0776880
 145.4273000 122.3360310  67.3861390 150.0465210 122.6848970  49.2981470
 150.8393820 122.9737800  48.8463260 149.5269560 122.2541140  48.6193950
 143.6618990 115.1838190  65.6077530 144.1658010 114.6045470  66.1793760
 142.9226410 115.4678420  66.1453900 150.5642610 117.9052380  49.1623820
 150.4593250 117.2904730  49.8885200 150.3966830 117.3818270  48.3786830
 150.7156930 116.5909180  65.1413050 149.9502600 117.1594180  65.0567720
 150.8972890 116.2985390  64.2481280 145.6942070 113.3267780  66.5027600
 145.7347410 113.0281650  67.4112830 146.5487570 113.7275390  66.3435120
 149.4720460 115.9263330  51.6631110 149.8936880 115.7603200  52.5062500
 149.5971300 115.1163560  51.1686250 147.6347880 111.9059880  64.4702090
 147.1044340 111.4150830  63.8425430 148.3035950 112.3344080  63.9360020
 151.9848100 114.9500940  48.9108210 152.5053760 114.2349960  48.5449360
 152.6316500 115.5886810  49.2108720 148.1220180 108.8722250  64.5499380
 148.0277050 108.2543000  63.8250250 147.5417570 109.5988540  64.3229290
 150.8881620 107.4295490  61.5826770 150.4398920 107.4519750  60.7372320
 150.2546820 107.0314510  62.1797070 151.2941170 116.3249820  62.2039210
 151.7129280 117.1682550  62.0315450 150.3749800 116.4621860  61.9745990
 148.3679360 111.9996560  48.6089270 148.1668420 111.1363920  48.9702610
 148.1971410 111.9129920  47.6710870 149.1448590 122.6302830  63.3196940
 148.6069680 123.3548890  63.0005640 149.3982550 122.1533170  62.5294280
 150.3973840 110.5987350  64.8452870 150.9873530 110.2903200  65.5330690
 149.5794080 110.1267100  65.0012770 147.1662160 109.0997180  48.5967150
 147.4688060 109.1064610  47.6886300 147.9056750 108.7495040  49.0934810
 152.0010800 123.8654040  63.5783590 151.9269500 124.7689180  63.8855960
 151.0989640 123.5465940  63.5505660 150.3847090 108.0431800  49.5823350
 150.0369090 107.3655790  49.0025800 150.5859860 107.5821310  50.3966740
 146.1892290 118.4039600  49.4296950 146.6267160 118.9469270  50.0854530
 146.6740020 117.5786550  49.4393290 143.4038090 121.1928630  56.8817210
 143.7341100 120.3249690  56.6495850 143.8329090 121.3987150  57.7122170
 148.0000010 119.5237640  54.5419180 147.6995550 119.4002610  55.4423090
 147.8937500 118.6646230  54.1334910 143.8928300 122.0599220  59.6198840
 143.4559290 122.2400020  60.4522990 144.4605980 122.8173840  59.4780560
 143.7252730 114.5719450  55.9787720 143.0701570 114.3031090  55.3347420
 144.5630680 114.4623930  55.5289700 144.7628660 114.9572020  60.5191060
 145.1301700 114.8699420  61.3987080 144.1939480 114.1938570  60.4197920
 144.3144660 111.8681110  64.4249480 143.4200710 111.8347870  64.7643190
 144.8542210 112.0667900  65.1900730 142.9390810 111.7818380  51.9213050
 142.0354890 112.0448580  51.7464710 143.4231430 112.0529550  51.1413010
 145.4818020 110.8383920  49.8307430 146.1909720 110.4167140  49.3454710
 144.7657960 110.9059150  49.1990780 145.1292180 106.8923250  48.8710080
 145.8520310 107.4332190  49.1891300 145.4016700 106.6186670  47.9951620
 144.8184370 106.1429440  58.7732700 145.4660560 105.5926820  58.3327860
 145.2386210 106.3972590  59.5948510 144.5716370 106.2985110  61.5158020
 144.2231190 106.7548930  62.2816200 144.2404070 105.4042240  61.5980450
 146.1780740 119.4704710  65.6811210 146.1350370 119.0997620  66.5625670
 146.3091750 120.4082280  65.8213030 149.8786770 121.0264300  61.2820930
 149.6378130 121.2938860  60.3951450 150.8189410 121.1970030  61.3371790
 145.2437010 105.8261310  64.7908790 145.7920000 105.6449360  64.0274900
 145.3092320 105.0355420  65.3265100 146.0168770 122.4166960  62.8008990
 145.4229090 122.2851660  63.5399030 146.0092610 121.5805100  62.3351090
 145.6481000 119.7825340  61.7517030 144.9215060 119.1630630  61.6842980
 145.7090150 120.1765950  60.8815110 149.2526100 121.9970340  58.5366440
 149.7691120 121.3857700  58.0114700 149.9023480 122.4999120  59.0277450
 151.9921600 122.8878830  59.3635420 152.2799410 122.6333130  58.4868430
 152.5044820 122.3356190  59.9540990 143.9311000 123.0999730  54.9613790
 143.7633040 122.4670410  55.6595680 143.0645510 123.3059130  54.6107980
 144.5539020 106.9316510  52.4645650 145.3118380 107.0445390  51.8909680
 144.0916190 107.7685710  52.4189080 151.0952830 109.0455780  55.4547960
 150.2827340 108.6712670  55.1143840 151.5994470 108.2900860  55.7569150
 145.5373700 121.7932960  52.4063930 145.0121320 122.1740990  51.7025890
 145.4618280 122.4183730  53.1273640 146.9264170 107.4580560  51.0047620
 147.4556930 106.6710360  50.8755570 147.5592490 108.1371750  51.2383150
 149.1202010 107.1955700  54.0593010 148.4904750 106.4943010  54.2263140
 148.5807150 107.9559830  53.8426170 149.2457570 106.4739680  66.4945500
 148.9641840 106.9773280  65.7306320 149.6277270 105.6761430  66.1287630
 148.1366670 123.7415340  51.2813180 148.8685490 123.4574620  50.7337070
 148.3960340 123.5028620  52.1712560 147.2981460 119.8580070  51.2859510
 146.6690340 120.3265170  51.8345340 147.4129290 119.0129290  51.7205700
 146.9015050 115.9984560  40.1945740 146.0699930 115.7433270  40.5942250
 147.5096030 116.0695330  40.9303660 146.8816310 120.0324650  40.3903760
 147.1844350 119.1422390  40.2113980 147.6259900 120.5894870  40.1626010
 145.3107000 110.9586450  33.9788130 144.4223700 111.3002420  33.8768010
 145.5948190 110.7586770  33.0868960 143.2740010 113.5592100  39.8627830
 143.8456120 112.7914300  39.8631470 143.2741550 113.8580860  38.9534440
 144.5164880 108.9676460  41.6496760 144.3367720 108.0702210  41.9299520
 144.1144960 109.5148330  42.3243710 147.4868390 109.5417950  35.0126510
 147.5935140 110.4421680  35.3195270 146.5760750 109.4935920  34.7221160
 145.1351550 111.4636960  40.2579100 145.8161660 111.7275330  40.8766500
 144.8199600 110.6237830  40.5917110 149.3276120 112.5104320  39.3451690
 149.8354340 113.0085290  39.9856710 149.8589360 111.7339520  39.1691050
 147.6112220 107.1502880  43.6115110 147.6130660 107.6675270  42.8061010
 146.7816530 106.6733060  43.5885040 148.8615070 116.7898060  41.7888610
 148.5284450 117.4166980  42.4309680 149.0381750 117.3159940  41.0090280
 147.2927550 108.8612840  41.6185560 147.6344360 109.7054890  41.3239430
 146.3543360 109.0096580  41.7350900 148.0734170 118.7578860  43.6037790
 148.6908170 119.4329940  43.3222240 147.2127290 119.1666840  43.5125290
 143.3666510 117.9478720  32.4844640 142.9894490 118.4365820  31.7529540
 143.6239580 118.6204000  33.1151170 150.9755440 106.3495110  37.9430150
 151.2830420 105.7942000  37.2265650 150.0456140 106.4839570  37.7603140
 148.9692840 114.9408680  37.4610000 148.5649840 114.2285930  36.9655900
 149.0555960 114.5961920  38.3498040 149.4374540 118.6276240  39.6249210
 149.1402830 118.0221710  38.9456990 150.3874360 118.6653550  39.5138570
 147.6821460 111.7151890  41.2409040 148.2336050 111.8247230  40.4662290
 148.1964970 112.0889490  41.9564270 148.5292970 118.3657930  46.2757010
 147.6321500 118.5897900  46.5230410 148.5545840 118.4892870  45.3268410
 147.3564190 115.2371250  44.8514380 147.2171960 116.1094050  45.2201780
 146.4745550 114.8944060  44.7062320 149.1544540 121.1792950  47.0599530
 149.1259970 121.5835900  46.1927960 148.9909510 120.2503310  46.8971130
 145.6697470 113.8353660  34.9616650 145.5495070 114.5615750  34.3497920
 145.3598360 113.0656570  34.4844560 143.3082840 117.0068800  40.7685290
 143.3863260 117.1417570  39.8241010 143.9224520 116.2984690  40.9613410
 144.5530470 118.7068990  37.1791470 144.1458550 118.8483580  36.3245070
 145.4443480 118.4229150  36.9762680 148.8252130 122.9214770  35.2914140
 148.6494610 122.0050310  35.0781940 147.9707870 123.2802060  35.5311940
 143.3642360 118.0482970  43.3079750 143.5273400 117.5788330  42.4899120
 143.8294810 117.5406530  43.9728590 148.1361130 107.1788730  38.3440320
 147.6929280 107.9598270  38.0124840 148.6946120 107.5018620  39.0511260
 152.4230940 110.0457250  43.9475640 151.9610310 110.2540270  44.7595580
 152.0209050 109.2316600  43.6446310 151.2519950 106.7999430  33.2246150
 150.6274130 106.7959300  33.9499460 151.1650070 105.9330390  32.8282120
 150.1737030 107.7236060  40.2029920 150.4709360 108.6298890  40.1221940
 150.7222590 107.2354840  39.5889490 147.9275350 112.3022300  36.0721570
 147.7016270 112.0859470  36.9768190 147.1467880 112.7350760  35.7267540
 150.3674560 113.2007880  46.7381840 150.2718160 112.2602610  46.5882240
 151.2106540 113.4222950  46.3429910 145.4985100 109.6121550  44.8915620
 145.1048490 110.4596760  45.0988400 144.8103500 108.9747920  45.0824260
 142.8002150 107.5350010  38.9245700 142.5115200 108.1052870  39.6370680
 143.5447910 107.0554460  39.2876930 142.9872380 111.4770130  30.1348420
 142.9047050 112.4200890  30.2763410 142.6355440 111.3345040  29.2560770
 150.7870510 110.2109160  39.2018770 150.7906570 109.7699110  38.3523310
 151.6821630 110.5326490  39.3090590 146.6372890 110.0935650  38.1612980
 146.2972940 110.5710880  38.9180030 145.8750210 109.6400770  37.8014080
 150.8490660 111.2121240  32.1925530 150.9703480 111.1707720  33.1411350
 150.4639170 112.0745390  32.0372260 149.8612160 113.5222380  31.5908830
 149.2929060 113.0740630  30.9644740 150.5701160 113.8815160  31.0573980
 144.9381340 117.4234400  45.4675560 144.5536130 116.7828070  46.0658520
 145.2493530 118.1270520  46.0370290 151.0878480 114.2710940  40.9484180
 151.4548610 113.7969510  41.6945520 150.8983540 115.1452510  41.2892520
 143.9518970 109.0154630  37.0777650 143.6665890 108.6510300  37.9156270
 143.8897830 108.2835090  36.4640790 148.8777850 113.3119580  43.2668390
 148.5734920 114.1911560  43.4918750 149.8324310 113.3719370  43.3025830
 147.4059640 117.5180570  33.8635240 146.6321900 116.9778190  33.7033960
 148.1354270 116.9987180  33.5253000 147.4497040 117.1860950  37.5014050
 147.9675710 116.3829210  37.4470940 146.9981060 117.1240090  38.3430880
 144.9341580 114.1522320  44.4139750 144.5756520 114.8176170  45.0013090
 144.6396140 113.3205870  44.7852370 148.1354700 114.6106560  47.2979300
 147.8354840 114.7563740  46.4007120 148.9065940 114.0511850  47.2052690
 151.3057230 118.5340760  35.5457270 151.9928360 119.0809970  35.9264860
 150.5189650 119.0781490  35.5806880 143.4449630 114.1513580  31.0374350
 144.3144480 114.4338380  31.3210270 142.9539950 114.9649450  30.9223160
 150.6084440 115.5386790  35.1582630 151.0647220 116.3492040  35.3842820
 150.2572650 115.2209930  35.9901120 146.5096220 105.8824440  35.6305150
 146.3810850 105.8742340  36.5790070 145.6858240 106.2207530  35.2796160
 143.8120880 123.3640960  31.6035980 144.1718520 123.9630300  30.9493250
 143.6713220 123.9100850  32.3771010 143.5090150 107.6415560  45.0911850
 142.7948670 107.8412480  45.6964460 143.9285190 106.8655130  45.4626650
 143.7962740 121.6295820  46.0778380 143.9053860 120.6890560  45.9373770
 143.1443300 121.8950570  45.4292110 151.7875330 119.9011710  47.4776500
 151.4672200 119.1820950  48.0222190 151.1133690 120.5766780  47.5512560
 149.8289500 120.7472160  32.4209650 149.8199600 121.4801850  31.8054160
 148.9087860 120.5003740  32.5136610 145.4296140 115.9687050  33.1656410
 144.8224090 116.7085950  33.1751710 145.9045490 116.0586410  32.3394610
 150.3374990 111.3680760  35.0658740 149.6291140 111.8367100  35.5072350
 150.6219470 110.7102770  35.7003930 151.9630920 112.7877460  43.0651270
 152.4616170 113.2623280  43.7303120 152.1053870 111.8640980  43.2721300
 151.4567210 123.3286720  35.7782510 151.7108710 123.2908110  34.8561880
 150.5079690 123.2020050  35.7710760 148.5410010 109.6765840  32.4409450
 149.3900540 110.1135990  32.3749640 148.1741280 109.9886100  33.2681510
 147.4401430 115.9298200  30.9144980 148.2064700 115.8179560  31.4770410
 147.5176120 115.2336170  30.2621750 146.1348190 113.3623270  31.5977870
 146.2151780 112.4150780  31.7095270 147.0267940 113.6930150  31.7038530
 146.9362900 123.5118660  38.7012410 147.6725380 122.9634120  38.9720980
 147.3203820 124.3774670  38.5618400 143.8208380 119.5792230  34.5753920
 142.8948160 119.8213370  34.5659330 144.2864810 120.4066490  34.4538670
 145.9421180 122.6964730  47.8897990 146.7433910 123.0176780  48.3033390
 145.4273000 122.3360310  48.6117900 150.0465210 122.6848970  30.5237980
 150.8393820 122.9737800  30.0719770 149.5269560 122.2541140  29.8450460
 143.6618990 115.1838190  46.8334040 144.1658010 114.6045470  47.4050270
 142.9226410 115.4678420  47.3710410 150.5642610 117.9052380  30.3880330
 150.4593250 117.2904730  31.1141710 150.3966830 117.3818270  29.6043340
 150.7156930 116.5909180  46.3669560 149.9502600 117.1594180  46.2824230
 150.8972890 116.2985390  45.4737790 145.6942070 113.3267780  47.7284110
 145.7347410 113.0281650  48.6369340 146.5487570 113.7275390  47.5691630
 149.4720460 115.9263330  32.8887620 149.8936880 115.7603200  33.7319010
 149.5971300 115.1163560  32.3942760 147.6347880 111.9059880  45.6958600
 147.1044340 111.4150830  45.0681940 148.3035950 112.3344080  45.1616530
 151.9848100 114.9500940  30.1364720 152.5053760 114.2349960  29.7705870
 152.6316500 115.5886810  30.4365230 148.1220180 108.8722250  45.7755890
 148.0277050 108.2543000  45.0506760 147.5417570 109.5988540  45.5485800
 150.8881620 107.4295490  42.8083280 150.4398920 107.4519750  41.9628830
 150.2546820 107.0314510  43.4053580 151.2941170 116.3249820  43.4295720
 151.7129280 117.1682550  43.2571960 150.3749800 116.4621860  43.2002500
 148.3679360 111.9996560  29.8345780 148.1668420 111.1363920  30.1959120
 148.1971410 111.9129920  28.8967380 149.1448590 122.6302830  44.5453450
 148.6069680 123.3548890  44.2262150 149.3982550 122.1533170  43.7550790
 150.3973840 110.5987350  46.0709380 150.9873530 110.2903200  46.7587200
 149.5794080 110.1267100  46.2269280 147.1662160 109.0997180  29.8223660
 147.4688060 109.1064610  28.9142810 147.9056750 108.7495040  30.3191320
 152.0010800 123.8654040  44.8040100 151.9269500 124.7689180  45.1112470
 151.0989640 123.5465940  44.7762170 150.3847090 108.0431800  30.8079860
 150.0369090 107.3655790  30.2282310 150.5859860 107.5821310  31.6223250
 146.1892290 118.4039600  30.6553460 146.6267160 118.9469270  31.3111040
 146.6740020 117.5786550  30.6649800 143.4038090 121.1928630  38.1073720
 143.7341100 120.3249690  37.8752360 143.8329090 121.3987150  38.9378680
 148.0000010 119.5237640  35.7675690 147.6995550 119.4002610  36.6679600
 147.8937500 118.6646230  35.3591420 143.8928300 122.0599220  40.8455350
 143.4559290 122.2400020  41.6779500 144.4605980 122.8173840  40.7037070
 143.7252730 114.5719450  37.2044230 143.0701570 114.3031090  36.5603930
 144.5630680 114.4623930  36.7546210 144.7628660 114.9572020  41.7447570
 145.1301700 114.8699420  42.6243590 144.1939480 114.1938570  41.6454430
 144.3144660 111.8681110  45.6505990 143.4200710 111.8347870  45.9899700
 144.8542210 112.0667900  46.4157240 142.9390810 111.7818380  33.1469560
 142.0354890 112.0448580  32.9721220 143.4231430 112.0529550  32.3669520
 145.4818020 110.8383920  31.0563940 146.1909720 110.4167140  30.5711220
 144.7657960 110.9059150  30.4247290 145.1292180 106.8923250  30.0966590
 145.8520310 107.4332190  30.4147810 145.4016700 106.6186670  29.2208130
 144.8184370 106.1429440  39.9989210 145.4660560 105.5926820  39.5584370
 145.2386210 106.3972590  40.8205020 144.5716370 106.2985110  42.7414530
 144.2231190 106.7548930  43.5072710 144.2404070 105.4042240  42.8236960
 146.1780740 119.4704710  46.9067720 146.1350370 119.0997620  47.7882180
 146.3091750 120.4082280  47.0469540 149.8786770 121.0264300  42.5077440
 149.6378130 121.2938860  41.6207960 150.8189410 121.1970030  42.5628300
 145.2437010 105.8261310  46.0165300 145.7920000 105.6449360  45.2531410
 145.3092320 105.0355420  46.5521610 146.0168770 122.4166960  44.0265500
 145.4229090 122.2851660  44.7655540 146.0092610 121.5805100  43.5607600
 145.6481000 119.7825340  42.9773540 144.9215060 119.1630630  42.9099490
 145.7090150 120.1765950  42.1071620 149.2526100 121.9970340  39.7622950
 149.7691120 121.3857700  39.2371210 149.9023480 122.4999120  40.2533960
 151.9921600 122.8878830  40.5891930 152.2799410 122.6333130  39.7124940
 152.5044820 122.3356190  41.1797500 143.9311000 123.0999730  36.1870300
 143.7633040 122.4670410  36.8852190 143.0645510 123.3059130  35.8364490
 144.5539020 106.9316510  33.6902160 145.3118380 107.0445390  33.1166190
 144.0916190 107.7685710  33.6445590 151.0952830 109.0455780  36.6804470
 150.2827340 108.6712670  36.3400350 151.5994470 108.2900860  36.9825660
 145.5373700 121.7932960  33.6320440 145.0121320 122.1740990  32.9282400
 145.4618280 122.4183730  34.3530150 146.9264170 107.4580560  32.2304130
 147.4556930 106.6710360  32.1012080 147.5592490 108.1371750  32.4639660
 149.1202010 107.1955700  35.2849520 148.4904750 106.4943010  35.4519650
 148.5807150 107.9559830  35.0682680 149.2457570 106.4739680  47.7202010
 148.9641840 106.9773280  46.9562830 149.6277270 105.6761430  47.3544140
 148.1366670 123.7415340  32.5069690 148.8685490 123.4574620  31.9593580
 148.3960340 123.5028620  33.3969070 147.2981460 119.8580070  32.5116020
 146.6690340 120.3265170  33.0601850 147.4129290 119.0129290  32.9462210
 146.9015050 115.9984560  21.4202250 146.0699930 115.7433270  21.8198760
 147.5096030 116.0695330  22.1560170 146.8816310 120.0324650  21.6160270
 147.1844350 119.1422390  21.4370490 147.6259900 120.5894870  21.3882520
 145.3107000 110.9586450  15.2044640 144.4223700 111.3002420  15.1024520
 145.5948190 110.7586770  14.3125470 143.2740010 113.5592100  21.0884340
 143.8456120 112.7914300  21.0887980 143.2741550 113.8580860  20.1790950
 144.5164880 108.9676460  22.8753270 144.3367720 108.0702210  23.1556030
 144.1144960 109.5148330  23.5500220 147.4868390 109.5417950  16.2383020
 147.5935140 110.4421680  16.5451780 146.5760750 109.4935920  15.9477670
 145.1351550 111.4636960  21.4835610 145.8161660 111.7275330  22.1023010
 144.8199600 110.6237830  21.8173620 149.3276120 112.5104320  20.5708200
 149.8354340 113.0085290  21.2113220 149.8589360 111.7339520  20.3947560
 147.6112220 107.1502880  24.8371620 147.6130660 107.6675270  24.0317520
 146.7816530 106.6733060  24.8141550 148.8615070 116.7898060  23.0145120
 148.5284450 117.4166980  23.6566190 149.0381750 117.3159940  22.2346790
 147.2927550 108.8612840  22.8442070 147.6344360 109.7054890  22.5495940
 146.3543360 109.0096580  22.9607410 148.0734170 118.7578860  24.8294300
 148.6908170 119.4329940  24.5478750 147.2127290 119.1666840  24.7381800
 143.3666510 117.9478720  13.7101150 142.9894490 118.4365820  12.9786050
 143.6239580 118.6204000  14.3407680 150.9755440 106.3495110  19.1686660
 151.2830420 105.7942000  18.4522160 150.0456140 106.4839570  18.9859650
 148.9692840 114.9408680  18.6866510 148.5649840 114.2285930  18.1912410
 149.0555960 114.5961920  19.5754550 149.4374540 118.6276240  20.8505720
 149.1402830 118.0221710  20.1713500 150.3874360 118.6653550  20.7395080
 147.6821460 111.7151890  22.4665550 148.2336050 111.8247230  21.6918800
 148.1964970 112.0889490  23.1820780 148.5292970 118.3657930  27.5013520
 147.6321500 118.5897900  27.7486920 148.5545840 118.4892870  26.5524920
 147.3564190 115.2371250  26.0770890 147.2171960 116.1094050  26.4458290
 146.4745550 114.8944060  25.9318830 149.1544540 121.1792950  28.2856040
 149.1259970 121.5835900  27.4184470 148.9909510 120.2503310  28.1227640
 145.6697470 113.8353660  16.1873160 145.5495070 114.5615750  15.5754430
 145.3598360 113.0656570  15.7101070 143.3082840 117.0068800  21.9941800
 143.3863260 117.1417570  21.0497520 143.9224520 116.2984690  22.1869920
 144.5530470 118.7068990  18.4047980 144.1458550 118.8483580  17.5501580
 145.4443480 118.4229150  18.2019190 148.8252130 122.9214770  16.5170650
 148.6494610 122.0050310  16.3038450 147.9707870 123.2802060  16.7568450
 143.3642360 118.0482970  24.5336260 143.5273400 117.5788330  23.7155630
 143.8294810 117.5406530  25.1985100 148.1361130 107.1788730  19.5696830
 147.6929280 107.9598270  19.2381350 148.6946120 107.5018620  20.2767770
 152.4230940 110.0457250  25.1732150 151.9610310 110.2540270  25.9852090
 152.0209050 109.2316600  24.8702820 151.2519950 106.7999430  14.4502660
 150.6274130 106.7959300  15.1755970 151.1650070 105.9330390  14.0538630
 150.1737030 107.7236060  21.4286430 150.4709360 108.6298890  21.3478450
 150.7222590 107.2354840  20.8146000 147.9275350 112.3022300  17.2978080
 147.7016270 112.0859470  18.2024700 147.1467880 112.7350760  16.9524050
 150.3674560 113.2007880  27.9638350 150.2718160 112.2602610  27.8138750
 151.2106540 113.4222950  27.5686420 145.4985100 109.6121550  26.1172130
 145.1048490 110.4596760  26.3244910 144.8103500 108.9747920  26.3080770
 142.8002150 107.5350010  20.1502210 142.5115200 108.1052870  20.8627190
 143.5447910 107.0554460  20.5133440 142.9872380 111.4770130  11.3604930
 142.9047050 112.4200890  11.5019920 142.6355440 111.3345040  10.4817280
 150.7870510 110.2109160  20.4275280 150.7906570 109.7699110  19.5779820
 151.6821630 110.5326490  20.5347100 146.6372890 110.0935650  19.3869490
 146.2972940 110.5710880  20.1436540 145.8750210 109.6400770  19.0270590
 150.8490660 111.2121240  13.4182040 150.9703480 111.1707720  14.3667860
 150.4639170 112.0745390  13.2628770 149.8612160 113.5222380  12.8165340
 149.2929060 113.0740630  12.1901250 150.5701160 113.8815160  12.2830490
 144.9381340 117.4234400  26.6932070 144.5536130 116.7828070  27.2915030
 145.2493530 118.1270520  27.2626800 151.0878480 114.2710940  22.1740690
 151.4548610 113.7969510  22.9202030 150.8983540 115.1452510  22.5149030
 143.9518970 109.0154630  18.3034160 143.6665890 108.6510300  19.1412780
 143.8897830 108.2835090  17.6897300 148.8777850 113.3119580  24.4924900
 148.5734920 114.1911560  24.7175260 149.8324310 113.3719370  24.5282340
 147.4059640 117.5180570  15.0891750 146.6321900 116.9778190  14.9290470
 148.1354270 116.9987180  14.7509510 147.4497040 117.1860950  18.7270560
 147.9675710 116.3829210  18.6727450 146.9981060 117.1240090  19.5687390
 144.9341580 114.1522320  25.6396260 144.5756520 114.8176170  26.2269600
 144.6396140 113.3205870  26.0108880 148.1354700 114.6106560  28.5235810
 147.8354840 114.7563740  27.6263630 148.9065940 114.0511850  28.4309200
 151.3057230 118.5340760  16.7713780 151.9928360 119.0809970  17.1521370
 150.5189650 119.0781490  16.8063390 143.4449630 114.1513580  12.2630860
 144.3144480 114.4338380  12.5466780 142.9539950 114.9649450  12.1479670
 150.6084440 115.5386790  16.3839140 151.0647220 116.3492040  16.6099330
 150.2572650 115.2209930  17.2157630 146.5096220 105.8824440  16.8561660
 146.3810850 105.8742340  17.8046580 145.6858240 106.2207530  16.5052670
 143.8120880 123.3640960  12.8292490 144.1718520 123.9630300  12.1749760
 143.6713220 123.9100850  13.6027520 143.5090150 107.6415560  26.3168360
 142.7948670 107.8412480  26.9220970 143.9285190 106.8655130  26.6883160
 143.7962740 121.6295820  27.3034890 143.9053860 120.6890560  27.1630280
 143.1443300 121.8950570  26.6548620 151.7875330 119.9011710  28.7033010
 151.4672200 119.1820950  29.2478700 151.1133690 120.5766780  28.7769070
 149.8289500 120.7472160  13.6466160 149.8199600 121.4801850  13.0310670
 148.9087860 120.5003740  13.7393120 145.4296140 115.9687050  14.3912920
 144.8224090 116.7085950  14.4008220 145.9045490 116.0586410  13.5651120
 150.3374990 111.3680760  16.2915250 149.6291140 111.8367100  16.7328860
 150.6219470 110.7102770  16.9260440 151.9630920 112.7877460  24.2907780
 152.4616170 113.2623280  24.9559630 152.1053870 111.8640980  24.4977810
 151.4567210 123.3286720  17.0039020 151.7108710 123.2908110  16.0818390
 150.5079690 123.2020050  16.9967270 148.5410010 109.6765840  13.6665960
 149.3900540 110.1135990  13.6006150 148.1741280 109.9886100  14.4938020
 147.4401430 115.9298200  12.1401490 148.2064700 115.8179560  12.7026920
 147.5176120 115.2336170  11.4878260 146.1348190 113.3623270  12.8234380
 146.2151780 112.4150780  12.9351780 147.0267940 113.6930150  12.9295040
 146.9362900 123.5118660  19.9268920 147.6725380 122.9634120  20.1977490
 147.3203820 124.3774670  19.7874910 143.8208380 119.5792230  15.8010430
 142.8948160 119.8213370  15.7915840 144.2864810 120.4066490  15.6795180
 145.9421180 122.6964730  29.1154500 146.7433910 123.0176780  29.5289900
 145.4273000 122.3360310  29.8374410 150.0465210 122.6848970  11.7494490
 150.8393820 122.9737800  11.2976280 149.5269560 122.2541140  11.0706970
 143.6618990 115.1838190  28.0590550 144.1658010 114.6045470  28.6306780
 142.9226410 115.4678420  28.5966920 150.5642610 117.9052380  11.6136840
 150.4593250 117.2904730  12.3398220 150.3966830 117.3818270  10.8299850
 150.7156930 116.5909180  27.5926070 149.9502600 117.1594180  27.5080740
 150.8972890 116.2985390  26.6994300 145.6942070 113.3267780  28.9540620
 145.7347410 113.0281650  29.8625850 146.5487570 113.7275390  28.7948140
 149.4720460 115.9263330  14.1144130 149.8936880 115.7603200  14.9575520
 149.5971300 115.1163560  13.6199270 147.6347880 111.9059880  26.9215110
 147.1044340 111.4150830  26.2938450 148.3035950 112.3344080  26.3873040
 151.9848100 114.9500940  11.3621230 152.5053760 114.2349960  10.9962380
 152.6316500 115.5886810  11.6621740 148.1220180 108.8722250  27.0012400
 148.0277050 108.2543000  26.2763270 147.5417570 109.5988540  26.7742310
 150.8881620 107.4295490  24.0339790 150.4398920 107.4519750  23.1885340
 150.2546820 107.0314510  24.6310090 151.2941170 116.3249820  24.6552230
 151.7129280 117.1682550  24.4828470 150.3749800 116.4621860  24.4259010
 148.3679360 111.9996560  11.0602290 148.1668420 111.1363920  11.4215630
 148.1971410 111.9129920  10.1223890 149.1448590 122.6302830  25.7709960
 148.6069680 123.3548890  25.4518660 149.3982550 122.1533170  24.9807300
 150.3973840 110.5987350  27.2965890 150.9873530 110.2903200  27.9843710
 149.5794080 110.1267100  27.4525790 147.1662160 109.0997180  11.0480170
 147.4688060 109.1064610  10.1399320 147.9056750 108.7495040  11.5447830
 152.0010800 123.8654040  26.0296610 151.9269500 124.7689180  26.3368980
 151.0989640 123.5465940  26.0018680 150.3847090 108.0431800  12.0336370
 150.0369090 107.3655790  11.4538820 150.5859860 107.5821310  12.8479760
 146.1892290 118.4039600  11.8809970 146.6267160 118.9469270  12.5367550
 146.6740020 117.5786550  11.8906310 143.4038090 121.1928630  19.3330230
 143.7341100 120.3249690  19.1008870 143.8329090 121.3987150  20.1635190
 148.0000010 119.5237640  16.9932200 147.6995550 119.4002610  17.8936110
 147.8937500 118.6646230  16.5847930 143.8928300 122.0599220  22.0711860
 143.4559290 122.2400020  22.9036010 144.4605980 122.8173840  21.9293580
 143.7252730 114.5719450  18.4300740 143.0701570 114.3031090  17.7860440
 144.5630680 114.4623930  17.9802720 144.7628660 114.9572020  22.9704080
 145.1301700 114.8699420  23.8500100 144.1939480 114.1938570  22.8710940
 144.3144660 111.8681110  26.8762500 143.4200710 111.8347870  27.2156210
 144.8542210 112.0667900  27.6413750 142.9390810 111.7818380  14.3726070
 142.0354890 112.0448580  14.1977730 143.4231430 112.0529550  13.5926030
 145.4818020 110.8383920  12.2820450 146.1909720 110.4167140  11.7967730
 144.7657960 110.9059150  11.6503800 145.1292180 106.8923250  11.3223100
 145.8520310 107.4332190  11.6404320 145.4016700 106.6186670  10.4464640
 144.8184370 106.1429440  21.2245720 145.4660560 105.5926820  20.7840880
 145.2386210 106.3972590  22.0461530 144.5716370 106.2985110  23.9671040
 144.2231190 106.7548930  24.7329220 144.2404070 105.4042240  24.0493470
 146.1780740 119.4704710  28.1324230 146.1350370 119.0997620  29.0138690
 146.3091750 120.4082280  28.2726050 149.8786770 121.0264300  23.7333950
 149.6378130 121.2938860  22.8464470 150.8189410 121.1970030  23.7884810
 145.2437010 105.8261310  27.2421810 145.7920000 105.6449360  26.4787920
 145.3092320 105.0355420  27.7778120 146.0168770 122.4166960  25.2522010
 145.4229090 122.2851660  25.9912050 146.0092610 121.5805100  24.7864110
 145.6481000 119.7825340  24.2030050 144.9215060 119.1630630  24.1356000
 145.7090150 120.1765950  23.3328130 149.2526100 121.9970340  20.9879460
 149.7691120 121.3857700  20.4627720 149.9023480 122.4999120  21.4790470
 151.9921600 122.8878830  21.8148440 152.2799410 122.6333130  20.9381450
 152.5044820 122.3356190  22.4054010 143.9311000 123.0999730  17.4126810
 143.7633040 122.4670410  18.1108700 143.0645510 123.3059130  17.0621000
 144.5539020 106.9316510  14.9158670 145.3118380 107.0445390  14.3422700
 144.0916190 107.7685710  14.8702100 151.0952830 109.0455780  17.9060980
 150.2827340 108.6712670  17.5656860 151.5994470 108.2900860  18.2082170
 145.5373700 121.7932960  14.8576950 145.0121320 122.1740990  14.1538910
 145.4618280 122.4183730  15.5786660 146.9264170 107.4580560  13.4560640
 147.4556930 106.6710360  13.3268590 147.5592490 108.1371750  13.6896170
 149.1202010 107.1955700  16.5106030 148.4904750 106.4943010  16.6776160
 148.5807150 107.9559830  16.2939190 149.2457570 106.4739680  28.9458520
 148.9641840 106.9773280  28.1819340 149.6277270 105.6761430  28.5800650
 148.1366670 123.7415340  13.7326200 148.8685490 123.4574620  13.1850090
 148.3960340 123.5028620  14.6225580 147.2981460 119.8580070  13.7372530
 146.6690340 120.3265170  14.2858360 147.4129290 119.0129290  14.1718720
 146.9015050 115.9984560   2.6458760 146.0699930 115.7433270   3.0455270
 147.5096030 116.0695330   3.3816680 146.8816310 120.0324650   2.8416780
 147.1844350 119.1422390   2.6627000 147.6259900 120.5894870   2.6139030
 144.5164880 108.9676460   4.1009780 144.3367720 108.0702210   4.3812540
 144.1144960 109.5148330   4.7756730 145.1351550 111.4636960   2.7092120
 145.8161660 111.7275330   3.3279520 144.8199600 110.6237830   3.0430130
 149.3276120 112.5104320   1.7964710 149.8354340 113.0085290   2.4369730
 149.8589360 111.7339520   1.6204070 147.6112220 107.1502880   6.0628130
 147.6130660 107.6675270   5.2574030 146.7816530 106.6733060   6.0398060
 148.8615070 116.7898060   4.2401630 148.5284450 117.4166980   4.8822700
 149.0381750 117.3159940   3.4603300 147.2927550 108.8612840   4.0698580
 147.6344360 109.7054890   3.7752450 146.3543360 109.0096580   4.1863920
 148.0734170 118.7578860   6.0550810 148.6908170 119.4329940   5.7735260
 147.2127290 119.1666840   5.9638310 147.6821460 111.7151890   3.6922060
 148.2336050 111.8247230   2.9175310 148.1964970 112.0889490   4.4077290
 148.5292970 118.3657930   8.7270030 147.6321500 118.5897900   8.9743430
 148.5545840 118.4892870   7.7781430 147.3564190 115.2371250   7.3027400
 147.2171960 116.1094050   7.6714800 146.4745550 114.8944060   7.1575340
 149.1544540 121.1792950   9.5112550 149.1259970 121.5835900   8.6440980
 148.9909510 120.2503310   9.3484150 143.3082840 117.0068800   3.2198310
 143.3863260 117.1417570   2.2754030 143.9224520 116.2984690   3.4126430
 143.3642360 118.0482970   5.7592770 143.5273400 117.5788330   4.9412140
 143.8294810 117.5406530   6.4241610 152.4230940 110.0457250   6.3988660
 151.9610310 110.2540270   7.2108600 152.0209050 109.2316600   6.0959330
 150.1737030 107.7236060   2.6542940 150.4709360 108.6298890   2.5734960
 150.7222590 107.2354840   2.0402510 150.3674560 113.2007880   9.1894860
 150.2718160 112.2602610   9.0395260 151.2106540 113.4222950   8.7942930
 145.4985100 109.6121550   7.3428640 145.1048490 110.4596760   7.5501420
 144.8103500 108.9747920   7.5337280 144.9381340 117.4234400   7.9188580
 144.5536130 116.7828070   8.5171540 145.2493530 118.1270520   8.4883310
 151.0878480 114.2710940   3.3997200 151.4548610 113.7969510   4.1458540
 150.8983540 115.1452510   3.7405540 148.8777850 113.3119580   5.7181410
 148.5734920 114.1911560   5.9431770 149.8324310 113.3719370   5.7538850
 144.9341580 114.1522320   6.8652770 144.5756520 114.8176170   7.4526110
 144.6396140 113.3205870   7.2365390 148.1354700 114.6106560   9.7492320
 147.8354840 114.7563740   8.8520140 148.9065940 114.0511850   9.6565710
 143.5090150 107.6415560   7.5424870 142.7948670 107.8412480   8.1477480
 143.9285190 106.8655130   7.9139670 143.7962740 121.6295820   8.5291400
 143.9053860 120.6890560   8.3886790 143.1443300 121.8950570   7.8805130
 151.7875330 119.9011710   9.9289520 151.4672200 119.1820950  10.4735210
 151.1133690 120.5766780  10.0025580 151.9630920 112.7877460   5.5164290
 152.4616170 113.2623280   6.1816140 152.1053870 111.8640980   5.7234320
 145.9421180 122.6964730  10.3411010 146.7433910 123.0176780  10.7546410
 145.4273000 122.3360310  11.0630920 143.6618990 115.1838190   9.2847060
 144.1658010 114.6045470   9.8563290 142.9226410 115.4678420   9.8223430
 150.7156930 116.5909180   8.8182580 149.9502600 117.1594180   8.7337250
 150.8972890 116.2985390   7.9250810 145.6942070 113.3267780  10.1797130
 145.7347410 113.0281650  11.0882360 146.5487570 113.7275390  10.0204650
 147.6347880 111.9059880   8.1471620 147.1044340 111.4150830   7.5194960
 148.3035950 112.3344080   7.6129550 148.1220180 108.8722250   8.2268910
 148.0277050 108.2543000   7.5019780 147.5417570 109.5988540   7.9998820
 150.8881620 107.4295490   5.2596300 150.4398920 107.4519750   4.4141850
 150.2546820 107.0314510   5.8566600 151.2941170 116.3249820   5.8808740
 151.7129280 117.1682550   5.7084980 150.3749800 116.4621860   5.6515520
 149.1448590 122.6302830   6.9966470 148.6069680 123.3548890   6.6775170
 149.3982550 122.1533170   6.2063810 150.3973840 110.5987350   8.5222400
 150.9873530 110.2903200   9.2100220 149.5794080 110.1267100   8.6782300
 152.0010800 123.8654040   7.2553120 151.9269500 124.7689180   7.5625490
 151.0989640 123.5465940   7.2275190 143.8928300 122.0599220   3.2968370
 143.4559290 122.2400020   4.1292520 144.4605980 122.8173840   3.1550090
 144.7628660 114.9572020   4.1960590 145.1301700 114.8699420   5.0756610
 144.1939480 114.1938570   4.0967450 144.3144660 111.8681110   8.1019010
 143.4200710 111.8347870   8.4412720 144.8542210 112.0667900   8.8670260
 144.8184370 106.1429440   2.4502230 145.4660560 105.5926820   2.0097390
 145.2386210 106.3972590   3.2718040 144.5716370 106.2985110   5.1927550
 144.2231190 106.7548930   5.9585730 144.2404070 105.4042240   5.2749980
 146.1780740 119.4704710   9.3580740 146.1350370 119.0997620  10.2395200
 146.3091750 120.4082280   9.4982560 149.8786770 121.0264300   4.9590460
 149.6378130 121.2938860   4.0720980 150.8189410 121.1970030   5.0141320
 145.2437010 105.8261310   8.4678320 145.7920000 105.6449360   7.7044430
 145.3092320 105.0355420   9.0034630 146.0168770 122.4166960   6.4778520
 145.4229090 122.2851660   7.2168560 146.0092610 121.5805100   6.0120620
 145.6481000 119.7825340   5.4286560 144.9215060 119.1630630   5.3612510
 145.7090150 120.1765950   4.5584640 149.2526100 121.9970340   2.2135970
 149.7691120 121.3857700   1.6884230 149.9023480 122.4999120   2.7046980
 151.9921600 122.8878830   3.0404950 152.2799410 122.6333130   2.1637960
 152.5044820 122.3356190   3.6310520 149.2457570 106.4739680  10.1715030
 148.9641840 106.9773280   9.4075850 149.6277270 105.6761430   9.8057160
 145.3107000  92.1842960 146.6249070 144.4223700  92.5258930 146.5228950
 145.5948190  91.9843280 145.7329900 147.4868390  90.7674460 147.6587450
 147.5935140  91.6678190 147.9656210 146.5760750  90.7192430 147.3682100
 143.3666510  99.1735230 145.1305580 142.9894490  99.6622330 144.3990480
 143.6239580  99.8460510 145.7612110 150.9755440  87.5751620 150.5891090
 151.2830420  87.0198510 149.8726590 150.0456140  87.7096080 150.4064080
 148.9692840  96.1665190 150.1070940 148.5649840  95.4542440 149.6116840
 149.0555960  95.8218430 150.9958980 145.6697470  95.0610170 147.6077590
 145.5495070  95.7872260 146.9958860 145.3598360  94.2913080 147.1305500
 144.5530470  99.9325500 149.8252410 144.1458550 100.0740090 148.9706010
 145.4443480  99.6485660 149.6223620 148.8252130 104.1471280 147.9375080
 148.6494610 103.2306820 147.7242880 147.9707870 104.5058570 148.1772880
 148.1361130  88.4045240 150.9901260 147.6929280  89.1854780 150.6585780
 148.6946120  88.7275130 151.6972200 151.2519950  88.0255940 145.8707090
 150.6274130  88.0215810 146.5960400 151.1650070  87.1586900 145.4743060
 147.9275350  93.5278810 148.7182510 147.7016270  93.3115980 149.6229130
 147.1467880  93.9607270 148.3728480 142.9872380  92.7026640 142.7809360
 142.9047050  93.6457400 142.9224350 142.6355440  92.5601550 141.9021710
 146.6372890  91.3192160 150.8073920 146.2972940  91.7967390 151.5640970
 145.8750210  90.8657280 150.4475020 150.8490660  92.4377750 144.8386470
 150.9703480  92.3964230 145.7872290 150.4639170  93.3001900 144.6833200
 149.8612160  94.7478890 144.2369770 149.2929060  94.2997140 143.6105680
 150.5701160  95.1071670 143.7034920 143.9518970  90.2411140 149.7238590
 143.6665890  89.8766810 150.5617210 143.8897830  89.5091600 149.1101730
 147.4059640  98.7437080 146.5096180 146.6321900  98.2034700 146.3494900
 148.1354270  98.2243690 146.1713940 147.4497040  98.4117460 150.1474990
 147.9675710  97.6085720 150.0931880 146.9981060  98.3496600 150.9891820
 151.3057230  99.7597270 148.1918210 151.9928360 100.3066480 148.5725800
 150.5189650 100.3038000 148.2267820 143.4449630  95.3770090 143.6835290
 144.3144480  95.6594890 143.9671210 142.9539950  96.1905960 143.5684100
 150.6084440  96.7643300 147.8043570 151.0647220  97.5748550 148.0303760
 150.2572650  96.4466440 148.6362060 146.5096220  87.1080950 148.2766090
 146.3810850  87.0998850 149.2251010 145.6858240  87.4464040 147.9257100
 143.8120880 104.5897470 144.2496920 144.1718520 105.1886810 143.5954190
 143.6713220 105.1357360 145.0231950 149.8289500 101.9728670 145.0670590
 149.8199600 102.7058360 144.4515100 148.9087860 101.7260250 145.1597550
 145.4296140  97.1943560 145.8117350 144.8224090  97.9342460 145.8212650
 145.9045490  97.2842920 144.9855550 150.3374990  92.5937270 147.7119680
 149.6291140  93.0623610 148.1533290 150.6219470  91.9359280 148.3464870
 151.4567210 104.5543230 148.4243450 151.7108710 104.5164620 147.5022820
 150.5079690 104.4276560 148.4171700 148.5410010  90.9022350 145.0870390
 149.3900540  91.3392500 145.0210580 148.1741280  91.2142610 145.9142450
 147.4401430  97.1554710 143.5605920 148.2064700  97.0436070 144.1231350
 147.5176120  96.4592680 142.9082690 146.1348190  94.5879780 144.2438810
 146.2151780  93.6407290 144.3556210 147.0267940  94.9186660 144.3499470
 146.9362900 104.7375170 151.3473350 147.6725380 104.1890630 151.6181920
 147.3203820 105.6031180 151.2079340 143.8208380 100.8048740 147.2214860
 142.8948160 101.0469880 147.2120270 144.2864810 101.6323000 147.0999610
 150.0465210 103.9105480 143.1698920 150.8393820 104.1994310 142.7180710
 149.5269560 103.4797650 142.4911400 150.5642610  99.1308890 143.0341270
 150.4593250  98.5161240 143.7602650 150.3966830  98.6074780 142.2504280
 149.4720460  97.1519840 145.5348560 149.8936880  96.9859710 146.3779950
 149.5971300  96.3420070 145.0403700 151.9848100  96.1757450 142.7825660
 152.5053760  95.4606470 142.4166810 152.6316500  96.8143320 143.0826170
 148.3679360  93.2253070 142.4806720 148.1668420  92.3620430 142.8420060
 148.1971410  93.1386430 141.5428320 147.1662160  90.3253690 142.4684600
 147.4688060  90.3321120 141.5603750 147.9056750  89.9751550 142.9652260
 150.3847090  89.2688310 143.4540800 150.0369090  88.5912300 142.8743250
 150.5859860  88.8077820 144.2684190 146.1892290  99.6296110 143.3014400
 146.6267160 100.1725780 143.9571980 146.6740020  98.8043060 143.3110740
 143.4038090 102.4185140 150.7534660 143.7341100 101.5506200 150.5213300
 143.8329090 102.6243660 151.5839620 148.0000010 100.7494150 148.4136630
 147.6995550 100.6259120 149.3140540 147.8937500  99.8902740 148.0052360
 143.7252730  95.7975960 149.8505170 143.0701570  95.5287600 149.2064870
 144.5630680  95.6880440 149.4007150 142.9390810  93.0074890 145.7930500
 142.0354890  93.2705090 145.6182160 143.4231430  93.2786060 145.0130460
 145.4818020  92.0640430 143.7024880 146.1909720  91.6423650 143.2172160
 144.7657960  92.1315660 143.0708230 145.1292180  88.1179760 142.7427530
 145.8520310  88.6588700 143.0608750 145.4016700  87.8443180 141.8669070
 143.9311000 104.3256240 148.8331240 143.7633040 103.6926920 149.5313130
 143.0645510 104.5315640 148.4825430 144.5539020  88.1573020 146.3363100
 145.3118380  88.2701900 145.7627130 144.0916190  88.9942220 146.2906530
 151.0952830  90.2712290 149.3265410 150.2827340  89.8969180 148.9861290
 151.5994470  89.5157370 149.6286600 145.5373700 103.0189470 146.2781380
 145.0121320 103.3997500 145.5743340 145.4618280 103.6440240 146.9991090
 146.9264170  88.6837070 144.8765070 147.4556930  87.8966870 144.7473020
 147.5592490  89.3628260 145.1100600 149.1202010  88.4212210 147.9310460
 148.4904750  87.7199520 148.0980590 148.5807150  89.1816340 147.7143620
 148.1366670 104.9671850 145.1530630 148.8685490 104.6831130 144.6054520
 148.3960340 104.7285130 146.0430010 147.2981460 101.0836580 145.1576960
 146.6690340 101.5521680 145.7062790 147.4129290 100.2385800 145.5923150
 146.9015050  97.2241070 134.0663190 146.0699930  96.9689780 134.4659700
 147.5096030  97.2951840 134.8021110 146.8816310 101.2581160 134.2621210
 147.1844350 100.3678900 134.0831430 147.6259900 101.8151380 134.0343460
 145.3107000  92.1842960 127.8505580 144.4223700  92.5258930 127.7485460
 145.5948190  91.9843280 126.9586410 143.2740010  94.7848610 133.7345280
 143.8456120  94.0170810 133.7348920 143.2741550  95.0837370 132.8251890
 144.5164880  90.1932970 135.5214210 144.3367720  89.2958720 135.8016970
 144.1144960  90.7404840 136.1961160 147.4868390  90.7674460 128.8843960
 147.5935140  91.6678190 129.1912720 146.5760750  90.7192430 128.5938610
 145.1351550  92.6893470 134.1296550 145.8161660  92.9531840 134.7483950
 144.8199600  91.8494340 134.4634560 149.3276120  93.7360830 133.2169140
 149.8354340  94.2341800 133.8574160 149.8589360  92.9596030 133.0408500
 147.6112220  88.3759390 137.4832560 147.6130660  88.8931780 136.6778460
 146.7816530  87.8989570 137.4602490 148.8615070  98.0154570 135.6606060
 148.5284450  98.6423490 136.3027130 149.0381750  98.5416450 134.8807730
 147.2927550  90.0869350 135.4903010 147.6344360  90.9311400 135.1956880
 146.3543360  90.2353090 135.6068350 148.0734170  99.9835370 137.4755240
 148.6908170 100.6586450 137.1939690 147.2127290 100.3923350 137.3842740
 143.3666510  99.1735230 126.3562090 142.9894490  99.6622330 125.6246990
 143.6239580  99.8460510 126.9868620 150.9755440  87.5751620 131.8147600
 151.2830420  87.0198510 131.0983100 150.0456140  87.7096080 131.6320590
 148.9692840  96.1665190 131.3327450 148.5649840  95.4542440 130.8373350
 149.0555960  95.8218430 132.2215490 149.4374540  99.8532750 133.4966660
 149.1402830  99.2478220 132.8174440 150.3874360  99.8910060 133.3856020
 147.6821460  92.9408400 135.1126490 148.2336050  93.0503740 134.3379740
 148.1964970  93.3146000 135.8281720 148.5292970  99.5914440 140.1474460
 147.6321500  99.8154410 140.3947860 148.5545840  99.7149380 139.1985860
 147.3564190  96.4627760 138.7231830 147.2171960  97.3350560 139.0919230
 146.4745550  96.1200570 138.5779770 149.1544540 102.4049460 140.9316980
 149.1259970 102.8092410 140.0645410 148.9909510 101.4759820 140.7688580
 145.6697470  95.0610170 128.8334100 145.5495070  95.7872260 128.2215370
 145.3598360  94.2913080 128.3562010 143.3082840  98.2325310 134.6402740
 143.3863260  98.3674080 133.6958460 143.9224520  97.5241200 134.8330860
 144.5530470  99.9325500 131.0508920 144.1458550 100.0740090 130.1962520
 145.4443480  99.6485660 130.8480130 148.8252130 104.1471280 129.1631590
 148.6494610 103.2306820 128.9499390 147.9707870 104.5058570 129.4029390
 143.3642360  99.2739480 137.1797200 143.5273400  98.8044840 136.3616570
 143.8294810  98.7663040 137.8446040 148.1361130  88.4045240 132.2157770
 147.6929280  89.1854780 131.8842290 148.6946120  88.7275130 132.9228710
 152.4230940  91.2713760 137.8193090 151.9610310  91.4796780 138.6313030
 152.0209050  90.4573110 137.5163760 151.2519950  88.0255940 127.0963600
 150.6274130  88.0215810 127.8216910 151.1650070  87.1586900 126.6999570
 150.1737030  88.9492570 134.0747370 150.4709360  89.8555400 133.9939390
 150.7222590  88.4611350 133.4606940 147.9275350  93.5278810 129.9439020
 147.7016270  93.3115980 130.8485640 147.1467880  93.9607270 129.5984990
 150.3674560  94.4264390 140.6099290 150.2718160  93.4859120 140.4599690
 151.2106540  94.6479460 140.2147360 145.4985100  90.8378060 138.7633070
 145.1048490  91.6853270 138.9705850 144.8103500  90.2004430 138.9541710
 142.8002150  88.7606520 132.7963150 142.5115200  89.3309380 133.5088130
 143.5447910  88.2810970 133.1594380 142.9872380  92.7026640 124.0065870
 142.9047050  93.6457400 124.1480860 142.6355440  92.5601550 123.1278220
 150.7870510  91.4365670 133.0736220 150.7906570  90.9955620 132.2240760
 151.6821630  91.7583000 133.1808040 146.6372890  91.3192160 132.0330430
 146.2972940  91.7967390 132.7897480 145.8750210  90.8657280 131.6731530
 150.8490660  92.4377750 126.0642980 150.9703480  92.3964230 127.0128800
 150.4639170  93.3001900 125.9089710 149.8612160  94.7478890 125.4626280
 149.2929060  94.2997140 124.8362190 150.5701160  95.1071670 124.9291430
 144.9381340  98.6490910 139.3393010 144.5536130  98.0084580 139.9375970
 145.2493530  99.3527030 139.9087740 151.0878480  95.4967450 134.8201630
 151.4548610  95.0226020 135.5662970 150.8983540  96.3709020 135.1609970
 143.9518970  90.2411140 130.9495100 143.6665890  89.8766810 131.7873720
 143.8897830  89.5091600 130.3358240 148.8777850  94.5376090 137.1385840
 148.5734920  95.4168070 137.3636200 149.8324310  94.5975880 137.1743280
 147.4059640  98.7437080 127.7352690 146.6321900  98.2034700 127.5751410
 148.1354270  98.2243690 127.3970450 147.4497040  98.4117460 131.3731500
 147.9675710  97.6085720 131.3188390 146.9981060  98.3496600 132.2148330
 144.9341580  95.3778830 138.2857200 144.5756520  96.0432680 138.8730540
 144.6396140  94.5462380 138.6569820 148.1354700  95.8363070 141.1696750
 147.8354840  95.9820250 140.2724570 148.9065940  95.2768360 141.0770140
 151.3057230  99.7597270 129.4174720 151.9928360 100.3066480 129.7982310
 150.5189650 100.3038000 129.4524330 143.4449630  95.3770090 124.9091800
 144.3144480  95.6594890 125.1927720 142.9539950  96.1905960 124.7940610
 150.6084440  96.7643300 129.0300080 151.0647220  97.5748550 129.2560270
 150.2572650  96.4466440 129.8618570 146.5096220  87.1080950 129.5022600
 146.3810850  87.0998850 130.4507520 145.6858240  87.4464040 129.1513610
 143.8120880 104.5897470 125.4753430 144.1718520 105.1886810 124.8210700
 143.6713220 105.1357360 126.2488460 143.5090150  88.8672070 138.9629300
 142.7948670  89.0668990 139.5681910 143.9285190  88.0911640 139.3344100
 143.7962740 102.8552330 139.9495830 143.9053860 101.9147070 139.8091220
 143.1443300 103.1207080 139.3009560 151.7875330 101.1268220 141.3493950
 151.4672200 100.4077460 141.8939640 151.1133690 101.8023290 141.4230010
 149.8289500 101.9728670 126.2927100 149.8199600 102.7058360 125.6771610
 148.9087860 101.7260250 126.3854060 145.4296140  97.1943560 127.0373860
 144.8224090  97.9342460 127.0469160 145.9045490  97.2842920 126.2112060
 150.3374990  92.5937270 128.9376190 149.6291140  93.0623610 129.3789800
 150.6219470  91.9359280 129.5721380 151.9630920  94.0133970 136.9368720
 152.4616170  94.4879790 137.6020570 152.1053870  93.0897490 137.1438750
 151.4567210 104.5543230 129.6499960 151.7108710 104.5164620 128.7279330
 150.5079690 104.4276560 129.6428210 148.5410010  90.9022350 126.3126900
 149.3900540  91.3392500 126.2467090 148.1741280  91.2142610 127.1398960
 147.4401430  97.1554710 124.7862430 148.2064700  97.0436070 125.3487860
 147.5176120  96.4592680 124.1339200 146.1348190  94.5879780 125.4695320
 146.2151780  93.6407290 125.5812720 147.0267940  94.9186660 125.5755980
 146.9362900 104.7375170 132.5729860 147.6725380 104.1890630 132.8438430
 147.3203820 105.6031180 132.4335850 143.8208380 100.8048740 128.4471370
 142.8948160 101.0469880 128.4376780 144.2864810 101.6323000 128.3256120
 145.9421180 103.9221240 141.7615440 146.7433910 104.2433290 142.1750840
 145.4273000 103.5616820 142.4835350 150.0465210 103.9105480 124.3955430
 150.8393820 104.1994310 123.9437220 149.5269560 103.4797650 123.7167910
 143.6618990  96.4094700 140.7051490 144.1658010  95.8301980 141.2767720
 142.9226410  96.6934930 141.2427860 150.5642610  99.1308890 124.2597780
 150.4593250  98.5161240 124.9859160 150.3966830  98.6074780 123.4760790
 150.7156930  97.8165690 140.2387010 149.9502600  98.3850690 140.1541680
 150.8972890  97.5241900 139.3455240 145.6942070  94.5524290 141.6001560
 145.7347410  94.2538160 142.5086790 146.5487570  94.9531900 141.4409080
 149.4720460  97.1519840 126.7605070 149.8936880  96.9859710 127.6036460
 149.5971300  96.3420070 126.2660210 147.6347880  93.1316390 139.5676050
 147.1044340  92.6407340 138.9399390 148.3035950  93.5600590 139.0333980
 151.9848100  96.1757450 124.0082170 152.5053760  95.4606470 123.6423320
 152.6316500  96.8143320 124.3082680 148.1220180  90.0978760 139.6473340
 148.0277050  89.4799510 138.9224210 147.5417570  90.8245050 139.4203250
 150.8881620  88.6552000 136.6800730 150.4398920  88.6776260 135.8346280
 150.2546820  88.2571020 137.2771030 151.2941170  97.5506330 137.3013170
 151.7129280  98.3939060 137.1289410 150.3749800  97.6878370 137.0719950
 148.3679360  93.2253070 123.7063230 148.1668420  92.3620430 124.0676570
 148.1971410  93.1386430 122.7684830 149.1448590 103.8559340 138.4170900
 148.6069680 104.5805400 138.0979600 149.3982550 103.3789680 137.6268240
 150.3973840  91.8243860 139.9426830 150.9873530  91.5159710 140.6304650
 149.5794080  91.3523610 140.0986730 147.1662160  90.3253690 123.6941110
 147.4688060  90.3321120 122.7860260 147.9056750  89.9751550 124.1908770
 152.0010800 105.0910550 138.6757550 151.9269500 105.9945690 138.9829920
 151.0989640 104.7722450 138.6479620 150.3847090  89.2688310 124.6797310
 150.0369090  88.5912300 124.0999760 150.5859860  88.8077820 125.4940700
 146.1892290  99.6296110 124.5270910 146.6267160 100.1725780 125.1828490
 146.6740020  98.8043060 124.5367250 143.4038090 102.4185140 131.9791170
 143.7341100 101.5506200 131.7469810 143.8329090 102.6243660 132.8096130
 148.0000010 100.7494150 129.6393140 147.6995550 100.6259120 130.5397050
 147.8937500  99.8902740 129.2308870 143.8928300 103.2855730 134.7172800
 143.4559290 103.4656530 135.5496950 144.4605980 104.0430350 134.5754520
 143.7252730  95.7975960 131.0761680 143.0701570  95.5287600 130.4321380
 144.5630680  95.6880440 130.6263660 144.7628660  96.1828530 135.6165020
 145.1301700  96.0955930 136.4961040 144.1939480  95.4195080 135.5171880
 144.3144660  93.0937620 139.5223440 143.4200710  93.0604380 139.8617150
 144.8542210  93.2924410 140.2874690 142.9390810  93.0074890 127.0187010
 142.0354890  93.2705090 126.8438670 143.4231430  93.2786060 126.2386970
 145.4818020  92.0640430 124.9281390 146.1909720  91.6423650 124.4428670
 144.7657960  92.1315660 124.2964740 145.1292180  88.1179760 123.9684040
 145.8520310  88.6588700 124.2865260 145.4016700  87.8443180 123.0925580
 144.8184370  87.3685950 133.8706660 145.4660560  86.8183330 133.4301820
 145.2386210  87.6229100 134.6922470 144.5716370  87.5241620 136.6131980
 144.2231190  87.9805440 137.3790160 144.2404070  86.6298750 136.6954410
 146.1780740 100.6961220 140.7785170 146.1350370 100.3254130 141.6599630
 146.3091750 101.6338790 140.9186990 149.8786770 102.2520810 136.3794890
 149.6378130 102.5195370 135.4925410 150.8189410 102.4226540 136.4345750
 145.2437010  87.0517820 139.8882750 145.7920000  86.8705870 139.1248860
 145.3092320  86.2611930 140.4239060 146.0168770 103.6423470 137.8982950
 145.4229090 103.5108170 138.6372990 146.0092610 102.8061610 137.4325050
 145.6481000 101.0081850 136.8490990 144.9215060 100.3887140 136.7816940
 145.7090150 101.4022460 135.9789070 149.2526100 103.2226850 133.6340400
 149.7691120 102.6114210 133.1088660 149.9023480 103.7255630 134.1251410
 151.9921600 104.1135340 134.4609380 152.2799410 103.8589640 133.5842390
 152.5044820 103.5612700 135.0514950 143.9311000 104.3256240 130.0587750
 143.7633040 103.6926920 130.7569640 143.0645510 104.5315640 129.7081940
 144.5539020  88.1573020 127.5619610 145.3118380  88.2701900 126.9883640
 144.0916190  88.9942220 127.5163040 151.0952830  90.2712290 130.5521920
 150.2827340  89.8969180 130.2117800 151.5994470  89.5157370 130.8543110
 145.5373700 103.0189470 127.5037890 145.0121320 103.3997500 126.7999850
 145.4618280 103.6440240 128.2247600 146.9264170  88.6837070 126.1021580
 147.4556930  87.8966870 125.9729530 147.5592490  89.3628260 126.3357110
 149.1202010  88.4212210 129.1566970 148.4904750  87.7199520 129.3237100
 148.5807150  89.1816340 128.9400130 149.2457570  87.6996190 141.5919460
 148.9641840  88.2029790 140.8280280 149.6277270  86.9017940 141.2261590
 148.1366670 104.9671850 126.3787140 148.8685490 104.6831130 125.8311030
 148.3960340 104.7285130 127.2686520 147.2981460 101.0836580 126.3833470
 146.6690340 101.5521680 126.9319300 147.4129290 100.2385800 126.8179660
 146.9015050  97.2241070 115.2919700 146.0699930  96.9689780 115.6916210
 147.5096030  97.2951840 116.0277620 146.8816310 101.2581160 115.4877720
 147.1844350 100.3678900 115.3087940 147.6259900 101.8151380 115.2599970
 145.3107000  92.1842960 109.0762090 144.4223700  92.5258930 108.9741970
 145.5948190  91.9843280 108.1842920 143.2740010  94.7848610 114.9601790
 143.8456120  94.0170810 114.9605430 143.2741550  95.0837370 114.0508400
 144.5164880  90.1932970 116.7470720 144.3367720  89.2958720 117.0273480
 144.1144960  90.7404840 117.4217670 147.4868390  90.7674460 110.1100470
 147.5935140  91.6678190 110.4169230 146.5760750  90.7192430 109.8195120
 145.1351550  92.6893470 115.3553060 145.8161660  92.9531840 115.9740460
 144.8199600  91.8494340 115.6891070 149.3276120  93.7360830 114.4425650
 149.8354340  94.2341800 115.0830670 149.8589360  92.9596030 114.2665010
 147.6112220  88.3759390 118.7089070 147.6130660  88.8931780 117.9034970
 146.7816530  87.8989570 118.6859000 148.8615070  98.0154570 116.8862570
 148.5284450  98.6423490 117.5283640 149.0381750  98.5416450 116.1064240
 147.2927550  90.0869350 116.7159520 147.6344360  90.9311400 116.4213390
 146.3543360  90.2353090 116.8324860 148.0734170  99.9835370 118.7011750
 148.6908170 100.6586450 118.4196200 147.2127290 100.3923350 118.6099250
 143.3666510  99.1735230 107.5818600 142.9894490  99.6622330 106.8503500
 143.6239580  99.8460510 108.2125130 150.9755440  87.5751620 113.0404110
 151.2830420  87.0198510 112.3239610 150.0456140  87.7096080 112.8577100
 148.9692840  96.1665190 112.5583960 148.5649840  95.4542440 112.0629860
 149.0555960  95.8218430 113.4472000 149.4374540  99.8532750 114.7223170
 149.1402830  99.2478220 114.0430950 150.3874360  99.8910060 114.6112530
 147.6821460  92.9408400 116.3383000 148.2336050  93.0503740 115.5636250
 148.1964970  93.3146000 117.0538230 148.5292970  99.5914440 121.3730970
 147.6321500  99.8154410 121.6204370 148.5545840  99.7149380 120.4242370
 147.3564190  96.4627760 119.9488340 147.2171960  97.3350560 120.3175740
 146.4745550  96.1200570 119.8036280 149.1544540 102.4049460 122.1573490
 149.1259970 102.8092410 121.2901920 148.9909510 101.4759820 121.9945090
 145.6697470  95.0610170 110.0590610 145.5495070  95.7872260 109.4471880
 145.3598360  94.2913080 109.5818520 143.3082840  98.2325310 115.8659250
 143.3863260  98.3674080 114.9214970 143.9224520  97.5241200 116.0587370
 144.5530470  99.9325500 112.2765430 144.1458550 100.0740090 111.4219030
 145.4443480  99.6485660 112.0736640 148.8252130 104.1471280 110.3888100
 148.6494610 103.2306820 110.1755900 147.9707870 104.5058570 110.6285900
 143.3642360  99.2739480 118.4053710 143.5273400  98.8044840 117.5873080
 143.8294810  98.7663040 119.0702550 148.1361130  88.4045240 113.4414280
 147.6929280  89.1854780 113.1098800 148.6946120  88.7275130 114.1485220
 152.4230940  91.2713760 119.0449600 151.9610310  91.4796780 119.8569540
 152.0209050  90.4573110 118.7420270 151.2519950  88.0255940 108.3220110
 150.6274130  88.0215810 109.0473420 151.1650070  87.1586900 107.9256080
 150.1737030  88.9492570 115.3003880 150.4709360  89.8555400 115.2195900
 150.7222590  88.4611350 114.6863450 147.9275350  93.5278810 111.1695530
 147.7016270  93.3115980 112.0742150 147.1467880  93.9607270 110.8241500
 150.3674560  94.4264390 121.8355800 150.2718160  93.4859120 121.6856200
 151.2106540  94.6479460 121.4403870 145.4985100  90.8378060 119.9889580
 145.1048490  91.6853270 120.1962360 144.8103500  90.2004430 120.1798220
 142.8002150  88.7606520 114.0219660 142.5115200  89.3309380 114.7344640
 143.5447910  88.2810970 114.3850890 142.9872380  92.7026640 105.2322380
 142.9047050  93.6457400 105.3737370 142.6355440  92.5601550 104.3534730
 150.7870510  91.4365670 114.2992730 150.7906570  90.9955620 113.4497270
 151.6821630  91.7583000 114.4064550 146.6372890  91.3192160 113.2586940
 146.2972940  91.7967390 114.0153990 145.8750210  90.8657280 112.8988040
 150.8490660  92.4377750 107.2899490 150.9703480  92.3964230 108.2385310
 150.4639170  93.3001900 107.1346220 149.8612160  94.7478890 106.6882790
 149.2929060  94.2997140 106.0618700 150.5701160  95.1071670 106.1547940
 144.9381340  98.6490910 120.5649520 144.5536130  98.0084580 121.1632480
 145.2493530  99.3527030 121.1344250 151.0878480  95.4967450 116.0458140
 151.4548610  95.0226020 116.7919480 150.8983540  96.3709020 116.3866480
 143.9518970  90.2411140 112.1751610 143.6665890  89.8766810 113.0130230
 143.8897830  89.5091600 111.5614750 148.8777850  94.5376090 118.3642350
 148.5734920  95.4168070 118.5892710 149.8324310  94.5975880 118.3999790
 147.4059640  98.7437080 108.9609200 146.6321900  98.2034700 108.8007920
 148.1354270  98.2243690 108.6226960 147.4497040  98.4117460 112.5988010
 147.9675710  97.6085720 112.5444900 146.9981060  98.3496600 113.4404840
 144.9341580  95.3778830 119.5113710 144.5756520  96.0432680 120.0987050
 144.6396140  94.5462380 119.8826330 148.1354700  95.8363070 122.3953260
 147.8354840  95.9820250 121.4981080 148.9065940  95.2768360 122.3026650
 151.3057230  99.7597270 110.6431230 151.9928360 100.3066480 111.0238820
 150.5189650 100.3038000 110.6780840 143.4449630  95.3770090 106.1348310
 144.3144480  95.6594890 106.4184230 142.9539950  96.1905960 106.0197120
 150.6084440  96.7643300 110.2556590 151.0647220  97.5748550 110.4816780
 150.2572650  96.4466440 111.0875080 146.5096220  87.1080950 110.7279110
 146.3810850  87.0998850 111.6764030 145.6858240  87.4464040 110.3770120
 143.8120880 104.5897470 106.7009940 144.1718520 105.1886810 106.0467210
 143.6713220 105.1357360 107.4744970 143.5090150  88.8672070 120.1885810
 142.7948670  89.0668990 120.7938420 143.9285190  88.0911640 120.5600610
 143.7962740 102.8552330 121.1752340 143.9053860 101.9147070 121.0347730
 143.1443300 103.1207080 120.5266070 151.7875330 101.1268220 122.5750460
 151.4672200 100.4077460 123.1196150 151.1133690 101.8023290 122.6486520
 149.8289500 101.9728670 107.5183610 149.8199600 102.7058360 106.9028120
 148.9087860 101.7260250 107.6110570 145.4296140  97.1943560 108.2630370
 144.8224090  97.9342460 108.2725670 145.9045490  97.2842920 107.4368570
 150.3374990  92.5937270 110.1632700 149.6291140  93.0623610 110.6046310
 150.6219470  91.9359280 110.7977890 151.9630920  94.0133970 118.1625230
 152.4616170  94.4879790 118.8277080 152.1053870  93.0897490 118.3695260
 151.4567210 104.5543230 110.8756470 151.7108710 104.5164620 109.9535840
 150.5079690 104.4276560 110.8684720 148.5410010  90.9022350 107.5383410
 149.3900540  91.3392500 107.4723600 148.1741280  91.2142610 108.3655470
 147.4401430  97.1554710 106.0118940 148.2064700  97.0436070 106.5744370
 147.5176120  96.4592680 105.3595710 146.1348190  94.5879780 106.6951830
 146.2151780  93.6407290 106.8069230 147.0267940  94.9186660 106.8012490
 146.9362900 104.7375170 113.7986370 147.6725380 104.1890630 114.0694940
 147.3203820 105.6031180 113.6592360 143.8208380 100.8048740 109.6727880
 142.8948160 101.0469880 109.6633290 144.2864810 101.6323000 109.5512630
 145.9421180 103.9221240 122.9871950 146.7433910 104.2433290 123.4007350
 145.4273000 103.5616820 123.7091860 150.0465210 103.9105480 105.6211940
 150.8393820 104.1994310 105.1693730 149.5269560 103.4797650 104.9424420
 143.6618990  96.4094700 121.9308000 144.1658010  95.8301980 122.5024230
 142.9226410  96.6934930 122.4684370 150.5642610  99.1308890 105.4854290
 150.4593250  98.5161240 106.2115670 150.3966830  98.6074780 104.7017300
 150.7156930  97.8165690 121.4643520 149.9502600  98.3850690 121.3798190
 150.8972890  97.5241900 120.5711750 145.6942070  94.5524290 122.8258070
 145.7347410  94.2538160 123.7343300 146.5487570  94.9531900 122.6665590
 149.4720460  97.1519840 107.9861580 149.8936880  96.9859710 108.8292970
 149.5971300  96.3420070 107.4916720 147.6347880  93.1316390 120.7932560
 147.1044340  92.6407340 120.1655900 148.3035950  93.5600590 120.2590490
 151.9848100  96.1757450 105.2338680 152.5053760  95.4606470 104.8679830
 152.6316500  96.8143320 105.5339190 148.1220180  90.0978760 120.8729850
 148.0277050  89.4799510 120.1480720 147.5417570  90.8245050 120.6459760
 150.8881620  88.6552000 117.9057240 150.4398920  88.6776260 117.0602790
 150.2546820  88.2571020 118.5027540 151.2941170  97.5506330 118.5269680
 151.7129280  98.3939060 118.3545920 150.3749800  97.6878370 118.2976460
 148.3679360  93.2253070 104.9319740 148.1668420  92.3620430 105.2933080
 148.1971410  93.1386430 103.9941340 149.1448590 103.8559340 119.6427410
 148.6069680 104.5805400 119.3236110 149.3982550 103.3789680 118.8524750
 150.3973840  91.8243860 121.1683340 150.9873530  91.5159710 121.8561160
 149.5794080  91.3523610 121.3243240 147.1662160  90.3253690 104.9197620
 147.4688060  90.3321120 104.0116770 147.9056750  89.9751550 105.4165280
 152.0010800 105.0910550 119.9014060 151.9269500 105.9945690 120.2086430
 151.0989640 104.7722450 119.8736130 150.3847090  89.2688310 105.9053820
 150.0369090  88.5912300 105.3256270 150.5859860  88.8077820 106.7197210
 146.1892290  99.6296110 105.7527420 146.6267160 100.1725780 106.4085000
 146.6740020  98.8043060 105.7623760 143.4038090 102.4185140 113.2047680
 143.7341100 101.5506200 112.9726320 143.8329090 102.6243660 114.0352640
 148.0000010 100.7494150 110.8649650 147.6995550 100.6259120 111.7653560
 147.8937500  99.8902740 110.4565380 143.8928300 103.2855730 115.9429310
 143.4559290 103.4656530 116.7753460 144.4605980 104.0430350 115.8011030
 143.7252730  95.7975960 112.3018190 143.0701570  95.5287600 111.6577890
 144.5630680  95.6880440 111.8520170 144.7628660  96.1828530 116.8421530
 145.1301700  96.0955930 117.7217550 144.1939480  95.4195080 116.7428390
 144.3144660  93.0937620 120.7479950 143.4200710  93.0604380 121.0873660
 144.8542210  93.2924410 121.5131200 142.9390810  93.0074890 108.2443520
 142.0354890  93.2705090 108.0695180 143.4231430  93.2786060 107.4643480
 145.4818020  92.0640430 106.1537900 146.1909720  91.6423650 105.6685180
 144.7657960  92.1315660 105.5221250 145.1292180  88.1179760 105.1940550
 145.8520310  88.6588700 105.5121770 145.4016700  87.8443180 104.3182090
 144.8184370  87.3685950 115.0963170 145.4660560  86.8183330 114.6558330
 145.2386210  87.6229100 115.9178980 144.5716370  87.5241620 117.8388490
 144.2231190  87.9805440 118.6046670 144.2404070  86.6298750 117.9210920
 146.1780740 100.6961220 122.0041680 146.1350370 100.3254130 122.8856140
 146.3091750 101.6338790 122.1443500 149.8786770 102.2520810 117.6051400
 149.6378130 102.5195370 116.7181920 150.8189410 102.4226540 117.6602260
 145.2437010  87.0517820 121.1139260 145.7920000  86.8705870 120.3505370
 145.3092320  86.2611930 121.6495570 146.0168770 103.6423470 119.1239460
 145.4229090 103.5108170 119.8629500 146.0092610 102.8061610 118.6581560
 145.6481000 101.0081850 118.0747500 144.9215060 100.3887140 118.0073450
 145.7090150 101.4022460 117.2045580 149.2526100 103.2226850 114.8596910
 149.7691120 102.6114210 114.3345170 149.9023480 103.7255630 115.3507920
 151.9921600 104.1135340 115.6865890 152.2799410 103.8589640 114.8098900
 152.5044820 103.5612700 116.2771460 143.9311000 104.3256240 111.2844260
 143.7633040 103.6926920 111.9826150 143.0645510 104.5315640 110.9338450
 144.5539020  88.1573020 108.7876120 145.3118380  88.2701900 108.2140150
 144.0916190  88.9942220 108.7419550 151.0952830  90.2712290 111.7778430
 150.2827340  89.8969180 111.4374310 151.5994470  89.5157370 112.0799620
 145.5373700 103.0189470 108.7294400 145.0121320 103.3997500 108.0256360
 145.4618280 103.6440240 109.4504110 146.9264170  88.6837070 107.3278090
 147.4556930  87.8966870 107.1986040 147.5592490  89.3628260 107.5613620
 149.1202010  88.4212210 110.3823480 148.4904750  87.7199520 110.5493610
 148.5807150  89.1816340 110.1656640 149.2457570  87.6996190 122.8175970
 148.9641840  88.2029790 122.0536790 149.6277270  86.9017940 122.4518100
 148.1366670 104.9671850 107.6043650 148.8685490 104.6831130 107.0567540
 148.3960340 104.7285130 108.4943030 147.2981460 101.0836580 107.6089980
 146.6690340 101.5521680 108.1575810 147.4129290 100.2385800 108.0436170
 146.9015050  97.2241070  96.5176210 146.0699930  96.9689780  96.9172720
 147.5096030  97.2951840  97.2534130 146.8816310 101.2581160  96.7134230
 147.1844350 100.3678900  96.5344450 147.6259900 101.8151380  96.4856480
 145.3107000  92.1842960  90.3018600 144.4223700  92.5258930  90.1998480
 145.5948190  91.9843280  89.4099430 143.2740010  94.7848610  96.1858300
 143.8456120  94.0170810  96.1861940 143.2741550  95.0837370  95.2764910
 144.5164880  90.1932970  97.9727230 144.3367720  89.2958720  98.2529990
 144.1144960  90.7404840  98.6474180 147.4868390  90.7674460  91.3356980
 147.5935140  91.6678190  91.6425740 146.5760750  90.7192430  91.0451630
 145.1351550  92.6893470  96.5809570 145.8161660  92.9531840  97.1996970
 144.8199600  91.8494340  96.9147580 149.3276120  93.7360830  95.6682160
 149.8354340  94.2341800  96.3087180 149.8589360  92.9596030  95.4921520
 147.6112220  88.3759390  99.9345580 147.6130660  88.8931780  99.1291480
 146.7816530  87.8989570  99.9115510 148.8615070  98.0154570  98.1119080
 148.5284450  98.6423490  98.7540150 149.0381750  98.5416450  97.3320750
 147.2927550  90.0869350  97.9416030 147.6344360  90.9311400  97.6469900
 146.3543360  90.2353090  98.0581370 148.0734170  99.9835370  99.9268260
 148.6908170 100.6586450  99.6452710 147.2127290 100.3923350  99.8355760
 143.3666510  99.1735230  88.8075110 142.9894490  99.6622330  88.0760010
 143.6239580  99.8460510  89.4381640 150.9755440  87.5751620  94.2660620
 151.2830420  87.0198510  93.5496120 150.0456140  87.7096080  94.0833610
 148.9692840  96.1665190  93.7840470 148.5649840  95.4542440  93.2886370
 149.0555960  95.8218430  94.6728510 149.4374540  99.8532750  95.9479680
 149.1402830  99.2478220  95.2687460 150.3874360  99.8910060  95.8369040
 147.6821460  92.9408400  97.5639510 148.2336050  93.0503740  96.7892760
 148.1964970  93.3146000  98.2794740 148.5292970  99.5914440 102.5987480
 147.6321500  99.8154410 102.8460880 148.5545840  99.7149380 101.6498880
 147.3564190  96.4627760 101.1744850 147.2171960  97.3350560 101.5432250
 146.4745550  96.1200570 101.0292790 149.1544540 102.4049460 103.3830000
 149.1259970 102.8092410 102.5158430 148.9909510 101.4759820 103.2201600
 145.6697470  95.0610170  91.2847120 145.5495070  95.7872260  90.6728390
 145.3598360  94.2913080  90.8075030 143.3082840  98.2325310  97.0915760
 143.3863260  98.3674080  96.1471480 143.9224520  97.5241200  97.2843880
 144.5530470  99.9325500  93.5021940 144.1458550 100.0740090  92.6475540
 145.4443480  99.6485660  93.2993150 148.8252130 104.1471280  91.6144610
 148.6494610 103.2306820  91.4012410 147.9707870 104.5058570  91.8542410
 143.3642360  99.2739480  99.6310220 143.5273400  98.8044840  98.8129590
 143.8294810  98.7663040 100.2959060 148.1361130  88.4045240  94.6670790
 147.6929280  89.1854780  94.3355310 148.6946120  88.7275130  95.3741730
 152.4230940  91.2713760 100.2706110 151.9610310  91.4796780 101.0826050
 152.0209050  90.4573110  99.9676780 151.2519950  88.0255940  89.5476620
 150.6274130  88.0215810  90.2729930 151.1650070  87.1586900  89.1512590
 150.1737030  88.9492570  96.5260390 150.4709360  89.8555400  96.4452410
 150.7222590  88.4611350  95.9119960 147.9275350  93.5278810  92.3952040
 147.7016270  93.3115980  93.2998660 147.1467880  93.9607270  92.0498010
 150.3674560  94.4264390 103.0612310 150.2718160  93.4859120 102.9112710
 151.2106540  94.6479460 102.6660380 145.4985100  90.8378060 101.2146090
 145.1048490  91.6853270 101.4218870 144.8103500  90.2004430 101.4054730
 142.8002150  88.7606520  95.2476170 142.5115200  89.3309380  95.9601150
 143.5447910  88.2810970  95.6107400 142.9872380  92.7026640  86.4578890
 142.9047050  93.6457400  86.5993880 142.6355440  92.5601550  85.5791240
 150.7870510  91.4365670  95.5249240 150.7906570  90.9955620  94.6753780
 151.6821630  91.7583000  95.6321060 146.6372890  91.3192160  94.4843450
 146.2972940  91.7967390  95.2410500 145.8750210  90.8657280  94.1244550
 150.8490660  92.4377750  88.5156000 150.9703480  92.3964230  89.4641820
 150.4639170  93.3001900  88.3602730 149.8612160  94.7478890  87.9139300
 149.2929060  94.2997140  87.2875210 150.5701160  95.1071670  87.3804450
 144.9381340  98.6490910 101.7906030 144.5536130  98.0084580 102.3888990
 145.2493530  99.3527030 102.3600760 151.0878480  95.4967450  97.2714650
 151.4548610  95.0226020  98.0175990 150.8983540  96.3709020  97.6122990
 143.9518970  90.2411140  93.4008120 143.6665890  89.8766810  94.2386740
 143.8897830  89.5091600  92.7871260 148.8777850  94.5376090  99.5898860
 148.5734920  95.4168070  99.8149220 149.8324310  94.5975880  99.6256300
 147.4059640  98.7437080  90.1865710 146.6321900  98.2034700  90.0264430
 148.1354270  98.2243690  89.8483470 147.4497040  98.4117460  93.8244520
 147.9675710  97.6085720  93.7701410 146.9981060  98.3496600  94.6661350
 144.9341580  95.3778830 100.7370220 144.5756520  96.0432680 101.3243560
 144.6396140  94.5462380 101.1082840 148.1354700  95.8363070 103.6209770
 147.8354840  95.9820250 102.7237590 148.9065940  95.2768360 103.5283160
 151.3057230  99.7597270  91.8687740 151.9928360 100.3066480  92.2495330
 150.5189650 100.3038000  91.9037350 143.4449630  95.3770090  87.3604820
 144.3144480  95.6594890  87.6440740 142.9539950  96.1905960  87.2453630
 150.6084440  96.7643300  91.4813100 151.0647220  97.5748550  91.7073290
 150.2572650  96.4466440  92.3131590 146.5096220  87.1080950  91.9535620
 146.3810850  87.0998850  92.9020540 145.6858240  87.4464040  91.6026630
 143.8120880 104.5897470  87.9266450 144.1718520 105.1886810  87.2723720
 143.6713220 105.1357360  88.7001480 143.5090150  88.8672070 101.4142320
 142.7948670  89.0668990 102.0194930 143.9285190  88.0911640 101.7857120
 143.7962740 102.8552330 102.4008850 143.9053860 101.9147070 102.2604240
 143.1443300 103.1207080 101.7522580 151.7875330 101.1268220 103.8006970
 151.4672200 100.4077460 104.3452660 151.1133690 101.8023290 103.8743030
 149.8289500 101.9728670  88.7440120 149.8199600 102.7058360  88.1284630
 148.9087860 101.7260250  88.8367080 145.4296140  97.1943560  89.4886880
 144.8224090  97.9342460  89.4982180 145.9045490  97.2842920  88.6625080
 150.3374990  92.5937270  91.3889210 149.6291140  93.0623610  91.8302820
 150.6219470  91.9359280  92.0234400 151.9630920  94.0133970  99.3881740
 152.4616170  94.4879790 100.0533590 152.1053870  93.0897490  99.5951770
 151.4567210 104.5543230  92.1012980 151.7108710 104.5164620  91.1792350
 150.5079690 104.4276560  92.0941230 148.5410010  90.9022350  88.7639920
 149.3900540  91.3392500  88.6980110 148.1741280  91.2142610  89.5911980
 147.4401430  97.1554710  87.2375450 148.2064700  97.0436070  87.8000880
 147.5176120  96.4592680  86.5852220 146.1348190  94.5879780  87.9208340
 146.2151780  93.6407290  88.0325740 147.0267940  94.9186660  88.0269000
 146.9362900 104.7375170  95.0242880 147.6725380 104.1890630  95.2951450
 147.3203820 105.6031180  94.8848870 143.8208380 100.8048740  90.8984390
 142.8948160 101.0469880  90.8889800 144.2864810 101.6323000  90.7769140
 145.9421180 103.9221240 104.2128460 146.7433910 104.2433290 104.6263860
 145.4273000 103.5616820 104.9348370 150.0465210 103.9105480  86.8468450
 150.8393820 104.1994310  86.3950240 149.5269560 103.4797650  86.1680930
 143.6618990  96.4094700 103.1564510 144.1658010  95.8301980 103.7280740
 142.9226410  96.6934930 103.6940880 150.5642610  99.1308890  86.7110800
 150.4593250  98.5161240  87.4372180 150.3966830  98.6074780  85.9273810
 150.7156930  97.8165690 102.6900030 149.9502600  98.3850690 102.6054700
 150.8972890  97.5241900 101.7968260 145.6942070  94.5524290 104.0514580
 145.7347410  94.2538160 104.9599810 146.5487570  94.9531900 103.8922100
 149.4720460  97.1519840  89.2118090 149.8936880  96.9859710  90.0549480
 149.5971300  96.3420070  88.7173230 147.6347880  93.1316390 102.0189070
 147.1044340  92.6407340 101.3912410 148.3035950  93.5600590 101.4847000
 151.9848100  96.1757450  86.4595190 152.5053760  95.4606470  86.0936340
 152.6316500  96.8143320  86.7595700 148.1220180  90.0978760 102.0986360
 148.0277050  89.4799510 101.3737230 147.5417570  90.8245050 101.8716270
 150.8881620  88.6552000  99.1313750 150.4398920  88.6776260  98.2859300
 150.2546820  88.2571020  99.7284050 151.2941170  97.5506330  99.7526190
 151.7129280  98.3939060  99.5802430 150.3749800  97.6878370  99.5232970
 148.3679360  93.2253070  86.1576250 148.1668420  92.3620430  86.5189590
 148.1971410  93.1386430  85.2197850 149.1448590 103.8559340 100.8683920
 148.6069680 104.5805400 100.5492620 149.3982550 103.3789680 100.0781260
 150.3973840  91.8243860 102.3939850 150.9873530  91.5159710 103.0817670
 149.5794080  91.3523610 102.5499750 147.1662160  90.3253690  86.1454130
 147.4688060  90.3321120  85.2373280 147.9056750  89.9751550  86.6421790
 152.0010800 105.0910550 101.1270570 151.9269500 105.9945690 101.4342940
 151.0989640 104.7722450 101.0992640 150.3847090  89.2688310  87.1310330
 150.0369090  88.5912300  86.5512780 150.5859860  88.8077820  87.9453720
 146.1892290  99.6296110  86.9783930 146.6267160 100.1725780  87.6341510
 146.6740020  98.8043060  86.9880270 143.4038090 102.4185140  94.4304190
 143.7341100 101.5506200  94.1982830 143.8329090 102.6243660  95.2609150
 148.0000010 100.7494150  92.0906160 147.6995550 100.6259120  92.9910070
 147.8937500  99.8902740  91.6821890 143.8928300 103.2855730  97.1685820
 143.4559290 103.4656530  98.0009970 144.4605980 104.0430350  97.0267540
 143.7252730  95.7975960  93.5274700 143.0701570  95.5287600  92.8834400
 144.5630680  95.6880440  93.0776680 144.7628660  96.1828530  98.0678040
 145.1301700  96.0955930  98.9474060 144.1939480  95.4195080  97.9684900
 144.3144660  93.0937620 101.9736460 143.4200710  93.0604380 102.3130170
 144.8542210  93.2924410 102.7387710 142.9390810  93.0074890  89.4700030
 142.0354890  93.2705090  89.2951690 143.4231430  93.2786060  88.6899990
 145.4818020  92.0640430  87.3794410 146.1909720  91.6423650  86.8941690
 144.7657960  92.1315660  86.7477760 145.1292180  88.1179760  86.4197060
 145.8520310  88.6588700  86.7378280 145.4016700  87.8443180  85.5438600
 144.8184370  87.3685950  96.3219680 145.4660560  86.8183330  95.8814840
 145.2386210  87.6229100  97.1435490 144.5716370  87.5241620  99.0645000
 144.2231190  87.9805440  99.8303180 144.2404070  86.6298750  99.1467430
 146.1780740 100.6961220 103.2298190 146.1350370 100.3254130 104.1112650
 146.3091750 101.6338790 103.3700010 149.8786770 102.2520810  98.8307910
 149.6378130 102.5195370  97.9438430 150.8189410 102.4226540  98.8858770
 145.2437010  87.0517820 102.3395770 145.7920000  86.8705870 101.5761880
 145.3092320  86.2611930 102.8752080 146.0168770 103.6423470 100.3495970
 145.4229090 103.5108170 101.0886010 146.0092610 102.8061610  99.8838070
 145.6481000 101.0081850  99.3004010 144.9215060 100.3887140  99.2329960
 145.7090150 101.4022460  98.4302090 149.2526100 103.2226850  96.0853420
 149.7691120 102.6114210  95.5601680 149.9023480 103.7255630  96.5764430
 151.9921600 104.1135340  96.9122400 152.2799410 103.8589640  96.0355410
 152.5044820 103.5612700  97.5027970 143.9311000 104.3256240  92.5100770
 143.7633040 103.6926920  93.2082660 143.0645510 104.5315640  92.1594960
 144.5539020  88.1573020  90.0132630 145.3118380  88.2701900  89.4396660
 144.0916190  88.9942220  89.9676060 151.0952830  90.2712290  93.0034940
 150.2827340  89.8969180  92.6630820 151.5994470  89.5157370  93.3056130
 145.5373700 103.0189470  89.9550910 145.0121320 103.3997500  89.2512870
 145.4618280 103.6440240  90.6760620 146.9264170  88.6837070  88.5534600
 147.4556930  87.8966870  88.4242550 147.5592490  89.3628260  88.7870130
 149.1202010  88.4212210  91.6079990 148.4904750  87.7199520  91.7750120
 148.5807150  89.1816340  91.3913150 149.2457570  87.6996190 104.0432480
 148.9641840  88.2029790 103.2793300 149.6277270  86.9017940 103.6774610
 148.1366670 104.9671850  88.8300160 148.8685490 104.6831130  88.2824050
 148.3960340 104.7285130  89.7199540 147.2981460 101.0836580  88.8346490
 146.6690340 101.5521680  89.3832320 147.4129290 100.2385800  89.2692680
 146.9015050  97.2241070  77.7432720 146.0699930  96.9689780  78.1429230
 147.5096030  97.2951840  78.4790640 146.8816310 101.2581160  77.9390740
 147.1844350 100.3678900  77.7600960 147.6259900 101.8151380  77.7112990
 145.3107000  92.1842960  71.5275110 144.4223700  92.5258930  71.4254990
 145.5948190  91.9843280  70.6355940 143.2740010  94.7848610  77.4114810
 143.8456120  94.0170810  77.4118450 143.2741550  95.0837370  76.5021420
 144.5164880  90.1932970  79.1983740 144.3367720  89.2958720  79.4786500
 144.1144960  90.7404840  79.8730690 147.4868390  90.7674460  72.5613490
 147.5935140  91.6678190  72.8682250 146.5760750  90.7192430  72.2708140
 145.1351550  92.6893470  77.8066080 145.8161660  92.9531840  78.4253480
 144.8199600  91.8494340  78.1404090 149.3276120  93.7360830  76.8938670
 149.8354340  94.2341800  77.5343690 149.8589360  92.9596030  76.7178030
 147.6112220  88.3759390  81.1602090 147.6130660  88.8931780  80.3547990
 146.7816530  87.8989570  81.1372020 148.8615070  98.0154570  79.3375590
 148.5284450  98.6423490  79.9796660 149.0381750  98.5416450  78.5577260
 147.2927550  90.0869350  79.1672540 147.6344360  90.9311400  78.8726410
 146.3543360  90.2353090  79.2837880 148.0734170  99.9835370  81.1524770
 148.6908170 100.6586450  80.8709220 147.2127290 100.3923350  81.0612270
 143.3666510  99.1735230  70.0331620 142.9894490  99.6622330  69.3016520
 143.6239580  99.8460510  70.6638150 150.9755440  87.5751620  75.4917130
 151.2830420  87.0198510  74.7752630 150.0456140  87.7096080  75.3090120
 148.9692840  96.1665190  75.0096980 148.5649840  95.4542440  74.5142880
 149.0555960  95.8218430  75.8985020 149.4374540  99.8532750  77.1736190
 149.1402830  99.2478220  76.4943970 150.3874360  99.8910060  77.0625550
 147.6821460  92.9408400  78.7896020 148.2336050  93.0503740  78.0149270
 148.1964970  93.3146000  79.5051250 148.5292970  99.5914440  83.8243990
 147.6321500  99.8154410  84.0717390 148.5545840  99.7149380  82.8755390
 147.3564190  96.4627760  82.4001360 147.2171960  97.3350560  82.7688760
 146.4745550  96.1200570  82.2549300 149.1544540 102.4049460  84.6086510
 149.1259970 102.8092410  83.7414940 148.9909510 101.4759820  84.4458110
 145.6697470  95.0610170  72.5103630 145.5495070  95.7872260  71.8984900
 145.3598360  94.2913080  72.0331540 143.3082840  98.2325310  78.3172270
 143.3863260  98.3674080  77.3727990 143.9224520  97.5241200  78.5100390
 144.5530470  99.9325500  74.7278450 144.1458550 100.0740090  73.8732050
 145.4443480  99.6485660  74.5249660 148.8252130 104.1471280  72.8401120
 148.6494610 103.2306820  72.6268920 147.9707870 104.5058570  73.0798920
 143.3642360  99.2739480  80.8566730 143.5273400  98.8044840  80.0386100
 143.8294810  98.7663040  81.5215570 148.1361130  88.4045240  75.8927300
 147.6929280  89.1854780  75.5611820 148.6946120  88.7275130  76.5998240
 152.4230940  91.2713760  81.4962620 151.9610310  91.4796780  82.3082560
 152.0209050  90.4573110  81.1933290 151.2519950  88.0255940  70.7733130
 150.6274130  88.0215810  71.4986440 151.1650070  87.1586900  70.3769100
 150.1737030  88.9492570  77.7516900 150.4709360  89.8555400  77.6708920
 150.7222590  88.4611350  77.1376470 147.9275350  93.5278810  73.6208550
 147.7016270  93.3115980  74.5255170 147.1467880  93.9607270  73.2754520
 150.3674560  94.4264390  84.2868820 150.2718160  93.4859120  84.1369220
 151.2106540  94.6479460  83.8916890 145.4985100  90.8378060  82.4402600
 145.1048490  91.6853270  82.6475380 144.8103500  90.2004430  82.6311240
 142.9872380  92.7026640  67.6835400 142.9047050  93.6457400  67.8250390
 142.6355440  92.5601550  66.8047750 150.7870510  91.4365670  76.7505750
 150.7906570  90.9955620  75.9010290 151.6821630  91.7583000  76.8577570
 146.6372890  91.3192160  75.7099960 146.2972940  91.7967390  76.4667010
 145.8750210  90.8657280  75.3501060 150.8490660  92.4377750  69.7412510
 150.9703480  92.3964230  70.6898330 150.4639170  93.3001900  69.5859240
 149.8612160  94.7478890  69.1395810 149.2929060  94.2997140  68.5131720
 150.5701160  95.1071670  68.6060960 144.9381340  98.6490910  83.0162540
 144.5536130  98.0084580  83.6145500 145.2493530  99.3527030  83.5857270
 151.0878480  95.4967450  78.4971160 151.4548610  95.0226020  79.2432500
 150.8983540  96.3709020  78.8379500 143.9518970  90.2411140  74.6264630
 143.6665890  89.8766810  75.4643250 143.8897830  89.5091600  74.0127770
 148.8777850  94.5376090  80.8155370 148.5734920  95.4168070  81.0405730
 149.8324310  94.5975880  80.8512810 147.4059640  98.7437080  71.4122220
 146.6321900  98.2034700  71.2520940 148.1354270  98.2243690  71.0739980
 147.4497040  98.4117460  75.0501030 147.9675710  97.6085720  74.9957920
 146.9981060  98.3496600  75.8917860 144.9341580  95.3778830  81.9626730
 144.5756520  96.0432680  82.5500070 144.6396140  94.5462380  82.3339350
 148.1354700  95.8363070  84.8466280 147.8354840  95.9820250  83.9494100
 148.9065940  95.2768360  84.7539670 151.3057230  99.7597270  73.0944250
 151.9928360 100.3066480  73.4751840 150.5189650 100.3038000  73.1293860
 143.4449630  95.3770090  68.5861330 144.3144480  95.6594890  68.8697250
 142.9539950  96.1905960  68.4710140 150.6084440  96.7643300  72.7069610
 151.0647220  97.5748550  72.9329800 150.2572650  96.4466440  73.5388100
 146.5096220  87.1080950  73.1792130 146.3810850  87.0998850  74.1277050
 145.6858240  87.4464040  72.8283140 143.8120880 104.5897470  69.1522960
 144.1718520 105.1886810  68.4980230 143.6713220 105.1357360  69.9257990
 143.5090150  88.8672070  82.6398830 142.7948670  89.0668990  83.2451440
 143.9285190  88.0911640  83.0113630 143.7962740 102.8552330  83.6265360
 143.9053860 101.9147070  83.4860750 143.1443300 103.1207080  82.9779090
 151.7875330 101.1268220  85.0263480 151.4672200 100.4077460  85.5709170
 151.1133690 101.8023290  85.0999540 149.8289500 101.9728670  69.9696630
 149.8199600 102.7058360  69.3541140 148.9087860 101.7260250  70.0623590
 145.4296140  97.1943560  70.7143390 144.8224090  97.9342460  70.7238690
 145.9045490  97.2842920  69.8881590 150.3374990  92.5937270  72.6145720
 149.6291140  93.0623610  73.0559330 150.6219470  91.9359280  73.2490910
 151.9630920  94.0133970  80.6138250 152.4616170  94.4879790  81.2790100
 152.1053870  93.0897490  80.8208280 151.4567210 104.5543230  73.3269490
 151.7108710 104.5164620  72.4048860 150.5079690 104.4276560  73.3197740
 148.5410010  90.9022350  69.9896430 149.3900540  91.3392500  69.9236620
 148.1741280  91.2142610  70.8168490 147.4401430  97.1554710  68.4631960
 148.2064700  97.0436070  69.0257390 147.5176120  96.4592680  67.8108730
 146.1348190  94.5879780  69.1464850 146.2151780  93.6407290  69.2582250
 147.0267940  94.9186660  69.2525510 146.9362900 104.7375170  76.2499390
 147.6725380 104.1890630  76.5207960 147.3203820 105.6031180  76.1105380
 143.8208380 100.8048740  72.1240900 142.8948160 101.0469880  72.1146310
 144.2864810 101.6323000  72.0025650 145.9421180 103.9221240  85.4384970
 146.7433910 104.2433290  85.8520370 145.4273000 103.5616820  86.1604880
 150.0465210 103.9105480  68.0724960 150.8393820 104.1994310  67.6206750
 149.5269560 103.4797650  67.3937440 143.6618990  96.4094700  84.3821020
 144.1658010  95.8301980  84.9537250 142.9226410  96.6934930  84.9197390
 150.5642610  99.1308890  67.9367310 150.4593250  98.5161240  68.6628690
 150.3966830  98.6074780  67.1530320 150.7156930  97.8165690  83.9156540
 149.9502600  98.3850690  83.8311210 150.8972890  97.5241900  83.0224770
 145.6942070  94.5524290  85.2771090 145.7347410  94.2538160  86.1856320
 146.5487570  94.9531900  85.1178610 149.4720460  97.1519840  70.4374600
 149.8936880  96.9859710  71.2805990 149.5971300  96.3420070  69.9429740
 147.6347880  93.1316390  83.2445580 147.1044340  92.6407340  82.6168920
 148.3035950  93.5600590  82.7103510 151.9848100  96.1757450  67.6851700
 152.5053760  95.4606470  67.3192850 152.6316500  96.8143320  67.9852210
 148.1220180  90.0978760  83.3242870 148.0277050  89.4799510  82.5993740
 147.5417570  90.8245050  83.0972780 150.8881620  88.6552000  80.3570260
 150.4398920  88.6776260  79.5115810 150.2546820  88.2571020  80.9540560
 151.2941170  97.5506330  80.9782700 151.7129280  98.3939060  80.8058940
 150.3749800  97.6878370  80.7489480 148.3679360  93.2253070  67.3832760
 148.1668420  92.3620430  67.7446100 148.1971410  93.1386430  66.4454360
 149.1448590 103.8559340  82.0940430 148.6069680 104.5805400  81.7749130
 149.3982550 103.3789680  81.3037770 150.3973840  91.8243860  83.6196360
 150.9873530  91.5159710  84.3074180 149.5794080  91.3523610  83.7756260
 147.1662160  90.3253690  67.3710640 147.4688060  90.3321120  66.4629790
 147.9056750  89.9751550  67.8678300 152.0010800 105.0910550  82.3527080
 151.9269500 105.9945690  82.6599450 151.0989640 104.7722450  82.3249150
 150.3847090  89.2688310  68.3566840 150.0369090  88.5912300  67.7769290
 150.5859860  88.8077820  69.1710230 146.1892290  99.6296110  68.2040440
 146.6267160 100.1725780  68.8598020 146.6740020  98.8043060  68.2136780
 143.4038090 102.4185140  75.6560700 143.7341100 101.5506200  75.4239340
 143.8329090 102.6243660  76.4865660 148.0000010 100.7494150  73.3162670
 147.6995550 100.6259120  74.2166580 147.8937500  99.8902740  72.9078400
 143.8928300 103.2855730  78.3942330 143.4559290 103.4656530  79.2266480
 144.4605980 104.0430350  78.2524050 143.7252730  95.7975960  74.7531210
 143.0701570  95.5287600  74.1090910 144.5630680  95.6880440  74.3033190
 144.7628660  96.1828530  79.2934550 145.1301700  96.0955930  80.1730570
 144.1939480  95.4195080  79.1941410 144.3144660  93.0937620  83.1992970
 143.4200710  93.0604380  83.5386680 144.8542210  93.2924410  83.9644220
 142.9390810  93.0074890  70.6956540 142.0354890  93.2705090  70.5208200
 143.4231430  93.2786060  69.9156500 145.4818020  92.0640430  68.6050920
 146.1909720  91.6423650  68.1198200 144.7657960  92.1315660  67.9734270
 145.1292180  88.1179760  67.6453570 145.8520310  88.6588700  67.9634790
 145.4016700  87.8443180  66.7695110 144.8184370  87.3685950  77.5476190
 145.4660560  86.8183330  77.1071350 145.2386210  87.6229100  78.3692000
 144.5716370  87.5241620  80.2901510 144.2231190  87.9805440  81.0559690
 144.2404070  86.6298750  80.3723940 146.1780740 100.6961220  84.4554700
 146.1350370 100.3254130  85.3369160 146.3091750 101.6338790  84.5956520
 149.8786770 102.2520810  80.0564420 149.6378130 102.5195370  79.1694940
 150.8189410 102.4226540  80.1115280 145.2437010  87.0517820  83.5652280
 145.7920000  86.8705870  82.8018390 145.3092320  86.2611930  84.1008590
 146.0168770 103.6423470  81.5752480 145.4229090 103.5108170  82.3142520
 146.0092610 102.8061610  81.1094580 145.6481000 101.0081850  80.5260520
 144.9215060 100.3887140  80.4586470 145.7090150 101.4022460  79.6558600
 149.2526100 103.2226850  77.3109930 149.7691120 102.6114210  76.7858190
 149.9023480 103.7255630  77.8020940 151.9921600 104.1135340  78.1378910
 152.2799410 103.8589640  77.2611920 152.5044820 103.5612700  78.7284480
 143.9311000 104.3256240  73.7357280 143.7633040 103.6926920  74.4339170
 143.0645510 104.5315640  73.3851470 144.5539020  88.1573020  71.2389140
 145.3118380  88.2701900  70.6653170 144.0916190  88.9942220  71.1932570
 151.0952830  90.2712290  74.2291450 150.2827340  89.8969180  73.8887330
 151.5994470  89.5157370  74.5312640 145.5373700 103.0189470  71.1807420
 145.0121320 103.3997500  70.4769380 145.4618280 103.6440240  71.9017130
 146.9264170  88.6837070  69.7791110 147.4556930  87.8966870  69.6499060
 147.5592490  89.3628260  70.0126640 149.1202010  88.4212210  72.8336500
 148.4904750  87.7199520  73.0006630 148.5807150  89.1816340  72.6169660
 149.2457570  87.6996190  85.2688990 148.9641840  88.2029790  84.5049810
 149.6277270  86.9017940  84.9031120 148.1366670 104.9671850  70.0556670
 148.8685490 104.6831130  69.5080560 148.3960340 104.7285130  70.9456050
 147.2981460 101.0836580  70.0603000 146.6690340 101.5521680  70.6088830
 147.4129290 100.2385800  70.4949190 146.9015050  97.2241070  58.9689230
 146.0699930  96.9689780  59.3685740 147.5096030  97.2951840  59.7047150
 146.8816310 101.2581160  59.1647250 147.1844350 100.3678900  58.9857470
 147.6259900 101.8151380  58.9369500 145.3107000  92.1842960  52.7531620
 144.4223700  92.5258930  52.6511500 145.5948190  91.9843280  51.8612450
 143.2740010  94.7848610  58.6371320 143.8456120  94.0170810  58.6374960
 143.2741550  95.0837370  57.7277930 144.5164880  90.1932970  60.4240250
 144.3367720  89.2958720  60.7043010 144.1144960  90.7404840  61.0987200
 147.4868390  90.7674460  53.7870000 147.5935140  91.6678190  54.0938760
 146.5760750  90.7192430  53.4964650 145.1351550  92.6893470  59.0322590
 145.8161660  92.9531840  59.6509990 144.8199600  91.8494340  59.3660600
 149.3276120  93.7360830  58.1195180 149.8354340  94.2341800  58.7600200
 149.8589360  92.9596030  57.9434540 147.6112220  88.3759390  62.3858600
 147.6130660  88.8931780  61.5804500 146.7816530  87.8989570  62.3628530
 148.8615070  98.0154570  60.5632100 148.5284450  98.6423490  61.2053170
 149.0381750  98.5416450  59.7833770 147.2927550  90.0869350  60.3929050
 147.6344360  90.9311400  60.0982920 146.3543360  90.2353090  60.5094390
 148.0734170  99.9835370  62.3781280 148.6908170 100.6586450  62.0965730
 147.2127290 100.3923350  62.2868780 143.3666510  99.1735230  51.2588130
 142.9894490  99.6622330  50.5273030 143.6239580  99.8460510  51.8894660
 150.9755440  87.5751620  56.7173640 151.2830420  87.0198510  56.0009140
 150.0456140  87.7096080  56.5346630 148.9692840  96.1665190  56.2353490
 148.5649840  95.4542440  55.7399390 149.0555960  95.8218430  57.1241530
 149.4374540  99.8532750  58.3992700 149.1402830  99.2478220  57.7200480
 150.3874360  99.8910060  58.2882060 147.6821460  92.9408400  60.0152530
 148.2336050  93.0503740  59.2405780 148.1964970  93.3146000  60.7307760
 148.5292970  99.5914440  65.0500500 147.6321500  99.8154410  65.2973900
 148.5545840  99.7149380  64.1011900 147.3564190  96.4627760  63.6257870
 147.2171960  97.3350560  63.9945270 146.4745550  96.1200570  63.4805810
 149.1544540 102.4049460  65.8343020 149.1259970 102.8092410  64.9671450
 148.9909510 101.4759820  65.6714620 145.6697470  95.0610170  53.7360140
 145.5495070  95.7872260  53.1241410 145.3598360  94.2913080  53.2588050
 143.3082840  98.2325310  59.5428780 143.3863260  98.3674080  58.5984500
 143.9224520  97.5241200  59.7356900 144.5530470  99.9325500  55.9534960
 144.1458550 100.0740090  55.0988560 145.4443480  99.6485660  55.7506170
 148.8252130 104.1471280  54.0657630 148.6494610 103.2306820  53.8525430
 147.9707870 104.5058570  54.3055430 143.3642360  99.2739480  62.0823240
 143.5273400  98.8044840  61.2642610 143.8294810  98.7663040  62.7472080
 148.1361130  88.4045240  57.1183810 147.6929280  89.1854780  56.7868330
 148.6946120  88.7275130  57.8254750 152.4230940  91.2713760  62.7219130
 151.9610310  91.4796780  63.5339070 152.0209050  90.4573110  62.4189800
 151.2519950  88.0255940  51.9989640 150.6274130  88.0215810  52.7242950
 151.1650070  87.1586900  51.6025610 150.1737030  88.9492570  58.9773410
 150.4709360  89.8555400  58.8965430 150.7222590  88.4611350  58.3632980
 147.9275350  93.5278810  54.8465060 147.7016270  93.3115980  55.7511680
 147.1467880  93.9607270  54.5011030 150.3674560  94.4264390  65.5125330
 150.2718160  93.4859120  65.3625730 151.2106540  94.6479460  65.1173400
 145.4985100  90.8378060  63.6659110 145.1048490  91.6853270  63.8731890
 144.8103500  90.2004430  63.8567750 142.8002150  88.7606520  57.6989190
 142.5115200  89.3309380  58.4114170 143.5447910  88.2810970  58.0620420
 142.9872380  92.7026640  48.9091910 142.9047050  93.6457400  49.0506900
 142.6355440  92.5601550  48.0304260 150.7870510  91.4365670  57.9762260
 150.7906570  90.9955620  57.1266800 151.6821630  91.7583000  58.0834080
 146.6372890  91.3192160  56.9356470 146.2972940  91.7967390  57.6923520
 145.8750210  90.8657280  56.5757570 150.8490660  92.4377750  50.9669020
 150.9703480  92.3964230  51.9154840 150.4639170  93.3001900  50.8115750
 149.8612160  94.7478890  50.3652320 149.2929060  94.2997140  49.7388230
 150.5701160  95.1071670  49.8317470 144.9381340  98.6490910  64.2419050
 144.5536130  98.0084580  64.8402010 145.2493530  99.3527030  64.8113780
 151.0878480  95.4967450  59.7227670 151.4548610  95.0226020  60.4689010
 150.8983540  96.3709020  60.0636010 143.9518970  90.2411140  55.8521140
 143.6665890  89.8766810  56.6899760 143.8897830  89.5091600  55.2384280
 148.8777850  94.5376090  62.0411880 148.5734920  95.4168070  62.2662240
 149.8324310  94.5975880  62.0769320 147.4059640  98.7437080  52.6378730
 146.6321900  98.2034700  52.4777450 148.1354270  98.2243690  52.2996490
 147.4497040  98.4117460  56.2757540 147.9675710  97.6085720  56.2214430
 146.9981060  98.3496600  57.1174370 144.9341580  95.3778830  63.1883240
 144.5756520  96.0432680  63.7756580 144.6396140  94.5462380  63.5595860
 148.1354700  95.8363070  66.0722790 147.8354840  95.9820250  65.1750610
 148.9065940  95.2768360  65.9796180 151.3057230  99.7597270  54.3200760
 151.9928360 100.3066480  54.7008350 150.5189650 100.3038000  54.3550370
 143.4449630  95.3770090  49.8117840 144.3144480  95.6594890  50.0953760
 142.9539950  96.1905960  49.6966650 150.6084440  96.7643300  53.9326120
 151.0647220  97.5748550  54.1586310 150.2572650  96.4466440  54.7644610
 146.5096220  87.1080950  54.4048640 146.3810850  87.0998850  55.3533560
 145.6858240  87.4464040  54.0539650 143.8120880 104.5897470  50.3779470
 144.1718520 105.1886810  49.7236740 143.6713220 105.1357360  51.1514500
 143.5090150  88.8672070  63.8655340 142.7948670  89.0668990  64.4707950
 143.9285190  88.0911640  64.2370140 143.7962740 102.8552330  64.8521870
 143.9053860 101.9147070  64.7117260 143.1443300 103.1207080  64.2035600
 151.7875330 101.1268220  66.2519990 151.4672200 100.4077460  66.7965680
 151.1133690 101.8023290  66.3256050 149.8289500 101.9728670  51.1953140
 149.8199600 102.7058360  50.5797650 148.9087860 101.7260250  51.2880100
 145.4296140  97.1943560  51.9399900 144.8224090  97.9342460  51.9495200
 145.9045490  97.2842920  51.1138100 150.3374990  92.5937270  53.8402230
 149.6291140  93.0623610  54.2815840 150.6219470  91.9359280  54.4747420
 151.9630920  94.0133970  61.8394760 152.4616170  94.4879790  62.5046610
 152.1053870  93.0897490  62.0464790 151.4567210 104.5543230  54.5526000
 151.7108710 104.5164620  53.6305370 150.5079690 104.4276560  54.5454250
 148.5410010  90.9022350  51.2152940 149.3900540  91.3392500  51.1493130
 148.1741280  91.2142610  52.0425000 147.4401430  97.1554710  49.6888470
 148.2064700  97.0436070  50.2513900 147.5176120  96.4592680  49.0365240
 146.1348190  94.5879780  50.3721360 146.2151780  93.6407290  50.4838760
 147.0267940  94.9186660  50.4782020 146.9362900 104.7375170  57.4755900
 147.6725380 104.1890630  57.7464470 147.3203820 105.6031180  57.3361890
 143.8208380 100.8048740  53.3497410 142.8948160 101.0469880  53.3402820
 144.2864810 101.6323000  53.2282160 145.9421180 103.9221240  66.6641480
 146.7433910 104.2433290  67.0776880 145.4273000 103.5616820  67.3861390
 150.0465210 103.9105480  49.2981470 150.8393820 104.1994310  48.8463260
 149.5269560 103.4797650  48.6193950 143.6618990  96.4094700  65.6077530
 144.1658010  95.8301980  66.1793760 142.9226410  96.6934930  66.1453900
 150.5642610  99.1308890  49.1623820 150.4593250  98.5161240  49.8885200
 150.3966830  98.6074780  48.3786830 150.7156930  97.8165690  65.1413050
 149.9502600  98.3850690  65.0567720 150.8972890  97.5241900  64.2481280
 145.6942070  94.5524290  66.5027600 145.7347410  94.2538160  67.4112830
 146.5487570  94.9531900  66.3435120 149.4720460  97.1519840  51.6631110
 149.8936880  96.9859710  52.5062500 149.5971300  96.3420070  51.1686250
 147.6347880  93.1316390  64.4702090 147.1044340  92.6407340  63.8425430
 148.3035950  93.5600590  63.9360020 151.9848100  96.1757450  48.9108210
 152.5053760  95.4606470  48.5449360 152.6316500  96.8143320  49.2108720
 148.1220180  90.0978760  64.5499380 148.0277050  89.4799510  63.8250250
 147.5417570  90.8245050  64.3229290 150.8881620  88.6552000  61.5826770
 150.4398920  88.6776260  60.7372320 150.2546820  88.2571020  62.1797070
 151.2941170  97.5506330  62.2039210 151.7129280  98.3939060  62.0315450
 150.3749800  97.6878370  61.9745990 148.3679360  93.2253070  48.6089270
 148.1668420  92.3620430  48.9702610 148.1971410  93.1386430  47.6710870
 149.1448590 103.8559340  63.3196940 148.6069680 104.5805400  63.0005640
 149.3982550 103.3789680  62.5294280 150.3973840  91.8243860  64.8452870
 150.9873530  91.5159710  65.5330690 149.5794080  91.3523610  65.0012770
 147.1662160  90.3253690  48.5967150 147.4688060  90.3321120  47.6886300
 147.9056750  89.9751550  49.0934810 152.0010800 105.0910550  63.5783590
 151.9269500 105.9945690  63.8855960 151.0989640 104.7722450  63.5505660
 150.3847090  89.2688310  49.5823350 150.0369090  88.5912300  49.0025800
 150.5859860  88.8077820  50.3966740 146.1892290  99.6296110  49.4296950
 146.6267160 100.1725780  50.0854530 146.6740020  98.8043060  49.4393290
 143.4038090 102.4185140  56.8817210 143.7341100 101.5506200  56.6495850
 143.8329090 102.6243660  57.7122170 148.0000010 100.7494150  54.5419180
 147.6995550 100.6259120  55.4423090 147.8937500  99.8902740  54.1334910
 143.8928300 103.2855730  59.6198840 143.4559290 103.4656530  60.4522990
 144.4605980 104.0430350  59.4780560 143.7252730  95.7975960  55.9787720
 143.0701570  95.5287600  55.3347420 144.5630680  95.6880440  55.5289700
 144.7628660  96.1828530  60.5191060 145.1301700  96.0955930  61.3987080
 144.1939480  95.4195080  60.4197920 144.3144660  93.0937620  64.4249480
 143.4200710  93.0604380  64.7643190 144.8542210  93.2924410  65.1900730
 142.9390810  93.0074890  51.9213050 142.0354890  93.2705090  51.7464710
 143.4231430  93.2786060  51.1413010 145.4818020  92.0640430  49.8307430
 146.1909720  91.6423650  49.3454710 144.7657960  92.1315660  49.1990780
 145.1292180  88.1179760  48.8710080 145.8520310  88.6588700  49.1891300
 145.4016700  87.8443180  47.9951620 144.8184370  87.3685950  58.7732700
 145.4660560  86.8183330  58.3327860 145.2386210  87.6229100  59.5948510
 144.5716370  87.5241620  61.5158020 144.2231190  87.9805440  62.2816200
 144.2404070  86.6298750  61.5980450 146.1780740 100.6961220  65.6811210
 146.1350370 100.3254130  66.5625670 146.3091750 101.6338790  65.8213030
 149.8786770 102.2520810  61.2820930 149.6378130 102.5195370  60.3951450
 150.8189410 102.4226540  61.3371790 145.2437010  87.0517820  64.7908790
 145.7920000  86.8705870  64.0274900 145.3092320  86.2611930  65.3265100
 146.0168770 103.6423470  62.8008990 145.4229090 103.5108170  63.5399030
 146.0092610 102.8061610  62.3351090 145.6481000 101.0081850  61.7517030
 144.9215060 100.3887140  61.6842980 145.7090150 101.4022460  60.8815110
 149.2526100 103.2226850  58.5366440 149.7691120 102.6114210  58.0114700
 149.9023480 103.7255630  59.0277450 151.9921600 104.1135340  59.3635420
 152.2799410 103.8589640  58.4868430 152.5044820 103.5612700  59.9540990
 143.9311000 104.3256240  54.9613790 143.7633040 103.6926920  55.6595680
 143.0645510 104.5315640  54.6107980 144.5539020  88.1573020  52.4645650
 145.3118380  88.2701900  51.8909680 144.0916190  88.9942220  52.4189080
 151.0952830  90.2712290  55.4547960 150.2827340  89.8969180  55.1143840
 151.5994470  89.5157370  55.7569150 145.5373700 103.0189470  52.4063930
 145.0121320 103.3997500  51.7025890 145.4618280 103.6440240  53.1273640
 146.9264170  88.6837070  51.0047620 147.4556930  87.8966870  50.8755570
 147.5592490  89.3628260  51.2383150 149.1202010  88.4212210  54.0593010
 148.4904750  87.7199520  54.2263140 148.5807150  89.1816340  53.8426170
 149.2457570  87.6996190  66.4945500 148.9641840  88.2029790  65.7306320
 149.6277270  86.9017940  66.1287630 148.1366670 104.9671850  51.2813180
 148.8685490 104.6831130  50.7337070 148.3960340 104.7285130  52.1712560
 147.2981460 101.0836580  51.2859510 146.6690340 101.5521680  51.8345340
 147.4129290 100.2385800  51.7205700 146.9015050  97.2241070  40.1945740
 146.0699930  96.9689780  40.5942250 147.5096030  97.2951840  40.9303660
 146.8816310 101.2581160  40.3903760 147.1844350 100.3678900  40.2113980
 147.6259900 101.8151380  40.1626010 145.3107000  92.1842960  33.9788130
 144.4223700  92.5258930  33.8768010 145.5948190  91.9843280  33.0868960
 143.2740010  94.7848610  39.8627830 143.8456120  94.0170810  39.8631470
 143.2741550  95.0837370  38.9534440 144.5164880  90.1932970  41.6496760
 144.3367720  89.2958720  41.9299520 144.1144960  90.7404840  42.3243710
 147.4868390  90.7674460  35.0126510 147.5935140  91.6678190  35.3195270
 146.5760750  90.7192430  34.7221160 145.1351550  92.6893470  40.2579100
 145.8161660  92.9531840  40.8766500 144.8199600  91.8494340  40.5917110
 149.3276120  93.7360830  39.3451690 149.8354340  94.2341800  39.9856710
 149.8589360  92.9596030  39.1691050 147.6112220  88.3759390  43.6115110
 147.6130660  88.8931780  42.8061010 146.7816530  87.8989570  43.5885040
 148.8615070  98.0154570  41.7888610 148.5284450  98.6423490  42.4309680
 149.0381750  98.5416450  41.0090280 147.2927550  90.0869350  41.6185560
 147.6344360  90.9311400  41.3239430 146.3543360  90.2353090  41.7350900
 148.0734170  99.9835370  43.6037790 148.6908170 100.6586450  43.3222240
 147.2127290 100.3923350  43.5125290 143.3666510  99.1735230  32.4844640
 142.9894490  99.6622330  31.7529540 143.6239580  99.8460510  33.1151170
 150.9755440  87.5751620  37.9430150 151.2830420  87.0198510  37.2265650
 150.0456140  87.7096080  37.7603140 148.9692840  96.1665190  37.4610000
 148.5649840  95.4542440  36.9655900 149.0555960  95.8218430  38.3498040
 149.4374540  99.8532750  39.6249210 149.1402830  99.2478220  38.9456990
 150.3874360  99.8910060  39.5138570 147.6821460  92.9408400  41.2409040
 148.2336050  93.0503740  40.4662290 148.1964970  93.3146000  41.9564270
 148.5292970  99.5914440  46.2757010 147.6321500  99.8154410  46.5230410
 148.5545840  99.7149380  45.3268410 147.3564190  96.4627760  44.8514380
 147.2171960  97.3350560  45.2201780 146.4745550  96.1200570  44.7062320
 149.1544540 102.4049460  47.0599530 149.1259970 102.8092410  46.1927960
 148.9909510 101.4759820  46.8971130 145.6697470  95.0610170  34.9616650
 145.5495070  95.7872260  34.3497920 145.3598360  94.2913080  34.4844560
 143.3082840  98.2325310  40.7685290 143.3863260  98.3674080  39.8241010
 143.9224520  97.5241200  40.9613410 144.5530470  99.9325500  37.1791470
 144.1458550 100.0740090  36.3245070 145.4443480  99.6485660  36.9762680
 148.8252130 104.1471280  35.2914140 148.6494610 103.2306820  35.0781940
 147.9707870 104.5058570  35.5311940 143.3642360  99.2739480  43.3079750
 143.5273400  98.8044840  42.4899120 143.8294810  98.7663040  43.9728590
 148.1361130  88.4045240  38.3440320 147.6929280  89.1854780  38.0124840
 148.6946120  88.7275130  39.0511260 152.4230940  91.2713760  43.9475640
 151.9610310  91.4796780  44.7595580 152.0209050  90.4573110  43.6446310
 151.2519950  88.0255940  33.2246150 150.6274130  88.0215810  33.9499460
 151.1650070  87.1586900  32.8282120 150.1737030  88.9492570  40.2029920
 150.4709360  89.8555400  40.1221940 150.7222590  88.4611350  39.5889490
 147.9275350  93.5278810  36.0721570 147.7016270  93.3115980  36.9768190
 147.1467880  93.9607270  35.7267540 150.3674560  94.4264390  46.7381840
 150.2718160  93.4859120  46.5882240 151.2106540  94.6479460  46.3429910
 145.4985100  90.8378060  44.8915620 145.1048490  91.6853270  45.0988400
 144.8103500  90.2004430  45.0824260 142.8002150  88.7606520  38.9245700
 142.5115200  89.3309380  39.6370680 143.5447910  88.2810970  39.2876930
 142.9872380  92.7026640  30.1348420 142.9047050  93.6457400  30.2763410
 142.6355440  92.5601550  29.2560770 150.7870510  91.4365670  39.2018770
 150.7906570  90.9955620  38.3523310 151.6821630  91.7583000  39.3090590
 146.6372890  91.3192160  38.1612980 146.2972940  91.7967390  38.9180030
 145.8750210  90.8657280  37.8014080 150.8490660  92.4377750  32.1925530
 150.9703480  92.3964230  33.1411350 150.4639170  93.3001900  32.0372260
 149.8612160  94.7478890  31.5908830 149.2929060  94.2997140  30.9644740
 150.5701160  95.1071670  31.0573980 144.9381340  98.6490910  45.4675560
 144.5536130  98.0084580  46.0658520 145.2493530  99.3527030  46.0370290
 151.0878480  95.4967450  40.9484180 151.4548610  95.0226020  41.6945520
 150.8983540  96.3709020  41.2892520 143.9518970  90.2411140  37.0777650
 143.6665890  89.8766810  37.9156270 143.8897830  89.5091600  36.4640790
 148.8777850  94.5376090  43.2668390 148.5734920  95.4168070  43.4918750
 149.8324310  94.5975880  43.3025830 147.4059640  98.7437080  33.8635240
 146.6321900  98.2034700  33.7033960 148.1354270  98.2243690  33.5253000
 147.4497040  98.4117460  37.5014050 147.9675710  97.6085720  37.4470940
 146.9981060  98.3496600  38.3430880 144.9341580  95.3778830  44.4139750
 144.5756520  96.0432680  45.0013090 144.6396140  94.5462380  44.7852370
 148.1354700  95.8363070  47.2979300 147.8354840  95.9820250  46.4007120
 148.9065940  95.2768360  47.2052690 151.3057230  99.7597270  35.5457270
 151.9928360 100.3066480  35.9264860 150.5189650 100.3038000  35.5806880
 143.4449630  95.3770090  31.0374350 144.3144480  95.6594890  31.3210270
 142.9539950  96.1905960  30.9223160 150.6084440  96.7643300  35.1582630
 151.0647220  97.5748550  35.3842820 150.2572650  96.4466440  35.9901120
 146.5096220  87.1080950  35.6305150 146.3810850  87.0998850  36.5790070
 145.6858240  87.4464040  35.2796160 143.8120880 104.5897470  31.6035980
 144.1718520 105.1886810  30.9493250 143.6713220 105.1357360  32.3771010
 143.5090150  88.8672070  45.0911850 142.7948670  89.0668990  45.6964460
 143.9285190  88.0911640  45.4626650 143.7962740 102.8552330  46.0778380
 143.9053860 101.9147070  45.9373770 143.1443300 103.1207080  45.4292110
 151.7875330 101.1268220  47.4776500 151.4672200 100.4077460  48.0222190
 151.1133690 101.8023290  47.5512560 149.8289500 101.9728670  32.4209650
 149.8199600 102.7058360  31.8054160 148.9087860 101.7260250  32.5136610
 145.4296140  97.1943560  33.1656410 144.8224090  97.9342460  33.1751710
 145.9045490  97.2842920  32.3394610 150.3374990  92.5937270  35.0658740
 149.6291140  93.0623610  35.5072350 150.6219470  91.9359280  35.7003930
 151.9630920  94.0133970  43.0651270 152.4616170  94.4879790  43.7303120
 152.1053870  93.0897490  43.2721300 151.4567210 104.5543230  35.7782510
 151.7108710 104.5164620  34.8561880 150.5079690 104.4276560  35.7710760
 148.5410010  90.9022350  32.4409450 149.3900540  91.3392500  32.3749640
 148.1741280  91.2142610  33.2681510 147.4401430  97.1554710  30.9144980
 148.2064700  97.0436070  31.4770410 147.5176120  96.4592680  30.2621750
 146.1348190  94.5879780  31.5977870 146.2151780  93.6407290  31.7095270
 147.0267940  94.9186660  31.7038530 146.9362900 104.7375170  38.7012410
 147.6725380 104.1890630  38.9720980 147.3203820 105.6031180  38.5618400
 143.8208380 100.8048740  34.5753920 142.8948160 101.0469880  34.5659330
 144.2864810 101.6323000  34.4538670 145.9421180 103.9221240  47.8897990
 146.7433910 104.2433290  48.3033390 145.4273000 103.5616820  48.6117900
 150.0465210 103.9105480  30.5237980 150.8393820 104.1994310  30.0719770
 149.5269560 103.4797650  29.8450460 143.6618990  96.4094700  46.8334040
 144.1658010  95.8301980  47.4050270 142.9226410  96.6934930  47.3710410
 150.5642610  99.1308890  30.3880330 150.4593250  98.5161240  31.1141710
 150.3966830  98.6074780  29.6043340 150.7156930  97.8165690  46.3669560
 149.9502600  98.3850690  46.2824230 150.8972890  97.5241900  45.4737790
 145.6942070  94.5524290  47.7284110 145.7347410  94.2538160  48.6369340
 146.5487570  94.9531900  47.5691630 149.4720460  97.1519840  32.8887620
 149.8936880  96.9859710  33.7319010 149.5971300  96.3420070  32.3942760
 147.6347880  93.1316390  45.6958600 147.1044340  92.6407340  45.0681940
 148.3035950  93.5600590  45.1616530 151.9848100  96.1757450  30.1364720
 152.5053760  95.4606470  29.7705870 152.6316500  96.8143320  30.4365230
 148.1220180  90.0978760  45.7755890 148.0277050  89.4799510  45.0506760
 147.5417570  90.8245050  45.5485800 150.8881620  88.6552000  42.8083280
 150.4398920  88.6776260  41.9628830 150.2546820  88.2571020  43.4053580
 151.2941170  97.5506330  43.4295720 151.7129280  98.3939060  43.2571960
 150.3749800  97.6878370  43.2002500 148.3679360  93.2253070  29.8345780
 148.1668420  92.3620430  30.1959120 148.1971410  93.1386430  28.8967380
 149.1448590 103.8559340  44.5453450 148.6069680 104.5805400  44.2262150
 149.3982550 103.3789680  43.7550790 150.3973840  91.8243860  46.0709380
 150.9873530  91.5159710  46.7587200 149.5794080  91.3523610  46.2269280
 147.1662160  90.3253690  29.8223660 147.4688060  90.3321120  28.9142810
 147.9056750  89.9751550  30.3191320 152.0010800 105.0910550  44.8040100
 151.9269500 105.9945690  45.1112470 151.0989640 104.7722450  44.7762170
 150.3847090  89.2688310  30.8079860 150.0369090  88.5912300  30.2282310
 150.5859860  88.8077820  31.6223250 146.1892290  99.6296110  30.6553460
 146.6267160 100.1725780  31.3111040 146.6740020  98.8043060  30.6649800
 143.4038090 102.4185140  38.1073720 143.7341100 101.5506200  37.8752360
 143.8329090 102.6243660  38.9378680 148.0000010 100.7494150  35.7675690
 147.6995550 100.6259120  36.6679600 147.8937500  99.8902740  35.3591420
 143.8928300 103.2855730  40.8455350 143.4559290 103.4656530  41.6779500
 144.4605980 104.0430350  40.7037070 143.7252730  95.7975960  37.2044230
 143.0701570  95.5287600  36.5603930 144.5630680  95.6880440  36.7546210
 144.7628660  96.1828530  41.7447570 145.1301700  96.0955930  42.6243590
 144.1939480  95.4195080  41.6454430 144.3144660  93.0937620  45.6505990
 143.4200710  93.0604380  45.9899700 144.8542210  93.2924410  46.4157240
 142.9390810  93.0074890  33.1469560 142.0354890  93.2705090  32.9721220
 143.4231430  93.2786060  32.3669520 145.4818020  92.0640430  31.0563940
 146.1909720  91.6423650  30.5711220 144.7657960  92.1315660  30.4247290
 145.1292180  88.1179760  30.0966590 145.8520310  88.6588700  30.4147810
 145.4016700  87.8443180  29.2208130 144.8184370  87.3685950  39.9989210
 145.4660560  86.8183330  39.5584370 145.2386210  87.6229100  40.8205020
 144.5716370  87.5241620  42.7414530 144.2231190  87.9805440  43.5072710
 144.2404070  86.6298750  42.8236960 146.1780740 100.6961220  46.9067720
 146.1350370 100.3254130  47.7882180 146.3091750 101.6338790  47.0469540
 149.8786770 102.2520810  42.5077440 149.6378130 102.5195370  41.6207960
 150.8189410 102.4226540  42.5628300 145.2437010  87.0517820  46.0165300
 145.7920000  86.8705870  45.2531410 145.3092320  86.2611930  46.5521610
 146.0168770 103.6423470  44.0265500 145.4229090 103.5108170  44.7655540
 146.0092610 102.8061610  43.5607600 145.6481000 101.0081850  42.9773540
 144.9215060 100.3887140  42.9099490 145.7090150 101.4022460  42.1071620
 149.2526100 103.2226850  39.7622950 149.7691120 102.6114210  39.2371210
 149.9023480 103.7255630  40.2533960 151.9921600 104.1135340  40.5891930
 152.2799410 103.8589640  39.7124940 152.5044820 103.5612700  41.1797500
 143.9311000 104.3256240  36.1870300 143.7633040 103.6926920  36.8852190
 143.0645510 104.5315640  35.8364490 144.5539020  88.1573020  33.6902160
 145.3118380  88.2701900  33.1166190 144.0916190  88.9942220  33.6445590
 151.0952830  90.2712290  36.6804470 150.2827340  89.8969180  36.3400350
 151.5994470  89.5157370  36.9825660 145.5373700 103.0189470  33.6320440
 145.0121320 103.3997500  32.9282400 145.4618280 103.6440240  34.3530150
 146.9264170  88.6837070  32.2304130 147.4556930  87.8966870  32.1012080
 147.5592490  89.3628260  32.4639660 149.1202010  88.4212210  35.2849520
 148.4904750  87.7199520  35.4519650 148.5807150  89.1816340  35.0682680
 149.2457570  87.6996190  47.7202010 148.9641840  88.2029790  46.9562830
 149.6277270  86.9017940  47.3544140 148.1366670 104.9671850  32.5069690
 148.8685490 104.6831130  31.9593580 148.3960340 104.7285130  33.3969070
 147.2981460 101.0836580  32.5116020 146.6690340 101.5521680  33.0601850
 147.4129290 100.2385800  32.9462210 146.9015050  97.2241070  21.4202250
 146.0699930  96.9689780  21.8198760 147.5096030  97.2951840  22.1560170
 146.8816310 101.2581160  21.6160270 147.1844350 100.3678900  21.4370490
 147.6259900 101.8151380  21.3882520 145.3107000  92.1842960  15.2044640
 144.4223700  92.5258930  15.1024520 145.5948190  91.9843280  14.3125470
 143.2740010  94.7848610  21.0884340 143.8456120  94.0170810  21.0887980
 143.2741550  95.0837370  20.1790950 144.5164880  90.1932970  22.8753270
 144.3367720  89.2958720  23.1556030 144.1144960  90.7404840  23.5500220
 147.4868390  90.7674460  16.2383020 147.5935140  91.6678190  16.5451780
 146.5760750  90.7192430  15.9477670 145.1351550  92.6893470  21.4835610
 145.8161660  92.9531840  22.1023010 144.8199600  91.8494340  21.8173620
 149.3276120  93.7360830  20.5708200 149.8354340  94.2341800  21.2113220
 149.8589360  92.9596030  20.3947560 147.6112220  88.3759390  24.8371620
 147.6130660  88.8931780  24.0317520 146.7816530  87.8989570  24.8141550
 148.8615070  98.0154570  23.0145120 148.5284450  98.6423490  23.6566190
 149.0381750  98.5416450  22.2346790 147.2927550  90.0869350  22.8442070
 147.6344360  90.9311400  22.5495940 146.3543360  90.2353090  22.9607410
 148.0734170  99.9835370  24.8294300 148.6908170 100.6586450  24.5478750
 147.2127290 100.3923350  24.7381800 143.3666510  99.1735230  13.7101150
 142.9894490  99.6622330  12.9786050 143.6239580  99.8460510  14.3407680
 150.9755440  87.5751620  19.1686660 151.2830420  87.0198510  18.4522160
 150.0456140  87.7096080  18.9859650 148.9692840  96.1665190  18.6866510
 148.5649840  95.4542440  18.1912410 149.0555960  95.8218430  19.5754550
 149.4374540  99.8532750  20.8505720 149.1402830  99.2478220  20.1713500
 150.3874360  99.8910060  20.7395080 147.6821460  92.9408400  22.4665550
 148.2336050  93.0503740  21.6918800 148.1964970  93.3146000  23.1820780
 148.5292970  99.5914440  27.5013520 147.6321500  99.8154410  27.7486920
 148.5545840  99.7149380  26.5524920 147.3564190  96.4627760  26.0770890
 147.2171960  97.3350560  26.4458290 146.4745550  96.1200570  25.9318830
 149.1544540 102.4049460  28.2856040 149.1259970 102.8092410  27.4184470
 148.9909510 101.4759820  28.1227640 145.6697470  95.0610170  16.1873160
 145.5495070  95.7872260  15.5754430 145.3598360  94.2913080  15.7101070
 143.3082840  98.2325310  21.9941800 143.3863260  98.3674080  21.0497520
 143.9224520  97.5241200  22.1869920 144.5530470  99.9325500  18.4047980
 144.1458550 100.0740090  17.5501580 145.4443480  99.6485660  18.2019190
 148.8252130 104.1471280  16.5170650 148.6494610 103.2306820  16.3038450
 147.9707870 104.5058570  16.7568450 143.3642360  99.2739480  24.5336260
 143.5273400  98.8044840  23.7155630 143.8294810  98.7663040  25.1985100
 148.1361130  88.4045240  19.5696830 147.6929280  89.1854780  19.2381350
 148.6946120  88.7275130  20.2767770 152.4230940  91.2713760  25.1732150
 151.9610310  91.4796780  25.9852090 152.0209050  90.4573110  24.8702820
 151.2519950  88.0255940  14.4502660 150.6274130  88.0215810  15.1755970
 151.1650070  87.1586900  14.0538630 150.1737030  88.9492570  21.4286430
 150.4709360  89.8555400  21.3478450 150.7222590  88.4611350  20.8146000
 147.9275350  93.5278810  17.2978080 147.7016270  93.3115980  18.2024700
 147.1467880  93.9607270  16.9524050 150.3674560  94.4264390  27.9638350
 150.2718160  93.4859120  27.8138750 151.2106540  94.6479460  27.5686420
 145.4985100  90.8378060  26.1172130 145.1048490  91.6853270  26.3244910
 144.8103500  90.2004430  26.3080770 142.8002150  88.7606520  20.1502210
 142.5115200  89.3309380  20.8627190 143.5447910  88.2810970  20.5133440
 142.9872380  92.7026640  11.3604930 142.9047050  93.6457400  11.5019920
 142.6355440  92.5601550  10.4817280 150.7870510  91.4365670  20.4275280
 150.7906570  90.9955620  19.5779820 151.6821630  91.7583000  20.5347100
 146.6372890  91.3192160  19.3869490 146.2972940  91.7967390  20.1436540
 145.8750210  90.8657280  19.0270590 150.8490660  92.4377750  13.4182040
 150.9703480  92.3964230  14.3667860 150.4639170  93.3001900  13.2628770
 149.8612160  94.7478890  12.8165340 149.2929060  94.2997140  12.1901250
 150.5701160  95.1071670  12.2830490 144.9381340  98.6490910  26.6932070
 144.5536130  98.0084580  27.2915030 145.2493530  99.3527030  27.2626800
 151.0878480  95.4967450  22.1740690 151.4548610  95.0226020  22.9202030
 150.8983540  96.3709020  22.5149030 143.9518970  90.2411140  18.3034160
 143.6665890  89.8766810  19.1412780 143.8897830  89.5091600  17.6897300
 148.8777850  94.5376090  24.4924900 148.5734920  95.4168070  24.7175260
 149.8324310  94.5975880  24.5282340 147.4059640  98.7437080  15.0891750
 146.6321900  98.2034700  14.9290470 148.1354270  98.2243690  14.7509510
 147.4497040  98.4117460  18.7270560 147.9675710  97.6085720  18.6727450
 146.9981060  98.3496600  19.5687390 144.9341580  95.3778830  25.6396260
 144.5756520  96.0432680  26.2269600 144.6396140  94.5462380  26.0108880
 148.1354700  95.8363070  28.5235810 147.8354840  95.9820250  27.6263630
 148.9065940  95.2768360  28.4309200 151.3057230  99.7597270  16.7713780
 151.9928360 100.3066480  17.1521370 150.5189650 100.3038000  16.8063390
 143.4449630  95.3770090  12.2630860 144.3144480  95.6594890  12.5466780
 142.9539950  96.1905960  12.1479670 150.6084440  96.7643300  16.3839140
 151.0647220  97.5748550  16.6099330 150.2572650  96.4466440  17.2157630
 146.5096220  87.1080950  16.8561660 146.3810850  87.0998850  17.8046580
 145.6858240  87.4464040  16.5052670 143.8120880 104.5897470  12.8292490
 144.1718520 105.1886810  12.1749760 143.6713220 105.1357360  13.6027520
 143.5090150  88.8672070  26.3168360 142.7948670  89.0668990  26.9220970
 143.9285190  88.0911640  26.6883160 143.7962740 102.8552330  27.3034890
 143.9053860 101.9147070  27.1630280 143.1443300 103.1207080  26.6548620
 151.7875330 101.1268220  28.7033010 151.4672200 100.4077460  29.2478700
 151.1133690 101.8023290  28.7769070 149.8289500 101.9728670  13.6466160
 149.8199600 102.7058360  13.0310670 148.9087860 101.7260250  13.7393120
 145.4296140  97.1943560  14.3912920 144.8224090  97.9342460  14.4008220
 145.9045490  97.2842920  13.5651120 150.3374990  92.5937270  16.2915250
 149.6291140  93.0623610  16.7328860 150.6219470  91.9359280  16.9260440
 151.9630920  94.0133970  24.2907780 152.4616170  94.4879790  24.9559630
 152.1053870  93.0897490  24.4977810 151.4567210 104.5543230  17.0039020
 151.7108710 104.5164620  16.0818390 150.5079690 104.4276560  16.9967270
 148.5410010  90.9022350  13.6665960 149.3900540  91.3392500  13.6006150
 148.1741280  91.2142610  14.4938020 147.4401430  97.1554710  12.1401490
 148.2064700  97.0436070  12.7026920 147.5176120  96.4592680  11.4878260
 146.1348190  94.5879780  12.8234380 146.2151780  93.6407290  12.9351780
 147.0267940  94.9186660  12.9295040 146.9362900 104.7375170  19.9268920
 147.6725380 104.1890630  20.1977490 147.3203820 105.6031180  19.7874910
 143.8208380 100.8048740  15.8010430 142.8948160 101.0469880  15.7915840
 144.2864810 101.6323000  15.6795180 145.9421180 103.9221240  29.1154500
 146.7433910 104.2433290  29.5289900 145.4273000 103.5616820  29.8374410
 150.0465210 103.9105480  11.7494490 150.8393820 104.1994310  11.2976280
 149.5269560 103.4797650  11.0706970 143.6618990  96.4094700  28.0590550
 144.1658010  95.8301980  28.6306780 142.9226410  96.6934930  28.5966920
 150.5642610  99.1308890  11.6136840 150.4593250  98.5161240  12.3398220
 150.3966830  98.6074780  10.8299850 150.7156930  97.8165690  27.5926070
 149.9502600  98.3850690  27.5080740 150.8972890  97.5241900  26.6994300
 145.6942070  94.5524290  28.9540620 145.7347410  94.2538160  29.8625850
 146.5487570  94.9531900  28.7948140 149.4720460  97.1519840  14.1144130
 149.8936880  96.9859710  14.9575520 149.5971300  96.3420070  13.6199270
 147.6347880  93.1316390  26.9215110 147.1044340  92.6407340  26.2938450
 148.3035950  93.5600590  26.3873040 151.9848100  96.1757450  11.3621230
 152.5053760  95.4606470  10.9962380 152.6316500  96.8143320  11.6621740
 148.1220180  90.0978760  27.0012400 148.0277050  89.4799510  26.2763270
 147.5417570  90.8245050  26.7742310 150.8881620  88.6552000  24.0339790
 150.4398920  88.6776260  23.1885340 150.2546820  88.2571020  24.6310090
 151.2941170  97.5506330  24.6552230 151.7129280  98.3939060  24.4828470
 150.3749800  97.6878370  24.4259010 148.3679360  93.2253070  11.0602290
 148.1668420  92.3620430  11.4215630 148.1971410  93.1386430  10.1223890
 149.1448590 103.8559340  25.7709960 148.6069680 104.5805400  25.4518660
 149.3982550 103.3789680  24.9807300 150.3973840  91.8243860  27.2965890
 150.9873530  91.5159710  27.9843710 149.5794080  91.3523610  27.4525790
 147.1662160  90.3253690  11.0480170 147.4688060  90.3321120  10.1399320
 147.9056750  89.9751550  11.5447830 152.0010800 105.0910550  26.0296610
 151.9269500 105.9945690  26.3368980 151.0989640 104.7722450  26.0018680
 150.3847090  89.2688310  12.0336370 150.0369090  88.5912300  11.4538820
 150.5859860  88.8077820  12.8479760 146.1892290  99.6296110  11.8809970
 146.6267160 100.1725780  12.5367550 146.6740020  98.8043060  11.8906310
 143.4038090 102.4185140  19.3330230 143.7341100 101.5506200  19.1008870
 143.8329090 102.6243660  20.1635190 148.0000010 100.7494150  16.9932200
 147.6995550 100.6259120  17.8936110 147.8937500  99.8902740  16.5847930
 143.8928300 103.2855730  22.0711860 143.4559290 103.4656530  22.9036010
 144.4605980 104.0430350  21.9293580 143.7252730  95.7975960  18.4300740
 143.0701570  95.5287600  17.7860440 144.5630680  95.6880440  17.9802720
 144.7628660  96.1828530  22.9704080 145.1301700  96.0955930  23.8500100
 144.1939480  95.4195080  22.8710940 144.3144660  93.0937620  26.8762500
 143.4200710  93.0604380  27.2156210 144.8542210  93.2924410  27.6413750
 142.9390810  93.0074890  14.3726070 142.0354890  93.2705090  14.1977730
 143.4231430  93.2786060  13.5926030 145.4818020  92.0640430  12.2820450
 146.1909720  91.6423650  11.7967730 144.7657960  92.1315660  11.6503800
 145.1292180  88.1179760  11.3223100 145.8520310  88.6588700  11.6404320
 145.4016700  87.8443180  10.4464640 144.8184370  87.3685950  21.2245720
 145.4660560  86.8183330  20.7840880 145.2386210  87.6229100  22.0461530
 144.5716370  87.5241620  23.9671040 144.2231190  87.9805440  24.7329220
 144.2404070  86.6298750  24.0493470 146.1780740 100.6961220  28.1324230
 146.1350370 100.3254130  29.0138690 146.3091750 101.6338790  28.2726050
 149.8786770 102.2520810  23.7333950 149.6378130 102.5195370  22.8464470
 150.8189410 102.4226540  23.7884810 145.2437010  87.0517820  27.2421810
 145.7920000  86.8705870  26.4787920 145.3092320  86.2611930  27.7778120
 146.0168770 103.6423470  25.2522010 145.4229090 103.5108170  25.9912050
 146.0092610 102.8061610  24.7864110 145.6481000 101.0081850  24.2030050
 144.9215060 100.3887140  24.1356000 145.7090150 101.4022460  23.3328130
 149.2526100 103.2226850  20.9879460 149.7691120 102.6114210  20.4627720
 149.9023480 103.7255630  21.4790470 151.9921600 104.1135340  21.8148440
 152.2799410 103.8589640  20.9381450 152.5044820 103.5612700  22.4054010
 143.9311000 104.3256240  17.4126810 143.7633040 103.6926920  18.1108700
 143.0645510 104.5315640  17.0621000 144.5539020  88.1573020  14.9158670
 145.3118380  88.2701900  14.3422700 144.0916190  88.9942220  14.8702100
 151.0952830  90.2712290  17.9060980 150.2827340  89.8969180  17.5656860
 151.5994470  89.5157370  18.2082170 145.5373700 103.0189470  14.8576950
 145.0121320 103.3997500  14.1538910 145.4618280 103.6440240  15.5786660
 146.9264170  88.6837070  13.4560640 147.4556930  87.8966870  13.3268590
 147.5592490  89.3628260  13.6896170 149.1202010  88.4212210  16.5106030
 148.4904750  87.7199520  16.6776160 148.5807150  89.1816340  16.2939190
 149.2457570  87.6996190  28.9458520 148.9641840  88.2029790  28.1819340
 149.6277270  86.9017940  28.5800650 148.1366670 104.9671850  13.7326200
 148.8685490 104.6831130  13.1850090 148.3960340 104.7285130  14.6225580
 147.2981460 101.0836580  13.7372530 146.6690340 101.5521680  14.2858360
 147.4129290 100.2385800  14.1718720 146.9015050  97.2241070   2.6458760
 146.0699930  96.9689780   3.0455270 147.5096030  97.2951840   3.3816680
 146.8816310 101.2581160   2.8416780 147.1844350 100.3678900   2.6627000
 147.6259900 101.8151380   2.6139030 144.5164880  90.1932970   4.1009780
 144.3367720  89.2958720   4.3812540 144.1144960  90.7404840   4.7756730
 145.1351550  92.6893470   2.7092120 145.8161660  92.9531840   3.3279520
 144.8199600  91.8494340   3.0430130 149.3276120  93.7360830   1.7964710
 149.8354340  94.2341800   2.4369730 149.8589360  92.9596030   1.6204070
 147.6112220  88.3759390   6.0628130 147.6130660  88.8931780   5.2574030
 146.7816530  87.8989570   6.0398060 148.8615070  98.0154570   4.2401630
 148.5284450  98.6423490   4.8822700 149.0381750  98.5416450   3.4603300
 147.2927550  90.0869350   4.0698580 147.6344360  90.9311400   3.7752450
 146.3543360  90.2353090   4.1863920 148.0734170  99.9835370   6.0550810
 148.6908170 100.6586450   5.7735260 147.2127290 100.3923350   5.9638310
 147.6821460  92.9408400   3.6922060 148.2336050  93.0503740   2.9175310
 148.1964970  93.3146000   4.4077290 148.5292970  99.5914440   8.7270030
 147.6321500  99.8154410   8.9743430 148.5545840  99.7149380   7.7781430
 147.3564190  96.4627760   7.3027400 147.2171960  97.3350560   7.6714800
 146.4745550  96.1200570   7.1575340 149.1544540 102.4049460   9.5112550
 149.1259970 102.8092410   8.6440980 148.9909510 101.4759820   9.3484150
 143.3082840  98.2325310   3.2198310 143.3863260  98.3674080   2.2754030
 143.9224520  97.5241200   3.4126430 143.3642360  99.2739480   5.7592770
 143.5273400  98.8044840   4.9412140 143.8294810  98.7663040   6.4241610
 152.4230940  91.2713760   6.3988660 151.9610310  91.4796780   7.2108600
 152.0209050  90.4573110   6.0959330 150.1737030  88.9492570   2.6542940
 150.4709360  89.8555400   2.5734960 150.7222590  88.4611350   2.0402510
 150.3674560  94.4264390   9.1894860 150.2718160  93.4859120   9.0395260
 151.2106540  94.6479460   8.7942930 145.4985100  90.8378060   7.3428640
 145.1048490  91.6853270   7.5501420 144.8103500  90.2004430   7.5337280
 144.9381340  98.6490910   7.9188580 144.5536130  98.0084580   8.5171540
 145.2493530  99.3527030   8.4883310 151.0878480  95.4967450   3.3997200
 151.4548610  95.0226020   4.1458540 150.8983540  96.3709020   3.7405540
 148.8777850  94.5376090   5.7181410 148.5734920  95.4168070   5.9431770
 149.8324310  94.5975880   5.7538850 144.9341580  95.3778830   6.8652770
 144.5756520  96.0432680   7.4526110 144.6396140  94.5462380   7.2365390
 148.1354700  95.8363070   9.7492320 147.8354840  95.9820250   8.8520140
 148.9065940  95.2768360   9.6565710 143.5090150  88.8672070   7.5424870
 142.7948670  89.0668990   8.1477480 143.9285190  88.0911640   7.9139670
 143.7962740 102.8552330   8.5291400 143.9053860 101.9147070   8.3886790
 143.1443300 103.1207080   7.8805130 151.7875330 101.1268220   9.9289520
 151.4672200 100.4077460  10.4735210 151.1133690 101.8023290  10.0025580
 151.9630920  94.0133970   5.5164290 152.4616170  94.4879790   6.1816140
 152.1053870  93.0897490   5.7234320 145.9421180 103.9221240  10.3411010
 146.7433910 104.2433290  10.7546410 145.4273000 103.5616820  11.0630920
 143.6618990  96.4094700   9.2847060 144.1658010  95.8301980   9.8563290
 142.9226410  96.6934930   9.8223430 150.7156930  97.8165690   8.8182580
 149.9502600  98.3850690   8.7337250 150.8972890  97.5241900   7.9250810
 145.6942070  94.5524290  10.1797130 145.7347410  94.2538160  11.0882360
 146.5487570  94.9531900  10.0204650 147.6347880  93.1316390   8.1471620
 147.1044340  92.6407340   7.5194960 148.3035950  93.5600590   7.6129550
 148.1220180  90.0978760   8.2268910 148.0277050  89.4799510   7.5019780
 147.5417570  90.8245050   7.9998820 150.8881620  88.6552000   5.2596300
 150.4398920  88.6776260   4.4141850 150.2546820  88.2571020   5.8566600
 151.2941170  97.5506330   5.8808740 151.7129280  98.3939060   5.7084980
 150.3749800  97.6878370   5.6515520 149.1448590 103.8559340   6.9966470
 148.6069680 104.5805400   6.6775170 149.3982550 103.3789680   6.2063810
 150.3973840  91.8243860   8.5222400 150.9873530  91.5159710   9.2100220
 149.5794080  91.3523610   8.6782300 152.0010800 105.0910550   7.2553120
 151.9269500 105.9945690   7.5625490 151.0989640 104.7722450   7.2275190
 143.8928300 103.2855730   3.2968370 143.4559290 103.4656530   4.1292520
 144.4605980 104.0430350   3.1550090 144.7628660  96.1828530   4.1960590
 145.1301700  96.0955930   5.0756610 144.1939480  95.4195080   4.0967450
 144.3144660  93.0937620   8.1019010 143.4200710  93.0604380   8.4412720
 144.8542210  93.2924410   8.8670260 144.8184370  87.3685950   2.4502230
 145.4660560  86.8183330   2.0097390 145.2386210  87.6229100   3.2718040
 144.5716370  87.5241620   5.1927550 144.2231190  87.9805440   5.9585730
 144.2404070  86.6298750   5.2749980 146.1780740 100.6961220   9.3580740
 146.1350370 100.3254130  10.2395200 146.3091750 101.6338790   9.4982560
 149.8786770 102.2520810   4.9590460 149.6378130 102.5195370   4.0720980
 150.8189410 102.4226540   5.0141320 145.2437010  87.0517820   8.4678320
 145.7920000  86.8705870   7.7044430 145.3092320  86.2611930   9.0034630
 146.0168770 103.6423470   6.4778520 145.4229090 103.5108170   7.2168560
 146.0092610 102.8061610   6.0120620 145.6481000 101.0081850   5.4286560
 144.9215060 100.3887140   5.3612510 145.7090150 101.4022460   4.5584640
 149.2526100 103.2226850   2.2135970 149.7691120 102.6114210   1.6884230
 149.9023480 103.7255630   2.7046980 151.9921600 104.1135340   3.0404950
 152.2799410 103.8589640   2.1637960 152.5044820 103.5612700   3.6310520
 149.2457570  87.6996190  10.1715030 148.9641840  88.2029790   9.4075850
 149.6277270  86.9017940   9.8057160 145.3107000  73.4099470 146.6249070
 144.4223700  73.7515440 146.5228950 145.5948190  73.2099790 145.7329900
 147.4868390  71.9930970 147.6587450 147.5935140  72.8934700 147.9656210
 146.5760750  71.9448940 147.3682100 143.3666510  80.3991740 145.1305580
 142.9894490  80.8878840 144.3990480 143.6239580  81.0717020 145.7612110
 150.9755440  68.8008130 150.5891090 151.2830420  68.2455020 149.8726590
 150.0456140  68.9352590 150.4064080 148.9692840  77.3921700 150.1070940
 148.5649840  76.6798950 149.6116840 149.0555960  77.0474940 150.9958980
 145.6697470  76.2866680 147.6077590 145.5495070  77.0128770 146.9958860
 145.3598360  75.5169590 147.1305500 144.5530470  81.1582010 149.8252410
 144.1458550  81.2996600 148.9706010 145.4443480  80.8742170 149.6223620
 148.8252130  85.3727790 147.9375080 148.6494610  84.4563330 147.7242880
 147.9707870  85.7315080 148.1772880 148.1361130  69.6301750 150.9901260
 147.6929280  70.4111290 150.6585780 148.6946120  69.9531640 151.6972200
 151.2519950  69.2512450 145.8707090 150.6274130  69.2472320 146.5960400
 151.1650070  68.3843410 145.4743060 147.9275350  74.7535320 148.7182510
 147.7016270  74.5372490 149.6229130 147.1467880  75.1863780 148.3728480
 142.9872380  73.9283150 142.7809360 142.9047050  74.8713910 142.9224350
 142.6355440  73.7858060 141.9021710 146.6372890  72.5448670 150.8073920
 146.2972940  73.0223900 151.5640970 145.8750210  72.0913790 150.4475020
 150.8490660  73.6634260 144.8386470 150.9703480  73.6220740 145.7872290
 150.4639170  74.5258410 144.6833200 149.8612160  75.9735400 144.2369770
 149.2929060  75.5253650 143.6105680 150.5701160  76.3328180 143.7034920
 143.9518970  71.4667650 149.7238590 143.6665890  71.1023320 150.5617210
 143.8897830  70.7348110 149.1101730 147.4059640  79.9693590 146.5096180
 146.6321900  79.4291210 146.3494900 148.1354270  79.4500200 146.1713940
 147.4497040  79.6373970 150.1474990 147.9675710  78.8342230 150.0931880
 146.9981060  79.5753110 150.9891820 151.3057230  80.9853780 148.1918210
 151.9928360  81.5322990 148.5725800 150.5189650  81.5294510 148.2267820
 143.4449630  76.6026600 143.6835290 144.3144480  76.8851400 143.9671210
 142.9539950  77.4162470 143.5684100 150.6084440  77.9899810 147.8043570
 151.0647220  78.8005060 148.0303760 150.2572650  77.6722950 148.6362060
 146.5096220  68.3337460 148.2766090 146.3810850  68.3255360 149.2251010
 145.6858240  68.6720550 147.9257100 143.8120880  85.8153980 144.2496920
 144.1718520  86.4143320 143.5954190 143.6713220  86.3613870 145.0231950
 149.8289500  83.1985180 145.0670590 149.8199600  83.9314870 144.4515100
 148.9087860  82.9516760 145.1597550 145.4296140  78.4200070 145.8117350
 144.8224090  79.1598970 145.8212650 145.9045490  78.5099430 144.9855550
 150.3374990  73.8193780 147.7119680 149.6291140  74.2880120 148.1533290
 150.6219470  73.1615790 148.3464870 151.4567210  85.7799740 148.4243450
 151.7108710  85.7421130 147.5022820 150.5079690  85.6533070 148.4171700
 148.5410010  72.1278860 145.0870390 149.3900540  72.5649010 145.0210580
 148.1741280  72.4399120 145.9142450 147.4401430  78.3811220 143.5605920
 148.2064700  78.2692580 144.1231350 147.5176120  77.6849190 142.9082690
 146.1348190  75.8136290 144.2438810 146.2151780  74.8663800 144.3556210
 147.0267940  76.1443170 144.3499470 146.9362900  85.9631680 151.3473350
 147.6725380  85.4147140 151.6181920 147.3203820  86.8287690 151.2079340
 143.8208380  82.0305250 147.2214860 142.8948160  82.2726390 147.2120270
 144.2864810  82.8579510 147.0999610 150.0465210  85.1361990 143.1698920
 150.8393820  85.4250820 142.7180710 149.5269560  84.7054160 142.4911400
 150.5642610  80.3565400 143.0341270 150.4593250  79.7417750 143.7602650
 150.3966830  79.8331290 142.2504280 149.4720460  78.3776350 145.5348560
 149.8936880  78.2116220 146.3779950 149.5971300  77.5676580 145.0403700
 151.9848100  77.4013960 142.7825660 152.5053760  76.6862980 142.4166810
 152.6316500  78.0399830 143.0826170 148.3679360  74.4509580 142.4806720
 148.1668420  73.5876940 142.8420060 148.1971410  74.3642940 141.5428320
 147.1662160  71.5510200 142.4684600 147.4688060  71.5577630 141.5603750
 147.9056750  71.2008060 142.9652260 150.3847090  70.4944820 143.4540800
 150.0369090  69.8168810 142.8743250 150.5859860  70.0334330 144.2684190
 146.1892290  80.8552620 143.3014400 146.6267160  81.3982290 143.9571980
 146.6740020  80.0299570 143.3110740 143.4038090  83.6441650 150.7534660
 143.7341100  82.7762710 150.5213300 143.8329090  83.8500170 151.5839620
 148.0000010  81.9750660 148.4136630 147.6995550  81.8515630 149.3140540
 147.8937500  81.1159250 148.0052360 143.7252730  77.0232470 149.8505170
 143.0701570  76.7544110 149.2064870 144.5630680  76.9136950 149.4007150
 142.9390810  74.2331400 145.7930500 142.0354890  74.4961600 145.6182160
 143.4231430  74.5042570 145.0130460 145.4818020  73.2896940 143.7024880
 146.1909720  72.8680160 143.2172160 144.7657960  73.3572170 143.0708230
 145.1292180  69.3436270 142.7427530 145.8520310  69.8845210 143.0608750
 145.4016700  69.0699690 141.8669070 143.9311000  85.5512750 148.8331240
 143.7633040  84.9183430 149.5313130 143.0645510  85.7572150 148.4825430
 144.5539020  69.3829530 146.3363100 145.3118380  69.4958410 145.7627130
 144.0916190  70.2198730 146.2906530 151.0952830  71.4968800 149.3265410
 150.2827340  71.1225690 148.9861290 151.5994470  70.7413880 149.6286600
 145.5373700  84.2445980 146.2781380 145.0121320  84.6254010 145.5743340
 145.4618280  84.8696750 146.9991090 146.9264170  69.9093580 144.8765070
 147.4556930  69.1223380 144.7473020 147.5592490  70.5884770 145.1100600
 149.1202010  69.6468720 147.9310460 148.4904750  68.9456030 148.0980590
 148.5807150  70.4072850 147.7143620 148.1366670  86.1928360 145.1530630
 148.8685490  85.9087640 144.6054520 148.3960340  85.9541640 146.0430010
 147.2981460  82.3093090 145.1576960 146.6690340  82.7778190 145.7062790
 147.4129290  81.4642310 145.5923150 146.9015050  78.4497580 134.0663190
 146.0699930  78.1946290 134.4659700 147.5096030  78.5208350 134.8021110
 146.8816310  82.4837670 134.2621210 147.1844350  81.5935410 134.0831430
 147.6259900  83.0407890 134.0343460 145.3107000  73.4099470 127.8505580
 144.4223700  73.7515440 127.7485460 145.5948190  73.2099790 126.9586410
 143.2740010  76.0105120 133.7345280 143.8456120  75.2427320 133.7348920
 143.2741550  76.3093880 132.8251890 144.5164880  71.4189480 135.5214210
 144.3367720  70.5215230 135.8016970 144.1144960  71.9661350 136.1961160
 147.4868390  71.9930970 128.8843960 147.5935140  72.8934700 129.1912720
 146.5760750  71.9448940 128.5938610 145.1351550  73.9149980 134.1296550
 145.8161660  74.1788350 134.7483950 144.8199600  73.0750850 134.4634560
 149.3276120  74.9617340 133.2169140 149.8354340  75.4598310 133.8574160
 149.8589360  74.1852540 133.0408500 147.6112220  69.6015900 137.4832560
 147.6130660  70.1188290 136.6778460 146.7816530  69.1246080 137.4602490
 148.8615070  79.2411080 135.6606060 148.5284450  79.8680000 136.3027130
 149.0381750  79.7672960 134.8807730 147.2927550  71.3125860 135.4903010
 147.6344360  72.1567910 135.1956880 146.3543360  71.4609600 135.6068350
 148.0734170  81.2091880 137.4755240 148.6908170  81.8842960 137.1939690
 147.2127290  81.6179860 137.3842740 143.3666510  80.3991740 126.3562090
 142.9894490  80.8878840 125.6246990 143.6239580  81.0717020 126.9868620
 150.9755440  68.8008130 131.8147600 151.2830420  68.2455020 131.0983100
 150.0456140  68.9352590 131.6320590 148.9692840  77.3921700 131.3327450
 148.5649840  76.6798950 130.8373350 149.0555960  77.0474940 132.2215490
 149.4374540  81.0789260 133.4966660 149.1402830  80.4734730 132.8174440
 150.3874360  81.1166570 133.3856020 147.6821460  74.1664910 135.1126490
 148.2336050  74.2760250 134.3379740 148.1964970  74.5402510 135.8281720
 148.5292970  80.8170950 140.1474460 147.6321500  81.0410920 140.3947860
 148.5545840  80.9405890 139.1985860 147.3564190  77.6884270 138.7231830
 147.2171960  78.5607070 139.0919230 146.4745550  77.3457080 138.5779770
 149.1544540  83.6305970 140.9316980 149.1259970  84.0348920 140.0645410
 148.9909510  82.7016330 140.7688580 145.6697470  76.2866680 128.8334100
 145.5495070  77.0128770 128.2215370 145.3598360  75.5169590 128.3562010
 143.3082840  79.4581820 134.6402740 143.3863260  79.5930590 133.6958460
 143.9224520  78.7497710 134.8330860 144.5530470  81.1582010 131.0508920
 144.1458550  81.2996600 130.1962520 145.4443480  80.8742170 130.8480130
 148.8252130  85.3727790 129.1631590 148.6494610  84.4563330 128.9499390
 147.9707870  85.7315080 129.4029390 143.3642360  80.4995990 137.1797200
 143.5273400  80.0301350 136.3616570 143.8294810  79.9919550 137.8446040
 148.1361130  69.6301750 132.2157770 147.6929280  70.4111290 131.8842290
 148.6946120  69.9531640 132.9228710 152.4230940  72.4970270 137.8193090
 151.9610310  72.7053290 138.6313030 152.0209050  71.6829620 137.5163760
 151.2519950  69.2512450 127.0963600 150.6274130  69.2472320 127.8216910
 151.1650070  68.3843410 126.6999570 150.1737030  70.1749080 134.0747370
 150.4709360  71.0811910 133.9939390 150.7222590  69.6867860 133.4606940
 147.9275350  74.7535320 129.9439020 147.7016270  74.5372490 130.8485640
 147.1467880  75.1863780 129.5984990 150.3674560  75.6520900 140.6099290
 150.2718160  74.7115630 140.4599690 151.2106540  75.8735970 140.2147360
 145.4985100  72.0634570 138.7633070 145.1048490  72.9109780 138.9705850
 144.8103500  71.4260940 138.9541710 142.8002150  69.9863030 132.7963150
 142.5115200  70.5565890 133.5088130 143.5447910  69.5067480 133.1594380
 142.9872380  73.9283150 124.0065870 142.9047050  74.8713910 124.1480860
 142.6355440  73.7858060 123.1278220 150.7870510  72.6622180 133.0736220
 150.7906570  72.2212130 132.2240760 151.6821630  72.9839510 133.1808040
 146.6372890  72.5448670 132.0330430 146.2972940  73.0223900 132.7897480
 145.8750210  72.0913790 131.6731530 150.8490660  73.6634260 126.0642980
 150.9703480  73.6220740 127.0128800 150.4639170  74.5258410 125.9089710
 149.8612160  75.9735400 125.4626280 149.2929060  75.5253650 124.8362190
 150.5701160  76.3328180 124.9291430 144.9381340  79.8747420 139.3393010
 144.5536130  79.2341090 139.9375970 145.2493530  80.5783540 139.9087740
 151.0878480  76.7223960 134.8201630 151.4548610  76.2482530 135.5662970
 150.8983540  77.5965530 135.1609970 143.9518970  71.4667650 130.9495100
 143.6665890  71.1023320 131.7873720 143.8897830  70.7348110 130.3358240
 148.8777850  75.7632600 137.1385840 148.5734920  76.6424580 137.3636200
 149.8324310  75.8232390 137.1743280 147.4059640  79.9693590 127.7352690
 146.6321900  79.4291210 127.5751410 148.1354270  79.4500200 127.3970450
 147.4497040  79.6373970 131.3731500 147.9675710  78.8342230 131.3188390
 146.9981060  79.5753110 132.2148330 144.9341580  76.6035340 138.2857200
 144.5756520  77.2689190 138.8730540 144.6396140  75.7718890 138.6569820
 148.1354700  77.0619580 141.1696750 147.8354840  77.2076760 140.2724570
 148.9065940  76.5024870 141.0770140 151.3057230  80.9853780 129.4174720
 151.9928360  81.5322990 129.7982310 150.5189650  81.5294510 129.4524330
 143.4449630  76.6026600 124.9091800 144.3144480  76.8851400 125.1927720
 142.9539950  77.4162470 124.7940610 150.6084440  77.9899810 129.0300080
 151.0647220  78.8005060 129.2560270 150.2572650  77.6722950 129.8618570
 146.5096220  68.3337460 129.5022600 146.3810850  68.3255360 130.4507520
 145.6858240  68.6720550 129.1513610 143.8120880  85.8153980 125.4753430
 144.1718520  86.4143320 124.8210700 143.6713220  86.3613870 126.2488460
 143.5090150  70.0928580 138.9629300 142.7948670  70.2925500 139.5681910
 143.9285190  69.3168150 139.3344100 143.7962740  84.0808840 139.9495830
 143.9053860  83.1403580 139.8091220 143.1443300  84.3463590 139.3009560
 151.7875330  82.3524730 141.3493950 151.4672200  81.6333970 141.8939640
 151.1133690  83.0279800 141.4230010 149.8289500  83.1985180 126.2927100
 149.8199600  83.9314870 125.6771610 148.9087860  82.9516760 126.3854060
 145.4296140  78.4200070 127.0373860 144.8224090  79.1598970 127.0469160
 145.9045490  78.5099430 126.2112060 150.3374990  73.8193780 128.9376190
 149.6291140  74.2880120 129.3789800 150.6219470  73.1615790 129.5721380
 151.9630920  75.2390480 136.9368720 152.4616170  75.7136300 137.6020570
 152.1053870  74.3154000 137.1438750 151.4567210  85.7799740 129.6499960
 151.7108710  85.7421130 128.7279330 150.5079690  85.6533070 129.6428210
 148.5410010  72.1278860 126.3126900 149.3900540  72.5649010 126.2467090
 148.1741280  72.4399120 127.1398960 147.4401430  78.3811220 124.7862430
 148.2064700  78.2692580 125.3487860 147.5176120  77.6849190 124.1339200
 146.1348190  75.8136290 125.4695320 146.2151780  74.8663800 125.5812720
 147.0267940  76.1443170 125.5755980 146.9362900  85.9631680 132.5729860
 147.6725380  85.4147140 132.8438430 147.3203820  86.8287690 132.4335850
 143.8208380  82.0305250 128.4471370 142.8948160  82.2726390 128.4376780
 144.2864810  82.8579510 128.3256120 145.9421180  85.1477750 141.7615440
 146.7433910  85.4689800 142.1750840 145.4273000  84.7873330 142.4835350
 150.0465210  85.1361990 124.3955430 150.8393820  85.4250820 123.9437220
 149.5269560  84.7054160 123.7167910 143.6618990  77.6351210 140.7051490
 144.1658010  77.0558490 141.2767720 142.9226410  77.9191440 141.2427860
 150.5642610  80.3565400 124.2597780 150.4593250  79.7417750 124.9859160
 150.3966830  79.8331290 123.4760790 150.7156930  79.0422200 140.2387010
 149.9502600  79.6107200 140.1541680 150.8972890  78.7498410 139.3455240
 145.6942070  75.7780800 141.6001560 145.7347410  75.4794670 142.5086790
 146.5487570  76.1788410 141.4409080 149.4720460  78.3776350 126.7605070
 149.8936880  78.2116220 127.6036460 149.5971300  77.5676580 126.2660210
 147.6347880  74.3572900 139.5676050 147.1044340  73.8663850 138.9399390
 148.3035950  74.7857100 139.0333980 151.9848100  77.4013960 124.0082170
 152.5053760  76.6862980 123.6423320 152.6316500  78.0399830 124.3082680
 148.1220180  71.3235270 139.6473340 148.0277050  70.7056020 138.9224210
 147.5417570  72.0501560 139.4203250 150.8881620  69.8808510 136.6800730
 150.4398920  69.9032770 135.8346280 150.2546820  69.4827530 137.2771030
 151.2941170  78.7762840 137.3013170 151.7129280  79.6195570 137.1289410
 150.3749800  78.9134880 137.0719950 148.3679360  74.4509580 123.7063230
 148.1668420  73.5876940 124.0676570 148.1971410  74.3642940 122.7684830
 149.1448590  85.0815850 138.4170900 148.6069680  85.8061910 138.0979600
 149.3982550  84.6046190 137.6268240 150.3973840  73.0500370 139.9426830
 150.9873530  72.7416220 140.6304650 149.5794080  72.5780120 140.0986730
 147.1662160  71.5510200 123.6941110 147.4688060  71.5577630 122.7860260
 147.9056750  71.2008060 124.1908770 152.0010800  86.3167060 138.6757550
 151.9269500  87.2202200 138.9829920 151.0989640  85.9978960 138.6479620
 150.3847090  70.4944820 124.6797310 150.0369090  69.8168810 124.0999760
 150.5859860  70.0334330 125.4940700 146.1892290  80.8552620 124.5270910
 146.6267160  81.3982290 125.1828490 146.6740020  80.0299570 124.5367250
 143.4038090  83.6441650 131.9791170 143.7341100  82.7762710 131.7469810
 143.8329090  83.8500170 132.8096130 148.0000010  81.9750660 129.6393140
 147.6995550  81.8515630 130.5397050 147.8937500  81.1159250 129.2308870
 143.8928300  84.5112240 134.7172800 143.4559290  84.6913040 135.5496950
 144.4605980  85.2686860 134.5754520 143.7252730  77.0232470 131.0761680
 143.0701570  76.7544110 130.4321380 144.5630680  76.9136950 130.6263660
 144.7628660  77.4085040 135.6165020 145.1301700  77.3212440 136.4961040
 144.1939480  76.6451590 135.5171880 144.3144660  74.3194130 139.5223440
 143.4200710  74.2860890 139.8617150 144.8542210  74.5180920 140.2874690
 142.9390810  74.2331400 127.0187010 142.0354890  74.4961600 126.8438670
 143.4231430  74.5042570 126.2386970 145.4818020  73.2896940 124.9281390
 146.1909720  72.8680160 124.4428670 144.7657960  73.3572170 124.2964740
 145.1292180  69.3436270 123.9684040 145.8520310  69.8845210 124.2865260
 145.4016700  69.0699690 123.0925580 144.8184370  68.5942460 133.8706660
 145.4660560  68.0439840 133.4301820 145.2386210  68.8485610 134.6922470
 144.5716370  68.7498130 136.6131980 144.2231190  69.2061950 137.3790160
 144.2404070  67.8555260 136.6954410 146.1780740  81.9217730 140.7785170
 146.1350370  81.5510640 141.6599630 146.3091750  82.8595300 140.9186990
 149.8786770  83.4777320 136.3794890 149.6378130  83.7451880 135.4925410
 150.8189410  83.6483050 136.4345750 145.2437010  68.2774330 139.8882750
 145.7920000  68.0962380 139.1248860 145.3092320  67.4868440 140.4239060
 146.0168770  84.8679980 137.8982950 145.4229090  84.7364680 138.6372990
 146.0092610  84.0318120 137.4325050 145.6481000  82.2338360 136.8490990
 144.9215060  81.6143650 136.7816940 145.7090150  82.6278970 135.9789070
 149.2526100  84.4483360 133.6340400 149.7691120  83.8370720 133.1088660
 149.9023480  84.9512140 134.1251410 151.9921600  85.3391850 134.4609380
 152.2799410  85.0846150 133.5842390 152.5044820  84.7869210 135.0514950
 143.9311000  85.5512750 130.0587750 143.7633040  84.9183430 130.7569640
 143.0645510  85.7572150 129.7081940 144.5539020  69.3829530 127.5619610
 145.3118380  69.4958410 126.9883640 144.0916190  70.2198730 127.5163040
 151.0952830  71.4968800 130.5521920 150.2827340  71.1225690 130.2117800
 151.5994470  70.7413880 130.8543110 145.5373700  84.2445980 127.5037890
 145.0121320  84.6254010 126.7999850 145.4618280  84.8696750 128.2247600
 146.9264170  69.9093580 126.1021580 147.4556930  69.1223380 125.9729530
 147.5592490  70.5884770 126.3357110 149.1202010  69.6468720 129.1566970
 148.4904750  68.9456030 129.3237100 148.5807150  70.4072850 128.9400130
 149.2457570  68.9252700 141.5919460 148.9641840  69.4286300 140.8280280
 149.6277270  68.1274450 141.2261590 148.1366670  86.1928360 126.3787140
 148.8685490  85.9087640 125.8311030 148.3960340  85.9541640 127.2686520
 147.2981460  82.3093090 126.3833470 146.6690340  82.7778190 126.9319300
 147.4129290  81.4642310 126.8179660 146.9015050  78.4497580 115.2919700
 146.0699930  78.1946290 115.6916210 147.5096030  78.5208350 116.0277620
 146.8816310  82.4837670 115.4877720 147.1844350  81.5935410 115.3087940
 147.6259900  83.0407890 115.2599970 145.3107000  73.4099470 109.0762090
 144.4223700  73.7515440 108.9741970 145.5948190  73.2099790 108.1842920
 143.2740010  76.0105120 114.9601790 143.8456120  75.2427320 114.9605430
 143.2741550  76.3093880 114.0508400 144.5164880  71.4189480 116.7470720
 144.3367720  70.5215230 117.0273480 144.1144960  71.9661350 117.4217670
 147.4868390  71.9930970 110.1100470 147.5935140  72.8934700 110.4169230
 146.5760750  71.9448940 109.8195120 145.1351550  73.9149980 115.3553060
 145.8161660  74.1788350 115.9740460 144.8199600  73.0750850 115.6891070
 149.3276120  74.9617340 114.4425650 149.8354340  75.4598310 115.0830670
 149.8589360  74.1852540 114.2665010 147.6112220  69.6015900 118.7089070
 147.6130660  70.1188290 117.9034970 146.7816530  69.1246080 118.6859000
 148.8615070  79.2411080 116.8862570 148.5284450  79.8680000 117.5283640
 149.0381750  79.7672960 116.1064240 147.2927550  71.3125860 116.7159520
 147.6344360  72.1567910 116.4213390 146.3543360  71.4609600 116.8324860
 148.0734170  81.2091880 118.7011750 148.6908170  81.8842960 118.4196200
 147.2127290  81.6179860 118.6099250 143.3666510  80.3991740 107.5818600
 142.9894490  80.8878840 106.8503500 143.6239580  81.0717020 108.2125130
 150.9755440  68.8008130 113.0404110 151.2830420  68.2455020 112.3239610
 150.0456140  68.9352590 112.8577100 148.9692840  77.3921700 112.5583960
 148.5649840  76.6798950 112.0629860 149.0555960  77.0474940 113.4472000
 149.4374540  81.0789260 114.7223170 149.1402830  80.4734730 114.0430950
 150.3874360  81.1166570 114.6112530 147.6821460  74.1664910 116.3383000
 148.2336050  74.2760250 115.5636250 148.1964970  74.5402510 117.0538230
 148.5292970  80.8170950 121.3730970 147.6321500  81.0410920 121.6204370
 148.5545840  80.9405890 120.4242370 147.3564190  77.6884270 119.9488340
 147.2171960  78.5607070 120.3175740 146.4745550  77.3457080 119.8036280
 149.1544540  83.6305970 122.1573490 149.1259970  84.0348920 121.2901920
 148.9909510  82.7016330 121.9945090 145.6697470  76.2866680 110.0590610
 145.5495070  77.0128770 109.4471880 145.3598360  75.5169590 109.5818520
 143.3082840  79.4581820 115.8659250 143.3863260  79.5930590 114.9214970
 143.9224520  78.7497710 116.0587370 144.5530470  81.1582010 112.2765430
 144.1458550  81.2996600 111.4219030 145.4443480  80.8742170 112.0736640
 148.8252130  85.3727790 110.3888100 148.6494610  84.4563330 110.1755900
 147.9707870  85.7315080 110.6285900 143.3642360  80.4995990 118.4053710
 143.5273400  80.0301350 117.5873080 143.8294810  79.9919550 119.0702550
 148.1361130  69.6301750 113.4414280 147.6929280  70.4111290 113.1098800
 148.6946120  69.9531640 114.1485220 152.4230940  72.4970270 119.0449600
 151.9610310  72.7053290 119.8569540 152.0209050  71.6829620 118.7420270
 151.2519950  69.2512450 108.3220110 150.6274130  69.2472320 109.0473420
 151.1650070  68.3843410 107.9256080 150.1737030  70.1749080 115.3003880
 150.4709360  71.0811910 115.2195900 150.7222590  69.6867860 114.6863450
 147.9275350  74.7535320 111.1695530 147.7016270  74.5372490 112.0742150
 147.1467880  75.1863780 110.8241500 150.3674560  75.6520900 121.8355800
 150.2718160  74.7115630 121.6856200 151.2106540  75.8735970 121.4403870
 145.4985100  72.0634570 119.9889580 145.1048490  72.9109780 120.1962360
 144.8103500  71.4260940 120.1798220 142.8002150  69.9863030 114.0219660
 142.5115200  70.5565890 114.7344640 143.5447910  69.5067480 114.3850890
 142.9872380  73.9283150 105.2322380 142.9047050  74.8713910 105.3737370
 142.6355440  73.7858060 104.3534730 150.7870510  72.6622180 114.2992730
 150.7906570  72.2212130 113.4497270 151.6821630  72.9839510 114.4064550
 146.6372890  72.5448670 113.2586940 146.2972940  73.0223900 114.0153990
 145.8750210  72.0913790 112.8988040 150.8490660  73.6634260 107.2899490
 150.9703480  73.6220740 108.2385310 150.4639170  74.5258410 107.1346220
 149.8612160  75.9735400 106.6882790 149.2929060  75.5253650 106.0618700
 150.5701160  76.3328180 106.1547940 144.9381340  79.8747420 120.5649520
 144.5536130  79.2341090 121.1632480 145.2493530  80.5783540 121.1344250
 151.0878480  76.7223960 116.0458140 151.4548610  76.2482530 116.7919480
 150.8983540  77.5965530 116.3866480 143.9518970  71.4667650 112.1751610
 143.6665890  71.1023320 113.0130230 143.8897830  70.7348110 111.5614750
 148.8777850  75.7632600 118.3642350 148.5734920  76.6424580 118.5892710
 149.8324310  75.8232390 118.3999790 147.4059640  79.9693590 108.9609200
 146.6321900  79.4291210 108.8007920 148.1354270  79.4500200 108.6226960
 147.4497040  79.6373970 112.5988010 147.9675710  78.8342230 112.5444900
 146.9981060  79.5753110 113.4404840 144.9341580  76.6035340 119.5113710
 144.5756520  77.2689190 120.0987050 144.6396140  75.7718890 119.8826330
 148.1354700  77.0619580 122.3953260 147.8354840  77.2076760 121.4981080
 148.9065940  76.5024870 122.3026650 151.3057230  80.9853780 110.6431230
 151.9928360  81.5322990 111.0238820 150.5189650  81.5294510 110.6780840
 143.4449630  76.6026600 106.1348310 144.3144480  76.8851400 106.4184230
 142.9539950  77.4162470 106.0197120 150.6084440  77.9899810 110.2556590
 151.0647220  78.8005060 110.4816780 150.2572650  77.6722950 111.0875080
 146.5096220  68.3337460 110.7279110 146.3810850  68.3255360 111.6764030
 145.6858240  68.6720550 110.3770120 143.8120880  85.8153980 106.7009940
 144.1718520  86.4143320 106.0467210 143.6713220  86.3613870 107.4744970
 143.5090150  70.0928580 120.1885810 142.7948670  70.2925500 120.7938420
 143.9285190  69.3168150 120.5600610 143.7962740  84.0808840 121.1752340
 143.9053860  83.1403580 121.0347730 143.1443300  84.3463590 120.5266070
 151.7875330  82.3524730 122.5750460 151.4672200  81.6333970 123.1196150
 151.1133690  83.0279800 122.6486520 149.8289500  83.1985180 107.5183610
 149.8199600  83.9314870 106.9028120 148.9087860  82.9516760 107.6110570
 145.4296140  78.4200070 108.2630370 144.8224090  79.1598970 108.2725670
 145.9045490  78.5099430 107.4368570 150.3374990  73.8193780 110.1632700
 149.6291140  74.2880120 110.6046310 150.6219470  73.1615790 110.7977890
 151.9630920  75.2390480 118.1625230 152.4616170  75.7136300 118.8277080
 152.1053870  74.3154000 118.3695260 151.4567210  85.7799740 110.8756470
 151.7108710  85.7421130 109.9535840 150.5079690  85.6533070 110.8684720
 148.5410010  72.1278860 107.5383410 149.3900540  72.5649010 107.4723600
 148.1741280  72.4399120 108.3655470 147.4401430  78.3811220 106.0118940
 148.2064700  78.2692580 106.5744370 147.5176120  77.6849190 105.3595710
 146.1348190  75.8136290 106.6951830 146.2151780  74.8663800 106.8069230
 147.0267940  76.1443170 106.8012490 146.9362900  85.9631680 113.7986370
 147.6725380  85.4147140 114.0694940 147.3203820  86.8287690 113.6592360
 143.8208380  82.0305250 109.6727880 142.8948160  82.2726390 109.6633290
 144.2864810  82.8579510 109.5512630 145.9421180  85.1477750 122.9871950
 146.7433910  85.4689800 123.4007350 145.4273000  84.7873330 123.7091860
 150.0465210  85.1361990 105.6211940 150.8393820  85.4250820 105.1693730
 149.5269560  84.7054160 104.9424420 143.6618990  77.6351210 121.9308000
 144.1658010  77.0558490 122.5024230 142.9226410  77.9191440 122.4684370
 150.5642610  80.3565400 105.4854290 150.4593250  79.7417750 106.2115670
 150.3966830  79.8331290 104.7017300 150.7156930  79.0422200 121.4643520
 149.9502600  79.6107200 121.3798190 150.8972890  78.7498410 120.5711750
 145.6942070  75.7780800 122.8258070 145.7347410  75.4794670 123.7343300
 146.5487570  76.1788410 122.6665590 149.4720460  78.3776350 107.9861580
 149.8936880  78.2116220 108.8292970 149.5971300  77.5676580 107.4916720
 147.6347880  74.3572900 120.7932560 147.1044340  73.8663850 120.1655900
 148.3035950  74.7857100 120.2590490 151.9848100  77.4013960 105.2338680
 152.5053760  76.6862980 104.8679830 152.6316500  78.0399830 105.5339190
 148.1220180  71.3235270 120.8729850 148.0277050  70.7056020 120.1480720
 147.5417570  72.0501560 120.6459760 150.8881620  69.8808510 117.9057240
 150.4398920  69.9032770 117.0602790 150.2546820  69.4827530 118.5027540
 151.2941170  78.7762840 118.5269680 151.7129280  79.6195570 118.3545920
 150.3749800  78.9134880 118.2976460 148.3679360  74.4509580 104.9319740
 148.1668420  73.5876940 105.2933080 148.1971410  74.3642940 103.9941340
 149.1448590  85.0815850 119.6427410 148.6069680  85.8061910 119.3236110
 149.3982550  84.6046190 118.8524750 150.3973840  73.0500370 121.1683340
 150.9873530  72.7416220 121.8561160 149.5794080  72.5780120 121.3243240
 147.1662160  71.5510200 104.9197620 147.4688060  71.5577630 104.0116770
 147.9056750  71.2008060 105.4165280 152.0010800  86.3167060 119.9014060
 151.9269500  87.2202200 120.2086430 151.0989640  85.9978960 119.8736130
 150.3847090  70.4944820 105.9053820 150.0369090  69.8168810 105.3256270
 150.5859860  70.0334330 106.7197210 146.1892290  80.8552620 105.7527420
 146.6267160  81.3982290 106.4085000 146.6740020  80.0299570 105.7623760
 143.4038090  83.6441650 113.2047680 143.7341100  82.7762710 112.9726320
 143.8329090  83.8500170 114.0352640 148.0000010  81.9750660 110.8649650
 147.6995550  81.8515630 111.7653560 147.8937500  81.1159250 110.4565380
 143.8928300  84.5112240 115.9429310 143.4559290  84.6913040 116.7753460
 144.4605980  85.2686860 115.8011030 143.7252730  77.0232470 112.3018190
 143.0701570  76.7544110 111.6577890 144.5630680  76.9136950 111.8520170
 144.7628660  77.4085040 116.8421530 145.1301700  77.3212440 117.7217550
 144.1939480  76.6451590 116.7428390 144.3144660  74.3194130 120.7479950
 143.4200710  74.2860890 121.0873660 144.8542210  74.5180920 121.5131200
 142.9390810  74.2331400 108.2443520 142.0354890  74.4961600 108.0695180
 143.4231430  74.5042570 107.4643480 145.4818020  73.2896940 106.1537900
 146.1909720  72.8680160 105.6685180 144.7657960  73.3572170 105.5221250
 145.1292180  69.3436270 105.1940550 145.8520310  69.8845210 105.5121770
 145.4016700  69.0699690 104.3182090 144.8184370  68.5942460 115.0963170
 145.4660560  68.0439840 114.6558330 145.2386210  68.8485610 115.9178980
 144.5716370  68.7498130 117.8388490 144.2231190  69.2061950 118.6046670
 144.2404070  67.8555260 117.9210920 146.1780740  81.9217730 122.0041680
 146.1350370  81.5510640 122.8856140 146.3091750  82.8595300 122.1443500
 149.8786770  83.4777320 117.6051400 149.6378130  83.7451880 116.7181920
 150.8189410  83.6483050 117.6602260 145.2437010  68.2774330 121.1139260
 145.7920000  68.0962380 120.3505370 145.3092320  67.4868440 121.6495570
 146.0168770  84.8679980 119.1239460 145.4229090  84.7364680 119.8629500
 146.0092610  84.0318120 118.6581560 145.6481000  82.2338360 118.0747500
 144.9215060  81.6143650 118.0073450 145.7090150  82.6278970 117.2045580
 149.2526100  84.4483360 114.8596910 149.7691120  83.8370720 114.3345170
 149.9023480  84.9512140 115.3507920 151.9921600  85.3391850 115.6865890
 152.2799410  85.0846150 114.8098900 152.5044820  84.7869210 116.2771460
 143.9311000  85.5512750 111.2844260 143.7633040  84.9183430 111.9826150
 143.0645510  85.7572150 110.9338450 144.5539020  69.3829530 108.7876120
 145.3118380  69.4958410 108.2140150 144.0916190  70.2198730 108.7419550
 151.0952830  71.4968800 111.7778430 150.2827340  71.1225690 111.4374310
 151.5994470  70.7413880 112.0799620 145.5373700  84.2445980 108.7294400
 145.0121320  84.6254010 108.0256360 145.4618280  84.8696750 109.4504110
 146.9264170  69.9093580 107.3278090 147.4556930  69.1223380 107.1986040
 147.5592490  70.5884770 107.5613620 149.1202010  69.6468720 110.3823480
 148.4904750  68.9456030 110.5493610 148.5807150  70.4072850 110.1656640
 149.2457570  68.9252700 122.8175970 148.9641840  69.4286300 122.0536790
 149.6277270  68.1274450 122.4518100 148.1366670  86.1928360 107.6043650
 148.8685490  85.9087640 107.0567540 148.3960340  85.9541640 108.4943030
 147.2981460  82.3093090 107.6089980 146.6690340  82.7778190 108.1575810
 147.4129290  81.4642310 108.0436170 146.9015050  78.4497580  96.5176210
 146.0699930  78.1946290  96.9172720 147.5096030  78.5208350  97.2534130
 146.8816310  82.4837670  96.7134230 147.1844350  81.5935410  96.5344450
 147.6259900  83.0407890  96.4856480 145.3107000  73.4099470  90.3018600
 144.4223700  73.7515440  90.1998480 145.5948190  73.2099790  89.4099430
 143.2740010  76.0105120  96.1858300 143.8456120  75.2427320  96.1861940
 143.2741550  76.3093880  95.2764910 144.5164880  71.4189480  97.9727230
 144.3367720  70.5215230  98.2529990 144.1144960  71.9661350  98.6474180
 147.4868390  71.9930970  91.3356980 147.5935140  72.8934700  91.6425740
 146.5760750  71.9448940  91.0451630 145.1351550  73.9149980  96.5809570
 145.8161660  74.1788350  97.1996970 144.8199600  73.0750850  96.9147580
 149.3276120  74.9617340  95.6682160 149.8354340  75.4598310  96.3087180
 149.8589360  74.1852540  95.4921520 147.6112220  69.6015900  99.9345580
 147.6130660  70.1188290  99.1291480 146.7816530  69.1246080  99.9115510
 148.8615070  79.2411080  98.1119080 148.5284450  79.8680000  98.7540150
 149.0381750  79.7672960  97.3320750 147.2927550  71.3125860  97.9416030
 147.6344360  72.1567910  97.6469900 146.3543360  71.4609600  98.0581370
 148.0734170  81.2091880  99.9268260 148.6908170  81.8842960  99.6452710
 147.2127290  81.6179860  99.8355760 143.3666510  80.3991740  88.8075110
 142.9894490  80.8878840  88.0760010 143.6239580  81.0717020  89.4381640
 150.9755440  68.8008130  94.2660620 151.2830420  68.2455020  93.5496120
 150.0456140  68.9352590  94.0833610 148.9692840  77.3921700  93.7840470
 148.5649840  76.6798950  93.2886370 149.0555960  77.0474940  94.6728510
 149.4374540  81.0789260  95.9479680 149.1402830  80.4734730  95.2687460
 150.3874360  81.1166570  95.8369040 147.6821460  74.1664910  97.5639510
 148.2336050  74.2760250  96.7892760 148.1964970  74.5402510  98.2794740
 148.5292970  80.8170950 102.5987480 147.6321500  81.0410920 102.8460880
 148.5545840  80.9405890 101.6498880 147.3564190  77.6884270 101.1744850
 147.2171960  78.5607070 101.5432250 146.4745550  77.3457080 101.0292790
 149.1544540  83.6305970 103.3830000 149.1259970  84.0348920 102.5158430
 148.9909510  82.7016330 103.2201600 145.6697470  76.2866680  91.2847120
 145.5495070  77.0128770  90.6728390 145.3598360  75.5169590  90.8075030
 143.3082840  79.4581820  97.0915760 143.3863260  79.5930590  96.1471480
 143.9224520  78.7497710  97.2843880 144.5530470  81.1582010  93.5021940
 144.1458550  81.2996600  92.6475540 145.4443480  80.8742170  93.2993150
 148.8252130  85.3727790  91.6144610 148.6494610  84.4563330  91.4012410
 147.9707870  85.7315080  91.8542410 143.3642360  80.4995990  99.6310220
 143.5273400  80.0301350  98.8129590 143.8294810  79.9919550 100.2959060
 148.1361130  69.6301750  94.6670790 147.6929280  70.4111290  94.3355310
 148.6946120  69.9531640  95.3741730 152.4230940  72.4970270 100.2706110
 151.9610310  72.7053290 101.0826050 152.0209050  71.6829620  99.9676780
 151.2519950  69.2512450  89.5476620 150.6274130  69.2472320  90.2729930
 151.1650070  68.3843410  89.1512590 150.1737030  70.1749080  96.5260390
 150.4709360  71.0811910  96.4452410 150.7222590  69.6867860  95.9119960
 147.9275350  74.7535320  92.3952040 147.7016270  74.5372490  93.2998660
 147.1467880  75.1863780  92.0498010 150.3674560  75.6520900 103.0612310
 150.2718160  74.7115630 102.9112710 151.2106540  75.8735970 102.6660380
 145.4985100  72.0634570 101.2146090 145.1048490  72.9109780 101.4218870
 144.8103500  71.4260940 101.4054730 142.8002150  69.9863030  95.2476170
 142.5115200  70.5565890  95.9601150 143.5447910  69.5067480  95.6107400
 142.9872380  73.9283150  86.4578890 142.9047050  74.8713910  86.5993880
 142.6355440  73.7858060  85.5791240 150.7870510  72.6622180  95.5249240
 150.7906570  72.2212130  94.6753780 151.6821630  72.9839510  95.6321060
 146.6372890  72.5448670  94.4843450 146.2972940  73.0223900  95.2410500
 145.8750210  72.0913790  94.1244550 150.8490660  73.6634260  88.5156000
 150.9703480  73.6220740  89.4641820 150.4639170  74.5258410  88.3602730
 149.8612160  75.9735400  87.9139300 149.2929060  75.5253650  87.2875210
 150.5701160  76.3328180  87.3804450 144.9381340  79.8747420 101.7906030
 144.5536130  79.2341090 102.3888990 145.2493530  80.5783540 102.3600760
 151.0878480  76.7223960  97.2714650 151.4548610  76.2482530  98.0175990
 150.8983540  77.5965530  97.6122990 143.9518970  71.4667650  93.4008120
 143.6665890  71.1023320  94.2386740 143.8897830  70.7348110  92.7871260
 148.8777850  75.7632600  99.5898860 148.5734920  76.6424580  99.8149220
 149.8324310  75.8232390  99.6256300 147.4059640  79.9693590  90.1865710
 146.6321900  79.4291210  90.0264430 148.1354270  79.4500200  89.8483470
 147.4497040  79.6373970  93.8244520 147.9675710  78.8342230  93.7701410
 146.9981060  79.5753110  94.6661350 144.9341580  76.6035340 100.7370220
 144.5756520  77.2689190 101.3243560 144.6396140  75.7718890 101.1082840
 148.1354700  77.0619580 103.6209770 147.8354840  77.2076760 102.7237590
 148.9065940  76.5024870 103.5283160 151.3057230  80.9853780  91.8687740
 151.9928360  81.5322990  92.2495330 150.5189650  81.5294510  91.9037350
 143.4449630  76.6026600  87.3604820 144.3144480  76.8851400  87.6440740
 142.9539950  77.4162470  87.2453630 150.6084440  77.9899810  91.4813100
 151.0647220  78.8005060  91.7073290 150.2572650  77.6722950  92.3131590
 146.5096220  68.3337460  91.9535620 146.3810850  68.3255360  92.9020540
 145.6858240  68.6720550  91.6026630 143.8120880  85.8153980  87.9266450
 144.1718520  86.4143320  87.2723720 143.6713220  86.3613870  88.7001480
 143.5090150  70.0928580 101.4142320 142.7948670  70.2925500 102.0194930
 143.9285190  69.3168150 101.7857120 143.7962740  84.0808840 102.4008850
 143.9053860  83.1403580 102.2604240 143.1443300  84.3463590 101.7522580
 151.7875330  82.3524730 103.8006970 151.4672200  81.6333970 104.3452660
 151.1133690  83.0279800 103.8743030 149.8289500  83.1985180  88.7440120
 149.8199600  83.9314870  88.1284630 148.9087860  82.9516760  88.8367080
 145.4296140  78.4200070  89.4886880 144.8224090  79.1598970  89.4982180
 145.9045490  78.5099430  88.6625080 150.3374990  73.8193780  91.3889210
 149.6291140  74.2880120  91.8302820 150.6219470  73.1615790  92.0234400
 151.9630920  75.2390480  99.3881740 152.4616170  75.7136300 100.0533590
 152.1053870  74.3154000  99.5951770 151.4567210  85.7799740  92.1012980
 151.7108710  85.7421130  91.1792350 150.5079690  85.6533070  92.0941230
 148.5410010  72.1278860  88.7639920 149.3900540  72.5649010  88.6980110
 148.1741280  72.4399120  89.5911980 147.4401430  78.3811220  87.2375450
 148.2064700  78.2692580  87.8000880 147.5176120  77.6849190  86.5852220
 146.1348190  75.8136290  87.9208340 146.2151780  74.8663800  88.0325740
 147.0267940  76.1443170  88.0269000 146.9362900  85.9631680  95.0242880
 147.6725380  85.4147140  95.2951450 147.3203820  86.8287690  94.8848870
 143.8208380  82.0305250  90.8984390 142.8948160  82.2726390  90.8889800
 144.2864810  82.8579510  90.7769140 145.9421180  85.1477750 104.2128460
 146.7433910  85.4689800 104.6263860 145.4273000  84.7873330 104.9348370
 150.0465210  85.1361990  86.8468450 150.8393820  85.4250820  86.3950240
 149.5269560  84.7054160  86.1680930 143.6618990  77.6351210 103.1564510
 144.1658010  77.0558490 103.7280740 142.9226410  77.9191440 103.6940880
 150.5642610  80.3565400  86.7110800 150.4593250  79.7417750  87.4372180
 150.3966830  79.8331290  85.9273810 150.7156930  79.0422200 102.6900030
 149.9502600  79.6107200 102.6054700 150.8972890  78.7498410 101.7968260
 145.6942070  75.7780800 104.0514580 145.7347410  75.4794670 104.9599810
 146.5487570  76.1788410 103.8922100 149.4720460  78.3776350  89.2118090
 149.8936880  78.2116220  90.0549480 149.5971300  77.5676580  88.7173230
 147.6347880  74.3572900 102.0189070 147.1044340  73.8663850 101.3912410
 148.3035950  74.7857100 101.4847000 151.9848100  77.4013960  86.4595190
 152.5053760  76.6862980  86.0936340 152.6316500  78.0399830  86.7595700
 148.1220180  71.3235270 102.0986360 148.0277050  70.7056020 101.3737230
 147.5417570  72.0501560 101.8716270 150.8881620  69.8808510  99.1313750
 150.4398920  69.9032770  98.2859300 150.2546820  69.4827530  99.7284050
 151.2941170  78.7762840  99.7526190 151.7129280  79.6195570  99.5802430
 150.3749800  78.9134880  99.5232970 148.3679360  74.4509580  86.1576250
 148.1668420  73.5876940  86.5189590 148.1971410  74.3642940  85.2197850
 149.1448590  85.0815850 100.8683920 148.6069680  85.8061910 100.5492620
 149.3982550  84.6046190 100.0781260 150.3973840  73.0500370 102.3939850
 150.9873530  72.7416220 103.0817670 149.5794080  72.5780120 102.5499750
 147.1662160  71.5510200  86.1454130 147.4688060  71.5577630  85.2373280
 147.9056750  71.2008060  86.6421790 152.0010800  86.3167060 101.1270570
 151.9269500  87.2202200 101.4342940 151.0989640  85.9978960 101.0992640
 150.3847090  70.4944820  87.1310330 150.0369090  69.8168810  86.5512780
 150.5859860  70.0334330  87.9453720 146.1892290  80.8552620  86.9783930
 146.6267160  81.3982290  87.6341510 146.6740020  80.0299570  86.9880270
 143.4038090  83.6441650  94.4304190 143.7341100  82.7762710  94.1982830
 143.8329090  83.8500170  95.2609150 148.0000010  81.9750660  92.0906160
 147.6995550  81.8515630  92.9910070 147.8937500  81.1159250  91.6821890
 143.8928300  84.5112240  97.1685820 143.4559290  84.6913040  98.0009970
 144.4605980  85.2686860  97.0267540 143.7252730  77.0232470  93.5274700
 143.0701570  76.7544110  92.8834400 144.5630680  76.9136950  93.0776680
 144.7628660  77.4085040  98.0678040 145.1301700  77.3212440  98.9474060
 144.1939480  76.6451590  97.9684900 144.3144660  74.3194130 101.9736460
 143.4200710  74.2860890 102.3130170 144.8542210  74.5180920 102.7387710
 142.9390810  74.2331400  89.4700030 142.0354890  74.4961600  89.2951690
 143.4231430  74.5042570  88.6899990 145.4818020  73.2896940  87.3794410
 146.1909720  72.8680160  86.8941690 144.7657960  73.3572170  86.7477760
 145.1292180  69.3436270  86.4197060 145.8520310  69.8845210  86.7378280
 145.4016700  69.0699690  85.5438600 144.8184370  68.5942460  96.3219680
 145.4660560  68.0439840  95.8814840 145.2386210  68.8485610  97.1435490
 144.5716370  68.7498130  99.0645000 144.2231190  69.2061950  99.8303180
 144.2404070  67.8555260  99.1467430 146.1780740  81.9217730 103.2298190
 146.1350370  81.5510640 104.1112650 146.3091750  82.8595300 103.3700010
 149.8786770  83.4777320  98.8307910 149.6378130  83.7451880  97.9438430
 150.8189410  83.6483050  98.8858770 145.2437010  68.2774330 102.3395770
 145.7920000  68.0962380 101.5761880 145.3092320  67.4868440 102.8752080
 146.0168770  84.8679980 100.3495970 145.4229090  84.7364680 101.0886010
 146.0092610  84.0318120  99.8838070 145.6481000  82.2338360  99.3004010
 144.9215060  81.6143650  99.2329960 145.7090150  82.6278970  98.4302090
 149.2526100  84.4483360  96.0853420 149.7691120  83.8370720  95.5601680
 149.9023480  84.9512140  96.5764430 151.9921600  85.3391850  96.9122400
 152.2799410  85.0846150  96.0355410 152.5044820  84.7869210  97.5027970
 143.9311000  85.5512750  92.5100770 143.7633040  84.9183430  93.2082660
 143.0645510  85.7572150  92.1594960 144.5539020  69.3829530  90.0132630
 145.3118380  69.4958410  89.4396660 144.0916190  70.2198730  89.9676060
 151.0952830  71.4968800  93.0034940 150.2827340  71.1225690  92.6630820
 151.5994470  70.7413880  93.3056130 145.5373700  84.2445980  89.9550910
 145.0121320  84.6254010  89.2512870 145.4618280  84.8696750  90.6760620
 146.9264170  69.9093580  88.5534600 147.4556930  69.1223380  88.4242550
 147.5592490  70.5884770  88.7870130 149.1202010  69.6468720  91.6079990
 148.4904750  68.9456030  91.7750120 148.5807150  70.4072850  91.3913150
 149.2457570  68.9252700 104.0432480 148.9641840  69.4286300 103.2793300
 149.6277270  68.1274450 103.6774610 148.1366670  86.1928360  88.8300160
 148.8685490  85.9087640  88.2824050 148.3960340  85.9541640  89.7199540
 147.2981460  82.3093090  88.8346490 146.6690340  82.7778190  89.3832320
 147.4129290  81.4642310  89.2692680 146.9015050  78.4497580  77.7432720
 146.0699930  78.1946290  78.1429230 147.5096030  78.5208350  78.4790640
 146.8816310  82.4837670  77.9390740 147.1844350  81.5935410  77.7600960
 147.6259900  83.0407890  77.7112990 145.3107000  73.4099470  71.5275110
 144.4223700  73.7515440  71.4254990 145.5948190  73.2099790  70.6355940
 143.2740010  76.0105120  77.4114810 143.8456120  75.2427320  77.4118450
 143.2741550  76.3093880  76.5021420 144.5164880  71.4189480  79.1983740
 144.3367720  70.5215230  79.4786500 144.1144960  71.9661350  79.8730690
 147.4868390  71.9930970  72.5613490 147.5935140  72.8934700  72.8682250
 146.5760750  71.9448940  72.2708140 145.1351550  73.9149980  77.8066080
 145.8161660  74.1788350  78.4253480 144.8199600  73.0750850  78.1404090
 149.3276120  74.9617340  76.8938670 149.8354340  75.4598310  77.5343690
 149.8589360  74.1852540  76.7178030 147.6112220  69.6015900  81.1602090
 147.6130660  70.1188290  80.3547990 146.7816530  69.1246080  81.1372020
 148.8615070  79.2411080  79.3375590 148.5284450  79.8680000  79.9796660
 149.0381750  79.7672960  78.5577260 147.2927550  71.3125860  79.1672540
 147.6344360  72.1567910  78.8726410 146.3543360  71.4609600  79.2837880
 148.0734170  81.2091880  81.1524770 148.6908170  81.8842960  80.8709220
 147.2127290  81.6179860  81.0612270 143.3666510  80.3991740  70.0331620
 142.9894490  80.8878840  69.3016520 143.6239580  81.0717020  70.6638150
 150.9755440  68.8008130  75.4917130 151.2830420  68.2455020  74.7752630
 150.0456140  68.9352590  75.3090120 148.9692840  77.3921700  75.0096980
 148.5649840  76.6798950  74.5142880 149.0555960  77.0474940  75.8985020
 149.4374540  81.0789260  77.1736190 149.1402830  80.4734730  76.4943970
 150.3874360  81.1166570  77.0625550 147.6821460  74.1664910  78.7896020
 148.2336050  74.2760250  78.0149270 148.1964970  74.5402510  79.5051250
 148.5292970  80.8170950  83.8243990 147.6321500  81.0410920  84.0717390
 148.5545840  80.9405890  82.8755390 147.3564190  77.6884270  82.4001360
 147.2171960  78.5607070  82.7688760 146.4745550  77.3457080  82.2549300
 149.1544540  83.6305970  84.6086510 149.1259970  84.0348920  83.7414940
 148.9909510  82.7016330  84.4458110 145.6697470  76.2866680  72.5103630
 145.5495070  77.0128770  71.8984900 145.3598360  75.5169590  72.0331540
 143.3082840  79.4581820  78.3172270 143.3863260  79.5930590  77.3727990
 143.9224520  78.7497710  78.5100390 144.5530470  81.1582010  74.7278450
 144.1458550  81.2996600  73.8732050 145.4443480  80.8742170  74.5249660
 148.8252130  85.3727790  72.8401120 148.6494610  84.4563330  72.6268920
 147.9707870  85.7315080  73.0798920 143.3642360  80.4995990  80.8566730
 143.5273400  80.0301350  80.0386100 143.8294810  79.9919550  81.5215570
 148.1361130  69.6301750  75.8927300 147.6929280  70.4111290  75.5611820
 148.6946120  69.9531640  76.5998240 152.4230940  72.4970270  81.4962620
 151.9610310  72.7053290  82.3082560 152.0209050  71.6829620  81.1933290
 151.2519950  69.2512450  70.7733130 150.6274130  69.2472320  71.4986440
 151.1650070  68.3843410  70.3769100 150.1737030  70.1749080  77.7516900
 150.4709360  71.0811910  77.6708920 150.7222590  69.6867860  77.1376470
 147.9275350  74.7535320  73.6208550 147.7016270  74.5372490  74.5255170
 147.1467880  75.1863780  73.2754520 150.3674560  75.6520900  84.2868820
 150.2718160  74.7115630  84.1369220 151.2106540  75.8735970  83.8916890
 145.4985100  72.0634570  82.4402600 145.1048490  72.9109780  82.6475380
 144.8103500  71.4260940  82.6311240 142.8002150  69.9863030  76.4732680
 142.5115200  70.5565890  77.1857660 143.5447910  69.5067480  76.8363910
 142.9872380  73.9283150  67.6835400 142.9047050  74.8713910  67.8250390
 142.6355440  73.7858060  66.8047750 150.7870510  72.6622180  76.7505750
 150.7906570  72.2212130  75.9010290 151.6821630  72.9839510  76.8577570
 146.6372890  72.5448670  75.7099960 146.2972940  73.0223900  76.4667010
 145.8750210  72.0913790  75.3501060 150.8490660  73.6634260  69.7412510
 150.9703480  73.6220740  70.6898330 150.4639170  74.5258410  69.5859240
 149.8612160  75.9735400  69.1395810 149.2929060  75.5253650  68.5131720
 150.5701160  76.3328180  68.6060960 144.9381340  79.8747420  83.0162540
 144.5536130  79.2341090  83.6145500 145.2493530  80.5783540  83.5857270
 151.0878480  76.7223960  78.4971160 151.4548610  76.2482530  79.2432500
 150.8983540  77.5965530  78.8379500 143.9518970  71.4667650  74.6264630
 143.6665890  71.1023320  75.4643250 143.8897830  70.7348110  74.0127770
 148.8777850  75.7632600  80.8155370 148.5734920  76.6424580  81.0405730
 149.8324310  75.8232390  80.8512810 147.4059640  79.9693590  71.4122220
 146.6321900  79.4291210  71.2520940 148.1354270  79.4500200  71.0739980
 147.4497040  79.6373970  75.0501030 147.9675710  78.8342230  74.9957920
 146.9981060  79.5753110  75.8917860 144.9341580  76.6035340  81.9626730
 144.5756520  77.2689190  82.5500070 144.6396140  75.7718890  82.3339350
 148.1354700  77.0619580  84.8466280 147.8354840  77.2076760  83.9494100
 148.9065940  76.5024870  84.7539670 151.3057230  80.9853780  73.0944250
 151.9928360  81.5322990  73.4751840 150.5189650  81.5294510  73.1293860
 143.4449630  76.6026600  68.5861330 144.3144480  76.8851400  68.8697250
 142.9539950  77.4162470  68.4710140 150.6084440  77.9899810  72.7069610
 151.0647220  78.8005060  72.9329800 150.2572650  77.6722950  73.5388100
 146.5096220  68.3337460  73.1792130 146.3810850  68.3255360  74.1277050
 145.6858240  68.6720550  72.8283140 143.8120880  85.8153980  69.1522960
 144.1718520  86.4143320  68.4980230 143.6713220  86.3613870  69.9257990
 143.5090150  70.0928580  82.6398830 142.7948670  70.2925500  83.2451440
 143.9285190  69.3168150  83.0113630 143.7962740  84.0808840  83.6265360
 143.9053860  83.1403580  83.4860750 143.1443300  84.3463590  82.9779090
 151.7875330  82.3524730  85.0263480 151.4672200  81.6333970  85.5709170
 151.1133690  83.0279800  85.0999540 149.8289500  83.1985180  69.9696630
 149.8199600  83.9314870  69.3541140 148.9087860  82.9516760  70.0623590
 145.4296140  78.4200070  70.7143390 144.8224090  79.1598970  70.7238690
 145.9045490  78.5099430  69.8881590 150.3374990  73.8193780  72.6145720
 149.6291140  74.2880120  73.0559330 150.6219470  73.1615790  73.2490910
 151.9630920  75.2390480  80.6138250 152.4616170  75.7136300  81.2790100
 152.1053870  74.3154000  80.8208280 151.4567210  85.7799740  73.3269490
 151.7108710  85.7421130  72.4048860 150.5079690  85.6533070  73.3197740
 148.5410010  72.1278860  69.9896430 149.3900540  72.5649010  69.9236620
 148.1741280  72.4399120  70.8168490 147.4401430  78.3811220  68.4631960
 148.2064700  78.2692580  69.0257390 147.5176120  77.6849190  67.8108730
 146.1348190  75.8136290  69.1464850 146.2151780  74.8663800  69.2582250
 147.0267940  76.1443170  69.2525510 146.9362900  85.9631680  76.2499390
 147.6725380  85.4147140  76.5207960 147.3203820  86.8287690  76.1105380
 143.8208380  82.0305250  72.1240900 142.8948160  82.2726390  72.1146310
 144.2864810  82.8579510  72.0025650 145.9421180  85.1477750  85.4384970
 146.7433910  85.4689800  85.8520370 145.4273000  84.7873330  86.1604880
 150.0465210  85.1361990  68.0724960 150.8393820  85.4250820  67.6206750
 149.5269560  84.7054160  67.3937440 143.6618990  77.6351210  84.3821020
 144.1658010  77.0558490  84.9537250 142.9226410  77.9191440  84.9197390
 150.5642610  80.3565400  67.9367310 150.4593250  79.7417750  68.6628690
 150.3966830  79.8331290  67.1530320 150.7156930  79.0422200  83.9156540
 149.9502600  79.6107200  83.8311210 150.8972890  78.7498410  83.0224770
 145.6942070  75.7780800  85.2771090 145.7347410  75.4794670  86.1856320
 146.5487570  76.1788410  85.1178610 149.4720460  78.3776350  70.4374600
 149.8936880  78.2116220  71.2805990 149.5971300  77.5676580  69.9429740
 147.6347880  74.3572900  83.2445580 147.1044340  73.8663850  82.6168920
 148.3035950  74.7857100  82.7103510 151.9848100  77.4013960  67.6851700
 152.5053760  76.6862980  67.3192850 152.6316500  78.0399830  67.9852210
 148.1220180  71.3235270  83.3242870 148.0277050  70.7056020  82.5993740
 147.5417570  72.0501560  83.0972780 150.8881620  69.8808510  80.3570260
 150.4398920  69.9032770  79.5115810 150.2546820  69.4827530  80.9540560
 151.2941170  78.7762840  80.9782700 151.7129280  79.6195570  80.8058940
 150.3749800  78.9134880  80.7489480 148.3679360  74.4509580  67.3832760
 148.1668420  73.5876940  67.7446100 148.1971410  74.3642940  66.4454360
 149.1448590  85.0815850  82.0940430 148.6069680  85.8061910  81.7749130
 149.3982550  84.6046190  81.3037770 150.3973840  73.0500370  83.6196360
 150.9873530  72.7416220  84.3074180 149.5794080  72.5780120  83.7756260
 147.1662160  71.5510200  67.3710640 147.4688060  71.5577630  66.4629790
 147.9056750  71.2008060  67.8678300 152.0010800  86.3167060  82.3527080
 151.9269500  87.2202200  82.6599450 151.0989640  85.9978960  82.3249150
 150.3847090  70.4944820  68.3566840 150.0369090  69.8168810  67.7769290
 150.5859860  70.0334330  69.1710230 146.1892290  80.8552620  68.2040440
 146.6267160  81.3982290  68.8598020 146.6740020  80.0299570  68.2136780
 143.4038090  83.6441650  75.6560700 143.7341100  82.7762710  75.4239340
 143.8329090  83.8500170  76.4865660 148.0000010  81.9750660  73.3162670
 147.6995550  81.8515630  74.2166580 147.8937500  81.1159250  72.9078400
 143.7252730  77.0232470  74.7531210 143.0701570  76.7544110  74.1090910
 144.5630680  76.9136950  74.3033190 144.7628660  77.4085040  79.2934550
 145.1301700  77.3212440  80.1730570 144.1939480  76.6451590  79.1941410
 144.3144660  74.3194130  83.1992970 143.4200710  74.2860890  83.5386680
 144.8542210  74.5180920  83.9644220 142.9390810  74.2331400  70.6956540
 142.0354890  74.4961600  70.5208200 143.4231430  74.5042570  69.9156500
 145.4818020  73.2896940  68.6050920 146.1909720  72.8680160  68.1198200
 144.7657960  73.3572170  67.9734270 145.1292180  69.3436270  67.6453570
 145.8520310  69.8845210  67.9634790 145.4016700  69.0699690  66.7695110
 144.8184370  68.5942460  77.5476190 145.4660560  68.0439840  77.1071350
 145.2386210  68.8485610  78.3692000 144.5716370  68.7498130  80.2901510
 144.2231190  69.2061950  81.0559690 144.2404070  67.8555260  80.3723940
 146.1780740  81.9217730  84.4554700 146.1350370  81.5510640  85.3369160
 146.3091750  82.8595300  84.5956520 149.8786770  83.4777320  80.0564420
 149.6378130  83.7451880  79.1694940 150.8189410  83.6483050  80.1115280
 145.2437010  68.2774330  83.5652280 145.7920000  68.0962380  82.8018390
 145.3092320  67.4868440  84.1008590 146.0168770  84.8679980  81.5752480
 145.4229090  84.7364680  82.3142520 146.0092610  84.0318120  81.1094580
 145.6481000  82.2338360  80.5260520 144.9215060  81.6143650  80.4586470
 145.7090150  82.6278970  79.6558600 149.2526100  84.4483360  77.3109930
 149.7691120  83.8370720  76.7858190 149.9023480  84.9512140  77.8020940
 151.9921600  85.3391850  78.1378910 152.2799410  85.0846150  77.2611920
 152.5044820  84.7869210  78.7284480 143.9311000  85.5512750  73.7357280
 143.7633040  84.9183430  74.4339170 143.0645510  85.7572150  73.3851470
 144.5539020  69.3829530  71.2389140 145.3118380  69.4958410  70.6653170
 144.0916190  70.2198730  71.1932570 151.0952830  71.4968800  74.2291450
 150.2827340  71.1225690  73.8887330 151.5994470  70.7413880  74.5312640
 145.5373700  84.2445980  71.1807420 145.0121320  84.6254010  70.4769380
 145.4618280  84.8696750  71.9017130 146.9264170  69.9093580  69.7791110
 147.4556930  69.1223380  69.6499060 147.5592490  70.5884770  70.0126640
 149.1202010  69.6468720  72.8336500 148.4904750  68.9456030  73.0006630
 148.5807150  70.4072850  72.6169660 149.2457570  68.9252700  85.2688990
 148.9641840  69.4286300  84.5049810 149.6277270  68.1274450  84.9031120
 148.1366670  86.1928360  70.0556670 148.8685490  85.9087640  69.5080560
 148.3960340  85.9541640  70.9456050 147.2981460  82.3093090  70.0603000
 146.6690340  82.7778190  70.6088830 147.4129290  81.4642310  70.4949190
 146.9015050  78.4497580  58.9689230 146.0699930  78.1946290  59.3685740
 147.5096030  78.5208350  59.7047150 146.8816310  82.4837670  59.1647250
 147.1844350  81.5935410  58.9857470 147.6259900  83.0407890  58.9369500
 145.3107000  73.4099470  52.7531620 144.4223700  73.7515440  52.6511500
 145.5948190  73.2099790  51.8612450 143.2740010  76.0105120  58.6371320
 143.8456120  75.2427320  58.6374960 143.2741550  76.3093880  57.7277930
 144.5164880  71.4189480  60.4240250 144.3367720  70.5215230  60.7043010
 144.1144960  71.9661350  61.0987200 147.4868390  71.9930970  53.7870000
 147.5935140  72.8934700  54.0938760 146.5760750  71.9448940  53.4964650
 145.1351550  73.9149980  59.0322590 145.8161660  74.1788350  59.6509990
 144.8199600  73.0750850  59.3660600 149.3276120  74.9617340  58.1195180
 149.8354340  75.4598310  58.7600200 149.8589360  74.1852540  57.9434540
 147.6112220  69.6015900  62.3858600 147.6130660  70.1188290  61.5804500
 146.7816530  69.1246080  62.3628530 148.8615070  79.2411080  60.5632100
 148.5284450  79.8680000  61.2053170 149.0381750  79.7672960  59.7833770
 147.2927550  71.3125860  60.3929050 147.6344360  72.1567910  60.0982920
 146.3543360  71.4609600  60.5094390 148.0734170  81.2091880  62.3781280
 148.6908170  81.8842960  62.0965730 147.2127290  81.6179860  62.2868780
 143.3666510  80.3991740  51.2588130 142.9894490  80.8878840  50.5273030
 143.6239580  81.0717020  51.8894660 150.9755440  68.8008130  56.7173640
 151.2830420  68.2455020  56.0009140 150.0456140  68.9352590  56.5346630
 148.9692840  77.3921700  56.2353490 148.5649840  76.6798950  55.7399390
 149.0555960  77.0474940  57.1241530 149.4374540  81.0789260  58.3992700
 149.1402830  80.4734730  57.7200480 150.3874360  81.1166570  58.2882060
 147.6821460  74.1664910  60.0152530 148.2336050  74.2760250  59.2405780
 148.1964970  74.5402510  60.7307760 148.5292970  80.8170950  65.0500500
 147.6321500  81.0410920  65.2973900 148.5545840  80.9405890  64.1011900
 147.3564190  77.6884270  63.6257870 147.2171960  78.5607070  63.9945270
 146.4745550  77.3457080  63.4805810 149.1544540  83.6305970  65.8343020
 149.1259970  84.0348920  64.9671450 148.9909510  82.7016330  65.6714620
 145.6697470  76.2866680  53.7360140 145.5495070  77.0128770  53.1241410
 145.3598360  75.5169590  53.2588050 143.3082840  79.4581820  59.5428780
 143.3863260  79.5930590  58.5984500 143.9224520  78.7497710  59.7356900
 144.5530470  81.1582010  55.9534960 144.1458550  81.2996600  55.0988560
 145.4443480  80.8742170  55.7506170 148.8252130  85.3727790  54.0657630
 148.6494610  84.4563330  53.8525430 147.9707870  85.7315080  54.3055430
 143.3642360  80.4995990  62.0823240 143.5273400  80.0301350  61.2642610
 143.8294810  79.9919550  62.7472080 148.1361130  69.6301750  57.1183810
 147.6929280  70.4111290  56.7868330 148.6946120  69.9531640  57.8254750
 152.4230940  72.4970270  62.7219130 151.9610310  72.7053290  63.5339070
 152.0209050  71.6829620  62.4189800 151.2519950  69.2512450  51.9989640
 150.6274130  69.2472320  52.7242950 151.1650070  68.3843410  51.6025610
 150.1737030  70.1749080  58.9773410 150.4709360  71.0811910  58.8965430
 150.7222590  69.6867860  58.3632980 147.9275350  74.7535320  54.8465060
 147.7016270  74.5372490  55.7511680 147.1467880  75.1863780  54.5011030
 150.3674560  75.6520900  65.5125330 150.2718160  74.7115630  65.3625730
 151.2106540  75.8735970  65.1173400 145.4985100  72.0634570  63.6659110
 145.1048490  72.9109780  63.8731890 144.8103500  71.4260940  63.8567750
 142.8002150  69.9863030  57.6989190 142.5115200  70.5565890  58.4114170
 143.5447910  69.5067480  58.0620420 142.9872380  73.9283150  48.9091910
 142.9047050  74.8713910  49.0506900 142.6355440  73.7858060  48.0304260
 150.7870510  72.6622180  57.9762260 150.7906570  72.2212130  57.1266800
 151.6821630  72.9839510  58.0834080 146.6372890  72.5448670  56.9356470
 146.2972940  73.0223900  57.6923520 145.8750210  72.0913790  56.5757570
 150.8490660  73.6634260  50.9669020 150.9703480  73.6220740  51.9154840
 150.4639170  74.5258410  50.8115750 149.8612160  75.9735400  50.3652320
 149.2929060  75.5253650  49.7388230 150.5701160  76.3328180  49.8317470
 144.9381340  79.8747420  64.2419050 144.5536130  79.2341090  64.8402010
 145.2493530  80.5783540  64.8113780 151.0878480  76.7223960  59.7227670
 151.4548610  76.2482530  60.4689010 150.8983540  77.5965530  60.0636010
 143.9518970  71.4667650  55.8521140 143.6665890  71.1023320  56.6899760
 143.8897830  70.7348110  55.2384280 148.8777850  75.7632600  62.0411880
 148.5734920  76.6424580  62.2662240 149.8324310  75.8232390  62.0769320
 147.4059640  79.9693590  52.6378730 146.6321900  79.4291210  52.4777450
 148.1354270  79.4500200  52.2996490 147.4497040  79.6373970  56.2757540
 147.9675710  78.8342230  56.2214430 146.9981060  79.5753110  57.1174370
 144.9341580  76.6035340  63.1883240 144.5756520  77.2689190  63.7756580
 144.6396140  75.7718890  63.5595860 148.1354700  77.0619580  66.0722790
 147.8354840  77.2076760  65.1750610 148.9065940  76.5024870  65.9796180
 151.3057230  80.9853780  54.3200760 151.9928360  81.5322990  54.7008350
 150.5189650  81.5294510  54.3550370 143.4449630  76.6026600  49.8117840
 144.3144480  76.8851400  50.0953760 142.9539950  77.4162470  49.6966650
 150.6084440  77.9899810  53.9326120 151.0647220  78.8005060  54.1586310
 150.2572650  77.6722950  54.7644610 146.5096220  68.3337460  54.4048640
 146.3810850  68.3255360  55.3533560 145.6858240  68.6720550  54.0539650
 143.8120880  85.8153980  50.3779470 144.1718520  86.4143320  49.7236740
 143.6713220  86.3613870  51.1514500 143.5090150  70.0928580  63.8655340
 142.7948670  70.2925500  64.4707950 143.9285190  69.3168150  64.2370140
 143.7962740  84.0808840  64.8521870 143.9053860  83.1403580  64.7117260
 143.1443300  84.3463590  64.2035600 151.7875330  82.3524730  66.2519990
 151.4672200  81.6333970  66.7965680 151.1133690  83.0279800  66.3256050
 149.8289500  83.1985180  51.1953140 149.8199600  83.9314870  50.5797650
 148.9087860  82.9516760  51.2880100 145.4296140  78.4200070  51.9399900
 144.8224090  79.1598970  51.9495200 145.9045490  78.5099430  51.1138100
 150.3374990  73.8193780  53.8402230 149.6291140  74.2880120  54.2815840
 150.6219470  73.1615790  54.4747420 151.9630920  75.2390480  61.8394760
 152.4616170  75.7136300  62.5046610 152.1053870  74.3154000  62.0464790
 151.4567210  85.7799740  54.5526000 151.7108710  85.7421130  53.6305370
 150.5079690  85.6533070  54.5454250 148.5410010  72.1278860  51.2152940
 149.3900540  72.5649010  51.1493130 148.1741280  72.4399120  52.0425000
 147.4401430  78.3811220  49.6888470 148.2064700  78.2692580  50.2513900
 147.5176120  77.6849190  49.0365240 146.1348190  75.8136290  50.3721360
 146.2151780  74.8663800  50.4838760 147.0267940  76.1443170  50.4782020
 146.9362900  85.9631680  57.4755900 147.6725380  85.4147140  57.7464470
 147.3203820  86.8287690  57.3361890 143.8208380  82.0305250  53.3497410
 142.8948160  82.2726390  53.3402820 144.2864810  82.8579510  53.2282160
 145.9421180  85.1477750  66.6641480 146.7433910  85.4689800  67.0776880
 145.4273000  84.7873330  67.3861390 150.0465210  85.1361990  49.2981470
 150.8393820  85.4250820  48.8463260 149.5269560  84.7054160  48.6193950
 143.6618990  77.6351210  65.6077530 144.1658010  77.0558490  66.1793760
 142.9226410  77.9191440  66.1453900 150.5642610  80.3565400  49.1623820
 150.4593250  79.7417750  49.8885200 150.3966830  79.8331290  48.3786830
 150.7156930  79.0422200  65.1413050 149.9502600  79.6107200  65.0567720
 150.8972890  78.7498410  64.2481280 145.6942070  75.7780800  66.5027600
 145.7347410  75.4794670  67.4112830 146.5487570  76.1788410  66.3435120
 149.4720460  78.3776350  51.6631110 149.8936880  78.2116220  52.5062500
 149.5971300  77.5676580  51.1686250 147.6347880  74.3572900  64.4702090
 147.1044340  73.8663850  63.8425430 148.3035950  74.7857100  63.9360020
 151.9848100  77.4013960  48.9108210 152.5053760  76.6862980  48.5449360
 152.6316500  78.0399830  49.2108720 148.1220180  71.3235270  64.5499380
 148.0277050  70.7056020  63.8250250 147.5417570  72.0501560  64.3229290
 150.8881620  69.8808510  61.5826770 150.4398920  69.9032770  60.7372320
 150.2546820  69.4827530  62.1797070 151.2941170  78.7762840  62.2039210
 151.7129280  79.6195570  62.0315450 150.3749800  78.9134880  61.9745990
 148.3679360  74.4509580  48.6089270 148.1668420  73.5876940  48.9702610
 148.1971410  74.3642940  47.6710870 149.1448590  85.0815850  63.3196940
 148.6069680  85.8061910  63.0005640 149.3982550  84.6046190  62.5294280
 150.3973840  73.0500370  64.8452870 150.9873530  72.7416220  65.5330690
 149.5794080  72.5780120  65.0012770 147.1662160  71.5510200  48.5967150
 147.4688060  71.5577630  47.6886300 147.9056750  71.2008060  49.0934810
 152.0010800  86.3167060  63.5783590 151.9269500  87.2202200  63.8855960
 151.0989640  85.9978960  63.5505660 150.3847090  70.4944820  49.5823350
 150.0369090  69.8168810  49.0025800 150.5859860  70.0334330  50.3966740
 146.1892290  80.8552620  49.4296950 146.6267160  81.3982290  50.0854530
 146.6740020  80.0299570  49.4393290 143.4038090  83.6441650  56.8817210
 143.7341100  82.7762710  56.6495850 143.8329090  83.8500170  57.7122170
 148.0000010  81.9750660  54.5419180 147.6995550  81.8515630  55.4423090
 147.8937500  81.1159250  54.1334910 143.8928300  84.5112240  59.6198840
 143.4559290  84.6913040  60.4522990 144.4605980  85.2686860  59.4780560
 143.7252730  77.0232470  55.9787720 143.0701570  76.7544110  55.3347420
 144.5630680  76.9136950  55.5289700 144.7628660  77.4085040  60.5191060
 145.1301700  77.3212440  61.3987080 144.1939480  76.6451590  60.4197920
 144.3144660  74.3194130  64.4249480 143.4200710  74.2860890  64.7643190
 144.8542210  74.5180920  65.1900730 142.9390810  74.2331400  51.9213050
 142.0354890  74.4961600  51.7464710 143.4231430  74.5042570  51.1413010
 145.4818020  73.2896940  49.8307430 146.1909720  72.8680160  49.3454710
 144.7657960  73.3572170  49.1990780 145.1292180  69.3436270  48.8710080
 145.8520310  69.8845210  49.1891300 145.4016700  69.0699690  47.9951620
 144.8184370  68.5942460  58.7732700 145.4660560  68.0439840  58.3327860
 145.2386210  68.8485610  59.5948510 144.5716370  68.7498130  61.5158020
 144.2231190  69.2061950  62.2816200 144.2404070  67.8555260  61.5980450
 146.1780740  81.9217730  65.6811210 146.1350370  81.5510640  66.5625670
 146.3091750  82.8595300  65.8213030 149.8786770  83.4777320  61.2820930
 149.6378130  83.7451880  60.3951450 150.8189410  83.6483050  61.3371790
 145.2437010  68.2774330  64.7908790 145.7920000  68.0962380  64.0274900
 145.3092320  67.4868440  65.3265100 146.0168770  84.8679980  62.8008990
 145.4229090  84.7364680  63.5399030 146.0092610  84.0318120  62.3351090
 145.6481000  82.2338360  61.7517030 144.9215060  81.6143650  61.6842980
 145.7090150  82.6278970  60.8815110 149.2526100  84.4483360  58.5366440
 149.7691120  83.8370720  58.0114700 149.9023480  84.9512140  59.0277450
 151.9921600  85.3391850  59.3635420 152.2799410  85.0846150  58.4868430
 152.5044820  84.7869210  59.9540990 143.9311000  85.5512750  54.9613790
 143.7633040  84.9183430  55.6595680 143.0645510  85.7572150  54.6107980
 144.5539020  69.3829530  52.4645650 145.3118380  69.4958410  51.8909680
 144.0916190  70.2198730  52.4189080 151.0952830  71.4968800  55.4547960
 150.2827340  71.1225690  55.1143840 151.5994470  70.7413880  55.7569150
 145.5373700  84.2445980  52.4063930 145.0121320  84.6254010  51.7025890
 145.4618280  84.8696750  53.1273640 146.9264170  69.9093580  51.0047620
 147.4556930  69.1223380  50.8755570 147.5592490  70.5884770  51.2383150
 149.1202010  69.6468720  54.0593010 148.4904750  68.9456030  54.2263140
 148.5807150  70.4072850  53.8426170 149.2457570  68.9252700  66.4945500
 148.9641840  69.4286300  65.7306320 149.6277270  68.1274450  66.1287630
 148.1366670  86.1928360  51.2813180 148.8685490  85.9087640  50.7337070
 148.3960340  85.9541640  52.1712560 147.2981460  82.3093090  51.2859510
 146.6690340  82.7778190  51.8345340 147.4129290  81.4642310  51.7205700
 146.9015050  78.4497580  40.1945740 146.0699930  78.1946290  40.5942250
 147.5096030  78.5208350  40.9303660 146.8816310  82.4837670  40.3903760
 147.1844350  81.5935410  40.2113980 147.6259900  83.0407890  40.1626010
 145.3107000  73.4099470  33.9788130 144.4223700  73.7515440  33.8768010
 145.5948190  73.2099790  33.0868960 143.2740010  76.0105120  39.8627830
 143.8456120  75.2427320  39.8631470 143.2741550  76.3093880  38.9534440
 144.5164880  71.4189480  41.6496760 144.3367720  70.5215230  41.9299520
 144.1144960  71.9661350  42.3243710 147.4868390  71.9930970  35.0126510
 147.5935140  72.8934700  35.3195270 146.5760750  71.9448940  34.7221160
 145.1351550  73.9149980  40.2579100 145.8161660  74.1788350  40.8766500
 144.8199600  73.0750850  40.5917110 149.3276120  74.9617340  39.3451690
 149.8354340  75.4598310  39.9856710 149.8589360  74.1852540  39.1691050
 147.6112220  69.6015900  43.6115110 147.6130660  70.1188290  42.8061010
 146.7816530  69.1246080  43.5885040 148.8615070  79.2411080  41.7888610
 148.5284450  79.8680000  42.4309680 149.0381750  79.7672960  41.0090280
 147.2927550  71.3125860  41.6185560 147.6344360  72.1567910  41.3239430
 146.3543360  71.4609600  41.7350900 148.0734170  81.2091880  43.6037790
 148.6908170  81.8842960  43.3222240 147.2127290  81.6179860  43.5125290
 143.3666510  80.3991740  32.4844640 142.9894490  80.8878840  31.7529540
 143.6239580  81.0717020  33.1151170 150.9755440  68.8008130  37.9430150
 151.2830420  68.2455020  37.2265650 150.0456140  68.9352590  37.7603140
 148.9692840  77.3921700  37.4610000 148.5649840  76.6798950  36.9655900
 149.0555960  77.0474940  38.3498040 149.4374540  81.0789260  39.6249210
 149.1402830  80.4734730  38.9456990 150.3874360  81.1166570  39.5138570
 147.6821460  74.1664910  41.2409040 148.2336050  74.2760250  40.4662290
 148.1964970  74.5402510  41.9564270 148.5292970  80.8170950  46.2757010
 147.6321500  81.0410920  46.5230410 148.5545840  80.9405890  45.3268410
 147.3564190  77.6884270  44.8514380 147.2171960  78.5607070  45.2201780
 146.4745550  77.3457080  44.7062320 149.1544540  83.6305970  47.0599530
 149.1259970  84.0348920  46.1927960 148.9909510  82.7016330  46.8971130
 145.6697470  76.2866680  34.9616650 145.5495070  77.0128770  34.3497920
 145.3598360  75.5169590  34.4844560 143.3082840  79.4581820  40.7685290
 143.3863260  79.5930590  39.8241010 143.9224520  78.7497710  40.9613410
 144.5530470  81.1582010  37.1791470 144.1458550  81.2996600  36.3245070
 145.4443480  80.8742170  36.9762680 148.8252130  85.3727790  35.2914140
 148.6494610  84.4563330  35.0781940 147.9707870  85.7315080  35.5311940
 143.3642360  80.4995990  43.3079750 143.5273400  80.0301350  42.4899120
 143.8294810  79.9919550  43.9728590 148.1361130  69.6301750  38.3440320
 147.6929280  70.4111290  38.0124840 148.6946120  69.9531640  39.0511260
 152.4230940  72.4970270  43.9475640 151.9610310  72.7053290  44.7595580
 152.0209050  71.6829620  43.6446310 151.2519950  69.2512450  33.2246150
 150.6274130  69.2472320  33.9499460 151.1650070  68.3843410  32.8282120
 150.1737030  70.1749080  40.2029920 150.4709360  71.0811910  40.1221940
 150.7222590  69.6867860  39.5889490 147.9275350  74.7535320  36.0721570
 147.7016270  74.5372490  36.9768190 147.1467880  75.1863780  35.7267540
 150.3674560  75.6520900  46.7381840 150.2718160  74.7115630  46.5882240
 151.2106540  75.8735970  46.3429910 145.4985100  72.0634570  44.8915620
 145.1048490  72.9109780  45.0988400 144.8103500  71.4260940  45.0824260
 142.8002150  69.9863030  38.9245700 142.5115200  70.5565890  39.6370680
 143.5447910  69.5067480  39.2876930 142.9872380  73.9283150  30.1348420
 142.9047050  74.8713910  30.2763410 142.6355440  73.7858060  29.2560770
 150.7870510  72.6622180  39.2018770 150.7906570  72.2212130  38.3523310
 151.6821630  72.9839510  39.3090590 146.6372890  72.5448670  38.1612980
 146.2972940  73.0223900  38.9180030 145.8750210  72.0913790  37.8014080
 150.8490660  73.6634260  32.1925530 150.9703480  73.6220740  33.1411350
 150.4639170  74.5258410  32.0372260 149.8612160  75.9735400  31.5908830
 149.2929060  75.5253650  30.9644740 150.5701160  76.3328180  31.0573980
 144.9381340  79.8747420  45.4675560 144.5536130  79.2341090  46.0658520
 145.2493530  80.5783540  46.0370290 151.0878480  76.7223960  40.9484180
 151.4548610  76.2482530  41.6945520 150.8983540  77.5965530  41.2892520
 143.9518970  71.4667650  37.0777650 143.6665890  71.1023320  37.9156270
 143.8897830  70.7348110  36.4640790 148.8777850  75.7632600  43.2668390
 148.5734920  76.6424580  43.4918750 149.8324310  75.8232390  43.3025830
 147.4059640  79.9693590  33.8635240 146.6321900  79.4291210  33.7033960
 148.1354270  79.4500200  33.5253000 147.4497040  79.6373970  37.5014050
 147.9675710  78.8342230  37.4470940 146.9981060  79.5753110  38.3430880
 144.9341580  76.6035340  44.4139750 144.5756520  77.2689190  45.0013090
 144.6396140  75.7718890  44.7852370 148.1354700  77.0619580  47.2979300
 147.8354840  77.2076760  46.4007120 148.9065940  76.5024870  47.2052690
 151.3057230  80.9853780  35.5457270 151.9928360  81.5322990  35.9264860
 150.5189650  81.5294510  35.5806880 143.4449630  76.6026600  31.0374350
 144.3144480  76.8851400  31.3210270 142.9539950  77.4162470  30.9223160
 150.6084440  77.9899810  35.1582630 151.0647220  78.8005060  35.3842820
 150.2572650  77.6722950  35.9901120 146.5096220  68.3337460  35.6305150
 146.3810850  68.3255360  36.5790070 145.6858240  68.6720550  35.2796160
 143.8120880  85.8153980  31.6035980 144.1718520  86.4143320  30.9493250
 143.6713220  86.3613870  32.3771010 143.5090150  70.0928580  45.0911850
 142.7948670  70.2925500  45.6964460 143.9285190  69.3168150  45.4626650
 143.7962740  84.0808840  46.0778380 143.9053860  83.1403580  45.9373770
 143.1443300  84.3463590  45.4292110 151.7875330  82.3524730  47.4776500
 151.4672200  81.6333970  48.0222190 151.1133690  83.0279800  47.5512560
 149.8289500  83.1985180  32.4209650 149.8199600  83.9314870  31.8054160
 148.9087860  82.9516760  32.5136610 145.4296140  78.4200070  33.1656410
 144.8224090  79.1598970  33.1751710 145.9045490  78.5099430  32.3394610
 150.3374990  73.8193780  35.0658740 149.6291140  74.2880120  35.5072350
 150.6219470  73.1615790  35.7003930 151.9630920  75.2390480  43.0651270
 152.4616170  75.7136300  43.7303120 152.1053870  74.3154000  43.2721300
 151.4567210  85.7799740  35.7782510 151.7108710  85.7421130  34.8561880
 150.5079690  85.6533070  35.7710760 148.5410010  72.1278860  32.4409450
 149.3900540  72.5649010  32.3749640 148.1741280  72.4399120  33.2681510
 147.4401430  78.3811220  30.9144980 148.2064700  78.2692580  31.4770410
 147.5176120  77.6849190  30.2621750 146.1348190  75.8136290  31.5977870
 146.2151780  74.8663800  31.7095270 147.0267940  76.1443170  31.7038530
 146.9362900  85.9631680  38.7012410 147.6725380  85.4147140  38.9720980
 147.3203820  86.8287690  38.5618400 143.8208380  82.0305250  34.5753920
 142.8948160  82.2726390  34.5659330 144.2864810  82.8579510  34.4538670
 145.9421180  85.1477750  47.8897990 146.7433910  85.4689800  48.3033390
 145.4273000  84.7873330  48.6117900 150.0465210  85.1361990  30.5237980
 150.8393820  85.4250820  30.0719770 149.5269560  84.7054160  29.8450460
 143.6618990  77.6351210  46.8334040 144.1658010  77.0558490  47.4050270
 142.9226410  77.9191440  47.3710410 150.5642610  80.3565400  30.3880330
 150.4593250  79.7417750  31.1141710 150.3966830  79.8331290  29.6043340
 150.7156930  79.0422200  46.3669560 149.9502600  79.6107200  46.2824230
 150.8972890  78.7498410  45.4737790 145.6942070  75.7780800  47.7284110
 145.7347410  75.4794670  48.6369340 146.5487570  76.1788410  47.5691630
 149.4720460  78.3776350  32.8887620 149.8936880  78.2116220  33.7319010
 149.5971300  77.5676580  32.3942760 147.6347880  74.3572900  45.6958600
 147.1044340  73.8663850  45.0681940 148.3035950  74.7857100  45.1616530
 151.9848100  77.4013960  30.1364720 152.5053760  76.6862980  29.7705870
 152.6316500  78.0399830  30.4365230 148.1220180  71.3235270  45.7755890
 148.0277050  70.7056020  45.0506760 147.5417570  72.0501560  45.5485800
 150.8881620  69.8808510  42.8083280 150.4398920  69.9032770  41.9628830
 150.2546820  69.4827530  43.4053580 151.2941170  78.7762840  43.4295720
 151.7129280  79.6195570  43.2571960 150.3749800  78.9134880  43.2002500
 148.3679360  74.4509580  29.8345780 148.1668420  73.5876940  30.1959120
 148.1971410  74.3642940  28.8967380 149.1448590  85.0815850  44.5453450
 148.6069680  85.8061910  44.2262150 149.3982550  84.6046190  43.7550790
 150.3973840  73.0500370  46.0709380 150.9873530  72.7416220  46.7587200
 149.5794080  72.5780120  46.2269280 147.1662160  71.5510200  29.8223660
 147.4688060  71.5577630  28.9142810 147.9056750  71.2008060  30.3191320
 152.0010800  86.3167060  44.8040100 151.9269500  87.2202200  45.1112470
 151.0989640  85.9978960  44.7762170 150.3847090  70.4944820  30.8079860
 150.0369090  69.8168810  30.2282310 150.5859860  70.0334330  31.6223250
 146.1892290  80.8552620  30.6553460 146.6267160  81.3982290  31.3111040
 146.6740020  80.0299570  30.6649800 143.4038090  83.6441650  38.1073720
 143.7341100  82.7762710  37.8752360 143.8329090  83.8500170  38.9378680
 148.0000010  81.9750660  35.7675690 147.6995550  81.8515630  36.6679600
 147.8937500  81.1159250  35.3591420 143.8928300  84.5112240  40.8455350
 143.4559290  84.6913040  41.6779500 144.4605980  85.2686860  40.7037070
 143.7252730  77.0232470  37.2044230 143.0701570  76.7544110  36.5603930
 144.5630680  76.9136950  36.7546210 144.7628660  77.4085040  41.7447570
 145.1301700  77.3212440  42.6243590 144.1939480  76.6451590  41.6454430
 144.3144660  74.3194130  45.6505990 143.4200710  74.2860890  45.9899700
 144.8542210  74.5180920  46.4157240 142.9390810  74.2331400  33.1469560
 142.0354890  74.4961600  32.9721220 143.4231430  74.5042570  32.3669520
 145.4818020  73.2896940  31.0563940 146.1909720  72.8680160  30.5711220
 144.7657960  73.3572170  30.4247290 145.1292180  69.3436270  30.0966590
 145.8520310  69.8845210  30.4147810 145.4016700  69.0699690  29.2208130
 144.8184370  68.5942460  39.9989210 145.4660560  68.0439840  39.5584370
 145.2386210  68.8485610  40.8205020 144.5716370  68.7498130  42.7414530
 144.2231190  69.2061950  43.5072710 144.2404070  67.8555260  42.8236960
 146.1780740  81.9217730  46.9067720 146.1350370  81.5510640  47.7882180
 146.3091750  82.8595300  47.0469540 149.8786770  83.4777320  42.5077440
 149.6378130  83.7451880  41.6207960 150.8189410  83.6483050  42.5628300
 145.2437010  68.2774330  46.0165300 145.7920000  68.0962380  45.2531410
 145.3092320  67.4868440  46.5521610 146.0168770  84.8679980  44.0265500
 145.4229090  84.7364680  44.7655540 146.0092610  84.0318120  43.5607600
 145.6481000  82.2338360  42.9773540 144.9215060  81.6143650  42.9099490
 145.7090150  82.6278970  42.1071620 149.2526100  84.4483360  39.7622950
 149.7691120  83.8370720  39.2371210 149.9023480  84.9512140  40.2533960
 151.9921600  85.3391850  40.5891930 152.2799410  85.0846150  39.7124940
 152.5044820  84.7869210  41.1797500 143.9311000  85.5512750  36.1870300
 143.7633040  84.9183430  36.8852190 143.0645510  85.7572150  35.8364490
 144.5539020  69.3829530  33.6902160 145.3118380  69.4958410  33.1166190
 144.0916190  70.2198730  33.6445590 151.0952830  71.4968800  36.6804470
 150.2827340  71.1225690  36.3400350 151.5994470  70.7413880  36.9825660
 145.5373700  84.2445980  33.6320440 145.0121320  84.6254010  32.9282400
 145.4618280  84.8696750  34.3530150 146.9264170  69.9093580  32.2304130
 147.4556930  69.1223380  32.1012080 147.5592490  70.5884770  32.4639660
 149.1202010  69.6468720  35.2849520 148.4904750  68.9456030  35.4519650
 148.5807150  70.4072850  35.0682680 149.2457570  68.9252700  47.7202010
 148.9641840  69.4286300  46.9562830 149.6277270  68.1274450  47.3544140
 148.1366670  86.1928360  32.5069690 148.8685490  85.9087640  31.9593580
 148.3960340  85.9541640  33.3969070 147.2981460  82.3093090  32.5116020
 146.6690340  82.7778190  33.0601850 147.4129290  81.4642310  32.9462210
 146.9015050  78.4497580  21.4202250 146.0699930  78.1946290  21.8198760
 147.5096030  78.5208350  22.1560170 146.8816310  82.4837670  21.6160270
 147.1844350  81.5935410  21.4370490 147.6259900  83.0407890  21.3882520
 145.3107000  73.4099470  15.2044640 144.4223700  73.7515440  15.1024520
 145.5948190  73.2099790  14.3125470 143.2740010  76.0105120  21.0884340
 143.8456120  75.2427320  21.0887980 143.2741550  76.3093880  20.1790950
 144.5164880  71.4189480  22.8753270 144.3367720  70.5215230  23.1556030
 144.1144960  71.9661350  23.5500220 147.4868390  71.9930970  16.2383020
 147.5935140  72.8934700  16.5451780 146.5760750  71.9448940  15.9477670
 145.1351550  73.9149980  21.4835610 145.8161660  74.1788350  22.1023010
 144.8199600  73.0750850  21.8173620 149.3276120  74.9617340  20.5708200
 149.8354340  75.4598310  21.2113220 149.8589360  74.1852540  20.3947560
 147.6112220  69.6015900  24.8371620 147.6130660  70.1188290  24.0317520
 146.7816530  69.1246080  24.8141550 148.8615070  79.2411080  23.0145120
 148.5284450  79.8680000  23.6566190 149.0381750  79.7672960  22.2346790
 147.2927550  71.3125860  22.8442070 147.6344360  72.1567910  22.5495940
 146.3543360  71.4609600  22.9607410 148.0734170  81.2091880  24.8294300
 148.6908170  81.8842960  24.5478750 147.2127290  81.6179860  24.7381800
 143.3666510  80.3991740  13.7101150 142.9894490  80.8878840  12.9786050
 143.6239580  81.0717020  14.3407680 150.9755440  68.8008130  19.1686660
 151.2830420  68.2455020  18.4522160 150.0456140  68.9352590  18.9859650
 148.9692840  77.3921700  18.6866510 148.5649840  76.6798950  18.1912410
 149.0555960  77.0474940  19.5754550 149.4374540  81.0789260  20.8505720
 149.1402830  80.4734730  20.1713500 150.3874360  81.1166570  20.7395080
 147.6821460  74.1664910  22.4665550 148.2336050  74.2760250  21.6918800
 148.1964970  74.5402510  23.1820780 148.5292970  80.8170950  27.5013520
 147.6321500  81.0410920  27.7486920 148.5545840  80.9405890  26.5524920
 147.3564190  77.6884270  26.0770890 147.2171960  78.5607070  26.4458290
 146.4745550  77.3457080  25.9318830 149.1544540  83.6305970  28.2856040
 149.1259970  84.0348920  27.4184470 148.9909510  82.7016330  28.1227640
 145.6697470  76.2866680  16.1873160 145.5495070  77.0128770  15.5754430
 145.3598360  75.5169590  15.7101070 143.3082840  79.4581820  21.9941800
 143.3863260  79.5930590  21.0497520 143.9224520  78.7497710  22.1869920
 144.5530470  81.1582010  18.4047980 144.1458550  81.2996600  17.5501580
 145.4443480  80.8742170  18.2019190 148.8252130  85.3727790  16.5170650
 148.6494610  84.4563330  16.3038450 147.9707870  85.7315080  16.7568450
 143.3642360  80.4995990  24.5336260 143.5273400  80.0301350  23.7155630
 143.8294810  79.9919550  25.1985100 148.1361130  69.6301750  19.5696830
 147.6929280  70.4111290  19.2381350 148.6946120  69.9531640  20.2767770
 152.4230940  72.4970270  25.1732150 151.9610310  72.7053290  25.9852090
 152.0209050  71.6829620  24.8702820 151.2519950  69.2512450  14.4502660
 150.6274130  69.2472320  15.1755970 151.1650070  68.3843410  14.0538630
 150.1737030  70.1749080  21.4286430 150.4709360  71.0811910  21.3478450
 150.7222590  69.6867860  20.8146000 147.9275350  74.7535320  17.2978080
 147.7016270  74.5372490  18.2024700 147.1467880  75.1863780  16.9524050
 150.3674560  75.6520900  27.9638350 150.2718160  74.7115630  27.8138750
 151.2106540  75.8735970  27.5686420 145.4985100  72.0634570  26.1172130
 145.1048490  72.9109780  26.3244910 144.8103500  71.4260940  26.3080770
 142.8002150  69.9863030  20.1502210 142.5115200  70.5565890  20.8627190
 143.5447910  69.5067480  20.5133440 142.9872380  73.9283150  11.3604930
 142.9047050  74.8713910  11.5019920 142.6355440  73.7858060  10.4817280
 150.7870510  72.6622180  20.4275280 150.7906570  72.2212130  19.5779820
 151.6821630  72.9839510  20.5347100 146.6372890  72.5448670  19.3869490
 146.2972940  73.0223900  20.1436540 145.8750210  72.0913790  19.0270590
 150.8490660  73.6634260  13.4182040 150.9703480  73.6220740  14.3667860
 150.4639170  74.5258410  13.2628770 149.8612160  75.9735400  12.8165340
 149.2929060  75.5253650  12.1901250 150.5701160  76.3328180  12.2830490
 144.9381340  79.8747420  26.6932070 144.5536130  79.2341090  27.2915030
 145.2493530  80.5783540  27.2626800 151.0878480  76.7223960  22.1740690
 151.4548610  76.2482530  22.9202030 150.8983540  77.5965530  22.5149030
 143.9518970  71.4667650  18.3034160 143.6665890  71.1023320  19.1412780
 143.8897830  70.7348110  17.6897300 148.8777850  75.7632600  24.4924900
 148.5734920  76.6424580  24.7175260 149.8324310  75.8232390  24.5282340
 147.4059640  79.9693590  15.0891750 146.6321900  79.4291210  14.9290470
 148.1354270  79.4500200  14.7509510 147.4497040  79.6373970  18.7270560
 147.9675710  78.8342230  18.6727450 146.9981060  79.5753110  19.5687390
 144.9341580  76.6035340  25.6396260 144.5756520  77.2689190  26.2269600
 144.6396140  75.7718890  26.0108880 148.1354700  77.0619580  28.5235810
 147.8354840  77.2076760  27.6263630 148.9065940  76.5024870  28.4309200
 151.3057230  80.9853780  16.7713780 151.9928360  81.5322990  17.1521370
 150.5189650  81.5294510  16.8063390 143.4449630  76.6026600  12.2630860
 144.3144480  76.8851400  12.5466780 142.9539950  77.4162470  12.1479670
 150.6084440  77.9899810  16.3839140 151.0647220  78.8005060  16.6099330
 150.2572650  77.6722950  17.2157630 146.5096220  68.3337460  16.8561660
 146.3810850  68.3255360  17.8046580 145.6858240  68.6720550  16.5052670
 143.8120880  85.8153980  12.8292490 144.1718520  86.4143320  12.1749760
 143.6713220  86.3613870  13.6027520 143.5090150  70.0928580  26.3168360
 142.7948670  70.2925500  26.9220970 143.9285190  69.3168150  26.6883160
 143.7962740  84.0808840  27.3034890 143.9053860  83.1403580  27.1630280
 143.1443300  84.3463590  26.6548620 151.7875330  82.3524730  28.7033010
 151.4672200  81.6333970  29.2478700 151.1133690  83.0279800  28.7769070
 149.8289500  83.1985180  13.6466160 149.8199600  83.9314870  13.0310670
 148.9087860  82.9516760  13.7393120 145.4296140  78.4200070  14.3912920
 144.8224090  79.1598970  14.4008220 145.9045490  78.5099430  13.5651120
 150.3374990  73.8193780  16.2915250 149.6291140  74.2880120  16.7328860
 150.6219470  73.1615790  16.9260440 151.9630920  75.2390480  24.2907780
 152.4616170  75.7136300  24.9559630 152.1053870  74.3154000  24.4977810
 151.4567210  85.7799740  17.0039020 151.7108710  85.7421130  16.0818390
 150.5079690  85.6533070  16.9967270 148.5410010  72.1278860  13.6665960
 149.3900540  72.5649010  13.6006150 148.1741280  72.4399120  14.4938020
 147.4401430  78.3811220  12.1401490 148.2064700  78.2692580  12.7026920
 147.5176120  77.6849190  11.4878260 146.1348190  75.8136290  12.8234380
 146.2151780  74.8663800  12.9351780 147.0267940  76.1443170  12.9295040
 146.9362900  85.9631680  19.9268920 147.6725380  85.4147140  20.1977490
 147.3203820  86.8287690  19.7874910 143.8208380  82.0305250  15.8010430
 142.8948160  82.2726390  15.7915840 144.2864810  82.8579510  15.6795180
 145.9421180  85.1477750  29.1154500 146.7433910  85.4689800  29.5289900
 145.4273000  84.7873330  29.8374410 150.0465210  85.1361990  11.7494490
 150.8393820  85.4250820  11.2976280 149.5269560  84.7054160  11.0706970
 143.6618990  77.6351210  28.0590550 144.1658010  77.0558490  28.6306780
 142.9226410  77.9191440  28.5966920 150.5642610  80.3565400  11.6136840
 150.4593250  79.7417750  12.3398220 150.3966830  79.8331290  10.8299850
 150.7156930  79.0422200  27.5926070 149.9502600  79.6107200  27.5080740
 150.8972890  78.7498410  26.6994300 145.6942070  75.7780800  28.9540620
 145.7347410  75.4794670  29.8625850 146.5487570  76.1788410  28.7948140
 149.4720460  78.3776350  14.1144130 149.8936880  78.2116220  14.9575520
 149.5971300  77.5676580  13.6199270 147.6347880  74.3572900  26.9215110
 147.1044340  73.8663850  26.2938450 148.3035950  74.7857100  26.3873040
 151.9848100  77.4013960  11.3621230 152.5053760  76.6862980  10.9962380
 152.6316500  78.0399830  11.6621740 148.1220180  71.3235270  27.0012400
 148.0277050  70.7056020  26.2763270 147.5417570  72.0501560  26.7742310
 150.8881620  69.8808510  24.0339790 150.4398920  69.9032770  23.1885340
 150.2546820  69.4827530  24.6310090 151.2941170  78.7762840  24.6552230
 151.7129280  79.6195570  24.4828470 150.3749800  78.9134880  24.4259010
 148.3679360  74.4509580  11.0602290 148.1668420  73.5876940  11.4215630
 148.1971410  74.3642940  10.1223890 149.1448590  85.0815850  25.7709960
 148.6069680  85.8061910  25.4518660 149.3982550  84.6046190  24.9807300
 150.3973840  73.0500370  27.2965890 150.9873530  72.7416220  27.9843710
 149.5794080  72.5780120  27.4525790 147.1662160  71.5510200  11.0480170
 147.4688060  71.5577630  10.1399320 147.9056750  71.2008060  11.5447830
 152.0010800  86.3167060  26.0296610 151.9269500  87.2202200  26.3368980
 151.0989640  85.9978960  26.0018680 150.3847090  70.4944820  12.0336370
 150.0369090  69.8168810  11.4538820 150.5859860  70.0334330  12.8479760
 146.1892290  80.8552620  11.8809970 146.6267160  81.3982290  12.5367550
 146.6740020  80.0299570  11.8906310 143.4038090  83.6441650  19.3330230
 143.7341100  82.7762710  19.1008870 143.8329090  83.8500170  20.1635190
 148.0000010  81.9750660  16.9932200 147.6995550  81.8515630  17.8936110
 147.8937500  81.1159250  16.5847930 143.8928300  84.5112240  22.0711860
 143.4559290  84.6913040  22.9036010 144.4605980  85.2686860  21.9293580
 143.7252730  77.0232470  18.4300740 143.0701570  76.7544110  17.7860440
 144.5630680  76.9136950  17.9802720 144.7628660  77.4085040  22.9704080
 145.1301700  77.3212440  23.8500100 144.1939480  76.6451590  22.8710940
 144.3144660  74.3194130  26.8762500 143.4200710  74.2860890  27.2156210
 144.8542210  74.5180920  27.6413750 142.9390810  74.2331400  14.3726070
 142.0354890  74.4961600  14.1977730 143.4231430  74.5042570  13.5926030
 145.4818020  73.2896940  12.2820450 146.1909720  72.8680160  11.7967730
 144.7657960  73.3572170  11.6503800 145.1292180  69.3436270  11.3223100
 145.8520310  69.8845210  11.6404320 145.4016700  69.0699690  10.4464640
 144.8184370  68.5942460  21.2245720 145.4660560  68.0439840  20.7840880
 145.2386210  68.8485610  22.0461530 144.5716370  68.7498130  23.9671040
 144.2231190  69.2061950  24.7329220 144.2404070  67.8555260  24.0493470
 146.1780740  81.9217730  28.1324230 146.1350370  81.5510640  29.0138690
 146.3091750  82.8595300  28.2726050 149.8786770  83.4777320  23.7333950
 149.6378130  83.7451880  22.8464470 150.8189410  83.6483050  23.7884810
 145.2437010  68.2774330  27.2421810 145.7920000  68.0962380  26.4787920
 145.3092320  67.4868440  27.7778120 146.0168770  84.8679980  25.2522010
 145.4229090  84.7364680  25.9912050 146.0092610  84.0318120  24.7864110
 145.6481000  82.2338360  24.2030050 144.9215060  81.6143650  24.1356000
 145.7090150  82.6278970  23.3328130 149.2526100  84.4483360  20.9879460
 149.7691120  83.8370720  20.4627720 149.9023480  84.9512140  21.4790470
 151.9921600  85.3391850  21.8148440 152.2799410  85.0846150  20.9381450
 152.5044820  84.7869210  22.4054010 143.9311000  85.5512750  17.4126810
 143.7633040  84.9183430  18.1108700 143.0645510  85.7572150  17.0621000
 144.5539020  69.3829530  14.9158670 145.3118380  69.4958410  14.3422700
 144.0916190  70.2198730  14.8702100 151.0952830  71.4968800  17.9060980
 150.2827340  71.1225690  17.5656860 151.5994470  70.7413880  18.2082170
 145.5373700  84.2445980  14.8576950 145.0121320  84.6254010  14.1538910
 145.4618280  84.8696750  15.5786660 146.9264170  69.9093580  13.4560640
 147.4556930  69.1223380  13.3268590 147.5592490  70.5884770  13.6896170
 149.1202010  69.6468720  16.5106030 148.4904750  68.9456030  16.6776160
 148.5807150  70.4072850  16.2939190 149.2457570  68.9252700  28.9458520
 148.9641840  69.4286300  28.1819340 149.6277270  68.1274450  28.5800650
 148.1366670  86.1928360  13.7326200 148.8685490  85.9087640  13.1850090
 148.3960340  85.9541640  14.6225580 147.2981460  82.3093090  13.7372530
 146.6690340  82.7778190  14.2858360 147.4129290  81.4642310  14.1718720
 146.9015050  78.4497580   2.6458760 146.0699930  78.1946290   3.0455270
 147.5096030  78.5208350   3.3816680 146.8816310  82.4837670   2.8416780
 147.1844350  81.5935410   2.6627000 147.6259900  83.0407890   2.6139030
 144.5164880  71.4189480   4.1009780 144.3367720  70.5215230   4.3812540
 144.1144960  71.9661350   4.7756730 145.1351550  73.9149980   2.7092120
 145.8161660  74.1788350   3.3279520 144.8199600  73.0750850   3.0430130
 149.3276120  74.9617340   1.7964710 149.8354340  75.4598310   2.4369730
 149.8589360  74.1852540   1.6204070 147.6112220  69.6015900   6.0628130
 147.6130660  70.1188290   5.2574030 146.7816530  69.1246080   6.0398060
 148.8615070  79.2411080   4.2401630 148.5284450  79.8680000   4.8822700
 149.0381750  79.7672960   3.4603300 147.2927550  71.3125860   4.0698580
 147.6344360  72.1567910   3.7752450 146.3543360  71.4609600   4.1863920
 148.0734170  81.2091880   6.0550810 148.6908170  81.8842960   5.7735260
 147.2127290  81.6179860   5.9638310 147.6821460  74.1664910   3.6922060
 148.2336050  74.2760250   2.9175310 148.1964970  74.5402510   4.4077290
 148.5292970  80.8170950   8.7270030 147.6321500  81.0410920   8.9743430
 148.5545840  80.9405890   7.7781430 147.3564190  77.6884270   7.3027400
 147.2171960  78.5607070   7.6714800 146.4745550  77.3457080   7.1575340
 149.1544540  83.6305970   9.5112550 149.1259970  84.0348920   8.6440980
 148.9909510  82.7016330   9.3484150 143.3082840  79.4581820   3.2198310
 143.3863260  79.5930590   2.2754030 143.9224520  78.7497710   3.4126430
 143.3642360  80.4995990   5.7592770 143.5273400  80.0301350   4.9412140
 143.8294810  79.9919550   6.4241610 152.4230940  72.4970270   6.3988660
 151.9610310  72.7053290   7.2108600 152.0209050  71.6829620   6.0959330
 150.1737030  70.1749080   2.6542940 150.4709360  71.0811910   2.5734960
 150.7222590  69.6867860   2.0402510 150.3674560  75.6520900   9.1894860
 150.2718160  74.7115630   9.0395260 151.2106540  75.8735970   8.7942930
 145.4985100  72.0634570   7.3428640 145.1048490  72.9109780   7.5501420
 144.8103500  71.4260940   7.5337280 144.9381340  79.8747420   7.9188580
 144.5536130  79.2341090   8.5171540 145.2493530  80.5783540   8.4883310
 151.0878480  76.7223960   3.3997200 151.4548610  76.2482530   4.1458540
 150.8983540  77.5965530   3.7405540 148.8777850  75.7632600   5.7181410
 148.5734920  76.6424580   5.9431770 149.8324310  75.8232390   5.7538850
 144.9341580  76.6035340   6.8652770 144.5756520  77.2689190   7.4526110
 144.6396140  75.7718890   7.2365390 148.1354700  77.0619580   9.7492320
 147.8354840  77.2076760   8.8520140 148.9065940  76.5024870   9.6565710
 143.5090150  70.0928580   7.5424870 142.7948670  70.2925500   8.1477480
 143.9285190  69.3168150   7.9139670 143.7962740  84.0808840   8.5291400
 143.9053860  83.1403580   8.3886790 143.1443300  84.3463590   7.8805130
 151.7875330  82.3524730   9.9289520 151.4672200  81.6333970  10.4735210
 151.1133690  83.0279800  10.0025580 151.9630920  75.2390480   5.5164290
 152.4616170  75.7136300   6.1816140 152.1053870  74.3154000   5.7234320
 145.9421180  85.1477750  10.3411010 146.7433910  85.4689800  10.7546410
 145.4273000  84.7873330  11.0630920 143.6618990  77.6351210   9.2847060
 144.1658010  77.0558490   9.8563290 142.9226410  77.9191440   9.8223430
 150.7156930  79.0422200   8.8182580 149.9502600  79.6107200   8.7337250
 150.8972890  78.7498410   7.9250810 145.6942070  75.7780800  10.1797130
 145.7347410  75.4794670  11.0882360 146.5487570  76.1788410  10.0204650
 147.6347880  74.3572900   8.1471620 147.1044340  73.8663850   7.5194960
 148.3035950  74.7857100   7.6129550 148.1220180  71.3235270   8.2268910
 148.0277050  70.7056020   7.5019780 147.5417570  72.0501560   7.9998820
 150.8881620  69.8808510   5.2596300 150.4398920  69.9032770   4.4141850
 150.2546820  69.4827530   5.8566600 151.2941170  78.7762840   5.8808740
 151.7129280  79.6195570   5.7084980 150.3749800  78.9134880   5.6515520
 149.1448590  85.0815850   6.9966470 148.6069680  85.8061910   6.6775170
 149.3982550  84.6046190   6.2063810 150.3973840  73.0500370   8.5222400
 150.9873530  72.7416220   9.2100220 149.5794080  72.5780120   8.6782300
 152.0010800  86.3167060   7.2553120 151.9269500  87.2202200   7.5625490
 151.0989640  85.9978960   7.2275190 143.8928300  84.5112240   3.2968370
 143.4559290  84.6913040   4.1292520 144.4605980  85.2686860   3.1550090
 144.7628660  77.4085040   4.1960590 145.1301700  77.3212440   5.0756610
 144.1939480  76.6451590   4.0967450 144.3144660  74.3194130   8.1019010
 143.4200710  74.2860890   8.4412720 144.8542210  74.5180920   8.8670260
 144.8184370  68.5942460   2.4502230 145.4660560  68.0439840   2.0097390
 145.2386210  68.8485610   3.2718040 144.5716370  68.7498130   5.1927550
 144.2231190  69.2061950   5.9585730 144.2404070  67.8555260   5.2749980
 146.1780740  81.9217730   9.3580740 146.1350370  81.5510640  10.2395200
 146.3091750  82.8595300   9.4982560 149.8786770  83.4777320   4.9590460
 149.6378130  83.7451880   4.0720980 150.8189410  83.6483050   5.0141320
 145.2437010  68.2774330   8.4678320 145.7920000  68.0962380   7.7044430
 145.3092320  67.4868440   9.0034630 146.0168770  84.8679980   6.4778520
 145.4229090  84.7364680   7.2168560 146.0092610  84.0318120   6.0120620
 145.6481000  82.2338360   5.4286560 144.9215060  81.6143650   5.3612510
 145.7090150  82.6278970   4.5584640 149.2526100  84.4483360   2.2135970
 149.7691120  83.8370720   1.6884230 149.9023480  84.9512140   2.7046980
 151.9921600  85.3391850   3.0404950 152.2799410  85.0846150   2.1637960
 152.5044820  84.7869210   3.6310520 149.2457570  68.9252700  10.1715030
 148.9641840  69.4286300   9.4075850 149.6277270  68.1274450   9.8057160
 145.3107000  54.6355980 146.6249070 144.4223700  54.9771950 146.5228950
 145.5948190  54.4356300 145.7329900 147.4868390  53.2187480 147.6587450
 147.5935140  54.1191210 147.9656210 146.5760750  53.1705450 147.3682100
 143.3666510  61.6248250 145.1305580 142.9894490  62.1135350 144.3990480
 143.6239580  62.2973530 145.7612110 150.9755440  50.0264640 150.5891090
 151.2830420  49.4711530 149.8726590 150.0456140  50.1609100 150.4064080
 148.9692840  58.6178210 150.1070940 148.5649840  57.9055460 149.6116840
 149.0555960  58.2731450 150.9958980 145.6697470  57.5123190 147.6077590
 145.5495070  58.2385280 146.9958860 145.3598360  56.7426100 147.1305500
 144.5530470  62.3838520 149.8252410 144.1458550  62.5253110 148.9706010
 145.4443480  62.0998680 149.6223620 148.8252130  66.5984300 147.9375080
 148.6494610  65.6819840 147.7242880 147.9707870  66.9571590 148.1772880
 148.1361130  50.8558260 150.9901260 147.6929280  51.6367800 150.6585780
 148.6946120  51.1788150 151.6972200 151.2519950  50.4768960 145.8707090
 150.6274130  50.4728830 146.5960400 151.1650070  49.6099920 145.4743060
 147.9275350  55.9791830 148.7182510 147.7016270  55.7629000 149.6229130
 147.1467880  56.4120290 148.3728480 142.9872380  55.1539660 142.7809360
 142.9047050  56.0970420 142.9224350 142.6355440  55.0114570 141.9021710
 146.6372890  53.7705180 150.8073920 146.2972940  54.2480410 151.5640970
 145.8750210  53.3170300 150.4475020 150.8490660  54.8890770 144.8386470
 150.9703480  54.8477250 145.7872290 150.4639170  55.7514920 144.6833200
 149.8612160  57.1991910 144.2369770 149.2929060  56.7510160 143.6105680
 150.5701160  57.5584690 143.7034920 143.9518970  52.6924160 149.7238590
 143.6665890  52.3279830 150.5617210 143.8897830  51.9604620 149.1101730
 147.4059640  61.1950100 146.5096180 146.6321900  60.6547720 146.3494900
 148.1354270  60.6756710 146.1713940 147.4497040  60.8630480 150.1474990
 147.9675710  60.0598740 150.0931880 146.9981060  60.8009620 150.9891820
 151.3057230  62.2110290 148.1918210 151.9928360  62.7579500 148.5725800
 150.5189650  62.7551020 148.2267820 143.4449630  57.8283110 143.6835290
 144.3144480  58.1107910 143.9671210 142.9539950  58.6418980 143.5684100
 150.6084440  59.2156320 147.8043570 151.0647220  60.0261570 148.0303760
 150.2572650  58.8979460 148.6362060 146.5096220  49.5593970 148.2766090
 146.3810850  49.5511870 149.2251010 145.6858240  49.8977060 147.9257100
 143.8120880  67.0410490 144.2496920 144.1718520  67.6399830 143.5954190
 143.6713220  67.5870380 145.0231950 149.8289500  64.4241690 145.0670590
 149.8199600  65.1571380 144.4515100 148.9087860  64.1773270 145.1597550
 145.4296140  59.6456580 145.8117350 144.8224090  60.3855480 145.8212650
 145.9045490  59.7355940 144.9855550 150.3374990  55.0450290 147.7119680
 149.6291140  55.5136630 148.1533290 150.6219470  54.3872300 148.3464870
 151.4567210  67.0056250 148.4243450 151.7108710  66.9677640 147.5022820
 150.5079690  66.8789580 148.4171700 148.5410010  53.3535370 145.0870390
 149.3900540  53.7905520 145.0210580 148.1741280  53.6655630 145.9142450
 147.4401430  59.6067730 143.5605920 148.2064700  59.4949090 144.1231350
 147.5176120  58.9105700 142.9082690 146.1348190  57.0392800 144.2438810
 146.2151780  56.0920310 144.3556210 147.0267940  57.3699680 144.3499470
 146.9362900  67.1888190 151.3473350 147.6725380  66.6403650 151.6181920
 147.3203820  68.0544200 151.2079340 143.8208380  63.2561760 147.2214860
 142.8948160  63.4982900 147.2120270 144.2864810  64.0836020 147.0999610
 150.0465210  66.3618500 143.1698920 150.8393820  66.6507330 142.7180710
 149.5269560  65.9310670 142.4911400 150.5642610  61.5821910 143.0341270
 150.4593250  60.9674260 143.7602650 150.3966830  61.0587800 142.2504280
 149.4720460  59.6032860 145.5348560 149.8936880  59.4372730 146.3779950
 149.5971300  58.7933090 145.0403700 151.9848100  58.6270470 142.7825660
 152.5053760  57.9119490 142.4166810 152.6316500  59.2656340 143.0826170
 148.3679360  55.6766090 142.4806720 148.1668420  54.8133450 142.8420060
 148.1971410  55.5899450 141.5428320 147.1662160  52.7766710 142.4684600
 147.4688060  52.7834140 141.5603750 147.9056750  52.4264570 142.9652260
 150.3847090  51.7201330 143.4540800 150.0369090  51.0425320 142.8743250
 150.5859860  51.2590840 144.2684190 146.1892290  62.0809130 143.3014400
 146.6267160  62.6238800 143.9571980 146.6740020  61.2556080 143.3110740
 143.4038090  64.8698160 150.7534660 143.7341100  64.0019220 150.5213300
 143.8329090  65.0756680 151.5839620 148.0000010  63.2007170 148.4136630
 147.6995550  63.0772140 149.3140540 147.8937500  62.3415760 148.0052360
 143.7252730  58.2488980 149.8505170 143.0701570  57.9800620 149.2064870
 144.5630680  58.1393460 149.4007150 142.9390810  55.4587910 145.7930500
 142.0354890  55.7218110 145.6182160 143.4231430  55.7299080 145.0130460
 145.4818020  54.5153450 143.7024880 146.1909720  54.0936670 143.2172160
 144.7657960  54.5828680 143.0708230 145.1292180  50.5692780 142.7427530
 145.8520310  51.1101720 143.0608750 145.4016700  50.2956200 141.8669070
 143.9311000  66.7769260 148.8331240 143.7633040  66.1439940 149.5313130
 143.0645510  66.9828660 148.4825430 144.5539020  50.6086040 146.3363100
 145.3118380  50.7214920 145.7627130 144.0916190  51.4455240 146.2906530
 151.0952830  52.7225310 149.3265410 150.2827340  52.3482200 148.9861290
 151.5994470  51.9670390 149.6286600 145.5373700  65.4702490 146.2781380
 145.0121320  65.8510520 145.5743340 145.4618280  66.0953260 146.9991090
 146.9264170  51.1350090 144.8765070 147.4556930  50.3479890 144.7473020
 147.5592490  51.8141280 145.1100600 149.1202010  50.8725230 147.9310460
 148.4904750  50.1712540 148.0980590 148.5807150  51.6329360 147.7143620
 148.1366670  67.4184870 145.1530630 148.8685490  67.1344150 144.6054520
 148.3960340  67.1798150 146.0430010 147.2981460  63.5349600 145.1576960
 146.6690340  64.0034700 145.7062790 147.4129290  62.6898820 145.5923150
 146.9015050  59.6754090 134.0663190 146.0699930  59.4202800 134.4659700
 147.5096030  59.7464860 134.8021110 146.8816310  63.7094180 134.2621210
 147.1844350  62.8191920 134.0831430 147.6259900  64.2664400 134.0343460
 145.3107000  54.6355980 127.8505580 144.4223700  54.9771950 127.7485460
 145.5948190  54.4356300 126.9586410 143.2740010  57.2361630 133.7345280
 143.8456120  56.4683830 133.7348920 143.2741550  57.5350390 132.8251890
 144.5164880  52.6445990 135.5214210 144.3367720  51.7471740 135.8016970
 144.1144960  53.1917860 136.1961160 147.4868390  53.2187480 128.8843960
 147.5935140  54.1191210 129.1912720 146.5760750  53.1705450 128.5938610
 145.1351550  55.1406490 134.1296550 145.8161660  55.4044860 134.7483950
 144.8199600  54.3007360 134.4634560 149.3276120  56.1873850 133.2169140
 149.8354340  56.6854820 133.8574160 149.8589360  55.4109050 133.0408500
 147.6112220  50.8272410 137.4832560 147.6130660  51.3444800 136.6778460
 146.7816530  50.3502590 137.4602490 148.8615070  60.4667590 135.6606060
 148.5284450  61.0936510 136.3027130 149.0381750  60.9929470 134.8807730
 147.2927550  52.5382370 135.4903010 147.6344360  53.3824420 135.1956880
 146.3543360  52.6866110 135.6068350 148.0734170  62.4348390 137.4755240
 148.6908170  63.1099470 137.1939690 147.2127290  62.8436370 137.3842740
 143.3666510  61.6248250 126.3562090 142.9894490  62.1135350 125.6246990
 143.6239580  62.2973530 126.9868620 150.9755440  50.0264640 131.8147600
 151.2830420  49.4711530 131.0983100 150.0456140  50.1609100 131.6320590
 148.9692840  58.6178210 131.3327450 148.5649840  57.9055460 130.8373350
 149.0555960  58.2731450 132.2215490 149.4374540  62.3045770 133.4966660
 149.1402830  61.6991240 132.8174440 150.3874360  62.3423080 133.3856020
 147.6821460  55.3921420 135.1126490 148.2336050  55.5016760 134.3379740
 148.1964970  55.7659020 135.8281720 148.5292970  62.0427460 140.1474460
 147.6321500  62.2667430 140.3947860 148.5545840  62.1662400 139.1985860
 147.3564190  58.9140780 138.7231830 147.2171960  59.7863580 139.0919230
 146.4745550  58.5713590 138.5779770 149.1544540  64.8562480 140.9316980
 149.1259970  65.2605430 140.0645410 148.9909510  63.9272840 140.7688580
 145.6697470  57.5123190 128.8334100 145.5495070  58.2385280 128.2215370
 145.3598360  56.7426100 128.3562010 143.3082840  60.6838330 134.6402740
 143.3863260  60.8187100 133.6958460 143.9224520  59.9754220 134.8330860
 144.5530470  62.3838520 131.0508920 144.1458550  62.5253110 130.1962520
 145.4443480  62.0998680 130.8480130 148.8252130  66.5984300 129.1631590
 148.6494610  65.6819840 128.9499390 147.9707870  66.9571590 129.4029390
 143.3642360  61.7252500 137.1797200 143.5273400  61.2557860 136.3616570
 143.8294810  61.2176060 137.8446040 148.1361130  50.8558260 132.2157770
 147.6929280  51.6367800 131.8842290 148.6946120  51.1788150 132.9228710
 152.4230940  53.7226780 137.8193090 151.9610310  53.9309800 138.6313030
 152.0209050  52.9086130 137.5163760 151.2519950  50.4768960 127.0963600
 150.6274130  50.4728830 127.8216910 151.1650070  49.6099920 126.6999570
 150.1737030  51.4005590 134.0747370 150.4709360  52.3068420 133.9939390
 150.7222590  50.9124370 133.4606940 147.9275350  55.9791830 129.9439020
 147.7016270  55.7629000 130.8485640 147.1467880  56.4120290 129.5984990
 150.3674560  56.8777410 140.6099290 150.2718160  55.9372140 140.4599690
 151.2106540  57.0992480 140.2147360 145.4985100  53.2891080 138.7633070
 145.1048490  54.1366290 138.9705850 144.8103500  52.6517450 138.9541710
 142.8002150  51.2119540 132.7963150 142.5115200  51.7822400 133.5088130
 143.5447910  50.7323990 133.1594380 142.9872380  55.1539660 124.0065870
 142.9047050  56.0970420 124.1480860 142.6355440  55.0114570 123.1278220
 150.7870510  53.8878690 133.0736220 150.7906570  53.4468640 132.2240760
 151.6821630  54.2096020 133.1808040 146.6372890  53.7705180 132.0330430
 146.2972940  54.2480410 132.7897480 145.8750210  53.3170300 131.6731530
 150.8490660  54.8890770 126.0642980 150.9703480  54.8477250 127.0128800
 150.4639170  55.7514920 125.9089710 149.8612160  57.1991910 125.4626280
 149.2929060  56.7510160 124.8362190 150.5701160  57.5584690 124.9291430
 144.9381340  61.1003930 139.3393010 144.5536130  60.4597600 139.9375970
 145.2493530  61.8040050 139.9087740 151.0878480  57.9480470 134.8201630
 151.4548610  57.4739040 135.5662970 150.8983540  58.8222040 135.1609970
 143.9518970  52.6924160 130.9495100 143.6665890  52.3279830 131.7873720
 143.8897830  51.9604620 130.3358240 148.8777850  56.9889110 137.1385840
 148.5734920  57.8681090 137.3636200 149.8324310  57.0488900 137.1743280
 147.4059640  61.1950100 127.7352690 146.6321900  60.6547720 127.5751410
 148.1354270  60.6756710 127.3970450 147.4497040  60.8630480 131.3731500
 147.9675710  60.0598740 131.3188390 146.9981060  60.8009620 132.2148330
 144.9341580  57.8291850 138.2857200 144.5756520  58.4945700 138.8730540
 144.6396140  56.9975400 138.6569820 148.1354700  58.2876090 141.1696750
 147.8354840  58.4333270 140.2724570 148.9065940  57.7281380 141.0770140
 151.3057230  62.2110290 129.4174720 151.9928360  62.7579500 129.7982310
 150.5189650  62.7551020 129.4524330 143.4449630  57.8283110 124.9091800
 144.3144480  58.1107910 125.1927720 142.9539950  58.6418980 124.7940610
 150.6084440  59.2156320 129.0300080 151.0647220  60.0261570 129.2560270
 150.2572650  58.8979460 129.8618570 146.5096220  49.5593970 129.5022600
 146.3810850  49.5511870 130.4507520 145.6858240  49.8977060 129.1513610
 143.8120880  67.0410490 125.4753430 144.1718520  67.6399830 124.8210700
 143.6713220  67.5870380 126.2488460 143.5090150  51.3185090 138.9629300
 142.7948670  51.5182010 139.5681910 143.9285190  50.5424660 139.3344100
 143.7962740  65.3065350 139.9495830 143.9053860  64.3660090 139.8091220
 143.1443300  65.5720100 139.3009560 151.7875330  63.5781240 141.3493950
 151.4672200  62.8590480 141.8939640 151.1133690  64.2536310 141.4230010
 149.8289500  64.4241690 126.2927100 149.8199600  65.1571380 125.6771610
 148.9087860  64.1773270 126.3854060 145.4296140  59.6456580 127.0373860
 144.8224090  60.3855480 127.0469160 145.9045490  59.7355940 126.2112060
 150.3374990  55.0450290 128.9376190 149.6291140  55.5136630 129.3789800
 150.6219470  54.3872300 129.5721380 151.9630920  56.4646990 136.9368720
 152.4616170  56.9392810 137.6020570 152.1053870  55.5410510 137.1438750
 151.4567210  67.0056250 129.6499960 151.7108710  66.9677640 128.7279330
 150.5079690  66.8789580 129.6428210 148.5410010  53.3535370 126.3126900
 149.3900540  53.7905520 126.2467090 148.1741280  53.6655630 127.1398960
 147.4401430  59.6067730 124.7862430 148.2064700  59.4949090 125.3487860
 147.5176120  58.9105700 124.1339200 146.1348190  57.0392800 125.4695320
 146.2151780  56.0920310 125.5812720 147.0267940  57.3699680 125.5755980
 146.9362900  67.1888190 132.5729860 147.6725380  66.6403650 132.8438430
 147.3203820  68.0544200 132.4335850 143.8208380  63.2561760 128.4471370
 142.8948160  63.4982900 128.4376780 144.2864810  64.0836020 128.3256120
 145.9421180  66.3734260 141.7615440 146.7433910  66.6946310 142.1750840
 145.4273000  66.0129840 142.4835350 150.0465210  66.3618500 124.3955430
 150.8393820  66.6507330 123.9437220 149.5269560  65.9310670 123.7167910
 143.6618990  58.8607720 140.7051490 144.1658010  58.2815000 141.2767720
 142.9226410  59.1447950 141.2427860 150.5642610  61.5821910 124.2597780
 150.4593250  60.9674260 124.9859160 150.3966830  61.0587800 123.4760790
 150.7156930  60.2678710 140.2387010 149.9502600  60.8363710 140.1541680
 150.8972890  59.9754920 139.3455240 145.6942070  57.0037310 141.6001560
 145.7347410  56.7051180 142.5086790 146.5487570  57.4044920 141.4409080
 149.4720460  59.6032860 126.7605070 149.8936880  59.4372730 127.6036460
 149.5971300  58.7933090 126.2660210 147.6347880  55.5829410 139.5676050
 147.1044340  55.0920360 138.9399390 148.3035950  56.0113610 139.0333980
 151.9848100  58.6270470 124.0082170 152.5053760  57.9119490 123.6423320
 152.6316500  59.2656340 124.3082680 148.1220180  52.5491780 139.6473340
 148.0277050  51.9312530 138.9224210 147.5417570  53.2758070 139.4203250
 150.8881620  51.1065020 136.6800730 150.4398920  51.1289280 135.8346280
 150.2546820  50.7084040 137.2771030 151.2941170  60.0019350 137.3013170
 151.7129280  60.8452080 137.1289410 150.3749800  60.1391390 137.0719950
 148.3679360  55.6766090 123.7063230 148.1668420  54.8133450 124.0676570
 148.1971410  55.5899450 122.7684830 149.1448590  66.3072360 138.4170900
 148.6069680  67.0318420 138.0979600 149.3982550  65.8302700 137.6268240
 150.3973840  54.2756880 139.9426830 150.9873530  53.9672730 140.6304650
 149.5794080  53.8036630 140.0986730 147.1662160  52.7766710 123.6941110
 147.4688060  52.7834140 122.7860260 147.9056750  52.4264570 124.1908770
 152.0010800  67.5423570 138.6757550 151.9269500  68.4458710 138.9829920
 151.0989640  67.2235470 138.6479620 150.3847090  51.7201330 124.6797310
 150.0369090  51.0425320 124.0999760 150.5859860  51.2590840 125.4940700
 146.1892290  62.0809130 124.5270910 146.6267160  62.6238800 125.1828490
 146.6740020  61.2556080 124.5367250 143.4038090  64.8698160 131.9791170
 143.7341100  64.0019220 131.7469810 143.8329090  65.0756680 132.8096130
 148.0000010  63.2007170 129.6393140 147.6995550  63.0772140 130.5397050
 147.8937500  62.3415760 129.2308870 143.8928300  65.7368750 134.7172800
 143.4559290  65.9169550 135.5496950 144.4605980  66.4943370 134.5754520
 143.7252730  58.2488980 131.0761680 143.0701570  57.9800620 130.4321380
 144.5630680  58.1393460 130.6263660 144.7628660  58.6341550 135.6165020
 145.1301700  58.5468950 136.4961040 144.1939480  57.8708100 135.5171880
 144.3144660  55.5450640 139.5223440 143.4200710  55.5117400 139.8617150
 144.8542210  55.7437430 140.2874690 142.9390810  55.4587910 127.0187010
 142.0354890  55.7218110 126.8438670 143.4231430  55.7299080 126.2386970
 145.4818020  54.5153450 124.9281390 146.1909720  54.0936670 124.4428670
 144.7657960  54.5828680 124.2964740 145.1292180  50.5692780 123.9684040
 145.8520310  51.1101720 124.2865260 145.4016700  50.2956200 123.0925580
 144.8184370  49.8198970 133.8706660 145.4660560  49.2696350 133.4301820
 145.2386210  50.0742120 134.6922470 144.5716370  49.9754640 136.6131980
 144.2231190  50.4318460 137.3790160 144.2404070  49.0811770 136.6954410
 146.1780740  63.1474240 140.7785170 146.1350370  62.7767150 141.6599630
 146.3091750  64.0851810 140.9186990 149.8786770  64.7033830 136.3794890
 149.6378130  64.9708390 135.4925410 150.8189410  64.8739560 136.4345750
 145.2437010  49.5030840 139.8882750 145.7920000  49.3218890 139.1248860
 145.3092320  48.7124950 140.4239060 146.0168770  66.0936490 137.8982950
 145.4229090  65.9621190 138.6372990 146.0092610  65.2574630 137.4325050
 145.6481000  63.4594870 136.8490990 144.9215060  62.8400160 136.7816940
 145.7090150  63.8535480 135.9789070 149.2526100  65.6739870 133.6340400
 149.7691120  65.0627230 133.1088660 149.9023480  66.1768650 134.1251410
 151.9921600  66.5648360 134.4609380 152.2799410  66.3102660 133.5842390
 152.5044820  66.0125720 135.0514950 143.9311000  66.7769260 130.0587750
 143.7633040  66.1439940 130.7569640 143.0645510  66.9828660 129.7081940
 144.5539020  50.6086040 127.5619610 145.3118380  50.7214920 126.9883640
 144.0916190  51.4455240 127.5163040 151.0952830  52.7225310 130.5521920
 150.2827340  52.3482200 130.2117800 151.5994470  51.9670390 130.8543110
 145.5373700  65.4702490 127.5037890 145.0121320  65.8510520 126.7999850
 145.4618280  66.0953260 128.2247600 146.9264170  51.1350090 126.1021580
 147.4556930  50.3479890 125.9729530 147.5592490  51.8141280 126.3357110
 149.1202010  50.8725230 129.1566970 148.4904750  50.1712540 129.3237100
 148.5807150  51.6329360 128.9400130 149.2457570  50.1509210 141.5919460
 148.9641840  50.6542810 140.8280280 149.6277270  49.3530960 141.2261590
 148.1366670  67.4184870 126.3787140 148.8685490  67.1344150 125.8311030
 148.3960340  67.1798150 127.2686520 147.2981460  63.5349600 126.3833470
 146.6690340  64.0034700 126.9319300 147.4129290  62.6898820 126.8179660
 146.9015050  59.6754090 115.2919700 146.0699930  59.4202800 115.6916210
 147.5096030  59.7464860 116.0277620 146.8816310  63.7094180 115.4877720
 147.1844350  62.8191920 115.3087940 147.6259900  64.2664400 115.2599970
 145.3107000  54.6355980 109.0762090 144.4223700  54.9771950 108.9741970
 145.5948190  54.4356300 108.1842920 143.2740010  57.2361630 114.9601790
 143.8456120  56.4683830 114.9605430 143.2741550  57.5350390 114.0508400
 144.5164880  52.6445990 116.7470720 144.3367720  51.7471740 117.0273480
 144.1144960  53.1917860 117.4217670 147.4868390  53.2187480 110.1100470
 147.5935140  54.1191210 110.4169230 146.5760750  53.1705450 109.8195120
 145.1351550  55.1406490 115.3553060 145.8161660  55.4044860 115.9740460
 144.8199600  54.3007360 115.6891070 149.3276120  56.1873850 114.4425650
 149.8354340  56.6854820 115.0830670 149.8589360  55.4109050 114.2665010
 147.6112220  50.8272410 118.7089070 147.6130660  51.3444800 117.9034970
 146.7816530  50.3502590 118.6859000 148.8615070  60.4667590 116.8862570
 148.5284450  61.0936510 117.5283640 149.0381750  60.9929470 116.1064240
 147.2927550  52.5382370 116.7159520 147.6344360  53.3824420 116.4213390
 146.3543360  52.6866110 116.8324860 148.0734170  62.4348390 118.7011750
 148.6908170  63.1099470 118.4196200 147.2127290  62.8436370 118.6099250
 143.3666510  61.6248250 107.5818600 142.9894490  62.1135350 106.8503500
 143.6239580  62.2973530 108.2125130 150.9755440  50.0264640 113.0404110
 151.2830420  49.4711530 112.3239610 150.0456140  50.1609100 112.8577100
 148.9692840  58.6178210 112.5583960 148.5649840  57.9055460 112.0629860
 149.0555960  58.2731450 113.4472000 149.4374540  62.3045770 114.7223170
 149.1402830  61.6991240 114.0430950 150.3874360  62.3423080 114.6112530
 147.6821460  55.3921420 116.3383000 148.2336050  55.5016760 115.5636250
 148.1964970  55.7659020 117.0538230 148.5292970  62.0427460 121.3730970
 147.6321500  62.2667430 121.6204370 148.5545840  62.1662400 120.4242370
 147.3564190  58.9140780 119.9488340 147.2171960  59.7863580 120.3175740
 146.4745550  58.5713590 119.8036280 149.1544540  64.8562480 122.1573490
 149.1259970  65.2605430 121.2901920 148.9909510  63.9272840 121.9945090
 145.6697470  57.5123190 110.0590610 145.5495070  58.2385280 109.4471880
 145.3598360  56.7426100 109.5818520 143.3082840  60.6838330 115.8659250
 143.3863260  60.8187100 114.9214970 143.9224520  59.9754220 116.0587370
 144.5530470  62.3838520 112.2765430 144.1458550  62.5253110 111.4219030
 145.4443480  62.0998680 112.0736640 148.8252130  66.5984300 110.3888100
 148.6494610  65.6819840 110.1755900 147.9707870  66.9571590 110.6285900
 143.3642360  61.7252500 118.4053710 143.5273400  61.2557860 117.5873080
 143.8294810  61.2176060 119.0702550 148.1361130  50.8558260 113.4414280
 147.6929280  51.6367800 113.1098800 148.6946120  51.1788150 114.1485220
 152.4230940  53.7226780 119.0449600 151.9610310  53.9309800 119.8569540
 152.0209050  52.9086130 118.7420270 151.2519950  50.4768960 108.3220110
 150.6274130  50.4728830 109.0473420 151.1650070  49.6099920 107.9256080
 150.1737030  51.4005590 115.3003880 150.4709360  52.3068420 115.2195900
 150.7222590  50.9124370 114.6863450 147.9275350  55.9791830 111.1695530
 147.7016270  55.7629000 112.0742150 147.1467880  56.4120290 110.8241500
 150.3674560  56.8777410 121.8355800 150.2718160  55.9372140 121.6856200
 151.2106540  57.0992480 121.4403870 145.4985100  53.2891080 119.9889580
 145.1048490  54.1366290 120.1962360 144.8103500  52.6517450 120.1798220
 142.8002150  51.2119540 114.0219660 142.5115200  51.7822400 114.7344640
 143.5447910  50.7323990 114.3850890 142.9872380  55.1539660 105.2322380
 142.9047050  56.0970420 105.3737370 142.6355440  55.0114570 104.3534730
 150.7870510  53.8878690 114.2992730 150.7906570  53.4468640 113.4497270
 151.6821630  54.2096020 114.4064550 146.6372890  53.7705180 113.2586940
 146.2972940  54.2480410 114.0153990 145.8750210  53.3170300 112.8988040
 150.8490660  54.8890770 107.2899490 150.9703480  54.8477250 108.2385310
 150.4639170  55.7514920 107.1346220 149.8612160  57.1991910 106.6882790
 149.2929060  56.7510160 106.0618700 150.5701160  57.5584690 106.1547940
 144.9381340  61.1003930 120.5649520 144.5536130  60.4597600 121.1632480
 145.2493530  61.8040050 121.1344250 151.0878480  57.9480470 116.0458140
 151.4548610  57.4739040 116.7919480 150.8983540  58.8222040 116.3866480
 143.9518970  52.6924160 112.1751610 143.6665890  52.3279830 113.0130230
 143.8897830  51.9604620 111.5614750 148.8777850  56.9889110 118.3642350
 148.5734920  57.8681090 118.5892710 149.8324310  57.0488900 118.3999790
 147.4059640  61.1950100 108.9609200 146.6321900  60.6547720 108.8007920
 148.1354270  60.6756710 108.6226960 147.4497040  60.8630480 112.5988010
 147.9675710  60.0598740 112.5444900 146.9981060  60.8009620 113.4404840
 144.9341580  57.8291850 119.5113710 144.5756520  58.4945700 120.0987050
 144.6396140  56.9975400 119.8826330 148.1354700  58.2876090 122.3953260
 147.8354840  58.4333270 121.4981080 148.9065940  57.7281380 122.3026650
 151.3057230  62.2110290 110.6431230 151.9928360  62.7579500 111.0238820
 150.5189650  62.7551020 110.6780840 143.4449630  57.8283110 106.1348310
 144.3144480  58.1107910 106.4184230 142.9539950  58.6418980 106.0197120
 150.6084440  59.2156320 110.2556590 151.0647220  60.0261570 110.4816780
 150.2572650  58.8979460 111.0875080 146.5096220  49.5593970 110.7279110
 146.3810850  49.5511870 111.6764030 145.6858240  49.8977060 110.3770120
 143.8120880  67.0410490 106.7009940 144.1718520  67.6399830 106.0467210
 143.6713220  67.5870380 107.4744970 143.5090150  51.3185090 120.1885810
 142.7948670  51.5182010 120.7938420 143.9285190  50.5424660 120.5600610
 143.7962740  65.3065350 121.1752340 143.9053860  64.3660090 121.0347730
 143.1443300  65.5720100 120.5266070 151.7875330  63.5781240 122.5750460
 151.4672200  62.8590480 123.1196150 151.1133690  64.2536310 122.6486520
 149.8289500  64.4241690 107.5183610 149.8199600  65.1571380 106.9028120
 148.9087860  64.1773270 107.6110570 145.4296140  59.6456580 108.2630370
 144.8224090  60.3855480 108.2725670 145.9045490  59.7355940 107.4368570
 150.3374990  55.0450290 110.1632700 149.6291140  55.5136630 110.6046310
 150.6219470  54.3872300 110.7977890 151.9630920  56.4646990 118.1625230
 152.4616170  56.9392810 118.8277080 152.1053870  55.5410510 118.3695260
 151.4567210  67.0056250 110.8756470 151.7108710  66.9677640 109.9535840
 150.5079690  66.8789580 110.8684720 148.5410010  53.3535370 107.5383410
 149.3900540  53.7905520 107.4723600 148.1741280  53.6655630 108.3655470
 147.4401430  59.6067730 106.0118940 148.2064700  59.4949090 106.5744370
 147.5176120  58.9105700 105.3595710 146.1348190  57.0392800 106.6951830
 146.2151780  56.0920310 106.8069230 147.0267940  57.3699680 106.8012490
 146.9362900  67.1888190 113.7986370 147.6725380  66.6403650 114.0694940
 147.3203820  68.0544200 113.6592360 143.8208380  63.2561760 109.6727880
 142.8948160  63.4982900 109.6633290 144.2864810  64.0836020 109.5512630
 145.9421180  66.3734260 122.9871950 146.7433910  66.6946310 123.4007350
 145.4273000  66.0129840 123.7091860 150.0465210  66.3618500 105.6211940
 150.8393820  66.6507330 105.1693730 149.5269560  65.9310670 104.9424420
 143.6618990  58.8607720 121.9308000 144.1658010  58.2815000 122.5024230
 142.9226410  59.1447950 122.4684370 150.5642610  61.5821910 105.4854290
 150.4593250  60.9674260 106.2115670 150.3966830  61.0587800 104.7017300
 150.7156930  60.2678710 121.4643520 149.9502600  60.8363710 121.3798190
 150.8972890  59.9754920 120.5711750 145.6942070  57.0037310 122.8258070
 145.7347410  56.7051180 123.7343300 146.5487570  57.4044920 122.6665590
 149.4720460  59.6032860 107.9861580 149.8936880  59.4372730 108.8292970
 149.5971300  58.7933090 107.4916720 147.6347880  55.5829410 120.7932560
 147.1044340  55.0920360 120.1655900 148.3035950  56.0113610 120.2590490
 151.9848100  58.6270470 105.2338680 152.5053760  57.9119490 104.8679830
 152.6316500  59.2656340 105.5339190 148.1220180  52.5491780 120.8729850
 148.0277050  51.9312530 120.1480720 147.5417570  53.2758070 120.6459760
 150.8881620  51.1065020 117.9057240 150.4398920  51.1289280 117.0602790
 150.2546820  50.7084040 118.5027540 151.2941170  60.0019350 118.5269680
 151.7129280  60.8452080 118.3545920 150.3749800  60.1391390 118.2976460
 148.3679360  55.6766090 104.9319740 148.1668420  54.8133450 105.2933080
 148.1971410  55.5899450 103.9941340 149.1448590  66.3072360 119.6427410
 148.6069680  67.0318420 119.3236110 149.3982550  65.8302700 118.8524750
 150.3973840  54.2756880 121.1683340 150.9873530  53.9672730 121.8561160
 149.5794080  53.8036630 121.3243240 147.1662160  52.7766710 104.9197620
 147.4688060  52.7834140 104.0116770 147.9056750  52.4264570 105.4165280
 152.0010800  67.5423570 119.9014060 151.9269500  68.4458710 120.2086430
 151.0989640  67.2235470 119.8736130 150.3847090  51.7201330 105.9053820
 150.0369090  51.0425320 105.3256270 150.5859860  51.2590840 106.7197210
 146.1892290  62.0809130 105.7527420 146.6267160  62.6238800 106.4085000
 146.6740020  61.2556080 105.7623760 143.4038090  64.8698160 113.2047680
 143.7341100  64.0019220 112.9726320 143.8329090  65.0756680 114.0352640
 148.0000010  63.2007170 110.8649650 147.6995550  63.0772140 111.7653560
 147.8937500  62.3415760 110.4565380 143.8928300  65.7368750 115.9429310
 143.4559290  65.9169550 116.7753460 144.4605980  66.4943370 115.8011030
 143.7252730  58.2488980 112.3018190 143.0701570  57.9800620 111.6577890
 144.5630680  58.1393460 111.8520170 144.7628660  58.6341550 116.8421530
 145.1301700  58.5468950 117.7217550 144.1939480  57.8708100 116.7428390
 144.3144660  55.5450640 120.7479950 143.4200710  55.5117400 121.0873660
 144.8542210  55.7437430 121.5131200 142.9390810  55.4587910 108.2443520
 142.0354890  55.7218110 108.0695180 143.4231430  55.7299080 107.4643480
 145.4818020  54.5153450 106.1537900 146.1909720  54.0936670 105.6685180
 144.7657960  54.5828680 105.5221250 145.1292180  50.5692780 105.1940550
 145.8520310  51.1101720 105.5121770 145.4016700  50.2956200 104.3182090
 144.8184370  49.8198970 115.0963170 145.4660560  49.2696350 114.6558330
 145.2386210  50.0742120 115.9178980 144.5716370  49.9754640 117.8388490
 144.2231190  50.4318460 118.6046670 144.2404070  49.0811770 117.9210920
 146.1780740  63.1474240 122.0041680 146.1350370  62.7767150 122.8856140
 146.3091750  64.0851810 122.1443500 149.8786770  64.7033830 117.6051400
 149.6378130  64.9708390 116.7181920 150.8189410  64.8739560 117.6602260
 145.2437010  49.5030840 121.1139260 145.7920000  49.3218890 120.3505370
 145.3092320  48.7124950 121.6495570 146.0168770  66.0936490 119.1239460
 145.4229090  65.9621190 119.8629500 146.0092610  65.2574630 118.6581560
 145.6481000  63.4594870 118.0747500 144.9215060  62.8400160 118.0073450
 145.7090150  63.8535480 117.2045580 149.2526100  65.6739870 114.8596910
 149.7691120  65.0627230 114.3345170 149.9023480  66.1768650 115.3507920
 151.9921600  66.5648360 115.6865890 152.2799410  66.3102660 114.8098900
 152.5044820  66.0125720 116.2771460 143.9311000  66.7769260 111.2844260
 143.7633040  66.1439940 111.9826150 143.0645510  66.9828660 110.9338450
 144.5539020  50.6086040 108.7876120 145.3118380  50.7214920 108.2140150
 144.0916190  51.4455240 108.7419550 151.0952830  52.7225310 111.7778430
 150.2827340  52.3482200 111.4374310 151.5994470  51.9670390 112.0799620
 145.5373700  65.4702490 108.7294400 145.0121320  65.8510520 108.0256360
 145.4618280  66.0953260 109.4504110 146.9264170  51.1350090 107.3278090
 147.4556930  50.3479890 107.1986040 147.5592490  51.8141280 107.5613620
 149.1202010  50.8725230 110.3823480 148.4904750  50.1712540 110.5493610
 148.5807150  51.6329360 110.1656640 149.2457570  50.1509210 122.8175970
 148.9641840  50.6542810 122.0536790 149.6277270  49.3530960 122.4518100
 148.1366670  67.4184870 107.6043650 148.8685490  67.1344150 107.0567540
 148.3960340  67.1798150 108.4943030 147.2981460  63.5349600 107.6089980
 146.6690340  64.0034700 108.1575810 147.4129290  62.6898820 108.0436170
 146.9015050  59.6754090  96.5176210 146.0699930  59.4202800  96.9172720
 147.5096030  59.7464860  97.2534130 146.8816310  63.7094180  96.7134230
 147.1844350  62.8191920  96.5344450 147.6259900  64.2664400  96.4856480
 145.3107000  54.6355980  90.3018600 144.4223700  54.9771950  90.1998480
 145.5948190  54.4356300  89.4099430 143.2740010  57.2361630  96.1858300
 143.8456120  56.4683830  96.1861940 143.2741550  57.5350390  95.2764910
 144.5164880  52.6445990  97.9727230 144.3367720  51.7471740  98.2529990
 144.1144960  53.1917860  98.6474180 147.4868390  53.2187480  91.3356980
 147.5935140  54.1191210  91.6425740 146.5760750  53.1705450  91.0451630
 145.1351550  55.1406490  96.5809570 145.8161660  55.4044860  97.1996970
 144.8199600  54.3007360  96.9147580 149.3276120  56.1873850  95.6682160
 149.8354340  56.6854820  96.3087180 149.8589360  55.4109050  95.4921520
 147.6112220  50.8272410  99.9345580 147.6130660  51.3444800  99.1291480
 146.7816530  50.3502590  99.9115510 148.8615070  60.4667590  98.1119080
 148.5284450  61.0936510  98.7540150 149.0381750  60.9929470  97.3320750
 147.2927550  52.5382370  97.9416030 147.6344360  53.3824420  97.6469900
 146.3543360  52.6866110  98.0581370 148.0734170  62.4348390  99.9268260
 148.6908170  63.1099470  99.6452710 147.2127290  62.8436370  99.8355760
 143.3666510  61.6248250  88.8075110 142.9894490  62.1135350  88.0760010
 143.6239580  62.2973530  89.4381640 150.9755440  50.0264640  94.2660620
 151.2830420  49.4711530  93.5496120 150.0456140  50.1609100  94.0833610
 148.9692840  58.6178210  93.7840470 148.5649840  57.9055460  93.2886370
 149.0555960  58.2731450  94.6728510 149.4374540  62.3045770  95.9479680
 149.1402830  61.6991240  95.2687460 150.3874360  62.3423080  95.8369040
 147.6821460  55.3921420  97.5639510 148.2336050  55.5016760  96.7892760
 148.1964970  55.7659020  98.2794740 148.5292970  62.0427460 102.5987480
 147.6321500  62.2667430 102.8460880 148.5545840  62.1662400 101.6498880
 147.3564190  58.9140780 101.1744850 147.2171960  59.7863580 101.5432250
 146.4745550  58.5713590 101.0292790 149.1544540  64.8562480 103.3830000
 149.1259970  65.2605430 102.5158430 148.9909510  63.9272840 103.2201600
 145.6697470  57.5123190  91.2847120 145.5495070  58.2385280  90.6728390
 145.3598360  56.7426100  90.8075030 143.3082840  60.6838330  97.0915760
 143.3863260  60.8187100  96.1471480 143.9224520  59.9754220  97.2843880
 144.5530470  62.3838520  93.5021940 144.1458550  62.5253110  92.6475540
 145.4443480  62.0998680  93.2993150 148.8252130  66.5984300  91.6144610
 148.6494610  65.6819840  91.4012410 147.9707870  66.9571590  91.8542410
 143.3642360  61.7252500  99.6310220 143.5273400  61.2557860  98.8129590
 143.8294810  61.2176060 100.2959060 148.1361130  50.8558260  94.6670790
 147.6929280  51.6367800  94.3355310 148.6946120  51.1788150  95.3741730
 152.4230940  53.7226780 100.2706110 151.9610310  53.9309800 101.0826050
 152.0209050  52.9086130  99.9676780 151.2519950  50.4768960  89.5476620
 150.6274130  50.4728830  90.2729930 151.1650070  49.6099920  89.1512590
 150.1737030  51.4005590  96.5260390 150.4709360  52.3068420  96.4452410
 150.7222590  50.9124370  95.9119960 147.9275350  55.9791830  92.3952040
 147.7016270  55.7629000  93.2998660 147.1467880  56.4120290  92.0498010
 150.3674560  56.8777410 103.0612310 150.2718160  55.9372140 102.9112710
 151.2106540  57.0992480 102.6660380 145.4985100  53.2891080 101.2146090
 145.1048490  54.1366290 101.4218870 144.8103500  52.6517450 101.4054730
 142.8002150  51.2119540  95.2476170 142.5115200  51.7822400  95.9601150
 143.5447910  50.7323990  95.6107400 142.9872380  55.1539660  86.4578890
 142.9047050  56.0970420  86.5993880 142.6355440  55.0114570  85.5791240
 150.7870510  53.8878690  95.5249240 150.7906570  53.4468640  94.6753780
 151.6821630  54.2096020  95.6321060 146.6372890  53.7705180  94.4843450
 146.2972940  54.2480410  95.2410500 145.8750210  53.3170300  94.1244550
 150.8490660  54.8890770  88.5156000 150.9703480  54.8477250  89.4641820
 150.4639170  55.7514920  88.3602730 149.8612160  57.1991910  87.9139300
 149.2929060  56.7510160  87.2875210 150.5701160  57.5584690  87.3804450
 144.9381340  61.1003930 101.7906030 144.5536130  60.4597600 102.3888990
 145.2493530  61.8040050 102.3600760 151.0878480  57.9480470  97.2714650
 151.4548610  57.4739040  98.0175990 150.8983540  58.8222040  97.6122990
 143.9518970  52.6924160  93.4008120 143.6665890  52.3279830  94.2386740
 143.8897830  51.9604620  92.7871260 148.8777850  56.9889110  99.5898860
 148.5734920  57.8681090  99.8149220 149.8324310  57.0488900  99.6256300
 147.4059640  61.1950100  90.1865710 146.6321900  60.6547720  90.0264430
 148.1354270  60.6756710  89.8483470 147.4497040  60.8630480  93.8244520
 147.9675710  60.0598740  93.7701410 146.9981060  60.8009620  94.6661350
 144.9341580  57.8291850 100.7370220 144.5756520  58.4945700 101.3243560
 144.6396140  56.9975400 101.1082840 148.1354700  58.2876090 103.6209770
 147.8354840  58.4333270 102.7237590 148.9065940  57.7281380 103.5283160
 151.3057230  62.2110290  91.8687740 151.9928360  62.7579500  92.2495330
 150.5189650  62.7551020  91.9037350 143.4449630  57.8283110  87.3604820
 144.3144480  58.1107910  87.6440740 142.9539950  58.6418980  87.2453630
 150.6084440  59.2156320  91.4813100 151.0647220  60.0261570  91.7073290
 150.2572650  58.8979460  92.3131590 146.5096220  49.5593970  91.9535620
 146.3810850  49.5511870  92.9020540 145.6858240  49.8977060  91.6026630
 143.8120880  67.0410490  87.9266450 144.1718520  67.6399830  87.2723720
 143.6713220  67.5870380  88.7001480 143.5090150  51.3185090 101.4142320
 142.7948670  51.5182010 102.0194930 143.9285190  50.5424660 101.7857120
 143.7962740  65.3065350 102.4008850 143.9053860  64.3660090 102.2604240
 143.1443300  65.5720100 101.7522580 151.7875330  63.5781240 103.8006970
 151.4672200  62.8590480 104.3452660 151.1133690  64.2536310 103.8743030
 149.8289500  64.4241690  88.7440120 149.8199600  65.1571380  88.1284630
 148.9087860  64.1773270  88.8367080 145.4296140  59.6456580  89.4886880
 144.8224090  60.3855480  89.4982180 145.9045490  59.7355940  88.6625080
 150.3374990  55.0450290  91.3889210 149.6291140  55.5136630  91.8302820
 150.6219470  54.3872300  92.0234400 151.9630920  56.4646990  99.3881740
 152.4616170  56.9392810 100.0533590 152.1053870  55.5410510  99.5951770
 151.4567210  67.0056250  92.1012980 151.7108710  66.9677640  91.1792350
 150.5079690  66.8789580  92.0941230 148.5410010  53.3535370  88.7639920
 149.3900540  53.7905520  88.6980110 148.1741280  53.6655630  89.5911980
 147.4401430  59.6067730  87.2375450 148.2064700  59.4949090  87.8000880
 147.5176120  58.9105700  86.5852220 146.1348190  57.0392800  87.9208340
 146.2151780  56.0920310  88.0325740 147.0267940  57.3699680  88.0269000
 146.9362900  67.1888190  95.0242880 147.6725380  66.6403650  95.2951450
 147.3203820  68.0544200  94.8848870 143.8208380  63.2561760  90.8984390
 142.8948160  63.4982900  90.8889800 144.2864810  64.0836020  90.7769140
 145.9421180  66.3734260 104.2128460 146.7433910  66.6946310 104.6263860
 145.4273000  66.0129840 104.9348370 150.0465210  66.3618500  86.8468450
 150.8393820  66.6507330  86.3950240 149.5269560  65.9310670  86.1680930
 143.6618990  58.8607720 103.1564510 144.1658010  58.2815000 103.7280740
 142.9226410  59.1447950 103.6940880 150.5642610  61.5821910  86.7110800
 150.4593250  60.9674260  87.4372180 150.3966830  61.0587800  85.9273810
 150.7156930  60.2678710 102.6900030 149.9502600  60.8363710 102.6054700
 150.8972890  59.9754920 101.7968260 145.6942070  57.0037310 104.0514580
 145.7347410  56.7051180 104.9599810 146.5487570  57.4044920 103.8922100
 149.4720460  59.6032860  89.2118090 149.8936880  59.4372730  90.0549480
 149.5971300  58.7933090  88.7173230 147.6347880  55.5829410 102.0189070
 147.1044340  55.0920360 101.3912410 148.3035950  56.0113610 101.4847000
 151.9848100  58.6270470  86.4595190 152.5053760  57.9119490  86.0936340
 152.6316500  59.2656340  86.7595700 148.1220180  52.5491780 102.0986360
 148.0277050  51.9312530 101.3737230 147.5417570  53.2758070 101.8716270
 150.8881620  51.1065020  99.1313750 150.4398920  51.1289280  98.2859300
 150.2546820  50.7084040  99.7284050 151.2941170  60.0019350  99.7526190
 151.7129280  60.8452080  99.5802430 150.3749800  60.1391390  99.5232970
 148.3679360  55.6766090  86.1576250 148.1668420  54.8133450  86.5189590
 148.1971410  55.5899450  85.2197850 149.1448590  66.3072360 100.8683920
 148.6069680  67.0318420 100.5492620 149.3982550  65.8302700 100.0781260
 150.3973840  54.2756880 102.3939850 150.9873530  53.9672730 103.0817670
 149.5794080  53.8036630 102.5499750 147.1662160  52.7766710  86.1454130
 147.4688060  52.7834140  85.2373280 147.9056750  52.4264570  86.6421790
 152.0010800  67.5423570 101.1270570 151.9269500  68.4458710 101.4342940
 151.0989640  67.2235470 101.0992640 150.3847090  51.7201330  87.1310330
 150.0369090  51.0425320  86.5512780 150.5859860  51.2590840  87.9453720
 146.1892290  62.0809130  86.9783930 146.6267160  62.6238800  87.6341510
 146.6740020  61.2556080  86.9880270 143.4038090  64.8698160  94.4304190
 143.7341100  64.0019220  94.1982830 143.8329090  65.0756680  95.2609150
 148.0000010  63.2007170  92.0906160 147.6995550  63.0772140  92.9910070
 147.8937500  62.3415760  91.6821890 143.8928300  65.7368750  97.1685820
 143.4559290  65.9169550  98.0009970 144.4605980  66.4943370  97.0267540
 143.7252730  58.2488980  93.5274700 143.0701570  57.9800620  92.8834400
 144.5630680  58.1393460  93.0776680 144.7628660  58.6341550  98.0678040
 145.1301700  58.5468950  98.9474060 144.1939480  57.8708100  97.9684900
 144.3144660  55.5450640 101.9736460 143.4200710  55.5117400 102.3130170
 144.8542210  55.7437430 102.7387710 142.9390810  55.4587910  89.4700030
 142.0354890  55.7218110  89.2951690 143.4231430  55.7299080  88.6899990
 145.4818020  54.5153450  87.3794410 146.1909720  54.0936670  86.8941690
 144.7657960  54.5828680  86.7477760 145.1292180  50.5692780  86.4197060
 145.8520310  51.1101720  86.7378280 145.4016700  50.2956200  85.5438600
 144.8184370  49.8198970  96.3219680 145.4660560  49.2696350  95.8814840
 145.2386210  50.0742120  97.1435490 144.5716370  49.9754640  99.0645000
 144.2231190  50.4318460  99.8303180 144.2404070  49.0811770  99.1467430
 146.1780740  63.1474240 103.2298190 146.1350370  62.7767150 104.1112650
 146.3091750  64.0851810 103.3700010 149.8786770  64.7033830  98.8307910
 149.6378130  64.9708390  97.9438430 150.8189410  64.8739560  98.8858770
 145.2437010  49.5030840 102.3395770 145.7920000  49.3218890 101.5761880
 145.3092320  48.7124950 102.8752080 146.0168770  66.0936490 100.3495970
 145.4229090  65.9621190 101.0886010 146.0092610  65.2574630  99.8838070
 145.6481000  63.4594870  99.3004010 144.9215060  62.8400160  99.2329960
 145.7090150  63.8535480  98.4302090 149.2526100  65.6739870  96.0853420
 149.7691120  65.0627230  95.5601680 149.9023480  66.1768650  96.5764430
 151.9921600  66.5648360  96.9122400 152.2799410  66.3102660  96.0355410
 152.5044820  66.0125720  97.5027970 143.9311000  66.7769260  92.5100770
 143.7633040  66.1439940  93.2082660 143.0645510  66.9828660  92.1594960
 144.5539020  50.6086040  90.0132630 145.3118380  50.7214920  89.4396660
 144.0916190  51.4455240  89.9676060 151.0952830  52.7225310  93.0034940
 150.2827340  52.3482200  92.6630820 151.5994470  51.9670390  93.3056130
 145.5373700  65.4702490  89.9550910 145.0121320  65.8510520  89.2512870
 145.4618280  66.0953260  90.6760620 146.9264170  51.1350090  88.5534600
 147.4556930  50.3479890  88.4242550 147.5592490  51.8141280  88.7870130
 149.1202010  50.8725230  91.6079990 148.4904750  50.1712540  91.7750120
 148.5807150  51.6329360  91.3913150 149.2457570  50.1509210 104.0432480
 148.9641840  50.6542810 103.2793300 149.6277270  49.3530960 103.6774610
 148.1366670  67.4184870  88.8300160 148.8685490  67.1344150  88.2824050
 148.3960340  67.1798150  89.7199540 147.2981460  63.5349600  88.8346490
 146.6690340  64.0034700  89.3832320 147.4129290  62.6898820  89.2692680
 146.9015050  59.6754090  77.7432720 146.0699930  59.4202800  78.1429230
 147.5096030  59.7464860  78.4790640 146.8816310  63.7094180  77.9390740
 147.1844350  62.8191920  77.7600960 147.6259900  64.2664400  77.7112990
 145.3107000  54.6355980  71.5275110 144.4223700  54.9771950  71.4254990
 145.5948190  54.4356300  70.6355940 143.2740010  57.2361630  77.4114810
 143.8456120  56.4683830  77.4118450 143.2741550  57.5350390  76.5021420
 144.5164880  52.6445990  79.1983740 144.3367720  51.7471740  79.4786500
 144.1144960  53.1917860  79.8730690 147.4868390  53.2187480  72.5613490
 147.5935140  54.1191210  72.8682250 146.5760750  53.1705450  72.2708140
 145.1351550  55.1406490  77.8066080 145.8161660  55.4044860  78.4253480
 144.8199600  54.3007360  78.1404090 149.3276120  56.1873850  76.8938670
 149.8354340  56.6854820  77.5343690 149.8589360  55.4109050  76.7178030
 147.6112220  50.8272410  81.1602090 147.6130660  51.3444800  80.3547990
 146.7816530  50.3502590  81.1372020 148.8615070  60.4667590  79.3375590
 148.5284450  61.0936510  79.9796660 149.0381750  60.9929470  78.5577260
 147.2927550  52.5382370  79.1672540 147.6344360  53.3824420  78.8726410
 146.3543360  52.6866110  79.2837880 148.0734170  62.4348390  81.1524770
 148.6908170  63.1099470  80.8709220 147.2127290  62.8436370  81.0612270
 143.3666510  61.6248250  70.0331620 142.9894490  62.1135350  69.3016520
 143.6239580  62.2973530  70.6638150 150.9755440  50.0264640  75.4917130
 151.2830420  49.4711530  74.7752630 150.0456140  50.1609100  75.3090120
 148.9692840  58.6178210  75.0096980 148.5649840  57.9055460  74.5142880
 149.0555960  58.2731450  75.8985020 149.4374540  62.3045770  77.1736190
 149.1402830  61.6991240  76.4943970 150.3874360  62.3423080  77.0625550
 147.6821460  55.3921420  78.7896020 148.2336050  55.5016760  78.0149270
 148.1964970  55.7659020  79.5051250 148.5292970  62.0427460  83.8243990
 147.6321500  62.2667430  84.0717390 148.5545840  62.1662400  82.8755390
 147.3564190  58.9140780  82.4001360 147.2171960  59.7863580  82.7688760
 146.4745550  58.5713590  82.2549300 149.1544540  64.8562480  84.6086510
 149.1259970  65.2605430  83.7414940 148.9909510  63.9272840  84.4458110
 145.6697470  57.5123190  72.5103630 145.5495070  58.2385280  71.8984900
 145.3598360  56.7426100  72.0331540 143.3082840  60.6838330  78.3172270
 143.3863260  60.8187100  77.3727990 143.9224520  59.9754220  78.5100390
 144.5530470  62.3838520  74.7278450 144.1458550  62.5253110  73.8732050
 145.4443480  62.0998680  74.5249660 148.8252130  66.5984300  72.8401120
 148.6494610  65.6819840  72.6268920 147.9707870  66.9571590  73.0798920
 143.3642360  61.7252500  80.8566730 143.5273400  61.2557860  80.0386100
 143.8294810  61.2176060  81.5215570 148.1361130  50.8558260  75.8927300
 147.6929280  51.6367800  75.5611820 148.6946120  51.1788150  76.5998240
 152.4230940  53.7226780  81.4962620 151.9610310  53.9309800  82.3082560
 152.0209050  52.9086130  81.1933290 151.2519950  50.4768960  70.7733130
 150.6274130  50.4728830  71.4986440 151.1650070  49.6099920  70.3769100
 150.1737030  51.4005590  77.7516900 150.4709360  52.3068420  77.6708920
 150.7222590  50.9124370  77.1376470 147.9275350  55.9791830  73.6208550
 147.7016270  55.7629000  74.5255170 147.1467880  56.4120290  73.2754520
 150.3674560  56.8777410  84.2868820 150.2718160  55.9372140  84.1369220
 151.2106540  57.0992480  83.8916890 145.4985100  53.2891080  82.4402600
 145.1048490  54.1366290  82.6475380 144.8103500  52.6517450  82.6311240
 142.8002150  51.2119540  76.4732680 142.5115200  51.7822400  77.1857660
 143.5447910  50.7323990  76.8363910 142.9872380  55.1539660  67.6835400
 142.9047050  56.0970420  67.8250390 142.6355440  55.0114570  66.8047750
 150.7870510  53.8878690  76.7505750 150.7906570  53.4468640  75.9010290
 151.6821630  54.2096020  76.8577570 146.6372890  53.7705180  75.7099960
 146.2972940  54.2480410  76.4667010 145.8750210  53.3170300  75.3501060
 150.8490660  54.8890770  69.7412510 150.9703480  54.8477250  70.6898330
 150.4639170  55.7514920  69.5859240 149.8612160  57.1991910  69.1395810
 149.2929060  56.7510160  68.5131720 150.5701160  57.5584690  68.6060960
 144.9381340  61.1003930  83.0162540 144.5536130  60.4597600  83.6145500
 145.2493530  61.8040050  83.5857270 151.0878480  57.9480470  78.4971160
 151.4548610  57.4739040  79.2432500 150.8983540  58.8222040  78.8379500
 143.9518970  52.6924160  74.6264630 143.6665890  52.3279830  75.4643250
 143.8897830  51.9604620  74.0127770 148.8777850  56.9889110  80.8155370
 148.5734920  57.8681090  81.0405730 149.8324310  57.0488900  80.8512810
 147.4059640  61.1950100  71.4122220 146.6321900  60.6547720  71.2520940
 148.1354270  60.6756710  71.0739980 147.4497040  60.8630480  75.0501030
 147.9675710  60.0598740  74.9957920 146.9981060  60.8009620  75.8917860
 144.9341580  57.8291850  81.9626730 144.5756520  58.4945700  82.5500070
 144.6396140  56.9975400  82.3339350 148.1354700  58.2876090  84.8466280
 147.8354840  58.4333270  83.9494100 148.9065940  57.7281380  84.7539670
 151.3057230  62.2110290  73.0944250 151.9928360  62.7579500  73.4751840
 150.5189650  62.7551020  73.1293860 143.4449630  57.8283110  68.5861330
 144.3144480  58.1107910  68.8697250 142.9539950  58.6418980  68.4710140
 150.6084440  59.2156320  72.7069610 151.0647220  60.0261570  72.9329800
 150.2572650  58.8979460  73.5388100 146.5096220  49.5593970  73.1792130
 146.3810850  49.5511870  74.1277050 145.6858240  49.8977060  72.8283140
 143.8120880  67.0410490  69.1522960 144.1718520  67.6399830  68.4980230
 143.6713220  67.5870380  69.9257990 143.5090150  51.3185090  82.6398830
 142.7948670  51.5182010  83.2451440 143.9285190  50.5424660  83.0113630
 143.7962740  65.3065350  83.6265360 143.9053860  64.3660090  83.4860750
 143.1443300  65.5720100  82.9779090 151.7875330  63.5781240  85.0263480
 151.4672200  62.8590480  85.5709170 151.1133690  64.2536310  85.0999540
 149.8289500  64.4241690  69.9696630 149.8199600  65.1571380  69.3541140
 148.9087860  64.1773270  70.0623590 145.4296140  59.6456580  70.7143390
 144.8224090  60.3855480  70.7238690 145.9045490  59.7355940  69.8881590
 150.3374990  55.0450290  72.6145720 149.6291140  55.5136630  73.0559330
 150.6219470  54.3872300  73.2490910 151.9630920  56.4646990  80.6138250
 152.4616170  56.9392810  81.2790100 152.1053870  55.5410510  80.8208280
 151.4567210  67.0056250  73.3269490 151.7108710  66.9677640  72.4048860
 150.5079690  66.8789580  73.3197740 148.5410010  53.3535370  69.9896430
 149.3900540  53.7905520  69.9236620 148.1741280  53.6655630  70.8168490
 147.4401430  59.6067730  68.4631960 148.2064700  59.4949090  69.0257390
 147.5176120  58.9105700  67.8108730 146.1348190  57.0392800  69.1464850
 146.2151780  56.0920310  69.2582250 147.0267940  57.3699680  69.2525510
 146.9362900  67.1888190  76.2499390 147.6725380  66.6403650  76.5207960
 147.3203820  68.0544200  76.1105380 143.8208380  63.2561760  72.1240900
 142.8948160  63.4982900  72.1146310 144.2864810  64.0836020  72.0025650
 145.9421180  66.3734260  85.4384970 146.7433910  66.6946310  85.8520370
 145.4273000  66.0129840  86.1604880 150.0465210  66.3618500  68.0724960
 150.8393820  66.6507330  67.6206750 149.5269560  65.9310670  67.3937440
 143.6618990  58.8607720  84.3821020 144.1658010  58.2815000  84.9537250
 142.9226410  59.1447950  84.9197390 150.5642610  61.5821910  67.9367310
 150.4593250  60.9674260  68.6628690 150.3966830  61.0587800  67.1530320
 150.7156930  60.2678710  83.9156540 149.9502600  60.8363710  83.8311210
 150.8972890  59.9754920  83.0224770 145.6942070  57.0037310  85.2771090
 145.7347410  56.7051180  86.1856320 146.5487570  57.4044920  85.1178610
 149.4720460  59.6032860  70.4374600 149.8936880  59.4372730  71.2805990
 149.5971300  58.7933090  69.9429740 147.6347880  55.5829410  83.2445580
 147.1044340  55.0920360  82.6168920 148.3035950  56.0113610  82.7103510
 151.9848100  58.6270470  67.6851700 152.5053760  57.9119490  67.3192850
 152.6316500  59.2656340  67.9852210 148.1220180  52.5491780  83.3242870
 148.0277050  51.9312530  82.5993740 147.5417570  53.2758070  83.0972780
 150.8881620  51.1065020  80.3570260 150.4398920  51.1289280  79.5115810
 150.2546820  50.7084040  80.9540560 151.2941170  60.0019350  80.9782700
 151.7129280  60.8452080  80.8058940 150.3749800  60.1391390  80.7489480
 148.3679360  55.6766090  67.3832760 148.1668420  54.8133450  67.7446100
 148.1971410  55.5899450  66.4454360 149.1448590  66.3072360  82.0940430
 148.6069680  67.0318420  81.7749130 149.3982550  65.8302700  81.3037770
 150.3973840  54.2756880  83.6196360 150.9873530  53.9672730  84.3074180
 149.5794080  53.8036630  83.7756260 147.1662160  52.7766710  67.3710640
 147.4688060  52.7834140  66.4629790 147.9056750  52.4264570  67.8678300
 152.0010800  67.5423570  82.3527080 151.9269500  68.4458710  82.6599450
 151.0989640  67.2235470  82.3249150 150.3847090  51.7201330  68.3566840
 150.0369090  51.0425320  67.7769290 150.5859860  51.2590840  69.1710230
 146.1892290  62.0809130  68.2040440 146.6267160  62.6238800  68.8598020
 146.6740020  61.2556080  68.2136780 143.4038090  64.8698160  75.6560700
 143.7341100  64.0019220  75.4239340 143.8329090  65.0756680  76.4865660
 148.0000010  63.2007170  73.3162670 147.6995550  63.0772140  74.2166580
 147.8937500  62.3415760  72.9078400 143.8928300  65.7368750  78.3942330
 143.4559290  65.9169550  79.2266480 144.4605980  66.4943370  78.2524050
 143.7252730  58.2488980  74.7531210 143.0701570  57.9800620  74.1090910
 144.5630680  58.1393460  74.3033190 144.7628660  58.6341550  79.2934550
 145.1301700  58.5468950  80.1730570 144.1939480  57.8708100  79.1941410
 144.3144660  55.5450640  83.1992970 143.4200710  55.5117400  83.5386680
 144.8542210  55.7437430  83.9644220 142.9390810  55.4587910  70.6956540
 142.0354890  55.7218110  70.5208200 143.4231430  55.7299080  69.9156500
 145.4818020  54.5153450  68.6050920 146.1909720  54.0936670  68.1198200
 144.7657960  54.5828680  67.9734270 145.1292180  50.5692780  67.6453570
 145.8520310  51.1101720  67.9634790 145.4016700  50.2956200  66.7695110
 144.8184370  49.8198970  77.5476190 145.4660560  49.2696350  77.1071350
 145.2386210  50.0742120  78.3692000 144.5716370  49.9754640  80.2901510
 144.2231190  50.4318460  81.0559690 144.2404070  49.0811770  80.3723940
 146.1780740  63.1474240  84.4554700 146.1350370  62.7767150  85.3369160
 146.3091750  64.0851810  84.5956520 149.8786770  64.7033830  80.0564420
 149.6378130  64.9708390  79.1694940 150.8189410  64.8739560  80.1115280
 145.2437010  49.5030840  83.5652280 145.7920000  49.3218890  82.8018390
 145.3092320  48.7124950  84.1008590 146.0168770  66.0936490  81.5752480
 145.4229090  65.9621190  82.3142520 146.0092610  65.2574630  81.1094580
 145.6481000  63.4594870  80.5260520 144.9215060  62.8400160  80.4586470
 145.7090150  63.8535480  79.6558600 149.2526100  65.6739870  77.3109930
 149.7691120  65.0627230  76.7858190 149.9023480  66.1768650  77.8020940
 151.9921600  66.5648360  78.1378910 152.2799410  66.3102660  77.2611920
 152.5044820  66.0125720  78.7284480 143.9311000  66.7769260  73.7357280
 143.7633040  66.1439940  74.4339170 143.0645510  66.9828660  73.3851470
 144.5539020  50.6086040  71.2389140 145.3118380  50.7214920  70.6653170
 144.0916190  51.4455240  71.1932570 151.0952830  52.7225310  74.2291450
 150.2827340  52.3482200  73.8887330 151.5994470  51.9670390  74.5312640
 145.5373700  65.4702490  71.1807420 145.0121320  65.8510520  70.4769380
 145.4618280  66.0953260  71.9017130 146.9264170  51.1350090  69.7791110
 147.4556930  50.3479890  69.6499060 147.5592490  51.8141280  70.0126640
 149.1202010  50.8725230  72.8336500 148.4904750  50.1712540  73.0006630
 148.5807150  51.6329360  72.6169660 149.2457570  50.1509210  85.2688990
 148.9641840  50.6542810  84.5049810 149.6277270  49.3530960  84.9031120
 148.1366670  67.4184870  70.0556670 148.8685490  67.1344150  69.5080560
 148.3960340  67.1798150  70.9456050 147.2981460  63.5349600  70.0603000
 146.6690340  64.0034700  70.6088830 147.4129290  62.6898820  70.4949190
 146.9015050  59.6754090  58.9689230 146.0699930  59.4202800  59.3685740
 147.5096030  59.7464860  59.7047150 146.8816310  63.7094180  59.1647250
 147.1844350  62.8191920  58.9857470 147.6259900  64.2664400  58.9369500
 145.3107000  54.6355980  52.7531620 144.4223700  54.9771950  52.6511500
 145.5948190  54.4356300  51.8612450 143.2740010  57.2361630  58.6371320
 143.8456120  56.4683830  58.6374960 143.2741550  57.5350390  57.7277930
 144.5164880  52.6445990  60.4240250 144.3367720  51.7471740  60.7043010
 144.1144960  53.1917860  61.0987200 147.4868390  53.2187480  53.7870000
 147.5935140  54.1191210  54.0938760 146.5760750  53.1705450  53.4964650
 145.1351550  55.1406490  59.0322590 145.8161660  55.4044860  59.6509990
 144.8199600  54.3007360  59.3660600 149.3276120  56.1873850  58.1195180
 149.8354340  56.6854820  58.7600200 149.8589360  55.4109050  57.9434540
 147.6112220  50.8272410  62.3858600 147.6130660  51.3444800  61.5804500
 146.7816530  50.3502590  62.3628530 148.8615070  60.4667590  60.5632100
 148.5284450  61.0936510  61.2053170 149.0381750  60.9929470  59.7833770
 147.2927550  52.5382370  60.3929050 147.6344360  53.3824420  60.0982920
 146.3543360  52.6866110  60.5094390 148.0734170  62.4348390  62.3781280
 148.6908170  63.1099470  62.0965730 147.2127290  62.8436370  62.2868780
 143.3666510  61.6248250  51.2588130 142.9894490  62.1135350  50.5273030
 143.6239580  62.2973530  51.8894660 150.9755440  50.0264640  56.7173640
 151.2830420  49.4711530  56.0009140 150.0456140  50.1609100  56.5346630
 148.9692840  58.6178210  56.2353490 148.5649840  57.9055460  55.7399390
 149.0555960  58.2731450  57.1241530 149.4374540  62.3045770  58.3992700
 149.1402830  61.6991240  57.7200480 150.3874360  62.3423080  58.2882060
 147.6821460  55.3921420  60.0152530 148.2336050  55.5016760  59.2405780
 148.1964970  55.7659020  60.7307760 148.5292970  62.0427460  65.0500500
 147.6321500  62.2667430  65.2973900 148.5545840  62.1662400  64.1011900
 147.3564190  58.9140780  63.6257870 147.2171960  59.7863580  63.9945270
 146.4745550  58.5713590  63.4805810 149.1544540  64.8562480  65.8343020
 149.1259970  65.2605430  64.9671450 148.9909510  63.9272840  65.6714620
 145.6697470  57.5123190  53.7360140 145.5495070  58.2385280  53.1241410
 145.3598360  56.7426100  53.2588050 143.3082840  60.6838330  59.5428780
 143.3863260  60.8187100  58.5984500 143.9224520  59.9754220  59.7356900
 144.5530470  62.3838520  55.9534960 144.1458550  62.5253110  55.0988560
 145.4443480  62.0998680  55.7506170 148.8252130  66.5984300  54.0657630
 148.6494610  65.6819840  53.8525430 147.9707870  66.9571590  54.3055430
 143.3642360  61.7252500  62.0823240 143.5273400  61.2557860  61.2642610
 143.8294810  61.2176060  62.7472080 148.1361130  50.8558260  57.1183810
 147.6929280  51.6367800  56.7868330 148.6946120  51.1788150  57.8254750
 152.4230940  53.7226780  62.7219130 151.9610310  53.9309800  63.5339070
 152.0209050  52.9086130  62.4189800 151.2519950  50.4768960  51.9989640
 150.6274130  50.4728830  52.7242950 151.1650070  49.6099920  51.6025610
 150.1737030  51.4005590  58.9773410 150.4709360  52.3068420  58.8965430
 150.7222590  50.9124370  58.3632980 147.9275350  55.9791830  54.8465060
 147.7016270  55.7629000  55.7511680 147.1467880  56.4120290  54.5011030
 150.3674560  56.8777410  65.5125330 150.2718160  55.9372140  65.3625730
 151.2106540  57.0992480  65.1173400 145.4985100  53.2891080  63.6659110
 145.1048490  54.1366290  63.8731890 144.8103500  52.6517450  63.8567750
 142.8002150  51.2119540  57.6989190 142.5115200  51.7822400  58.4114170
 143.5447910  50.7323990  58.0620420 142.9872380  55.1539660  48.9091910
 142.9047050  56.0970420  49.0506900 142.6355440  55.0114570  48.0304260
 150.7870510  53.8878690  57.9762260 150.7906570  53.4468640  57.1266800
 151.6821630  54.2096020  58.0834080 146.6372890  53.7705180  56.9356470
 146.2972940  54.2480410  57.6923520 145.8750210  53.3170300  56.5757570
 150.8490660  54.8890770  50.9669020 150.9703480  54.8477250  51.9154840
 150.4639170  55.7514920  50.8115750 149.8612160  57.1991910  50.3652320
 149.2929060  56.7510160  49.7388230 150.5701160  57.5584690  49.8317470
 144.9381340  61.1003930  64.2419050 144.5536130  60.4597600  64.8402010
 145.2493530  61.8040050  64.8113780 151.0878480  57.9480470  59.7227670
 151.4548610  57.4739040  60.4689010 150.8983540  58.8222040  60.0636010
 143.9518970  52.6924160  55.8521140 143.6665890  52.3279830  56.6899760
 143.8897830  51.9604620  55.2384280 148.8777850  56.9889110  62.0411880
 148.5734920  57.8681090  62.2662240 149.8324310  57.0488900  62.0769320
 147.4059640  61.1950100  52.6378730 146.6321900  60.6547720  52.4777450
 148.1354270  60.6756710  52.2996490 147.4497040  60.8630480  56.2757540
 147.9675710  60.0598740  56.2214430 146.9981060  60.8009620  57.1174370
 144.9341580  57.8291850  63.1883240 144.5756520  58.4945700  63.7756580
 144.6396140  56.9975400  63.5595860 148.1354700  58.2876090  66.0722790
 147.8354840  58.4333270  65.1750610 148.9065940  57.7281380  65.9796180
 151.3057230  62.2110290  54.3200760 151.9928360  62.7579500  54.7008350
 150.5189650  62.7551020  54.3550370 143.4449630  57.8283110  49.8117840
 144.3144480  58.1107910  50.0953760 142.9539950  58.6418980  49.6966650
 150.6084440  59.2156320  53.9326120 151.0647220  60.0261570  54.1586310
 150.2572650  58.8979460  54.7644610 146.5096220  49.5593970  54.4048640
 146.3810850  49.5511870  55.3533560 145.6858240  49.8977060  54.0539650
 143.8120880  67.0410490  50.3779470 144.1718520  67.6399830  49.7236740
 143.6713220  67.5870380  51.1514500 143.5090150  51.3185090  63.8655340
 142.7948670  51.5182010  64.4707950 143.9285190  50.5424660  64.2370140
 143.7962740  65.3065350  64.8521870 143.9053860  64.3660090  64.7117260
 143.1443300  65.5720100  64.2035600 151.7875330  63.5781240  66.2519990
 151.4672200  62.8590480  66.7965680 151.1133690  64.2536310  66.3256050
 149.8289500  64.4241690  51.1953140 149.8199600  65.1571380  50.5797650
 148.9087860  64.1773270  51.2880100 145.4296140  59.6456580  51.9399900
 144.8224090  60.3855480  51.9495200 145.9045490  59.7355940  51.1138100
 150.3374990  55.0450290  53.8402230 149.6291140  55.5136630  54.2815840
 150.6219470  54.3872300  54.4747420 151.9630920  56.4646990  61.8394760
 152.4616170  56.9392810  62.5046610 152.1053870  55.5410510  62.0464790
 151.4567210  67.0056250  54.5526000 151.7108710  66.9677640  53.6305370
 150.5079690  66.8789580  54.5454250 148.5410010  53.3535370  51.2152940
 149.3900540  53.7905520  51.1493130 148.1741280  53.6655630  52.0425000
 147.4401430  59.6067730  49.6888470 148.2064700  59.4949090  50.2513900
 147.5176120  58.9105700  49.0365240 146.1348190  57.0392800  50.3721360
 146.2151780  56.0920310  50.4838760 147.0267940  57.3699680  50.4782020
 146.9362900  67.1888190  57.4755900 147.6725380  66.6403650  57.7464470
 147.3203820  68.0544200  57.3361890 143.8208380  63.2561760  53.3497410
 142.8948160  63.4982900  53.3402820 144.2864810  64.0836020  53.2282160
 145.9421180  66.3734260  66.6641480 146.7433910  66.6946310  67.0776880
 145.4273000  66.0129840  67.3861390 150.0465210  66.3618500  49.2981470
 150.8393820  66.6507330  48.8463260 149.5269560  65.9310670  48.6193950
 143.6618990  58.8607720  65.6077530 144.1658010  58.2815000  66.1793760
 142.9226410  59.1447950  66.1453900 150.5642610  61.5821910  49.1623820
 150.4593250  60.9674260  49.8885200 150.3966830  61.0587800  48.3786830
 150.7156930  60.2678710  65.1413050 149.9502600  60.8363710  65.0567720
 150.8972890  59.9754920  64.2481280 145.6942070  57.0037310  66.5027600
 145.7347410  56.7051180  67.4112830 146.5487570  57.4044920  66.3435120
 149.4720460  59.6032860  51.6631110 149.8936880  59.4372730  52.5062500
 149.5971300  58.7933090  51.1686250 147.6347880  55.5829410  64.4702090
 147.1044340  55.0920360  63.8425430 148.3035950  56.0113610  63.9360020
 151.9848100  58.6270470  48.9108210 152.5053760  57.9119490  48.5449360
 152.6316500  59.2656340  49.2108720 148.1220180  52.5491780  64.5499380
 148.0277050  51.9312530  63.8250250 147.5417570  53.2758070  64.3229290
 150.8881620  51.1065020  61.5826770 150.4398920  51.1289280  60.7372320
 150.2546820  50.7084040  62.1797070 151.2941170  60.0019350  62.2039210
 151.7129280  60.8452080  62.0315450 150.3749800  60.1391390  61.9745990
 148.3679360  55.6766090  48.6089270 148.1668420  54.8133450  48.9702610
 148.1971410  55.5899450  47.6710870 149.1448590  66.3072360  63.3196940
 148.6069680  67.0318420  63.0005640 149.3982550  65.8302700  62.5294280
 150.3973840  54.2756880  64.8452870 150.9873530  53.9672730  65.5330690
 149.5794080  53.8036630  65.0012770 147.1662160  52.7766710  48.5967150
 147.4688060  52.7834140  47.6886300 147.9056750  52.4264570  49.0934810
 152.0010800  67.5423570  63.5783590 151.9269500  68.4458710  63.8855960
 151.0989640  67.2235470  63.5505660 150.3847090  51.7201330  49.5823350
 150.0369090  51.0425320  49.0025800 150.5859860  51.2590840  50.3966740
 146.1892290  62.0809130  49.4296950 146.6267160  62.6238800  50.0854530
 146.6740020  61.2556080  49.4393290 143.4038090  64.8698160  56.8817210
 143.7341100  64.0019220  56.6495850 143.8329090  65.0756680  57.7122170
 148.0000010  63.2007170  54.5419180 147.6995550  63.0772140  55.4423090
 147.8937500  62.3415760  54.1334910 143.8928300  65.7368750  59.6198840
 143.4559290  65.9169550  60.4522990 144.4605980  66.4943370  59.4780560
 143.7252730  58.2488980  55.9787720 143.0701570  57.9800620  55.3347420
 144.5630680  58.1393460  55.5289700 144.7628660  58.6341550  60.5191060
 145.1301700  58.5468950  61.3987080 144.1939480  57.8708100  60.4197920
 144.3144660  55.5450640  64.4249480 143.4200710  55.5117400  64.7643190
 144.8542210  55.7437430  65.1900730 142.9390810  55.4587910  51.9213050
 142.0354890  55.7218110  51.7464710 143.4231430  55.7299080  51.1413010
 145.4818020  54.5153450  49.8307430 146.1909720  54.0936670  49.3454710
 144.7657960  54.5828680  49.1990780 145.1292180  50.5692780  48.8710080
 145.8520310  51.1101720  49.1891300 145.4016700  50.2956200  47.9951620
 144.8184370  49.8198970  58.7732700 145.4660560  49.2696350  58.3327860
 145.2386210  50.0742120  59.5948510 144.5716370  49.9754640  61.5158020
 144.2231190  50.4318460  62.2816200 144.2404070  49.0811770  61.5980450
 146.1780740  63.1474240  65.6811210 146.1350370  62.7767150  66.5625670
 146.3091750  64.0851810  65.8213030 149.8786770  64.7033830  61.2820930
 149.6378130  64.9708390  60.3951450 150.8189410  64.8739560  61.3371790
 145.2437010  49.5030840  64.7908790 145.7920000  49.3218890  64.0274900
 145.3092320  48.7124950  65.3265100 146.0168770  66.0936490  62.8008990
 145.4229090  65.9621190  63.5399030 146.0092610  65.2574630  62.3351090
 145.6481000  63.4594870  61.7517030 144.9215060  62.8400160  61.6842980
 145.7090150  63.8535480  60.8815110 149.2526100  65.6739870  58.5366440
 149.7691120  65.0627230  58.0114700 149.9023480  66.1768650  59.0277450
 151.9921600  66.5648360  59.3635420 152.2799410  66.3102660  58.4868430
 152.5044820  66.0125720  59.9540990 143.9311000  66.7769260  54.9613790
 143.7633040  66.1439940  55.6595680 143.0645510  66.9828660  54.6107980
 144.5539020  50.6086040  52.4645650 145.3118380  50.7214920  51.8909680
 144.0916190  51.4455240  52.4189080 151.0952830  52.7225310  55.4547960
 150.2827340  52.3482200  55.1143840 151.5994470  51.9670390  55.7569150
 145.5373700  65.4702490  52.4063930 145.0121320  65.8510520  51.7025890
 145.4618280  66.0953260  53.1273640 146.9264170  51.1350090  51.0047620
 147.4556930  50.3479890  50.8755570 147.5592490  51.8141280  51.2383150
 149.1202010  50.8725230  54.0593010 148.4904750  50.1712540  54.2263140
 148.5807150  51.6329360  53.8426170 149.2457570  50.1509210  66.4945500
 148.9641840  50.6542810  65.7306320 149.6277270  49.3530960  66.1287630
 148.1366670  67.4184870  51.2813180 148.8685490  67.1344150  50.7337070
 148.3960340  67.1798150  52.1712560 147.2981460  63.5349600  51.2859510
 146.6690340  64.0034700  51.8345340 147.4129290  62.6898820  51.7205700
 146.9015050  59.6754090  40.1945740 146.0699930  59.4202800  40.5942250
 147.5096030  59.7464860  40.9303660 146.8816310  63.7094180  40.3903760
 147.1844350  62.8191920  40.2113980 147.6259900  64.2664400  40.1626010
 145.3107000  54.6355980  33.9788130 144.4223700  54.9771950  33.8768010
 145.5948190  54.4356300  33.0868960 143.2740010  57.2361630  39.8627830
 143.8456120  56.4683830  39.8631470 143.2741550  57.5350390  38.9534440
 144.5164880  52.6445990  41.6496760 144.3367720  51.7471740  41.9299520
 144.1144960  53.1917860  42.3243710 147.4868390  53.2187480  35.0126510
 147.5935140  54.1191210  35.3195270 146.5760750  53.1705450  34.7221160
 145.1351550  55.1406490  40.2579100 145.8161660  55.4044860  40.8766500
 144.8199600  54.3007360  40.5917110 149.3276120  56.1873850  39.3451690
 149.8354340  56.6854820  39.9856710 149.8589360  55.4109050  39.1691050
 147.6112220  50.8272410  43.6115110 147.6130660  51.3444800  42.8061010
 146.7816530  50.3502590  43.5885040 148.8615070  60.4667590  41.7888610
 148.5284450  61.0936510  42.4309680 149.0381750  60.9929470  41.0090280
 147.2927550  52.5382370  41.6185560 147.6344360  53.3824420  41.3239430
 146.3543360  52.6866110  41.7350900 148.0734170  62.4348390  43.6037790
 148.6908170  63.1099470  43.3222240 147.2127290  62.8436370  43.5125290
 143.3666510  61.6248250  32.4844640 142.9894490  62.1135350  31.7529540
 143.6239580  62.2973530  33.1151170 150.9755440  50.0264640  37.9430150
 151.2830420  49.4711530  37.2265650 150.0456140  50.1609100  37.7603140
 148.9692840  58.6178210  37.4610000 148.5649840  57.9055460  36.9655900
 149.0555960  58.2731450  38.3498040 149.4374540  62.3045770  39.6249210
 149.1402830  61.6991240  38.9456990 150.3874360  62.3423080  39.5138570
 147.6821460  55.3921420  41.2409040 148.2336050  55.5016760  40.4662290
 148.1964970  55.7659020  41.9564270 148.5292970  62.0427460  46.2757010
 147.6321500  62.2667430  46.5230410 148.5545840  62.1662400  45.3268410
 147.3564190  58.9140780  44.8514380 147.2171960  59.7863580  45.2201780
 146.4745550  58.5713590  44.7062320 149.1544540  64.8562480  47.0599530
 149.1259970  65.2605430  46.1927960 148.9909510  63.9272840  46.8971130
 145.6697470  57.5123190  34.9616650 145.5495070  58.2385280  34.3497920
 145.3598360  56.7426100  34.4844560 143.3082840  60.6838330  40.7685290
 143.3863260  60.8187100  39.8241010 143.9224520  59.9754220  40.9613410
 144.5530470  62.3838520  37.1791470 144.1458550  62.5253110  36.3245070
 145.4443480  62.0998680  36.9762680 148.8252130  66.5984300  35.2914140
 148.6494610  65.6819840  35.0781940 147.9707870  66.9571590  35.5311940
 143.3642360  61.7252500  43.3079750 143.5273400  61.2557860  42.4899120
 143.8294810  61.2176060  43.9728590 148.1361130  50.8558260  38.3440320
 147.6929280  51.6367800  38.0124840 148.6946120  51.1788150  39.0511260
 152.4230940  53.7226780  43.9475640 151.9610310  53.9309800  44.7595580
 152.0209050  52.9086130  43.6446310 151.2519950  50.4768960  33.2246150
 150.6274130  50.4728830  33.9499460 151.1650070  49.6099920  32.8282120
 150.1737030  51.4005590  40.2029920 150.4709360  52.3068420  40.1221940
 150.7222590  50.9124370  39.5889490 147.9275350  55.9791830  36.0721570
 147.7016270  55.7629000  36.9768190 147.1467880  56.4120290  35.7267540
 150.3674560  56.8777410  46.7381840 150.2718160  55.9372140  46.5882240
 151.2106540  57.0992480  46.3429910 145.4985100  53.2891080  44.8915620
 145.1048490  54.1366290  45.0988400 144.8103500  52.6517450  45.0824260
 142.8002150  51.2119540  38.9245700 142.5115200  51.7822400  39.6370680
 143.5447910  50.7323990  39.2876930 142.9872380  55.1539660  30.1348420
 142.9047050  56.0970420  30.2763410 142.6355440  55.0114570  29.2560770
 150.7870510  53.8878690  39.2018770 150.7906570  53.4468640  38.3523310
 151.6821630  54.2096020  39.3090590 146.6372890  53.7705180  38.1612980
 146.2972940  54.2480410  38.9180030 145.8750210  53.3170300  37.8014080
 150.8490660  54.8890770  32.1925530 150.9703480  54.8477250  33.1411350
 150.4639170  55.7514920  32.0372260 149.8612160  57.1991910  31.5908830
 149.2929060  56.7510160  30.9644740 150.5701160  57.5584690  31.0573980
 144.9381340  61.1003930  45.4675560 144.5536130  60.4597600  46.0658520
 145.2493530  61.8040050  46.0370290 151.0878480  57.9480470  40.9484180
 151.4548610  57.4739040  41.6945520 150.8983540  58.8222040  41.2892520
 143.9518970  52.6924160  37.0777650 143.6665890  52.3279830  37.9156270
 143.8897830  51.9604620  36.4640790 148.8777850  56.9889110  43.2668390
 148.5734920  57.8681090  43.4918750 149.8324310  57.0488900  43.3025830
 147.4059640  61.1950100  33.8635240 146.6321900  60.6547720  33.7033960
 148.1354270  60.6756710  33.5253000 147.4497040  60.8630480  37.5014050
 147.9675710  60.0598740  37.4470940 146.9981060  60.8009620  38.3430880
 144.9341580  57.8291850  44.4139750 144.5756520  58.4945700  45.0013090
 144.6396140  56.9975400  44.7852370 148.1354700  58.2876090  47.2979300
 147.8354840  58.4333270  46.4007120 148.9065940  57.7281380  47.2052690
 151.3057230  62.2110290  35.5457270 151.9928360  62.7579500  35.9264860
 150.5189650  62.7551020  35.5806880 143.4449630  57.8283110  31.0374350
 144.3144480  58.1107910  31.3210270 142.9539950  58.6418980  30.9223160
 150.6084440  59.2156320  35.1582630 151.0647220  60.0261570  35.3842820
 150.2572650  58.8979460  35.9901120 146.5096220  49.5593970  35.6305150
 146.3810850  49.5511870  36.5790070 145.6858240  49.8977060  35.2796160
 143.8120880  67.0410490  31.6035980 144.1718520  67.6399830  30.9493250
 143.6713220  67.5870380  32.3771010 143.5090150  51.3185090  45.0911850
 142.7948670  51.5182010  45.6964460 143.9285190  50.5424660  45.4626650
 143.7962740  65.3065350  46.0778380 143.9053860  64.3660090  45.9373770
 143.1443300  65.5720100  45.4292110 151.7875330  63.5781240  47.4776500
 151.4672200  62.8590480  48.0222190 151.1133690  64.2536310  47.5512560
 149.8289500  64.4241690  32.4209650 149.8199600  65.1571380  31.8054160
 148.9087860  64.1773270  32.5136610 145.4296140  59.6456580  33.1656410
 144.8224090  60.3855480  33.1751710 145.9045490  59.7355940  32.3394610
 150.3374990  55.0450290  35.0658740 149.6291140  55.5136630  35.5072350
 150.6219470  54.3872300  35.7003930 151.9630920  56.4646990  43.0651270
 152.4616170  56.9392810  43.7303120 152.1053870  55.5410510  43.2721300
 151.4567210  67.0056250  35.7782510 151.7108710  66.9677640  34.8561880
 150.5079690  66.8789580  35.7710760 148.5410010  53.3535370  32.4409450
 149.3900540  53.7905520  32.3749640 148.1741280  53.6655630  33.2681510
 147.4401430  59.6067730  30.9144980 148.2064700  59.4949090  31.4770410
 147.5176120  58.9105700  30.2621750 146.1348190  57.0392800  31.5977870
 146.2151780  56.0920310  31.7095270 147.0267940  57.3699680  31.7038530
 146.9362900  67.1888190  38.7012410 147.6725380  66.6403650  38.9720980
 147.3203820  68.0544200  38.5618400 143.8208380  63.2561760  34.5753920
 142.8948160  63.4982900  34.5659330 144.2864810  64.0836020  34.4538670
 145.9421180  66.3734260  47.8897990 146.7433910  66.6946310  48.3033390
 145.4273000  66.0129840  48.6117900 150.0465210  66.3618500  30.5237980
 150.8393820  66.6507330  30.0719770 149.5269560  65.9310670  29.8450460
 143.6618990  58.8607720  46.8334040 144.1658010  58.2815000  47.4050270
 142.9226410  59.1447950  47.3710410 150.5642610  61.5821910  30.3880330
 150.4593250  60.9674260  31.1141710 150.3966830  61.0587800  29.6043340
 150.7156930  60.2678710  46.3669560 149.9502600  60.8363710  46.2824230
 150.8972890  59.9754920  45.4737790 145.6942070  57.0037310  47.7284110
 145.7347410  56.7051180  48.6369340 146.5487570  57.4044920  47.5691630
 149.4720460  59.6032860  32.8887620 149.8936880  59.4372730  33.7319010
 149.5971300  58.7933090  32.3942760 147.6347880  55.5829410  45.6958600
 147.1044340  55.0920360  45.0681940 148.3035950  56.0113610  45.1616530
 151.9848100  58.6270470  30.1364720 152.5053760  57.9119490  29.7705870
 152.6316500  59.2656340  30.4365230 148.1220180  52.5491780  45.7755890
 148.0277050  51.9312530  45.0506760 147.5417570  53.2758070  45.5485800
 150.8881620  51.1065020  42.8083280 150.4398920  51.1289280  41.9628830
 150.2546820  50.7084040  43.4053580 151.2941170  60.0019350  43.4295720
 151.7129280  60.8452080  43.2571960 150.3749800  60.1391390  43.2002500
 148.3679360  55.6766090  29.8345780 148.1668420  54.8133450  30.1959120
 148.1971410  55.5899450  28.8967380 149.1448590  66.3072360  44.5453450
 148.6069680  67.0318420  44.2262150 149.3982550  65.8302700  43.7550790
 150.3973840  54.2756880  46.0709380 150.9873530  53.9672730  46.7587200
 149.5794080  53.8036630  46.2269280 147.1662160  52.7766710  29.8223660
 147.4688060  52.7834140  28.9142810 147.9056750  52.4264570  30.3191320
 152.0010800  67.5423570  44.8040100 151.9269500  68.4458710  45.1112470
 151.0989640  67.2235470  44.7762170 150.3847090  51.7201330  30.8079860
 150.0369090  51.0425320  30.2282310 150.5859860  51.2590840  31.6223250
 146.1892290  62.0809130  30.6553460 146.6267160  62.6238800  31.3111040
 146.6740020  61.2556080  30.6649800 143.4038090  64.8698160  38.1073720
 143.7341100  64.0019220  37.8752360 143.8329090  65.0756680  38.9378680
 148.0000010  63.2007170  35.7675690 147.6995550  63.0772140  36.6679600
 147.8937500  62.3415760  35.3591420 143.8928300  65.7368750  40.8455350
 143.4559290  65.9169550  41.6779500 144.4605980  66.4943370  40.7037070
 143.7252730  58.2488980  37.2044230 143.0701570  57.9800620  36.5603930
 144.5630680  58.1393460  36.7546210 144.7628660  58.6341550  41.7447570
 145.1301700  58.5468950  42.6243590 144.1939480  57.8708100  41.6454430
 144.3144660  55.5450640  45.6505990 143.4200710  55.5117400  45.9899700
 144.8542210  55.7437430  46.4157240 142.9390810  55.4587910  33.1469560
 142.0354890  55.7218110  32.9721220 143.4231430  55.7299080  32.3669520
 145.4818020  54.5153450  31.0563940 146.1909720  54.0936670  30.5711220
 144.7657960  54.5828680  30.4247290 145.1292180  50.5692780  30.0966590
 145.8520310  51.1101720  30.4147810 145.4016700  50.2956200  29.2208130
 144.8184370  49.8198970  39.9989210 145.4660560  49.2696350  39.5584370
 145.2386210  50.0742120  40.8205020 144.5716370  49.9754640  42.7414530
 144.2231190  50.4318460  43.5072710 144.2404070  49.0811770  42.8236960
 146.1780740  63.1474240  46.9067720 146.1350370  62.7767150  47.7882180
 146.3091750  64.0851810  47.0469540 149.8786770  64.7033830  42.5077440
 149.6378130  64.9708390  41.6207960 150.8189410  64.8739560  42.5628300
 145.2437010  49.5030840  46.0165300 145.7920000  49.3218890  45.2531410
 145.3092320  48.7124950  46.5521610 146.0168770  66.0936490  44.0265500
 145.4229090  65.9621190  44.7655540 146.0092610  65.2574630  43.5607600
 145.6481000  63.4594870  42.9773540 144.9215060  62.8400160  42.9099490
 145.7090150  63.8535480  42.1071620 149.2526100  65.6739870  39.7622950
 149.7691120  65.0627230  39.2371210 149.9023480  66.1768650  40.2533960
 151.9921600  66.5648360  40.5891930 152.2799410  66.3102660  39.7124940
 152.5044820  66.0125720  41.1797500 143.9311000  66.7769260  36.1870300
 143.7633040  66.1439940  36.8852190 143.0645510  66.9828660  35.8364490
 144.5539020  50.6086040  33.6902160 145.3118380  50.7214920  33.1166190
 144.0916190  51.4455240  33.6445590 151.0952830  52.7225310  36.6804470
 150.2827340  52.3482200  36.3400350 151.5994470  51.9670390  36.9825660
 145.5373700  65.4702490  33.6320440 145.0121320  65.8510520  32.9282400
 145.4618280  66.0953260  34.3530150 146.9264170  51.1350090  32.2304130
 147.4556930  50.3479890  32.1012080 147.5592490  51.8141280  32.4639660
 149.1202010  50.8725230  35.2849520 148.4904750  50.1712540  35.4519650
 148.5807150  51.6329360  35.0682680 149.2457570  50.1509210  47.7202010
 148.9641840  50.6542810  46.9562830 149.6277270  49.3530960  47.3544140
 148.1366670  67.4184870  32.5069690 148.8685490  67.1344150  31.9593580
 148.3960340  67.1798150  33.3969070 147.2981460  63.5349600  32.5116020
 146.6690340  64.0034700  33.0601850 147.4129290  62.6898820  32.9462210
 146.9015050  59.6754090  21.4202250 146.0699930  59.4202800  21.8198760
 147.5096030  59.7464860  22.1560170 146.8816310  63.7094180  21.6160270
 147.1844350  62.8191920  21.4370490 147.6259900  64.2664400  21.3882520
 145.3107000  54.6355980  15.2044640 144.4223700  54.9771950  15.1024520
 145.5948190  54.4356300  14.3125470 143.2740010  57.2361630  21.0884340
 143.8456120  56.4683830  21.0887980 143.2741550  57.5350390  20.1790950
 144.5164880  52.6445990  22.8753270 144.3367720  51.7471740  23.1556030
 144.1144960  53.1917860  23.5500220 147.4868390  53.2187480  16.2383020
 147.5935140  54.1191210  16.5451780 146.5760750  53.1705450  15.9477670
 145.1351550  55.1406490  21.4835610 145.8161660  55.4044860  22.1023010
 144.8199600  54.3007360  21.8173620 149.3276120  56.1873850  20.5708200
 149.8354340  56.6854820  21.2113220 149.8589360  55.4109050  20.3947560
 147.6112220  50.8272410  24.8371620 147.6130660  51.3444800  24.0317520
 146.7816530  50.3502590  24.8141550 148.8615070  60.4667590  23.0145120
 148.5284450  61.0936510  23.6566190 149.0381750  60.9929470  22.2346790
 147.2927550  52.5382370  22.8442070 147.6344360  53.3824420  22.5495940
 146.3543360  52.6866110  22.9607410 148.0734170  62.4348390  24.8294300
 148.6908170  63.1099470  24.5478750 147.2127290  62.8436370  24.7381800
 143.3666510  61.6248250  13.7101150 142.9894490  62.1135350  12.9786050
 143.6239580  62.2973530  14.3407680 150.9755440  50.0264640  19.1686660
 151.2830420  49.4711530  18.4522160 150.0456140  50.1609100  18.9859650
 148.9692840  58.6178210  18.6866510 148.5649840  57.9055460  18.1912410
 149.0555960  58.2731450  19.5754550 149.4374540  62.3045770  20.8505720
 149.1402830  61.6991240  20.1713500 150.3874360  62.3423080  20.7395080
 147.6821460  55.3921420  22.4665550 148.2336050  55.5016760  21.6918800
 148.1964970  55.7659020  23.1820780 148.5292970  62.0427460  27.5013520
 147.6321500  62.2667430  27.7486920 148.5545840  62.1662400  26.5524920
 147.3564190  58.9140780  26.0770890 147.2171960  59.7863580  26.4458290
 146.4745550  58.5713590  25.9318830 149.1544540  64.8562480  28.2856040
 149.1259970  65.2605430  27.4184470 148.9909510  63.9272840  28.1227640
 145.6697470  57.5123190  16.1873160 145.5495070  58.2385280  15.5754430
 145.3598360  56.7426100  15.7101070 143.3082840  60.6838330  21.9941800
 143.3863260  60.8187100  21.0497520 143.9224520  59.9754220  22.1869920
 144.5530470  62.3838520  18.4047980 144.1458550  62.5253110  17.5501580
 145.4443480  62.0998680  18.2019190 148.8252130  66.5984300  16.5170650
 148.6494610  65.6819840  16.3038450 147.9707870  66.9571590  16.7568450
 143.3642360  61.7252500  24.5336260 143.5273400  61.2557860  23.7155630
 143.8294810  61.2176060  25.1985100 148.1361130  50.8558260  19.5696830
 147.6929280  51.6367800  19.2381350 148.6946120  51.1788150  20.2767770
 152.4230940  53.7226780  25.1732150 151.9610310  53.9309800  25.9852090
 152.0209050  52.9086130  24.8702820 151.2519950  50.4768960  14.4502660
 150.6274130  50.4728830  15.1755970 151.1650070  49.6099920  14.0538630
 150.1737030  51.4005590  21.4286430 150.4709360  52.3068420  21.3478450
 150.7222590  50.9124370  20.8146000 147.9275350  55.9791830  17.2978080
 147.7016270  55.7629000  18.2024700 147.1467880  56.4120290  16.9524050
 150.3674560  56.8777410  27.9638350 150.2718160  55.9372140  27.8138750
 151.2106540  57.0992480  27.5686420 145.4985100  53.2891080  26.1172130
 145.1048490  54.1366290  26.3244910 144.8103500  52.6517450  26.3080770
 142.8002150  51.2119540  20.1502210 142.5115200  51.7822400  20.8627190
 143.5447910  50.7323990  20.5133440 142.9872380  55.1539660  11.3604930
 142.9047050  56.0970420  11.5019920 142.6355440  55.0114570  10.4817280
 150.7870510  53.8878690  20.4275280 150.7906570  53.4468640  19.5779820
 151.6821630  54.2096020  20.5347100 146.6372890  53.7705180  19.3869490
 146.2972940  54.2480410  20.1436540 145.8750210  53.3170300  19.0270590
 150.8490660  54.8890770  13.4182040 150.9703480  54.8477250  14.3667860
 150.4639170  55.7514920  13.2628770 149.8612160  57.1991910  12.8165340
 149.2929060  56.7510160  12.1901250 150.5701160  57.5584690  12.2830490
 144.9381340  61.1003930  26.6932070 144.5536130  60.4597600  27.2915030
 145.2493530  61.8040050  27.2626800 151.0878480  57.9480470  22.1740690
 151.4548610  57.4739040  22.9202030 150.8983540  58.8222040  22.5149030
 143.9518970  52.6924160  18.3034160 143.6665890  52.3279830  19.1412780
 143.8897830  51.9604620  17.6897300 148.8777850  56.9889110  24.4924900
 148.5734920  57.8681090  24.7175260 149.8324310  57.0488900  24.5282340
 147.4059640  61.1950100  15.0891750 146.6321900  60.6547720  14.9290470
 148.1354270  60.6756710  14.7509510 147.4497040  60.8630480  18.7270560
 147.9675710  60.0598740  18.6727450 146.9981060  60.8009620  19.5687390
 144.9341580  57.8291850  25.6396260 144.5756520  58.4945700  26.2269600
 144.6396140  56.9975400  26.0108880 148.1354700  58.2876090  28.5235810
 147.8354840  58.4333270  27.6263630 148.9065940  57.7281380  28.4309200
 151.3057230  62.2110290  16.7713780 151.9928360  62.7579500  17.1521370
 150.5189650  62.7551020  16.8063390 143.4449630  57.8283110  12.2630860
 144.3144480  58.1107910  12.5466780 142.9539950  58.6418980  12.1479670
 150.6084440  59.2156320  16.3839140 151.0647220  60.0261570  16.6099330
 150.2572650  58.8979460  17.2157630 146.5096220  49.5593970  16.8561660
 146.3810850  49.5511870  17.8046580 145.6858240  49.8977060  16.5052670
 143.8120880  67.0410490  12.8292490 144.1718520  67.6399830  12.1749760
 143.6713220  67.5870380  13.6027520 143.5090150  51.3185090  26.3168360
 142.7948670  51.5182010  26.9220970 143.9285190  50.5424660  26.6883160
 143.7962740  65.3065350  27.3034890 143.9053860  64.3660090  27.1630280
 143.1443300  65.5720100  26.6548620 151.7875330  63.5781240  28.7033010
 151.4672200  62.8590480  29.2478700 151.1133690  64.2536310  28.7769070
 149.8289500  64.4241690  13.6466160 149.8199600  65.1571380  13.0310670
 148.9087860  64.1773270  13.7393120 145.4296140  59.6456580  14.3912920
 144.8224090  60.3855480  14.4008220 145.9045490  59.7355940  13.5651120
 150.3374990  55.0450290  16.2915250 149.6291140  55.5136630  16.7328860
 150.6219470  54.3872300  16.9260440 151.9630920  56.4646990  24.2907780
 152.4616170  56.9392810  24.9559630 152.1053870  55.5410510  24.4977810
 151.4567210  67.0056250  17.0039020 151.7108710  66.9677640  16.0818390
 150.5079690  66.8789580  16.9967270 148.5410010  53.3535370  13.6665960
 149.3900540  53.7905520  13.6006150 148.1741280  53.6655630  14.4938020
 147.4401430  59.6067730  12.1401490 148.2064700  59.4949090  12.7026920
 147.5176120  58.9105700  11.4878260 146.1348190  57.0392800  12.8234380
 146.2151780  56.0920310  12.9351780 147.0267940  57.3699680  12.9295040
 146.9362900  67.1888190  19.9268920 147.6725380  66.6403650  20.1977490
 147.3203820  68.0544200  19.7874910 143.8208380  63.2561760  15.8010430
 142.8948160  63.4982900  15.7915840 144.2864810  64.0836020  15.6795180
 145.9421180  66.3734260  29.1154500 146.7433910  66.6946310  29.5289900
 145.4273000  66.0129840  29.8374410 150.0465210  66.3618500  11.7494490
 150.8393820  66.6507330  11.2976280 149.5269560  65.9310670  11.0706970
 143.6618990  58.8607720  28.0590550 144.1658010  58.2815000  28.6306780
 142.9226410  59.1447950  28.5966920 150.5642610  61.5821910  11.6136840
 150.4593250  60.9674260  12.3398220 150.3966830  61.0587800  10.8299850
 150.7156930  60.2678710  27.5926070 149.9502600  60.8363710  27.5080740
 150.8972890  59.9754920  26.6994300 145.6942070  57.0037310  28.9540620
 145.7347410  56.7051180  29.8625850 146.5487570  57.4044920  28.7948140
 149.4720460  59.6032860  14.1144130 149.8936880  59.4372730  14.9575520
 149.5971300  58.7933090  13.6199270 147.6347880  55.5829410  26.9215110
 147.1044340  55.0920360  26.2938450 148.3035950  56.0113610  26.3873040
 151.9848100  58.6270470  11.3621230 152.5053760  57.9119490  10.9962380
 152.6316500  59.2656340  11.6621740 148.1220180  52.5491780  27.0012400
 148.0277050  51.9312530  26.2763270 147.5417570  53.2758070  26.7742310
 150.8881620  51.1065020  24.0339790 150.4398920  51.1289280  23.1885340
 150.2546820  50.7084040  24.6310090 151.2941170  60.0019350  24.6552230
 151.7129280  60.8452080  24.4828470 150.3749800  60.1391390  24.4259010
 148.3679360  55.6766090  11.0602290 148.1668420  54.8133450  11.4215630
 148.1971410  55.5899450  10.1223890 149.1448590  66.3072360  25.7709960
 148.6069680  67.0318420  25.4518660 149.3982550  65.8302700  24.9807300
 150.3973840  54.2756880  27.2965890 150.9873530  53.9672730  27.9843710
 149.5794080  53.8036630  27.4525790 147.1662160  52.7766710  11.0480170
 147.4688060  52.7834140  10.1399320 147.9056750  52.4264570  11.5447830
 152.0010800  67.5423570  26.0296610 151.9269500  68.4458710  26.3368980
 151.0989640  67.2235470  26.0018680 150.3847090  51.7201330  12.0336370
 150.0369090  51.0425320  11.4538820 150.5859860  51.2590840  12.8479760
 146.1892290  62.0809130  11.8809970 146.6267160  62.6238800  12.5367550
 146.6740020  61.2556080  11.8906310 143.4038090  64.8698160  19.3330230
 143.7341100  64.0019220  19.1008870 143.8329090  65.0756680  20.1635190
 148.0000010  63.2007170  16.9932200 147.6995550  63.0772140  17.8936110
 147.8937500  62.3415760  16.5847930 143.8928300  65.7368750  22.0711860
 143.4559290  65.9169550  22.9036010 144.4605980  66.4943370  21.9293580
 143.7252730  58.2488980  18.4300740 143.0701570  57.9800620  17.7860440
 144.5630680  58.1393460  17.9802720 144.7628660  58.6341550  22.9704080
 145.1301700  58.5468950  23.8500100 144.1939480  57.8708100  22.8710940
 144.3144660  55.5450640  26.8762500 143.4200710  55.5117400  27.2156210
 144.8542210  55.7437430  27.6413750 142.9390810  55.4587910  14.3726070
 142.0354890  55.7218110  14.1977730 143.4231430  55.7299080  13.5926030
 145.4818020  54.5153450  12.2820450 146.1909720  54.0936670  11.7967730
 144.7657960  54.5828680  11.6503800 145.1292180  50.5692780  11.3223100
 145.8520310  51.1101720  11.6404320 145.4016700  50.2956200  10.4464640
 144.8184370  49.8198970  21.2245720 145.4660560  49.2696350  20.7840880
 145.2386210  50.0742120  22.0461530 144.5716370  49.9754640  23.9671040
 144.2231190  50.4318460  24.7329220 144.2404070  49.0811770  24.0493470
 146.1780740  63.1474240  28.1324230 146.1350370  62.7767150  29.0138690
 146.3091750  64.0851810  28.2726050 149.8786770  64.7033830  23.7333950
 149.6378130  64.9708390  22.8464470 150.8189410  64.8739560  23.7884810
 145.2437010  49.5030840  27.2421810 145.7920000  49.3218890  26.4787920
 145.3092320  48.7124950  27.7778120 146.0168770  66.0936490  25.2522010
 145.4229090  65.9621190  25.9912050 146.0092610  65.2574630  24.7864110
 145.6481000  63.4594870  24.2030050 144.9215060  62.8400160  24.1356000
 145.7090150  63.8535480  23.3328130 149.2526100  65.6739870  20.9879460
 149.7691120  65.0627230  20.4627720 149.9023480  66.1768650  21.4790470
 151.9921600  66.5648360  21.8148440 152.2799410  66.3102660  20.9381450
 152.5044820  66.0125720  22.4054010 143.9311000  66.7769260  17.4126810
 143.7633040  66.1439940  18.1108700 143.0645510  66.9828660  17.0621000
 144.5539020  50.6086040  14.9158670 145.3118380  50.7214920  14.3422700
 144.0916190  51.4455240  14.8702100 151.0952830  52.7225310  17.9060980
 150.2827340  52.3482200  17.5656860 151.5994470  51.9670390  18.2082170
 145.5373700  65.4702490  14.8576950 145.0121320  65.8510520  14.1538910
 145.4618280  66.0953260  15.5786660 146.9264170  51.1350090  13.4560640
 147.4556930  50.3479890  13.3268590 147.5592490  51.8141280  13.6896170
 149.1202010  50.8725230  16.5106030 148.4904750  50.1712540  16.6776160
 148.5807150  51.6329360  16.2939190 149.2457570  50.1509210  28.9458520
 148.9641840  50.6542810  28.1819340 149.6277270  49.3530960  28.5800650
 148.1366670  67.4184870  13.7326200 148.8685490  67.1344150  13.1850090
 148.3960340  67.1798150  14.6225580 147.2981460  63.5349600  13.7372530
 146.6690340  64.0034700  14.2858360 147.4129290  62.6898820  14.1718720
 146.9015050  59.6754090   2.6458760 146.0699930  59.4202800   3.0455270
 147.5096030  59.7464860   3.3816680 146.8816310  63.7094180   2.8416780
 147.1844350  62.8191920   2.6627000 147.6259900  64.2664400   2.6139030
 144.5164880  52.6445990   4.1009780 144.3367720  51.7471740   4.3812540
 144.1144960  53.1917860   4.7756730 145.1351550  55.1406490   2.7092120
 145.8161660  55.4044860   3.3279520 144.8199600  54.3007360   3.0430130
 149.3276120  56.1873850   1.7964710 149.8354340  56.6854820   2.4369730
 149.8589360  55.4109050   1.6204070 147.6112220  50.8272410   6.0628130
 147.6130660  51.3444800   5.2574030 146.7816530  50.3502590   6.0398060
 148.8615070  60.4667590   4.2401630 148.5284450  61.0936510   4.8822700
 149.0381750  60.9929470   3.4603300 147.2927550  52.5382370   4.0698580
 147.6344360  53.3824420   3.7752450 146.3543360  52.6866110   4.1863920
 148.0734170  62.4348390   6.0550810 148.6908170  63.1099470   5.7735260
 147.2127290  62.8436370   5.9638310 147.6821460  55.3921420   3.6922060
 148.2336050  55.5016760   2.9175310 148.1964970  55.7659020   4.4077290
 148.5292970  62.0427460   8.7270030 147.6321500  62.2667430   8.9743430
 148.5545840  62.1662400   7.7781430 147.3564190  58.9140780   7.3027400
 147.2171960  59.7863580   7.6714800 146.4745550  58.5713590   7.1575340
 149.1544540  64.8562480   9.5112550 149.1259970  65.2605430   8.6440980
 148.9909510  63.9272840   9.3484150 143.3082840  60.6838330   3.2198310
 143.3863260  60.8187100   2.2754030 143.9224520  59.9754220   3.4126430
 143.3642360  61.7252500   5.7592770 143.5273400  61.2557860   4.9412140
 143.8294810  61.2176060   6.4241610 152.4230940  53.7226780   6.3988660
 151.9610310  53.9309800   7.2108600 152.0209050  52.9086130   6.0959330
 150.1737030  51.4005590   2.6542940 150.4709360  52.3068420   2.5734960
 150.7222590  50.9124370   2.0402510 150.3674560  56.8777410   9.1894860
 150.2718160  55.9372140   9.0395260 151.2106540  57.0992480   8.7942930
 145.4985100  53.2891080   7.3428640 145.1048490  54.1366290   7.5501420
 144.8103500  52.6517450   7.5337280 144.9381340  61.1003930   7.9188580
 144.5536130  60.4597600   8.5171540 145.2493530  61.8040050   8.4883310
 151.0878480  57.9480470   3.3997200 151.4548610  57.4739040   4.1458540
 150.8983540  58.8222040   3.7405540 148.8777850  56.9889110   5.7181410
 148.5734920  57.8681090   5.9431770 149.8324310  57.0488900   5.7538850
 144.9341580  57.8291850   6.8652770 144.5756520  58.4945700   7.4526110
 144.6396140  56.9975400   7.2365390 148.1354700  58.2876090   9.7492320
 147.8354840  58.4333270   8.8520140 148.9065940  57.7281380   9.6565710
 143.5090150  51.3185090   7.5424870 142.7948670  51.5182010   8.1477480
 143.9285190  50.5424660   7.9139670 143.7962740  65.3065350   8.5291400
 143.9053860  64.3660090   8.3886790 143.1443300  65.5720100   7.8805130
 151.7875330  63.5781240   9.9289520 151.4672200  62.8590480  10.4735210
 151.1133690  64.2536310  10.0025580 151.9630920  56.4646990   5.5164290
 152.4616170  56.9392810   6.1816140 152.1053870  55.5410510   5.7234320
 145.9421180  66.3734260  10.3411010 146.7433910  66.6946310  10.7546410
 145.4273000  66.0129840  11.0630920 143.6618990  58.8607720   9.2847060
 144.1658010  58.2815000   9.8563290 142.9226410  59.1447950   9.8223430
 150.7156930  60.2678710   8.8182580 149.9502600  60.8363710   8.7337250
 150.8972890  59.9754920   7.9250810 145.6942070  57.0037310  10.1797130
 145.7347410  56.7051180  11.0882360 146.5487570  57.4044920  10.0204650
 147.6347880  55.5829410   8.1471620 147.1044340  55.0920360   7.5194960
 148.3035950  56.0113610   7.6129550 148.1220180  52.5491780   8.2268910
 148.0277050  51.9312530   7.5019780 147.5417570  53.2758070   7.9998820
 150.8881620  51.1065020   5.2596300 150.4398920  51.1289280   4.4141850
 150.2546820  50.7084040   5.8566600 151.2941170  60.0019350   5.8808740
 151.7129280  60.8452080   5.7084980 150.3749800  60.1391390   5.6515520
 149.1448590  66.3072360   6.9966470 148.6069680  67.0318420   6.6775170
 149.3982550  65.8302700   6.2063810 150.3973840  54.2756880   8.5222400
 150.9873530  53.9672730   9.2100220 149.5794080  53.8036630   8.6782300
 152.0010800  67.5423570   7.2553120 151.9269500  68.4458710   7.5625490
 151.0989640  67.2235470   7.2275190 143.8928300  65.7368750   3.2968370
 143.4559290  65.9169550   4.1292520 144.4605980  66.4943370   3.1550090
 144.7628660  58.6341550   4.1960590 145.1301700  58.5468950   5.0756610
 144.1939480  57.8708100   4.0967450 144.3144660  55.5450640   8.1019010
 143.4200710  55.5117400   8.4412720 144.8542210  55.7437430   8.8670260
 144.8184370  49.8198970   2.4502230 145.4660560  49.2696350   2.0097390
 145.2386210  50.0742120   3.2718040 144.5716370  49.9754640   5.1927550
 144.2231190  50.4318460   5.9585730 144.2404070  49.0811770   5.2749980
 146.1780740  63.1474240   9.3580740 146.1350370  62.7767150  10.2395200
 146.3091750  64.0851810   9.4982560 149.8786770  64.7033830   4.9590460
 149.6378130  64.9708390   4.0720980 150.8189410  64.8739560   5.0141320
 145.2437010  49.5030840   8.4678320 145.7920000  49.3218890   7.7044430
 145.3092320  48.7124950   9.0034630 146.0168770  66.0936490   6.4778520
 145.4229090  65.9621190   7.2168560 146.0092610  65.2574630   6.0120620
 145.6481000  63.4594870   5.4286560 144.9215060  62.8400160   5.3612510
 145.7090150  63.8535480   4.5584640 149.2526100  65.6739870   2.2135970
 149.7691120  65.0627230   1.6884230 149.9023480  66.1768650   2.7046980
 151.9921600  66.5648360   3.0404950 152.2799410  66.3102660   2.1637960
 152.5044820  66.0125720   3.6310520 149.2457570  50.1509210  10.1715030
 148.9641840  50.6542810   9.4075850 149.6277270  49.3530960   9.8057160
 145.3107000  35.8612490 146.6249070 144.4223700  36.2028460 146.5228950
 145.5948190  35.6612810 145.7329900 147.4868390  34.4443990 147.6587450
 147.5935140  35.3447720 147.9656210 146.5760750  34.3961960 147.3682100
 143.3666510  42.8504760 145.1305580 142.9894490  43.3391860 144.3990480
 143.6239580  43.5230040 145.7612110 150.9755440  31.2521150 150.5891090
 151.2830420  30.6968040 149.8726590 150.0456140  31.3865610 150.4064080
 148.9692840  39.8434720 150.1070940 148.5649840  39.1311970 149.6116840
 149.0555960  39.4987960 150.9958980 145.6697470  38.7379700 147.6077590
 145.5495070  39.4641790 146.9958860 145.3598360  37.9682610 147.1305500
 144.5530470  43.6095030 149.8252410 144.1458550  43.7509620 148.9706010
 145.4443480  43.3255190 149.6223620 148.8252130  47.8240810 147.9375080
 148.6494610  46.9076350 147.7242880 147.9707870  48.1828100 148.1772880
 148.1361130  32.0814770 150.9901260 147.6929280  32.8624310 150.6585780
 148.6946120  32.4044660 151.6972200 151.2519950  31.7025470 145.8707090
 150.6274130  31.6985340 146.5960400 151.1650070  30.8356430 145.4743060
 147.9275350  37.2048340 148.7182510 147.7016270  36.9885510 149.6229130
 147.1467880  37.6376800 148.3728480 142.9872380  36.3796170 142.7809360
 142.9047050  37.3226930 142.9224350 142.6355440  36.2371080 141.9021710
 146.6372890  34.9961690 150.8073920 146.2972940  35.4736920 151.5640970
 145.8750210  34.5426810 150.4475020 150.8490660  36.1147280 144.8386470
 150.9703480  36.0733760 145.7872290 150.4639170  36.9771430 144.6833200
 149.8612160  38.4248420 144.2369770 149.2929060  37.9766670 143.6105680
 150.5701160  38.7841200 143.7034920 143.9518970  33.9180670 149.7238590
 143.6665890  33.5536340 150.5617210 143.8897830  33.1861130 149.1101730
 147.4059640  42.4206610 146.5096180 146.6321900  41.8804230 146.3494900
 148.1354270  41.9013220 146.1713940 147.4497040  42.0886990 150.1474990
 147.9675710  41.2855250 150.0931880 146.9981060  42.0266130 150.9891820
 151.3057230  43.4366800 148.1918210 151.9928360  43.9836010 148.5725800
 150.5189650  43.9807530 148.2267820 143.4449630  39.0539620 143.6835290
 144.3144480  39.3364420 143.9671210 142.9539950  39.8675490 143.5684100
 150.6084440  40.4412830 147.8043570 151.0647220  41.2518080 148.0303760
 150.2572650  40.1235970 148.6362060 146.5096220  30.7850480 148.2766090
 146.3810850  30.7768380 149.2251010 145.6858240  31.1233570 147.9257100
 143.8120880  48.2667000 144.2496920 144.1718520  48.8656340 143.5954190
 143.6713220  48.8126890 145.0231950 149.8289500  45.6498200 145.0670590
 149.8199600  46.3827890 144.4515100 148.9087860  45.4029780 145.1597550
 145.4296140  40.8713090 145.8117350 144.8224090  41.6111990 145.8212650
 145.9045490  40.9612450 144.9855550 150.3374990  36.2706800 147.7119680
 149.6291140  36.7393140 148.1533290 150.6219470  35.6128810 148.3464870
 151.4567210  48.2312760 148.4243450 151.7108710  48.1934150 147.5022820
 150.5079690  48.1046090 148.4171700 148.5410010  34.5791880 145.0870390
 149.3900540  35.0162030 145.0210580 148.1741280  34.8912140 145.9142450
 147.4401430  40.8324240 143.5605920 148.2064700  40.7205600 144.1231350
 147.5176120  40.1362210 142.9082690 146.1348190  38.2649310 144.2438810
 146.2151780  37.3176820 144.3556210 147.0267940  38.5956190 144.3499470
 146.9362900  48.4144700 151.3473350 147.6725380  47.8660160 151.6181920
 147.3203820  49.2800710 151.2079340 143.8208380  44.4818270 147.2214860
 142.8948160  44.7239410 147.2120270 144.2864810  45.3092530 147.0999610
 150.0465210  47.5875010 143.1698920 150.8393820  47.8763840 142.7180710
 149.5269560  47.1567180 142.4911400 150.5642610  42.8078420 143.0341270
 150.4593250  42.1930770 143.7602650 150.3966830  42.2844310 142.2504280
 149.4720460  40.8289370 145.5348560 149.8936880  40.6629240 146.3779950
 149.5971300  40.0189600 145.0403700 151.9848100  39.8526980 142.7825660
 152.5053760  39.1376000 142.4166810 152.6316500  40.4912850 143.0826170
 148.3679360  36.9022600 142.4806720 148.1668420  36.0389960 142.8420060
 148.1971410  36.8155960 141.5428320 147.1662160  34.0023220 142.4684600
 147.4688060  34.0090650 141.5603750 147.9056750  33.6521080 142.9652260
 150.3847090  32.9457840 143.4540800 150.0369090  32.2681830 142.8743250
 150.5859860  32.4847350 144.2684190 146.1892290  43.3065640 143.3014400
 146.6267160  43.8495310 143.9571980 146.6740020  42.4812590 143.3110740
 143.4038090  46.0954670 150.7534660 143.7341100  45.2275730 150.5213300
 143.8329090  46.3013190 151.5839620 148.0000010  44.4263680 148.4136630
 147.6995550  44.3028650 149.3140540 147.8937500  43.5672270 148.0052360
 143.7252730  39.4745490 149.8505170 143.0701570  39.2057130 149.2064870
 144.5630680  39.3649970 149.4007150 142.9390810  36.6844420 145.7930500
 142.0354890  36.9474620 145.6182160 143.4231430  36.9555590 145.0130460
 145.4818020  35.7409960 143.7024880 146.1909720  35.3193180 143.2172160
 144.7657960  35.8085190 143.0708230 145.1292180  31.7949290 142.7427530
 145.8520310  32.3358230 143.0608750 145.4016700  31.5212710 141.8669070
 143.9311000  48.0025770 148.8331240 143.7633040  47.3696450 149.5313130
 143.0645510  48.2085170 148.4825430 144.5539020  31.8342550 146.3363100
 145.3118380  31.9471430 145.7627130 144.0916190  32.6711750 146.2906530
 151.0952830  33.9481820 149.3265410 150.2827340  33.5738710 148.9861290
 151.5994470  33.1926900 149.6286600 145.5373700  46.6959000 146.2781380
 145.0121320  47.0767030 145.5743340 145.4618280  47.3209770 146.9991090
 146.9264170  32.3606600 144.8765070 147.4556930  31.5736400 144.7473020
 147.5592490  33.0397790 145.1100600 149.1202010  32.0981740 147.9310460
 148.4904750  31.3969050 148.0980590 148.5807150  32.8585870 147.7143620
 148.1366670  48.6441380 145.1530630 148.8685490  48.3600660 144.6054520
 148.3960340  48.4054660 146.0430010 147.2981460  44.7606110 145.1576960
 146.6690340  45.2291210 145.7062790 147.4129290  43.9155330 145.5923150
 146.9015050  40.9010600 134.0663190 146.0699930  40.6459310 134.4659700
 147.5096030  40.9721370 134.8021110 146.8816310  44.9350690 134.2621210
 147.1844350  44.0448430 134.0831430 147.6259900  45.4920910 134.0343460
 145.3107000  35.8612490 127.8505580 144.4223700  36.2028460 127.7485460
 145.5948190  35.6612810 126.9586410 143.2740010  38.4618140 133.7345280
 143.8456120  37.6940340 133.7348920 143.2741550  38.7606900 132.8251890
 144.5164880  33.8702500 135.5214210 144.3367720  32.9728250 135.8016970
 144.1144960  34.4174370 136.1961160 147.4868390  34.4443990 128.8843960
 147.5935140  35.3447720 129.1912720 146.5760750  34.3961960 128.5938610
 145.1351550  36.3663000 134.1296550 145.8161660  36.6301370 134.7483950
 144.8199600  35.5263870 134.4634560 149.3276120  37.4130360 133.2169140
 149.8354340  37.9111330 133.8574160 149.8589360  36.6365560 133.0408500
 147.6112220  32.0528920 137.4832560 147.6130660  32.5701310 136.6778460
 146.7816530  31.5759100 137.4602490 148.8615070  41.6924100 135.6606060
 148.5284450  42.3193020 136.3027130 149.0381750  42.2185980 134.8807730
 147.2927550  33.7638880 135.4903010 147.6344360  34.6080930 135.1956880
 146.3543360  33.9122620 135.6068350 148.0734170  43.6604900 137.4755240
 148.6908170  44.3355980 137.1939690 147.2127290  44.0692880 137.3842740
 143.3666510  42.8504760 126.3562090 142.9894490  43.3391860 125.6246990
 143.6239580  43.5230040 126.9868620 150.9755440  31.2521150 131.8147600
 151.2830420  30.6968040 131.0983100 150.0456140  31.3865610 131.6320590
 148.9692840  39.8434720 131.3327450 148.5649840  39.1311970 130.8373350
 149.0555960  39.4987960 132.2215490 149.4374540  43.5302280 133.4966660
 149.1402830  42.9247750 132.8174440 150.3874360  43.5679590 133.3856020
 147.6821460  36.6177930 135.1126490 148.2336050  36.7273270 134.3379740
 148.1964970  36.9915530 135.8281720 148.5292970  43.2683970 140.1474460
 147.6321500  43.4923940 140.3947860 148.5545840  43.3918910 139.1985860
 147.3564190  40.1397290 138.7231830 147.2171960  41.0120090 139.0919230
 146.4745550  39.7970100 138.5779770 149.1544540  46.0818990 140.9316980
 149.1259970  46.4861940 140.0645410 148.9909510  45.1529350 140.7688580
 145.6697470  38.7379700 128.8334100 145.5495070  39.4641790 128.2215370
 145.3598360  37.9682610 128.3562010 143.3082840  41.9094840 134.6402740
 143.3863260  42.0443610 133.6958460 143.9224520  41.2010730 134.8330860
 144.5530470  43.6095030 131.0508920 144.1458550  43.7509620 130.1962520
 145.4443480  43.3255190 130.8480130 148.8252130  47.8240810 129.1631590
 148.6494610  46.9076350 128.9499390 147.9707870  48.1828100 129.4029390
 143.3642360  42.9509010 137.1797200 143.5273400  42.4814370 136.3616570
 143.8294810  42.4432570 137.8446040 148.1361130  32.0814770 132.2157770
 147.6929280  32.8624310 131.8842290 148.6946120  32.4044660 132.9228710
 152.4230940  34.9483290 137.8193090 151.9610310  35.1566310 138.6313030
 152.0209050  34.1342640 137.5163760 151.2519950  31.7025470 127.0963600
 150.6274130  31.6985340 127.8216910 151.1650070  30.8356430 126.6999570
 150.1737030  32.6262100 134.0747370 150.4709360  33.5324930 133.9939390
 150.7222590  32.1380880 133.4606940 147.9275350  37.2048340 129.9439020
 147.7016270  36.9885510 130.8485640 147.1467880  37.6376800 129.5984990
 150.3674560  38.1033920 140.6099290 150.2718160  37.1628650 140.4599690
 151.2106540  38.3248990 140.2147360 145.4985100  34.5147590 138.7633070
 145.1048490  35.3622800 138.9705850 144.8103500  33.8773960 138.9541710
 142.8002150  32.4376050 132.7963150 142.5115200  33.0078910 133.5088130
 143.5447910  31.9580500 133.1594380 142.9872380  36.3796170 124.0065870
 142.9047050  37.3226930 124.1480860 142.6355440  36.2371080 123.1278220
 150.7870510  35.1135200 133.0736220 150.7906570  34.6725150 132.2240760
 151.6821630  35.4352530 133.1808040 146.6372890  34.9961690 132.0330430
 146.2972940  35.4736920 132.7897480 145.8750210  34.5426810 131.6731530
 150.8490660  36.1147280 126.0642980 150.9703480  36.0733760 127.0128800
 150.4639170  36.9771430 125.9089710 149.8612160  38.4248420 125.4626280
 149.2929060  37.9766670 124.8362190 150.5701160  38.7841200 124.9291430
 144.9381340  42.3260440 139.3393010 144.5536130  41.6854110 139.9375970
 145.2493530  43.0296560 139.9087740 151.0878480  39.1736980 134.8201630
 151.4548610  38.6995550 135.5662970 150.8983540  40.0478550 135.1609970
 143.9518970  33.9180670 130.9495100 143.6665890  33.5536340 131.7873720
 143.8897830  33.1861130 130.3358240 148.8777850  38.2145620 137.1385840
 148.5734920  39.0937600 137.3636200 149.8324310  38.2745410 137.1743280
 147.4059640  42.4206610 127.7352690 146.6321900  41.8804230 127.5751410
 148.1354270  41.9013220 127.3970450 147.4497040  42.0886990 131.3731500
 147.9675710  41.2855250 131.3188390 146.9981060  42.0266130 132.2148330
 144.9341580  39.0548360 138.2857200 144.5756520  39.7202210 138.8730540
 144.6396140  38.2231910 138.6569820 148.1354700  39.5132600 141.1696750
 147.8354840  39.6589780 140.2724570 148.9065940  38.9537890 141.0770140
 151.3057230  43.4366800 129.4174720 151.9928360  43.9836010 129.7982310
 150.5189650  43.9807530 129.4524330 143.4449630  39.0539620 124.9091800
 144.3144480  39.3364420 125.1927720 142.9539950  39.8675490 124.7940610
 150.6084440  40.4412830 129.0300080 151.0647220  41.2518080 129.2560270
 150.2572650  40.1235970 129.8618570 146.5096220  30.7850480 129.5022600
 146.3810850  30.7768380 130.4507520 145.6858240  31.1233570 129.1513610
 143.8120880  48.2667000 125.4753430 144.1718520  48.8656340 124.8210700
 143.6713220  48.8126890 126.2488460 143.5090150  32.5441600 138.9629300
 142.7948670  32.7438520 139.5681910 143.9285190  31.7681170 139.3344100
 143.7962740  46.5321860 139.9495830 143.9053860  45.5916600 139.8091220
 143.1443300  46.7976610 139.3009560 151.7875330  44.8037750 141.3493950
 151.4672200  44.0846990 141.8939640 151.1133690  45.4792820 141.4230010
 149.8289500  45.6498200 126.2927100 149.8199600  46.3827890 125.6771610
 148.9087860  45.4029780 126.3854060 145.4296140  40.8713090 127.0373860
 144.8224090  41.6111990 127.0469160 145.9045490  40.9612450 126.2112060
 150.3374990  36.2706800 128.9376190 149.6291140  36.7393140 129.3789800
 150.6219470  35.6128810 129.5721380 151.9630920  37.6903500 136.9368720
 152.4616170  38.1649320 137.6020570 152.1053870  36.7667020 137.1438750
 151.4567210  48.2312760 129.6499960 151.7108710  48.1934150 128.7279330
 150.5079690  48.1046090 129.6428210 148.5410010  34.5791880 126.3126900
 149.3900540  35.0162030 126.2467090 148.1741280  34.8912140 127.1398960
 147.4401430  40.8324240 124.7862430 148.2064700  40.7205600 125.3487860
 147.5176120  40.1362210 124.1339200 146.1348190  38.2649310 125.4695320
 146.2151780  37.3176820 125.5812720 147.0267940  38.5956190 125.5755980
 146.9362900  48.4144700 132.5729860 147.6725380  47.8660160 132.8438430
 147.3203820  49.2800710 132.4335850 143.8208380  44.4818270 128.4471370
 142.8948160  44.7239410 128.4376780 144.2864810  45.3092530 128.3256120
 145.9421180  47.5990770 141.7615440 146.7433910  47.9202820 142.1750840
 145.4273000  47.2386350 142.4835350 150.0465210  47.5875010 124.3955430
 150.8393820  47.8763840 123.9437220 149.5269560  47.1567180 123.7167910
 143.6618990  40.0864230 140.7051490 144.1658010  39.5071510 141.2767720
 142.9226410  40.3704460 141.2427860 150.5642610  42.8078420 124.2597780
 150.4593250  42.1930770 124.9859160 150.3966830  42.2844310 123.4760790
 150.7156930  41.4935220 140.2387010 149.9502600  42.0620220 140.1541680
 150.8972890  41.2011430 139.3455240 145.6942070  38.2293820 141.6001560
 145.7347410  37.9307690 142.5086790 146.5487570  38.6301430 141.4409080
 149.4720460  40.8289370 126.7605070 149.8936880  40.6629240 127.6036460
 149.5971300  40.0189600 126.2660210 147.6347880  36.8085920 139.5676050
 147.1044340  36.3176870 138.9399390 148.3035950  37.2370120 139.0333980
 151.9848100  39.8526980 124.0082170 152.5053760  39.1376000 123.6423320
 152.6316500  40.4912850 124.3082680 148.1220180  33.7748290 139.6473340
 148.0277050  33.1569040 138.9224210 147.5417570  34.5014580 139.4203250
 150.8881620  32.3321530 136.6800730 150.4398920  32.3545790 135.8346280
 150.2546820  31.9340550 137.2771030 151.2941170  41.2275860 137.3013170
 151.7129280  42.0708590 137.1289410 150.3749800  41.3647900 137.0719950
 148.3679360  36.9022600 123.7063230 148.1668420  36.0389960 124.0676570
 148.1971410  36.8155960 122.7684830 149.1448590  47.5328870 138.4170900
 148.6069680  48.2574930 138.0979600 149.3982550  47.0559210 137.6268240
 150.3973840  35.5013390 139.9426830 150.9873530  35.1929240 140.6304650
 149.5794080  35.0293140 140.0986730 147.1662160  34.0023220 123.6941110
 147.4688060  34.0090650 122.7860260 147.9056750  33.6521080 124.1908770
 152.0010800  48.7680080 138.6757550 151.9269500  49.6715220 138.9829920
 151.0989640  48.4491980 138.6479620 150.3847090  32.9457840 124.6797310
 150.0369090  32.2681830 124.0999760 150.5859860  32.4847350 125.4940700
 146.1892290  43.3065640 124.5270910 146.6267160  43.8495310 125.1828490
 146.6740020  42.4812590 124.5367250 143.4038090  46.0954670 131.9791170
 143.7341100  45.2275730 131.7469810 143.8329090  46.3013190 132.8096130
 148.0000010  44.4263680 129.6393140 147.6995550  44.3028650 130.5397050
 147.8937500  43.5672270 129.2308870 143.8928300  46.9625260 134.7172800
 143.4559290  47.1426060 135.5496950 144.4605980  47.7199880 134.5754520
 143.7252730  39.4745490 131.0761680 143.0701570  39.2057130 130.4321380
 144.5630680  39.3649970 130.6263660 144.7628660  39.8598060 135.6165020
 145.1301700  39.7725460 136.4961040 144.1939480  39.0964610 135.5171880
 144.3144660  36.7707150 139.5223440 143.4200710  36.7373910 139.8617150
 144.8542210  36.9693940 140.2874690 142.9390810  36.6844420 127.0187010
 142.0354890  36.9474620 126.8438670 143.4231430  36.9555590 126.2386970
 145.4818020  35.7409960 124.9281390 146.1909720  35.3193180 124.4428670
 144.7657960  35.8085190 124.2964740 145.1292180  31.7949290 123.9684040
 145.8520310  32.3358230 124.2865260 145.4016700  31.5212710 123.0925580
 144.8184370  31.0455480 133.8706660 145.4660560  30.4952860 133.4301820
 145.2386210  31.2998630 134.6922470 144.5716370  31.2011150 136.6131980
 144.2231190  31.6574970 137.3790160 144.2404070  30.3068280 136.6954410
 146.1780740  44.3730750 140.7785170 146.1350370  44.0023660 141.6599630
 146.3091750  45.3108320 140.9186990 149.8786770  45.9290340 136.3794890
 149.6378130  46.1964900 135.4925410 150.8189410  46.0996070 136.4345750
 145.2437010  30.7287350 139.8882750 145.7920000  30.5475400 139.1248860
 145.3092320  29.9381460 140.4239060 146.0168770  47.3193000 137.8982950
 145.4229090  47.1877700 138.6372990 146.0092610  46.4831140 137.4325050
 145.6481000  44.6851380 136.8490990 144.9215060  44.0656670 136.7816940
 145.7090150  45.0791990 135.9789070 149.2526100  46.8996380 133.6340400
 149.7691120  46.2883740 133.1088660 149.9023480  47.4025160 134.1251410
 151.9921600  47.7904870 134.4609380 152.2799410  47.5359170 133.5842390
 152.5044820  47.2382230 135.0514950 143.9311000  48.0025770 130.0587750
 143.7633040  47.3696450 130.7569640 143.0645510  48.2085170 129.7081940
 144.5539020  31.8342550 127.5619610 145.3118380  31.9471430 126.9883640
 144.0916190  32.6711750 127.5163040 151.0952830  33.9481820 130.5521920
 150.2827340  33.5738710 130.2117800 151.5994470  33.1926900 130.8543110
 145.5373700  46.6959000 127.5037890 145.0121320  47.0767030 126.7999850
 145.4618280  47.3209770 128.2247600 146.9264170  32.3606600 126.1021580
 147.4556930  31.5736400 125.9729530 147.5592490  33.0397790 126.3357110
 149.1202010  32.0981740 129.1566970 148.4904750  31.3969050 129.3237100
 148.5807150  32.8585870 128.9400130 149.2457570  31.3765720 141.5919460
 148.9641840  31.8799320 140.8280280 149.6277270  30.5787470 141.2261590
 148.1366670  48.6441380 126.3787140 148.8685490  48.3600660 125.8311030
 148.3960340  48.4054660 127.2686520 147.2981460  44.7606110 126.3833470
 146.6690340  45.2291210 126.9319300 147.4129290  43.9155330 126.8179660
 146.9015050  40.9010600 115.2919700 146.0699930  40.6459310 115.6916210
 147.5096030  40.9721370 116.0277620 146.8816310  44.9350690 115.4877720
 147.1844350  44.0448430 115.3087940 147.6259900  45.4920910 115.2599970
 145.3107000  35.8612490 109.0762090 144.4223700  36.2028460 108.9741970
 145.5948190  35.6612810 108.1842920 143.2740010  38.4618140 114.9601790
 143.8456120  37.6940340 114.9605430 143.2741550  38.7606900 114.0508400
 144.5164880  33.8702500 116.7470720 144.3367720  32.9728250 117.0273480
 144.1144960  34.4174370 117.4217670 147.4868390  34.4443990 110.1100470
 147.5935140  35.3447720 110.4169230 146.5760750  34.3961960 109.8195120
 145.1351550  36.3663000 115.3553060 145.8161660  36.6301370 115.9740460
 144.8199600  35.5263870 115.6891070 149.3276120  37.4130360 114.4425650
 149.8354340  37.9111330 115.0830670 149.8589360  36.6365560 114.2665010
 147.6112220  32.0528920 118.7089070 147.6130660  32.5701310 117.9034970
 146.7816530  31.5759100 118.6859000 148.8615070  41.6924100 116.8862570
 148.5284450  42.3193020 117.5283640 149.0381750  42.2185980 116.1064240
 147.2927550  33.7638880 116.7159520 147.6344360  34.6080930 116.4213390
 146.3543360  33.9122620 116.8324860 148.0734170  43.6604900 118.7011750
 148.6908170  44.3355980 118.4196200 147.2127290  44.0692880 118.6099250
 143.3666510  42.8504760 107.5818600 142.9894490  43.3391860 106.8503500
 143.6239580  43.5230040 108.2125130 150.9755440  31.2521150 113.0404110
 151.2830420  30.6968040 112.3239610 150.0456140  31.3865610 112.8577100
 148.9692840  39.8434720 112.5583960 148.5649840  39.1311970 112.0629860
 149.0555960  39.4987960 113.4472000 149.4374540  43.5302280 114.7223170
 149.1402830  42.9247750 114.0430950 150.3874360  43.5679590 114.6112530
 147.6821460  36.6177930 116.3383000 148.2336050  36.7273270 115.5636250
 148.1964970  36.9915530 117.0538230 148.5292970  43.2683970 121.3730970
 147.6321500  43.4923940 121.6204370 148.5545840  43.3918910 120.4242370
 147.3564190  40.1397290 119.9488340 147.2171960  41.0120090 120.3175740
 146.4745550  39.7970100 119.8036280 149.1544540  46.0818990 122.1573490
 149.1259970  46.4861940 121.2901920 148.9909510  45.1529350 121.9945090
 145.6697470  38.7379700 110.0590610 145.5495070  39.4641790 109.4471880
 145.3598360  37.9682610 109.5818520 143.3082840  41.9094840 115.8659250
 143.3863260  42.0443610 114.9214970 143.9224520  41.2010730 116.0587370
 144.5530470  43.6095030 112.2765430 144.1458550  43.7509620 111.4219030
 145.4443480  43.3255190 112.0736640 148.8252130  47.8240810 110.3888100
 148.6494610  46.9076350 110.1755900 147.9707870  48.1828100 110.6285900
 143.3642360  42.9509010 118.4053710 143.5273400  42.4814370 117.5873080
 143.8294810  42.4432570 119.0702550 148.1361130  32.0814770 113.4414280
 147.6929280  32.8624310 113.1098800 148.6946120  32.4044660 114.1485220
 152.4230940  34.9483290 119.0449600 151.9610310  35.1566310 119.8569540
 152.0209050  34.1342640 118.7420270 151.2519950  31.7025470 108.3220110
 150.6274130  31.6985340 109.0473420 151.1650070  30.8356430 107.9256080
 150.1737030  32.6262100 115.3003880 150.4709360  33.5324930 115.2195900
 150.7222590  32.1380880 114.6863450 147.9275350  37.2048340 111.1695530
 147.7016270  36.9885510 112.0742150 147.1467880  37.6376800 110.8241500
 150.3674560  38.1033920 121.8355800 150.2718160  37.1628650 121.6856200
 151.2106540  38.3248990 121.4403870 145.4985100  34.5147590 119.9889580
 145.1048490  35.3622800 120.1962360 144.8103500  33.8773960 120.1798220
 142.8002150  32.4376050 114.0219660 142.5115200  33.0078910 114.7344640
 143.5447910  31.9580500 114.3850890 142.9872380  36.3796170 105.2322380
 142.9047050  37.3226930 105.3737370 142.6355440  36.2371080 104.3534730
 150.7870510  35.1135200 114.2992730 150.7906570  34.6725150 113.4497270
 151.6821630  35.4352530 114.4064550 146.6372890  34.9961690 113.2586940
 146.2972940  35.4736920 114.0153990 145.8750210  34.5426810 112.8988040
 150.8490660  36.1147280 107.2899490 150.9703480  36.0733760 108.2385310
 150.4639170  36.9771430 107.1346220 149.8612160  38.4248420 106.6882790
 149.2929060  37.9766670 106.0618700 150.5701160  38.7841200 106.1547940
 144.9381340  42.3260440 120.5649520 144.5536130  41.6854110 121.1632480
 145.2493530  43.0296560 121.1344250 151.0878480  39.1736980 116.0458140
 151.4548610  38.6995550 116.7919480 150.8983540  40.0478550 116.3866480
 143.9518970  33.9180670 112.1751610 143.6665890  33.5536340 113.0130230
 143.8897830  33.1861130 111.5614750 148.8777850  38.2145620 118.3642350
 148.5734920  39.0937600 118.5892710 149.8324310  38.2745410 118.3999790
 147.4059640  42.4206610 108.9609200 146.6321900  41.8804230 108.8007920
 148.1354270  41.9013220 108.6226960 147.4497040  42.0886990 112.5988010
 147.9675710  41.2855250 112.5444900 146.9981060  42.0266130 113.4404840
 144.9341580  39.0548360 119.5113710 144.5756520  39.7202210 120.0987050
 144.6396140  38.2231910 119.8826330 148.1354700  39.5132600 122.3953260
 147.8354840  39.6589780 121.4981080 148.9065940  38.9537890 122.3026650
 151.3057230  43.4366800 110.6431230 151.9928360  43.9836010 111.0238820
 150.5189650  43.9807530 110.6780840 143.4449630  39.0539620 106.1348310
 144.3144480  39.3364420 106.4184230 142.9539950  39.8675490 106.0197120
 150.6084440  40.4412830 110.2556590 151.0647220  41.2518080 110.4816780
 150.2572650  40.1235970 111.0875080 146.5096220  30.7850480 110.7279110
 146.3810850  30.7768380 111.6764030 145.6858240  31.1233570 110.3770120
 143.8120880  48.2667000 106.7009940 144.1718520  48.8656340 106.0467210
 143.6713220  48.8126890 107.4744970 143.5090150  32.5441600 120.1885810
 142.7948670  32.7438520 120.7938420 143.9285190  31.7681170 120.5600610
 143.7962740  46.5321860 121.1752340 143.9053860  45.5916600 121.0347730
 143.1443300  46.7976610 120.5266070 151.7875330  44.8037750 122.5750460
 151.4672200  44.0846990 123.1196150 151.1133690  45.4792820 122.6486520
 149.8289500  45.6498200 107.5183610 149.8199600  46.3827890 106.9028120
 148.9087860  45.4029780 107.6110570 145.4296140  40.8713090 108.2630370
 144.8224090  41.6111990 108.2725670 145.9045490  40.9612450 107.4368570
 150.3374990  36.2706800 110.1632700 149.6291140  36.7393140 110.6046310
 150.6219470  35.6128810 110.7977890 151.9630920  37.6903500 118.1625230
 152.4616170  38.1649320 118.8277080 152.1053870  36.7667020 118.3695260
 151.4567210  48.2312760 110.8756470 151.7108710  48.1934150 109.9535840
 150.5079690  48.1046090 110.8684720 148.5410010  34.5791880 107.5383410
 149.3900540  35.0162030 107.4723600 148.1741280  34.8912140 108.3655470
 147.4401430  40.8324240 106.0118940 148.2064700  40.7205600 106.5744370
 147.5176120  40.1362210 105.3595710 146.1348190  38.2649310 106.6951830
 146.2151780  37.3176820 106.8069230 147.0267940  38.5956190 106.8012490
 146.9362900  48.4144700 113.7986370 147.6725380  47.8660160 114.0694940
 147.3203820  49.2800710 113.6592360 143.8208380  44.4818270 109.6727880
 142.8948160  44.7239410 109.6633290 144.2864810  45.3092530 109.5512630
 145.9421180  47.5990770 122.9871950 146.7433910  47.9202820 123.4007350
 145.4273000  47.2386350 123.7091860 150.0465210  47.5875010 105.6211940
 150.8393820  47.8763840 105.1693730 149.5269560  47.1567180 104.9424420
 143.6618990  40.0864230 121.9308000 144.1658010  39.5071510 122.5024230
 142.9226410  40.3704460 122.4684370 150.5642610  42.8078420 105.4854290
 150.4593250  42.1930770 106.2115670 150.3966830  42.2844310 104.7017300
 150.7156930  41.4935220 121.4643520 149.9502600  42.0620220 121.3798190
 150.8972890  41.2011430 120.5711750 145.6942070  38.2293820 122.8258070
 145.7347410  37.9307690 123.7343300 146.5487570  38.6301430 122.6665590
 149.4720460  40.8289370 107.9861580 149.8936880  40.6629240 108.8292970
 149.5971300  40.0189600 107.4916720 147.6347880  36.8085920 120.7932560
 147.1044340  36.3176870 120.1655900 148.3035950  37.2370120 120.2590490
 151.9848100  39.8526980 105.2338680 152.5053760  39.1376000 104.8679830
 152.6316500  40.4912850 105.5339190 148.1220180  33.7748290 120.8729850
 148.0277050  33.1569040 120.1480720 147.5417570  34.5014580 120.6459760
 150.8881620  32.3321530 117.9057240 150.4398920  32.3545790 117.0602790
 150.2546820  31.9340550 118.5027540 151.2941170  41.2275860 118.5269680
 151.7129280  42.0708590 118.3545920 150.3749800  41.3647900 118.2976460
 148.3679360  36.9022600 104.9319740 148.1668420  36.0389960 105.2933080
 148.1971410  36.8155960 103.9941340 149.1448590  47.5328870 119.6427410
 148.6069680  48.2574930 119.3236110 149.3982550  47.0559210 118.8524750
 150.3973840  35.5013390 121.1683340 150.9873530  35.1929240 121.8561160
 149.5794080  35.0293140 121.3243240 147.1662160  34.0023220 104.9197620
 147.4688060  34.0090650 104.0116770 147.9056750  33.6521080 105.4165280
 152.0010800  48.7680080 119.9014060 151.9269500  49.6715220 120.2086430
 151.0989640  48.4491980 119.8736130 150.3847090  32.9457840 105.9053820
 150.0369090  32.2681830 105.3256270 150.5859860  32.4847350 106.7197210
 146.1892290  43.3065640 105.7527420 146.6267160  43.8495310 106.4085000
 146.6740020  42.4812590 105.7623760 143.4038090  46.0954670 113.2047680
 143.7341100  45.2275730 112.9726320 143.8329090  46.3013190 114.0352640
 148.0000010  44.4263680 110.8649650 147.6995550  44.3028650 111.7653560
 147.8937500  43.5672270 110.4565380 143.8928300  46.9625260 115.9429310
 143.4559290  47.1426060 116.7753460 144.4605980  47.7199880 115.8011030
 143.7252730  39.4745490 112.3018190 143.0701570  39.2057130 111.6577890
 144.5630680  39.3649970 111.8520170 144.7628660  39.8598060 116.8421530
 145.1301700  39.7725460 117.7217550 144.1939480  39.0964610 116.7428390
 144.3144660  36.7707150 120.7479950 143.4200710  36.7373910 121.0873660
 144.8542210  36.9693940 121.5131200 142.9390810  36.6844420 108.2443520
 142.0354890  36.9474620 108.0695180 143.4231430  36.9555590 107.4643480
 145.4818020  35.7409960 106.1537900 146.1909720  35.3193180 105.6685180
 144.7657960  35.8085190 105.5221250 145.1292180  31.7949290 105.1940550
 145.8520310  32.3358230 105.5121770 145.4016700  31.5212710 104.3182090
 144.8184370  31.0455480 115.0963170 145.4660560  30.4952860 114.6558330
 145.2386210  31.2998630 115.9178980 144.5716370  31.2011150 117.8388490
 144.2231190  31.6574970 118.6046670 144.2404070  30.3068280 117.9210920
 146.1780740  44.3730750 122.0041680 146.1350370  44.0023660 122.8856140
 146.3091750  45.3108320 122.1443500 149.8786770  45.9290340 117.6051400
 149.6378130  46.1964900 116.7181920 150.8189410  46.0996070 117.6602260
 145.2437010  30.7287350 121.1139260 145.7920000  30.5475400 120.3505370
 145.3092320  29.9381460 121.6495570 146.0168770  47.3193000 119.1239460
 145.4229090  47.1877700 119.8629500 146.0092610  46.4831140 118.6581560
 145.6481000  44.6851380 118.0747500 144.9215060  44.0656670 118.0073450
 145.7090150  45.0791990 117.2045580 149.2526100  46.8996380 114.8596910
 149.7691120  46.2883740 114.3345170 149.9023480  47.4025160 115.3507920
 151.9921600  47.7904870 115.6865890 152.2799410  47.5359170 114.8098900
 152.5044820  47.2382230 116.2771460 143.9311000  48.0025770 111.2844260
 143.7633040  47.3696450 111.9826150 143.0645510  48.2085170 110.9338450
 144.5539020  31.8342550 108.7876120 145.3118380  31.9471430 108.2140150
 144.0916190  32.6711750 108.7419550 151.0952830  33.9481820 111.7778430
 150.2827340  33.5738710 111.4374310 151.5994470  33.1926900 112.0799620
 145.5373700  46.6959000 108.7294400 145.0121320  47.0767030 108.0256360
 145.4618280  47.3209770 109.4504110 146.9264170  32.3606600 107.3278090
 147.4556930  31.5736400 107.1986040 147.5592490  33.0397790 107.5613620
 149.1202010  32.0981740 110.3823480 148.4904750  31.3969050 110.5493610
 148.5807150  32.8585870 110.1656640 149.2457570  31.3765720 122.8175970
 148.9641840  31.8799320 122.0536790 149.6277270  30.5787470 122.4518100
 148.1366670  48.6441380 107.6043650 148.8685490  48.3600660 107.0567540
 148.3960340  48.4054660 108.4943030 147.2981460  44.7606110 107.6089980
 146.6690340  45.2291210 108.1575810 147.4129290  43.9155330 108.0436170
 146.9015050  40.9010600  96.5176210 146.0699930  40.6459310  96.9172720
 147.5096030  40.9721370  97.2534130 146.8816310  44.9350690  96.7134230
 147.1844350  44.0448430  96.5344450 147.6259900  45.4920910  96.4856480
 145.3107000  35.8612490  90.3018600 144.4223700  36.2028460  90.1998480
 145.5948190  35.6612810  89.4099430 143.2740010  38.4618140  96.1858300
 143.8456120  37.6940340  96.1861940 143.2741550  38.7606900  95.2764910
 144.5164880  33.8702500  97.9727230 144.3367720  32.9728250  98.2529990
 144.1144960  34.4174370  98.6474180 147.4868390  34.4443990  91.3356980
 147.5935140  35.3447720  91.6425740 146.5760750  34.3961960  91.0451630
 145.1351550  36.3663000  96.5809570 145.8161660  36.6301370  97.1996970
 144.8199600  35.5263870  96.9147580 149.3276120  37.4130360  95.6682160
 149.8354340  37.9111330  96.3087180 149.8589360  36.6365560  95.4921520
 147.6112220  32.0528920  99.9345580 147.6130660  32.5701310  99.1291480
 146.7816530  31.5759100  99.9115510 148.8615070  41.6924100  98.1119080
 148.5284450  42.3193020  98.7540150 149.0381750  42.2185980  97.3320750
 147.2927550  33.7638880  97.9416030 147.6344360  34.6080930  97.6469900
 146.3543360  33.9122620  98.0581370 148.0734170  43.6604900  99.9268260
 148.6908170  44.3355980  99.6452710 147.2127290  44.0692880  99.8355760
 143.3666510  42.8504760  88.8075110 142.9894490  43.3391860  88.0760010
 143.6239580  43.5230040  89.4381640 150.9755440  31.2521150  94.2660620
 151.2830420  30.6968040  93.5496120 150.0456140  31.3865610  94.0833610
 148.9692840  39.8434720  93.7840470 148.5649840  39.1311970  93.2886370
 149.0555960  39.4987960  94.6728510 149.4374540  43.5302280  95.9479680
 149.1402830  42.9247750  95.2687460 150.3874360  43.5679590  95.8369040
 147.6821460  36.6177930  97.5639510 148.2336050  36.7273270  96.7892760
 148.1964970  36.9915530  98.2794740 148.5292970  43.2683970 102.5987480
 147.6321500  43.4923940 102.8460880 148.5545840  43.3918910 101.6498880
 147.3564190  40.1397290 101.1744850 147.2171960  41.0120090 101.5432250
 146.4745550  39.7970100 101.0292790 149.1544540  46.0818990 103.3830000
 149.1259970  46.4861940 102.5158430 148.9909510  45.1529350 103.2201600
 145.6697470  38.7379700  91.2847120 145.5495070  39.4641790  90.6728390
 145.3598360  37.9682610  90.8075030 143.3082840  41.9094840  97.0915760
 143.3863260  42.0443610  96.1471480 143.9224520  41.2010730  97.2843880
 144.5530470  43.6095030  93.5021940 144.1458550  43.7509620  92.6475540
 145.4443480  43.3255190  93.2993150 148.8252130  47.8240810  91.6144610
 148.6494610  46.9076350  91.4012410 147.9707870  48.1828100  91.8542410
 143.3642360  42.9509010  99.6310220 143.5273400  42.4814370  98.8129590
 143.8294810  42.4432570 100.2959060 148.1361130  32.0814770  94.6670790
 147.6929280  32.8624310  94.3355310 148.6946120  32.4044660  95.3741730
 152.4230940  34.9483290 100.2706110 151.9610310  35.1566310 101.0826050
 152.0209050  34.1342640  99.9676780 151.2519950  31.7025470  89.5476620
 150.6274130  31.6985340  90.2729930 151.1650070  30.8356430  89.1512590
 150.1737030  32.6262100  96.5260390 150.4709360  33.5324930  96.4452410
 150.7222590  32.1380880  95.9119960 147.9275350  37.2048340  92.3952040
 147.7016270  36.9885510  93.2998660 147.1467880  37.6376800  92.0498010
 150.3674560  38.1033920 103.0612310 150.2718160  37.1628650 102.9112710
 151.2106540  38.3248990 102.6660380 145.4985100  34.5147590 101.2146090
 145.1048490  35.3622800 101.4218870 144.8103500  33.8773960 101.4054730
 142.8002150  32.4376050  95.2476170 142.5115200  33.0078910  95.9601150
 143.5447910  31.9580500  95.6107400 142.9872380  36.3796170  86.4578890
 142.9047050  37.3226930  86.5993880 142.6355440  36.2371080  85.5791240
 150.7870510  35.1135200  95.5249240 150.7906570  34.6725150  94.6753780
 151.6821630  35.4352530  95.6321060 146.6372890  34.9961690  94.4843450
 146.2972940  35.4736920  95.2410500 145.8750210  34.5426810  94.1244550
 150.8490660  36.1147280  88.5156000 150.9703480  36.0733760  89.4641820
 150.4639170  36.9771430  88.3602730 149.8612160  38.4248420  87.9139300
 149.2929060  37.9766670  87.2875210 150.5701160  38.7841200  87.3804450
 144.9381340  42.3260440 101.7906030 144.5536130  41.6854110 102.3888990
 145.2493530  43.0296560 102.3600760 151.0878480  39.1736980  97.2714650
 151.4548610  38.6995550  98.0175990 150.8983540  40.0478550  97.6122990
 143.9518970  33.9180670  93.4008120 143.6665890  33.5536340  94.2386740
 143.8897830  33.1861130  92.7871260 148.8777850  38.2145620  99.5898860
 148.5734920  39.0937600  99.8149220 149.8324310  38.2745410  99.6256300
 147.4059640  42.4206610  90.1865710 146.6321900  41.8804230  90.0264430
 148.1354270  41.9013220  89.8483470 147.4497040  42.0886990  93.8244520
 147.9675710  41.2855250  93.7701410 146.9981060  42.0266130  94.6661350
 144.9341580  39.0548360 100.7370220 144.5756520  39.7202210 101.3243560
 144.6396140  38.2231910 101.1082840 148.1354700  39.5132600 103.6209770
 147.8354840  39.6589780 102.7237590 148.9065940  38.9537890 103.5283160
 151.3057230  43.4366800  91.8687740 151.9928360  43.9836010  92.2495330
 150.5189650  43.9807530  91.9037350 143.4449630  39.0539620  87.3604820
 144.3144480  39.3364420  87.6440740 142.9539950  39.8675490  87.2453630
 150.6084440  40.4412830  91.4813100 151.0647220  41.2518080  91.7073290
 150.2572650  40.1235970  92.3131590 146.5096220  30.7850480  91.9535620
 146.3810850  30.7768380  92.9020540 145.6858240  31.1233570  91.6026630
 143.8120880  48.2667000  87.9266450 144.1718520  48.8656340  87.2723720
 143.6713220  48.8126890  88.7001480 143.5090150  32.5441600 101.4142320
 142.7948670  32.7438520 102.0194930 143.9285190  31.7681170 101.7857120
 143.7962740  46.5321860 102.4008850 143.9053860  45.5916600 102.2604240
 143.1443300  46.7976610 101.7522580 151.7875330  44.8037750 103.8006970
 151.4672200  44.0846990 104.3452660 151.1133690  45.4792820 103.8743030
 149.8289500  45.6498200  88.7440120 149.8199600  46.3827890  88.1284630
 148.9087860  45.4029780  88.8367080 145.4296140  40.8713090  89.4886880
 144.8224090  41.6111990  89.4982180 145.9045490  40.9612450  88.6625080
 150.3374990  36.2706800  91.3889210 149.6291140  36.7393140  91.8302820
 150.6219470  35.6128810  92.0234400 151.9630920  37.6903500  99.3881740
 152.4616170  38.1649320 100.0533590 152.1053870  36.7667020  99.5951770
 151.4567210  48.2312760  92.1012980 151.7108710  48.1934150  91.1792350
 150.5079690  48.1046090  92.0941230 148.5410010  34.5791880  88.7639920
 149.3900540  35.0162030  88.6980110 148.1741280  34.8912140  89.5911980
 147.4401430  40.8324240  87.2375450 148.2064700  40.7205600  87.8000880
 147.5176120  40.1362210  86.5852220 146.1348190  38.2649310  87.9208340
 146.2151780  37.3176820  88.0325740 147.0267940  38.5956190  88.0269000
 146.9362900  48.4144700  95.0242880 147.6725380  47.8660160  95.2951450
 147.3203820  49.2800710  94.8848870 143.8208380  44.4818270  90.8984390
 142.8948160  44.7239410  90.8889800 144.2864810  45.3092530  90.7769140
 145.9421180  47.5990770 104.2128460 146.7433910  47.9202820 104.6263860
 145.4273000  47.2386350 104.9348370 150.0465210  47.5875010  86.8468450
 150.8393820  47.8763840  86.3950240 149.5269560  47.1567180  86.1680930
 143.6618990  40.0864230 103.1564510 144.1658010  39.5071510 103.7280740
 142.9226410  40.3704460 103.6940880 150.5642610  42.8078420  86.7110800
 150.4593250  42.1930770  87.4372180 150.3966830  42.2844310  85.9273810
 150.7156930  41.4935220 102.6900030 149.9502600  42.0620220 102.6054700
 150.8972890  41.2011430 101.7968260 145.6942070  38.2293820 104.0514580
 145.7347410  37.9307690 104.9599810 146.5487570  38.6301430 103.8922100
 149.4720460  40.8289370  89.2118090 149.8936880  40.6629240  90.0549480
 149.5971300  40.0189600  88.7173230 147.6347880  36.8085920 102.0189070
 147.1044340  36.3176870 101.3912410 148.3035950  37.2370120 101.4847000
 151.9848100  39.8526980  86.4595190 152.5053760  39.1376000  86.0936340
 152.6316500  40.4912850  86.7595700 148.1220180  33.7748290 102.0986360
 148.0277050  33.1569040 101.3737230 147.5417570  34.5014580 101.8716270
 150.8881620  32.3321530  99.1313750 150.4398920  32.3545790  98.2859300
 150.2546820  31.9340550  99.7284050 151.2941170  41.2275860  99.7526190
 151.7129280  42.0708590  99.5802430 150.3749800  41.3647900  99.5232970
 148.3679360  36.9022600  86.1576250 148.1668420  36.0389960  86.5189590
 148.1971410  36.8155960  85.2197850 149.1448590  47.5328870 100.8683920
 148.6069680  48.2574930 100.5492620 149.3982550  47.0559210 100.0781260
 150.3973840  35.5013390 102.3939850 150.9873530  35.1929240 103.0817670
 149.5794080  35.0293140 102.5499750 147.1662160  34.0023220  86.1454130
 147.4688060  34.0090650  85.2373280 147.9056750  33.6521080  86.6421790
 152.0010800  48.7680080 101.1270570 151.9269500  49.6715220 101.4342940
 151.0989640  48.4491980 101.0992640 150.3847090  32.9457840  87.1310330
 150.0369090  32.2681830  86.5512780 150.5859860  32.4847350  87.9453720
 146.1892290  43.3065640  86.9783930 146.6267160  43.8495310  87.6341510
 146.6740020  42.4812590  86.9880270 143.4038090  46.0954670  94.4304190
 143.7341100  45.2275730  94.1982830 143.8329090  46.3013190  95.2609150
 148.0000010  44.4263680  92.0906160 147.6995550  44.3028650  92.9910070
 147.8937500  43.5672270  91.6821890 143.8928300  46.9625260  97.1685820
 143.4559290  47.1426060  98.0009970 144.4605980  47.7199880  97.0267540
 143.7252730  39.4745490  93.5274700 143.0701570  39.2057130  92.8834400
 144.5630680  39.3649970  93.0776680 144.7628660  39.8598060  98.0678040
 145.1301700  39.7725460  98.9474060 144.1939480  39.0964610  97.9684900
 144.3144660  36.7707150 101.9736460 143.4200710  36.7373910 102.3130170
 144.8542210  36.9693940 102.7387710 142.9390810  36.6844420  89.4700030
 142.0354890  36.9474620  89.2951690 143.4231430  36.9555590  88.6899990
 145.4818020  35.7409960  87.3794410 146.1909720  35.3193180  86.8941690
 144.7657960  35.8085190  86.7477760 145.1292180  31.7949290  86.4197060
 145.8520310  32.3358230  86.7378280 145.4016700  31.5212710  85.5438600
 144.8184370  31.0455480  96.3219680 145.4660560  30.4952860  95.8814840
 145.2386210  31.2998630  97.1435490 144.5716370  31.2011150  99.0645000
 144.2231190  31.6574970  99.8303180 144.2404070  30.3068280  99.1467430
 146.1780740  44.3730750 103.2298190 146.1350370  44.0023660 104.1112650
 146.3091750  45.3108320 103.3700010 149.8786770  45.9290340  98.8307910
 149.6378130  46.1964900  97.9438430 150.8189410  46.0996070  98.8858770
 145.2437010  30.7287350 102.3395770 145.7920000  30.5475400 101.5761880
 145.3092320  29.9381460 102.8752080 146.0168770  47.3193000 100.3495970
 145.4229090  47.1877700 101.0886010 146.0092610  46.4831140  99.8838070
 145.6481000  44.6851380  99.3004010 144.9215060  44.0656670  99.2329960
 145.7090150  45.0791990  98.4302090 149.2526100  46.8996380  96.0853420
 149.7691120  46.2883740  95.5601680 149.9023480  47.4025160  96.5764430
 151.9921600  47.7904870  96.9122400 152.2799410  47.5359170  96.0355410
 152.5044820  47.2382230  97.5027970 143.9311000  48.0025770  92.5100770
 143.7633040  47.3696450  93.2082660 143.0645510  48.2085170  92.1594960
 144.5539020  31.8342550  90.0132630 145.3118380  31.9471430  89.4396660
 144.0916190  32.6711750  89.9676060 151.0952830  33.9481820  93.0034940
 150.2827340  33.5738710  92.6630820 151.5994470  33.1926900  93.3056130
 145.5373700  46.6959000  89.9550910 145.0121320  47.0767030  89.2512870
 145.4618280  47.3209770  90.6760620 146.9264170  32.3606600  88.5534600
 147.4556930  31.5736400  88.4242550 147.5592490  33.0397790  88.7870130
 149.1202010  32.0981740  91.6079990 148.4904750  31.3969050  91.7750120
 148.5807150  32.8585870  91.3913150 149.2457570  31.3765720 104.0432480
 148.9641840  31.8799320 103.2793300 149.6277270  30.5787470 103.6774610
 148.1366670  48.6441380  88.8300160 148.8685490  48.3600660  88.2824050
 148.3960340  48.4054660  89.7199540 147.2981460  44.7606110  88.8346490
 146.6690340  45.2291210  89.3832320 147.4129290  43.9155330  89.2692680
 146.9015050  40.9010600  77.7432720 146.0699930  40.6459310  78.1429230
 147.5096030  40.9721370  78.4790640 146.8816310  44.9350690  77.9390740
 147.1844350  44.0448430  77.7600960 147.6259900  45.4920910  77.7112990
 145.3107000  35.8612490  71.5275110 144.4223700  36.2028460  71.4254990
 145.5948190  35.6612810  70.6355940 143.2740010  38.4618140  77.4114810
 143.8456120  37.6940340  77.4118450 143.2741550  38.7606900  76.5021420
 144.5164880  33.8702500  79.1983740 144.3367720  32.9728250  79.4786500
 144.1144960  34.4174370  79.8730690 147.4868390  34.4443990  72.5613490
 147.5935140  35.3447720  72.8682250 146.5760750  34.3961960  72.2708140
 145.1351550  36.3663000  77.8066080 145.8161660  36.6301370  78.4253480
 144.8199600  35.5263870  78.1404090 149.3276120  37.4130360  76.8938670
 149.8354340  37.9111330  77.5343690 149.8589360  36.6365560  76.7178030
 147.6112220  32.0528920  81.1602090 147.6130660  32.5701310  80.3547990
 146.7816530  31.5759100  81.1372020 148.8615070  41.6924100  79.3375590
 148.5284450  42.3193020  79.9796660 149.0381750  42.2185980  78.5577260
 147.2927550  33.7638880  79.1672540 147.6344360  34.6080930  78.8726410
 146.3543360  33.9122620  79.2837880 148.0734170  43.6604900  81.1524770
 148.6908170  44.3355980  80.8709220 147.2127290  44.0692880  81.0612270
 143.3666510  42.8504760  70.0331620 142.9894490  43.3391860  69.3016520
 143.6239580  43.5230040  70.6638150 150.9755440  31.2521150  75.4917130
 151.2830420  30.6968040  74.7752630 150.0456140  31.3865610  75.3090120
 148.9692840  39.8434720  75.0096980 148.5649840  39.1311970  74.5142880
 149.0555960  39.4987960  75.8985020 149.4374540  43.5302280  77.1736190
 149.1402830  42.9247750  76.4943970 150.3874360  43.5679590  77.0625550
 147.6821460  36.6177930  78.7896020 148.2336050  36.7273270  78.0149270
 148.1964970  36.9915530  79.5051250 148.5292970  43.2683970  83.8243990
 147.6321500  43.4923940  84.0717390 148.5545840  43.3918910  82.8755390
 147.3564190  40.1397290  82.4001360 147.2171960  41.0120090  82.7688760
 146.4745550  39.7970100  82.2549300 149.1544540  46.0818990  84.6086510
 149.1259970  46.4861940  83.7414940 148.9909510  45.1529350  84.4458110
 145.6697470  38.7379700  72.5103630 145.5495070  39.4641790  71.8984900
 145.3598360  37.9682610  72.0331540 143.3082840  41.9094840  78.3172270
 143.3863260  42.0443610  77.3727990 143.9224520  41.2010730  78.5100390
 144.5530470  43.6095030  74.7278450 144.1458550  43.7509620  73.8732050
 145.4443480  43.3255190  74.5249660 148.8252130  47.8240810  72.8401120
 148.6494610  46.9076350  72.6268920 147.9707870  48.1828100  73.0798920
 143.3642360  42.9509010  80.8566730 143.5273400  42.4814370  80.0386100
 143.8294810  42.4432570  81.5215570 148.1361130  32.0814770  75.8927300
 147.6929280  32.8624310  75.5611820 148.6946120  32.4044660  76.5998240
 152.4230940  34.9483290  81.4962620 151.9610310  35.1566310  82.3082560
 152.0209050  34.1342640  81.1933290 151.2519950  31.7025470  70.7733130
 150.6274130  31.6985340  71.4986440 151.1650070  30.8356430  70.3769100
 150.1737030  32.6262100  77.7516900 150.4709360  33.5324930  77.6708920
 150.7222590  32.1380880  77.1376470 147.9275350  37.2048340  73.6208550
 147.7016270  36.9885510  74.5255170 147.1467880  37.6376800  73.2754520
 150.3674560  38.1033920  84.2868820 150.2718160  37.1628650  84.1369220
 151.2106540  38.3248990  83.8916890 145.4985100  34.5147590  82.4402600
 145.1048490  35.3622800  82.6475380 144.8103500  33.8773960  82.6311240
 142.8002150  32.4376050  76.4732680 142.5115200  33.0078910  77.1857660
 143.5447910  31.9580500  76.8363910 142.9872380  36.3796170  67.6835400
 142.9047050  37.3226930  67.8250390 142.6355440  36.2371080  66.8047750
 150.7870510  35.1135200  76.7505750 150.7906570  34.6725150  75.9010290
 151.6821630  35.4352530  76.8577570 146.6372890  34.9961690  75.7099960
 146.2972940  35.4736920  76.4667010 145.8750210  34.5426810  75.3501060
 150.8490660  36.1147280  69.7412510 150.9703480  36.0733760  70.6898330
 150.4639170  36.9771430  69.5859240 149.8612160  38.4248420  69.1395810
 149.2929060  37.9766670  68.5131720 150.5701160  38.7841200  68.6060960
 144.9381340  42.3260440  83.0162540 144.5536130  41.6854110  83.6145500
 145.2493530  43.0296560  83.5857270 151.0878480  39.1736980  78.4971160
 151.4548610  38.6995550  79.2432500 150.8983540  40.0478550  78.8379500
 143.9518970  33.9180670  74.6264630 143.6665890  33.5536340  75.4643250
 143.8897830  33.1861130  74.0127770 148.8777850  38.2145620  80.8155370
 148.5734920  39.0937600  81.0405730 149.8324310  38.2745410  80.8512810
 147.4059640  42.4206610  71.4122220 146.6321900  41.8804230  71.2520940
 148.1354270  41.9013220  71.0739980 147.4497040  42.0886990  75.0501030
 147.9675710  41.2855250  74.9957920 146.9981060  42.0266130  75.8917860
 144.9341580  39.0548360  81.9626730 144.5756520  39.7202210  82.5500070
 144.6396140  38.2231910  82.3339350 148.1354700  39.5132600  84.8466280
 147.8354840  39.6589780  83.9494100 148.9065940  38.9537890  84.7539670
 151.3057230  43.4366800  73.0944250 151.9928360  43.9836010  73.4751840
 150.5189650  43.9807530  73.1293860 143.4449630  39.0539620  68.5861330
 144.3144480  39.3364420  68.8697250 142.9539950  39.8675490  68.4710140
 150.6084440  40.4412830  72.7069610 151.0647220  41.2518080  72.9329800
 150.2572650  40.1235970  73.5388100 146.5096220  30.7850480  73.1792130
 146.3810850  30.7768380  74.1277050 145.6858240  31.1233570  72.8283140
 143.8120880  48.2667000  69.1522960 144.1718520  48.8656340  68.4980230
 143.6713220  48.8126890  69.9257990 143.5090150  32.5441600  82.6398830
 142.7948670  32.7438520  83.2451440 143.9285190  31.7681170  83.0113630
 143.7962740  46.5321860  83.6265360 143.9053860  45.5916600  83.4860750
 143.1443300  46.7976610  82.9779090 151.7875330  44.8037750  85.0263480
 151.4672200  44.0846990  85.5709170 151.1133690  45.4792820  85.0999540
 149.8289500  45.6498200  69.9696630 149.8199600  46.3827890  69.3541140
 148.9087860  45.4029780  70.0623590 145.4296140  40.8713090  70.7143390
 144.8224090  41.6111990  70.7238690 145.9045490  40.9612450  69.8881590
 150.3374990  36.2706800  72.6145720 149.6291140  36.7393140  73.0559330
 150.6219470  35.6128810  73.2490910 151.9630920  37.6903500  80.6138250
 152.4616170  38.1649320  81.2790100 152.1053870  36.7667020  80.8208280
 151.4567210  48.2312760  73.3269490 151.7108710  48.1934150  72.4048860
 150.5079690  48.1046090  73.3197740 148.5410010  34.5791880  69.9896430
 149.3900540  35.0162030  69.9236620 148.1741280  34.8912140  70.8168490
 147.4401430  40.8324240  68.4631960 148.2064700  40.7205600  69.0257390
 147.5176120  40.1362210  67.8108730 146.1348190  38.2649310  69.1464850
 146.2151780  37.3176820  69.2582250 147.0267940  38.5956190  69.2525510
 146.9362900  48.4144700  76.2499390 147.6725380  47.8660160  76.5207960
 147.3203820  49.2800710  76.1105380 143.8208380  44.4818270  72.1240900
 142.8948160  44.7239410  72.1146310 144.2864810  45.3092530  72.0025650
 145.9421180  47.5990770  85.4384970 146.7433910  47.9202820  85.8520370
 145.4273000  47.2386350  86.1604880 150.0465210  47.5875010  68.0724960
 150.8393820  47.8763840  67.6206750 149.5269560  47.1567180  67.3937440
 143.6618990  40.0864230  84.3821020 144.1658010  39.5071510  84.9537250
 142.9226410  40.3704460  84.9197390 150.5642610  42.8078420  67.9367310
 150.4593250  42.1930770  68.6628690 150.3966830  42.2844310  67.1530320
 150.7156930  41.4935220  83.9156540 149.9502600  42.0620220  83.8311210
 150.8972890  41.2011430  83.0224770 145.6942070  38.2293820  85.2771090
 145.7347410  37.9307690  86.1856320 146.5487570  38.6301430  85.1178610
 149.4720460  40.8289370  70.4374600 149.8936880  40.6629240  71.2805990
 149.5971300  40.0189600  69.9429740 147.6347880  36.8085920  83.2445580
 147.1044340  36.3176870  82.6168920 148.3035950  37.2370120  82.7103510
 151.9848100  39.8526980  67.6851700 152.5053760  39.1376000  67.3192850
 152.6316500  40.4912850  67.9852210 148.1220180  33.7748290  83.3242870
 148.0277050  33.1569040  82.5993740 147.5417570  34.5014580  83.0972780
 150.8881620  32.3321530  80.3570260 150.4398920  32.3545790  79.5115810
 150.2546820  31.9340550  80.9540560 151.2941170  41.2275860  80.9782700
 151.7129280  42.0708590  80.8058940 150.3749800  41.3647900  80.7489480
 148.3679360  36.9022600  67.3832760 148.1668420  36.0389960  67.7446100
 148.1971410  36.8155960  66.4454360 149.1448590  47.5328870  82.0940430
 148.6069680  48.2574930  81.7749130 149.3982550  47.0559210  81.3037770
 150.3973840  35.5013390  83.6196360 150.9873530  35.1929240  84.3074180
 149.5794080  35.0293140  83.7756260 147.1662160  34.0023220  67.3710640
 147.4688060  34.0090650  66.4629790 147.9056750  33.6521080  67.8678300
 152.0010800  48.7680080  82.3527080 151.9269500  49.6715220  82.6599450
 151.0989640  48.4491980  82.3249150 150.3847090  32.9457840  68.3566840
 150.0369090  32.2681830  67.7769290 150.5859860  32.4847350  69.1710230
 146.1892290  43.3065640  68.2040440 146.6267160  43.8495310  68.8598020
 146.6740020  42.4812590  68.2136780 143.4038090  46.0954670  75.6560700
 143.7341100  45.2275730  75.4239340 143.8329090  46.3013190  76.4865660
 148.0000010  44.4263680  73.3162670 147.6995550  44.3028650  74.2166580
 147.8937500  43.5672270  72.9078400 143.8928300  46.9625260  78.3942330
 143.4559290  47.1426060  79.2266480 144.4605980  47.7199880  78.2524050
 143.7252730  39.4745490  74.7531210 143.0701570  39.2057130  74.1090910
 144.5630680  39.3649970  74.3033190 144.7628660  39.8598060  79.2934550
 145.1301700  39.7725460  80.1730570 144.1939480  39.0964610  79.1941410
 144.3144660  36.7707150  83.1992970 143.4200710  36.7373910  83.5386680
 144.8542210  36.9693940  83.9644220 142.9390810  36.6844420  70.6956540
 142.0354890  36.9474620  70.5208200 143.4231430  36.9555590  69.9156500
 145.4818020  35.7409960  68.6050920 146.1909720  35.3193180  68.1198200
 144.7657960  35.8085190  67.9734270 145.1292180  31.7949290  67.6453570
 145.8520310  32.3358230  67.9634790 145.4016700  31.5212710  66.7695110
 144.8184370  31.0455480  77.5476190 145.4660560  30.4952860  77.1071350
 145.2386210  31.2998630  78.3692000 144.5716370  31.2011150  80.2901510
 144.2231190  31.6574970  81.0559690 144.2404070  30.3068280  80.3723940
 146.1780740  44.3730750  84.4554700 146.1350370  44.0023660  85.3369160
 146.3091750  45.3108320  84.5956520 149.8786770  45.9290340  80.0564420
 149.6378130  46.1964900  79.1694940 150.8189410  46.0996070  80.1115280
 145.2437010  30.7287350  83.5652280 145.7920000  30.5475400  82.8018390
 145.3092320  29.9381460  84.1008590 146.0168770  47.3193000  81.5752480
 145.4229090  47.1877700  82.3142520 146.0092610  46.4831140  81.1094580
 145.6481000  44.6851380  80.5260520 144.9215060  44.0656670  80.4586470
 145.7090150  45.0791990  79.6558600 149.2526100  46.8996380  77.3109930
 149.7691120  46.2883740  76.7858190 149.9023480  47.4025160  77.8020940
 151.9921600  47.7904870  78.1378910 152.2799410  47.5359170  77.2611920
 152.5044820  47.2382230  78.7284480 143.9311000  48.0025770  73.7357280
 143.7633040  47.3696450  74.4339170 143.0645510  48.2085170  73.3851470
 144.5539020  31.8342550  71.2389140 145.3118380  31.9471430  70.6653170
 144.0916190  32.6711750  71.1932570 151.0952830  33.9481820  74.2291450
 150.2827340  33.5738710  73.8887330 151.5994470  33.1926900  74.5312640
 145.5373700  46.6959000  71.1807420 145.0121320  47.0767030  70.4769380
 145.4618280  47.3209770  71.9017130 146.9264170  32.3606600  69.7791110
 147.4556930  31.5736400  69.6499060 147.5592490  33.0397790  70.0126640
 149.1202010  32.0981740  72.8336500 148.4904750  31.3969050  73.0006630
 148.5807150  32.8585870  72.6169660 149.2457570  31.3765720  85.2688990
 148.9641840  31.8799320  84.5049810 149.6277270  30.5787470  84.9031120
 148.1366670  48.6441380  70.0556670 148.8685490  48.3600660  69.5080560
 148.3960340  48.4054660  70.9456050 147.2981460  44.7606110  70.0603000
 146.6690340  45.2291210  70.6088830 147.4129290  43.9155330  70.4949190
 146.9015050  40.9010600  58.9689230 146.0699930  40.6459310  59.3685740
 147.5096030  40.9721370  59.7047150 146.8816310  44.9350690  59.1647250
 147.1844350  44.0448430  58.9857470 147.6259900  45.4920910  58.9369500
 145.3107000  35.8612490  52.7531620 144.4223700  36.2028460  52.6511500
 145.5948190  35.6612810  51.8612450 143.2740010  38.4618140  58.6371320
 143.8456120  37.6940340  58.6374960 143.2741550  38.7606900  57.7277930
 144.5164880  33.8702500  60.4240250 144.3367720  32.9728250  60.7043010
 144.1144960  34.4174370  61.0987200 147.4868390  34.4443990  53.7870000
 147.5935140  35.3447720  54.0938760 146.5760750  34.3961960  53.4964650
 145.1351550  36.3663000  59.0322590 145.8161660  36.6301370  59.6509990
 144.8199600  35.5263870  59.3660600 149.3276120  37.4130360  58.1195180
 149.8354340  37.9111330  58.7600200 149.8589360  36.6365560  57.9434540
 147.6112220  32.0528920  62.3858600 147.6130660  32.5701310  61.5804500
 146.7816530  31.5759100  62.3628530 148.8615070  41.6924100  60.5632100
 148.5284450  42.3193020  61.2053170 149.0381750  42.2185980  59.7833770
 147.2927550  33.7638880  60.3929050 147.6344360  34.6080930  60.0982920
 146.3543360  33.9122620  60.5094390 148.0734170  43.6604900  62.3781280
 148.6908170  44.3355980  62.0965730 147.2127290  44.0692880  62.2868780
 143.3666510  42.8504760  51.2588130 142.9894490  43.3391860  50.5273030
 143.6239580  43.5230040  51.8894660 150.9755440  31.2521150  56.7173640
 151.2830420  30.6968040  56.0009140 150.0456140  31.3865610  56.5346630
 148.9692840  39.8434720  56.2353490 148.5649840  39.1311970  55.7399390
 149.0555960  39.4987960  57.1241530 149.4374540  43.5302280  58.3992700
 149.1402830  42.9247750  57.7200480 150.3874360  43.5679590  58.2882060
 147.6821460  36.6177930  60.0152530 148.2336050  36.7273270  59.2405780
 148.1964970  36.9915530  60.7307760 148.5292970  43.2683970  65.0500500
 147.6321500  43.4923940  65.2973900 148.5545840  43.3918910  64.1011900
 147.3564190  40.1397290  63.6257870 147.2171960  41.0120090  63.9945270
 146.4745550  39.7970100  63.4805810 149.1544540  46.0818990  65.8343020
 149.1259970  46.4861940  64.9671450 148.9909510  45.1529350  65.6714620
 145.6697470  38.7379700  53.7360140 145.5495070  39.4641790  53.1241410
 145.3598360  37.9682610  53.2588050 143.3082840  41.9094840  59.5428780
 143.3863260  42.0443610  58.5984500 143.9224520  41.2010730  59.7356900
 144.5530470  43.6095030  55.9534960 144.1458550  43.7509620  55.0988560
 145.4443480  43.3255190  55.7506170 148.8252130  47.8240810  54.0657630
 148.6494610  46.9076350  53.8525430 147.9707870  48.1828100  54.3055430
 143.3642360  42.9509010  62.0823240 143.5273400  42.4814370  61.2642610
 143.8294810  42.4432570  62.7472080 148.1361130  32.0814770  57.1183810
 147.6929280  32.8624310  56.7868330 148.6946120  32.4044660  57.8254750
 152.4230940  34.9483290  62.7219130 151.9610310  35.1566310  63.5339070
 152.0209050  34.1342640  62.4189800 151.2519950  31.7025470  51.9989640
 150.6274130  31.6985340  52.7242950 151.1650070  30.8356430  51.6025610
 150.1737030  32.6262100  58.9773410 150.4709360  33.5324930  58.8965430
 150.7222590  32.1380880  58.3632980 147.9275350  37.2048340  54.8465060
 147.7016270  36.9885510  55.7511680 147.1467880  37.6376800  54.5011030
 150.3674560  38.1033920  65.5125330 150.2718160  37.1628650  65.3625730
 151.2106540  38.3248990  65.1173400 145.4985100  34.5147590  63.6659110
 145.1048490  35.3622800  63.8731890 144.8103500  33.8773960  63.8567750
 142.8002150  32.4376050  57.6989190 142.5115200  33.0078910  58.4114170
 143.5447910  31.9580500  58.0620420 142.9872380  36.3796170  48.9091910
 142.9047050  37.3226930  49.0506900 142.6355440  36.2371080  48.0304260
 150.7870510  35.1135200  57.9762260 150.7906570  34.6725150  57.1266800
 151.6821630  35.4352530  58.0834080 146.6372890  34.9961690  56.9356470
 146.2972940  35.4736920  57.6923520 145.8750210  34.5426810  56.5757570
 150.8490660  36.1147280  50.9669020 150.9703480  36.0733760  51.9154840
 150.4639170  36.9771430  50.8115750 149.8612160  38.4248420  50.3652320
 149.2929060  37.9766670  49.7388230 150.5701160  38.7841200  49.8317470
 144.9381340  42.3260440  64.2419050 144.5536130  41.6854110  64.8402010
 145.2493530  43.0296560  64.8113780 151.0878480  39.1736980  59.7227670
 151.4548610  38.6995550  60.4689010 150.8983540  40.0478550  60.0636010
 143.9518970  33.9180670  55.8521140 143.6665890  33.5536340  56.6899760
 143.8897830  33.1861130  55.2384280 148.8777850  38.2145620  62.0411880
 148.5734920  39.0937600  62.2662240 149.8324310  38.2745410  62.0769320
 147.4059640  42.4206610  52.6378730 146.6321900  41.8804230  52.4777450
 148.1354270  41.9013220  52.2996490 147.4497040  42.0886990  56.2757540
 147.9675710  41.2855250  56.2214430 146.9981060  42.0266130  57.1174370
 144.9341580  39.0548360  63.1883240 144.5756520  39.7202210  63.7756580
 144.6396140  38.2231910  63.5595860 148.1354700  39.5132600  66.0722790
 147.8354840  39.6589780  65.1750610 148.9065940  38.9537890  65.9796180
 151.3057230  43.4366800  54.3200760 151.9928360  43.9836010  54.7008350
 150.5189650  43.9807530  54.3550370 143.4449630  39.0539620  49.8117840
 144.3144480  39.3364420  50.0953760 142.9539950  39.8675490  49.6966650
 150.6084440  40.4412830  53.9326120 151.0647220  41.2518080  54.1586310
 150.2572650  40.1235970  54.7644610 146.5096220  30.7850480  54.4048640
 146.3810850  30.7768380  55.3533560 145.6858240  31.1233570  54.0539650
 143.8120880  48.2667000  50.3779470 144.1718520  48.8656340  49.7236740
 143.6713220  48.8126890  51.1514500 143.5090150  32.5441600  63.8655340
 142.7948670  32.7438520  64.4707950 143.9285190  31.7681170  64.2370140
 143.7962740  46.5321860  64.8521870 143.9053860  45.5916600  64.7117260
 143.1443300  46.7976610  64.2035600 151.7875330  44.8037750  66.2519990
 151.4672200  44.0846990  66.7965680 151.1133690  45.4792820  66.3256050
 149.8289500  45.6498200  51.1953140 149.8199600  46.3827890  50.5797650
 148.9087860  45.4029780  51.2880100 145.4296140  40.8713090  51.9399900
 144.8224090  41.6111990  51.9495200 145.9045490  40.9612450  51.1138100
 150.3374990  36.2706800  53.8402230 149.6291140  36.7393140  54.2815840
 150.6219470  35.6128810  54.4747420 151.9630920  37.6903500  61.8394760
 152.4616170  38.1649320  62.5046610 152.1053870  36.7667020  62.0464790
 151.4567210  48.2312760  54.5526000 151.7108710  48.1934150  53.6305370
 150.5079690  48.1046090  54.5454250 148.5410010  34.5791880  51.2152940
 149.3900540  35.0162030  51.1493130 148.1741280  34.8912140  52.0425000
 147.4401430  40.8324240  49.6888470 148.2064700  40.7205600  50.2513900
 147.5176120  40.1362210  49.0365240 146.1348190  38.2649310  50.3721360
 146.2151780  37.3176820  50.4838760 147.0267940  38.5956190  50.4782020
 146.9362900  48.4144700  57.4755900 147.6725380  47.8660160  57.7464470
 147.3203820  49.2800710  57.3361890 143.8208380  44.4818270  53.3497410
 142.8948160  44.7239410  53.3402820 144.2864810  45.3092530  53.2282160
 145.9421180  47.5990770  66.6641480 146.7433910  47.9202820  67.0776880
 145.4273000  47.2386350  67.3861390 150.0465210  47.5875010  49.2981470
 150.8393820  47.8763840  48.8463260 149.5269560  47.1567180  48.6193950
 143.6618990  40.0864230  65.6077530 144.1658010  39.5071510  66.1793760
 142.9226410  40.3704460  66.1453900 150.5642610  42.8078420  49.1623820
 150.4593250  42.1930770  49.8885200 150.3966830  42.2844310  48.3786830
 150.7156930  41.4935220  65.1413050 149.9502600  42.0620220  65.0567720
 150.8972890  41.2011430  64.2481280 145.6942070  38.2293820  66.5027600
 145.7347410  37.9307690  67.4112830 146.5487570  38.6301430  66.3435120
 149.4720460  40.8289370  51.6631110 149.8936880  40.6629240  52.5062500
 149.5971300  40.0189600  51.1686250 147.6347880  36.8085920  64.4702090
 147.1044340  36.3176870  63.8425430 148.3035950  37.2370120  63.9360020
 151.9848100  39.8526980  48.9108210 152.5053760  39.1376000  48.5449360
 152.6316500  40.4912850  49.2108720 148.1220180  33.7748290  64.5499380
 148.0277050  33.1569040  63.8250250 147.5417570  34.5014580  64.3229290
 150.8881620  32.3321530  61.5826770 150.4398920  32.3545790  60.7372320
 150.2546820  31.9340550  62.1797070 151.2941170  41.2275860  62.2039210
 151.7129280  42.0708590  62.0315450 150.3749800  41.3647900  61.9745990
 148.3679360  36.9022600  48.6089270 148.1668420  36.0389960  48.9702610
 148.1971410  36.8155960  47.6710870 149.1448590  47.5328870  63.3196940
 148.6069680  48.2574930  63.0005640 149.3982550  47.0559210  62.5294280
 150.3973840  35.5013390  64.8452870 150.9873530  35.1929240  65.5330690
 149.5794080  35.0293140  65.0012770 147.1662160  34.0023220  48.5967150
 147.4688060  34.0090650  47.6886300 147.9056750  33.6521080  49.0934810
 152.0010800  48.7680080  63.5783590 151.9269500  49.6715220  63.8855960
 151.0989640  48.4491980  63.5505660 150.3847090  32.9457840  49.5823350
 150.0369090  32.2681830  49.0025800 150.5859860  32.4847350  50.3966740
 146.1892290  43.3065640  49.4296950 146.6267160  43.8495310  50.0854530
 146.6740020  42.4812590  49.4393290 143.4038090  46.0954670  56.8817210
 143.7341100  45.2275730  56.6495850 143.8329090  46.3013190  57.7122170
 148.0000010  44.4263680  54.5419180 147.6995550  44.3028650  55.4423090
 147.8937500  43.5672270  54.1334910 143.8928300  46.9625260  59.6198840
 143.4559290  47.1426060  60.4522990 144.4605980  47.7199880  59.4780560
 143.7252730  39.4745490  55.9787720 143.0701570  39.2057130  55.3347420
 144.5630680  39.3649970  55.5289700 144.7628660  39.8598060  60.5191060
 145.1301700  39.7725460  61.3987080 144.1939480  39.0964610  60.4197920
 144.3144660  36.7707150  64.4249480 143.4200710  36.7373910  64.7643190
 144.8542210  36.9693940  65.1900730 142.9390810  36.6844420  51.9213050
 142.0354890  36.9474620  51.7464710 143.4231430  36.9555590  51.1413010
 145.4818020  35.7409960  49.8307430 146.1909720  35.3193180  49.3454710
 144.7657960  35.8085190  49.1990780 145.1292180  31.7949290  48.8710080
 145.8520310  32.3358230  49.1891300 145.4016700  31.5212710  47.9951620
 144.8184370  31.0455480  58.7732700 145.4660560  30.4952860  58.3327860
 145.2386210  31.2998630  59.5948510 144.5716370  31.2011150  61.5158020
 144.2231190  31.6574970  62.2816200 144.2404070  30.3068280  61.5980450
 146.1780740  44.3730750  65.6811210 146.1350370  44.0023660  66.5625670
 146.3091750  45.3108320  65.8213030 149.8786770  45.9290340  61.2820930
 149.6378130  46.1964900  60.3951450 150.8189410  46.0996070  61.3371790
 145.2437010  30.7287350  64.7908790 145.7920000  30.5475400  64.0274900
 145.3092320  29.9381460  65.3265100 146.0168770  47.3193000  62.8008990
 145.4229090  47.1877700  63.5399030 146.0092610  46.4831140  62.3351090
 145.6481000  44.6851380  61.7517030 144.9215060  44.0656670  61.6842980
 145.7090150  45.0791990  60.8815110 149.2526100  46.8996380  58.5366440
 149.7691120  46.2883740  58.0114700 149.9023480  47.4025160  59.0277450
 151.9921600  47.7904870  59.3635420 152.2799410  47.5359170  58.4868430
 152.5044820  47.2382230  59.9540990 143.9311000  48.0025770  54.9613790
 143.7633040  47.3696450  55.6595680 143.0645510  48.2085170  54.6107980
 144.5539020  31.8342550  52.4645650 145.3118380  31.9471430  51.8909680
 144.0916190  32.6711750  52.4189080 151.0952830  33.9481820  55.4547960
 150.2827340  33.5738710  55.1143840 151.5994470  33.1926900  55.7569150
 145.5373700  46.6959000  52.4063930 145.0121320  47.0767030  51.7025890
 145.4618280  47.3209770  53.1273640 146.9264170  32.3606600  51.0047620
 147.4556930  31.5736400  50.8755570 147.5592490  33.0397790  51.2383150
 149.1202010  32.0981740  54.0593010 148.4904750  31.3969050  54.2263140
 148.5807150  32.8585870  53.8426170 149.2457570  31.3765720  66.4945500
 148.9641840  31.8799320  65.7306320 149.6277270  30.5787470  66.1287630
 148.1366670  48.6441380  51.2813180 148.8685490  48.3600660  50.7337070
 148.3960340  48.4054660  52.1712560 147.2981460  44.7606110  51.2859510
 146.6690340  45.2291210  51.8345340 147.4129290  43.9155330  51.7205700
 146.9015050  40.9010600  40.1945740 146.0699930  40.6459310  40.5942250
 147.5096030  40.9721370  40.9303660 146.8816310  44.9350690  40.3903760
 147.1844350  44.0448430  40.2113980 147.6259900  45.4920910  40.1626010
 145.3107000  35.8612490  33.9788130 144.4223700  36.2028460  33.8768010
 145.5948190  35.6612810  33.0868960 143.2740010  38.4618140  39.8627830
 143.8456120  37.6940340  39.8631470 143.2741550  38.7606900  38.9534440
 144.5164880  33.8702500  41.6496760 144.3367720  32.9728250  41.9299520
 144.1144960  34.4174370  42.3243710 147.4868390  34.4443990  35.0126510
 147.5935140  35.3447720  35.3195270 146.5760750  34.3961960  34.7221160
 145.1351550  36.3663000  40.2579100 145.8161660  36.6301370  40.8766500
 144.8199600  35.5263870  40.5917110 149.3276120  37.4130360  39.3451690
 149.8354340  37.9111330  39.9856710 149.8589360  36.6365560  39.1691050
 147.6112220  32.0528920  43.6115110 147.6130660  32.5701310  42.8061010
 146.7816530  31.5759100  43.5885040 148.8615070  41.6924100  41.7888610
 148.5284450  42.3193020  42.4309680 149.0381750  42.2185980  41.0090280
 147.2927550  33.7638880  41.6185560 147.6344360  34.6080930  41.3239430
 146.3543360  33.9122620  41.7350900 148.0734170  43.6604900  43.6037790
 148.6908170  44.3355980  43.3222240 147.2127290  44.0692880  43.5125290
 143.3666510  42.8504760  32.4844640 142.9894490  43.3391860  31.7529540
 143.6239580  43.5230040  33.1151170 150.9755440  31.2521150  37.9430150
 151.2830420  30.6968040  37.2265650 150.0456140  31.3865610  37.7603140
 148.9692840  39.8434720  37.4610000 148.5649840  39.1311970  36.9655900
 149.0555960  39.4987960  38.3498040 149.4374540  43.5302280  39.6249210
 149.1402830  42.9247750  38.9456990 150.3874360  43.5679590  39.5138570
 147.6821460  36.6177930  41.2409040 148.2336050  36.7273270  40.4662290
 148.1964970  36.9915530  41.9564270 148.5292970  43.2683970  46.2757010
 147.6321500  43.4923940  46.5230410 148.5545840  43.3918910  45.3268410
 147.3564190  40.1397290  44.8514380 147.2171960  41.0120090  45.2201780
 146.4745550  39.7970100  44.7062320 149.1544540  46.0818990  47.0599530
 149.1259970  46.4861940  46.1927960 148.9909510  45.1529350  46.8971130
 145.6697470  38.7379700  34.9616650 145.5495070  39.4641790  34.3497920
 145.3598360  37.9682610  34.4844560 143.3082840  41.9094840  40.7685290
 143.3863260  42.0443610  39.8241010 143.9224520  41.2010730  40.9613410
 144.5530470  43.6095030  37.1791470 144.1458550  43.7509620  36.3245070
 145.4443480  43.3255190  36.9762680 148.8252130  47.8240810  35.2914140
 148.6494610  46.9076350  35.0781940 147.9707870  48.1828100  35.5311940
 143.3642360  42.9509010  43.3079750 143.5273400  42.4814370  42.4899120
 143.8294810  42.4432570  43.9728590 148.1361130  32.0814770  38.3440320
 147.6929280  32.8624310  38.0124840 148.6946120  32.4044660  39.0511260
 152.4230940  34.9483290  43.9475640 151.9610310  35.1566310  44.7595580
 152.0209050  34.1342640  43.6446310 151.2519950  31.7025470  33.2246150
 150.6274130  31.6985340  33.9499460 151.1650070  30.8356430  32.8282120
 150.1737030  32.6262100  40.2029920 150.4709360  33.5324930  40.1221940
 150.7222590  32.1380880  39.5889490 147.9275350  37.2048340  36.0721570
 147.7016270  36.9885510  36.9768190 147.1467880  37.6376800  35.7267540
 150.3674560  38.1033920  46.7381840 150.2718160  37.1628650  46.5882240
 151.2106540  38.3248990  46.3429910 145.4985100  34.5147590  44.8915620
 145.1048490  35.3622800  45.0988400 144.8103500  33.8773960  45.0824260
 142.8002150  32.4376050  38.9245700 142.5115200  33.0078910  39.6370680
 143.5447910  31.9580500  39.2876930 142.9872380  36.3796170  30.1348420
 142.9047050  37.3226930  30.2763410 142.6355440  36.2371080  29.2560770
 150.7870510  35.1135200  39.2018770 150.7906570  34.6725150  38.3523310
 151.6821630  35.4352530  39.3090590 146.6372890  34.9961690  38.1612980
 146.2972940  35.4736920  38.9180030 145.8750210  34.5426810  37.8014080
 150.8490660  36.1147280  32.1925530 150.9703480  36.0733760  33.1411350
 150.4639170  36.9771430  32.0372260 149.8612160  38.4248420  31.5908830
 149.2929060  37.9766670  30.9644740 150.5701160  38.7841200  31.0573980
 144.9381340  42.3260440  45.4675560 144.5536130  41.6854110  46.0658520
 145.2493530  43.0296560  46.0370290 151.0878480  39.1736980  40.9484180
 151.4548610  38.6995550  41.6945520 150.8983540  40.0478550  41.2892520
 143.9518970  33.9180670  37.0777650 143.6665890  33.5536340  37.9156270
 143.8897830  33.1861130  36.4640790 148.8777850  38.2145620  43.2668390
 148.5734920  39.0937600  43.4918750 149.8324310  38.2745410  43.3025830
 147.4059640  42.4206610  33.8635240 146.6321900  41.8804230  33.7033960
 148.1354270  41.9013220  33.5253000 147.4497040  42.0886990  37.5014050
 147.9675710  41.2855250  37.4470940 146.9981060  42.0266130  38.3430880
 144.9341580  39.0548360  44.4139750 144.5756520  39.7202210  45.0013090
 144.6396140  38.2231910  44.7852370 148.1354700  39.5132600  47.2979300
 147.8354840  39.6589780  46.4007120 148.9065940  38.9537890  47.2052690
 151.3057230  43.4366800  35.5457270 151.9928360  43.9836010  35.9264860
 150.5189650  43.9807530  35.5806880 143.4449630  39.0539620  31.0374350
 144.3144480  39.3364420  31.3210270 142.9539950  39.8675490  30.9223160
 150.6084440  40.4412830  35.1582630 151.0647220  41.2518080  35.3842820
 150.2572650  40.1235970  35.9901120 146.5096220  30.7850480  35.6305150
 146.3810850  30.7768380  36.5790070 145.6858240  31.1233570  35.2796160
 143.8120880  48.2667000  31.6035980 144.1718520  48.8656340  30.9493250
 143.6713220  48.8126890  32.3771010 143.5090150  32.5441600  45.0911850
 142.7948670  32.7438520  45.6964460 143.9285190  31.7681170  45.4626650
 143.7962740  46.5321860  46.0778380 143.9053860  45.5916600  45.9373770
 143.1443300  46.7976610  45.4292110 151.7875330  44.8037750  47.4776500
 151.4672200  44.0846990  48.0222190 151.1133690  45.4792820  47.5512560
 149.8289500  45.6498200  32.4209650 149.8199600  46.3827890  31.8054160
 148.9087860  45.4029780  32.5136610 145.4296140  40.8713090  33.1656410
 144.8224090  41.6111990  33.1751710 145.9045490  40.9612450  32.3394610
 150.3374990  36.2706800  35.0658740 149.6291140  36.7393140  35.5072350
 150.6219470  35.6128810  35.7003930 151.9630920  37.6903500  43.0651270
 152.4616170  38.1649320  43.7303120 152.1053870  36.7667020  43.2721300
 151.4567210  48.2312760  35.7782510 151.7108710  48.1934150  34.8561880
 150.5079690  48.1046090  35.7710760 148.5410010  34.5791880  32.4409450
 149.3900540  35.0162030  32.3749640 148.1741280  34.8912140  33.2681510
 147.4401430  40.8324240  30.9144980 148.2064700  40.7205600  31.4770410
 147.5176120  40.1362210  30.2621750 146.1348190  38.2649310  31.5977870
 146.2151780  37.3176820  31.7095270 147.0267940  38.5956190  31.7038530
 146.9362900  48.4144700  38.7012410 147.6725380  47.8660160  38.9720980
 147.3203820  49.2800710  38.5618400 143.8208380  44.4818270  34.5753920
 142.8948160  44.7239410  34.5659330 144.2864810  45.3092530  34.4538670
 145.9421180  47.5990770  47.8897990 146.7433910  47.9202820  48.3033390
 145.4273000  47.2386350  48.6117900 150.0465210  47.5875010  30.5237980
 150.8393820  47.8763840  30.0719770 149.5269560  47.1567180  29.8450460
 143.6618990  40.0864230  46.8334040 144.1658010  39.5071510  47.4050270
 142.9226410  40.3704460  47.3710410 150.5642610  42.8078420  30.3880330
 150.4593250  42.1930770  31.1141710 150.3966830  42.2844310  29.6043340
 150.7156930  41.4935220  46.3669560 149.9502600  42.0620220  46.2824230
 150.8972890  41.2011430  45.4737790 145.6942070  38.2293820  47.7284110
 145.7347410  37.9307690  48.6369340 146.5487570  38.6301430  47.5691630
 149.4720460  40.8289370  32.8887620 149.8936880  40.6629240  33.7319010
 149.5971300  40.0189600  32.3942760 147.6347880  36.8085920  45.6958600
 147.1044340  36.3176870  45.0681940 148.3035950  37.2370120  45.1616530
 151.9848100  39.8526980  30.1364720 152.5053760  39.1376000  29.7705870
 152.6316500  40.4912850  30.4365230 148.1220180  33.7748290  45.7755890
 148.0277050  33.1569040  45.0506760 147.5417570  34.5014580  45.5485800
 150.8881620  32.3321530  42.8083280 150.4398920  32.3545790  41.9628830
 150.2546820  31.9340550  43.4053580 151.2941170  41.2275860  43.4295720
 151.7129280  42.0708590  43.2571960 150.3749800  41.3647900  43.2002500
 148.3679360  36.9022600  29.8345780 148.1668420  36.0389960  30.1959120
 148.1971410  36.8155960  28.8967380 149.1448590  47.5328870  44.5453450
 148.6069680  48.2574930  44.2262150 149.3982550  47.0559210  43.7550790
 150.3973840  35.5013390  46.0709380 150.9873530  35.1929240  46.7587200
 149.5794080  35.0293140  46.2269280 147.1662160  34.0023220  29.8223660
 147.4688060  34.0090650  28.9142810 147.9056750  33.6521080  30.3191320
 152.0010800  48.7680080  44.8040100 151.9269500  49.6715220  45.1112470
 151.0989640  48.4491980  44.7762170 150.3847090  32.9457840  30.8079860
 150.0369090  32.2681830  30.2282310 150.5859860  32.4847350  31.6223250
 146.1892290  43.3065640  30.6553460 146.6267160  43.8495310  31.3111040
 146.6740020  42.4812590  30.6649800 143.4038090  46.0954670  38.1073720
 143.7341100  45.2275730  37.8752360 143.8329090  46.3013190  38.9378680
 148.0000010  44.4263680  35.7675690 147.6995550  44.3028650  36.6679600
 147.8937500  43.5672270  35.3591420 143.8928300  46.9625260  40.8455350
 143.4559290  47.1426060  41.6779500 144.4605980  47.7199880  40.7037070
 143.7252730  39.4745490  37.2044230 143.0701570  39.2057130  36.5603930
 144.5630680  39.3649970  36.7546210 144.7628660  39.8598060  41.7447570
 145.1301700  39.7725460  42.6243590 144.1939480  39.0964610  41.6454430
 144.3144660  36.7707150  45.6505990 143.4200710  36.7373910  45.9899700
 144.8542210  36.9693940  46.4157240 142.9390810  36.6844420  33.1469560
 142.0354890  36.9474620  32.9721220 143.4231430  36.9555590  32.3669520
 145.4818020  35.7409960  31.0563940 146.1909720  35.3193180  30.5711220
 144.7657960  35.8085190  30.4247290 145.1292180  31.7949290  30.0966590
 145.8520310  32.3358230  30.4147810 145.4016700  31.5212710  29.2208130
 144.8184370  31.0455480  39.9989210 145.4660560  30.4952860  39.5584370
 145.2386210  31.2998630  40.8205020 144.5716370  31.2011150  42.7414530
 144.2231190  31.6574970  43.5072710 144.2404070  30.3068280  42.8236960
 146.1780740  44.3730750  46.9067720 146.1350370  44.0023660  47.7882180
 146.3091750  45.3108320  47.0469540 149.8786770  45.9290340  42.5077440
 149.6378130  46.1964900  41.6207960 150.8189410  46.0996070  42.5628300
 145.2437010  30.7287350  46.0165300 145.7920000  30.5475400  45.2531410
 145.3092320  29.9381460  46.5521610 146.0168770  47.3193000  44.0265500
 145.4229090  47.1877700  44.7655540 146.0092610  46.4831140  43.5607600
 145.6481000  44.6851380  42.9773540 144.9215060  44.0656670  42.9099490
 145.7090150  45.0791990  42.1071620 149.2526100  46.8996380  39.7622950
 149.7691120  46.2883740  39.2371210 149.9023480  47.4025160  40.2533960
 151.9921600  47.7904870  40.5891930 152.2799410  47.5359170  39.7124940
 152.5044820  47.2382230  41.1797500 143.9311000  48.0025770  36.1870300
 143.7633040  47.3696450  36.8852190 143.0645510  48.2085170  35.8364490
 144.5539020  31.8342550  33.6902160 145.3118380  31.9471430  33.1166190
 144.0916190  32.6711750  33.6445590 151.0952830  33.9481820  36.6804470
 150.2827340  33.5738710  36.3400350 151.5994470  33.1926900  36.9825660
 145.5373700  46.6959000  33.6320440 145.0121320  47.0767030  32.9282400
 145.4618280  47.3209770  34.3530150 146.9264170  32.3606600  32.2304130
 147.4556930  31.5736400  32.1012080 147.5592490  33.0397790  32.4639660
 149.1202010  32.0981740  35.2849520 148.4904750  31.3969050  35.4519650
 148.5807150  32.8585870  35.0682680 149.2457570  31.3765720  47.7202010
 148.9641840  31.8799320  46.9562830 149.6277270  30.5787470  47.3544140
 148.1366670  48.6441380  32.5069690 148.8685490  48.3600660  31.9593580
 148.3960340  48.4054660  33.3969070 147.2981460  44.7606110  32.5116020
 146.6690340  45.2291210  33.0601850 147.4129290  43.9155330  32.9462210
 146.9015050  40.9010600  21.4202250 146.0699930  40.6459310  21.8198760
 147.5096030  40.9721370  22.1560170 146.8816310  44.9350690  21.6160270
 147.1844350  44.0448430  21.4370490 147.6259900  45.4920910  21.3882520
 145.3107000  35.8612490  15.2044640 144.4223700  36.2028460  15.1024520
 145.5948190  35.6612810  14.3125470 143.2740010  38.4618140  21.0884340
 143.8456120  37.6940340  21.0887980 143.2741550  38.7606900  20.1790950
 144.5164880  33.8702500  22.8753270 144.3367720  32.9728250  23.1556030
 144.1144960  34.4174370  23.5500220 147.4868390  34.4443990  16.2383020
 147.5935140  35.3447720  16.5451780 146.5760750  34.3961960  15.9477670
 145.1351550  36.3663000  21.4835610 145.8161660  36.6301370  22.1023010
 144.8199600  35.5263870  21.8173620 149.3276120  37.4130360  20.5708200
 149.8354340  37.9111330  21.2113220 149.8589360  36.6365560  20.3947560
 147.6112220  32.0528920  24.8371620 147.6130660  32.5701310  24.0317520
 146.7816530  31.5759100  24.8141550 148.8615070  41.6924100  23.0145120
 148.5284450  42.3193020  23.6566190 149.0381750  42.2185980  22.2346790
 147.2927550  33.7638880  22.8442070 147.6344360  34.6080930  22.5495940
 146.3543360  33.9122620  22.9607410 148.0734170  43.6604900  24.8294300
 148.6908170  44.3355980  24.5478750 147.2127290  44.0692880  24.7381800
 143.3666510  42.8504760  13.7101150 142.9894490  43.3391860  12.9786050
 143.6239580  43.5230040  14.3407680 150.9755440  31.2521150  19.1686660
 151.2830420  30.6968040  18.4522160 150.0456140  31.3865610  18.9859650
 148.9692840  39.8434720  18.6866510 148.5649840  39.1311970  18.1912410
 149.0555960  39.4987960  19.5754550 149.4374540  43.5302280  20.8505720
 149.1402830  42.9247750  20.1713500 150.3874360  43.5679590  20.7395080
 147.6821460  36.6177930  22.4665550 148.2336050  36.7273270  21.6918800
 148.1964970  36.9915530  23.1820780 148.5292970  43.2683970  27.5013520
 147.6321500  43.4923940  27.7486920 148.5545840  43.3918910  26.5524920
 147.3564190  40.1397290  26.0770890 147.2171960  41.0120090  26.4458290
 146.4745550  39.7970100  25.9318830 149.1544540  46.0818990  28.2856040
 149.1259970  46.4861940  27.4184470 148.9909510  45.1529350  28.1227640
 145.6697470  38.7379700  16.1873160 145.5495070  39.4641790  15.5754430
 145.3598360  37.9682610  15.7101070 143.3082840  41.9094840  21.9941800
 143.3863260  42.0443610  21.0497520 143.9224520  41.2010730  22.1869920
 144.5530470  43.6095030  18.4047980 144.1458550  43.7509620  17.5501580
 145.4443480  43.3255190  18.2019190 148.8252130  47.8240810  16.5170650
 148.6494610  46.9076350  16.3038450 147.9707870  48.1828100  16.7568450
 143.3642360  42.9509010  24.5336260 143.5273400  42.4814370  23.7155630
 143.8294810  42.4432570  25.1985100 148.1361130  32.0814770  19.5696830
 147.6929280  32.8624310  19.2381350 148.6946120  32.4044660  20.2767770
 152.4230940  34.9483290  25.1732150 151.9610310  35.1566310  25.9852090
 152.0209050  34.1342640  24.8702820 151.2519950  31.7025470  14.4502660
 150.6274130  31.6985340  15.1755970 151.1650070  30.8356430  14.0538630
 150.1737030  32.6262100  21.4286430 150.4709360  33.5324930  21.3478450
 150.7222590  32.1380880  20.8146000 147.9275350  37.2048340  17.2978080
 147.7016270  36.9885510  18.2024700 147.1467880  37.6376800  16.9524050
 150.3674560  38.1033920  27.9638350 150.2718160  37.1628650  27.8138750
 151.2106540  38.3248990  27.5686420 145.4985100  34.5147590  26.1172130
 145.1048490  35.3622800  26.3244910 144.8103500  33.8773960  26.3080770
 142.8002150  32.4376050  20.1502210 142.5115200  33.0078910  20.8627190
 143.5447910  31.9580500  20.5133440 142.9872380  36.3796170  11.3604930
 142.9047050  37.3226930  11.5019920 142.6355440  36.2371080  10.4817280
 150.7870510  35.1135200  20.4275280 150.7906570  34.6725150  19.5779820
 151.6821630  35.4352530  20.5347100 146.6372890  34.9961690  19.3869490
 146.2972940  35.4736920  20.1436540 145.8750210  34.5426810  19.0270590
 150.8490660  36.1147280  13.4182040 150.9703480  36.0733760  14.3667860
 150.4639170  36.9771430  13.2628770 149.8612160  38.4248420  12.8165340
 149.2929060  37.9766670  12.1901250 150.5701160  38.7841200  12.2830490
 144.9381340  42.3260440  26.6932070 144.5536130  41.6854110  27.2915030
 145.2493530  43.0296560  27.2626800 151.0878480  39.1736980  22.1740690
 151.4548610  38.6995550  22.9202030 150.8983540  40.0478550  22.5149030
 143.9518970  33.9180670  18.3034160 143.6665890  33.5536340  19.1412780
 143.8897830  33.1861130  17.6897300 148.8777850  38.2145620  24.4924900
 148.5734920  39.0937600  24.7175260 149.8324310  38.2745410  24.5282340
 147.4059640  42.4206610  15.0891750 146.6321900  41.8804230  14.9290470
 148.1354270  41.9013220  14.7509510 147.4497040  42.0886990  18.7270560
 147.9675710  41.2855250  18.6727450 146.9981060  42.0266130  19.5687390
 144.9341580  39.0548360  25.6396260 144.5756520  39.7202210  26.2269600
 144.6396140  38.2231910  26.0108880 148.1354700  39.5132600  28.5235810
 147.8354840  39.6589780  27.6263630 148.9065940  38.9537890  28.4309200
 151.3057230  43.4366800  16.7713780 151.9928360  43.9836010  17.1521370
 150.5189650  43.9807530  16.8063390 143.4449630  39.0539620  12.2630860
 144.3144480  39.3364420  12.5466780 142.9539950  39.8675490  12.1479670
 150.6084440  40.4412830  16.3839140 151.0647220  41.2518080  16.6099330
 150.2572650  40.1235970  17.2157630 146.5096220  30.7850480  16.8561660
 146.3810850  30.7768380  17.8046580 145.6858240  31.1233570  16.5052670
 143.8120880  48.2667000  12.8292490 144.1718520  48.8656340  12.1749760
 143.6713220  48.8126890  13.6027520 143.5090150  32.5441600  26.3168360
 142.7948670  32.7438520  26.9220970 143.9285190  31.7681170  26.6883160
 143.7962740  46.5321860  27.3034890 143.9053860  45.5916600  27.1630280
 143.1443300  46.7976610  26.6548620 151.7875330  44.8037750  28.7033010
 151.4672200  44.0846990  29.2478700 151.1133690  45.4792820  28.7769070
 149.8289500  45.6498200  13.6466160 149.8199600  46.3827890  13.0310670
 148.9087860  45.4029780  13.7393120 145.4296140  40.8713090  14.3912920
 144.8224090  41.6111990  14.4008220 145.9045490  40.9612450  13.5651120
 150.3374990  36.2706800  16.2915250 149.6291140  36.7393140  16.7328860
 150.6219470  35.6128810  16.9260440 151.9630920  37.6903500  24.2907780
 152.4616170  38.1649320  24.9559630 152.1053870  36.7667020  24.4977810
 151.4567210  48.2312760  17.0039020 151.7108710  48.1934150  16.0818390
 150.5079690  48.1046090  16.9967270 148.5410010  34.5791880  13.6665960
 149.3900540  35.0162030  13.6006150 148.1741280  34.8912140  14.4938020
 147.4401430  40.8324240  12.1401490 148.2064700  40.7205600  12.7026920
 147.5176120  40.1362210  11.4878260 146.1348190  38.2649310  12.8234380
 146.2151780  37.3176820  12.9351780 147.0267940  38.5956190  12.9295040
 146.9362900  48.4144700  19.9268920 147.6725380  47.8660160  20.1977490
 147.3203820  49.2800710  19.7874910 143.8208380  44.4818270  15.8010430
 142.8948160  44.7239410  15.7915840 144.2864810  45.3092530  15.6795180
 145.9421180  47.5990770  29.1154500 146.7433910  47.9202820  29.5289900
 145.4273000  47.2386350  29.8374410 150.0465210  47.5875010  11.7494490
 150.8393820  47.8763840  11.2976280 149.5269560  47.1567180  11.0706970
 143.6618990  40.0864230  28.0590550 144.1658010  39.5071510  28.6306780
 142.9226410  40.3704460  28.5966920 150.5642610  42.8078420  11.6136840
 150.4593250  42.1930770  12.3398220 150.3966830  42.2844310  10.8299850
 150.7156930  41.4935220  27.5926070 149.9502600  42.0620220  27.5080740
 150.8972890  41.2011430  26.6994300 145.6942070  38.2293820  28.9540620
 145.7347410  37.9307690  29.8625850 146.5487570  38.6301430  28.7948140
 149.4720460  40.8289370  14.1144130 149.8936880  40.6629240  14.9575520
 149.5971300  40.0189600  13.6199270 147.6347880  36.8085920  26.9215110
 147.1044340  36.3176870  26.2938450 148.3035950  37.2370120  26.3873040
 151.9848100  39.8526980  11.3621230 152.5053760  39.1376000  10.9962380
 152.6316500  40.4912850  11.6621740 148.1220180  33.7748290  27.0012400
 148.0277050  33.1569040  26.2763270 147.5417570  34.5014580  26.7742310
 150.8881620  32.3321530  24.0339790 150.4398920  32.3545790  23.1885340
 150.2546820  31.9340550  24.6310090 151.2941170  41.2275860  24.6552230
 151.7129280  42.0708590  24.4828470 150.3749800  41.3647900  24.4259010
 148.3679360  36.9022600  11.0602290 148.1668420  36.0389960  11.4215630
 148.1971410  36.8155960  10.1223890 149.1448590  47.5328870  25.7709960
 148.6069680  48.2574930  25.4518660 149.3982550  47.0559210  24.9807300
 150.3973840  35.5013390  27.2965890 150.9873530  35.1929240  27.9843710
 149.5794080  35.0293140  27.4525790 147.1662160  34.0023220  11.0480170
 147.4688060  34.0090650  10.1399320 147.9056750  33.6521080  11.5447830
 152.0010800  48.7680080  26.0296610 151.9269500  49.6715220  26.3368980
 151.0989640  48.4491980  26.0018680 150.3847090  32.9457840  12.0336370
 150.0369090  32.2681830  11.4538820 150.5859860  32.4847350  12.8479760
 146.1892290  43.3065640  11.8809970 146.6267160  43.8495310  12.5367550
 146.6740020  42.4812590  11.8906310 143.4038090  46.0954670  19.3330230
 143.7341100  45.2275730  19.1008870 143.8329090  46.3013190  20.1635190
 148.0000010  44.4263680  16.9932200 147.6995550  44.3028650  17.8936110
 147.8937500  43.5672270  16.5847930 143.8928300  46.9625260  22.0711860
 143.4559290  47.1426060  22.9036010 144.4605980  47.7199880  21.9293580
 143.7252730  39.4745490  18.4300740 143.0701570  39.2057130  17.7860440
 144.5630680  39.3649970  17.9802720 144.7628660  39.8598060  22.9704080
 145.1301700  39.7725460  23.8500100 144.1939480  39.0964610  22.8710940
 144.3144660  36.7707150  26.8762500 143.4200710  36.7373910  27.2156210
 144.8542210  36.9693940  27.6413750 142.9390810  36.6844420  14.3726070
 142.0354890  36.9474620  14.1977730 143.4231430  36.9555590  13.5926030
 145.4818020  35.7409960  12.2820450 146.1909720  35.3193180  11.7967730
 144.7657960  35.8085190  11.6503800 145.1292180  31.7949290  11.3223100
 145.8520310  32.3358230  11.6404320 145.4016700  31.5212710  10.4464640
 144.8184370  31.0455480  21.2245720 145.4660560  30.4952860  20.7840880
 145.2386210  31.2998630  22.0461530 144.5716370  31.2011150  23.9671040
 144.2231190  31.6574970  24.7329220 144.2404070  30.3068280  24.0493470
 146.1780740  44.3730750  28.1324230 146.1350370  44.0023660  29.0138690
 146.3091750  45.3108320  28.2726050 149.8786770  45.9290340  23.7333950
 149.6378130  46.1964900  22.8464470 150.8189410  46.0996070  23.7884810
 145.2437010  30.7287350  27.2421810 145.7920000  30.5475400  26.4787920
 145.3092320  29.9381460  27.7778120 146.0168770  47.3193000  25.2522010
 145.4229090  47.1877700  25.9912050 146.0092610  46.4831140  24.7864110
 145.6481000  44.6851380  24.2030050 144.9215060  44.0656670  24.1356000
 145.7090150  45.0791990  23.3328130 149.2526100  46.8996380  20.9879460
 149.7691120  46.2883740  20.4627720 149.9023480  47.4025160  21.4790470
 151.9921600  47.7904870  21.8148440 152.2799410  47.5359170  20.9381450
 152.5044820  47.2382230  22.4054010 143.9311000  48.0025770  17.4126810
 143.7633040  47.3696450  18.1108700 143.0645510  48.2085170  17.0621000
 144.5539020  31.8342550  14.9158670 145.3118380  31.9471430  14.3422700
 144.0916190  32.6711750  14.8702100 151.0952830  33.9481820  17.9060980
 150.2827340  33.5738710  17.5656860 151.5994470  33.1926900  18.2082170
 145.5373700  46.6959000  14.8576950 145.0121320  47.0767030  14.1538910
 145.4618280  47.3209770  15.5786660 146.9264170  32.3606600  13.4560640
 147.4556930  31.5736400  13.3268590 147.5592490  33.0397790  13.6896170
 149.1202010  32.0981740  16.5106030 148.4904750  31.3969050  16.6776160
 148.5807150  32.8585870  16.2939190 149.2457570  31.3765720  28.9458520
 148.9641840  31.8799320  28.1819340 149.6277270  30.5787470  28.5800650
 148.1366670  48.6441380  13.7326200 148.8685490  48.3600660  13.1850090
 148.3960340  48.4054660  14.6225580 147.2981460  44.7606110  13.7372530
 146.6690340  45.2291210  14.2858360 147.4129290  43.9155330  14.1718720
 146.9015050  40.9010600   2.6458760 146.0699930  40.6459310   3.0455270
 147.5096030  40.9721370   3.3816680 146.8816310  44.9350690   2.8416780
 147.1844350  44.0448430   2.6627000 147.6259900  45.4920910   2.6139030
 144.5164880  33.8702500   4.1009780 144.3367720  32.9728250   4.3812540
 144.1144960  34.4174370   4.7756730 145.1351550  36.3663000   2.7092120
 145.8161660  36.6301370   3.3279520 144.8199600  35.5263870   3.0430130
 149.3276120  37.4130360   1.7964710 149.8354340  37.9111330   2.4369730
 149.8589360  36.6365560   1.6204070 147.6112220  32.0528920   6.0628130
 147.6130660  32.5701310   5.2574030 146.7816530  31.5759100   6.0398060
 148.8615070  41.6924100   4.2401630 148.5284450  42.3193020   4.8822700
 149.0381750  42.2185980   3.4603300 147.2927550  33.7638880   4.0698580
 147.6344360  34.6080930   3.7752450 146.3543360  33.9122620   4.1863920
 148.0734170  43.6604900   6.0550810 148.6908170  44.3355980   5.7735260
 147.2127290  44.0692880   5.9638310 147.6821460  36.6177930   3.6922060
 148.2336050  36.7273270   2.9175310 148.1964970  36.9915530   4.4077290
 148.5292970  43.2683970   8.7270030 147.6321500  43.4923940   8.9743430
 148.5545840  43.3918910   7.7781430 147.3564190  40.1397290   7.3027400
 147.2171960  41.0120090   7.6714800 146.4745550  39.7970100   7.1575340
 149.1544540  46.0818990   9.5112550 149.1259970  46.4861940   8.6440980
 148.9909510  45.1529350   9.3484150 143.3082840  41.9094840   3.2198310
 143.3863260  42.0443610   2.2754030 143.9224520  41.2010730   3.4126430
 143.3642360  42.9509010   5.7592770 143.5273400  42.4814370   4.9412140
 143.8294810  42.4432570   6.4241610 152.4230940  34.9483290   6.3988660
 151.9610310  35.1566310   7.2108600 152.0209050  34.1342640   6.0959330
 150.1737030  32.6262100   2.6542940 150.4709360  33.5324930   2.5734960
 150.7222590  32.1380880   2.0402510 150.3674560  38.1033920   9.1894860
 150.2718160  37.1628650   9.0395260 151.2106540  38.3248990   8.7942930
 145.4985100  34.5147590   7.3428640 145.1048490  35.3622800   7.5501420
 144.8103500  33.8773960   7.5337280 144.9381340  42.3260440   7.9188580
 144.5536130  41.6854110   8.5171540 145.2493530  43.0296560   8.4883310
 151.0878480  39.1736980   3.3997200 151.4548610  38.6995550   4.1458540
 150.8983540  40.0478550   3.7405540 148.8777850  38.2145620   5.7181410
 148.5734920  39.0937600   5.9431770 149.8324310  38.2745410   5.7538850
 144.9341580  39.0548360   6.8652770 144.5756520  39.7202210   7.4526110
 144.6396140  38.2231910   7.2365390 148.1354700  39.5132600   9.7492320
 147.8354840  39.6589780   8.8520140 148.9065940  38.9537890   9.6565710
 143.5090150  32.5441600   7.5424870 142.7948670  32.7438520   8.1477480
 143.9285190  31.7681170   7.9139670 143.7962740  46.5321860   8.5291400
 143.9053860  45.5916600   8.3886790 143.1443300  46.7976610   7.8805130
 151.7875330  44.8037750   9.9289520 151.4672200  44.0846990  10.4735210
 151.1133690  45.4792820  10.0025580 151.9630920  37.6903500   5.5164290
 152.4616170  38.1649320   6.1816140 152.1053870  36.7667020   5.7234320
 145.9421180  47.5990770  10.3411010 146.7433910  47.9202820  10.7546410
 145.4273000  47.2386350  11.0630920 143.6618990  40.0864230   9.2847060
 144.1658010  39.5071510   9.8563290 142.9226410  40.3704460   9.8223430
 150.7156930  41.4935220   8.8182580 149.9502600  42.0620220   8.7337250
 150.8972890  41.2011430   7.9250810 145.6942070  38.2293820  10.1797130
 145.7347410  37.9307690  11.0882360 146.5487570  38.6301430  10.0204650
 147.6347880  36.8085920   8.1471620 147.1044340  36.3176870   7.5194960
 148.3035950  37.2370120   7.6129550 148.1220180  33.7748290   8.2268910
 148.0277050  33.1569040   7.5019780 147.5417570  34.5014580   7.9998820
 150.8881620  32.3321530   5.2596300 150.4398920  32.3545790   4.4141850
 150.2546820  31.9340550   5.8566600 151.2941170  41.2275860   5.8808740
 151.7129280  42.0708590   5.7084980 150.3749800  41.3647900   5.6515520
 149.1448590  47.5328870   6.9966470 148.6069680  48.2574930   6.6775170
 149.3982550  47.0559210   6.2063810 150.3973840  35.5013390   8.5222400
 150.9873530  35.1929240   9.2100220 149.5794080  35.0293140   8.6782300
 152.0010800  48.7680080   7.2553120 151.9269500  49.6715220   7.5625490
 151.0989640  48.4491980   7.2275190 143.8928300  46.9625260   3.2968370
 143.4559290  47.1426060   4.1292520 144.4605980  47.7199880   3.1550090
 144.7628660  39.8598060   4.1960590 145.1301700  39.7725460   5.0756610
 144.1939480  39.0964610   4.0967450 144.3144660  36.7707150   8.1019010
 143.4200710  36.7373910   8.4412720 144.8542210  36.9693940   8.8670260
 144.8184370  31.0455480   2.4502230 145.4660560  30.4952860   2.0097390
 145.2386210  31.2998630   3.2718040 144.5716370  31.2011150   5.1927550
 144.2231190  31.6574970   5.9585730 144.2404070  30.3068280   5.2749980
 146.1780740  44.3730750   9.3580740 146.1350370  44.0023660  10.2395200
 146.3091750  45.3108320   9.4982560 149.8786770  45.9290340   4.9590460
 149.6378130  46.1964900   4.0720980 150.8189410  46.0996070   5.0141320
 145.2437010  30.7287350   8.4678320 145.7920000  30.5475400   7.7044430
 145.3092320  29.9381460   9.0034630 146.0168770  47.3193000   6.4778520
 145.4229090  47.1877700   7.2168560 146.0092610  46.4831140   6.0120620
 145.6481000  44.6851380   5.4286560 144.9215060  44.0656670   5.3612510
 145.7090150  45.0791990   4.5584640 149.2526100  46.8996380   2.2135970
 149.7691120  46.2883740   1.6884230 149.9023480  47.4025160   2.7046980
 151.9921600  47.7904870   3.0404950 152.2799410  47.5359170   2.1637960
 152.5044820  47.2382230   3.6310520 149.2457570  31.3765720  10.1715030
 148.9641840  31.8799320   9.4075850 149.6277270  30.5787470   9.8057160
 145.3107000  17.0869000 146.6249070 144.4223700  17.4284970 146.5228950
 145.5948190  16.8869320 145.7329900 147.4868390  15.6700500 147.6587450
 147.5935140  16.5704230 147.9656210 146.5760750  15.6218470 147.3682100
 143.3666510  24.0761270 145.1305580 142.9894490  24.5648370 144.3990480
 143.6239580  24.7486550 145.7612110 150.9755440  12.4777660 150.5891090
 151.2830420  11.9224550 149.8726590 150.0456140  12.6122120 150.4064080
 148.9692840  21.0691230 150.1070940 148.5649840  20.3568480 149.6116840
 149.0555960  20.7244470 150.9958980 145.6697470  19.9636210 147.6077590
 145.5495070  20.6898300 146.9958860 145.3598360  19.1939120 147.1305500
 144.5530470  24.8351540 149.8252410 144.1458550  24.9766130 148.9706010
 145.4443480  24.5511700 149.6223620 148.8252130  29.0497320 147.9375080
 148.6494610  28.1332860 147.7242880 147.9707870  29.4084610 148.1772880
 148.1361130  13.3071280 150.9901260 147.6929280  14.0880820 150.6585780
 148.6946120  13.6301170 151.6972200 151.2519950  12.9281980 145.8707090
 150.6274130  12.9241850 146.5960400 151.1650070  12.0612940 145.4743060
 147.9275350  18.4304850 148.7182510 147.7016270  18.2142020 149.6229130
 147.1467880  18.8633310 148.3728480 142.9872380  17.6052680 142.7809360
 142.9047050  18.5483440 142.9224350 142.6355440  17.4627590 141.9021710
 146.6372890  16.2218200 150.8073920 146.2972940  16.6993430 151.5640970
 145.8750210  15.7683320 150.4475020 150.8490660  17.3403790 144.8386470
 150.9703480  17.2990270 145.7872290 150.4639170  18.2027940 144.6833200
 149.8612160  19.6504930 144.2369770 149.2929060  19.2023180 143.6105680
 150.5701160  20.0097710 143.7034920 143.9518970  15.1437180 149.7238590
 143.6665890  14.7792850 150.5617210 143.8897830  14.4117640 149.1101730
 147.4059640  23.6463120 146.5096180 146.6321900  23.1060740 146.3494900
 148.1354270  23.1269730 146.1713940 147.4497040  23.3143500 150.1474990
 147.9675710  22.5111760 150.0931880 146.9981060  23.2522640 150.9891820
 151.3057230  24.6623310 148.1918210 151.9928360  25.2092520 148.5725800
 150.5189650  25.2064040 148.2267820 143.4449630  20.2796130 143.6835290
 144.3144480  20.5620930 143.9671210 142.9539950  21.0932000 143.5684100
 150.6084440  21.6669340 147.8043570 151.0647220  22.4774590 148.0303760
 150.2572650  21.3492480 148.6362060 146.5096220  12.0106990 148.2766090
 146.3810850  12.0024890 149.2251010 145.6858240  12.3490080 147.9257100
 143.8120880  29.4923510 144.2496920 144.1718520  30.0912850 143.5954190
 143.6713220  30.0383400 145.0231950 149.8289500  26.8754710 145.0670590
 149.8199600  27.6084400 144.4515100 148.9087860  26.6286290 145.1597550
 145.4296140  22.0969600 145.8117350 144.8224090  22.8368500 145.8212650
 145.9045490  22.1868960 144.9855550 150.3374990  17.4963310 147.7119680
 149.6291140  17.9649650 148.1533290 150.6219470  16.8385320 148.3464870
 151.4567210  29.4569270 148.4243450 151.7108710  29.4190660 147.5022820
 150.5079690  29.3302600 148.4171700 148.5410010  15.8048390 145.0870390
 149.3900540  16.2418540 145.0210580 148.1741280  16.1168650 145.9142450
 147.4401430  22.0580750 143.5605920 148.2064700  21.9462110 144.1231350
 147.5176120  21.3618720 142.9082690 146.1348190  19.4905820 144.2438810
 146.2151780  18.5433330 144.3556210 147.0267940  19.8212700 144.3499470
 146.9362900  29.6401210 151.3473350 147.6725380  29.0916670 151.6181920
 147.3203820  30.5057220 151.2079340 143.8208380  25.7074780 147.2214860
 142.8948160  25.9495920 147.2120270 144.2864810  26.5349040 147.0999610
 150.0465210  28.8131520 143.1698920 150.8393820  29.1020350 142.7180710
 149.5269560  28.3823690 142.4911400 150.5642610  24.0334930 143.0341270
 150.4593250  23.4187280 143.7602650 150.3966830  23.5100820 142.2504280
 149.4720460  22.0545880 145.5348560 149.8936880  21.8885750 146.3779950
 149.5971300  21.2446110 145.0403700 151.9848100  21.0783490 142.7825660
 152.5053760  20.3632510 142.4166810 152.6316500  21.7169360 143.0826170
 148.3679360  18.1279110 142.4806720 148.1668420  17.2646470 142.8420060
 148.1971410  18.0412470 141.5428320 147.1662160  15.2279730 142.4684600
 147.4688060  15.2347160 141.5603750 147.9056750  14.8777590 142.9652260
 150.3847090  14.1714350 143.4540800 150.0369090  13.4938340 142.8743250
 150.5859860  13.7103860 144.2684190 146.1892290  24.5322150 143.3014400
 146.6267160  25.0751820 143.9571980 146.6740020  23.7069100 143.3110740
 143.4038090  27.3211180 150.7534660 143.7341100  26.4532240 150.5213300
 143.8329090  27.5269700 151.5839620 148.0000010  25.6520190 148.4136630
 147.6995550  25.5285160 149.3140540 147.8937500  24.7928780 148.0052360
 143.7252730  20.7002000 149.8505170 143.0701570  20.4313640 149.2064870
 144.5630680  20.5906480 149.4007150 142.9390810  17.9100930 145.7930500
 142.0354890  18.1731130 145.6182160 143.4231430  18.1812100 145.0130460
 145.4818020  16.9666470 143.7024880 146.1909720  16.5449690 143.2172160
 144.7657960  17.0341700 143.0708230 145.1292180  13.0205800 142.7427530
 145.8520310  13.5614740 143.0608750 145.4016700  12.7469220 141.8669070
 143.9311000  29.2282280 148.8331240 143.7633040  28.5952960 149.5313130
 143.0645510  29.4341680 148.4825430 144.5539020  13.0599060 146.3363100
 145.3118380  13.1727940 145.7627130 144.0916190  13.8968260 146.2906530
 151.0952830  15.1738330 149.3265410 150.2827340  14.7995220 148.9861290
 151.5994470  14.4183410 149.6286600 145.5373700  27.9215510 146.2781380
 145.0121320  28.3023540 145.5743340 145.4618280  28.5466280 146.9991090
 146.9264170  13.5863110 144.8765070 147.4556930  12.7992910 144.7473020
 147.5592490  14.2654300 145.1100600 149.1202010  13.3238250 147.9310460
 148.4904750  12.6225560 148.0980590 148.5807150  14.0842380 147.7143620
 148.1366670  29.8697890 145.1530630 148.8685490  29.5857170 144.6054520
 148.3960340  29.6311170 146.0430010 147.2981460  25.9862620 145.1576960
 146.6690340  26.4547720 145.7062790 147.4129290  25.1411840 145.5923150
 146.9015050  22.1267110 134.0663190 146.0699930  21.8715820 134.4659700
 147.5096030  22.1977880 134.8021110 146.8816310  26.1607200 134.2621210
 147.1844350  25.2704940 134.0831430 147.6259900  26.7177420 134.0343460
 145.3107000  17.0869000 127.8505580 144.4223700  17.4284970 127.7485460
 145.5948190  16.8869320 126.9586410 143.2740010  19.6874650 133.7345280
 143.8456120  18.9196850 133.7348920 143.2741550  19.9863410 132.8251890
 144.5164880  15.0959010 135.5214210 144.3367720  14.1984760 135.8016970
 144.1144960  15.6430880 136.1961160 147.4868390  15.6700500 128.8843960
 147.5935140  16.5704230 129.1912720 146.5760750  15.6218470 128.5938610
 145.1351550  17.5919510 134.1296550 145.8161660  17.8557880 134.7483950
 144.8199600  16.7520380 134.4634560 149.3276120  18.6386870 133.2169140
 149.8354340  19.1367840 133.8574160 149.8589360  17.8622070 133.0408500
 147.6112220  13.2785430 137.4832560 147.6130660  13.7957820 136.6778460
 146.7816530  12.8015610 137.4602490 148.8615070  22.9180610 135.6606060
 148.5284450  23.5449530 136.3027130 149.0381750  23.4442490 134.8807730
 147.2927550  14.9895390 135.4903010 147.6344360  15.8337440 135.1956880
 146.3543360  15.1379130 135.6068350 148.0734170  24.8861410 137.4755240
 148.6908170  25.5612490 137.1939690 147.2127290  25.2949390 137.3842740
 143.3666510  24.0761270 126.3562090 142.9894490  24.5648370 125.6246990
 143.6239580  24.7486550 126.9868620 150.9755440  12.4777660 131.8147600
 151.2830420  11.9224550 131.0983100 150.0456140  12.6122120 131.6320590
 148.9692840  21.0691230 131.3327450 148.5649840  20.3568480 130.8373350
 149.0555960  20.7244470 132.2215490 149.4374540  24.7558790 133.4966660
 149.1402830  24.1504260 132.8174440 150.3874360  24.7936100 133.3856020
 147.6821460  17.8434440 135.1126490 148.2336050  17.9529780 134.3379740
 148.1964970  18.2172040 135.8281720 148.5292970  24.4940480 140.1474460
 147.6321500  24.7180450 140.3947860 148.5545840  24.6175420 139.1985860
 147.3564190  21.3653800 138.7231830 147.2171960  22.2376600 139.0919230
 146.4745550  21.0226610 138.5779770 149.1544540  27.3075500 140.9316980
 149.1259970  27.7118450 140.0645410 148.9909510  26.3785860 140.7688580
 145.6697470  19.9636210 128.8334100 145.5495070  20.6898300 128.2215370
 145.3598360  19.1939120 128.3562010 143.3082840  23.1351350 134.6402740
 143.3863260  23.2700120 133.6958460 143.9224520  22.4267240 134.8330860
 144.5530470  24.8351540 131.0508920 144.1458550  24.9766130 130.1962520
 145.4443480  24.5511700 130.8480130 148.8252130  29.0497320 129.1631590
 148.6494610  28.1332860 128.9499390 147.9707870  29.4084610 129.4029390
 143.3642360  24.1765520 137.1797200 143.5273400  23.7070880 136.3616570
 143.8294810  23.6689080 137.8446040 148.1361130  13.3071280 132.2157770
 147.6929280  14.0880820 131.8842290 148.6946120  13.6301170 132.9228710
 152.4230940  16.1739800 137.8193090 151.9610310  16.3822820 138.6313030
 152.0209050  15.3599150 137.5163760 151.2519950  12.9281980 127.0963600
 150.6274130  12.9241850 127.8216910 151.1650070  12.0612940 126.6999570
 150.1737030  13.8518610 134.0747370 150.4709360  14.7581440 133.9939390
 150.7222590  13.3637390 133.4606940 147.9275350  18.4304850 129.9439020
 147.7016270  18.2142020 130.8485640 147.1467880  18.8633310 129.5984990
 150.3674560  19.3290430 140.6099290 150.2718160  18.3885160 140.4599690
 151.2106540  19.5505500 140.2147360 145.4985100  15.7404100 138.7633070
 145.1048490  16.5879310 138.9705850 144.8103500  15.1030470 138.9541710
 142.8002150  13.6632560 132.7963150 142.5115200  14.2335420 133.5088130
 143.5447910  13.1837010 133.1594380 142.9872380  17.6052680 124.0065870
 142.9047050  18.5483440 124.1480860 142.6355440  17.4627590 123.1278220
 150.7870510  16.3391710 133.0736220 150.7906570  15.8981660 132.2240760
 151.6821630  16.6609040 133.1808040 146.6372890  16.2218200 132.0330430
 146.2972940  16.6993430 132.7897480 145.8750210  15.7683320 131.6731530
 150.8490660  17.3403790 126.0642980 150.9703480  17.2990270 127.0128800
 150.4639170  18.2027940 125.9089710 149.8612160  19.6504930 125.4626280
 149.2929060  19.2023180 124.8362190 150.5701160  20.0097710 124.9291430
 144.9381340  23.5516950 139.3393010 144.5536130  22.9110620 139.9375970
 145.2493530  24.2553070 139.9087740 151.0878480  20.3993490 134.8201630
 151.4548610  19.9252060 135.5662970 150.8983540  21.2735060 135.1609970
 143.9518970  15.1437180 130.9495100 143.6665890  14.7792850 131.7873720
 143.8897830  14.4117640 130.3358240 148.8777850  19.4402130 137.1385840
 148.5734920  20.3194110 137.3636200 149.8324310  19.5001920 137.1743280
 147.4059640  23.6463120 127.7352690 146.6321900  23.1060740 127.5751410
 148.1354270  23.1269730 127.3970450 147.4497040  23.3143500 131.3731500
 147.9675710  22.5111760 131.3188390 146.9981060  23.2522640 132.2148330
 144.9341580  20.2804870 138.2857200 144.5756520  20.9458720 138.8730540
 144.6396140  19.4488420 138.6569820 148.1354700  20.7389110 141.1696750
 147.8354840  20.8846290 140.2724570 148.9065940  20.1794400 141.0770140
 151.3057230  24.6623310 129.4174720 151.9928360  25.2092520 129.7982310
 150.5189650  25.2064040 129.4524330 143.4449630  20.2796130 124.9091800
 144.3144480  20.5620930 125.1927720 142.9539950  21.0932000 124.7940610
 150.6084440  21.6669340 129.0300080 151.0647220  22.4774590 129.2560270
 150.2572650  21.3492480 129.8618570 146.5096220  12.0106990 129.5022600
 146.3810850  12.0024890 130.4507520 145.6858240  12.3490080 129.1513610
 143.8120880  29.4923510 125.4753430 144.1718520  30.0912850 124.8210700
 143.6713220  30.0383400 126.2488460 143.5090150  13.7698110 138.9629300
 142.7948670  13.9695030 139.5681910 143.9285190  12.9937680 139.3344100
 143.7962740  27.7578370 139.9495830 143.9053860  26.8173110 139.8091220
 143.1443300  28.0233120 139.3009560 151.7875330  26.0294260 141.3493950
 151.4672200  25.3103500 141.8939640 151.1133690  26.7049330 141.4230010
 149.8289500  26.8754710 126.2927100 149.8199600  27.6084400 125.6771610
 148.9087860  26.6286290 126.3854060 145.4296140  22.0969600 127.0373860
 144.8224090  22.8368500 127.0469160 145.9045490  22.1868960 126.2112060
 150.3374990  17.4963310 128.9376190 149.6291140  17.9649650 129.3789800
 150.6219470  16.8385320 129.5721380 151.9630920  18.9160010 136.9368720
 152.4616170  19.3905830 137.6020570 152.1053870  17.9923530 137.1438750
 151.4567210  29.4569270 129.6499960 151.7108710  29.4190660 128.7279330
 150.5079690  29.3302600 129.6428210 148.5410010  15.8048390 126.3126900
 149.3900540  16.2418540 126.2467090 148.1741280  16.1168650 127.1398960
 147.4401430  22.0580750 124.7862430 148.2064700  21.9462110 125.3487860
 147.5176120  21.3618720 124.1339200 146.1348190  19.4905820 125.4695320
 146.2151780  18.5433330 125.5812720 147.0267940  19.8212700 125.5755980
 146.9362900  29.6401210 132.5729860 147.6725380  29.0916670 132.8438430
 147.3203820  30.5057220 132.4335850 143.8208380  25.7074780 128.4471370
 142.8948160  25.9495920 128.4376780 144.2864810  26.5349040 128.3256120
 145.9421180  28.8247280 141.7615440 146.7433910  29.1459330 142.1750840
 145.4273000  28.4642860 142.4835350 150.0465210  28.8131520 124.3955430
 150.8393820  29.1020350 123.9437220 149.5269560  28.3823690 123.7167910
 143.6618990  21.3120740 140.7051490 144.1658010  20.7328020 141.2767720
 142.9226410  21.5960970 141.2427860 150.5642610  24.0334930 124.2597780
 150.4593250  23.4187280 124.9859160 150.3966830  23.5100820 123.4760790
 150.7156930  22.7191730 140.2387010 149.9502600  23.2876730 140.1541680
 150.8972890  22.4267940 139.3455240 145.6942070  19.4550330 141.6001560
 145.7347410  19.1564200 142.5086790 146.5487570  19.8557940 141.4409080
 149.4720460  22.0545880 126.7605070 149.8936880  21.8885750 127.6036460
 149.5971300  21.2446110 126.2660210 147.6347880  18.0342430 139.5676050
 147.1044340  17.5433380 138.9399390 148.3035950  18.4626630 139.0333980
 151.9848100  21.0783490 124.0082170 152.5053760  20.3632510 123.6423320
 152.6316500  21.7169360 124.3082680 148.1220180  15.0004800 139.6473340
 148.0277050  14.3825550 138.9224210 147.5417570  15.7271090 139.4203250
 150.8881620  13.5578040 136.6800730 150.4398920  13.5802300 135.8346280
 150.2546820  13.1597060 137.2771030 151.2941170  22.4532370 137.3013170
 151.7129280  23.2965100 137.1289410 150.3749800  22.5904410 137.0719950
 148.3679360  18.1279110 123.7063230 148.1668420  17.2646470 124.0676570
 148.1971410  18.0412470 122.7684830 149.1448590  28.7585380 138.4170900
 148.6069680  29.4831440 138.0979600 149.3982550  28.2815720 137.6268240
 150.3973840  16.7269900 139.9426830 150.9873530  16.4185750 140.6304650
 149.5794080  16.2549650 140.0986730 147.1662160  15.2279730 123.6941110
 147.4688060  15.2347160 122.7860260 147.9056750  14.8777590 124.1908770
 152.0010800  29.9936590 138.6757550 151.9269500  30.8971730 138.9829920
 151.0989640  29.6748490 138.6479620 150.3847090  14.1714350 124.6797310
 150.0369090  13.4938340 124.0999760 150.5859860  13.7103860 125.4940700
 146.1892290  24.5322150 124.5270910 146.6267160  25.0751820 125.1828490
 146.6740020  23.7069100 124.5367250 143.4038090  27.3211180 131.9791170
 143.7341100  26.4532240 131.7469810 143.8329090  27.5269700 132.8096130
 148.0000010  25.6520190 129.6393140 147.6995550  25.5285160 130.5397050
 147.8937500  24.7928780 129.2308870 143.8928300  28.1881770 134.7172800
 143.4559290  28.3682570 135.5496950 144.4605980  28.9456390 134.5754520
 143.7252730  20.7002000 131.0761680 143.0701570  20.4313640 130.4321380
 144.5630680  20.5906480 130.6263660 144.7628660  21.0854570 135.6165020
 145.1301700  20.9981970 136.4961040 144.1939480  20.3221120 135.5171880
 144.3144660  17.9963660 139.5223440 143.4200710  17.9630420 139.8617150
 144.8542210  18.1950450 140.2874690 142.9390810  17.9100930 127.0187010
 142.0354890  18.1731130 126.8438670 143.4231430  18.1812100 126.2386970
 145.4818020  16.9666470 124.9281390 146.1909720  16.5449690 124.4428670
 144.7657960  17.0341700 124.2964740 145.1292180  13.0205800 123.9684040
 145.8520310  13.5614740 124.2865260 145.4016700  12.7469220 123.0925580
 144.8184370  12.2711990 133.8706660 145.4660560  11.7209370 133.4301820
 145.2386210  12.5255140 134.6922470 144.5716370  12.4267660 136.6131980
 144.2231190  12.8831480 137.3790160 144.2404070  11.5324790 136.6954410
 146.1780740  25.5987260 140.7785170 146.1350370  25.2280170 141.6599630
 146.3091750  26.5364830 140.9186990 149.8786770  27.1546850 136.3794890
 149.6378130  27.4221410 135.4925410 150.8189410  27.3252580 136.4345750
 145.2437010  11.9543860 139.8882750 145.7920000  11.7731910 139.1248860
 145.3092320  11.1637970 140.4239060 146.0168770  28.5449510 137.8982950
 145.4229090  28.4134210 138.6372990 146.0092610  27.7087650 137.4325050
 145.6481000  25.9107890 136.8490990 144.9215060  25.2913180 136.7816940
 145.7090150  26.3048500 135.9789070 149.2526100  28.1252890 133.6340400
 149.7691120  27.5140250 133.1088660 149.9023480  28.6281670 134.1251410
 151.9921600  29.0161380 134.4609380 152.2799410  28.7615680 133.5842390
 152.5044820  28.4638740 135.0514950 143.9311000  29.2282280 130.0587750
 143.7633040  28.5952960 130.7569640 143.0645510  29.4341680 129.7081940
 144.5539020  13.0599060 127.5619610 145.3118380  13.1727940 126.9883640
 144.0916190  13.8968260 127.5163040 151.0952830  15.1738330 130.5521920
 150.2827340  14.7995220 130.2117800 151.5994470  14.4183410 130.8543110
 145.5373700  27.9215510 127.5037890 145.0121320  28.3023540 126.7999850
 145.4618280  28.5466280 128.2247600 146.9264170  13.5863110 126.1021580
 147.4556930  12.7992910 125.9729530 147.5592490  14.2654300 126.3357110
 149.1202010  13.3238250 129.1566970 148.4904750  12.6225560 129.3237100
 148.5807150  14.0842380 128.9400130 149.2457570  12.6022230 141.5919460
 148.9641840  13.1055830 140.8280280 149.6277270  11.8043980 141.2261590
 148.1366670  29.8697890 126.3787140 148.8685490  29.5857170 125.8311030
 148.3960340  29.6311170 127.2686520 147.2981460  25.9862620 126.3833470
 146.6690340  26.4547720 126.9319300 147.4129290  25.1411840 126.8179660
 146.9015050  22.1267110 115.2919700 146.0699930  21.8715820 115.6916210
 147.5096030  22.1977880 116.0277620 146.8816310  26.1607200 115.4877720
 147.1844350  25.2704940 115.3087940 147.6259900  26.7177420 115.2599970
 145.3107000  17.0869000 109.0762090 144.4223700  17.4284970 108.9741970
 145.5948190  16.8869320 108.1842920 143.2740010  19.6874650 114.9601790
 143.8456120  18.9196850 114.9605430 143.2741550  19.9863410 114.0508400
 144.5164880  15.0959010 116.7470720 144.3367720  14.1984760 117.0273480
 144.1144960  15.6430880 117.4217670 147.4868390  15.6700500 110.1100470
 147.5935140  16.5704230 110.4169230 146.5760750  15.6218470 109.8195120
 145.1351550  17.5919510 115.3553060 145.8161660  17.8557880 115.9740460
 144.8199600  16.7520380 115.6891070 149.3276120  18.6386870 114.4425650
 149.8354340  19.1367840 115.0830670 149.8589360  17.8622070 114.2665010
 147.6112220  13.2785430 118.7089070 147.6130660  13.7957820 117.9034970
 146.7816530  12.8015610 118.6859000 148.8615070  22.9180610 116.8862570
 148.5284450  23.5449530 117.5283640 149.0381750  23.4442490 116.1064240
 147.2927550  14.9895390 116.7159520 147.6344360  15.8337440 116.4213390
 146.3543360  15.1379130 116.8324860 148.0734170  24.8861410 118.7011750
 148.6908170  25.5612490 118.4196200 147.2127290  25.2949390 118.6099250
 143.3666510  24.0761270 107.5818600 142.9894490  24.5648370 106.8503500
 143.6239580  24.7486550 108.2125130 150.9755440  12.4777660 113.0404110
 151.2830420  11.9224550 112.3239610 150.0456140  12.6122120 112.8577100
 148.9692840  21.0691230 112.5583960 148.5649840  20.3568480 112.0629860
 149.0555960  20.7244470 113.4472000 149.4374540  24.7558790 114.7223170
 149.1402830  24.1504260 114.0430950 150.3874360  24.7936100 114.6112530
 147.6821460  17.8434440 116.3383000 148.2336050  17.9529780 115.5636250
 148.1964970  18.2172040 117.0538230 148.5292970  24.4940480 121.3730970
 147.6321500  24.7180450 121.6204370 148.5545840  24.6175420 120.4242370
 147.3564190  21.3653800 119.9488340 147.2171960  22.2376600 120.3175740
 146.4745550  21.0226610 119.8036280 149.1544540  27.3075500 122.1573490
 149.1259970  27.7118450 121.2901920 148.9909510  26.3785860 121.9945090
 145.6697470  19.9636210 110.0590610 145.5495070  20.6898300 109.4471880
 145.3598360  19.1939120 109.5818520 143.3082840  23.1351350 115.8659250
 143.3863260  23.2700120 114.9214970 143.9224520  22.4267240 116.0587370
 144.5530470  24.8351540 112.2765430 144.1458550  24.9766130 111.4219030
 145.4443480  24.5511700 112.0736640 148.8252130  29.0497320 110.3888100
 148.6494610  28.1332860 110.1755900 147.9707870  29.4084610 110.6285900
 143.3642360  24.1765520 118.4053710 143.5273400  23.7070880 117.5873080
 143.8294810  23.6689080 119.0702550 148.1361130  13.3071280 113.4414280
 147.6929280  14.0880820 113.1098800 148.6946120  13.6301170 114.1485220
 152.4230940  16.1739800 119.0449600 151.9610310  16.3822820 119.8569540
 152.0209050  15.3599150 118.7420270 151.2519950  12.9281980 108.3220110
 150.6274130  12.9241850 109.0473420 151.1650070  12.0612940 107.9256080
 150.1737030  13.8518610 115.3003880 150.4709360  14.7581440 115.2195900
 150.7222590  13.3637390 114.6863450 147.9275350  18.4304850 111.1695530
 147.7016270  18.2142020 112.0742150 147.1467880  18.8633310 110.8241500
 150.3674560  19.3290430 121.8355800 150.2718160  18.3885160 121.6856200
 151.2106540  19.5505500 121.4403870 145.4985100  15.7404100 119.9889580
 145.1048490  16.5879310 120.1962360 144.8103500  15.1030470 120.1798220
 142.8002150  13.6632560 114.0219660 142.5115200  14.2335420 114.7344640
 143.5447910  13.1837010 114.3850890 142.9872380  17.6052680 105.2322380
 142.9047050  18.5483440 105.3737370 142.6355440  17.4627590 104.3534730
 150.7870510  16.3391710 114.2992730 150.7906570  15.8981660 113.4497270
 151.6821630  16.6609040 114.4064550 146.6372890  16.2218200 113.2586940
 146.2972940  16.6993430 114.0153990 145.8750210  15.7683320 112.8988040
 150.8490660  17.3403790 107.2899490 150.9703480  17.2990270 108.2385310
 150.4639170  18.2027940 107.1346220 149.8612160  19.6504930 106.6882790
 149.2929060  19.2023180 106.0618700 150.5701160  20.0097710 106.1547940
 144.9381340  23.5516950 120.5649520 144.5536130  22.9110620 121.1632480
 145.2493530  24.2553070 121.1344250 151.0878480  20.3993490 116.0458140
 151.4548610  19.9252060 116.7919480 150.8983540  21.2735060 116.3866480
 143.9518970  15.1437180 112.1751610 143.6665890  14.7792850 113.0130230
 143.8897830  14.4117640 111.5614750 148.8777850  19.4402130 118.3642350
 148.5734920  20.3194110 118.5892710 149.8324310  19.5001920 118.3999790
 147.4059640  23.6463120 108.9609200 146.6321900  23.1060740 108.8007920
 148.1354270  23.1269730 108.6226960 147.4497040  23.3143500 112.5988010
 147.9675710  22.5111760 112.5444900 146.9981060  23.2522640 113.4404840
 144.9341580  20.2804870 119.5113710 144.5756520  20.9458720 120.0987050
 144.6396140  19.4488420 119.8826330 148.1354700  20.7389110 122.3953260
 147.8354840  20.8846290 121.4981080 148.9065940  20.1794400 122.3026650
 151.3057230  24.6623310 110.6431230 151.9928360  25.2092520 111.0238820
 150.5189650  25.2064040 110.6780840 143.4449630  20.2796130 106.1348310
 144.3144480  20.5620930 106.4184230 142.9539950  21.0932000 106.0197120
 150.6084440  21.6669340 110.2556590 151.0647220  22.4774590 110.4816780
 150.2572650  21.3492480 111.0875080 146.5096220  12.0106990 110.7279110
 146.3810850  12.0024890 111.6764030 145.6858240  12.3490080 110.3770120
 143.8120880  29.4923510 106.7009940 144.1718520  30.0912850 106.0467210
 143.6713220  30.0383400 107.4744970 143.5090150  13.7698110 120.1885810
 142.7948670  13.9695030 120.7938420 143.9285190  12.9937680 120.5600610
 143.7962740  27.7578370 121.1752340 143.9053860  26.8173110 121.0347730
 143.1443300  28.0233120 120.5266070 151.7875330  26.0294260 122.5750460
 151.4672200  25.3103500 123.1196150 151.1133690  26.7049330 122.6486520
 149.8289500  26.8754710 107.5183610 149.8199600  27.6084400 106.9028120
 148.9087860  26.6286290 107.6110570 145.4296140  22.0969600 108.2630370
 144.8224090  22.8368500 108.2725670 145.9045490  22.1868960 107.4368570
 150.3374990  17.4963310 110.1632700 149.6291140  17.9649650 110.6046310
 150.6219470  16.8385320 110.7977890 151.9630920  18.9160010 118.1625230
 152.4616170  19.3905830 118.8277080 152.1053870  17.9923530 118.3695260
 151.4567210  29.4569270 110.8756470 151.7108710  29.4190660 109.9535840
 150.5079690  29.3302600 110.8684720 148.5410010  15.8048390 107.5383410
 149.3900540  16.2418540 107.4723600 148.1741280  16.1168650 108.3655470
 147.4401430  22.0580750 106.0118940 148.2064700  21.9462110 106.5744370
 147.5176120  21.3618720 105.3595710 146.1348190  19.4905820 106.6951830
 146.2151780  18.5433330 106.8069230 147.0267940  19.8212700 106.8012490
 146.9362900  29.6401210 113.7986370 147.6725380  29.0916670 114.0694940
 147.3203820  30.5057220 113.6592360 143.8208380  25.7074780 109.6727880
 142.8948160  25.9495920 109.6633290 144.2864810  26.5349040 109.5512630
 145.9421180  28.8247280 122.9871950 146.7433910  29.1459330 123.4007350
 145.4273000  28.4642860 123.7091860 150.0465210  28.8131520 105.6211940
 150.8393820  29.1020350 105.1693730 149.5269560  28.3823690 104.9424420
 143.6618990  21.3120740 121.9308000 144.1658010  20.7328020 122.5024230
 142.9226410  21.5960970 122.4684370 150.5642610  24.0334930 105.4854290
 150.4593250  23.4187280 106.2115670 150.3966830  23.5100820 104.7017300
 150.7156930  22.7191730 121.4643520 149.9502600  23.2876730 121.3798190
 150.8972890  22.4267940 120.5711750 145.6942070  19.4550330 122.8258070
 145.7347410  19.1564200 123.7343300 146.5487570  19.8557940 122.6665590
 149.4720460  22.0545880 107.9861580 149.8936880  21.8885750 108.8292970
 149.5971300  21.2446110 107.4916720 147.6347880  18.0342430 120.7932560
 147.1044340  17.5433380 120.1655900 148.3035950  18.4626630 120.2590490
 151.9848100  21.0783490 105.2338680 152.5053760  20.3632510 104.8679830
 152.6316500  21.7169360 105.5339190 148.1220180  15.0004800 120.8729850
 148.0277050  14.3825550 120.1480720 147.5417570  15.7271090 120.6459760
 150.8881620  13.5578040 117.9057240 150.4398920  13.5802300 117.0602790
 150.2546820  13.1597060 118.5027540 151.2941170  22.4532370 118.5269680
 151.7129280  23.2965100 118.3545920 150.3749800  22.5904410 118.2976460
 148.3679360  18.1279110 104.9319740 148.1668420  17.2646470 105.2933080
 148.1971410  18.0412470 103.9941340 149.1448590  28.7585380 119.6427410
 148.6069680  29.4831440 119.3236110 149.3982550  28.2815720 118.8524750
 150.3973840  16.7269900 121.1683340 150.9873530  16.4185750 121.8561160
 149.5794080  16.2549650 121.3243240 147.1662160  15.2279730 104.9197620
 147.4688060  15.2347160 104.0116770 147.9056750  14.8777590 105.4165280
 152.0010800  29.9936590 119.9014060 151.9269500  30.8971730 120.2086430
 151.0989640  29.6748490 119.8736130 150.3847090  14.1714350 105.9053820
 150.0369090  13.4938340 105.3256270 150.5859860  13.7103860 106.7197210
 146.1892290  24.5322150 105.7527420 146.6267160  25.0751820 106.4085000
 146.6740020  23.7069100 105.7623760 143.4038090  27.3211180 113.2047680
 143.7341100  26.4532240 112.9726320 143.8329090  27.5269700 114.0352640
 148.0000010  25.6520190 110.8649650 147.6995550  25.5285160 111.7653560
 147.8937500  24.7928780 110.4565380 143.8928300  28.1881770 115.9429310
 143.4559290  28.3682570 116.7753460 144.4605980  28.9456390 115.8011030
 143.7252730  20.7002000 112.3018190 143.0701570  20.4313640 111.6577890
 144.5630680  20.5906480 111.8520170 144.7628660  21.0854570 116.8421530
 145.1301700  20.9981970 117.7217550 144.1939480  20.3221120 116.7428390
 144.3144660  17.9963660 120.7479950 143.4200710  17.9630420 121.0873660
 144.8542210  18.1950450 121.5131200 142.9390810  17.9100930 108.2443520
 142.0354890  18.1731130 108.0695180 143.4231430  18.1812100 107.4643480
 145.4818020  16.9666470 106.1537900 146.1909720  16.5449690 105.6685180
 144.7657960  17.0341700 105.5221250 145.1292180  13.0205800 105.1940550
 145.8520310  13.5614740 105.5121770 145.4016700  12.7469220 104.3182090
 144.8184370  12.2711990 115.0963170 145.4660560  11.7209370 114.6558330
 145.2386210  12.5255140 115.9178980 144.5716370  12.4267660 117.8388490
 144.2231190  12.8831480 118.6046670 144.2404070  11.5324790 117.9210920
 146.1780740  25.5987260 122.0041680 146.1350370  25.2280170 122.8856140
 146.3091750  26.5364830 122.1443500 149.8786770  27.1546850 117.6051400
 149.6378130  27.4221410 116.7181920 150.8189410  27.3252580 117.6602260
 145.2437010  11.9543860 121.1139260 145.7920000  11.7731910 120.3505370
 145.3092320  11.1637970 121.6495570 146.0168770  28.5449510 119.1239460
 145.4229090  28.4134210 119.8629500 146.0092610  27.7087650 118.6581560
 145.6481000  25.9107890 118.0747500 144.9215060  25.2913180 118.0073450
 145.7090150  26.3048500 117.2045580 149.2526100  28.1252890 114.8596910
 149.7691120  27.5140250 114.3345170 149.9023480  28.6281670 115.3507920
 151.9921600  29.0161380 115.6865890 152.2799410  28.7615680 114.8098900
 152.5044820  28.4638740 116.2771460 143.9311000  29.2282280 111.2844260
 143.7633040  28.5952960 111.9826150 143.0645510  29.4341680 110.9338450
 144.5539020  13.0599060 108.7876120 145.3118380  13.1727940 108.2140150
 144.0916190  13.8968260 108.7419550 151.0952830  15.1738330 111.7778430
 150.2827340  14.7995220 111.4374310 151.5994470  14.4183410 112.0799620
 145.5373700  27.9215510 108.7294400 145.0121320  28.3023540 108.0256360
 145.4618280  28.5466280 109.4504110 146.9264170  13.5863110 107.3278090
 147.4556930  12.7992910 107.1986040 147.5592490  14.2654300 107.5613620
 149.1202010  13.3238250 110.3823480 148.4904750  12.6225560 110.5493610
 148.5807150  14.0842380 110.1656640 149.2457570  12.6022230 122.8175970
 148.9641840  13.1055830 122.0536790 149.6277270  11.8043980 122.4518100
 148.1366670  29.8697890 107.6043650 148.8685490  29.5857170 107.0567540
 148.3960340  29.6311170 108.4943030 147.2981460  25.9862620 107.6089980
 146.6690340  26.4547720 108.1575810 147.4129290  25.1411840 108.0436170
 146.9015050  22.1267110  96.5176210 146.0699930  21.8715820  96.9172720
 147.5096030  22.1977880  97.2534130 146.8816310  26.1607200  96.7134230
 147.1844350  25.2704940  96.5344450 147.6259900  26.7177420  96.4856480
 145.3107000  17.0869000  90.3018600 144.4223700  17.4284970  90.1998480
 145.5948190  16.8869320  89.4099430 143.2740010  19.6874650  96.1858300
 143.8456120  18.9196850  96.1861940 143.2741550  19.9863410  95.2764910
 144.5164880  15.0959010  97.9727230 144.3367720  14.1984760  98.2529990
 144.1144960  15.6430880  98.6474180 147.4868390  15.6700500  91.3356980
 147.5935140  16.5704230  91.6425740 146.5760750  15.6218470  91.0451630
 145.1351550  17.5919510  96.5809570 145.8161660  17.8557880  97.1996970
 144.8199600  16.7520380  96.9147580 149.3276120  18.6386870  95.6682160
 149.8354340  19.1367840  96.3087180 149.8589360  17.8622070  95.4921520
 147.6112220  13.2785430  99.9345580 147.6130660  13.7957820  99.1291480
 146.7816530  12.8015610  99.9115510 148.8615070  22.9180610  98.1119080
 148.5284450  23.5449530  98.7540150 149.0381750  23.4442490  97.3320750
 147.2927550  14.9895390  97.9416030 147.6344360  15.8337440  97.6469900
 146.3543360  15.1379130  98.0581370 148.0734170  24.8861410  99.9268260
 148.6908170  25.5612490  99.6452710 147.2127290  25.2949390  99.8355760
 143.3666510  24.0761270  88.8075110 142.9894490  24.5648370  88.0760010
 143.6239580  24.7486550  89.4381640 150.9755440  12.4777660  94.2660620
 151.2830420  11.9224550  93.5496120 150.0456140  12.6122120  94.0833610
 148.9692840  21.0691230  93.7840470 148.5649840  20.3568480  93.2886370
 149.0555960  20.7244470  94.6728510 149.4374540  24.7558790  95.9479680
 149.1402830  24.1504260  95.2687460 150.3874360  24.7936100  95.8369040
 147.6821460  17.8434440  97.5639510 148.2336050  17.9529780  96.7892760
 148.1964970  18.2172040  98.2794740 148.5292970  24.4940480 102.5987480
 147.6321500  24.7180450 102.8460880 148.5545840  24.6175420 101.6498880
 147.3564190  21.3653800 101.1744850 147.2171960  22.2376600 101.5432250
 146.4745550  21.0226610 101.0292790 149.1544540  27.3075500 103.3830000
 149.1259970  27.7118450 102.5158430 148.9909510  26.3785860 103.2201600
 145.6697470  19.9636210  91.2847120 145.5495070  20.6898300  90.6728390
 145.3598360  19.1939120  90.8075030 143.3082840  23.1351350  97.0915760
 143.3863260  23.2700120  96.1471480 143.9224520  22.4267240  97.2843880
 144.5530470  24.8351540  93.5021940 144.1458550  24.9766130  92.6475540
 145.4443480  24.5511700  93.2993150 148.8252130  29.0497320  91.6144610
 148.6494610  28.1332860  91.4012410 147.9707870  29.4084610  91.8542410
 143.3642360  24.1765520  99.6310220 143.5273400  23.7070880  98.8129590
 143.8294810  23.6689080 100.2959060 148.1361130  13.3071280  94.6670790
 147.6929280  14.0880820  94.3355310 148.6946120  13.6301170  95.3741730
 152.4230940  16.1739800 100.2706110 151.9610310  16.3822820 101.0826050
 152.0209050  15.3599150  99.9676780 151.2519950  12.9281980  89.5476620
 150.6274130  12.9241850  90.2729930 151.1650070  12.0612940  89.1512590
 150.1737030  13.8518610  96.5260390 150.4709360  14.7581440  96.4452410
 150.7222590  13.3637390  95.9119960 147.9275350  18.4304850  92.3952040
 147.7016270  18.2142020  93.2998660 147.1467880  18.8633310  92.0498010
 150.3674560  19.3290430 103.0612310 150.2718160  18.3885160 102.9112710
 151.2106540  19.5505500 102.6660380 145.4985100  15.7404100 101.2146090
 145.1048490  16.5879310 101.4218870 144.8103500  15.1030470 101.4054730
 142.8002150  13.6632560  95.2476170 142.5115200  14.2335420  95.9601150
 143.5447910  13.1837010  95.6107400 142.9872380  17.6052680  86.4578890
 142.9047050  18.5483440  86.5993880 142.6355440  17.4627590  85.5791240
 150.7870510  16.3391710  95.5249240 150.7906570  15.8981660  94.6753780
 151.6821630  16.6609040  95.6321060 146.6372890  16.2218200  94.4843450
 146.2972940  16.6993430  95.2410500 145.8750210  15.7683320  94.1244550
 150.8490660  17.3403790  88.5156000 150.9703480  17.2990270  89.4641820
 150.4639170  18.2027940  88.3602730 149.8612160  19.6504930  87.9139300
 149.2929060  19.2023180  87.2875210 150.5701160  20.0097710  87.3804450
 144.9381340  23.5516950 101.7906030 144.5536130  22.9110620 102.3888990
 145.2493530  24.2553070 102.3600760 151.0878480  20.3993490  97.2714650
 151.4548610  19.9252060  98.0175990 150.8983540  21.2735060  97.6122990
 143.9518970  15.1437180  93.4008120 143.6665890  14.7792850  94.2386740
 143.8897830  14.4117640  92.7871260 148.8777850  19.4402130  99.5898860
 148.5734920  20.3194110  99.8149220 149.8324310  19.5001920  99.6256300
 147.4059640  23.6463120  90.1865710 146.6321900  23.1060740  90.0264430
 148.1354270  23.1269730  89.8483470 147.4497040  23.3143500  93.8244520
 147.9675710  22.5111760  93.7701410 146.9981060  23.2522640  94.6661350
 144.9341580  20.2804870 100.7370220 144.5756520  20.9458720 101.3243560
 144.6396140  19.4488420 101.1082840 148.1354700  20.7389110 103.6209770
 147.8354840  20.8846290 102.7237590 148.9065940  20.1794400 103.5283160
 151.3057230  24.6623310  91.8687740 151.9928360  25.2092520  92.2495330
 150.5189650  25.2064040  91.9037350 143.4449630  20.2796130  87.3604820
 144.3144480  20.5620930  87.6440740 142.9539950  21.0932000  87.2453630
 150.6084440  21.6669340  91.4813100 151.0647220  22.4774590  91.7073290
 150.2572650  21.3492480  92.3131590 146.5096220  12.0106990  91.9535620
 146.3810850  12.0024890  92.9020540 145.6858240  12.3490080  91.6026630
 143.8120880  29.4923510  87.9266450 144.1718520  30.0912850  87.2723720
 143.6713220  30.0383400  88.7001480 143.5090150  13.7698110 101.4142320
 142.7948670  13.9695030 102.0194930 143.9285190  12.9937680 101.7857120
 143.7962740  27.7578370 102.4008850 143.9053860  26.8173110 102.2604240
 143.1443300  28.0233120 101.7522580 151.7875330  26.0294260 103.8006970
 151.4672200  25.3103500 104.3452660 151.1133690  26.7049330 103.8743030
 149.8289500  26.8754710  88.7440120 149.8199600  27.6084400  88.1284630
 148.9087860  26.6286290  88.8367080 145.4296140  22.0969600  89.4886880
 144.8224090  22.8368500  89.4982180 145.9045490  22.1868960  88.6625080
 150.3374990  17.4963310  91.3889210 149.6291140  17.9649650  91.8302820
 150.6219470  16.8385320  92.0234400 151.9630920  18.9160010  99.3881740
 152.4616170  19.3905830 100.0533590 152.1053870  17.9923530  99.5951770
 151.4567210  29.4569270  92.1012980 151.7108710  29.4190660  91.1792350
 150.5079690  29.3302600  92.0941230 148.5410010  15.8048390  88.7639920
 149.3900540  16.2418540  88.6980110 148.1741280  16.1168650  89.5911980
 147.4401430  22.0580750  87.2375450 148.2064700  21.9462110  87.8000880
 147.5176120  21.3618720  86.5852220 146.1348190  19.4905820  87.9208340
 146.2151780  18.5433330  88.0325740 147.0267940  19.8212700  88.0269000
 146.9362900  29.6401210  95.0242880 147.6725380  29.0916670  95.2951450
 147.3203820  30.5057220  94.8848870 143.8208380  25.7074780  90.8984390
 142.8948160  25.9495920  90.8889800 144.2864810  26.5349040  90.7769140
 145.9421180  28.8247280 104.2128460 146.7433910  29.1459330 104.6263860
 145.4273000  28.4642860 104.9348370 150.0465210  28.8131520  86.8468450
 150.8393820  29.1020350  86.3950240 149.5269560  28.3823690  86.1680930
 143.6618990  21.3120740 103.1564510 144.1658010  20.7328020 103.7280740
 142.9226410  21.5960970 103.6940880 150.5642610  24.0334930  86.7110800
 150.4593250  23.4187280  87.4372180 150.3966830  23.5100820  85.9273810
 150.7156930  22.7191730 102.6900030 149.9502600  23.2876730 102.6054700
 150.8972890  22.4267940 101.7968260 145.6942070  19.4550330 104.0514580
 145.7347410  19.1564200 104.9599810 146.5487570  19.8557940 103.8922100
 149.4720460  22.0545880  89.2118090 149.8936880  21.8885750  90.0549480
 149.5971300  21.2446110  88.7173230 147.6347880  18.0342430 102.0189070
 147.1044340  17.5433380 101.3912410 148.3035950  18.4626630 101.4847000
 151.9848100  21.0783490  86.4595190 152.5053760  20.3632510  86.0936340
 152.6316500  21.7169360  86.7595700 148.1220180  15.0004800 102.0986360
 148.0277050  14.3825550 101.3737230 147.5417570  15.7271090 101.8716270
 150.8881620  13.5578040  99.1313750 150.4398920  13.5802300  98.2859300
 150.2546820  13.1597060  99.7284050 151.2941170  22.4532370  99.7526190
 151.7129280  23.2965100  99.5802430 150.3749800  22.5904410  99.5232970
 148.3679360  18.1279110  86.1576250 148.1668420  17.2646470  86.5189590
 148.1971410  18.0412470  85.2197850 149.1448590  28.7585380 100.8683920
 148.6069680  29.4831440 100.5492620 149.3982550  28.2815720 100.0781260
 150.3973840  16.7269900 102.3939850 150.9873530  16.4185750 103.0817670
 149.5794080  16.2549650 102.5499750 147.1662160  15.2279730  86.1454130
 147.4688060  15.2347160  85.2373280 147.9056750  14.8777590  86.6421790
 152.0010800  29.9936590 101.1270570 151.9269500  30.8971730 101.4342940
 151.0989640  29.6748490 101.0992640 150.3847090  14.1714350  87.1310330
 150.0369090  13.4938340  86.5512780 150.5859860  13.7103860  87.9453720
 146.1892290  24.5322150  86.9783930 146.6267160  25.0751820  87.6341510
 146.6740020  23.7069100  86.9880270 143.4038090  27.3211180  94.4304190
 143.7341100  26.4532240  94.1982830 143.8329090  27.5269700  95.2609150
 148.0000010  25.6520190  92.0906160 147.6995550  25.5285160  92.9910070
 147.8937500  24.7928780  91.6821890 143.8928300  28.1881770  97.1685820
 143.4559290  28.3682570  98.0009970 144.4605980  28.9456390  97.0267540
 143.7252730  20.7002000  93.5274700 143.0701570  20.4313640  92.8834400
 144.5630680  20.5906480  93.0776680 144.7628660  21.0854570  98.0678040
 145.1301700  20.9981970  98.9474060 144.1939480  20.3221120  97.9684900
 144.3144660  17.9963660 101.9736460 143.4200710  17.9630420 102.3130170
 144.8542210  18.1950450 102.7387710 142.9390810  17.9100930  89.4700030
 142.0354890  18.1731130  89.2951690 143.4231430  18.1812100  88.6899990
 145.4818020  16.9666470  87.3794410 146.1909720  16.5449690  86.8941690
 144.7657960  17.0341700  86.7477760 145.1292180  13.0205800  86.4197060
 145.8520310  13.5614740  86.7378280 145.4016700  12.7469220  85.5438600
 144.8184370  12.2711990  96.3219680 145.4660560  11.7209370  95.8814840
 145.2386210  12.5255140  97.1435490 144.5716370  12.4267660  99.0645000
 144.2231190  12.8831480  99.8303180 144.2404070  11.5324790  99.1467430
 146.1780740  25.5987260 103.2298190 146.1350370  25.2280170 104.1112650
 146.3091750  26.5364830 103.3700010 149.8786770  27.1546850  98.8307910
 149.6378130  27.4221410  97.9438430 150.8189410  27.3252580  98.8858770
 145.2437010  11.9543860 102.3395770 145.7920000  11.7731910 101.5761880
 145.3092320  11.1637970 102.8752080 146.0168770  28.5449510 100.3495970
 145.4229090  28.4134210 101.0886010 146.0092610  27.7087650  99.8838070
 145.6481000  25.9107890  99.3004010 144.9215060  25.2913180  99.2329960
 145.7090150  26.3048500  98.4302090 149.2526100  28.1252890  96.0853420
 149.7691120  27.5140250  95.5601680 149.9023480  28.6281670  96.5764430
 151.9921600  29.0161380  96.9122400 152.2799410  28.7615680  96.0355410
 152.5044820  28.4638740  97.5027970 143.9311000  29.2282280  92.5100770
 143.7633040  28.5952960  93.2082660 143.0645510  29.4341680  92.1594960
 144.5539020  13.0599060  90.0132630 145.3118380  13.1727940  89.4396660
 144.0916190  13.8968260  89.9676060 151.0952830  15.1738330  93.0034940
 150.2827340  14.7995220  92.6630820 151.5994470  14.4183410  93.3056130
 145.5373700  27.9215510  89.9550910 145.0121320  28.3023540  89.2512870
 145.4618280  28.5466280  90.6760620 146.9264170  13.5863110  88.5534600
 147.4556930  12.7992910  88.4242550 147.5592490  14.2654300  88.7870130
 149.1202010  13.3238250  91.6079990 148.4904750  12.6225560  91.7750120
 148.5807150  14.0842380  91.3913150 149.2457570  12.6022230 104.0432480
 148.9641840  13.1055830 103.2793300 149.6277270  11.8043980 103.6774610
 148.1366670  29.8697890  88.8300160 148.8685490  29.5857170  88.2824050
 148.3960340  29.6311170  89.7199540 147.2981460  25.9862620  88.8346490
 146.6690340  26.4547720  89.3832320 147.4129290  25.1411840  89.2692680
 146.9015050  22.1267110  77.7432720 146.0699930  21.8715820  78.1429230
 147.5096030  22.1977880  78.4790640 146.8816310  26.1607200  77.9390740
 147.1844350  25.2704940  77.7600960 147.6259900  26.7177420  77.7112990
 145.3107000  17.0869000  71.5275110 144.4223700  17.4284970  71.4254990
 145.5948190  16.8869320  70.6355940 143.2740010  19.6874650  77.4114810
 143.8456120  18.9196850  77.4118450 143.2741550  19.9863410  76.5021420
 144.5164880  15.0959010  79.1983740 144.3367720  14.1984760  79.4786500
 144.1144960  15.6430880  79.8730690 147.4868390  15.6700500  72.5613490
 147.5935140  16.5704230  72.8682250 146.5760750  15.6218470  72.2708140
 145.1351550  17.5919510  77.8066080 145.8161660  17.8557880  78.4253480
 144.8199600  16.7520380  78.1404090 149.3276120  18.6386870  76.8938670
 149.8354340  19.1367840  77.5343690 149.8589360  17.8622070  76.7178030
 147.6112220  13.2785430  81.1602090 147.6130660  13.7957820  80.3547990
 146.7816530  12.8015610  81.1372020 148.8615070  22.9180610  79.3375590
 148.5284450  23.5449530  79.9796660 149.0381750  23.4442490  78.5577260
 147.2927550  14.9895390  79.1672540 147.6344360  15.8337440  78.8726410
 146.3543360  15.1379130  79.2837880 148.0734170  24.8861410  81.1524770
 148.6908170  25.5612490  80.8709220 147.2127290  25.2949390  81.0612270
 143.3666510  24.0761270  70.0331620 142.9894490  24.5648370  69.3016520
 143.6239580  24.7486550  70.6638150 150.9755440  12.4777660  75.4917130
 151.2830420  11.9224550  74.7752630 150.0456140  12.6122120  75.3090120
 148.9692840  21.0691230  75.0096980 148.5649840  20.3568480  74.5142880
 149.0555960  20.7244470  75.8985020 149.4374540  24.7558790  77.1736190
 149.1402830  24.1504260  76.4943970 150.3874360  24.7936100  77.0625550
 147.6821460  17.8434440  78.7896020 148.2336050  17.9529780  78.0149270
 148.1964970  18.2172040  79.5051250 148.5292970  24.4940480  83.8243990
 147.6321500  24.7180450  84.0717390 148.5545840  24.6175420  82.8755390
 147.3564190  21.3653800  82.4001360 147.2171960  22.2376600  82.7688760
 146.4745550  21.0226610  82.2549300 149.1544540  27.3075500  84.6086510
 149.1259970  27.7118450  83.7414940 148.9909510  26.3785860  84.4458110
 145.6697470  19.9636210  72.5103630 145.5495070  20.6898300  71.8984900
 145.3598360  19.1939120  72.0331540 143.3082840  23.1351350  78.3172270
 143.3863260  23.2700120  77.3727990 143.9224520  22.4267240  78.5100390
 144.5530470  24.8351540  74.7278450 144.1458550  24.9766130  73.8732050
 145.4443480  24.5511700  74.5249660 148.8252130  29.0497320  72.8401120
 148.6494610  28.1332860  72.6268920 147.9707870  29.4084610  73.0798920
 143.3642360  24.1765520  80.8566730 143.5273400  23.7070880  80.0386100
 143.8294810  23.6689080  81.5215570 148.1361130  13.3071280  75.8927300
 147.6929280  14.0880820  75.5611820 148.6946120  13.6301170  76.5998240
 152.4230940  16.1739800  81.4962620 151.9610310  16.3822820  82.3082560
 152.0209050  15.3599150  81.1933290 151.2519950  12.9281980  70.7733130
 150.6274130  12.9241850  71.4986440 151.1650070  12.0612940  70.3769100
 150.1737030  13.8518610  77.7516900 150.4709360  14.7581440  77.6708920
 150.7222590  13.3637390  77.1376470 147.9275350  18.4304850  73.6208550
 147.7016270  18.2142020  74.5255170 147.1467880  18.8633310  73.2754520
 150.3674560  19.3290430  84.2868820 150.2718160  18.3885160  84.1369220
 151.2106540  19.5505500  83.8916890 145.4985100  15.7404100  82.4402600
 145.1048490  16.5879310  82.6475380 144.8103500  15.1030470  82.6311240
 142.8002150  13.6632560  76.4732680 142.5115200  14.2335420  77.1857660
 143.5447910  13.1837010  76.8363910 142.9872380  17.6052680  67.6835400
 142.9047050  18.5483440  67.8250390 142.6355440  17.4627590  66.8047750
 150.7870510  16.3391710  76.7505750 150.7906570  15.8981660  75.9010290
 151.6821630  16.6609040  76.8577570 146.6372890  16.2218200  75.7099960
 146.2972940  16.6993430  76.4667010 145.8750210  15.7683320  75.3501060
 150.8490660  17.3403790  69.7412510 150.9703480  17.2990270  70.6898330
 150.4639170  18.2027940  69.5859240 149.8612160  19.6504930  69.1395810
 149.2929060  19.2023180  68.5131720 150.5701160  20.0097710  68.6060960
 144.9381340  23.5516950  83.0162540 144.5536130  22.9110620  83.6145500
 145.2493530  24.2553070  83.5857270 151.0878480  20.3993490  78.4971160
 151.4548610  19.9252060  79.2432500 150.8983540  21.2735060  78.8379500
 143.9518970  15.1437180  74.6264630 143.6665890  14.7792850  75.4643250
 143.8897830  14.4117640  74.0127770 148.8777850  19.4402130  80.8155370
 148.5734920  20.3194110  81.0405730 149.8324310  19.5001920  80.8512810
 147.4059640  23.6463120  71.4122220 146.6321900  23.1060740  71.2520940
 148.1354270  23.1269730  71.0739980 147.4497040  23.3143500  75.0501030
 147.9675710  22.5111760  74.9957920 146.9981060  23.2522640  75.8917860
 144.9341580  20.2804870  81.9626730 144.5756520  20.9458720  82.5500070
 144.6396140  19.4488420  82.3339350 148.1354700  20.7389110  84.8466280
 147.8354840  20.8846290  83.9494100 148.9065940  20.1794400  84.7539670
 151.3057230  24.6623310  73.0944250 151.9928360  25.2092520  73.4751840
 150.5189650  25.2064040  73.1293860 143.4449630  20.2796130  68.5861330
 144.3144480  20.5620930  68.8697250 142.9539950  21.0932000  68.4710140
 150.6084440  21.6669340  72.7069610 151.0647220  22.4774590  72.9329800
 150.2572650  21.3492480  73.5388100 146.5096220  12.0106990  73.1792130
 146.3810850  12.0024890  74.1277050 145.6858240  12.3490080  72.8283140
 143.8120880  29.4923510  69.1522960 144.1718520  30.0912850  68.4980230
 143.6713220  30.0383400  69.9257990 143.5090150  13.7698110  82.6398830
 142.7948670  13.9695030  83.2451440 143.9285190  12.9937680  83.0113630
 143.7962740  27.7578370  83.6265360 143.9053860  26.8173110  83.4860750
 143.1443300  28.0233120  82.9779090 151.7875330  26.0294260  85.0263480
 151.4672200  25.3103500  85.5709170 151.1133690  26.7049330  85.0999540
 149.8289500  26.8754710  69.9696630 149.8199600  27.6084400  69.3541140
 148.9087860  26.6286290  70.0623590 145.4296140  22.0969600  70.7143390
 144.8224090  22.8368500  70.7238690 145.9045490  22.1868960  69.8881590
 150.3374990  17.4963310  72.6145720 149.6291140  17.9649650  73.0559330
 150.6219470  16.8385320  73.2490910 151.9630920  18.9160010  80.6138250
 152.4616170  19.3905830  81.2790100 152.1053870  17.9923530  80.8208280
 151.4567210  29.4569270  73.3269490 151.7108710  29.4190660  72.4048860
 150.5079690  29.3302600  73.3197740 148.5410010  15.8048390  69.9896430
 149.3900540  16.2418540  69.9236620 148.1741280  16.1168650  70.8168490
 147.4401430  22.0580750  68.4631960 148.2064700  21.9462110  69.0257390
 147.5176120  21.3618720  67.8108730 146.1348190  19.4905820  69.1464850
 146.2151780  18.5433330  69.2582250 147.0267940  19.8212700  69.2525510
 146.9362900  29.6401210  76.2499390 147.6725380  29.0916670  76.5207960
 147.3203820  30.5057220  76.1105380 143.8208380  25.7074780  72.1240900
 142.8948160  25.9495920  72.1146310 144.2864810  26.5349040  72.0025650
 145.9421180  28.8247280  85.4384970 146.7433910  29.1459330  85.8520370
 145.4273000  28.4642860  86.1604880 150.0465210  28.8131520  68.0724960
 150.8393820  29.1020350  67.6206750 149.5269560  28.3823690  67.3937440
 143.6618990  21.3120740  84.3821020 144.1658010  20.7328020  84.9537250
 142.9226410  21.5960970  84.9197390 150.5642610  24.0334930  67.9367310
 150.4593250  23.4187280  68.6628690 150.3966830  23.5100820  67.1530320
 150.7156930  22.7191730  83.9156540 149.9502600  23.2876730  83.8311210
 150.8972890  22.4267940  83.0224770 145.6942070  19.4550330  85.2771090
 145.7347410  19.1564200  86.1856320 146.5487570  19.8557940  85.1178610
 149.4720460  22.0545880  70.4374600 149.8936880  21.8885750  71.2805990
 149.5971300  21.2446110  69.9429740 147.6347880  18.0342430  83.2445580
 147.1044340  17.5433380  82.6168920 148.3035950  18.4626630  82.7103510
 151.9848100  21.0783490  67.6851700 152.5053760  20.3632510  67.3192850
 152.6316500  21.7169360  67.9852210 148.1220180  15.0004800  83.3242870
 148.0277050  14.3825550  82.5993740 147.5417570  15.7271090  83.0972780
 150.8881620  13.5578040  80.3570260 150.4398920  13.5802300  79.5115810
 150.2546820  13.1597060  80.9540560 151.2941170  22.4532370  80.9782700
 151.7129280  23.2965100  80.8058940 150.3749800  22.5904410  80.7489480
 148.3679360  18.1279110  67.3832760 148.1668420  17.2646470  67.7446100
 148.1971410  18.0412470  66.4454360 149.1448590  28.7585380  82.0940430
 148.6069680  29.4831440  81.7749130 149.3982550  28.2815720  81.3037770
 150.3973840  16.7269900  83.6196360 150.9873530  16.4185750  84.3074180
 149.5794080  16.2549650  83.7756260 147.1662160  15.2279730  67.3710640
 147.4688060  15.2347160  66.4629790 147.9056750  14.8777590  67.8678300
 152.0010800  29.9936590  82.3527080 151.9269500  30.8971730  82.6599450
 151.0989640  29.6748490  82.3249150 150.3847090  14.1714350  68.3566840
 150.0369090  13.4938340  67.7769290 150.5859860  13.7103860  69.1710230
 146.1892290  24.5322150  68.2040440 146.6267160  25.0751820  68.8598020
 146.6740020  23.7069100  68.2136780 143.4038090  27.3211180  75.6560700
 143.7341100  26.4532240  75.4239340 143.8329090  27.5269700  76.4865660
 148.0000010  25.6520190  73.3162670 147.6995550  25.5285160  74.2166580
 147.8937500  24.7928780  72.9078400 143.8928300  28.1881770  78.3942330
 143.4559290  28.3682570  79.2266480 144.4605980  28.9456390  78.2524050
 143.7252730  20.7002000  74.7531210 143.0701570  20.4313640  74.1090910
 144.5630680  20.5906480  74.3033190 144.7628660  21.0854570  79.2934550
 145.1301700  20.9981970  80.1730570 144.1939480  20.3221120  79.1941410
 144.3144660  17.9963660  83.1992970 143.4200710  17.9630420  83.5386680
 144.8542210  18.1950450  83.9644220 142.9390810  17.9100930  70.6956540
 142.0354890  18.1731130  70.5208200 143.4231430  18.1812100  69.9156500
 145.4818020  16.9666470  68.6050920 146.1909720  16.5449690  68.1198200
 144.7657960  17.0341700  67.9734270 145.1292180  13.0205800  67.6453570
 145.8520310  13.5614740  67.9634790 145.4016700  12.7469220  66.7695110
 144.8184370  12.2711990  77.5476190 145.4660560  11.7209370  77.1071350
 145.2386210  12.5255140  78.3692000 144.5716370  12.4267660  80.2901510
 144.2231190  12.8831480  81.0559690 144.2404070  11.5324790  80.3723940
 146.1780740  25.5987260  84.4554700 146.1350370  25.2280170  85.3369160
 146.3091750  26.5364830  84.5956520 149.8786770  27.1546850  80.0564420
 149.6378130  27.4221410  79.1694940 150.8189410  27.3252580  80.1115280
 145.2437010  11.9543860  83.5652280 145.7920000  11.7731910  82.8018390
 145.3092320  11.1637970  84.1008590 146.0168770  28.5449510  81.5752480
 145.4229090  28.4134210  82.3142520 146.0092610  27.7087650  81.1094580
 145.6481000  25.9107890  80.5260520 144.9215060  25.2913180  80.4586470
 145.7090150  26.3048500  79.6558600 149.2526100  28.1252890  77.3109930
 149.7691120  27.5140250  76.7858190 149.9023480  28.6281670  77.8020940
 151.9921600  29.0161380  78.1378910 152.2799410  28.7615680  77.2611920
 152.5044820  28.4638740  78.7284480 143.9311000  29.2282280  73.7357280
 143.7633040  28.5952960  74.4339170 143.0645510  29.4341680  73.3851470
 144.5539020  13.0599060  71.2389140 145.3118380  13.1727940  70.6653170
 144.0916190  13.8968260  71.1932570 151.0952830  15.1738330  74.2291450
 150.2827340  14.7995220  73.8887330 151.5994470  14.4183410  74.5312640
 145.5373700  27.9215510  71.1807420 145.0121320  28.3023540  70.4769380
 145.4618280  28.5466280  71.9017130 146.9264170  13.5863110  69.7791110
 147.4556930  12.7992910  69.6499060 147.5592490  14.2654300  70.0126640
 149.1202010  13.3238250  72.8336500 148.4904750  12.6225560  73.0006630
 148.5807150  14.0842380  72.6169660 149.2457570  12.6022230  85.2688990
 148.9641840  13.1055830  84.5049810 149.6277270  11.8043980  84.9031120
 148.1366670  29.8697890  70.0556670 148.8685490  29.5857170  69.5080560
 148.3960340  29.6311170  70.9456050 147.2981460  25.9862620  70.0603000
 146.6690340  26.4547720  70.6088830 147.4129290  25.1411840  70.4949190
 146.9015050  22.1267110  58.9689230 146.0699930  21.8715820  59.3685740
 147.5096030  22.1977880  59.7047150 146.8816310  26.1607200  59.1647250
 147.1844350  25.2704940  58.9857470 147.6259900  26.7177420  58.9369500
 145.3107000  17.0869000  52.7531620 144.4223700  17.4284970  52.6511500
 145.5948190  16.8869320  51.8612450 143.2740010  19.6874650  58.6371320
 143.8456120  18.9196850  58.6374960 143.2741550  19.9863410  57.7277930
 144.5164880  15.0959010  60.4240250 144.3367720  14.1984760  60.7043010
 144.1144960  15.6430880  61.0987200 147.4868390  15.6700500  53.7870000
 147.5935140  16.5704230  54.0938760 146.5760750  15.6218470  53.4964650
 145.1351550  17.5919510  59.0322590 145.8161660  17.8557880  59.6509990
 144.8199600  16.7520380  59.3660600 149.3276120  18.6386870  58.1195180
 149.8354340  19.1367840  58.7600200 149.8589360  17.8622070  57.9434540
 147.6112220  13.2785430  62.3858600 147.6130660  13.7957820  61.5804500
 146.7816530  12.8015610  62.3628530 148.8615070  22.9180610  60.5632100
 148.5284450  23.5449530  61.2053170 149.0381750  23.4442490  59.7833770
 147.2927550  14.9895390  60.3929050 147.6344360  15.8337440  60.0982920
 146.3543360  15.1379130  60.5094390 148.0734170  24.8861410  62.3781280
 148.6908170  25.5612490  62.0965730 147.2127290  25.2949390  62.2868780
 143.3666510  24.0761270  51.2588130 142.9894490  24.5648370  50.5273030
 143.6239580  24.7486550  51.8894660 150.9755440  12.4777660  56.7173640
 151.2830420  11.9224550  56.0009140 150.0456140  12.6122120  56.5346630
 148.9692840  21.0691230  56.2353490 148.5649840  20.3568480  55.7399390
 149.0555960  20.7244470  57.1241530 149.4374540  24.7558790  58.3992700
 149.1402830  24.1504260  57.7200480 150.3874360  24.7936100  58.2882060
 147.6821460  17.8434440  60.0152530 148.2336050  17.9529780  59.2405780
 148.1964970  18.2172040  60.7307760 148.5292970  24.4940480  65.0500500
 147.6321500  24.7180450  65.2973900 148.5545840  24.6175420  64.1011900
 147.3564190  21.3653800  63.6257870 147.2171960  22.2376600  63.9945270
 146.4745550  21.0226610  63.4805810 149.1544540  27.3075500  65.8343020
 149.1259970  27.7118450  64.9671450 148.9909510  26.3785860  65.6714620
 145.6697470  19.9636210  53.7360140 145.5495070  20.6898300  53.1241410
 145.3598360  19.1939120  53.2588050 143.3082840  23.1351350  59.5428780
 143.3863260  23.2700120  58.5984500 143.9224520  22.4267240  59.7356900
 144.5530470  24.8351540  55.9534960 144.1458550  24.9766130  55.0988560
 145.4443480  24.5511700  55.7506170 148.8252130  29.0497320  54.0657630
 148.6494610  28.1332860  53.8525430 147.9707870  29.4084610  54.3055430
 143.3642360  24.1765520  62.0823240 143.5273400  23.7070880  61.2642610
 143.8294810  23.6689080  62.7472080 148.1361130  13.3071280  57.1183810
 147.6929280  14.0880820  56.7868330 148.6946120  13.6301170  57.8254750
 152.4230940  16.1739800  62.7219130 151.9610310  16.3822820  63.5339070
 152.0209050  15.3599150  62.4189800 151.2519950  12.9281980  51.9989640
 150.6274130  12.9241850  52.7242950 151.1650070  12.0612940  51.6025610
 150.1737030  13.8518610  58.9773410 150.4709360  14.7581440  58.8965430
 150.7222590  13.3637390  58.3632980 147.9275350  18.4304850  54.8465060
 147.7016270  18.2142020  55.7511680 147.1467880  18.8633310  54.5011030
 150.3674560  19.3290430  65.5125330 150.2718160  18.3885160  65.3625730
 151.2106540  19.5505500  65.1173400 145.4985100  15.7404100  63.6659110
 145.1048490  16.5879310  63.8731890 144.8103500  15.1030470  63.8567750
 142.8002150  13.6632560  57.6989190 142.5115200  14.2335420  58.4114170
 143.5447910  13.1837010  58.0620420 142.9872380  17.6052680  48.9091910
 142.9047050  18.5483440  49.0506900 142.6355440  17.4627590  48.0304260
 150.7870510  16.3391710  57.9762260 150.7906570  15.8981660  57.1266800
 151.6821630  16.6609040  58.0834080 146.6372890  16.2218200  56.9356470
 146.2972940  16.6993430  57.6923520 145.8750210  15.7683320  56.5757570
 150.8490660  17.3403790  50.9669020 150.9703480  17.2990270  51.9154840
 150.4639170  18.2027940  50.8115750 149.8612160  19.6504930  50.3652320
 149.2929060  19.2023180  49.7388230 150.5701160  20.0097710  49.8317470
 144.9381340  23.5516950  64.2419050 144.5536130  22.9110620  64.8402010
 145.2493530  24.2553070  64.8113780 151.0878480  20.3993490  59.7227670
 151.4548610  19.9252060  60.4689010 150.8983540  21.2735060  60.0636010
 143.9518970  15.1437180  55.8521140 143.6665890  14.7792850  56.6899760
 143.8897830  14.4117640  55.2384280 148.8777850  19.4402130  62.0411880
 148.5734920  20.3194110  62.2662240 149.8324310  19.5001920  62.0769320
 147.4059640  23.6463120  52.6378730 146.6321900  23.1060740  52.4777450
 148.1354270  23.1269730  52.2996490 147.4497040  23.3143500  56.2757540
 147.9675710  22.5111760  56.2214430 146.9981060  23.2522640  57.1174370
 144.9341580  20.2804870  63.1883240 144.5756520  20.9458720  63.7756580
 144.6396140  19.4488420  63.5595860 148.1354700  20.7389110  66.0722790
 147.8354840  20.8846290  65.1750610 148.9065940  20.1794400  65.9796180
 151.3057230  24.6623310  54.3200760 151.9928360  25.2092520  54.7008350
 150.5189650  25.2064040  54.3550370 143.4449630  20.2796130  49.8117840
 144.3144480  20.5620930  50.0953760 142.9539950  21.0932000  49.6966650
 150.6084440  21.6669340  53.9326120 151.0647220  22.4774590  54.1586310
 150.2572650  21.3492480  54.7644610 146.5096220  12.0106990  54.4048640
 146.3810850  12.0024890  55.3533560 145.6858240  12.3490080  54.0539650
 143.8120880  29.4923510  50.3779470 144.1718520  30.0912850  49.7236740
 143.6713220  30.0383400  51.1514500 143.5090150  13.7698110  63.8655340
 142.7948670  13.9695030  64.4707950 143.9285190  12.9937680  64.2370140
 143.7962740  27.7578370  64.8521870 143.9053860  26.8173110  64.7117260
 143.1443300  28.0233120  64.2035600 151.7875330  26.0294260  66.2519990
 151.4672200  25.3103500  66.7965680 151.1133690  26.7049330  66.3256050
 149.8289500  26.8754710  51.1953140 149.8199600  27.6084400  50.5797650
 148.9087860  26.6286290  51.2880100 145.4296140  22.0969600  51.9399900
 144.8224090  22.8368500  51.9495200 145.9045490  22.1868960  51.1138100
 150.3374990  17.4963310  53.8402230 149.6291140  17.9649650  54.2815840
 150.6219470  16.8385320  54.4747420 151.9630920  18.9160010  61.8394760
 152.4616170  19.3905830  62.5046610 152.1053870  17.9923530  62.0464790
 151.4567210  29.4569270  54.5526000 151.7108710  29.4190660  53.6305370
 150.5079690  29.3302600  54.5454250 148.5410010  15.8048390  51.2152940
 149.3900540  16.2418540  51.1493130 148.1741280  16.1168650  52.0425000
 147.4401430  22.0580750  49.6888470 148.2064700  21.9462110  50.2513900
 147.5176120  21.3618720  49.0365240 146.1348190  19.4905820  50.3721360
 146.2151780  18.5433330  50.4838760 147.0267940  19.8212700  50.4782020
 146.9362900  29.6401210  57.4755900 147.6725380  29.0916670  57.7464470
 147.3203820  30.5057220  57.3361890 143.8208380  25.7074780  53.3497410
 142.8948160  25.9495920  53.3402820 144.2864810  26.5349040  53.2282160
 145.9421180  28.8247280  66.6641480 146.7433910  29.1459330  67.0776880
 145.4273000  28.4642860  67.3861390 150.0465210  28.8131520  49.2981470
 150.8393820  29.1020350  48.8463260 149.5269560  28.3823690  48.6193950
 143.6618990  21.3120740  65.6077530 144.1658010  20.7328020  66.1793760
 142.9226410  21.5960970  66.1453900 150.5642610  24.0334930  49.1623820
 150.4593250  23.4187280  49.8885200 150.3966830  23.5100820  48.3786830
 150.7156930  22.7191730  65.1413050 149.9502600  23.2876730  65.0567720
 150.8972890  22.4267940  64.2481280 145.6942070  19.4550330  66.5027600
 145.7347410  19.1564200  67.4112830 146.5487570  19.8557940  66.3435120
 149.4720460  22.0545880  51.6631110 149.8936880  21.8885750  52.5062500
 149.5971300  21.2446110  51.1686250 147.6347880  18.0342430  64.4702090
 147.1044340  17.5433380  63.8425430 148.3035950  18.4626630  63.9360020
 151.9848100  21.0783490  48.9108210 152.5053760  20.3632510  48.5449360
 152.6316500  21.7169360  49.2108720 148.1220180  15.0004800  64.5499380
 148.0277050  14.3825550  63.8250250 147.5417570  15.7271090  64.3229290
 150.8881620  13.5578040  61.5826770 150.4398920  13.5802300  60.7372320
 150.2546820  13.1597060  62.1797070 151.2941170  22.4532370  62.2039210
 151.7129280  23.2965100  62.0315450 150.3749800  22.5904410  61.9745990
 148.3679360  18.1279110  48.6089270 148.1668420  17.2646470  48.9702610
 148.1971410  18.0412470  47.6710870 149.1448590  28.7585380  63.3196940
 148.6069680  29.4831440  63.0005640 149.3982550  28.2815720  62.5294280
 150.3973840  16.7269900  64.8452870 150.9873530  16.4185750  65.5330690
 149.5794080  16.2549650  65.0012770 147.1662160  15.2279730  48.5967150
 147.4688060  15.2347160  47.6886300 147.9056750  14.8777590  49.0934810
 152.0010800  29.9936590  63.5783590 151.9269500  30.8971730  63.8855960
 151.0989640  29.6748490  63.5505660 150.3847090  14.1714350  49.5823350
 150.0369090  13.4938340  49.0025800 150.5859860  13.7103860  50.3966740
 146.1892290  24.5322150  49.4296950 146.6267160  25.0751820  50.0854530
 146.6740020  23.7069100  49.4393290 143.4038090  27.3211180  56.8817210
 143.7341100  26.4532240  56.6495850 143.8329090  27.5269700  57.7122170
 148.0000010  25.6520190  54.5419180 147.6995550  25.5285160  55.4423090
 147.8937500  24.7928780  54.1334910 143.8928300  28.1881770  59.6198840
 143.4559290  28.3682570  60.4522990 144.4605980  28.9456390  59.4780560
 143.7252730  20.7002000  55.9787720 143.0701570  20.4313640  55.3347420
 144.5630680  20.5906480  55.5289700 144.7628660  21.0854570  60.5191060
 145.1301700  20.9981970  61.3987080 144.1939480  20.3221120  60.4197920
 144.3144660  17.9963660  64.4249480 143.4200710  17.9630420  64.7643190
 144.8542210  18.1950450  65.1900730 142.9390810  17.9100930  51.9213050
 142.0354890  18.1731130  51.7464710 143.4231430  18.1812100  51.1413010
 145.4818020  16.9666470  49.8307430 146.1909720  16.5449690  49.3454710
 144.7657960  17.0341700  49.1990780 145.1292180  13.0205800  48.8710080
 145.8520310  13.5614740  49.1891300 145.4016700  12.7469220  47.9951620
 144.8184370  12.2711990  58.7732700 145.4660560  11.7209370  58.3327860
 145.2386210  12.5255140  59.5948510 144.5716370  12.4267660  61.5158020
 144.2231190  12.8831480  62.2816200 144.2404070  11.5324790  61.5980450
 146.1780740  25.5987260  65.6811210 146.1350370  25.2280170  66.5625670
 146.3091750  26.5364830  65.8213030 149.8786770  27.1546850  61.2820930
 149.6378130  27.4221410  60.3951450 150.8189410  27.3252580  61.3371790
 145.2437010  11.9543860  64.7908790 145.7920000  11.7731910  64.0274900
 145.3092320  11.1637970  65.3265100 146.0168770  28.5449510  62.8008990
 145.4229090  28.4134210  63.5399030 146.0092610  27.7087650  62.3351090
 145.6481000  25.9107890  61.7517030 144.9215060  25.2913180  61.6842980
 145.7090150  26.3048500  60.8815110 149.2526100  28.1252890  58.5366440
 149.7691120  27.5140250  58.0114700 149.9023480  28.6281670  59.0277450
 151.9921600  29.0161380  59.3635420 152.2799410  28.7615680  58.4868430
 152.5044820  28.4638740  59.9540990 143.9311000  29.2282280  54.9613790
 143.7633040  28.5952960  55.6595680 143.0645510  29.4341680  54.6107980
 144.5539020  13.0599060  52.4645650 145.3118380  13.1727940  51.8909680
 144.0916190  13.8968260  52.4189080 151.0952830  15.1738330  55.4547960
 150.2827340  14.7995220  55.1143840 151.5994470  14.4183410  55.7569150
 145.5373700  27.9215510  52.4063930 145.0121320  28.3023540  51.7025890
 145.4618280  28.5466280  53.1273640 146.9264170  13.5863110  51.0047620
 147.4556930  12.7992910  50.8755570 147.5592490  14.2654300  51.2383150
 149.1202010  13.3238250  54.0593010 148.4904750  12.6225560  54.2263140
 148.5807150  14.0842380  53.8426170 149.2457570  12.6022230  66.4945500
 148.9641840  13.1055830  65.7306320 149.6277270  11.8043980  66.1287630
 148.1366670  29.8697890  51.2813180 148.8685490  29.5857170  50.7337070
 148.3960340  29.6311170  52.1712560 147.2981460  25.9862620  51.2859510
 146.6690340  26.4547720  51.8345340 147.4129290  25.1411840  51.7205700
 146.9015050  22.1267110  40.1945740 146.0699930  21.8715820  40.5942250
 147.5096030  22.1977880  40.9303660 146.8816310  26.1607200  40.3903760
 147.1844350  25.2704940  40.2113980 147.6259900  26.7177420  40.1626010
 145.3107000  17.0869000  33.9788130 144.4223700  17.4284970  33.8768010
 145.5948190  16.8869320  33.0868960 143.2740010  19.6874650  39.8627830
 143.8456120  18.9196850  39.8631470 143.2741550  19.9863410  38.9534440
 144.5164880  15.0959010  41.6496760 144.3367720  14.1984760  41.9299520
 144.1144960  15.6430880  42.3243710 147.4868390  15.6700500  35.0126510
 147.5935140  16.5704230  35.3195270 146.5760750  15.6218470  34.7221160
 145.1351550  17.5919510  40.2579100 145.8161660  17.8557880  40.8766500
 144.8199600  16.7520380  40.5917110 149.3276120  18.6386870  39.3451690
 149.8354340  19.1367840  39.9856710 149.8589360  17.8622070  39.1691050
 147.6112220  13.2785430  43.6115110 147.6130660  13.7957820  42.8061010
 146.7816530  12.8015610  43.5885040 148.8615070  22.9180610  41.7888610
 148.5284450  23.5449530  42.4309680 149.0381750  23.4442490  41.0090280
 147.2927550  14.9895390  41.6185560 147.6344360  15.8337440  41.3239430
 146.3543360  15.1379130  41.7350900 148.0734170  24.8861410  43.6037790
 148.6908170  25.5612490  43.3222240 147.2127290  25.2949390  43.5125290
 143.3666510  24.0761270  32.4844640 142.9894490  24.5648370  31.7529540
 143.6239580  24.7486550  33.1151170 150.9755440  12.4777660  37.9430150
 151.2830420  11.9224550  37.2265650 150.0456140  12.6122120  37.7603140
 148.9692840  21.0691230  37.4610000 148.5649840  20.3568480  36.9655900
 149.0555960  20.7244470  38.3498040 149.4374540  24.7558790  39.6249210
 149.1402830  24.1504260  38.9456990 150.3874360  24.7936100  39.5138570
 147.6821460  17.8434440  41.2409040 148.2336050  17.9529780  40.4662290
 148.1964970  18.2172040  41.9564270 148.5292970  24.4940480  46.2757010
 147.6321500  24.7180450  46.5230410 148.5545840  24.6175420  45.3268410
 147.3564190  21.3653800  44.8514380 147.2171960  22.2376600  45.2201780
 146.4745550  21.0226610  44.7062320 149.1544540  27.3075500  47.0599530
 149.1259970  27.7118450  46.1927960 148.9909510  26.3785860  46.8971130
 145.6697470  19.9636210  34.9616650 145.5495070  20.6898300  34.3497920
 145.3598360  19.1939120  34.4844560 143.3082840  23.1351350  40.7685290
 143.3863260  23.2700120  39.8241010 143.9224520  22.4267240  40.9613410
 144.5530470  24.8351540  37.1791470 144.1458550  24.9766130  36.3245070
 145.4443480  24.5511700  36.9762680 148.8252130  29.0497320  35.2914140
 148.6494610  28.1332860  35.0781940 147.9707870  29.4084610  35.5311940
 143.3642360  24.1765520  43.3079750 143.5273400  23.7070880  42.4899120
 143.8294810  23.6689080  43.9728590 148.1361130  13.3071280  38.3440320
 147.6929280  14.0880820  38.0124840 148.6946120  13.6301170  39.0511260
 152.4230940  16.1739800  43.9475640 151.9610310  16.3822820  44.7595580
 152.0209050  15.3599150  43.6446310 151.2519950  12.9281980  33.2246150
 150.6274130  12.9241850  33.9499460 151.1650070  12.0612940  32.8282120
 150.1737030  13.8518610  40.2029920 150.4709360  14.7581440  40.1221940
 150.7222590  13.3637390  39.5889490 147.9275350  18.4304850  36.0721570
 147.7016270  18.2142020  36.9768190 147.1467880  18.8633310  35.7267540
 150.3674560  19.3290430  46.7381840 150.2718160  18.3885160  46.5882240
 151.2106540  19.5505500  46.3429910 145.4985100  15.7404100  44.8915620
 145.1048490  16.5879310  45.0988400 144.8103500  15.1030470  45.0824260
 142.8002150  13.6632560  38.9245700 142.5115200  14.2335420  39.6370680
 143.5447910  13.1837010  39.2876930 142.9872380  17.6052680  30.1348420
 142.9047050  18.5483440  30.2763410 142.6355440  17.4627590  29.2560770
 150.7870510  16.3391710  39.2018770 150.7906570  15.8981660  38.3523310
 151.6821630  16.6609040  39.3090590 146.6372890  16.2218200  38.1612980
 146.2972940  16.6993430  38.9180030 145.8750210  15.7683320  37.8014080
 150.8490660  17.3403790  32.1925530 150.9703480  17.2990270  33.1411350
 150.4639170  18.2027940  32.0372260 149.8612160  19.6504930  31.5908830
 149.2929060  19.2023180  30.9644740 150.5701160  20.0097710  31.0573980
 144.9381340  23.5516950  45.4675560 144.5536130  22.9110620  46.0658520
 145.2493530  24.2553070  46.0370290 151.0878480  20.3993490  40.9484180
 151.4548610  19.9252060  41.6945520 150.8983540  21.2735060  41.2892520
 143.9518970  15.1437180  37.0777650 143.6665890  14.7792850  37.9156270
 143.8897830  14.4117640  36.4640790 148.8777850  19.4402130  43.2668390
 148.5734920  20.3194110  43.4918750 149.8324310  19.5001920  43.3025830
 147.4059640  23.6463120  33.8635240 146.6321900  23.1060740  33.7033960
 148.1354270  23.1269730  33.5253000 147.4497040  23.3143500  37.5014050
 147.9675710  22.5111760  37.4470940 146.9981060  23.2522640  38.3430880
 144.9341580  20.2804870  44.4139750 144.5756520  20.9458720  45.0013090
 144.6396140  19.4488420  44.7852370 148.1354700  20.7389110  47.2979300
 147.8354840  20.8846290  46.4007120 148.9065940  20.1794400  47.2052690
 151.3057230  24.6623310  35.5457270 151.9928360  25.2092520  35.9264860
 150.5189650  25.2064040  35.5806880 143.4449630  20.2796130  31.0374350
 144.3144480  20.5620930  31.3210270 142.9539950  21.0932000  30.9223160
 150.6084440  21.6669340  35.1582630 151.0647220  22.4774590  35.3842820
 150.2572650  21.3492480  35.9901120 146.5096220  12.0106990  35.6305150
 146.3810850  12.0024890  36.5790070 145.6858240  12.3490080  35.2796160
 143.8120880  29.4923510  31.6035980 144.1718520  30.0912850  30.9493250
 143.6713220  30.0383400  32.3771010 143.5090150  13.7698110  45.0911850
 142.7948670  13.9695030  45.6964460 143.9285190  12.9937680  45.4626650
 143.7962740  27.7578370  46.0778380 143.9053860  26.8173110  45.9373770
 143.1443300  28.0233120  45.4292110 151.7875330  26.0294260  47.4776500
 151.4672200  25.3103500  48.0222190 151.1133690  26.7049330  47.5512560
 149.8289500  26.8754710  32.4209650 149.8199600  27.6084400  31.8054160
 148.9087860  26.6286290  32.5136610 145.4296140  22.0969600  33.1656410
 144.8224090  22.8368500  33.1751710 145.9045490  22.1868960  32.3394610
 150.3374990  17.4963310  35.0658740 149.6291140  17.9649650  35.5072350
 150.6219470  16.8385320  35.7003930 151.9630920  18.9160010  43.0651270
 152.4616170  19.3905830  43.7303120 152.1053870  17.9923530  43.2721300
 151.4567210  29.4569270  35.7782510 151.7108710  29.4190660  34.8561880
 150.5079690  29.3302600  35.7710760 148.5410010  15.8048390  32.4409450
 149.3900540  16.2418540  32.3749640 148.1741280  16.1168650  33.2681510
 147.4401430  22.0580750  30.9144980 148.2064700  21.9462110  31.4770410
 147.5176120  21.3618720  30.2621750 146.1348190  19.4905820  31.5977870
 146.2151780  18.5433330  31.7095270 147.0267940  19.8212700  31.7038530
 146.9362900  29.6401210  38.7012410 147.6725380  29.0916670  38.9720980
 147.3203820  30.5057220  38.5618400 143.8208380  25.7074780  34.5753920
 142.8948160  25.9495920  34.5659330 144.2864810  26.5349040  34.4538670
 145.9421180  28.8247280  47.8897990 146.7433910  29.1459330  48.3033390
 145.4273000  28.4642860  48.6117900 150.0465210  28.8131520  30.5237980
 150.8393820  29.1020350  30.0719770 149.5269560  28.3823690  29.8450460
 143.6618990  21.3120740  46.8334040 144.1658010  20.7328020  47.4050270
 142.9226410  21.5960970  47.3710410 150.5642610  24.0334930  30.3880330
 150.4593250  23.4187280  31.1141710 150.3966830  23.5100820  29.6043340
 150.7156930  22.7191730  46.3669560 149.9502600  23.2876730  46.2824230
 150.8972890  22.4267940  45.4737790 145.6942070  19.4550330  47.7284110
 145.7347410  19.1564200  48.6369340 146.5487570  19.8557940  47.5691630
 149.4720460  22.0545880  32.8887620 149.8936880  21.8885750  33.7319010
 149.5971300  21.2446110  32.3942760 147.6347880  18.0342430  45.6958600
 147.1044340  17.5433380  45.0681940 148.3035950  18.4626630  45.1616530
 151.9848100  21.0783490  30.1364720 152.5053760  20.3632510  29.7705870
 152.6316500  21.7169360  30.4365230 148.1220180  15.0004800  45.7755890
 148.0277050  14.3825550  45.0506760 147.5417570  15.7271090  45.5485800
 150.8881620  13.5578040  42.8083280 150.4398920  13.5802300  41.9628830
 150.2546820  13.1597060  43.4053580 151.2941170  22.4532370  43.4295720
 151.7129280  23.2965100  43.2571960 150.3749800  22.5904410  43.2002500
 148.3679360  18.1279110  29.8345780 148.1668420  17.2646470  30.1959120
 148.1971410  18.0412470  28.8967380 149.1448590  28.7585380  44.5453450
 148.6069680  29.4831440  44.2262150 149.3982550  28.2815720  43.7550790
 150.3973840  16.7269900  46.0709380 150.9873530  16.4185750  46.7587200
 149.5794080  16.2549650  46.2269280 147.1662160  15.2279730  29.8223660
 147.4688060  15.2347160  28.9142810 147.9056750  14.8777590  30.3191320
 152.0010800  29.9936590  44.8040100 151.9269500  30.8971730  45.1112470
 151.0989640  29.6748490  44.7762170 150.3847090  14.1714350  30.8079860
 150.0369090  13.4938340  30.2282310 150.5859860  13.7103860  31.6223250
 146.1892290  24.5322150  30.6553460 146.6267160  25.0751820  31.3111040
 146.6740020  23.7069100  30.6649800 143.4038090  27.3211180  38.1073720
 143.7341100  26.4532240  37.8752360 143.8329090  27.5269700  38.9378680
 148.0000010  25.6520190  35.7675690 147.6995550  25.5285160  36.6679600
 147.8937500  24.7928780  35.3591420 143.8928300  28.1881770  40.8455350
 143.4559290  28.3682570  41.6779500 144.4605980  28.9456390  40.7037070
 143.7252730  20.7002000  37.2044230 143.0701570  20.4313640  36.5603930
 144.5630680  20.5906480  36.7546210 144.7628660  21.0854570  41.7447570
 145.1301700  20.9981970  42.6243590 144.1939480  20.3221120  41.6454430
 144.3144660  17.9963660  45.6505990 143.4200710  17.9630420  45.9899700
 144.8542210  18.1950450  46.4157240 142.9390810  17.9100930  33.1469560
 142.0354890  18.1731130  32.9721220 143.4231430  18.1812100  32.3669520
 145.4818020  16.9666470  31.0563940 146.1909720  16.5449690  30.5711220
 144.7657960  17.0341700  30.4247290 145.1292180  13.0205800  30.0966590
 145.8520310  13.5614740  30.4147810 145.4016700  12.7469220  29.2208130
 144.8184370  12.2711990  39.9989210 145.4660560  11.7209370  39.5584370
 145.2386210  12.5255140  40.8205020 144.5716370  12.4267660  42.7414530
 144.2231190  12.8831480  43.5072710 144.2404070  11.5324790  42.8236960
 146.1780740  25.5987260  46.9067720 146.1350370  25.2280170  47.7882180
 146.3091750  26.5364830  47.0469540 149.8786770  27.1546850  42.5077440
 149.6378130  27.4221410  41.6207960 150.8189410  27.3252580  42.5628300
 145.2437010  11.9543860  46.0165300 145.7920000  11.7731910  45.2531410
 145.3092320  11.1637970  46.5521610 146.0168770  28.5449510  44.0265500
 145.4229090  28.4134210  44.7655540 146.0092610  27.7087650  43.5607600
 145.6481000  25.9107890  42.9773540 144.9215060  25.2913180  42.9099490
 145.7090150  26.3048500  42.1071620 149.2526100  28.1252890  39.7622950
 149.7691120  27.5140250  39.2371210 149.9023480  28.6281670  40.2533960
 151.9921600  29.0161380  40.5891930 152.2799410  28.7615680  39.7124940
 152.5044820  28.4638740  41.1797500 143.9311000  29.2282280  36.1870300
 143.7633040  28.5952960  36.8852190 143.0645510  29.4341680  35.8364490
 144.5539020  13.0599060  33.6902160 145.3118380  13.1727940  33.1166190
 144.0916190  13.8968260  33.6445590 151.0952830  15.1738330  36.6804470
 150.2827340  14.7995220  36.3400350 151.5994470  14.4183410  36.9825660
 145.5373700  27.9215510  33.6320440 145.0121320  28.3023540  32.9282400
 145.4618280  28.5466280  34.3530150 146.9264170  13.5863110  32.2304130
 147.4556930  12.7992910  32.1012080 147.5592490  14.2654300  32.4639660
 149.1202010  13.3238250  35.2849520 148.4904750  12.6225560  35.4519650
 148.5807150  14.0842380  35.0682680 149.2457570  12.6022230  47.7202010
 148.9641840  13.1055830  46.9562830 149.6277270  11.8043980  47.3544140
 148.1366670  29.8697890  32.5069690 148.8685490  29.5857170  31.9593580
 148.3960340  29.6311170  33.3969070 147.2981460  25.9862620  32.5116020
 146.6690340  26.4547720  33.0601850 147.4129290  25.1411840  32.9462210
 146.9015050  22.1267110  21.4202250 146.0699930  21.8715820  21.8198760
 147.5096030  22.1977880  22.1560170 146.8816310  26.1607200  21.6160270
 147.1844350  25.2704940  21.4370490 147.6259900  26.7177420  21.3882520
 145.3107000  17.0869000  15.2044640 144.4223700  17.4284970  15.1024520
 145.5948190  16.8869320  14.3125470 143.2740010  19.6874650  21.0884340
 143.8456120  18.9196850  21.0887980 143.2741550  19.9863410  20.1790950
 144.5164880  15.0959010  22.8753270 144.3367720  14.1984760  23.1556030
 144.1144960  15.6430880  23.5500220 147.4868390  15.6700500  16.2383020
 147.5935140  16.5704230  16.5451780 146.5760750  15.6218470  15.9477670
 145.1351550  17.5919510  21.4835610 145.8161660  17.8557880  22.1023010
 144.8199600  16.7520380  21.8173620 149.3276120  18.6386870  20.5708200
 149.8354340  19.1367840  21.2113220 149.8589360  17.8622070  20.3947560
 147.6112220  13.2785430  24.8371620 147.6130660  13.7957820  24.0317520
 146.7816530  12.8015610  24.8141550 148.8615070  22.9180610  23.0145120
 148.5284450  23.5449530  23.6566190 149.0381750  23.4442490  22.2346790
 147.2927550  14.9895390  22.8442070 147.6344360  15.8337440  22.5495940
 146.3543360  15.1379130  22.9607410 148.0734170  24.8861410  24.8294300
 148.6908170  25.5612490  24.5478750 147.2127290  25.2949390  24.7381800
 143.3666510  24.0761270  13.7101150 142.9894490  24.5648370  12.9786050
 143.6239580  24.7486550  14.3407680 150.9755440  12.4777660  19.1686660
 151.2830420  11.9224550  18.4522160 150.0456140  12.6122120  18.9859650
 148.9692840  21.0691230  18.6866510 148.5649840  20.3568480  18.1912410
 149.0555960  20.7244470  19.5754550 149.4374540  24.7558790  20.8505720
 149.1402830  24.1504260  20.1713500 150.3874360  24.7936100  20.7395080
 147.6821460  17.8434440  22.4665550 148.2336050  17.9529780  21.6918800
 148.1964970  18.2172040  23.1820780 148.5292970  24.4940480  27.5013520
 147.6321500  24.7180450  27.7486920 148.5545840  24.6175420  26.5524920
 147.3564190  21.3653800  26.0770890 147.2171960  22.2376600  26.4458290
 146.4745550  21.0226610  25.9318830 149.1544540  27.3075500  28.2856040
 149.1259970  27.7118450  27.4184470 148.9909510  26.3785860  28.1227640
 145.6697470  19.9636210  16.1873160 145.5495070  20.6898300  15.5754430
 145.3598360  19.1939120  15.7101070 143.3082840  23.1351350  21.9941800
 143.3863260  23.2700120  21.0497520 143.9224520  22.4267240  22.1869920
 144.5530470  24.8351540  18.4047980 144.1458550  24.9766130  17.5501580
 145.4443480  24.5511700  18.2019190 148.8252130  29.0497320  16.5170650
 148.6494610  28.1332860  16.3038450 147.9707870  29.4084610  16.7568450
 143.3642360  24.1765520  24.5336260 143.5273400  23.7070880  23.7155630
 143.8294810  23.6689080  25.1985100 148.1361130  13.3071280  19.5696830
 147.6929280  14.0880820  19.2381350 148.6946120  13.6301170  20.2767770
 152.4230940  16.1739800  25.1732150 151.9610310  16.3822820  25.9852090
 152.0209050  15.3599150  24.8702820 151.2519950  12.9281980  14.4502660
 150.6274130  12.9241850  15.1755970 151.1650070  12.0612940  14.0538630
 150.1737030  13.8518610  21.4286430 150.4709360  14.7581440  21.3478450
 150.7222590  13.3637390  20.8146000 147.9275350  18.4304850  17.2978080
 147.7016270  18.2142020  18.2024700 147.1467880  18.8633310  16.9524050
 150.3674560  19.3290430  27.9638350 150.2718160  18.3885160  27.8138750
 151.2106540  19.5505500  27.5686420 145.4985100  15.7404100  26.1172130
 145.1048490  16.5879310  26.3244910 144.8103500  15.1030470  26.3080770
 142.8002150  13.6632560  20.1502210 142.5115200  14.2335420  20.8627190
 143.5447910  13.1837010  20.5133440 142.9872380  17.6052680  11.3604930
 142.9047050  18.5483440  11.5019920 142.6355440  17.4627590  10.4817280
 150.7870510  16.3391710  20.4275280 150.7906570  15.8981660  19.5779820
 151.6821630  16.6609040  20.5347100 146.6372890  16.2218200  19.3869490
 146.2972940  16.6993430  20.1436540 145.8750210  15.7683320  19.0270590
 150.8490660  17.3403790  13.4182040 150.9703480  17.2990270  14.3667860
 150.4639170  18.2027940  13.2628770 149.8612160  19.6504930  12.8165340
 149.2929060  19.2023180  12.1901250 150.5701160  20.0097710  12.2830490
 144.9381340  23.5516950  26.6932070 144.5536130  22.9110620  27.2915030
 145.2493530  24.2553070  27.2626800 151.0878480  20.3993490  22.1740690
 151.4548610  19.9252060  22.9202030 150.8983540  21.2735060  22.5149030
 143.9518970  15.1437180  18.3034160 143.6665890  14.7792850  19.1412780
 143.8897830  14.4117640  17.6897300 148.8777850  19.4402130  24.4924900
 148.5734920  20.3194110  24.7175260 149.8324310  19.5001920  24.5282340
 147.4059640  23.6463120  15.0891750 146.6321900  23.1060740  14.9290470
 148.1354270  23.1269730  14.7509510 147.4497040  23.3143500  18.7270560
 147.9675710  22.5111760  18.6727450 146.9981060  23.2522640  19.5687390
 144.9341580  20.2804870  25.6396260 144.5756520  20.9458720  26.2269600
 144.6396140  19.4488420  26.0108880 148.1354700  20.7389110  28.5235810
 147.8354840  20.8846290  27.6263630 148.9065940  20.1794400  28.4309200
 151.3057230  24.6623310  16.7713780 151.9928360  25.2092520  17.1521370
 150.5189650  25.2064040  16.8063390 143.4449630  20.2796130  12.2630860
 144.3144480  20.5620930  12.5466780 142.9539950  21.0932000  12.1479670
 150.6084440  21.6669340  16.3839140 151.0647220  22.4774590  16.6099330
 150.2572650  21.3492480  17.2157630 146.5096220  12.0106990  16.8561660
 146.3810850  12.0024890  17.8046580 145.6858240  12.3490080  16.5052670
 143.8120880  29.4923510  12.8292490 144.1718520  30.0912850  12.1749760
 143.6713220  30.0383400  13.6027520 143.5090150  13.7698110  26.3168360
 142.7948670  13.9695030  26.9220970 143.9285190  12.9937680  26.6883160
 143.7962740  27.7578370  27.3034890 143.9053860  26.8173110  27.1630280
 143.1443300  28.0233120  26.6548620 151.7875330  26.0294260  28.7033010
 151.4672200  25.3103500  29.2478700 151.1133690  26.7049330  28.7769070
 149.8289500  26.8754710  13.6466160 149.8199600  27.6084400  13.0310670
 148.9087860  26.6286290  13.7393120 145.4296140  22.0969600  14.3912920
 144.8224090  22.8368500  14.4008220 145.9045490  22.1868960  13.5651120
 150.3374990  17.4963310  16.2915250 149.6291140  17.9649650  16.7328860
 150.6219470  16.8385320  16.9260440 151.9630920  18.9160010  24.2907780
 152.4616170  19.3905830  24.9559630 152.1053870  17.9923530  24.4977810
 151.4567210  29.4569270  17.0039020 151.7108710  29.4190660  16.0818390
 150.5079690  29.3302600  16.9967270 148.5410010  15.8048390  13.6665960
 149.3900540  16.2418540  13.6006150 148.1741280  16.1168650  14.4938020
 147.4401430  22.0580750  12.1401490 148.2064700  21.9462110  12.7026920
 147.5176120  21.3618720  11.4878260 146.1348190  19.4905820  12.8234380
 146.2151780  18.5433330  12.9351780 147.0267940  19.8212700  12.9295040
 146.9362900  29.6401210  19.9268920 147.6725380  29.0916670  20.1977490
 147.3203820  30.5057220  19.7874910 143.8208380  25.7074780  15.8010430
 142.8948160  25.9495920  15.7915840 144.2864810  26.5349040  15.6795180
 145.9421180  28.8247280  29.1154500 146.7433910  29.1459330  29.5289900
 145.4273000  28.4642860  29.8374410 150.0465210  28.8131520  11.7494490
 150.8393820  29.1020350  11.2976280 149.5269560  28.3823690  11.0706970
 143.6618990  21.3120740  28.0590550 144.1658010  20.7328020  28.6306780
 142.9226410  21.5960970  28.5966920 150.5642610  24.0334930  11.6136840
 150.4593250  23.4187280  12.3398220 150.3966830  23.5100820  10.8299850
 150.7156930  22.7191730  27.5926070 149.9502600  23.2876730  27.5080740
 150.8972890  22.4267940  26.6994300 145.6942070  19.4550330  28.9540620
 145.7347410  19.1564200  29.8625850 146.5487570  19.8557940  28.7948140
 149.4720460  22.0545880  14.1144130 149.8936880  21.8885750  14.9575520
 149.5971300  21.2446110  13.6199270 147.6347880  18.0342430  26.9215110
 147.1044340  17.5433380  26.2938450 148.3035950  18.4626630  26.3873040
 151.9848100  21.0783490  11.3621230 152.5053760  20.3632510  10.9962380
 152.6316500  21.7169360  11.6621740 148.1220180  15.0004800  27.0012400
 148.0277050  14.3825550  26.2763270 147.5417570  15.7271090  26.7742310
 150.8881620  13.5578040  24.0339790 150.4398920  13.5802300  23.1885340
 150.2546820  13.1597060  24.6310090 151.2941170  22.4532370  24.6552230
 151.7129280  23.2965100  24.4828470 150.3749800  22.5904410  24.4259010
 148.3679360  18.1279110  11.0602290 148.1668420  17.2646470  11.4215630
 148.1971410  18.0412470  10.1223890 149.1448590  28.7585380  25.7709960
 148.6069680  29.4831440  25.4518660 149.3982550  28.2815720  24.9807300
 150.3973840  16.7269900  27.2965890 150.9873530  16.4185750  27.9843710
 149.5794080  16.2549650  27.4525790 147.1662160  15.2279730  11.0480170
 147.4688060  15.2347160  10.1399320 147.9056750  14.8777590  11.5447830
 152.0010800  29.9936590  26.0296610 151.9269500  30.8971730  26.3368980
 151.0989640  29.6748490  26.0018680 150.3847090  14.1714350  12.0336370
 150.0369090  13.4938340  11.4538820 150.5859860  13.7103860  12.8479760
 146.1892290  24.5322150  11.8809970 146.6267160  25.0751820  12.5367550
 146.6740020  23.7069100  11.8906310 143.4038090  27.3211180  19.3330230
 143.7341100  26.4532240  19.1008870 143.8329090  27.5269700  20.1635190
 148.0000010  25.6520190  16.9932200 147.6995550  25.5285160  17.8936110
 147.8937500  24.7928780  16.5847930 143.8928300  28.1881770  22.0711860
 143.4559290  28.3682570  22.9036010 144.4605980  28.9456390  21.9293580
 143.7252730  20.7002000  18.4300740 143.0701570  20.4313640  17.7860440
 144.5630680  20.5906480  17.9802720 144.7628660  21.0854570  22.9704080
 145.1301700  20.9981970  23.8500100 144.1939480  20.3221120  22.8710940
 144.3144660  17.9963660  26.8762500 143.4200710  17.9630420  27.2156210
 144.8542210  18.1950450  27.6413750 142.9390810  17.9100930  14.3726070
 142.0354890  18.1731130  14.1977730 143.4231430  18.1812100  13.5926030
 145.4818020  16.9666470  12.2820450 146.1909720  16.5449690  11.7967730
 144.7657960  17.0341700  11.6503800 145.1292180  13.0205800  11.3223100
 145.8520310  13.5614740  11.6404320 145.4016700  12.7469220  10.4464640
 144.8184370  12.2711990  21.2245720 145.4660560  11.7209370  20.7840880
 145.2386210  12.5255140  22.0461530 144.5716370  12.4267660  23.9671040
 144.2231190  12.8831480  24.7329220 144.2404070  11.5324790  24.0493470
 146.1780740  25.5987260  28.1324230 146.1350370  25.2280170  29.0138690
 146.3091750  26.5364830  28.2726050 149.8786770  27.1546850  23.7333950
 149.6378130  27.4221410  22.8464470 150.8189410  27.3252580  23.7884810
 145.2437010  11.9543860  27.2421810 145.7920000  11.7731910  26.4787920
 145.3092320  11.1637970  27.7778120 146.0168770  28.5449510  25.2522010
 145.4229090  28.4134210  25.9912050 146.0092610  27.7087650  24.7864110
 145.6481000  25.9107890  24.2030050 144.9215060  25.2913180  24.1356000
 145.7090150  26.3048500  23.3328130 149.2526100  28.1252890  20.9879460
 149.7691120  27.5140250  20.4627720 149.9023480  28.6281670  21.4790470
 151.9921600  29.0161380  21.8148440 152.2799410  28.7615680  20.9381450
 152.5044820  28.4638740  22.4054010 143.9311000  29.2282280  17.4126810
 143.7633040  28.5952960  18.1108700 143.0645510  29.4341680  17.0621000
 144.5539020  13.0599060  14.9158670 145.3118380  13.1727940  14.3422700
 144.0916190  13.8968260  14.8702100 151.0952830  15.1738330  17.9060980
 150.2827340  14.7995220  17.5656860 151.5994470  14.4183410  18.2082170
 145.5373700  27.9215510  14.8576950 145.0121320  28.3023540  14.1538910
 145.4618280  28.5466280  15.5786660 146.9264170  13.5863110  13.4560640
 147.4556930  12.7992910  13.3268590 147.5592490  14.2654300  13.6896170
 149.1202010  13.3238250  16.5106030 148.4904750  12.6225560  16.6776160
 148.5807150  14.0842380  16.2939190 149.2457570  12.6022230  28.9458520
 148.9641840  13.1055830  28.1819340 149.6277270  11.8043980  28.5800650
 148.1366670  29.8697890  13.7326200 148.8685490  29.5857170  13.1850090
 148.3960340  29.6311170  14.6225580 147.2981460  25.9862620  13.7372530
 146.6690340  26.4547720  14.2858360 147.4129290  25.1411840  14.1718720
 146.9015050  22.1267110   2.6458760 146.0699930  21.8715820   3.0455270
 147.5096030  22.1977880   3.3816680 146.8816310  26.1607200   2.8416780
 147.1844350  25.2704940   2.6627000 147.6259900  26.7177420   2.6139030
 144.5164880  15.0959010   4.1009780 144.3367720  14.1984760   4.3812540
 144.1144960  15.6430880   4.7756730 145.1351550  17.5919510   2.7092120
 145.8161660  17.8557880   3.3279520 144.8199600  16.7520380   3.0430130
 149.3276120  18.6386870   1.7964710 149.8354340  19.1367840   2.4369730
 149.8589360  17.8622070   1.6204070 147.6112220  13.2785430   6.0628130
 147.6130660  13.7957820   5.2574030 146.7816530  12.8015610   6.0398060
 148.8615070  22.9180610   4.2401630 148.5284450  23.5449530   4.8822700
 149.0381750  23.4442490   3.4603300 147.2927550  14.9895390   4.0698580
 147.6344360  15.8337440   3.7752450 146.3543360  15.1379130   4.1863920
 148.0734170  24.8861410   6.0550810 148.6908170  25.5612490   5.7735260
 147.2127290  25.2949390   5.9638310 147.6821460  17.8434440   3.6922060
 148.2336050  17.9529780   2.9175310 148.1964970  18.2172040   4.4077290
 148.5292970  24.4940480   8.7270030 147.6321500  24.7180450   8.9743430
 148.5545840  24.6175420   7.7781430 147.3564190  21.3653800   7.3027400
 147.2171960  22.2376600   7.6714800 146.4745550  21.0226610   7.1575340
 149.1544540  27.3075500   9.5112550 149.1259970  27.7118450   8.6440980
 148.9909510  26.3785860   9.3484150 143.3082840  23.1351350   3.2198310
 143.3863260  23.2700120   2.2754030 143.9224520  22.4267240   3.4126430
 143.3642360  24.1765520   5.7592770 143.5273400  23.7070880   4.9412140
 143.8294810  23.6689080   6.4241610 152.4230940  16.1739800   6.3988660
 151.9610310  16.3822820   7.2108600 152.0209050  15.3599150   6.0959330
 150.1737030  13.8518610   2.6542940 150.4709360  14.7581440   2.5734960
 150.7222590  13.3637390   2.0402510 150.3674560  19.3290430   9.1894860
 150.2718160  18.3885160   9.0395260 151.2106540  19.5505500   8.7942930
 145.4985100  15.7404100   7.3428640 145.1048490  16.5879310   7.5501420
 144.8103500  15.1030470   7.5337280 144.9381340  23.5516950   7.9188580
 144.5536130  22.9110620   8.5171540 145.2493530  24.2553070   8.4883310
 151.0878480  20.3993490   3.3997200 151.4548610  19.9252060   4.1458540
 150.8983540  21.2735060   3.7405540 148.8777850  19.4402130   5.7181410
 148.5734920  20.3194110   5.9431770 149.8324310  19.5001920   5.7538850
 144.9341580  20.2804870   6.8652770 144.5756520  20.9458720   7.4526110
 144.6396140  19.4488420   7.2365390 148.1354700  20.7389110   9.7492320
 147.8354840  20.8846290   8.8520140 148.9065940  20.1794400   9.6565710
 143.5090150  13.7698110   7.5424870 142.7948670  13.9695030   8.1477480
 143.9285190  12.9937680   7.9139670 143.7962740  27.7578370   8.5291400
 143.9053860  26.8173110   8.3886790 143.1443300  28.0233120   7.8805130
 151.7875330  26.0294260   9.9289520 151.4672200  25.3103500  10.4735210
 151.1133690  26.7049330  10.0025580 151.9630920  18.9160010   5.5164290
 152.4616170  19.3905830   6.1816140 152.1053870  17.9923530   5.7234320
 145.9421180  28.8247280  10.3411010 146.7433910  29.1459330  10.7546410
 145.4273000  28.4642860  11.0630920 143.6618990  21.3120740   9.2847060
 144.1658010  20.7328020   9.8563290 142.9226410  21.5960970   9.8223430
 150.7156930  22.7191730   8.8182580 149.9502600  23.2876730   8.7337250
 150.8972890  22.4267940   7.9250810 145.6942070  19.4550330  10.1797130
 145.7347410  19.1564200  11.0882360 146.5487570  19.8557940  10.0204650
 147.6347880  18.0342430   8.1471620 147.1044340  17.5433380   7.5194960
 148.3035950  18.4626630   7.6129550 148.1220180  15.0004800   8.2268910
 148.0277050  14.3825550   7.5019780 147.5417570  15.7271090   7.9998820
 150.8881620  13.5578040   5.2596300 150.4398920  13.5802300   4.4141850
 150.2546820  13.1597060   5.8566600 151.2941170  22.4532370   5.8808740
 151.7129280  23.2965100   5.7084980 150.3749800  22.5904410   5.6515520
 149.1448590  28.7585380   6.9966470 148.6069680  29.4831440   6.6775170
 149.3982550  28.2815720   6.2063810 150.3973840  16.7269900   8.5222400
 150.9873530  16.4185750   9.2100220 149.5794080  16.2549650   8.6782300
 152.0010800  29.9936590   7.2553120 151.9269500  30.8971730   7.5625490
 151.0989640  29.6748490   7.2275190 143.8928300  28.1881770   3.2968370
 143.4559290  28.3682570   4.1292520 144.4605980  28.9456390   3.1550090
 144.7628660  21.0854570   4.1960590 145.1301700  20.9981970   5.0756610
 144.1939480  20.3221120   4.0967450 144.3144660  17.9963660   8.1019010
 143.4200710  17.9630420   8.4412720 144.8542210  18.1950450   8.8670260
 144.8184370  12.2711990   2.4502230 145.4660560  11.7209370   2.0097390
 145.2386210  12.5255140   3.2718040 144.5716370  12.4267660   5.1927550
 144.2231190  12.8831480   5.9585730 144.2404070  11.5324790   5.2749980
 146.1780740  25.5987260   9.3580740 146.1350370  25.2280170  10.2395200
 146.3091750  26.5364830   9.4982560 149.8786770  27.1546850   4.9590460
 149.6378130  27.4221410   4.0720980 150.8189410  27.3252580   5.0141320
 145.2437010  11.9543860   8.4678320 145.7920000  11.7731910   7.7044430
 145.3092320  11.1637970   9.0034630 146.0168770  28.5449510   6.4778520
 145.4229090  28.4134210   7.2168560 146.0092610  27.7087650   6.0120620
 145.6481000  25.9107890   5.4286560 144.9215060  25.2913180   5.3612510
 145.7090150  26.3048500   4.5584640 149.2526100  28.1252890   2.2135970
 149.7691120  27.5140250   1.6884230 149.9023480  28.6281670   2.7046980
 151.9921600  29.0161380   3.0404950 152.2799410  28.7615680   2.1637960
 152.5044820  28.4638740   3.6310520 149.2457570  12.6022230  10.1715030
 148.9641840  13.1055830   9.4075850 149.6277270  11.8043980   9.8057160
 143.3666510   5.3017780 145.1305580 142.9894490   5.7904880 144.3990480
 143.6239580   5.9743060 145.7612110 144.5530470   6.0608050 149.8252410
 144.1458550   6.2022640 148.9706010 145.4443480   5.7768210 149.6223620
 148.8252130  10.2753830 147.9375080 148.6494610   9.3589370 147.7242880
 147.9707870  10.6341120 148.1772880 147.4059640   4.8719630 146.5096180
 146.6321900   4.3317250 146.3494900 148.1354270   4.3526240 146.1713940
 147.4497040   4.5400010 150.1474990 147.9675710   3.7368270 150.0931880
 146.9981060   4.4779150 150.9891820 151.3057230   5.8879820 148.1918210
 151.9928360   6.4349030 148.5725800 150.5189650   6.4320550 148.2267820
 150.6084440   2.8925850 147.8043570 151.0647220   3.7031100 148.0303760
 150.2572650   2.5748990 148.6362060 143.8120880  10.7180020 144.2496920
 144.1718520  11.3169360 143.5954190 143.6713220  11.2639910 145.0231950
 149.8289500   8.1011220 145.0670590 149.8199600   8.8340910 144.4515100
 148.9087860   7.8542800 145.1597550 145.4296140   3.3226110 145.8117350
 144.8224090   4.0625010 145.8212650 145.9045490   3.4125470 144.9855550
 151.4567210  10.6825780 148.4243450 151.7108710  10.6447170 147.5022820
 150.5079690  10.5559110 148.4171700 147.4401430   3.2837260 143.5605920
 148.2064700   3.1718620 144.1231350 147.5176120   2.5875230 142.9082690
 146.9362900  10.8657720 151.3473350 147.6725380  10.3173180 151.6181920
 147.3203820  11.7313730 151.2079340 143.8208380   6.9331290 147.2214860
 142.8948160   7.1752430 147.2120270 144.2864810   7.7605550 147.0999610
 150.0465210  10.0388030 143.1698920 150.8393820  10.3276860 142.7180710
 149.5269560   9.6080200 142.4911400 150.5642610   5.2591440 143.0341270
 150.4593250   4.6443790 143.7602650 150.3966830   4.7357330 142.2504280
 149.4720460   3.2802390 145.5348560 149.8936880   3.1142260 146.3779950
 149.5971300   2.4702620 145.0403700 146.1892290   5.7578660 143.3014400
 146.6267160   6.3008330 143.9571980 146.6740020   4.9325610 143.3110740
 143.4038090   8.5467690 150.7534660 143.7341100   7.6788750 150.5213300
 143.8329090   8.7526210 151.5839620 148.0000010   6.8776700 148.4136630
 147.6995550   6.7541670 149.3140540 147.8937500   6.0185290 148.0052360
 143.7252730   1.9258510 149.8505170 143.0701570   1.6570150 149.2064870
 144.5630680   1.8162990 149.4007150 143.9311000  10.4538790 148.8331240
 143.7633040   9.8209470 149.5313130 143.0645510  10.6598190 148.4825430
 145.5373700   9.1472020 146.2781380 145.0121320   9.5280050 145.5743340
 145.4618280   9.7722790 146.9991090 148.1366670  11.0954400 145.1530630
 148.8685490  10.8113680 144.6054520 148.3960340  10.8567680 146.0430010
 147.2981460   7.2119130 145.1576960 146.6690340   7.6804230 145.7062790
 147.4129290   6.3668350 145.5923150 146.9015050   3.3523620 134.0663190
 146.0699930   3.0972330 134.4659700 147.5096030   3.4234390 134.8021110
 146.8816310   7.3863710 134.2621210 147.1844350   6.4961450 134.0831430
 147.6259900   7.9433930 134.0343460 148.8615070   4.1437120 135.6606060
 148.5284450   4.7706040 136.3027130 149.0381750   4.6699000 134.8807730
 148.0734170   6.1117920 137.4755240 148.6908170   6.7869000 137.1939690
 147.2127290   6.5205900 137.3842740 143.3666510   5.3017780 126.3562090
 142.9894490   5.7904880 125.6246990 143.6239580   5.9743060 126.9868620
 149.4374540   5.9815300 133.4966660 149.1402830   5.3760770 132.8174440
 150.3874360   6.0192610 133.3856020 148.5292970   5.7196990 140.1474460
 147.6321500   5.9436960 140.3947860 148.5545840   5.8431930 139.1985860
 147.3564190   2.5910310 138.7231830 147.2171960   3.4633110 139.0919230
 146.4745550   2.2483120 138.5779770 149.1544540   8.5332010 140.9316980
 149.1259970   8.9374960 140.0645410 148.9909510   7.6042370 140.7688580
 143.3082840   4.3607860 134.6402740 143.3863260   4.4956630 133.6958460
 143.9224520   3.6523750 134.8330860 144.5530470   6.0608050 131.0508920
 144.1458550   6.2022640 130.1962520 145.4443480   5.7768210 130.8480130
 148.8252130  10.2753830 129.1631590 148.6494610   9.3589370 128.9499390
 147.9707870  10.6341120 129.4029390 143.3642360   5.4022030 137.1797200
 143.5273400   4.9327390 136.3616570 143.8294810   4.8945590 137.8446040
 144.9381340   4.7773460 139.3393010 144.5536130   4.1367130 139.9375970
 145.2493530   5.4809580 139.9087740 147.4059640   4.8719630 127.7352690
 146.6321900   4.3317250 127.5751410 148.1354270   4.3526240 127.3970450
 147.4497040   4.5400010 131.3731500 147.9675710   3.7368270 131.3188390
 146.9981060   4.4779150 132.2148330 151.3057230   5.8879820 129.4174720
 151.9928360   6.4349030 129.7982310 150.5189650   6.4320550 129.4524330
 150.6084440   2.8925850 129.0300080 151.0647220   3.7031100 129.2560270
 150.2572650   2.5748990 129.8618570 143.8120880  10.7180020 125.4753430
 144.1718520  11.3169360 124.8210700 143.6713220  11.2639910 126.2488460
 143.7962740   8.9834880 139.9495830 143.9053860   8.0429620 139.8091220
 143.1443300   9.2489630 139.3009560 151.7875330   7.2550770 141.3493950
 151.4672200   6.5360010 141.8939640 151.1133690   7.9305840 141.4230010
 149.8289500   8.1011220 126.2927100 149.8199600   8.8340910 125.6771610
 148.9087860   7.8542800 126.3854060 145.4296140   3.3226110 127.0373860
 144.8224090   4.0625010 127.0469160 145.9045490   3.4125470 126.2112060
 151.4567210  10.6825780 129.6499960 151.7108710  10.6447170 128.7279330
 150.5079690  10.5559110 129.6428210 147.4401430   3.2837260 124.7862430
 148.2064700   3.1718620 125.3487860 147.5176120   2.5875230 124.1339200
 146.9362900  10.8657720 132.5729860 147.6725380  10.3173180 132.8438430
 147.3203820  11.7313730 132.4335850 143.8208380   6.9331290 128.4471370
 142.8948160   7.1752430 128.4376780 144.2864810   7.7605550 128.3256120
 145.9421180  10.0503790 141.7615440 146.7433910  10.3715840 142.1750840
 145.4273000   9.6899370 142.4835350 150.0465210  10.0388030 124.3955430
 150.8393820  10.3276860 123.9437220 149.5269560   9.6080200 123.7167910
 143.6618990   2.5377250 140.7051490 144.1658010   1.9584530 141.2767720
 142.9226410   2.8217480 141.2427860 150.5642610   5.2591440 124.2597780
 150.4593250   4.6443790 124.9859160 150.3966830   4.7357330 123.4760790
 150.7156930   3.9448240 140.2387010 149.9502600   4.5133240 140.1541680
 150.8972890   3.6524450 139.3455240 149.4720460   3.2802390 126.7605070
 149.8936880   3.1142260 127.6036460 149.5971300   2.4702620 126.2660210
 151.2941170   3.6788880 137.3013170 151.7129280   4.5221610 137.1289410
 150.3749800   3.8160920 137.0719950 149.1448590   9.9841890 138.4170900
 148.6069680  10.7087950 138.0979600 149.3982550   9.5072230 137.6268240
 152.0010800  11.2193100 138.6757550 151.9269500  12.1228240 138.9829920
 151.0989640  10.9005000 138.6479620 146.1892290   5.7578660 124.5270910
 146.6267160   6.3008330 125.1828490 146.6740020   4.9325610 124.5367250
 143.4038090   8.5467690 131.9791170 143.7341100   7.6788750 131.7469810
 143.8329090   8.7526210 132.8096130 148.0000010   6.8776700 129.6393140
 147.6995550   6.7541670 130.5397050 147.8937500   6.0185290 129.2308870
 143.8928300   9.4138280 134.7172800 143.4559290   9.5939080 135.5496950
 144.4605980  10.1712900 134.5754520 143.7252730   1.9258510 131.0761680
 143.0701570   1.6570150 130.4321380 144.5630680   1.8162990 130.6263660
 146.1780740   6.8243770 140.7785170 146.1350370   6.4536680 141.6599630
 146.3091750   7.7621340 140.9186990 149.8786770   8.3803360 136.3794890
 149.6378130   8.6477920 135.4925410 150.8189410   8.5509090 136.4345750
 146.0168770   9.7706020 137.8982950 145.4229090   9.6390720 138.6372990
 146.0092610   8.9344160 137.4325050 145.6481000   7.1364400 136.8490990
 144.9215060   6.5169690 136.7816940 145.7090150   7.5305010 135.9789070
 149.2526100   9.3509400 133.6340400 149.7691120   8.7396760 133.1088660
 149.9023480   9.8538180 134.1251410 151.9921600  10.2417890 134.4609380
 152.2799410   9.9872190 133.5842390 152.5044820   9.6895250 135.0514950
 143.9311000  10.4538790 130.0587750 143.7633040   9.8209470 130.7569640
 143.0645510  10.6598190 129.7081940 145.5373700   9.1472020 127.5037890
 145.0121320   9.5280050 126.7999850 145.4618280   9.7722790 128.2247600
 148.1366670  11.0954400 126.3787140 148.8685490  10.8113680 125.8311030
 148.3960340  10.8567680 127.2686520 147.2981460   7.2119130 126.3833470
 146.6690340   7.6804230 126.9319300 147.4129290   6.3668350 126.8179660
 146.9015050   3.3523620 115.2919700 146.0699930   3.0972330 115.6916210
 147.5096030   3.4234390 116.0277620 146.8816310   7.3863710 115.4877720
 147.1844350   6.4961450 115.3087940 147.6259900   7.9433930 115.2599970
 148.8615070   4.1437120 116.8862570 148.5284450   4.7706040 117.5283640
 149.0381750   4.6699000 116.1064240 148.0734170   6.1117920 118.7011750
 148.6908170   6.7869000 118.4196200 147.2127290   6.5205900 118.6099250
 143.3666510   5.3017780 107.5818600 142.9894490   5.7904880 106.8503500
 143.6239580   5.9743060 108.2125130 149.4374540   5.9815300 114.7223170
 149.1402830   5.3760770 114.0430950 150.3874360   6.0192610 114.6112530
 148.5292970   5.7196990 121.3730970 147.6321500   5.9436960 121.6204370
 148.5545840   5.8431930 120.4242370 147.3564190   2.5910310 119.9488340
 147.2171960   3.4633110 120.3175740 146.4745550   2.2483120 119.8036280
 149.1544540   8.5332010 122.1573490 149.1259970   8.9374960 121.2901920
 148.9909510   7.6042370 121.9945090 143.3082840   4.3607860 115.8659250
 143.3863260   4.4956630 114.9214970 143.9224520   3.6523750 116.0587370
 144.5530470   6.0608050 112.2765430 144.1458550   6.2022640 111.4219030
 145.4443480   5.7768210 112.0736640 148.8252130  10.2753830 110.3888100
 148.6494610   9.3589370 110.1755900 147.9707870  10.6341120 110.6285900
 143.3642360   5.4022030 118.4053710 143.5273400   4.9327390 117.5873080
 143.8294810   4.8945590 119.0702550 144.9381340   4.7773460 120.5649520
 144.5536130   4.1367130 121.1632480 145.2493530   5.4809580 121.1344250
 147.4059640   4.8719630 108.9609200 146.6321900   4.3317250 108.8007920
 148.1354270   4.3526240 108.6226960 147.4497040   4.5400010 112.5988010
 147.9675710   3.7368270 112.5444900 146.9981060   4.4779150 113.4404840
 151.3057230   5.8879820 110.6431230 151.9928360   6.4349030 111.0238820
 150.5189650   6.4320550 110.6780840 150.6084440   2.8925850 110.2556590
 151.0647220   3.7031100 110.4816780 150.2572650   2.5748990 111.0875080
 143.8120880  10.7180020 106.7009940 144.1718520  11.3169360 106.0467210
 143.6713220  11.2639910 107.4744970 143.7962740   8.9834880 121.1752340
 143.9053860   8.0429620 121.0347730 143.1443300   9.2489630 120.5266070
 151.7875330   7.2550770 122.5750460 151.4672200   6.5360010 123.1196150
 151.1133690   7.9305840 122.6486520 149.8289500   8.1011220 107.5183610
 149.8199600   8.8340910 106.9028120 148.9087860   7.8542800 107.6110570
 145.4296140   3.3226110 108.2630370 144.8224090   4.0625010 108.2725670
 145.9045490   3.4125470 107.4368570 151.4567210  10.6825780 110.8756470
 151.7108710  10.6447170 109.9535840 150.5079690  10.5559110 110.8684720
 147.4401430   3.2837260 106.0118940 148.2064700   3.1718620 106.5744370
 147.5176120   2.5875230 105.3595710 146.9362900  10.8657720 113.7986370
 147.6725380  10.3173180 114.0694940 147.3203820  11.7313730 113.6592360
 143.8208380   6.9331290 109.6727880 142.8948160   7.1752430 109.6633290
 144.2864810   7.7605550 109.5512630 145.9421180  10.0503790 122.9871950
 146.7433910  10.3715840 123.4007350 145.4273000   9.6899370 123.7091860
 150.0465210  10.0388030 105.6211940 150.8393820  10.3276860 105.1693730
 149.5269560   9.6080200 104.9424420 143.6618990   2.5377250 121.9308000
 144.1658010   1.9584530 122.5024230 142.9226410   2.8217480 122.4684370
 150.5642610   5.2591440 105.4854290 150.4593250   4.6443790 106.2115670
 150.3966830   4.7357330 104.7017300 150.7156930   3.9448240 121.4643520
 149.9502600   4.5133240 121.3798190 150.8972890   3.6524450 120.5711750
 149.4720460   3.2802390 107.9861580 149.8936880   3.1142260 108.8292970
 149.5971300   2.4702620 107.4916720 151.2941170   3.6788880 118.5269680
 151.7129280   4.5221610 118.3545920 150.3749800   3.8160920 118.2976460
 149.1448590   9.9841890 119.6427410 148.6069680  10.7087950 119.3236110
 149.3982550   9.5072230 118.8524750 152.0010800  11.2193100 119.9014060
 151.9269500  12.1228240 120.2086430 151.0989640  10.9005000 119.8736130
 146.1892290   5.7578660 105.7527420 146.6267160   6.3008330 106.4085000
 146.6740020   4.9325610 105.7623760 143.4038090   8.5467690 113.2047680
 143.7341100   7.6788750 112.9726320 143.8329090   8.7526210 114.0352640
 148.0000010   6.8776700 110.8649650 147.6995550   6.7541670 111.7653560
 147.8937500   6.0185290 110.4565380 143.8928300   9.4138280 115.9429310
 143.4559290   9.5939080 116.7753460 144.4605980  10.1712900 115.8011030
 143.7252730   1.9258510 112.3018190 143.0701570   1.6570150 111.6577890
 144.5630680   1.8162990 111.8520170 146.1780740   6.8243770 122.0041680
 146.1350370   6.4536680 122.8856140 146.3091750   7.7621340 122.1443500
 149.8786770   8.3803360 117.6051400 149.6378130   8.6477920 116.7181920
 150.8189410   8.5509090 117.6602260 146.0168770   9.7706020 119.1239460
 145.4229090   9.6390720 119.8629500 146.0092610   8.9344160 118.6581560
 145.6481000   7.1364400 118.0747500 144.9215060   6.5169690 118.0073450
 145.7090150   7.5305010 117.2045580 149.2526100   9.3509400 114.8596910
 149.7691120   8.7396760 114.3345170 149.9023480   9.8538180 115.3507920
 151.9921600  10.2417890 115.6865890 152.2799410   9.9872190 114.8098900
 152.5044820   9.6895250 116.2771460 143.9311000  10.4538790 111.2844260
 143.7633040   9.8209470 111.9826150 143.0645510  10.6598190 110.9338450
 145.5373700   9.1472020 108.7294400 145.0121320   9.5280050 108.0256360
 145.4618280   9.7722790 109.4504110 148.1366670  11.0954400 107.6043650
 148.8685490  10.8113680 107.0567540 148.3960340  10.8567680 108.4943030
 147.2981460   7.2119130 107.6089980 146.6690340   7.6804230 108.1575810
 147.4129290   6.3668350 108.0436170 146.9015050   3.3523620  96.5176210
 146.0699930   3.0972330  96.9172720 147.5096030   3.4234390  97.2534130
 146.8816310   7.3863710  96.7134230 147.1844350   6.4961450  96.5344450
 147.6259900   7.9433930  96.4856480 148.8615070   4.1437120  98.1119080
 148.5284450   4.7706040  98.7540150 149.0381750   4.6699000  97.3320750
 148.0734170   6.1117920  99.9268260 148.6908170   6.7869000  99.6452710
 147.2127290   6.5205900  99.8355760 143.3666510   5.3017780  88.8075110
 142.9894490   5.7904880  88.0760010 143.6239580   5.9743060  89.4381640
 149.4374540   5.9815300  95.9479680 149.1402830   5.3760770  95.2687460
 150.3874360   6.0192610  95.8369040 148.5292970   5.7196990 102.5987480
 147.6321500   5.9436960 102.8460880 148.5545840   5.8431930 101.6498880
 147.3564190   2.5910310 101.1744850 147.2171960   3.4633110 101.5432250
 146.4745550   2.2483120 101.0292790 149.1544540   8.5332010 103.3830000
 149.1259970   8.9374960 102.5158430 148.9909510   7.6042370 103.2201600
 143.3082840   4.3607860  97.0915760 143.3863260   4.4956630  96.1471480
 143.9224520   3.6523750  97.2843880 144.5530470   6.0608050  93.5021940
 144.1458550   6.2022640  92.6475540 145.4443480   5.7768210  93.2993150
 148.8252130  10.2753830  91.6144610 148.6494610   9.3589370  91.4012410
 147.9707870  10.6341120  91.8542410 143.3642360   5.4022030  99.6310220
 143.5273400   4.9327390  98.8129590 143.8294810   4.8945590 100.2959060
 144.9381340   4.7773460 101.7906030 144.5536130   4.1367130 102.3888990
 145.2493530   5.4809580 102.3600760 147.4059640   4.8719630  90.1865710
 146.6321900   4.3317250  90.0264430 148.1354270   4.3526240  89.8483470
 147.4497040   4.5400010  93.8244520 147.9675710   3.7368270  93.7701410
 146.9981060   4.4779150  94.6661350 151.3057230   5.8879820  91.8687740
 151.9928360   6.4349030  92.2495330 150.5189650   6.4320550  91.9037350
 150.6084440   2.8925850  91.4813100 151.0647220   3.7031100  91.7073290
 150.2572650   2.5748990  92.3131590 143.8120880  10.7180020  87.9266450
 144.1718520  11.3169360  87.2723720 143.6713220  11.2639910  88.7001480
 143.7962740   8.9834880 102.4008850 143.9053860   8.0429620 102.2604240
 143.1443300   9.2489630 101.7522580 151.7875330   7.2550770 103.8006970
 151.4672200   6.5360010 104.3452660 151.1133690   7.9305840 103.8743030
 149.8289500   8.1011220  88.7440120 149.8199600   8.8340910  88.1284630
 148.9087860   7.8542800  88.8367080 145.4296140   3.3226110  89.4886880
 144.8224090   4.0625010  89.4982180 145.9045490   3.4125470  88.6625080
 151.4567210  10.6825780  92.1012980 151.7108710  10.6447170  91.1792350
 150.5079690  10.5559110  92.0941230 147.4401430   3.2837260  87.2375450
 148.2064700   3.1718620  87.8000880 147.5176120   2.5875230  86.5852220
 146.9362900  10.8657720  95.0242880 147.6725380  10.3173180  95.2951450
 147.3203820  11.7313730  94.8848870 143.8208380   6.9331290  90.8984390
 142.8948160   7.1752430  90.8889800 144.2864810   7.7605550  90.7769140
 145.9421180  10.0503790 104.2128460 146.7433910  10.3715840 104.6263860
 145.4273000   9.6899370 104.9348370 150.0465210  10.0388030  86.8468450
 150.8393820  10.3276860  86.3950240 149.5269560   9.6080200  86.1680930
 143.6618990   2.5377250 103.1564510 144.1658010   1.9584530 103.7280740
 142.9226410   2.8217480 103.6940880 150.5642610   5.2591440  86.7110800
 150.4593250   4.6443790  87.4372180 150.3966830   4.7357330  85.9273810
 150.7156930   3.9448240 102.6900030 149.9502600   4.5133240 102.6054700
 150.8972890   3.6524450 101.7968260 149.4720460   3.2802390  89.2118090
 149.8936880   3.1142260  90.0549480 149.5971300   2.4702620  88.7173230
 151.2941170   3.6788880  99.7526190 151.7129280   4.5221610  99.5802430
 150.3749800   3.8160920  99.5232970 149.1448590   9.9841890 100.8683920
 148.6069680  10.7087950 100.5492620 149.3982550   9.5072230 100.0781260
 152.0010800  11.2193100 101.1270570 151.9269500  12.1228240 101.4342940
 151.0989640  10.9005000 101.0992640 146.1892290   5.7578660  86.9783930
 146.6267160   6.3008330  87.6341510 146.6740020   4.9325610  86.9880270
 143.4038090   8.5467690  94.4304190 143.7341100   7.6788750  94.1982830
 143.8329090   8.7526210  95.2609150 148.0000010   6.8776700  92.0906160
 147.6995550   6.7541670  92.9910070 147.8937500   6.0185290  91.6821890
 143.8928300   9.4138280  97.1685820 143.4559290   9.5939080  98.0009970
 144.4605980  10.1712900  97.0267540 143.7252730   1.9258510  93.5274700
 143.0701570   1.6570150  92.8834400 144.5630680   1.8162990  93.0776680
 146.1780740   6.8243770 103.2298190 146.1350370   6.4536680 104.1112650
 146.3091750   7.7621340 103.3700010 149.8786770   8.3803360  98.8307910
 149.6378130   8.6477920  97.9438430 150.8189410   8.5509090  98.8858770
 146.0168770   9.7706020 100.3495970 145.4229090   9.6390720 101.0886010
 146.0092610   8.9344160  99.8838070 145.6481000   7.1364400  99.3004010
 144.9215060   6.5169690  99.2329960 145.7090150   7.5305010  98.4302090
 149.2526100   9.3509400  96.0853420 149.7691120   8.7396760  95.5601680
 149.9023480   9.8538180  96.5764430 151.9921600  10.2417890  96.9122400
 152.2799410   9.9872190  96.0355410 152.5044820   9.6895250  97.5027970
 143.9311000  10.4538790  92.5100770 143.7633040   9.8209470  93.2082660
 143.0645510  10.6598190  92.1594960 145.5373700   9.1472020  89.9550910
 145.0121320   9.5280050  89.2512870 145.4618280   9.7722790  90.6760620
 148.1366670  11.0954400  88.8300160 148.8685490  10.8113680  88.2824050
 148.3960340  10.8567680  89.7199540 147.2981460   7.2119130  88.8346490
 146.6690340   7.6804230  89.3832320 147.4129290   6.3668350  89.2692680
 146.9015050   3.3523620  77.7432720 146.0699930   3.0972330  78.1429230
 147.5096030   3.4234390  78.4790640 146.8816310   7.3863710  77.9390740
 147.1844350   6.4961450  77.7600960 147.6259900   7.9433930  77.7112990
 148.8615070   4.1437120  79.3375590 148.5284450   4.7706040  79.9796660
 149.0381750   4.6699000  78.5577260 148.0734170   6.1117920  81.1524770
 148.6908170   6.7869000  80.8709220 147.2127290   6.5205900  81.0612270
 143.3666510   5.3017780  70.0331620 142.9894490   5.7904880  69.3016520
 143.6239580   5.9743060  70.6638150 149.4374540   5.9815300  77.1736190
 149.1402830   5.3760770  76.4943970 150.3874360   6.0192610  77.0625550
 148.5292970   5.7196990  83.8243990 147.6321500   5.9436960  84.0717390
 148.5545840   5.8431930  82.8755390 147.3564190   2.5910310  82.4001360
 147.2171960   3.4633110  82.7688760 146.4745550   2.2483120  82.2549300
 149.1544540   8.5332010  84.6086510 149.1259970   8.9374960  83.7414940
 148.9909510   7.6042370  84.4458110 143.3082840   4.3607860  78.3172270
 143.3863260   4.4956630  77.3727990 143.9224520   3.6523750  78.5100390
 144.5530470   6.0608050  74.7278450 144.1458550   6.2022640  73.8732050
 145.4443480   5.7768210  74.5249660 148.8252130  10.2753830  72.8401120
 148.6494610   9.3589370  72.6268920 147.9707870  10.6341120  73.0798920
 143.3642360   5.4022030  80.8566730 143.5273400   4.9327390  80.0386100
 143.8294810   4.8945590  81.5215570 144.9381340   4.7773460  83.0162540
 144.5536130   4.1367130  83.6145500 145.2493530   5.4809580  83.5857270
 147.4059640   4.8719630  71.4122220 146.6321900   4.3317250  71.2520940
 148.1354270   4.3526240  71.0739980 147.4497040   4.5400010  75.0501030
 147.9675710   3.7368270  74.9957920 146.9981060   4.4779150  75.8917860
 151.3057230   5.8879820  73.0944250 151.9928360   6.4349030  73.4751840
 150.5189650   6.4320550  73.1293860 150.6084440   2.8925850  72.7069610
 151.0647220   3.7031100  72.9329800 150.2572650   2.5748990  73.5388100
 143.8120880  10.7180020  69.1522960 144.1718520  11.3169360  68.4980230
 143.6713220  11.2639910  69.9257990 143.7962740   8.9834880  83.6265360
 143.9053860   8.0429620  83.4860750 143.1443300   9.2489630  82.9779090
 151.7875330   7.2550770  85.0263480 151.4672200   6.5360010  85.5709170
 151.1133690   7.9305840  85.0999540 149.8289500   8.1011220  69.9696630
 149.8199600   8.8340910  69.3541140 148.9087860   7.8542800  70.0623590
 145.4296140   3.3226110  70.7143390 144.8224090   4.0625010  70.7238690
 145.9045490   3.4125470  69.8881590 151.4567210  10.6825780  73.3269490
 151.7108710  10.6447170  72.4048860 150.5079690  10.5559110  73.3197740
 147.4401430   3.2837260  68.4631960 148.2064700   3.1718620  69.0257390
 147.5176120   2.5875230  67.8108730 146.9362900  10.8657720  76.2499390
 147.6725380  10.3173180  76.5207960 147.3203820  11.7313730  76.1105380
 143.8208380   6.9331290  72.1240900 142.8948160   7.1752430  72.1146310
 144.2864810   7.7605550  72.0025650 145.9421180  10.0503790  85.4384970
 146.7433910  10.3715840  85.8520370 145.4273000   9.6899370  86.1604880
 150.0465210  10.0388030  68.0724960 150.8393820  10.3276860  67.6206750
 149.5269560   9.6080200  67.3937440 143.6618990   2.5377250  84.3821020
 144.1658010   1.9584530  84.9537250 142.9226410   2.8217480  84.9197390
 150.5642610   5.2591440  67.9367310 150.4593250   4.6443790  68.6628690
 150.3966830   4.7357330  67.1530320 150.7156930   3.9448240  83.9156540
 149.9502600   4.5133240  83.8311210 150.8972890   3.6524450  83.0224770
 149.4720460   3.2802390  70.4374600 149.8936880   3.1142260  71.2805990
 149.5971300   2.4702620  69.9429740 151.2941170   3.6788880  80.9782700
 151.7129280   4.5221610  80.8058940 150.3749800   3.8160920  80.7489480
 149.1448590   9.9841890  82.0940430 148.6069680  10.7087950  81.7749130
 149.3982550   9.5072230  81.3037770 152.0010800  11.2193100  82.3527080
 151.9269500  12.1228240  82.6599450 151.0989640  10.9005000  82.3249150
 146.1892290   5.7578660  68.2040440 146.6267160   6.3008330  68.8598020
 146.6740020   4.9325610  68.2136780 143.4038090   8.5467690  75.6560700
 143.7341100   7.6788750  75.4239340 143.8329090   8.7526210  76.4865660
 148.0000010   6.8776700  73.3162670 147.6995550   6.7541670  74.2166580
 147.8937500   6.0185290  72.9078400 143.8928300   9.4138280  78.3942330
 143.4559290   9.5939080  79.2266480 144.4605980  10.1712900  78.2524050
 143.7252730   1.9258510  74.7531210 143.0701570   1.6570150  74.1090910
 144.5630680   1.8162990  74.3033190 146.1780740   6.8243770  84.4554700
 146.1350370   6.4536680  85.3369160 146.3091750   7.7621340  84.5956520
 149.8786770   8.3803360  80.0564420 149.6378130   8.6477920  79.1694940
 150.8189410   8.5509090  80.1115280 146.0168770   9.7706020  81.5752480
 145.4229090   9.6390720  82.3142520 146.0092610   8.9344160  81.1094580
 145.6481000   7.1364400  80.5260520 144.9215060   6.5169690  80.4586470
 145.7090150   7.5305010  79.6558600 149.2526100   9.3509400  77.3109930
 149.7691120   8.7396760  76.7858190 149.9023480   9.8538180  77.8020940
 151.9921600  10.2417890  78.1378910 152.2799410   9.9872190  77.2611920
 152.5044820   9.6895250  78.7284480 143.9311000  10.4538790  73.7357280
 143.7633040   9.8209470  74.4339170 143.0645510  10.6598190  73.3851470
 145.5373700   9.1472020  71.1807420 145.0121320   9.5280050  70.4769380
 145.4618280   9.7722790  71.9017130 148.1366670  11.0954400  70.0556670
 148.8685490  10.8113680  69.5080560 148.3960340  10.8567680  70.9456050
 147.2981460   7.2119130  70.0603000 146.6690340   7.6804230  70.6088830
 147.4129290   6.3668350  70.4949190 146.9015050   3.3523620  58.9689230
 146.0699930   3.0972330  59.3685740 147.5096030   3.4234390  59.7047150
 146.8816310   7.3863710  59.1647250 147.1844350   6.4961450  58.9857470
 147.6259900   7.9433930  58.9369500 148.8615070   4.1437120  60.5632100
 148.5284450   4.7706040  61.2053170 149.0381750   4.6699000  59.7833770
 148.0734170   6.1117920  62.3781280 148.6908170   6.7869000  62.0965730
 147.2127290   6.5205900  62.2868780 143.3666510   5.3017780  51.2588130
 142.9894490   5.7904880  50.5273030 143.6239580   5.9743060  51.8894660
 149.4374540   5.9815300  58.3992700 149.1402830   5.3760770  57.7200480
 150.3874360   6.0192610  58.2882060 148.5292970   5.7196990  65.0500500
 147.6321500   5.9436960  65.2973900 148.5545840   5.8431930  64.1011900
 147.3564190   2.5910310  63.6257870 147.2171960   3.4633110  63.9945270
 146.4745550   2.2483120  63.4805810 149.1544540   8.5332010  65.8343020
 149.1259970   8.9374960  64.9671450 148.9909510   7.6042370  65.6714620
 143.3082840   4.3607860  59.5428780 143.3863260   4.4956630  58.5984500
 143.9224520   3.6523750  59.7356900 144.5530470   6.0608050  55.9534960
 144.1458550   6.2022640  55.0988560 145.4443480   5.7768210  55.7506170
 148.8252130  10.2753830  54.0657630 148.6494610   9.3589370  53.8525430
 147.9707870  10.6341120  54.3055430 143.3642360   5.4022030  62.0823240
 143.5273400   4.9327390  61.2642610 143.8294810   4.8945590  62.7472080
 144.9381340   4.7773460  64.2419050 144.5536130   4.1367130  64.8402010
 145.2493530   5.4809580  64.8113780 147.4059640   4.8719630  52.6378730
 146.6321900   4.3317250  52.4777450 148.1354270   4.3526240  52.2996490
 147.4497040   4.5400010  56.2757540 147.9675710   3.7368270  56.2214430
 146.9981060   4.4779150  57.1174370 151.3057230   5.8879820  54.3200760
 151.9928360   6.4349030  54.7008350 150.5189650   6.4320550  54.3550370
 150.6084440   2.8925850  53.9326120 151.0647220   3.7031100  54.1586310
 150.2572650   2.5748990  54.7644610 143.8120880  10.7180020  50.3779470
 144.1718520  11.3169360  49.7236740 143.6713220  11.2639910  51.1514500
 143.7962740   8.9834880  64.8521870 143.9053860   8.0429620  64.7117260
 143.1443300   9.2489630  64.2035600 151.7875330   7.2550770  66.2519990
 151.4672200   6.5360010  66.7965680 151.1133690   7.9305840  66.3256050
 149.8289500   8.1011220  51.1953140 149.8199600   8.8340910  50.5797650
 148.9087860   7.8542800  51.2880100 145.4296140   3.3226110  51.9399900
 144.8224090   4.0625010  51.9495200 145.9045490   3.4125470  51.1138100
 151.4567210  10.6825780  54.5526000 151.7108710  10.6447170  53.6305370
 150.5079690  10.5559110  54.5454250 147.4401430   3.2837260  49.6888470
 148.2064700   3.1718620  50.2513900 147.5176120   2.5875230  49.0365240
 146.9362900  10.8657720  57.4755900 147.6725380  10.3173180  57.7464470
 147.3203820  11.7313730  57.3361890 143.8208380   6.9331290  53.3497410
 142.8948160   7.1752430  53.3402820 144.2864810   7.7605550  53.2282160
 145.9421180  10.0503790  66.6641480 146.7433910  10.3715840  67.0776880
 145.4273000   9.6899370  67.3861390 150.0465210  10.0388030  49.2981470
 150.8393820  10.3276860  48.8463260 149.5269560   9.6080200  48.6193950
 143.6618990   2.5377250  65.6077530 144.1658010   1.9584530  66.1793760
 142.9226410   2.8217480  66.1453900 150.5642610   5.2591440  49.1623820
 150.4593250   4.6443790  49.8885200 150.3966830   4.7357330  48.3786830
 150.7156930   3.9448240  65.1413050 149.9502600   4.5133240  65.0567720
 150.8972890   3.6524450  64.2481280 149.4720460   3.2802390  51.6631110
 149.8936880   3.1142260  52.5062500 149.5971300   2.4702620  51.1686250
 151.2941170   3.6788880  62.2039210 151.7129280   4.5221610  62.0315450
 150.3749800   3.8160920  61.9745990 149.1448590   9.9841890  63.3196940
 148.6069680  10.7087950  63.0005640 149.3982550   9.5072230  62.5294280
 152.0010800  11.2193100  63.5783590 151.9269500  12.1228240  63.8855960
 151.0989640  10.9005000  63.5505660 146.1892290   5.7578660  49.4296950
 146.6267160   6.3008330  50.0854530 146.6740020   4.9325610  49.4393290
 143.4038090   8.5467690  56.8817210 143.7341100   7.6788750  56.6495850
 143.8329090   8.7526210  57.7122170 148.0000010   6.8776700  54.5419180
 147.6995550   6.7541670  55.4423090 147.8937500   6.0185290  54.1334910
 143.8928300   9.4138280  59.6198840 143.4559290   9.5939080  60.4522990
 144.4605980  10.1712900  59.4780560 143.7252730   1.9258510  55.9787720
 143.0701570   1.6570150  55.3347420 144.5630680   1.8162990  55.5289700
 146.1780740   6.8243770  65.6811210 146.1350370   6.4536680  66.5625670
 146.3091750   7.7621340  65.8213030 149.8786770   8.3803360  61.2820930
 149.6378130   8.6477920  60.3951450 150.8189410   8.5509090  61.3371790
 146.0168770   9.7706020  62.8008990 145.4229090   9.6390720  63.5399030
 146.0092610   8.9344160  62.3351090 145.6481000   7.1364400  61.7517030
 144.9215060   6.5169690  61.6842980 145.7090150   7.5305010  60.8815110
 149.2526100   9.3509400  58.5366440 149.7691120   8.7396760  58.0114700
 149.9023480   9.8538180  59.0277450 151.9921600  10.2417890  59.3635420
 152.2799410   9.9872190  58.4868430 152.5044820   9.6895250  59.9540990
 143.9311000  10.4538790  54.9613790 143.7633040   9.8209470  55.6595680
 143.0645510  10.6598190  54.6107980 145.5373700   9.1472020  52.4063930
 145.0121320   9.5280050  51.7025890 145.4618280   9.7722790  53.1273640
 148.1366670  11.0954400  51.2813180 148.8685490  10.8113680  50.7337070
 148.3960340  10.8567680  52.1712560 147.2981460   7.2119130  51.2859510
 146.6690340   7.6804230  51.8345340 147.4129290   6.3668350  51.7205700
 146.9015050   3.3523620  40.1945740 146.0699930   3.0972330  40.5942250
 147.5096030   3.4234390  40.9303660 146.8816310   7.3863710  40.3903760
 147.1844350   6.4961450  40.2113980 147.6259900   7.9433930  40.1626010
 148.8615070   4.1437120  41.7888610 148.5284450   4.7706040  42.4309680
 149.0381750   4.6699000  41.0090280 148.0734170   6.1117920  43.6037790
 148.6908170   6.7869000  43.3222240 147.2127290   6.5205900  43.5125290
 143.3666510   5.3017780  32.4844640 142.9894490   5.7904880  31.7529540
 143.6239580   5.9743060  33.1151170 149.4374540   5.9815300  39.6249210
 149.1402830   5.3760770  38.9456990 150.3874360   6.0192610  39.5138570
 148.5292970   5.7196990  46.2757010 147.6321500   5.9436960  46.5230410
 148.5545840   5.8431930  45.3268410 147.3564190   2.5910310  44.8514380
 147.2171960   3.4633110  45.2201780 146.4745550   2.2483120  44.7062320
 149.1544540   8.5332010  47.0599530 149.1259970   8.9374960  46.1927960
 148.9909510   7.6042370  46.8971130 143.3082840   4.3607860  40.7685290
 143.3863260   4.4956630  39.8241010 143.9224520   3.6523750  40.9613410
 144.5530470   6.0608050  37.1791470 144.1458550   6.2022640  36.3245070
 145.4443480   5.7768210  36.9762680 148.8252130  10.2753830  35.2914140
 148.6494610   9.3589370  35.0781940 147.9707870  10.6341120  35.5311940
 143.3642360   5.4022030  43.3079750 143.5273400   4.9327390  42.4899120
 143.8294810   4.8945590  43.9728590 144.9381340   4.7773460  45.4675560
 144.5536130   4.1367130  46.0658520 145.2493530   5.4809580  46.0370290
 147.4059640   4.8719630  33.8635240 146.6321900   4.3317250  33.7033960
 148.1354270   4.3526240  33.5253000 147.4497040   4.5400010  37.5014050
 147.9675710   3.7368270  37.4470940 146.9981060   4.4779150  38.3430880
 151.3057230   5.8879820  35.5457270 151.9928360   6.4349030  35.9264860
 150.5189650   6.4320550  35.5806880 150.6084440   2.8925850  35.1582630
 151.0647220   3.7031100  35.3842820 150.2572650   2.5748990  35.9901120
 143.8120880  10.7180020  31.6035980 144.1718520  11.3169360  30.9493250
 143.6713220  11.2639910  32.3771010 143.7962740   8.9834880  46.0778380
 143.9053860   8.0429620  45.9373770 143.1443300   9.2489630  45.4292110
 151.7875330   7.2550770  47.4776500 151.4672200   6.5360010  48.0222190
 151.1133690   7.9305840  47.5512560 149.8289500   8.1011220  32.4209650
 149.8199600   8.8340910  31.8054160 148.9087860   7.8542800  32.5136610
 145.4296140   3.3226110  33.1656410 144.8224090   4.0625010  33.1751710
 145.9045490   3.4125470  32.3394610 151.4567210  10.6825780  35.7782510
 151.7108710  10.6447170  34.8561880 150.5079690  10.5559110  35.7710760
 147.4401430   3.2837260  30.9144980 148.2064700   3.1718620  31.4770410
 147.5176120   2.5875230  30.2621750 146.9362900  10.8657720  38.7012410
 147.6725380  10.3173180  38.9720980 147.3203820  11.7313730  38.5618400
 143.8208380   6.9331290  34.5753920 142.8948160   7.1752430  34.5659330
 144.2864810   7.7605550  34.4538670 145.9421180  10.0503790  47.8897990
 146.7433910  10.3715840  48.3033390 145.4273000   9.6899370  48.6117900
 150.0465210  10.0388030  30.5237980 150.8393820  10.3276860  30.0719770
 149.5269560   9.6080200  29.8450460 143.6618990   2.5377250  46.8334040
 144.1658010   1.9584530  47.4050270 142.9226410   2.8217480  47.3710410
 150.5642610   5.2591440  30.3880330 150.4593250   4.6443790  31.1141710
 150.3966830   4.7357330  29.6043340 150.7156930   3.9448240  46.3669560
 149.9502600   4.5133240  46.2824230 150.8972890   3.6524450  45.4737790
 149.4720460   3.2802390  32.8887620 149.8936880   3.1142260  33.7319010
 149.5971300   2.4702620  32.3942760 151.2941170   3.6788880  43.4295720
 151.7129280   4.5221610  43.2571960 150.3749800   3.8160920  43.2002500
 149.1448590   9.9841890  44.5453450 148.6069680  10.7087950  44.2262150
 149.3982550   9.5072230  43.7550790 152.0010800  11.2193100  44.8040100
 151.9269500  12.1228240  45.1112470 151.0989640  10.9005000  44.7762170
 146.1892290   5.7578660  30.6553460 146.6267160   6.3008330  31.3111040
 146.6740020   4.9325610  30.6649800 143.4038090   8.5467690  38.1073720
 143.7341100   7.6788750  37.8752360 143.8329090   8.7526210  38.9378680
 148.0000010   6.8776700  35.7675690 147.6995550   6.7541670  36.6679600
 147.8937500   6.0185290  35.3591420 143.8928300   9.4138280  40.8455350
 143.4559290   9.5939080  41.6779500 144.4605980  10.1712900  40.7037070
 143.7252730   1.9258510  37.2044230 143.0701570   1.6570150  36.5603930
 144.5630680   1.8162990  36.7546210 146.1780740   6.8243770  46.9067720
 146.1350370   6.4536680  47.7882180 146.3091750   7.7621340  47.0469540
 149.8786770   8.3803360  42.5077440 149.6378130   8.6477920  41.6207960
 150.8189410   8.5509090  42.5628300 146.0168770   9.7706020  44.0265500
 145.4229090   9.6390720  44.7655540 146.0092610   8.9344160  43.5607600
 145.6481000   7.1364400  42.9773540 144.9215060   6.5169690  42.9099490
 145.7090150   7.5305010  42.1071620 149.2526100   9.3509400  39.7622950
 149.7691120   8.7396760  39.2371210 149.9023480   9.8538180  40.2533960
 151.9921600  10.2417890  40.5891930 152.2799410   9.9872190  39.7124940
 152.5044820   9.6895250  41.1797500 143.9311000  10.4538790  36.1870300
 143.7633040   9.8209470  36.8852190 143.0645510  10.6598190  35.8364490
 145.5373700   9.1472020  33.6320440 145.0121320   9.5280050  32.9282400
 145.4618280   9.7722790  34.3530150 148.1366670  11.0954400  32.5069690
 148.8685490  10.8113680  31.9593580 148.3960340  10.8567680  33.3969070
 147.2981460   7.2119130  32.5116020 146.6690340   7.6804230  33.0601850
 147.4129290   6.3668350  32.9462210 146.9015050   3.3523620  21.4202250
 146.0699930   3.0972330  21.8198760 147.5096030   3.4234390  22.1560170
 146.8816310   7.3863710  21.6160270 147.1844350   6.4961450  21.4370490
 147.6259900   7.9433930  21.3882520 148.8615070   4.1437120  23.0145120
 148.5284450   4.7706040  23.6566190 149.0381750   4.6699000  22.2346790
 148.0734170   6.1117920  24.8294300 148.6908170   6.7869000  24.5478750
 147.2127290   6.5205900  24.7381800 143.3666510   5.3017780  13.7101150
 142.9894490   5.7904880  12.9786050 143.6239580   5.9743060  14.3407680
 149.4374540   5.9815300  20.8505720 149.1402830   5.3760770  20.1713500
 150.3874360   6.0192610  20.7395080 148.5292970   5.7196990  27.5013520
 147.6321500   5.9436960  27.7486920 148.5545840   5.8431930  26.5524920
 147.3564190   2.5910310  26.0770890 147.2171960   3.4633110  26.4458290
 146.4745550   2.2483120  25.9318830 149.1544540   8.5332010  28.2856040
 149.1259970   8.9374960  27.4184470 148.9909510   7.6042370  28.1227640
 143.3082840   4.3607860  21.9941800 143.3863260   4.4956630  21.0497520
 143.9224520   3.6523750  22.1869920 144.5530470   6.0608050  18.4047980
 144.1458550   6.2022640  17.5501580 145.4443480   5.7768210  18.2019190
 148.8252130  10.2753830  16.5170650 148.6494610   9.3589370  16.3038450
 147.9707870  10.6341120  16.7568450 143.3642360   5.4022030  24.5336260
 143.5273400   4.9327390  23.7155630 143.8294810   4.8945590  25.1985100
 144.9381340   4.7773460  26.6932070 144.5536130   4.1367130  27.2915030
 145.2493530   5.4809580  27.2626800 147.4059640   4.8719630  15.0891750
 146.6321900   4.3317250  14.9290470 148.1354270   4.3526240  14.7509510
 147.4497040   4.5400010  18.7270560 147.9675710   3.7368270  18.6727450
 146.9981060   4.4779150  19.5687390 151.3057230   5.8879820  16.7713780
 151.9928360   6.4349030  17.1521370 150.5189650   6.4320550  16.8063390
 150.6084440   2.8925850  16.3839140 151.0647220   3.7031100  16.6099330
 150.2572650   2.5748990  17.2157630 143.8120880  10.7180020  12.8292490
 144.1718520  11.3169360  12.1749760 143.6713220  11.2639910  13.6027520
 143.7962740   8.9834880  27.3034890 143.9053860   8.0429620  27.1630280
 143.1443300   9.2489630  26.6548620 151.7875330   7.2550770  28.7033010
 151.4672200   6.5360010  29.2478700 151.1133690   7.9305840  28.7769070
 149.8289500   8.1011220  13.6466160 149.8199600   8.8340910  13.0310670
 148.9087860   7.8542800  13.7393120 145.4296140   3.3226110  14.3912920
 144.8224090   4.0625010  14.4008220 145.9045490   3.4125470  13.5651120
 151.4567210  10.6825780  17.0039020 151.7108710  10.6447170  16.0818390
 150.5079690  10.5559110  16.9967270 147.4401430   3.2837260  12.1401490
 148.2064700   3.1718620  12.7026920 147.5176120   2.5875230  11.4878260
 146.9362900  10.8657720  19.9268920 147.6725380  10.3173180  20.1977490
 147.3203820  11.7313730  19.7874910 143.8208380   6.9331290  15.8010430
 142.8948160   7.1752430  15.7915840 144.2864810   7.7605550  15.6795180
 145.9421180  10.0503790  29.1154500 146.7433910  10.3715840  29.5289900
 145.4273000   9.6899370  29.8374410 150.0465210  10.0388030  11.7494490
 150.8393820  10.3276860  11.2976280 149.5269560   9.6080200  11.0706970
 143.6618990   2.5377250  28.0590550 144.1658010   1.9584530  28.6306780
 142.9226410   2.8217480  28.5966920 150.5642610   5.2591440  11.6136840
 150.4593250   4.6443790  12.3398220 150.3966830   4.7357330  10.8299850
 150.7156930   3.9448240  27.5926070 149.9502600   4.5133240  27.5080740
 150.8972890   3.6524450  26.6994300 149.4720460   3.2802390  14.1144130
 149.8936880   3.1142260  14.9575520 149.5971300   2.4702620  13.6199270
 151.2941170   3.6788880  24.6552230 151.7129280   4.5221610  24.4828470
 150.3749800   3.8160920  24.4259010 149.1448590   9.9841890  25.7709960
 148.6069680  10.7087950  25.4518660 149.3982550   9.5072230  24.9807300
 152.0010800  11.2193100  26.0296610 151.9269500  12.1228240  26.3368980
 151.0989640  10.9005000  26.0018680 146.1892290   5.7578660  11.8809970
 146.6267160   6.3008330  12.5367550 146.6740020   4.9325610  11.8906310
 143.4038090   8.5467690  19.3330230 143.7341100   7.6788750  19.1008870
 143.8329090   8.7526210  20.1635190 148.0000010   6.8776700  16.9932200
 147.6995550   6.7541670  17.8936110 147.8937500   6.0185290  16.5847930
 143.8928300   9.4138280  22.0711860 143.4559290   9.5939080  22.9036010
 144.4605980  10.1712900  21.9293580 143.7252730   1.9258510  18.4300740
 143.0701570   1.6570150  17.7860440 144.5630680   1.8162990  17.9802720
 146.1780740   6.8243770  28.1324230 146.1350370   6.4536680  29.0138690
 146.3091750   7.7621340  28.2726050 149.8786770   8.3803360  23.7333950
 149.6378130   8.6477920  22.8464470 150.8189410   8.5509090  23.7884810
 146.0168770   9.7706020  25.2522010 145.4229090   9.6390720  25.9912050
 146.0092610   8.9344160  24.7864110 145.6481000   7.1364400  24.2030050
 144.9215060   6.5169690  24.1356000 145.7090150   7.5305010  23.3328130
 149.2526100   9.3509400  20.9879460 149.7691120   8.7396760  20.4627720
 149.9023480   9.8538180  21.4790470 151.9921600  10.2417890  21.8148440
 152.2799410   9.9872190  20.9381450 152.5044820   9.6895250  22.4054010
 143.9311000  10.4538790  17.4126810 143.7633040   9.8209470  18.1108700
 143.0645510  10.6598190  17.0621000 145.5373700   9.1472020  14.8576950
 145.0121320   9.5280050  14.1538910 145.4618280   9.7722790  15.5786660
 148.1366670  11.0954400  13.7326200 148.8685490  10.8113680  13.1850090
 148.3960340  10.8567680  14.6225580 147.2981460   7.2119130  13.7372530
 146.6690340   7.6804230  14.2858360 147.4129290   6.3668350  14.1718720
 146.9015050   3.3523620   2.6458760 146.0699930   3.0972330   3.0455270
 147.5096030   3.4234390   3.3816680 146.8816310   7.3863710   2.8416780
 147.1844350   6.4961450   2.6627000 147.6259900   7.9433930   2.6139030
 148.8615070   4.1437120   4.2401630 148.5284450   4.7706040   4.8822700
 149.0381750   4.6699000   3.4603300 148.0734170   6.1117920   6.0550810
 148.6908170   6.7869000   5.7735260 147.2127290   6.5205900   5.9638310
 148.5292970   5.7196990   8.7270030 147.6321500   5.9436960   8.9743430
 148.5545840   5.8431930   7.7781430 147.3564190   2.5910310   7.3027400
 147.2171960   3.4633110   7.6714800 146.4745550   2.2483120   7.1575340
 149.1544540   8.5332010   9.5112550 149.1259970   8.9374960   8.6440980
 148.9909510   7.6042370   9.3484150 143.3082840   4.3607860   3.2198310
 143.3863260   4.4956630   2.2754030 143.9224520   3.6523750   3.4126430
 143.3642360   5.4022030   5.7592770 143.5273400   4.9327390   4.9412140
 143.8294810   4.8945590   6.4241610 144.9381340   4.7773460   7.9188580
 144.5536130   4.1367130   8.5171540 145.2493530   5.4809580   8.4883310
 143.7962740   8.9834880   8.5291400 143.9053860   8.0429620   8.3886790
 143.1443300   9.2489630   7.8805130 151.7875330   7.2550770   9.9289520
 151.4672200   6.5360010  10.4735210 151.1133690   7.9305840  10.0025580
 145.9421180  10.0503790  10.3411010 146.7433910  10.3715840  10.7546410
 145.4273000   9.6899370  11.0630920 143.6618990   2.5377250   9.2847060
 144.1658010   1.9584530   9.8563290 142.9226410   2.8217480   9.8223430
 150.7156930   3.9448240   8.8182580 149.9502600   4.5133240   8.7337250
 150.8972890   3.6524450   7.9250810 151.2941170   3.6788880   5.8808740
 151.7129280   4.5221610   5.7084980 150.3749800   3.8160920   5.6515520
 149.1448590   9.9841890   6.9966470 148.6069680  10.7087950   6.6775170
 149.3982550   9.5072230   6.2063810 152.0010800  11.2193100   7.2553120
 151.9269500  12.1228240   7.5625490 151.0989640  10.9005000   7.2275190
 143.8928300   9.4138280   3.2968370 143.4559290   9.5939080   4.1292520
 144.4605980  10.1712900   3.1550090 146.1780740   6.8243770   9.3580740
 146.1350370   6.4536680  10.2395200 146.3091750   7.7621340   9.4982560
 149.8786770   8.3803360   4.9590460 149.6378130   8.6477920   4.0720980
 150.8189410   8.5509090   5.0141320 146.0168770   9.7706020   6.4778520
 145.4229090   9.6390720   7.2168560 146.0092610   8.9344160   6.0120620
 145.6481000   7.1364400   5.4286560 144.9215060   6.5169690   5.3612510
 145.7090150   7.5305010   4.5584640 149.2526100   9.3509400   2.2135970
 149.7691120   8.7396760   1.6884230 149.9023480   9.8538180   2.7046980
 151.9921600  10.2417890   3.0404950 152.2799410   9.9872190   2.1637960
 152.5044820   9.6895250   3.6310520 135.9787690 151.4572710 150.0821650
 135.8981740 150.5427320 149.8113360 135.5652110 151.9539780 149.3761360
 126.5363510 148.5073430 146.6249070 125.6480210 148.8489400 146.5228950
 126.8204700 148.3073750 145.7329900 128.7124900 147.0904930 147.6587450
 128.8191650 147.9908660 147.9656210 127.8017260 147.0422900 147.3682100
 138.3644010 146.2129740 149.1298350 139.1853630 145.7226310 149.1723830
 138.3978090 146.8027400 149.8830190 132.2011950 143.8982090 150.5891090
 132.5086930 143.3428980 149.8726590 131.2712650 144.0326550 150.4064080
 134.5761790 148.2347920 144.3218370 133.6365460 148.3961880 144.4070830
 134.8945050 148.9533600 143.7754360 130.1949350 152.4895660 150.1070940
 129.7906350 151.7772910 149.6116840 130.2812470 152.1448900 150.9958980
 140.3771840 144.0180840 143.1500250 140.0644500 144.1107670 144.0499320
 141.1384310 144.5961870 143.0997680 126.8953980 151.3840640 147.6077590
 126.7751580 152.1102730 146.9958860 126.5854870 150.6143550 147.1305500
 129.3617640 144.7275710 150.9901260 128.9185790 145.5085250 150.6585780
 129.9202630 145.0505600 151.6972200 132.4776460 144.3486410 145.8707090
 131.8530640 144.3446280 146.5960400 132.3906580 143.4817370 145.4743060
 129.1531860 149.8509280 148.7182510 128.9272780 149.6346450 149.6229130
 128.3724390 150.2837740 148.3728480 136.3829620 149.8572650 147.3173160
 135.7838510 150.5808450 147.1336780 136.9309230 149.7949430 146.5349610
 134.9894490 148.4936190 149.3476440 135.3824060 148.8108390 148.5345130
 135.3511340 147.6148070 149.4620960 124.2128890 149.0257110 142.7809360
 124.1303560 149.9687870 142.9224350 123.8611950 148.8832020 141.9021710
 127.8629400 147.6422630 150.8073920 127.5229450 148.1197860 151.5640970
 127.1006720 147.1887750 150.4475020 132.0747170 148.7608220 144.8386470
 132.1959990 148.7194700 145.7872290 131.6895680 149.6232370 144.6833200
 131.0868670 151.0709360 144.2369770 130.5185570 150.6227610 143.6105680
 131.7957670 151.4302140 143.7034920 125.1775480 146.5641610 149.7238590
 124.8922400 146.1997280 150.5617210 125.1154340 145.8322070 149.1101730
 134.8514070 145.4570870 146.4451960 134.0378680 144.9584040 146.3697270
 134.6576020 146.2969120 146.0288310 137.5662460 149.8290520 144.7414120
 138.4542080 150.1407750 144.5665460 137.5367550 148.9562770 144.3494700
 139.8376730 151.1402360 144.2093980 139.7540450 151.5716580 143.3590420
 140.5570920 151.6000710 144.6420800 124.6706140 151.7000560 143.6835290
 125.5400990 151.9825360 143.9671210 124.1796460 152.5136430 143.5684100
 127.7352730 143.4311420 148.2766090 127.6067360 143.4229320 149.2251010
 126.9114750 143.7694510 147.9257100 139.5947470 146.6381790 146.2961800
 138.9660630 146.7427460 145.5820030 139.0999390 146.8578570 147.0855680
 131.5631500 148.9167740 147.7119680 130.8547650 149.3854080 148.1533290
 131.8475980 148.2589750 148.3464870 135.5946930 145.6418400 149.1515470
 135.4714710 145.6604530 148.2024980 136.5431490 145.6897340 149.2713870
 129.7666520 147.2252820 145.0870390 130.6157050 147.6622970 145.0210580
 129.3997790 147.5373080 145.9142450 138.6876300 151.7965580 150.0001960
 137.7466440 151.8115810 150.1749650 139.0020370 151.0101540 150.4462260
 127.3604700 150.9110250 144.2438810 127.4408290 149.9637760 144.3556210
 128.2524450 151.2417130 144.3499470 129.5935870 149.5483540 142.4806720
 129.3924930 148.6850900 142.8420060 129.4227920 149.4616900 141.5428320
 137.0724180 144.3591770 145.0093600 137.3526470 143.5159670 145.3653020
 136.2989910 144.5914880 145.5232350 128.3918670 146.6484160 142.4684600
 128.6944570 146.6551590 141.5603750 129.1313260 146.2982020 142.9652260
 131.6103600 145.5918780 143.4540800 131.2625600 144.9142770 142.8743250
 131.8116370 145.1308290 144.2684190 124.9509240 152.1206430 149.8505170
 124.2958080 151.8518070 149.2064870 125.7887190 152.0110910 149.4007150
 137.8999680 146.9147720 144.0723660 138.3184560 146.7278700 143.2320320
 137.5935740 146.0626770 144.3826590 141.3989410 151.8271860 147.7699460
 141.0233010 151.0599790 147.3380750 140.6692530 152.2094560 148.2574390
 124.1647320 149.3305360 145.7930500 123.2611400 149.5935560 145.6182160
 124.6487940 149.6016530 145.0130460 126.7074530 148.3870900 143.7024880
 127.4166230 147.9654120 143.2172160 125.9914470 148.4546130 143.0708230
 126.3548690 144.4410230 142.7427530 127.0776820 144.9819170 143.0608750
 126.6273210 144.1673650 141.8669070 140.1640340 149.3102700 147.0099110
 140.6599460 149.0773570 147.7947990 139.9656410 148.4714540 146.5936750
 141.5927500 147.9463650 149.5436790 141.4826780 147.7919690 150.4819060
 142.3535090 147.4184590 149.3012200 142.4817770 145.7771570 142.7842930
 143.4067080 145.6452750 142.5761220 142.4593560 145.8564390 143.7379380
 142.5556260 146.5482230 145.4099640 141.7607760 146.4827350 145.9392550
 142.7599540 147.4832870 145.3984990 140.8514760 144.5094350 149.8707290
 140.7903160 143.5655570 149.7238310 141.6306790 144.6174440 150.4160750
 125.7795530 144.4803490 146.3363100 126.5374890 144.5932370 145.7627130
 125.3172700 145.3172690 146.2906530 132.3209340 146.5942760 149.3265410
 131.5083850 146.2199650 148.9861290 132.8250980 145.8387840 149.6286600
 136.8234320 143.2585210 150.5648480 137.4263690 143.8305420 151.0397000
 136.0827310 143.8224650 150.3422380 139.9668920 143.6606770 145.8388760
 140.1619550 144.5590220 146.1056190 139.1798790 143.4293850 146.3321710
 128.1520680 145.0067540 144.8765070 128.6813440 144.2197340 144.7473020
 128.7849000 145.6858730 145.1100600 130.3458520 144.7442680 147.9310460
 129.7161260 144.0429990 148.0980590 129.8063660 145.5046810 147.7143620
 135.9787690 151.4572710 131.3078160 135.8981740 150.5427320 131.0369870
 135.5652110 151.9539780 130.6017870 126.5363510 148.5073430 127.8505580
 125.6480210 148.8489400 127.7485460 126.8204700 148.3073750 126.9586410
 124.4996520 151.1079080 133.7345280 125.0712630 150.3401280 133.7348920
 124.4998060 151.4067840 132.8251890 125.7421390 146.5163440 135.5214210
 125.5624230 145.6189190 135.8016970 125.3401470 147.0635310 136.1961160
 134.5819890 148.7179300 133.4226520 134.9584710 147.8451180 133.3100190
 134.4839400 149.0538000 132.5316960 128.7124900 147.0904930 128.8843960
 128.8191650 147.9908660 129.1912720 127.8017260 147.0422900 128.5938610
 138.3644010 146.2129740 130.3554860 139.1853630 145.7226310 130.3980340
 138.3978090 146.8027400 131.1086700 126.3608060 149.0123940 134.1296550
 127.0418170 149.2762310 134.7483950 126.0456110 148.1724810 134.4634560
 130.5532630 150.0591300 133.2169140 131.0610850 150.5572270 133.8574160
 131.0845870 149.2826500 133.0408500 142.6543560 148.2296490 136.9198490
 141.9495730 148.6178200 136.4013600 142.9201480 148.9246780 137.5219420
 128.8368730 144.6989860 137.4832560 128.8387170 145.2162250 136.6778460
 128.0073040 144.2220040 137.4602490 138.6005490 148.1530120 133.1282400
 137.8961060 148.4415010 133.7085510 138.9617650 148.9630230 132.7681960
 128.5184060 146.4099820 135.4903010 128.8600870 147.2541870 135.1956880
 127.5799870 146.5583560 135.6068350 141.6692410 147.5984910 133.5191610
 140.7217320 147.6323890 133.6507040 141.9942400 148.4123860 133.9040970
 132.2011950 143.8982090 131.8147600 132.5086930 143.3428980 131.0983100
 131.2712650 144.0326550 131.6320590 134.5761790 148.2347920 125.5474880
 133.6365460 148.3961880 125.6327340 134.8945050 148.9533600 125.0010870
 138.0616560 149.7035760 136.4708780 137.6487740 150.5289470 136.7248770
 137.3292510 149.1180800 136.2785140 130.1949350 152.4895660 131.3327450
 129.7906350 151.7772910 130.8373350 130.2812470 152.1448900 132.2215490
 128.9077970 149.2638870 135.1126490 129.4592560 149.3734210 134.3379740
 129.4221480 149.6376470 135.8281720 140.3771840 144.0180840 124.3756760
 140.0644500 144.1107670 125.2755830 141.1384310 144.5961870 124.3254190
 126.8953980 151.3840640 128.8334100 126.7751580 152.1102730 128.2215370
 126.5854870 150.6143550 128.3562010 141.5873130 148.7552340 140.3530900
 140.9717400 149.2632010 139.8246360 141.2669550 147.8550670 140.2956840
 129.3617640 144.7275710 132.2157770 128.9185790 145.5085250 131.8842290
 129.9202630 145.0505600 132.9228710 133.6487450 147.5944230 137.8193090
 133.1866820 147.8027250 138.6313030 133.2465560 146.7803580 137.5163760
 138.6491960 148.8153180 138.9489750 137.7985550 148.5158930 139.2698820
 138.4893750 149.0595190 138.0373570 135.7441670 150.3154930 141.0488540
 136.0695080 149.4818680 140.7090770 136.5322000 150.8383450 141.1966870
 132.4776460 144.3486410 127.0963600 131.8530640 144.3446280 127.8216910
 132.3906580 143.4817370 126.6999570 131.3993540 145.2723040 134.0747370
 131.6965870 146.1785870 133.9939390 131.9479100 144.7841820 133.4606940
 129.1531860 149.8509280 129.9439020 128.9272780 149.6346450 130.8485640
 128.3724390 150.2837740 129.5984990 136.3829620 149.8572650 128.5429670
 135.7838510 150.5808450 128.3593290 136.9309230 149.7949430 127.7606120
 131.5931070 150.7494860 140.6099290 131.4974670 149.8089590 140.4599690
 132.4363050 150.9709930 140.2147360 134.9894490 148.4936190 130.5732950
 135.3824060 148.8108390 129.7601640 135.3511340 147.6148070 130.6877470
 126.7241610 147.1608530 138.7633070 126.3305000 148.0083740 138.9705850
 126.0360010 146.5234900 138.9541710 133.2986660 147.2443500 141.8329810
 132.6084980 147.0515700 142.4675900 134.0418960 147.5278140 142.3654110
 124.0258660 145.0836990 132.7963150 123.7371710 145.6539850 133.5088130
 124.7704420 144.6041440 133.1594380 124.2128890 149.0257110 124.0065870
 124.1303560 149.9687870 124.1480860 123.8611950 148.8832020 123.1278220
 135.5749630 151.0841940 134.6683730 134.8430750 151.5928750 135.0173830
 135.1773970 150.2671920 134.3672510 132.0127020 147.7596140 133.0736220
 132.0163080 147.3186090 132.2240760 132.9078140 148.0813470 133.1808040
 127.8629400 147.6422630 132.0330430 127.5229450 148.1197860 132.7897480
 127.1006720 147.1887750 131.6731530 132.0747170 148.7608220 126.0642980
 132.1959990 148.7194700 127.0128800 131.6895680 149.6232370 125.9089710
 136.0375540 146.5375620 134.0806670 136.0548280 146.9884270 134.9248520
 135.7891120 145.6381260 134.2940110 131.0868670 151.0709360 125.4626280
 130.5185570 150.6227610 124.8362190 131.7957670 151.4302140 124.9291430
 139.4646290 143.9507800 139.9193050 139.7892060 143.2197460 140.4451030
 139.5002800 143.6321440 139.0174040 125.1775480 146.5641610 130.9495100
 124.8922400 146.1997280 131.7873720 125.1154340 145.8322070 130.3358240
 130.1034360 150.8606560 137.1385840 129.7991430 151.7398540 137.3636200
 131.0580820 150.9206350 137.1743280 134.8514070 145.4570870 127.6708470
 134.0378680 144.9584040 127.5953780 134.6576020 146.2969120 127.2544820
 137.5662460 149.8290520 125.9670630 138.4542080 150.1407750 125.7921970
 137.5367550 148.9562770 125.5751210 126.1598090 151.7009300 138.2857200
 125.8013030 152.3663150 138.8730540 125.8652650 150.8692850 138.6569820
 129.3611210 152.1593540 141.1696750 129.0611350 152.3050720 140.2724570
 130.1322450 151.5998830 141.0770140 139.8376730 151.1402360 125.4350490
 139.7540450 151.5716580 124.5846930 140.5570920 151.6000710 125.8677310
 124.6706140 151.7000560 124.9091800 125.5400990 151.9825360 125.1927720
 124.1796460 152.5136430 124.7940610 127.7352730 143.4311420 129.5022600
 127.6067360 143.4229320 130.4507520 126.9114750 143.7694510 129.1513610
 124.7346660 145.1902540 138.9629300 124.0205180 145.3899460 139.5681910
 125.1541700 144.4142110 139.3344100 136.2285440 147.6824850 136.7130750
 136.5966260 146.8620060 137.0410320 135.3683640 147.7426740 137.1286400
 139.5947470 146.6381790 127.5218310 138.9660630 146.7427460 126.8076540
 139.0999390 146.8578570 128.3112190 131.5631500 148.9167740 128.9376190
 130.8547650 149.3854080 129.3789800 131.8475980 148.2589750 129.5721380
 133.1887430 150.3364440 136.9368720 133.6872680 150.8110260 137.6020570
 133.3310380 149.4127960 137.1438750 135.5946930 145.6418400 130.3771980
 135.4714710 145.6604530 129.4281490 136.5431490 145.6897340 130.4970380
 129.7666520 147.2252820 126.3126900 130.6157050 147.6622970 126.2467090
 129.3997790 147.5373080 127.1398960 140.3954290 146.5532400 137.7797110
 139.8927890 147.2937800 138.1190920 141.2110950 146.9416400 137.4633900
 138.6876300 151.7965580 131.2258470 137.7466440 151.8115810 131.4006160
 139.0020370 151.0101540 131.6718770 127.3604700 150.9110250 125.4695320
 127.4408290 149.9637760 125.5812720 128.2524450 151.2417130 125.5755980
 126.9198580 150.8754760 141.6001560 126.9603920 150.5768630 142.5086790
 127.7744080 151.2762370 141.4409080 128.8604390 149.4546860 139.5676050
 128.3300850 148.9637810 138.9399390 129.5292460 149.8831060 139.0333980
 138.2304620 151.2612480 141.3356390 138.8125390 150.5064800 141.2476870
 138.4066390 151.7919920 140.5587870 129.3476690 146.4209230 139.6473340
 129.2533560 145.8029980 138.9224210 128.7674080 147.1475520 139.4203250
 132.1138130 144.9782470 136.6800730 131.6655430 145.0006730 135.8346280
 131.4803330 144.5801490 137.2771030 134.8561580 151.6052980 138.6851010
 134.9757790 151.0094120 139.4245850 135.7155580 151.6422670 138.2652310
 129.5935870 149.5483540 123.7063230 129.3924930 148.6850900 124.0676570
 129.4227920 149.4616900 122.7684830 131.6230350 148.1474330 139.9426830
 132.2130040 147.8390180 140.6304650 130.8050590 147.6754080 140.0986730
 136.4423780 147.7640140 140.1759850 135.7539300 147.1021680 140.1109840
 137.1629800 147.3178410 140.6208310 137.0724180 144.3591770 126.2350110
 137.3526470 143.5159670 126.5909530 136.2989910 144.5914880 126.7488860
 128.3918670 146.6484160 123.6941110 128.6944570 146.6551590 122.7860260
 129.1313260 146.2982020 124.1908770 131.6103600 145.5918780 124.6797310
 131.2625600 144.9142770 124.0999760 131.8116370 145.1308290 125.4940700
 124.9509240 152.1206430 131.0761680 124.2958080 151.8518070 130.4321380
 125.7887190 152.0110910 130.6263660 137.8999680 146.9147720 125.2980170
 138.3184560 146.7278700 124.4576830 137.5935740 146.0626770 125.6083100
 141.3989410 151.8271860 128.9955970 141.0233010 151.0599790 128.5637260
 140.6692530 152.2094560 129.4830900 125.9885170 152.5059000 135.6165020
 126.3558210 152.4186400 136.4961040 125.4195990 151.7425550 135.5171880
 140.7889030 150.9743380 138.6295490 140.5575120 150.7456130 137.7293440
 141.0493580 151.8942930 138.5840380 125.5401170 149.4168090 139.5223440
 124.6457220 149.3834850 139.8617150 126.0798720 149.6154880 140.2874690
 139.2277100 146.1999810 141.4075190 140.1047280 146.2083210 141.7909190
 139.2397940 145.4630650 140.7967540 124.1647320 149.3305360 127.0187010
 123.2611400 149.5935560 126.8438670 124.6487940 149.6016530 126.2386970
 140.6740370 150.0529350 132.2963210 141.1977850 149.5592000 131.6653380
 141.2599790 150.1879710 133.0410780 140.8530090 150.1369220 135.8182760
 139.9032800 150.1032760 135.9327750 141.0343100 151.0469330 135.5832530
 126.7074530 148.3870900 124.9281390 127.4166230 147.9654120 124.4428670
 125.9914470 148.4546130 124.2964740 126.3548690 144.4410230 123.9684040
 127.0776820 144.9819170 124.2865260 126.6273210 144.1673650 123.0925580
 140.1640340 149.3102700 128.2355620 140.6599460 149.0773570 129.0204500
 139.9656410 148.4714540 127.8193260 126.0440880 143.6916420 133.8706660
 126.6917070 143.1413800 133.4301820 126.4642720 143.9459570 134.6922470
 141.5927500 147.9463650 130.7693300 141.4826780 147.7919690 131.7075570
 142.3535090 147.4184590 130.5268710 139.9393220 143.8857780 137.2276300
 140.5765440 144.4991920 137.5935490 140.0868110 143.9218440 136.2825530
 142.4817770 145.7771570 124.0099440 143.4067080 145.6452750 123.8017730
 142.4593560 145.8564390 124.9635890 142.5556260 146.5482230 126.6356150
 141.7607760 146.4827350 127.1649060 142.7599540 147.4832870 126.6241500
 125.7972880 143.8472090 136.6131980 125.4487700 144.3035910 137.3790160
 125.4660580 142.9529220 136.6954410 133.3097700 145.0383970 140.1351400
 133.2486590 145.6305800 140.8846810 134.2498080 144.9309930 139.9901660
 135.9472260 144.6954030 139.7743690 136.5612670 145.0133320 139.1124770
 136.4921820 144.2102620 140.3939550 126.4693520 143.3748290 139.8882750
 127.0176510 143.1936340 139.1248860 126.5348830 142.5842400 140.4239060
 136.6880300 143.2586170 136.1012980 135.8140140 143.5921280 135.8985910
 136.5791050 142.7859350 136.9264850 137.5952280 145.4657040 137.4854700
 137.2665640 144.6508800 137.1056430 138.5434580 145.4226850 137.3620390
 134.4355120 144.1756010 135.0405890 133.6526910 144.6501510 135.3202650
 134.1418050 143.2710840 134.9319070 138.9876190 144.8779110 133.0854980
 139.4284280 144.8224210 132.2376580 138.7183780 145.7937120 133.1565160
 140.8514760 144.5094350 131.0963800 140.7903160 143.5655570 130.9494820
 141.6306790 144.6174440 131.6417260 125.7795530 144.4803490 127.5619610
 126.5374890 144.5932370 126.9883640 125.3172700 145.3172690 127.5163040
 132.3209340 146.5942760 130.5521920 131.5083850 146.2199650 130.2117800
 132.8250980 145.8387840 130.8543110 136.8234320 143.2585210 131.7904990
 137.4263690 143.8305420 132.2653510 136.0827310 143.8224650 131.5678890
 139.9668920 143.6606770 127.0645270 140.1619550 144.5590220 127.3312700
 139.1798790 143.4293850 127.5578220 128.1520680 145.0067540 126.1021580
 128.6813440 144.2197340 125.9729530 128.7849000 145.6858730 126.3357110
 130.3458520 144.7442680 129.1566970 129.7161260 144.0429990 129.3237100
 129.8063660 145.5046810 128.9400130 130.4714080 144.0226660 141.5919460
 130.1898350 144.5260260 140.8280280 130.8533780 143.2248410 141.2261590
 137.0729540 143.4380240 142.1699930 136.9594990 143.7574850 143.0651450
 137.8899280 143.8392750 141.8737210 135.9787690 151.4572710 112.5334670
 135.8981740 150.5427320 112.2626380 135.5652110 151.9539780 111.8274380
 126.5363510 148.5073430 109.0762090 125.6480210 148.8489400 108.9741970
 126.8204700 148.3073750 108.1842920 124.4996520 151.1079080 114.9601790
 125.0712630 150.3401280 114.9605430 124.4998060 151.4067840 114.0508400
 125.7421390 146.5163440 116.7470720 125.5624230 145.6189190 117.0273480
 125.3401470 147.0635310 117.4217670 134.5819890 148.7179300 114.6483030
 134.9584710 147.8451180 114.5356700 134.4839400 149.0538000 113.7573470
 128.7124900 147.0904930 110.1100470 128.8191650 147.9908660 110.4169230
 127.8017260 147.0422900 109.8195120 138.3644010 146.2129740 111.5811370
 139.1853630 145.7226310 111.6236850 138.3978090 146.8027400 112.3343210
 126.3608060 149.0123940 115.3553060 127.0418170 149.2762310 115.9740460
 126.0456110 148.1724810 115.6891070 130.5532630 150.0591300 114.4425650
 131.0610850 150.5572270 115.0830670 131.0845870 149.2826500 114.2665010
 142.6543560 148.2296490 118.1455000 141.9495730 148.6178200 117.6270110
 142.9201480 148.9246780 118.7475930 128.8368730 144.6989860 118.7089070
 128.8387170 145.2162250 117.9034970 128.0073040 144.2220040 118.6859000
 138.6005490 148.1530120 114.3538910 137.8961060 148.4415010 114.9342020
 138.9617650 148.9630230 113.9938470 128.5184060 146.4099820 116.7159520
 128.8600870 147.2541870 116.4213390 127.5799870 146.5583560 116.8324860
 141.6692410 147.5984910 114.7448120 140.7217320 147.6323890 114.8763550
 141.9942400 148.4123860 115.1297480 132.2011950 143.8982090 113.0404110
 132.5086930 143.3428980 112.3239610 131.2712650 144.0326550 112.8577100
 134.5761790 148.2347920 106.7731390 133.6365460 148.3961880 106.8583850
 134.8945050 148.9533600 106.2267380 138.0616560 149.7035760 117.6965290
 137.6487740 150.5289470 117.9505280 137.3292510 149.1180800 117.5041650
 130.1949350 152.4895660 112.5583960 129.7906350 151.7772910 112.0629860
 130.2812470 152.1448900 113.4472000 128.9077970 149.2638870 116.3383000
 129.4592560 149.3734210 115.5636250 129.4221480 149.6376470 117.0538230
 140.3771840 144.0180840 105.6013270 140.0644500 144.1107670 106.5012340
 141.1384310 144.5961870 105.5510700 126.8953980 151.3840640 110.0590610
 126.7751580 152.1102730 109.4471880 126.5854870 150.6143550 109.5818520
 141.5873130 148.7552340 121.5787410 140.9717400 149.2632010 121.0502870
 141.2669550 147.8550670 121.5213350 129.3617640 144.7275710 113.4414280
 128.9185790 145.5085250 113.1098800 129.9202630 145.0505600 114.1485220
 133.6487450 147.5944230 119.0449600 133.1866820 147.8027250 119.8569540
 133.2465560 146.7803580 118.7420270 138.6491960 148.8153180 120.1746260
 137.7985550 148.5158930 120.4955330 138.4893750 149.0595190 119.2630080
 135.7441670 150.3154930 122.2745050 136.0695080 149.4818680 121.9347280
 136.5322000 150.8383450 122.4223380 132.4776460 144.3486410 108.3220110
 131.8530640 144.3446280 109.0473420 132.3906580 143.4817370 107.9256080
 131.3993540 145.2723040 115.3003880 131.6965870 146.1785870 115.2195900
 131.9479100 144.7841820 114.6863450 129.1531860 149.8509280 111.1695530
 128.9272780 149.6346450 112.0742150 128.3724390 150.2837740 110.8241500
 136.3829620 149.8572650 109.7686180 135.7838510 150.5808450 109.5849800
 136.9309230 149.7949430 108.9862630 131.5931070 150.7494860 121.8355800
 131.4974670 149.8089590 121.6856200 132.4363050 150.9709930 121.4403870
 134.9894490 148.4936190 111.7989460 135.3824060 148.8108390 110.9858150
 135.3511340 147.6148070 111.9133980 126.7241610 147.1608530 119.9889580
 126.3305000 148.0083740 120.1962360 126.0360010 146.5234900 120.1798220
 133.2986660 147.2443500 123.0586320 132.6084980 147.0515700 123.6932410
 134.0418960 147.5278140 123.5910620 124.0258660 145.0836990 114.0219660
 123.7371710 145.6539850 114.7344640 124.7704420 144.6041440 114.3850890
 124.2128890 149.0257110 105.2322380 124.1303560 149.9687870 105.3737370
 123.8611950 148.8832020 104.3534730 135.5749630 151.0841940 115.8940240
 134.8430750 151.5928750 116.2430340 135.1773970 150.2671920 115.5929020
 132.0127020 147.7596140 114.2992730 132.0163080 147.3186090 113.4497270
 132.9078140 148.0813470 114.4064550 127.8629400 147.6422630 113.2586940
 127.5229450 148.1197860 114.0153990 127.1006720 147.1887750 112.8988040
 132.0747170 148.7608220 107.2899490 132.1959990 148.7194700 108.2385310
 131.6895680 149.6232370 107.1346220 136.0375540 146.5375620 115.3063180
 136.0548280 146.9884270 116.1505030 135.7891120 145.6381260 115.5196620
 131.0868670 151.0709360 106.6882790 130.5185570 150.6227610 106.0618700
 131.7957670 151.4302140 106.1547940 139.4646290 143.9507800 121.1449560
 139.7892060 143.2197460 121.6707540 139.5002800 143.6321440 120.2430550
 125.1775480 146.5641610 112.1751610 124.8922400 146.1997280 113.0130230
 125.1154340 145.8322070 111.5614750 130.1034360 150.8606560 118.3642350
 129.7991430 151.7398540 118.5892710 131.0580820 150.9206350 118.3999790
 134.8514070 145.4570870 108.8964980 134.0378680 144.9584040 108.8210290
 134.6576020 146.2969120 108.4801330 137.5662460 149.8290520 107.1927140
 138.4542080 150.1407750 107.0178480 137.5367550 148.9562770 106.8007720
 126.1598090 151.7009300 119.5113710 125.8013030 152.3663150 120.0987050
 125.8652650 150.8692850 119.8826330 129.3611210 152.1593540 122.3953260
 129.0611350 152.3050720 121.4981080 130.1322450 151.5998830 122.3026650
 139.8376730 151.1402360 106.6607000 139.7540450 151.5716580 105.8103440
 140.5570920 151.6000710 107.0933820 124.6706140 151.7000560 106.1348310
 125.5400990 151.9825360 106.4184230 124.1796460 152.5136430 106.0197120
 127.7352730 143.4311420 110.7279110 127.6067360 143.4229320 111.6764030
 126.9114750 143.7694510 110.3770120 124.7346660 145.1902540 120.1885810
 124.0205180 145.3899460 120.7938420 125.1541700 144.4142110 120.5600610
 136.2285440 147.6824850 117.9387260 136.5966260 146.8620060 118.2666830
 135.3683640 147.7426740 118.3542910 139.5947470 146.6381790 108.7474820
 138.9660630 146.7427460 108.0333050 139.0999390 146.8578570 109.5368700
 131.5631500 148.9167740 110.1632700 130.8547650 149.3854080 110.6046310
 131.8475980 148.2589750 110.7977890 133.1887430 150.3364440 118.1625230
 133.6872680 150.8110260 118.8277080 133.3310380 149.4127960 118.3695260
 135.5946930 145.6418400 111.6028490 135.4714710 145.6604530 110.6538000
 136.5431490 145.6897340 111.7226890 129.7666520 147.2252820 107.5383410
 130.6157050 147.6622970 107.4723600 129.3997790 147.5373080 108.3655470
 140.3954290 146.5532400 119.0053620 139.8927890 147.2937800 119.3447430
 141.2110950 146.9416400 118.6890410 138.6876300 151.7965580 112.4514980
 137.7466440 151.8115810 112.6262670 139.0020370 151.0101540 112.8975280
 127.3604700 150.9110250 106.6951830 127.4408290 149.9637760 106.8069230
 128.2524450 151.2417130 106.8012490 126.9198580 150.8754760 122.8258070
 126.9603920 150.5768630 123.7343300 127.7744080 151.2762370 122.6665590
 128.8604390 149.4546860 120.7932560 128.3300850 148.9637810 120.1655900
 129.5292460 149.8831060 120.2590490 138.2304620 151.2612480 122.5612900
 138.8125390 150.5064800 122.4733380 138.4066390 151.7919920 121.7844380
 129.3476690 146.4209230 120.8729850 129.2533560 145.8029980 120.1480720
 128.7674080 147.1475520 120.6459760 132.1138130 144.9782470 117.9057240
 131.6655430 145.0006730 117.0602790 131.4803330 144.5801490 118.5027540
 134.8561580 151.6052980 119.9107520 134.9757790 151.0094120 120.6502360
 135.7155580 151.6422670 119.4908820 129.5935870 149.5483540 104.9319740
 129.3924930 148.6850900 105.2933080 129.4227920 149.4616900 103.9941340
 131.6230350 148.1474330 121.1683340 132.2130040 147.8390180 121.8561160
 130.8050590 147.6754080 121.3243240 136.4423780 147.7640140 121.4016360
 135.7539300 147.1021680 121.3366350 137.1629800 147.3178410 121.8464820
 137.0724180 144.3591770 107.4606620 137.3526470 143.5159670 107.8166040
 136.2989910 144.5914880 107.9745370 128.3918670 146.6484160 104.9197620
 128.6944570 146.6551590 104.0116770 129.1313260 146.2982020 105.4165280
 131.6103600 145.5918780 105.9053820 131.2625600 144.9142770 105.3256270
 131.8116370 145.1308290 106.7197210 124.9509240 152.1206430 112.3018190
 124.2958080 151.8518070 111.6577890 125.7887190 152.0110910 111.8520170
 137.8999680 146.9147720 106.5236680 138.3184560 146.7278700 105.6833340
 137.5935740 146.0626770 106.8339610 141.3989410 151.8271860 110.2212480
 141.0233010 151.0599790 109.7893770 140.6692530 152.2094560 110.7087410
 125.9885170 152.5059000 116.8421530 126.3558210 152.4186400 117.7217550
 125.4195990 151.7425550 116.7428390 140.7889030 150.9743380 119.8552000
 140.5575120 150.7456130 118.9549950 141.0493580 151.8942930 119.8096890
 125.5401170 149.4168090 120.7479950 124.6457220 149.3834850 121.0873660
 126.0798720 149.6154880 121.5131200 139.2277100 146.1999810 122.6331700
 140.1047280 146.2083210 123.0165700 139.2397940 145.4630650 122.0224050
 124.1647320 149.3305360 108.2443520 123.2611400 149.5935560 108.0695180
 124.6487940 149.6016530 107.4643480 140.6740370 150.0529350 113.5219720
 141.1977850 149.5592000 112.8909890 141.2599790 150.1879710 114.2667290
 140.8530090 150.1369220 117.0439270 139.9032800 150.1032760 117.1584260
 141.0343100 151.0469330 116.8089040 126.7074530 148.3870900 106.1537900
 127.4166230 147.9654120 105.6685180 125.9914470 148.4546130 105.5221250
 126.3548690 144.4410230 105.1940550 127.0776820 144.9819170 105.5121770
 126.6273210 144.1673650 104.3182090 140.1640340 149.3102700 109.4612130
 140.6599460 149.0773570 110.2461010 139.9656410 148.4714540 109.0449770
 126.0440880 143.6916420 115.0963170 126.6917070 143.1413800 114.6558330
 126.4642720 143.9459570 115.9178980 141.5927500 147.9463650 111.9949810
 141.4826780 147.7919690 112.9332080 142.3535090 147.4184590 111.7525220
 139.9393220 143.8857780 118.4532810 140.5765440 144.4991920 118.8192000
 140.0868110 143.9218440 117.5082040 142.4817770 145.7771570 105.2355950
 143.4067080 145.6452750 105.0274240 142.4593560 145.8564390 106.1892400
 142.5556260 146.5482230 107.8612660 141.7607760 146.4827350 108.3905570
 142.7599540 147.4832870 107.8498010 125.7972880 143.8472090 117.8388490
 125.4487700 144.3035910 118.6046670 125.4660580 142.9529220 117.9210920
 133.3097700 145.0383970 121.3607910 133.2486590 145.6305800 122.1103320
 134.2498080 144.9309930 121.2158170 135.9472260 144.6954030 121.0000200
 136.5612670 145.0133320 120.3381280 136.4921820 144.2102620 121.6196060
 126.4693520 143.3748290 121.1139260 127.0176510 143.1936340 120.3505370
 126.5348830 142.5842400 121.6495570 136.6880300 143.2586170 117.3269490
 135.8140140 143.5921280 117.1242420 136.5791050 142.7859350 118.1521360
 137.5952280 145.4657040 118.7111210 137.2665640 144.6508800 118.3312940
 138.5434580 145.4226850 118.5876900 134.4355120 144.1756010 116.2662400
 133.6526910 144.6501510 116.5459160 134.1418050 143.2710840 116.1575580
 138.9876190 144.8779110 114.3111490 139.4284280 144.8224210 113.4633090
 138.7183780 145.7937120 114.3821670 140.8514760 144.5094350 112.3220310
 140.7903160 143.5655570 112.1751330 141.6306790 144.6174440 112.8673770
 125.7795530 144.4803490 108.7876120 126.5374890 144.5932370 108.2140150
 125.3172700 145.3172690 108.7419550 132.3209340 146.5942760 111.7778430
 131.5083850 146.2199650 111.4374310 132.8250980 145.8387840 112.0799620
 136.8234320 143.2585210 113.0161500 137.4263690 143.8305420 113.4910020
 136.0827310 143.8224650 112.7935400 139.9668920 143.6606770 108.2901780
 140.1619550 144.5590220 108.5569210 139.1798790 143.4293850 108.7834730
 128.1520680 145.0067540 107.3278090 128.6813440 144.2197340 107.1986040
 128.7849000 145.6858730 107.5613620 130.3458520 144.7442680 110.3823480
 129.7161260 144.0429990 110.5493610 129.8063660 145.5046810 110.1656640
 130.4714080 144.0226660 122.8175970 130.1898350 144.5260260 122.0536790
 130.8533780 143.2248410 122.4518100 137.0729540 143.4380240 123.3956440
 136.9594990 143.7574850 124.2907960 137.8899280 143.8392750 123.0993720
 135.9787690 151.4572710  93.7591180 135.8981740 150.5427320  93.4882890
 135.5652110 151.9539780  93.0530890 126.5363510 148.5073430  90.3018600
 125.6480210 148.8489400  90.1998480 126.8204700 148.3073750  89.4099430
 124.4996520 151.1079080  96.1858300 125.0712630 150.3401280  96.1861940
 124.4998060 151.4067840  95.2764910 125.7421390 146.5163440  97.9727230
 125.5624230 145.6189190  98.2529990 125.3401470 147.0635310  98.6474180
 134.5819890 148.7179300  95.8739540 134.9584710 147.8451180  95.7613210
 134.4839400 149.0538000  94.9829980 128.7124900 147.0904930  91.3356980
 128.8191650 147.9908660  91.6425740 127.8017260 147.0422900  91.0451630
 138.3644010 146.2129740  92.8067880 139.1853630 145.7226310  92.8493360
 138.3978090 146.8027400  93.5599720 126.3608060 149.0123940  96.5809570
 127.0418170 149.2762310  97.1996970 126.0456110 148.1724810  96.9147580
 130.5532630 150.0591300  95.6682160 131.0610850 150.5572270  96.3087180
 131.0845870 149.2826500  95.4921520 142.6543560 148.2296490  99.3711510
 141.9495730 148.6178200  98.8526620 142.9201480 148.9246780  99.9732440
 128.8368730 144.6989860  99.9345580 128.8387170 145.2162250  99.1291480
 128.0073040 144.2220040  99.9115510 138.6005490 148.1530120  95.5795420
 137.8961060 148.4415010  96.1598530 138.9617650 148.9630230  95.2194980
 128.5184060 146.4099820  97.9416030 128.8600870 147.2541870  97.6469900
 127.5799870 146.5583560  98.0581370 141.6692410 147.5984910  95.9704630
 140.7217320 147.6323890  96.1020060 141.9942400 148.4123860  96.3553990
 132.2011950 143.8982090  94.2660620 132.5086930 143.3428980  93.5496120
 131.2712650 144.0326550  94.0833610 134.5761790 148.2347920  87.9987900
 133.6365460 148.3961880  88.0840360 134.8945050 148.9533600  87.4523890
 138.0616560 149.7035760  98.9221800 137.6487740 150.5289470  99.1761790
 137.3292510 149.1180800  98.7298160 130.1949350 152.4895660  93.7840470
 129.7906350 151.7772910  93.2886370 130.2812470 152.1448900  94.6728510
 128.9077970 149.2638870  97.5639510 129.4592560 149.3734210  96.7892760
 129.4221480 149.6376470  98.2794740 140.3771840 144.0180840  86.8269780
 140.0644500 144.1107670  87.7268850 141.1384310 144.5961870  86.7767210
 126.8953980 151.3840640  91.2847120 126.7751580 152.1102730  90.6728390
 126.5854870 150.6143550  90.8075030 141.5873130 148.7552340 102.8043920
 140.9717400 149.2632010 102.2759380 141.2669550 147.8550670 102.7469860
 129.3617640 144.7275710  94.6670790 128.9185790 145.5085250  94.3355310
 129.9202630 145.0505600  95.3741730 133.6487450 147.5944230 100.2706110
 133.1866820 147.8027250 101.0826050 133.2465560 146.7803580  99.9676780
 138.6491960 148.8153180 101.4002770 137.7985550 148.5158930 101.7211840
 138.4893750 149.0595190 100.4886590 135.7441670 150.3154930 103.5001560
 136.0695080 149.4818680 103.1603790 136.5322000 150.8383450 103.6479890
 132.4776460 144.3486410  89.5476620 131.8530640 144.3446280  90.2729930
 132.3906580 143.4817370  89.1512590 131.3993540 145.2723040  96.5260390
 131.6965870 146.1785870  96.4452410 131.9479100 144.7841820  95.9119960
 129.1531860 149.8509280  92.3952040 128.9272780 149.6346450  93.2998660
 128.3724390 150.2837740  92.0498010 136.3829620 149.8572650  90.9942690
 135.7838510 150.5808450  90.8106310 136.9309230 149.7949430  90.2119140
 131.5931070 150.7494860 103.0612310 131.4974670 149.8089590 102.9112710
 132.4363050 150.9709930 102.6660380 134.9894490 148.4936190  93.0245970
 135.3824060 148.8108390  92.2114660 135.3511340 147.6148070  93.1390490
 126.7241610 147.1608530 101.2146090 126.3305000 148.0083740 101.4218870
 126.0360010 146.5234900 101.4054730 133.2986660 147.2443500 104.2842830
 132.6084980 147.0515700 104.9188920 134.0418960 147.5278140 104.8167130
 124.0258660 145.0836990  95.2476170 123.7371710 145.6539850  95.9601150
 124.7704420 144.6041440  95.6107400 124.2128890 149.0257110  86.4578890
 124.1303560 149.9687870  86.5993880 123.8611950 148.8832020  85.5791240
 135.5749630 151.0841940  97.1196750 134.8430750 151.5928750  97.4686850
 135.1773970 150.2671920  96.8185530 132.0127020 147.7596140  95.5249240
 132.0163080 147.3186090  94.6753780 132.9078140 148.0813470  95.6321060
 127.8629400 147.6422630  94.4843450 127.5229450 148.1197860  95.2410500
 127.1006720 147.1887750  94.1244550 132.0747170 148.7608220  88.5156000
 132.1959990 148.7194700  89.4641820 131.6895680 149.6232370  88.3602730
 136.0375540 146.5375620  96.5319690 136.0548280 146.9884270  97.3761540
 135.7891120 145.6381260  96.7453130 131.0868670 151.0709360  87.9139300
 130.5185570 150.6227610  87.2875210 131.7957670 151.4302140  87.3804450
 139.4646290 143.9507800 102.3706070 139.7892060 143.2197460 102.8964050
 139.5002800 143.6321440 101.4687060 125.1775480 146.5641610  93.4008120
 124.8922400 146.1997280  94.2386740 125.1154340 145.8322070  92.7871260
 130.1034360 150.8606560  99.5898860 129.7991430 151.7398540  99.8149220
 131.0580820 150.9206350  99.6256300 134.8514070 145.4570870  90.1221490
 134.0378680 144.9584040  90.0466800 134.6576020 146.2969120  89.7057840
 137.5662460 149.8290520  88.4183650 138.4542080 150.1407750  88.2434990
 137.5367550 148.9562770  88.0264230 126.1598090 151.7009300 100.7370220
 125.8013030 152.3663150 101.3243560 125.8652650 150.8692850 101.1082840
 129.3611210 152.1593540 103.6209770 129.0611350 152.3050720 102.7237590
 130.1322450 151.5998830 103.5283160 139.8376730 151.1402360  87.8863510
 139.7540450 151.5716580  87.0359950 140.5570920 151.6000710  88.3190330
 124.6706140 151.7000560  87.3604820 125.5400990 151.9825360  87.6440740
 124.1796460 152.5136430  87.2453630 127.7352730 143.4311420  91.9535620
 127.6067360 143.4229320  92.9020540 126.9114750 143.7694510  91.6026630
 124.7346660 145.1902540 101.4142320 124.0205180 145.3899460 102.0194930
 125.1541700 144.4142110 101.7857120 136.2285440 147.6824850  99.1643770
 136.5966260 146.8620060  99.4923340 135.3683640 147.7426740  99.5799420
 139.5947470 146.6381790  89.9731330 138.9660630 146.7427460  89.2589560
 139.0999390 146.8578570  90.7625210 131.5631500 148.9167740  91.3889210
 130.8547650 149.3854080  91.8302820 131.8475980 148.2589750  92.0234400
 133.1887430 150.3364440  99.3881740 133.6872680 150.8110260 100.0533590
 133.3310380 149.4127960  99.5951770 135.5946930 145.6418400  92.8285000
 135.4714710 145.6604530  91.8794510 136.5431490 145.6897340  92.9483400
 129.7666520 147.2252820  88.7639920 130.6157050 147.6622970  88.6980110
 129.3997790 147.5373080  89.5911980 140.3954290 146.5532400 100.2310130
 139.8927890 147.2937800 100.5703940 141.2110950 146.9416400  99.9146920
 138.6876300 151.7965580  93.6771490 137.7466440 151.8115810  93.8519180
 139.0020370 151.0101540  94.1231790 127.3604700 150.9110250  87.9208340
 127.4408290 149.9637760  88.0325740 128.2524450 151.2417130  88.0269000
 126.9198580 150.8754760 104.0514580 126.9603920 150.5768630 104.9599810
 127.7744080 151.2762370 103.8922100 128.8604390 149.4546860 102.0189070
 128.3300850 148.9637810 101.3912410 129.5292460 149.8831060 101.4847000
 138.2304620 151.2612480 103.7869410 138.8125390 150.5064800 103.6989890
 138.4066390 151.7919920 103.0100890 129.3476690 146.4209230 102.0986360
 129.2533560 145.8029980 101.3737230 128.7674080 147.1475520 101.8716270
 132.1138130 144.9782470  99.1313750 131.6655430 145.0006730  98.2859300
 131.4803330 144.5801490  99.7284050 134.8561580 151.6052980 101.1364030
 134.9757790 151.0094120 101.8758870 135.7155580 151.6422670 100.7165330
 129.5935870 149.5483540  86.1576250 129.3924930 148.6850900  86.5189590
 129.4227920 149.4616900  85.2197850 131.6230350 148.1474330 102.3939850
 132.2130040 147.8390180 103.0817670 130.8050590 147.6754080 102.5499750
 136.4423780 147.7640140 102.6272870 135.7539300 147.1021680 102.5622860
 137.1629800 147.3178410 103.0721330 137.0724180 144.3591770  88.6863130
 137.3526470 143.5159670  89.0422550 136.2989910 144.5914880  89.2001880
 128.3918670 146.6484160  86.1454130 128.6944570 146.6551590  85.2373280
 129.1313260 146.2982020  86.6421790 131.6103600 145.5918780  87.1310330
 131.2625600 144.9142770  86.5512780 131.8116370 145.1308290  87.9453720
 124.9509240 152.1206430  93.5274700 124.2958080 151.8518070  92.8834400
 125.7887190 152.0110910  93.0776680 137.8999680 146.9147720  87.7493190
 138.3184560 146.7278700  86.9089850 137.5935740 146.0626770  88.0596120
 141.3989410 151.8271860  91.4468990 141.0233010 151.0599790  91.0150280
 140.6692530 152.2094560  91.9343920 125.9885170 152.5059000  98.0678040
 126.3558210 152.4186400  98.9474060 125.4195990 151.7425550  97.9684900
 140.7889030 150.9743380 101.0808510 140.5575120 150.7456130 100.1806460
 141.0493580 151.8942930 101.0353400 125.5401170 149.4168090 101.9736460
 124.6457220 149.3834850 102.3130170 126.0798720 149.6154880 102.7387710
 139.2277100 146.1999810 103.8588210 140.1047280 146.2083210 104.2422210
 139.2397940 145.4630650 103.2480560 124.1647320 149.3305360  89.4700030
 123.2611400 149.5935560  89.2951690 124.6487940 149.6016530  88.6899990
 140.6740370 150.0529350  94.7476230 141.1977850 149.5592000  94.1166400
 141.2599790 150.1879710  95.4923800 140.8530090 150.1369220  98.2695780
 139.9032800 150.1032760  98.3840770 141.0343100 151.0469330  98.0345550
 126.7074530 148.3870900  87.3794410 127.4166230 147.9654120  86.8941690
 125.9914470 148.4546130  86.7477760 126.3548690 144.4410230  86.4197060
 127.0776820 144.9819170  86.7378280 126.6273210 144.1673650  85.5438600
 140.1640340 149.3102700  90.6868640 140.6599460 149.0773570  91.4717520
 139.9656410 148.4714540  90.2706280 126.0440880 143.6916420  96.3219680
 126.6917070 143.1413800  95.8814840 126.4642720 143.9459570  97.1435490
 141.5927500 147.9463650  93.2206320 141.4826780 147.7919690  94.1588590
 142.3535090 147.4184590  92.9781730 139.9393220 143.8857780  99.6789320
 140.5765440 144.4991920 100.0448510 140.0868110 143.9218440  98.7338550
 142.4817770 145.7771570  86.4612460 143.4067080 145.6452750  86.2530750
 142.4593560 145.8564390  87.4148910 142.5556260 146.5482230  89.0869170
 141.7607760 146.4827350  89.6162080 142.7599540 147.4832870  89.0754520
 125.7972880 143.8472090  99.0645000 125.4487700 144.3035910  99.8303180
 125.4660580 142.9529220  99.1467430 133.3097700 145.0383970 102.5864420
 133.2486590 145.6305800 103.3359830 134.2498080 144.9309930 102.4414680
 135.9472260 144.6954030 102.2256710 136.5612670 145.0133320 101.5637790
 136.4921820 144.2102620 102.8452570 126.4693520 143.3748290 102.3395770
 127.0176510 143.1936340 101.5761880 126.5348830 142.5842400 102.8752080
 136.6880300 143.2586170  98.5526000 135.8140140 143.5921280  98.3498930
 136.5791050 142.7859350  99.3777870 137.5952280 145.4657040  99.9367720
 137.2665640 144.6508800  99.5569450 138.5434580 145.4226850  99.8133410
 134.4355120 144.1756010  97.4918910 133.6526910 144.6501510  97.7715670
 134.1418050 143.2710840  97.3832090 138.9876190 144.8779110  95.5368000
 139.4284280 144.8224210  94.6889600 138.7183780 145.7937120  95.6078180
 140.8514760 144.5094350  93.5476820 140.7903160 143.5655570  93.4007840
 141.6306790 144.6174440  94.0930280 125.7795530 144.4803490  90.0132630
 126.5374890 144.5932370  89.4396660 125.3172700 145.3172690  89.9676060
 132.3209340 146.5942760  93.0034940 131.5083850 146.2199650  92.6630820
 132.8250980 145.8387840  93.3056130 136.8234320 143.2585210  94.2418010
 137.4263690 143.8305420  94.7166530 136.0827310 143.8224650  94.0191910
 139.9668920 143.6606770  89.5158290 140.1619550 144.5590220  89.7825720
 139.1798790 143.4293850  90.0091240 128.1520680 145.0067540  88.5534600
 128.6813440 144.2197340  88.4242550 128.7849000 145.6858730  88.7870130
 130.3458520 144.7442680  91.6079990 129.7161260 144.0429990  91.7750120
 129.8063660 145.5046810  91.3913150 130.4714080 144.0226660 104.0432480
 130.1898350 144.5260260 103.2793300 130.8533780 143.2248410 103.6774610
 137.0729540 143.4380240 104.6212950 136.9594990 143.7574850 105.5164470
 137.8899280 143.8392750 104.3250230 135.9787690 151.4572710  74.9847690
 135.8981740 150.5427320  74.7139400 135.5652110 151.9539780  74.2787400
 126.5363510 148.5073430  71.5275110 125.6480210 148.8489400  71.4254990
 126.8204700 148.3073750  70.6355940 124.4996520 151.1079080  77.4114810
 125.0712630 150.3401280  77.4118450 124.4998060 151.4067840  76.5021420
 125.7421390 146.5163440  79.1983740 125.5624230 145.6189190  79.4786500
 125.3401470 147.0635310  79.8730690 134.5819890 148.7179300  77.0996050
 134.9584710 147.8451180  76.9869720 134.4839400 149.0538000  76.2086490
 128.7124900 147.0904930  72.5613490 128.8191650 147.9908660  72.8682250
 127.8017260 147.0422900  72.2708140 138.3644010 146.2129740  74.0324390
 139.1853630 145.7226310  74.0749870 138.3978090 146.8027400  74.7856230
 126.3608060 149.0123940  77.8066080 127.0418170 149.2762310  78.4253480
 126.0456110 148.1724810  78.1404090 130.5532630 150.0591300  76.8938670
 131.0610850 150.5572270  77.5343690 131.0845870 149.2826500  76.7178030
 142.6543560 148.2296490  80.5968020 141.9495730 148.6178200  80.0783130
 142.9201480 148.9246780  81.1988950 128.8368730 144.6989860  81.1602090
 128.8387170 145.2162250  80.3547990 128.0073040 144.2220040  81.1372020
 138.6005490 148.1530120  76.8051930 137.8961060 148.4415010  77.3855040
 138.9617650 148.9630230  76.4451490 128.5184060 146.4099820  79.1672540
 128.8600870 147.2541870  78.8726410 127.5799870 146.5583560  79.2837880
 141.6692410 147.5984910  77.1961140 140.7217320 147.6323890  77.3276570
 141.9942400 148.4123860  77.5810500 132.2011950 143.8982090  75.4917130
 132.5086930 143.3428980  74.7752630 131.2712650 144.0326550  75.3090120
 134.5761790 148.2347920  69.2244410 133.6365460 148.3961880  69.3096870
 134.8945050 148.9533600  68.6780400 138.0616560 149.7035760  80.1478310
 137.6487740 150.5289470  80.4018300 137.3292510 149.1180800  79.9554670
 130.1949350 152.4895660  75.0096980 129.7906350 151.7772910  74.5142880
 130.2812470 152.1448900  75.8985020 128.9077970 149.2638870  78.7896020
 129.4592560 149.3734210  78.0149270 129.4221480 149.6376470  79.5051250
 140.3771840 144.0180840  68.0526290 140.0644500 144.1107670  68.9525360
 141.1384310 144.5961870  68.0023720 126.8953980 151.3840640  72.5103630
 126.7751580 152.1102730  71.8984900 126.5854870 150.6143550  72.0331540
 141.5873130 148.7552340  84.0300430 140.9717400 149.2632010  83.5015890
 141.2669550 147.8550670  83.9726370 129.3617640 144.7275710  75.8927300
 128.9185790 145.5085250  75.5611820 129.9202630 145.0505600  76.5998240
 133.6487450 147.5944230  81.4962620 133.1866820 147.8027250  82.3082560
 133.2465560 146.7803580  81.1933290 138.6491960 148.8153180  82.6259280
 137.7985550 148.5158930  82.9468350 138.4893750 149.0595190  81.7143100
 135.7441670 150.3154930  84.7258070 136.0695080 149.4818680  84.3860300
 136.5322000 150.8383450  84.8736400 132.4776460 144.3486410  70.7733130
 131.8530640 144.3446280  71.4986440 132.3906580 143.4817370  70.3769100
 131.3993540 145.2723040  77.7516900 131.6965870 146.1785870  77.6708920
 131.9479100 144.7841820  77.1376470 129.1531860 149.8509280  73.6208550
 128.9272780 149.6346450  74.5255170 128.3724390 150.2837740  73.2754520
 136.3829620 149.8572650  72.2199200 135.7838510 150.5808450  72.0362820
 136.9309230 149.7949430  71.4375650 131.5931070 150.7494860  84.2868820
 131.4974670 149.8089590  84.1369220 132.4363050 150.9709930  83.8916890
 134.9894490 148.4936190  74.2502480 135.3824060 148.8108390  73.4371170
 135.3511340 147.6148070  74.3647000 126.7241610 147.1608530  82.4402600
 126.3305000 148.0083740  82.6475380 126.0360010 146.5234900  82.6311240
 133.2986660 147.2443500  85.5099340 132.6084980 147.0515700  86.1445430
 134.0418960 147.5278140  86.0423640 124.0258660 145.0836990  76.4732680
 123.7371710 145.6539850  77.1857660 124.7704420 144.6041440  76.8363910
 124.2128890 149.0257110  67.6835400 124.1303560 149.9687870  67.8250390
 123.8611950 148.8832020  66.8047750 135.5749630 151.0841940  78.3453260
 134.8430750 151.5928750  78.6943360 135.1773970 150.2671920  78.0442040
 132.0127020 147.7596140  76.7505750 132.0163080 147.3186090  75.9010290
 132.9078140 148.0813470  76.8577570 127.8629400 147.6422630  75.7099960
 127.5229450 148.1197860  76.4667010 127.1006720 147.1887750  75.3501060
 132.0747170 148.7608220  69.7412510 132.1959990 148.7194700  70.6898330
 131.6895680 149.6232370  69.5859240 136.0375540 146.5375620  77.7576200
 136.0548280 146.9884270  78.6018050 135.7891120 145.6381260  77.9709640
 131.0868670 151.0709360  69.1395810 130.5185570 150.6227610  68.5131720
 131.7957670 151.4302140  68.6060960 139.4646290 143.9507800  83.5962580
 139.7892060 143.2197460  84.1220560 139.5002800 143.6321440  82.6943570
 125.1775480 146.5641610  74.6264630 124.8922400 146.1997280  75.4643250
 125.1154340 145.8322070  74.0127770 130.1034360 150.8606560  80.8155370
 129.7991430 151.7398540  81.0405730 131.0580820 150.9206350  80.8512810
 134.8514070 145.4570870  71.3478000 134.0378680 144.9584040  71.2723310
 134.6576020 146.2969120  70.9314350 137.5662460 149.8290520  69.6440160
 138.4542080 150.1407750  69.4691500 137.5367550 148.9562770  69.2520740
 126.1598090 151.7009300  81.9626730 125.8013030 152.3663150  82.5500070
 125.8652650 150.8692850  82.3339350 129.3611210 152.1593540  84.8466280
 129.0611350 152.3050720  83.9494100 130.1322450 151.5998830  84.7539670
 139.8376730 151.1402360  69.1120020 139.7540450 151.5716580  68.2616460
 140.5570920 151.6000710  69.5446840 124.6706140 151.7000560  68.5861330
 125.5400990 151.9825360  68.8697250 124.1796460 152.5136430  68.4710140
 127.7352730 143.4311420  73.1792130 127.6067360 143.4229320  74.1277050
 126.9114750 143.7694510  72.8283140 124.7346660 145.1902540  82.6398830
 124.0205180 145.3899460  83.2451440 125.1541700 144.4142110  83.0113630
 136.2285440 147.6824850  80.3900280 136.5966260 146.8620060  80.7179850
 135.3683640 147.7426740  80.8055930 139.5947470 146.6381790  71.1987840
 138.9660630 146.7427460  70.4846070 139.0999390 146.8578570  71.9881720
 131.5631500 148.9167740  72.6145720 130.8547650 149.3854080  73.0559330
 131.8475980 148.2589750  73.2490910 133.1887430 150.3364440  80.6138250
 133.6872680 150.8110260  81.2790100 133.3310380 149.4127960  80.8208280
 135.5946930 145.6418400  74.0541510 135.4714710 145.6604530  73.1051020
 136.5431490 145.6897340  74.1739910 129.7666520 147.2252820  69.9896430
 130.6157050 147.6622970  69.9236620 129.3997790 147.5373080  70.8168490
 140.3954290 146.5532400  81.4566640 139.8927890 147.2937800  81.7960450
 141.2110950 146.9416400  81.1403430 138.6876300 151.7965580  74.9028000
 137.7466440 151.8115810  75.0775690 139.0020370 151.0101540  75.3488300
 127.3604700 150.9110250  69.1464850 127.4408290 149.9637760  69.2582250
 128.2524450 151.2417130  69.2525510 126.9198580 150.8754760  85.2771090
 126.9603920 150.5768630  86.1856320 127.7744080 151.2762370  85.1178610
 128.8604390 149.4546860  83.2445580 128.3300850 148.9637810  82.6168920
 129.5292460 149.8831060  82.7103510 138.2304620 151.2612480  85.0125920
 138.8125390 150.5064800  84.9246400 138.4066390 151.7919920  84.2357400
 129.3476690 146.4209230  83.3242870 129.2533560 145.8029980  82.5993740
 128.7674080 147.1475520  83.0972780 132.1138130 144.9782470  80.3570260
 131.6655430 145.0006730  79.5115810 131.4803330 144.5801490  80.9540560
 134.8561580 151.6052980  82.3620540 134.9757790 151.0094120  83.1015380
 135.7155580 151.6422670  81.9421840 129.5935870 149.5483540  67.3832760
 129.3924930 148.6850900  67.7446100 129.4227920 149.4616900  66.4454360
 131.6230350 148.1474330  83.6196360 132.2130040 147.8390180  84.3074180
 130.8050590 147.6754080  83.7756260 136.4423780 147.7640140  83.8529380
 135.7539300 147.1021680  83.7879370 137.1629800 147.3178410  84.2977840
 137.0724180 144.3591770  69.9119640 137.3526470 143.5159670  70.2679060
 136.2989910 144.5914880  70.4258390 128.3918670 146.6484160  67.3710640
 128.6944570 146.6551590  66.4629790 129.1313260 146.2982020  67.8678300
 131.6103600 145.5918780  68.3566840 131.2625600 144.9142770  67.7769290
 131.8116370 145.1308290  69.1710230 124.9509240 152.1206430  74.7531210
 124.2958080 151.8518070  74.1090910 125.7887190 152.0110910  74.3033190
 137.8999680 146.9147720  68.9749700 138.3184560 146.7278700  68.1346360
 137.5935740 146.0626770  69.2852630 141.3989410 151.8271860  72.6725500
 141.0233010 151.0599790  72.2406790 140.6692530 152.2094560  73.1600430
 125.9885170 152.5059000  79.2934550 126.3558210 152.4186400  80.1730570
 125.4195990 151.7425550  79.1941410 140.7889030 150.9743380  82.3065020
 140.5575120 150.7456130  81.4062970 141.0493580 151.8942930  82.2609910
 125.5401170 149.4168090  83.1992970 124.6457220 149.3834850  83.5386680
 126.0798720 149.6154880  83.9644220 139.2277100 146.1999810  85.0844720
 140.1047280 146.2083210  85.4678720 139.2397940 145.4630650  84.4737070
 124.1647320 149.3305360  70.6956540 123.2611400 149.5935560  70.5208200
 124.6487940 149.6016530  69.9156500 140.6740370 150.0529350  75.9732740
 141.1977850 149.5592000  75.3422910 141.2599790 150.1879710  76.7180310
 140.8530090 150.1369220  79.4952290 139.9032800 150.1032760  79.6097280
 141.0343100 151.0469330  79.2602060 126.7074530 148.3870900  68.6050920
 127.4166230 147.9654120  68.1198200 125.9914470 148.4546130  67.9734270
 126.3548690 144.4410230  67.6453570 127.0776820 144.9819170  67.9634790
 126.6273210 144.1673650  66.7695110 140.1640340 149.3102700  71.9125150
 140.6599460 149.0773570  72.6974030 139.9656410 148.4714540  71.4962790
 126.0440880 143.6916420  77.5476190 126.6917070 143.1413800  77.1071350
 126.4642720 143.9459570  78.3692000 141.5927500 147.9463650  74.4462830
 141.4826780 147.7919690  75.3845100 142.3535090 147.4184590  74.2038240
 139.9393220 143.8857780  80.9045830 140.5765440 144.4991920  81.2705020
 140.0868110 143.9218440  79.9595060 142.4817770 145.7771570  67.6868970
 143.4067080 145.6452750  67.4787260 142.4593560 145.8564390  68.6405420
 142.5556260 146.5482230  70.3125680 141.7607760 146.4827350  70.8418590
 142.7599540 147.4832870  70.3011030 125.7972880 143.8472090  80.2901510
 125.4487700 144.3035910  81.0559690 125.4660580 142.9529220  80.3723940
 133.3097700 145.0383970  83.8120930 133.2486590 145.6305800  84.5616340
 134.2498080 144.9309930  83.6671190 135.9472260 144.6954030  83.4513220
 136.5612670 145.0133320  82.7894300 136.4921820 144.2102620  84.0709080
 126.4693520 143.3748290  83.5652280 127.0176510 143.1936340  82.8018390
 126.5348830 142.5842400  84.1008590 136.6880300 143.2586170  79.7782510
 135.8140140 143.5921280  79.5755440 136.5791050 142.7859350  80.6034380
 137.5952280 145.4657040  81.1624230 137.2665640 144.6508800  80.7825960
 138.5434580 145.4226850  81.0389920 134.4355120 144.1756010  78.7175420
 133.6526910 144.6501510  78.9972180 134.1418050 143.2710840  78.6088600
 138.9876190 144.8779110  76.7624510 139.4284280 144.8224210  75.9146110
 138.7183780 145.7937120  76.8334690 140.8514760 144.5094350  74.7733330
 140.7903160 143.5655570  74.6264350 141.6306790 144.6174440  75.3186790
 125.7795530 144.4803490  71.2389140 126.5374890 144.5932370  70.6653170
 125.3172700 145.3172690  71.1932570 132.3209340 146.5942760  74.2291450
 131.5083850 146.2199650  73.8887330 132.8250980 145.8387840  74.5312640
 136.8234320 143.2585210  75.4674520 137.4263690 143.8305420  75.9423040
 136.0827310 143.8224650  75.2448420 139.9668920 143.6606770  70.7414800
 140.1619550 144.5590220  71.0082230 139.1798790 143.4293850  71.2347750
 128.1520680 145.0067540  69.7791110 128.6813440 144.2197340  69.6499060
 128.7849000 145.6858730  70.0126640 130.3458520 144.7442680  72.8336500
 129.7161260 144.0429990  73.0006630 129.8063660 145.5046810  72.6169660
 130.4714080 144.0226660  85.2688990 130.1898350 144.5260260  84.5049810
 130.8533780 143.2248410  84.9031120 137.0729540 143.4380240  85.8469460
 136.9594990 143.7574850  86.7420980 137.8899280 143.8392750  85.5506740
 135.9787690 151.4572710  56.2104200 135.8981740 150.5427320  55.9395910
 135.5652110 151.9539780  55.5043910 126.5363510 148.5073430  52.7531620
 125.6480210 148.8489400  52.6511500 126.8204700 148.3073750  51.8612450
 124.4996520 151.1079080  58.6371320 125.0712630 150.3401280  58.6374960
 124.4998060 151.4067840  57.7277930 125.7421390 146.5163440  60.4240250
 125.5624230 145.6189190  60.7043010 125.3401470 147.0635310  61.0987200
 134.5819890 148.7179300  58.3252560 134.9584710 147.8451180  58.2126230
 134.4839400 149.0538000  57.4343000 128.7124900 147.0904930  53.7870000
 128.8191650 147.9908660  54.0938760 127.8017260 147.0422900  53.4964650
 138.3644010 146.2129740  55.2580900 139.1853630 145.7226310  55.3006380
 138.3978090 146.8027400  56.0112740 126.3608060 149.0123940  59.0322590
 127.0418170 149.2762310  59.6509990 126.0456110 148.1724810  59.3660600
 130.5532630 150.0591300  58.1195180 131.0610850 150.5572270  58.7600200
 131.0845870 149.2826500  57.9434540 142.6543560 148.2296490  61.8224530
 141.9495730 148.6178200  61.3039640 142.9201480 148.9246780  62.4245460
 128.8368730 144.6989860  62.3858600 128.8387170 145.2162250  61.5804500
 128.0073040 144.2220040  62.3628530 138.6005490 148.1530120  58.0308440
 137.8961060 148.4415010  58.6111550 138.9617650 148.9630230  57.6708000
 128.5184060 146.4099820  60.3929050 128.8600870 147.2541870  60.0982920
 127.5799870 146.5583560  60.5094390 141.6692410 147.5984910  58.4217650
 140.7217320 147.6323890  58.5533080 141.9942400 148.4123860  58.8067010
 132.2011950 143.8982090  56.7173640 132.5086930 143.3428980  56.0009140
 131.2712650 144.0326550  56.5346630 134.5761790 148.2347920  50.4500920
 133.6365460 148.3961880  50.5353380 134.8945050 148.9533600  49.9036910
 138.0616560 149.7035760  61.3734820 137.6487740 150.5289470  61.6274810
 137.3292510 149.1180800  61.1811180 130.1949350 152.4895660  56.2353490
 129.7906350 151.7772910  55.7399390 130.2812470 152.1448900  57.1241530
 128.9077970 149.2638870  60.0152530 129.4592560 149.3734210  59.2405780
 129.4221480 149.6376470  60.7307760 140.3771840 144.0180840  49.2782800
 140.0644500 144.1107670  50.1781870 141.1384310 144.5961870  49.2280230
 126.8953980 151.3840640  53.7360140 126.7751580 152.1102730  53.1241410
 126.5854870 150.6143550  53.2588050 141.5873130 148.7552340  65.2556940
 140.9717400 149.2632010  64.7272400 141.2669550 147.8550670  65.1982880
 129.3617640 144.7275710  57.1183810 128.9185790 145.5085250  56.7868330
 129.9202630 145.0505600  57.8254750 133.6487450 147.5944230  62.7219130
 133.1866820 147.8027250  63.5339070 133.2465560 146.7803580  62.4189800
 138.6491960 148.8153180  63.8515790 137.7985550 148.5158930  64.1724860
 138.4893750 149.0595190  62.9399610 135.7441670 150.3154930  65.9514580
 136.0695080 149.4818680  65.6116810 136.5322000 150.8383450  66.0992910
 132.4776460 144.3486410  51.9989640 131.8530640 144.3446280  52.7242950
 132.3906580 143.4817370  51.6025610 131.3993540 145.2723040  58.9773410
 131.6965870 146.1785870  58.8965430 131.9479100 144.7841820  58.3632980
 129.1531860 149.8509280  54.8465060 128.9272780 149.6346450  55.7511680
 128.3724390 150.2837740  54.5011030 136.3829620 149.8572650  53.4455710
 135.7838510 150.5808450  53.2619330 136.9309230 149.7949430  52.6632160
 131.5931070 150.7494860  65.5125330 131.4974670 149.8089590  65.3625730
 132.4363050 150.9709930  65.1173400 134.9894490 148.4936190  55.4758990
 135.3824060 148.8108390  54.6627680 135.3511340 147.6148070  55.5903510
 126.7241610 147.1608530  63.6659110 126.3305000 148.0083740  63.8731890
 126.0360010 146.5234900  63.8567750 133.2986660 147.2443500  66.7355850
 132.6084980 147.0515700  67.3701940 134.0418960 147.5278140  67.2680150
 124.0258660 145.0836990  57.6989190 123.7371710 145.6539850  58.4114170
 124.7704420 144.6041440  58.0620420 124.2128890 149.0257110  48.9091910
 124.1303560 149.9687870  49.0506900 123.8611950 148.8832020  48.0304260
 135.5749630 151.0841940  59.5709770 134.8430750 151.5928750  59.9199870
 135.1773970 150.2671920  59.2698550 132.0127020 147.7596140  57.9762260
 132.0163080 147.3186090  57.1266800 132.9078140 148.0813470  58.0834080
 127.8629400 147.6422630  56.9356470 127.5229450 148.1197860  57.6923520
 127.1006720 147.1887750  56.5757570 132.0747170 148.7608220  50.9669020
 132.1959990 148.7194700  51.9154840 131.6895680 149.6232370  50.8115750
 136.0375540 146.5375620  58.9832710 136.0548280 146.9884270  59.8274560
 135.7891120 145.6381260  59.1966150 131.0868670 151.0709360  50.3652320
 130.5185570 150.6227610  49.7388230 131.7957670 151.4302140  49.8317470
 139.4646290 143.9507800  64.8219090 139.7892060 143.2197460  65.3477070
 139.5002800 143.6321440  63.9200080 125.1775480 146.5641610  55.8521140
 124.8922400 146.1997280  56.6899760 125.1154340 145.8322070  55.2384280
 130.1034360 150.8606560  62.0411880 129.7991430 151.7398540  62.2662240
 131.0580820 150.9206350  62.0769320 134.8514070 145.4570870  52.5734510
 134.0378680 144.9584040  52.4979820 134.6576020 146.2969120  52.1570860
 137.5662460 149.8290520  50.8696670 138.4542080 150.1407750  50.6948010
 137.5367550 148.9562770  50.4777250 126.1598090 151.7009300  63.1883240
 125.8013030 152.3663150  63.7756580 125.8652650 150.8692850  63.5595860
 129.3611210 152.1593540  66.0722790 129.0611350 152.3050720  65.1750610
 130.1322450 151.5998830  65.9796180 139.8376730 151.1402360  50.3376530
 139.7540450 151.5716580  49.4872970 140.5570920 151.6000710  50.7703350
 124.6706140 151.7000560  49.8117840 125.5400990 151.9825360  50.0953760
 124.1796460 152.5136430  49.6966650 127.7352730 143.4311420  54.4048640
 127.6067360 143.4229320  55.3533560 126.9114750 143.7694510  54.0539650
 124.7346660 145.1902540  63.8655340 124.0205180 145.3899460  64.4707950
 125.1541700 144.4142110  64.2370140 136.2285440 147.6824850  61.6156790
 136.5966260 146.8620060  61.9436360 135.3683640 147.7426740  62.0312440
 139.5947470 146.6381790  52.4244350 138.9660630 146.7427460  51.7102580
 139.0999390 146.8578570  53.2138230 131.5631500 148.9167740  53.8402230
 130.8547650 149.3854080  54.2815840 131.8475980 148.2589750  54.4747420
 133.1887430 150.3364440  61.8394760 133.6872680 150.8110260  62.5046610
 133.3310380 149.4127960  62.0464790 135.5946930 145.6418400  55.2798020
 135.4714710 145.6604530  54.3307530 136.5431490 145.6897340  55.3996420
 129.7666520 147.2252820  51.2152940 130.6157050 147.6622970  51.1493130
 129.3997790 147.5373080  52.0425000 140.3954290 146.5532400  62.6823150
 139.8927890 147.2937800  63.0216960 141.2110950 146.9416400  62.3659940
 138.6876300 151.7965580  56.1284510 137.7466440 151.8115810  56.3032200
 139.0020370 151.0101540  56.5744810 127.3604700 150.9110250  50.3721360
 127.4408290 149.9637760  50.4838760 128.2524450 151.2417130  50.4782020
 126.9198580 150.8754760  66.5027600 126.9603920 150.5768630  67.4112830
 127.7744080 151.2762370  66.3435120 128.8604390 149.4546860  64.4702090
 128.3300850 148.9637810  63.8425430 129.5292460 149.8831060  63.9360020
 138.2304620 151.2612480  66.2382430 138.8125390 150.5064800  66.1502910
 138.4066390 151.7919920  65.4613910 129.3476690 146.4209230  64.5499380
 129.2533560 145.8029980  63.8250250 128.7674080 147.1475520  64.3229290
 132.1138130 144.9782470  61.5826770 131.6655430 145.0006730  60.7372320
 131.4803330 144.5801490  62.1797070 134.8561580 151.6052980  63.5877050
 134.9757790 151.0094120  64.3271890 135.7155580 151.6422670  63.1678350
 129.5935870 149.5483540  48.6089270 129.3924930 148.6850900  48.9702610
 129.4227920 149.4616900  47.6710870 131.6230350 148.1474330  64.8452870
 132.2130040 147.8390180  65.5330690 130.8050590 147.6754080  65.0012770
 136.4423780 147.7640140  65.0785890 135.7539300 147.1021680  65.0135880
 137.1629800 147.3178410  65.5234350 137.0724180 144.3591770  51.1376150
 137.3526470 143.5159670  51.4935570 136.2989910 144.5914880  51.6514900
 128.3918670 146.6484160  48.5967150 128.6944570 146.6551590  47.6886300
 129.1313260 146.2982020  49.0934810 131.6103600 145.5918780  49.5823350
 131.2625600 144.9142770  49.0025800 131.8116370 145.1308290  50.3966740
 124.9509240 152.1206430  55.9787720 124.2958080 151.8518070  55.3347420
 125.7887190 152.0110910  55.5289700 137.8999680 146.9147720  50.2006210
 138.3184560 146.7278700  49.3602870 137.5935740 146.0626770  50.5109140
 141.3989410 151.8271860  53.8982010 141.0233010 151.0599790  53.4663300
 140.6692530 152.2094560  54.3856940 125.9885170 152.5059000  60.5191060
 126.3558210 152.4186400  61.3987080 125.4195990 151.7425550  60.4197920
 140.7889030 150.9743380  63.5321530 140.5575120 150.7456130  62.6319480
 141.0493580 151.8942930  63.4866420 125.5401170 149.4168090  64.4249480
 124.6457220 149.3834850  64.7643190 126.0798720 149.6154880  65.1900730
 139.2277100 146.1999810  66.3101230 140.1047280 146.2083210  66.6935230
 139.2397940 145.4630650  65.6993580 124.1647320 149.3305360  51.9213050
 123.2611400 149.5935560  51.7464710 124.6487940 149.6016530  51.1413010
 140.6740370 150.0529350  57.1989250 141.1977850 149.5592000  56.5679420
 141.2599790 150.1879710  57.9436820 140.8530090 150.1369220  60.7208800
 139.9032800 150.1032760  60.8353790 141.0343100 151.0469330  60.4858570
 126.7074530 148.3870900  49.8307430 127.4166230 147.9654120  49.3454710
 125.9914470 148.4546130  49.1990780 126.3548690 144.4410230  48.8710080
 127.0776820 144.9819170  49.1891300 126.6273210 144.1673650  47.9951620
 140.1640340 149.3102700  53.1381660 140.6599460 149.0773570  53.9230540
 139.9656410 148.4714540  52.7219300 126.0440880 143.6916420  58.7732700
 126.6917070 143.1413800  58.3327860 126.4642720 143.9459570  59.5948510
 141.5927500 147.9463650  55.6719340 141.4826780 147.7919690  56.6101610
 142.3535090 147.4184590  55.4294750 139.9393220 143.8857780  62.1302340
 140.5765440 144.4991920  62.4961530 140.0868110 143.9218440  61.1851570
 142.4817770 145.7771570  48.9125480 143.4067080 145.6452750  48.7043770
 142.4593560 145.8564390  49.8661930 142.5556260 146.5482230  51.5382190
 141.7607760 146.4827350  52.0675100 142.7599540 147.4832870  51.5267540
 125.7972880 143.8472090  61.5158020 125.4487700 144.3035910  62.2816200
 125.4660580 142.9529220  61.5980450 133.3097700 145.0383970  65.0377440
 133.2486590 145.6305800  65.7872850 134.2498080 144.9309930  64.8927700
 135.9472260 144.6954030  64.6769730 136.5612670 145.0133320  64.0150810
 136.4921820 144.2102620  65.2965590 126.4693520 143.3748290  64.7908790
 127.0176510 143.1936340  64.0274900 126.5348830 142.5842400  65.3265100
 136.6880300 143.2586170  61.0039020 135.8140140 143.5921280  60.8011950
 136.5791050 142.7859350  61.8290890 137.5952280 145.4657040  62.3880740
 137.2665640 144.6508800  62.0082470 138.5434580 145.4226850  62.2646430
 134.4355120 144.1756010  59.9431930 133.6526910 144.6501510  60.2228690
 134.1418050 143.2710840  59.8345110 138.9876190 144.8779110  57.9881020
 139.4284280 144.8224210  57.1402620 138.7183780 145.7937120  58.0591200
 140.8514760 144.5094350  55.9989840 140.7903160 143.5655570  55.8520860
 141.6306790 144.6174440  56.5443300 125.7795530 144.4803490  52.4645650
 126.5374890 144.5932370  51.8909680 125.3172700 145.3172690  52.4189080
 132.3209340 146.5942760  55.4547960 131.5083850 146.2199650  55.1143840
 132.8250980 145.8387840  55.7569150 136.8234320 143.2585210  56.6931030
 137.4263690 143.8305420  57.1679550 136.0827310 143.8224650  56.4704930
 139.9668920 143.6606770  51.9671310 140.1619550 144.5590220  52.2338740
 139.1798790 143.4293850  52.4604260 128.1520680 145.0067540  51.0047620
 128.6813440 144.2197340  50.8755570 128.7849000 145.6858730  51.2383150
 130.3458520 144.7442680  54.0593010 129.7161260 144.0429990  54.2263140
 129.8063660 145.5046810  53.8426170 130.4714080 144.0226660  66.4945500
 130.1898350 144.5260260  65.7306320 130.8533780 143.2248410  66.1287630
 137.0729540 143.4380240  67.0725970 136.9594990 143.7574850  67.9677490
 137.8899280 143.8392750  66.7763250 135.9787690 151.4572710  37.4360710
 135.8981740 150.5427320  37.1652420 135.5652110 151.9539780  36.7300420
 126.5363510 148.5073430  33.9788130 125.6480210 148.8489400  33.8768010
 126.8204700 148.3073750  33.0868960 124.4996520 151.1079080  39.8627830
 125.0712630 150.3401280  39.8631470 124.4998060 151.4067840  38.9534440
 125.7421390 146.5163440  41.6496760 125.5624230 145.6189190  41.9299520
 125.3401470 147.0635310  42.3243710 134.5819890 148.7179300  39.5509070
 134.9584710 147.8451180  39.4382740 134.4839400 149.0538000  38.6599510
 128.7124900 147.0904930  35.0126510 128.8191650 147.9908660  35.3195270
 127.8017260 147.0422900  34.7221160 138.3644010 146.2129740  36.4837410
 139.1853630 145.7226310  36.5262890 138.3978090 146.8027400  37.2369250
 126.3608060 149.0123940  40.2579100 127.0418170 149.2762310  40.8766500
 126.0456110 148.1724810  40.5917110 130.5532630 150.0591300  39.3451690
 131.0610850 150.5572270  39.9856710 131.0845870 149.2826500  39.1691050
 142.6543560 148.2296490  43.0481040 141.9495730 148.6178200  42.5296150
 142.9201480 148.9246780  43.6501970 128.8368730 144.6989860  43.6115110
 128.8387170 145.2162250  42.8061010 128.0073040 144.2220040  43.5885040
 138.6005490 148.1530120  39.2564950 137.8961060 148.4415010  39.8368060
 138.9617650 148.9630230  38.8964510 128.5184060 146.4099820  41.6185560
 128.8600870 147.2541870  41.3239430 127.5799870 146.5583560  41.7350900
 141.6692410 147.5984910  39.6474160 140.7217320 147.6323890  39.7789590
 141.9942400 148.4123860  40.0323520 132.2011950 143.8982090  37.9430150
 132.5086930 143.3428980  37.2265650 131.2712650 144.0326550  37.7603140
 134.5761790 148.2347920  31.6757430 133.6365460 148.3961880  31.7609890
 134.8945050 148.9533600  31.1293420 138.0616560 149.7035760  42.5991330
 137.6487740 150.5289470  42.8531320 137.3292510 149.1180800  42.4067690
 130.1949350 152.4895660  37.4610000 129.7906350 151.7772910  36.9655900
 130.2812470 152.1448900  38.3498040 128.9077970 149.2638870  41.2409040
 129.4592560 149.3734210  40.4662290 129.4221480 149.6376470  41.9564270
 140.3771840 144.0180840  30.5039310 140.0644500 144.1107670  31.4038380
 141.1384310 144.5961870  30.4536740 126.8953980 151.3840640  34.9616650
 126.7751580 152.1102730  34.3497920 126.5854870 150.6143550  34.4844560
 141.5873130 148.7552340  46.4813450 140.9717400 149.2632010  45.9528910
 141.2669550 147.8550670  46.4239390 129.3617640 144.7275710  38.3440320
 128.9185790 145.5085250  38.0124840 129.9202630 145.0505600  39.0511260
 133.6487450 147.5944230  43.9475640 133.1866820 147.8027250  44.7595580
 133.2465560 146.7803580  43.6446310 138.6491960 148.8153180  45.0772300
 137.7985550 148.5158930  45.3981370 138.4893750 149.0595190  44.1656120
 135.7441670 150.3154930  47.1771090 136.0695080 149.4818680  46.8373320
 136.5322000 150.8383450  47.3249420 132.4776460 144.3486410  33.2246150
 131.8530640 144.3446280  33.9499460 132.3906580 143.4817370  32.8282120
 131.3993540 145.2723040  40.2029920 131.6965870 146.1785870  40.1221940
 131.9479100 144.7841820  39.5889490 129.1531860 149.8509280  36.0721570
 128.9272780 149.6346450  36.9768190 128.3724390 150.2837740  35.7267540
 136.3829620 149.8572650  34.6712220 135.7838510 150.5808450  34.4875840
 136.9309230 149.7949430  33.8888670 131.5931070 150.7494860  46.7381840
 131.4974670 149.8089590  46.5882240 132.4363050 150.9709930  46.3429910
 134.9894490 148.4936190  36.7015500 135.3824060 148.8108390  35.8884190
 135.3511340 147.6148070  36.8160020 126.7241610 147.1608530  44.8915620
 126.3305000 148.0083740  45.0988400 126.0360010 146.5234900  45.0824260
 133.2986660 147.2443500  47.9612360 132.6084980 147.0515700  48.5958450
 134.0418960 147.5278140  48.4936660 124.0258660 145.0836990  38.9245700
 123.7371710 145.6539850  39.6370680 124.7704420 144.6041440  39.2876930
 124.2128890 149.0257110  30.1348420 124.1303560 149.9687870  30.2763410
 123.8611950 148.8832020  29.2560770 135.5749630 151.0841940  40.7966280
 134.8430750 151.5928750  41.1456380 135.1773970 150.2671920  40.4955060
 132.0127020 147.7596140  39.2018770 132.0163080 147.3186090  38.3523310
 132.9078140 148.0813470  39.3090590 127.8629400 147.6422630  38.1612980
 127.5229450 148.1197860  38.9180030 127.1006720 147.1887750  37.8014080
 132.0747170 148.7608220  32.1925530 132.1959990 148.7194700  33.1411350
 131.6895680 149.6232370  32.0372260 136.0375540 146.5375620  40.2089220
 136.0548280 146.9884270  41.0531070 135.7891120 145.6381260  40.4222660
 131.0868670 151.0709360  31.5908830 130.5185570 150.6227610  30.9644740
 131.7957670 151.4302140  31.0573980 139.4646290 143.9507800  46.0475600
 139.7892060 143.2197460  46.5733580 139.5002800 143.6321440  45.1456590
 125.1775480 146.5641610  37.0777650 124.8922400 146.1997280  37.9156270
 125.1154340 145.8322070  36.4640790 130.1034360 150.8606560  43.2668390
 129.7991430 151.7398540  43.4918750 131.0580820 150.9206350  43.3025830
 134.8514070 145.4570870  33.7991020 134.0378680 144.9584040  33.7236330
 134.6576020 146.2969120  33.3827370 137.5662460 149.8290520  32.0953180
 138.4542080 150.1407750  31.9204520 137.5367550 148.9562770  31.7033760
 126.1598090 151.7009300  44.4139750 125.8013030 152.3663150  45.0013090
 125.8652650 150.8692850  44.7852370 129.3611210 152.1593540  47.2979300
 129.0611350 152.3050720  46.4007120 130.1322450 151.5998830  47.2052690
 139.8376730 151.1402360  31.5633040 139.7540450 151.5716580  30.7129480
 140.5570920 151.6000710  31.9959860 124.6706140 151.7000560  31.0374350
 125.5400990 151.9825360  31.3210270 124.1796460 152.5136430  30.9223160
 127.7352730 143.4311420  35.6305150 127.6067360 143.4229320  36.5790070
 126.9114750 143.7694510  35.2796160 124.7346660 145.1902540  45.0911850
 124.0205180 145.3899460  45.6964460 125.1541700 144.4142110  45.4626650
 136.2285440 147.6824850  42.8413300 136.5966260 146.8620060  43.1692870
 135.3683640 147.7426740  43.2568950 139.5947470 146.6381790  33.6500860
 138.9660630 146.7427460  32.9359090 139.0999390 146.8578570  34.4394740
 131.5631500 148.9167740  35.0658740 130.8547650 149.3854080  35.5072350
 131.8475980 148.2589750  35.7003930 133.1887430 150.3364440  43.0651270
 133.6872680 150.8110260  43.7303120 133.3310380 149.4127960  43.2721300
 135.5946930 145.6418400  36.5054530 135.4714710 145.6604530  35.5564040
 136.5431490 145.6897340  36.6252930 129.7666520 147.2252820  32.4409450
 130.6157050 147.6622970  32.3749640 129.3997790 147.5373080  33.2681510
 140.3954290 146.5532400  43.9079660 139.8927890 147.2937800  44.2473470
 141.2110950 146.9416400  43.5916450 138.6876300 151.7965580  37.3541020
 137.7466440 151.8115810  37.5288710 139.0020370 151.0101540  37.8001320
 127.3604700 150.9110250  31.5977870 127.4408290 149.9637760  31.7095270
 128.2524450 151.2417130  31.7038530 126.9198580 150.8754760  47.7284110
 126.9603920 150.5768630  48.6369340 127.7744080 151.2762370  47.5691630
 128.8604390 149.4546860  45.6958600 128.3300850 148.9637810  45.0681940
 129.5292460 149.8831060  45.1616530 138.2304620 151.2612480  47.4638940
 138.8125390 150.5064800  47.3759420 138.4066390 151.7919920  46.6870420
 129.3476690 146.4209230  45.7755890 129.2533560 145.8029980  45.0506760
 128.7674080 147.1475520  45.5485800 132.1138130 144.9782470  42.8083280
 131.6655430 145.0006730  41.9628830 131.4803330 144.5801490  43.4053580
 134.8561580 151.6052980  44.8133560 134.9757790 151.0094120  45.5528400
 135.7155580 151.6422670  44.3934860 129.5935870 149.5483540  29.8345780
 129.3924930 148.6850900  30.1959120 129.4227920 149.4616900  28.8967380
 131.6230350 148.1474330  46.0709380 132.2130040 147.8390180  46.7587200
 130.8050590 147.6754080  46.2269280 136.4423780 147.7640140  46.3042400
 135.7539300 147.1021680  46.2392390 137.1629800 147.3178410  46.7490860
 137.0724180 144.3591770  32.3632660 137.3526470 143.5159670  32.7192080
 136.2989910 144.5914880  32.8771410 128.3918670 146.6484160  29.8223660
 128.6944570 146.6551590  28.9142810 129.1313260 146.2982020  30.3191320
 131.6103600 145.5918780  30.8079860 131.2625600 144.9142770  30.2282310
 131.8116370 145.1308290  31.6223250 124.9509240 152.1206430  37.2044230
 124.2958080 151.8518070  36.5603930 125.7887190 152.0110910  36.7546210
 137.8999680 146.9147720  31.4262720 138.3184560 146.7278700  30.5859380
 137.5935740 146.0626770  31.7365650 141.3989410 151.8271860  35.1238520
 141.0233010 151.0599790  34.6919810 140.6692530 152.2094560  35.6113450
 125.9885170 152.5059000  41.7447570 126.3558210 152.4186400  42.6243590
 125.4195990 151.7425550  41.6454430 140.7889030 150.9743380  44.7578040
 140.5575120 150.7456130  43.8575990 141.0493580 151.8942930  44.7122930
 125.5401170 149.4168090  45.6505990 124.6457220 149.3834850  45.9899700
 126.0798720 149.6154880  46.4157240 139.2277100 146.1999810  47.5357740
 140.1047280 146.2083210  47.9191740 139.2397940 145.4630650  46.9250090
 124.1647320 149.3305360  33.1469560 123.2611400 149.5935560  32.9721220
 124.6487940 149.6016530  32.3669520 140.6740370 150.0529350  38.4245760
 141.1977850 149.5592000  37.7935930 141.2599790 150.1879710  39.1693330
 140.8530090 150.1369220  41.9465310 139.9032800 150.1032760  42.0610300
 141.0343100 151.0469330  41.7115080 126.7074530 148.3870900  31.0563940
 127.4166230 147.9654120  30.5711220 125.9914470 148.4546130  30.4247290
 126.3548690 144.4410230  30.0966590 127.0776820 144.9819170  30.4147810
 126.6273210 144.1673650  29.2208130 140.1640340 149.3102700  34.3638170
 140.6599460 149.0773570  35.1487050 139.9656410 148.4714540  33.9475810
 126.0440880 143.6916420  39.9989210 126.6917070 143.1413800  39.5584370
 126.4642720 143.9459570  40.8205020 141.5927500 147.9463650  36.8975850
 141.4826780 147.7919690  37.8358120 142.3535090 147.4184590  36.6551260
 139.9393220 143.8857780  43.3558850 140.5765440 144.4991920  43.7218040
 140.0868110 143.9218440  42.4108080 142.4817770 145.7771570  30.1381990
 143.4067080 145.6452750  29.9300280 142.4593560 145.8564390  31.0918440
 142.5556260 146.5482230  32.7638700 141.7607760 146.4827350  33.2931610
 142.7599540 147.4832870  32.7524050 125.7972880 143.8472090  42.7414530
 125.4487700 144.3035910  43.5072710 125.4660580 142.9529220  42.8236960
 133.3097700 145.0383970  46.2633950 133.2486590 145.6305800  47.0129360
 134.2498080 144.9309930  46.1184210 135.9472260 144.6954030  45.9026240
 136.5612670 145.0133320  45.2407320 136.4921820 144.2102620  46.5222100
 126.4693520 143.3748290  46.0165300 127.0176510 143.1936340  45.2531410
 126.5348830 142.5842400  46.5521610 136.6880300 143.2586170  42.2295530
 135.8140140 143.5921280  42.0268460 136.5791050 142.7859350  43.0547400
 137.5952280 145.4657040  43.6137250 137.2665640 144.6508800  43.2338980
 138.5434580 145.4226850  43.4902940 134.4355120 144.1756010  41.1688440
 133.6526910 144.6501510  41.4485200 134.1418050 143.2710840  41.0601620
 138.9876190 144.8779110  39.2137530 139.4284280 144.8224210  38.3659130
 138.7183780 145.7937120  39.2847710 140.8514760 144.5094350  37.2246350
 140.7903160 143.5655570  37.0777370 141.6306790 144.6174440  37.7699810
 125.7795530 144.4803490  33.6902160 126.5374890 144.5932370  33.1166190
 125.3172700 145.3172690  33.6445590 132.3209340 146.5942760  36.6804470
 131.5083850 146.2199650  36.3400350 132.8250980 145.8387840  36.9825660
 136.8234320 143.2585210  37.9187540 137.4263690 143.8305420  38.3936060
 136.0827310 143.8224650  37.6961440 139.9668920 143.6606770  33.1927820
 140.1619550 144.5590220  33.4595250 139.1798790 143.4293850  33.6860770
 128.1520680 145.0067540  32.2304130 128.6813440 144.2197340  32.1012080
 128.7849000 145.6858730  32.4639660 130.3458520 144.7442680  35.2849520
 129.7161260 144.0429990  35.4519650 129.8063660 145.5046810  35.0682680
 130.4714080 144.0226660  47.7202010 130.1898350 144.5260260  46.9562830
 130.8533780 143.2248410  47.3544140 137.0729540 143.4380240  48.2982480
 136.9594990 143.7574850  49.1934000 137.8899280 143.8392750  48.0019760
 135.9787690 151.4572710  18.6617220 135.8981740 150.5427320  18.3908930
 135.5652110 151.9539780  17.9556930 126.5363510 148.5073430  15.2044640
 125.6480210 148.8489400  15.1024520 126.8204700 148.3073750  14.3125470
 124.4996520 151.1079080  21.0884340 125.0712630 150.3401280  21.0887980
 124.4998060 151.4067840  20.1790950 125.7421390 146.5163440  22.8753270
 125.5624230 145.6189190  23.1556030 125.3401470 147.0635310  23.5500220
 134.5819890 148.7179300  20.7765580 134.9584710 147.8451180  20.6639250
 134.4839400 149.0538000  19.8856020 128.7124900 147.0904930  16.2383020
 128.8191650 147.9908660  16.5451780 127.8017260 147.0422900  15.9477670
 138.3644010 146.2129740  17.7093920 139.1853630 145.7226310  17.7519400
 138.3978090 146.8027400  18.4625760 126.3608060 149.0123940  21.4835610
 127.0418170 149.2762310  22.1023010 126.0456110 148.1724810  21.8173620
 130.5532630 150.0591300  20.5708200 131.0610850 150.5572270  21.2113220
 131.0845870 149.2826500  20.3947560 142.6543560 148.2296490  24.2737550
 141.9495730 148.6178200  23.7552660 142.9201480 148.9246780  24.8758480
 128.8368730 144.6989860  24.8371620 128.8387170 145.2162250  24.0317520
 128.0073040 144.2220040  24.8141550 138.6005490 148.1530120  20.4821460
 137.8961060 148.4415010  21.0624570 138.9617650 148.9630230  20.1221020
 128.5184060 146.4099820  22.8442070 128.8600870 147.2541870  22.5495940
 127.5799870 146.5583560  22.9607410 141.6692410 147.5984910  20.8730670
 140.7217320 147.6323890  21.0046100 141.9942400 148.4123860  21.2580030
 132.2011950 143.8982090  19.1686660 132.5086930 143.3428980  18.4522160
 131.2712650 144.0326550  18.9859650 134.5761790 148.2347920  12.9013940
 133.6365460 148.3961880  12.9866400 134.8945050 148.9533600  12.3549930
 138.0616560 149.7035760  23.8247840 137.6487740 150.5289470  24.0787830
 137.3292510 149.1180800  23.6324200 130.1949350 152.4895660  18.6866510
 129.7906350 151.7772910  18.1912410 130.2812470 152.1448900  19.5754550
 128.9077970 149.2638870  22.4665550 129.4592560 149.3734210  21.6918800
 129.4221480 149.6376470  23.1820780 140.3771840 144.0180840  11.7295820
 140.0644500 144.1107670  12.6294890 141.1384310 144.5961870  11.6793250
 126.8953980 151.3840640  16.1873160 126.7751580 152.1102730  15.5754430
 126.5854870 150.6143550  15.7101070 141.5873130 148.7552340  27.7069960
 140.9717400 149.2632010  27.1785420 141.2669550 147.8550670  27.6495900
 129.3617640 144.7275710  19.5696830 128.9185790 145.5085250  19.2381350
 129.9202630 145.0505600  20.2767770 133.6487450 147.5944230  25.1732150
 133.1866820 147.8027250  25.9852090 133.2465560 146.7803580  24.8702820
 138.6491960 148.8153180  26.3028810 137.7985550 148.5158930  26.6237880
 138.4893750 149.0595190  25.3912630 135.7441670 150.3154930  28.4027600
 136.0695080 149.4818680  28.0629830 136.5322000 150.8383450  28.5505930
 132.4776460 144.3486410  14.4502660 131.8530640 144.3446280  15.1755970
 132.3906580 143.4817370  14.0538630 131.3993540 145.2723040  21.4286430
 131.6965870 146.1785870  21.3478450 131.9479100 144.7841820  20.8146000
 129.1531860 149.8509280  17.2978080 128.9272780 149.6346450  18.2024700
 128.3724390 150.2837740  16.9524050 136.3829620 149.8572650  15.8968730
 135.7838510 150.5808450  15.7132350 136.9309230 149.7949430  15.1145180
 131.5931070 150.7494860  27.9638350 131.4974670 149.8089590  27.8138750
 132.4363050 150.9709930  27.5686420 134.9894490 148.4936190  17.9272010
 135.3824060 148.8108390  17.1140700 135.3511340 147.6148070  18.0416530
 126.7241610 147.1608530  26.1172130 126.3305000 148.0083740  26.3244910
 126.0360010 146.5234900  26.3080770 133.2986660 147.2443500  29.1868870
 132.6084980 147.0515700  29.8214960 134.0418960 147.5278140  29.7193170
 124.0258660 145.0836990  20.1502210 123.7371710 145.6539850  20.8627190
 124.7704420 144.6041440  20.5133440 124.2128890 149.0257110  11.3604930
 124.1303560 149.9687870  11.5019920 123.8611950 148.8832020  10.4817280
 135.5749630 151.0841940  22.0222790 134.8430750 151.5928750  22.3712890
 135.1773970 150.2671920  21.7211570 132.0127020 147.7596140  20.4275280
 132.0163080 147.3186090  19.5779820 132.9078140 148.0813470  20.5347100
 127.8629400 147.6422630  19.3869490 127.5229450 148.1197860  20.1436540
 127.1006720 147.1887750  19.0270590 132.0747170 148.7608220  13.4182040
 132.1959990 148.7194700  14.3667860 131.6895680 149.6232370  13.2628770
 136.0375540 146.5375620  21.4345730 136.0548280 146.9884270  22.2787580
 135.7891120 145.6381260  21.6479170 131.0868670 151.0709360  12.8165340
 130.5185570 150.6227610  12.1901250 131.7957670 151.4302140  12.2830490
 139.4646290 143.9507800  27.2732110 139.7892060 143.2197460  27.7990090
 139.5002800 143.6321440  26.3713100 125.1775480 146.5641610  18.3034160
 124.8922400 146.1997280  19.1412780 125.1154340 145.8322070  17.6897300
 130.1034360 150.8606560  24.4924900 129.7991430 151.7398540  24.7175260
 131.0580820 150.9206350  24.5282340 134.8514070 145.4570870  15.0247530
 134.0378680 144.9584040  14.9492840 134.6576020 146.2969120  14.6083880
 137.5662460 149.8290520  13.3209690 138.4542080 150.1407750  13.1461030
 137.5367550 148.9562770  12.9290270 126.1598090 151.7009300  25.6396260
 125.8013030 152.3663150  26.2269600 125.8652650 150.8692850  26.0108880
 129.3611210 152.1593540  28.5235810 129.0611350 152.3050720  27.6263630
 130.1322450 151.5998830  28.4309200 139.8376730 151.1402360  12.7889550
 139.7540450 151.5716580  11.9385990 140.5570920 151.6000710  13.2216370
 124.6706140 151.7000560  12.2630860 125.5400990 151.9825360  12.5466780
 124.1796460 152.5136430  12.1479670 127.7352730 143.4311420  16.8561660
 127.6067360 143.4229320  17.8046580 126.9114750 143.7694510  16.5052670
 124.7346660 145.1902540  26.3168360 124.0205180 145.3899460  26.9220970
 125.1541700 144.4142110  26.6883160 136.2285440 147.6824850  24.0669810
 136.5966260 146.8620060  24.3949380 135.3683640 147.7426740  24.4825460
 139.5947470 146.6381790  14.8757370 138.9660630 146.7427460  14.1615600
 139.0999390 146.8578570  15.6651250 131.5631500 148.9167740  16.2915250
 130.8547650 149.3854080  16.7328860 131.8475980 148.2589750  16.9260440
 133.1887430 150.3364440  24.2907780 133.6872680 150.8110260  24.9559630
 133.3310380 149.4127960  24.4977810 135.5946930 145.6418400  17.7311040
 135.4714710 145.6604530  16.7820550 136.5431490 145.6897340  17.8509440
 129.7666520 147.2252820  13.6665960 130.6157050 147.6622970  13.6006150
 129.3997790 147.5373080  14.4938020 140.3954290 146.5532400  25.1336170
 139.8927890 147.2937800  25.4729980 141.2110950 146.9416400  24.8172960
 138.6876300 151.7965580  18.5797530 137.7466440 151.8115810  18.7545220
 139.0020370 151.0101540  19.0257830 127.3604700 150.9110250  12.8234380
 127.4408290 149.9637760  12.9351780 128.2524450 151.2417130  12.9295040
 126.9198580 150.8754760  28.9540620 126.9603920 150.5768630  29.8625850
 127.7744080 151.2762370  28.7948140 128.8604390 149.4546860  26.9215110
 128.3300850 148.9637810  26.2938450 129.5292460 149.8831060  26.3873040
 138.2304620 151.2612480  28.6895450 138.8125390 150.5064800  28.6015930
 138.4066390 151.7919920  27.9126930 129.3476690 146.4209230  27.0012400
 129.2533560 145.8029980  26.2763270 128.7674080 147.1475520  26.7742310
 132.1138130 144.9782470  24.0339790 131.6655430 145.0006730  23.1885340
 131.4803330 144.5801490  24.6310090 134.8561580 151.6052980  26.0390070
 134.9757790 151.0094120  26.7784910 135.7155580 151.6422670  25.6191370
 129.5935870 149.5483540  11.0602290 129.3924930 148.6850900  11.4215630
 129.4227920 149.4616900  10.1223890 131.6230350 148.1474330  27.2965890
 132.2130040 147.8390180  27.9843710 130.8050590 147.6754080  27.4525790
 136.4423780 147.7640140  27.5298910 135.7539300 147.1021680  27.4648900
 137.1629800 147.3178410  27.9747370 137.0724180 144.3591770  13.5889170
 137.3526470 143.5159670  13.9448590 136.2989910 144.5914880  14.1027920
 128.3918670 146.6484160  11.0480170 128.6944570 146.6551590  10.1399320
 129.1313260 146.2982020  11.5447830 131.6103600 145.5918780  12.0336370
 131.2625600 144.9142770  11.4538820 131.8116370 145.1308290  12.8479760
 124.9509240 152.1206430  18.4300740 124.2958080 151.8518070  17.7860440
 125.7887190 152.0110910  17.9802720 137.8999680 146.9147720  12.6519230
 138.3184560 146.7278700  11.8115890 137.5935740 146.0626770  12.9622160
 141.3989410 151.8271860  16.3495030 141.0233010 151.0599790  15.9176320
 140.6692530 152.2094560  16.8369960 125.9885170 152.5059000  22.9704080
 126.3558210 152.4186400  23.8500100 125.4195990 151.7425550  22.8710940
 140.7889030 150.9743380  25.9834550 140.5575120 150.7456130  25.0832500
 141.0493580 151.8942930  25.9379440 125.5401170 149.4168090  26.8762500
 124.6457220 149.3834850  27.2156210 126.0798720 149.6154880  27.6413750
 139.2277100 146.1999810  28.7614250 140.1047280 146.2083210  29.1448250
 139.2397940 145.4630650  28.1506600 124.1647320 149.3305360  14.3726070
 123.2611400 149.5935560  14.1977730 124.6487940 149.6016530  13.5926030
 140.6740370 150.0529350  19.6502270 141.1977850 149.5592000  19.0192440
 141.2599790 150.1879710  20.3949840 140.8530090 150.1369220  23.1721820
 139.9032800 150.1032760  23.2866810 141.0343100 151.0469330  22.9371590
 126.7074530 148.3870900  12.2820450 127.4166230 147.9654120  11.7967730
 125.9914470 148.4546130  11.6503800 126.3548690 144.4410230  11.3223100
 127.0776820 144.9819170  11.6404320 126.6273210 144.1673650  10.4464640
 140.1640340 149.3102700  15.5894680 140.6599460 149.0773570  16.3743560
 139.9656410 148.4714540  15.1732320 126.0440880 143.6916420  21.2245720
 126.6917070 143.1413800  20.7840880 126.4642720 143.9459570  22.0461530
 141.5927500 147.9463650  18.1232360 141.4826780 147.7919690  19.0614630
 142.3535090 147.4184590  17.8807770 139.9393220 143.8857780  24.5815360
 140.5765440 144.4991920  24.9474550 140.0868110 143.9218440  23.6364590
 142.4817770 145.7771570  11.3638500 143.4067080 145.6452750  11.1556790
 142.4593560 145.8564390  12.3174950 142.5556260 146.5482230  13.9895210
 141.7607760 146.4827350  14.5188120 142.7599540 147.4832870  13.9780560
 125.7972880 143.8472090  23.9671040 125.4487700 144.3035910  24.7329220
 125.4660580 142.9529220  24.0493470 133.3097700 145.0383970  27.4890460
 133.2486590 145.6305800  28.2385870 134.2498080 144.9309930  27.3440720
 135.9472260 144.6954030  27.1282750 136.5612670 145.0133320  26.4663830
 136.4921820 144.2102620  27.7478610 126.4693520 143.3748290  27.2421810
 127.0176510 143.1936340  26.4787920 126.5348830 142.5842400  27.7778120
 136.6880300 143.2586170  23.4552040 135.8140140 143.5921280  23.2524970
 136.5791050 142.7859350  24.2803910 137.5952280 145.4657040  24.8393760
 137.2665640 144.6508800  24.4595490 138.5434580 145.4226850  24.7159450
 134.4355120 144.1756010  22.3944950 133.6526910 144.6501510  22.6741710
 134.1418050 143.2710840  22.2858130 138.9876190 144.8779110  20.4394040
 139.4284280 144.8224210  19.5915640 138.7183780 145.7937120  20.5104220
 140.8514760 144.5094350  18.4502860 140.7903160 143.5655570  18.3033880
 141.6306790 144.6174440  18.9956320 125.7795530 144.4803490  14.9158670
 126.5374890 144.5932370  14.3422700 125.3172700 145.3172690  14.8702100
 132.3209340 146.5942760  17.9060980 131.5083850 146.2199650  17.5656860
 132.8250980 145.8387840  18.2082170 136.8234320 143.2585210  19.1444050
 137.4263690 143.8305420  19.6192570 136.0827310 143.8224650  18.9217950
 139.9668920 143.6606770  14.4184330 140.1619550 144.5590220  14.6851760
 139.1798790 143.4293850  14.9117280 128.1520680 145.0067540  13.4560640
 128.6813440 144.2197340  13.3268590 128.7849000 145.6858730  13.6896170
 130.3458520 144.7442680  16.5106030 129.7161260 144.0429990  16.6776160
 129.8063660 145.5046810  16.2939190 130.4714080 144.0226660  28.9458520
 130.1898350 144.5260260  28.1819340 130.8533780 143.2248410  28.5800650
 137.0729540 143.4380240  29.5238990 136.9594990 143.7574850  30.4190510
 137.8899280 143.8392750  29.2276270 125.7421390 146.5163440   4.1009780
 125.5624230 145.6189190   4.3812540 125.3401470 147.0635310   4.7756730
 126.3608060 149.0123940   2.7092120 127.0418170 149.2762310   3.3279520
 126.0456110 148.1724810   3.0430130 130.5532630 150.0591300   1.7964710
 131.0610850 150.5572270   2.4369730 131.0845870 149.2826500   1.6204070
 142.6543560 148.2296490   5.4994060 141.9495730 148.6178200   4.9809170
 142.9201480 148.9246780   6.1014990 128.8368730 144.6989860   6.0628130
 128.8387170 145.2162250   5.2574030 128.0073040 144.2220040   6.0398060
 128.5184060 146.4099820   4.0698580 128.8600870 147.2541870   3.7752450
 127.5799870 146.5583560   4.1863920 141.6692410 147.5984910   2.0987180
 140.7217320 147.6323890   2.2302610 141.9942400 148.4123860   2.4836540
 138.0616560 149.7035760   5.0504350 137.6487740 150.5289470   5.3044340
 137.3292510 149.1180800   4.8580710 128.9077970 149.2638870   3.6922060
 129.4592560 149.3734210   2.9175310 129.4221480 149.6376470   4.4077290
 141.5873130 148.7552340   8.9326470 140.9717400 149.2632010   8.4041930
 141.2669550 147.8550670   8.8752410 133.6487450 147.5944230   6.3988660
 133.1866820 147.8027250   7.2108600 133.2465560 146.7803580   6.0959330
 138.6491960 148.8153180   7.5285320 137.7985550 148.5158930   7.8494390
 138.4893750 149.0595190   6.6169140 135.7441670 150.3154930   9.6284110
 136.0695080 149.4818680   9.2886340 136.5322000 150.8383450   9.7762440
 131.3993540 145.2723040   2.6542940 131.6965870 146.1785870   2.5734960
 131.9479100 144.7841820   2.0402510 131.5931070 150.7494860   9.1894860
 131.4974670 149.8089590   9.0395260 132.4363050 150.9709930   8.7942930
 126.7241610 147.1608530   7.3428640 126.3305000 148.0083740   7.5501420
 126.0360010 146.5234900   7.5337280 133.2986660 147.2443500  10.4125380
 132.6084980 147.0515700  11.0471470 134.0418960 147.5278140  10.9449680
 135.5749630 151.0841940   3.2479300 134.8430750 151.5928750   3.5969400
 135.1773970 150.2671920   2.9468080 136.0375540 146.5375620   2.6602240
 136.0548280 146.9884270   3.5044090 135.7891120 145.6381260   2.8735680
 139.4646290 143.9507800   8.4988620 139.7892060 143.2197460   9.0246600
 139.5002800 143.6321440   7.5969610 130.1034360 150.8606560   5.7181410
 129.7991430 151.7398540   5.9431770 131.0580820 150.9206350   5.7538850
 126.1598090 151.7009300   6.8652770 125.8013030 152.3663150   7.4526110
 125.8652650 150.8692850   7.2365390 129.3611210 152.1593540   9.7492320
 129.0611350 152.3050720   8.8520140 130.1322450 151.5998830   9.6565710
 124.7346660 145.1902540   7.5424870 124.0205180 145.3899460   8.1477480
 125.1541700 144.4142110   7.9139670 136.2285440 147.6824850   5.2926320
 136.5966260 146.8620060   5.6205890 135.3683640 147.7426740   5.7081970
 133.1887430 150.3364440   5.5164290 133.6872680 150.8110260   6.1816140
 133.3310380 149.4127960   5.7234320 140.3954290 146.5532400   6.3592680
 139.8927890 147.2937800   6.6986490 141.2110950 146.9416400   6.0429470
 126.9198580 150.8754760  10.1797130 126.9603920 150.5768630  11.0882360
 127.7744080 151.2762370  10.0204650 128.8604390 149.4546860   8.1471620
 128.3300850 148.9637810   7.5194960 129.5292460 149.8831060   7.6129550
 138.2304620 151.2612480   9.9151960 138.8125390 150.5064800   9.8272440
 138.4066390 151.7919920   9.1383440 129.3476690 146.4209230   8.2268910
 129.2533560 145.8029980   7.5019780 128.7674080 147.1475520   7.9998820
 132.1138130 144.9782470   5.2596300 131.6655430 145.0006730   4.4141850
 131.4803330 144.5801490   5.8566600 134.8561580 151.6052980   7.2646580
 134.9757790 151.0094120   8.0041420 135.7155580 151.6422670   6.8447880
 131.6230350 148.1474330   8.5222400 132.2130040 147.8390180   9.2100220
 130.8050590 147.6754080   8.6782300 136.4423780 147.7640140   8.7555420
 135.7539300 147.1021680   8.6905410 137.1629800 147.3178410   9.2003880
 125.9885170 152.5059000   4.1960590 126.3558210 152.4186400   5.0756610
 125.4195990 151.7425550   4.0967450 140.7889030 150.9743380   7.2091060
 140.5575120 150.7456130   6.3089010 141.0493580 151.8942930   7.1635950
 125.5401170 149.4168090   8.1019010 124.6457220 149.3834850   8.4412720
 126.0798720 149.6154880   8.8670260 139.2277100 146.1999810   9.9870760
 140.1047280 146.2083210  10.3704760 139.2397940 145.4630650   9.3763110
 140.8530090 150.1369220   4.3978330 139.9032800 150.1032760   4.5123320
 141.0343100 151.0469330   4.1628100 126.0440880 143.6916420   2.4502230
 126.6917070 143.1413800   2.0097390 126.4642720 143.9459570   3.2718040
 139.9393220 143.8857780   5.8071870 140.5765440 144.4991920   6.1731060
 140.0868110 143.9218440   4.8621100 125.7972880 143.8472090   5.1927550
 125.4487700 144.3035910   5.9585730 125.4660580 142.9529220   5.2749980
 133.3097700 145.0383970   8.7146970 133.2486590 145.6305800   9.4642380
 134.2498080 144.9309930   8.5697230 135.9472260 144.6954030   8.3539260
 136.5612670 145.0133320   7.6920340 136.4921820 144.2102620   8.9735120
 126.4693520 143.3748290   8.4678320 127.0176510 143.1936340   7.7044430
 126.5348830 142.5842400   9.0034630 136.6880300 143.2586170   4.6808550
 135.8140140 143.5921280   4.4781480 136.5791050 142.7859350   5.5060420
 137.5952280 145.4657040   6.0650270 137.2665640 144.6508800   5.6852000
 138.5434580 145.4226850   5.9415960 134.4355120 144.1756010   3.6201460
 133.6526910 144.6501510   3.8998220 134.1418050 143.2710840   3.5114640
 130.4714080 144.0226660  10.1715030 130.1898350 144.5260260   9.4075850
 130.8533780 143.2248410   9.8057160 137.0729540 143.4380240  10.7495500
 136.9594990 143.7574850  11.6447020 137.8899280 143.8392750  10.4532780
 135.9787690 132.6829220 150.0821650 135.8981740 131.7683830 149.8113360
 135.5652110 133.1796290 149.3761360 138.1313160 138.8668430 150.7430050
 137.6694690 138.0955670 151.0717220 138.9438710 138.8934500 151.2482500
 126.5363510 129.7329940 146.6249070 125.6480210 130.0745910 146.5228950
 126.8204700 129.5330260 145.7329900 134.3576470 141.1526440 150.3634040
 133.7387910 141.6083940 149.7928480 135.2128250 141.3077900 149.9623740
 128.7124900 128.3161440 147.6587450 128.8191650 129.2165170 147.9656210
 127.8017260 128.2679410 147.3682100 138.3644010 127.4386250 149.1298350
 139.1853630 126.9482820 149.1723830 138.3978090 128.0283910 149.8830190
 135.2239820 136.0365680 147.7565950 134.6057090 136.5015130 147.1928670
 135.7363070 136.7293160 148.1735460 124.5923020 136.7222210 145.1305580
 124.2151000 137.2109310 144.3990480 124.8496090 137.3947490 145.7612110
 132.2011950 125.1238600 150.5891090 132.5086930 124.5685490 149.8726590
 131.2712650 125.2583060 150.4064080 139.0472430 137.5622110 147.9688720
 138.9368760 136.6196440 148.0938140 139.0440680 137.9237750 148.8551480
 134.5892710 133.1887430 147.3251210 133.6621990 133.1224810 147.5539680
 134.7417530 134.1267560 147.2106450 134.5761790 129.4604430 144.3218370
 133.6365460 129.6218390 144.4070830 134.8945050 130.1790110 143.7754360
 138.6190000 134.7507730 147.8286460 138.0002420 134.4127280 147.1812760
 138.6014450 134.1067490 148.5365650 130.1949350 133.7152170 150.1070940
 129.7906350 133.0029420 149.6116840 130.2812470 133.3705410 150.9958980
 136.7954700 133.9894540 144.8359210 137.2347980 133.1516970 144.6897030
 137.5083120 134.6223940 144.9223350 134.9050080 138.9290610 148.8040450
 135.3445990 139.6714940 148.3895840 134.8436970 139.1717180 149.7279410
 140.3771840 125.2437350 143.1500250 140.0644500 125.3364180 144.0499320
 141.1384310 125.8218380 143.0997680 126.8953980 132.6097150 147.6077590
 126.7751580 133.3359240 146.9958860 126.5854870 131.8400060 147.1305500
 125.7786980 137.4812480 149.8252410 125.3715060 137.6227070 148.9706010
 126.6699990 137.1972640 149.6223620 137.5720260 141.9159730 146.1603460
 137.4121400 141.6262670 147.0585290 137.4066970 141.1399860 145.6248690
 130.0508640 141.6958260 147.9375080 129.8751120 140.7793800 147.7242880
 129.1964380 142.0545550 148.1772880 137.2746390 139.4247290 144.7201460
 136.5811550 139.4224580 144.0603740 138.0169250 139.0006610 144.2895630
 136.8396320 141.0510000 148.7949950 137.2953270 140.2699380 149.1088570
 137.1788840 141.7616820 149.3391130 129.3617640 125.9532220 150.9901260
 128.9185790 126.7341760 150.6585780 129.9202630 126.2762110 151.6972200
 132.4776460 125.5742920 145.8707090 131.8530640 125.5702790 146.5960400
 132.3906580 124.7073880 145.4743060 129.1531860 131.0765790 148.7182510
 128.9272780 130.8602960 149.6229130 128.3724390 131.5094250 148.3728480
 136.3829620 131.0829160 147.3173160 135.7838510 131.8064960 147.1336780
 136.9309230 131.0205940 146.5349610 134.9894490 129.7192700 149.3476440
 135.3824060 130.0364900 148.5345130 135.3511340 128.8404580 149.4620960
 124.2128890 130.2513620 142.7809360 124.1303560 131.1944380 142.9224350
 123.8611950 130.1088530 141.9021710 127.8629400 128.8679140 150.8073920
 127.5229450 129.3454370 151.5640970 127.1006720 128.4144260 150.4475020
 132.0747170 129.9864730 144.8386470 132.1959990 129.9451210 145.7872290
 131.6895680 130.8488880 144.6833200 131.0868670 132.2965870 144.2369770
 130.5185570 131.8484120 143.6105680 131.7957670 132.6558650 143.7034920
 125.1775480 127.7898120 149.7238590 124.8922400 127.4253790 150.5617210
 125.1154340 127.0578580 149.1101730 128.6316150 136.2924060 146.5096180
 127.8578410 135.7521680 146.3494900 129.3610780 135.7730670 146.1713940
 134.8514070 126.6827380 146.4451960 134.0378680 126.1840550 146.3697270
 134.6576020 127.5225630 146.0288310 137.5662460 131.0547030 144.7414120
 138.4542080 131.3664260 144.5665460 137.5367550 130.1819280 144.3494700
 128.6753550 135.9604440 150.1474990 129.1932220 135.1572700 150.0931880
 128.2237570 135.8983580 150.9891820 133.5623050 137.2270720 145.4202290
 133.9038750 137.9712950 144.9245610 132.7335760 137.5401840 145.7827120
 139.8376730 132.3658870 144.2093980 139.7540450 132.7973090 143.3590420
 140.5570920 132.8257220 144.6420800 140.8663980 139.2201130 146.9376110
 140.2240140 138.5656750 147.2119830 140.4794640 139.6256220 146.1616780
 136.4450460 136.5486560 150.7847800 136.7974280 135.9514690 150.1249170
 135.5612790 136.2230790 150.9556050 132.5313740 137.3084250 148.1918210
 133.2184870 137.8553460 148.5725800 131.7446160 137.8524980 148.2267820
 124.6706140 132.9257070 143.6835290 125.5400990 133.2081870 143.9671210
 124.1796460 133.7392940 143.5684100 131.8340950 134.3130280 147.8043570
 132.2903730 135.1235530 148.0303760 131.4829160 133.9953420 148.6362060
 127.7352730 124.6567930 148.2766090 127.6067360 124.6485830 149.2251010
 126.9114750 124.9951020 147.9257100 139.2561360 138.1117590 143.4752460
 139.0298940 137.3948030 144.0677100 138.8657560 137.8630030 142.6374210
 125.0377390 142.1384450 144.2496920 125.3975030 142.7373790 143.5954190
 124.8969730 142.6844340 145.0231950 138.8377610 136.0289530 145.1366620
 138.5499310 136.4902220 145.9244500 139.6329780 135.5687300 145.4050840
 131.0546010 139.5215650 145.0670590 131.0456110 140.2545340 144.4515100
 130.1344370 139.2747230 145.1597550 126.6552650 134.7430540 145.8117350
 126.0480600 135.4829440 145.8212650 127.1302000 134.8329900 144.9855550
 139.5947470 127.8638300 146.2961800 138.9660630 127.9683970 145.5820030
 139.0999390 128.0835080 147.0855680 134.0405610 139.5843890 143.7295780
 134.1417590 139.3807880 142.7997760 133.1407350 139.3302170 143.9343560
 131.5631500 130.1424250 147.7119680 130.8547650 130.6110590 148.1533290
 131.8475980 129.4846260 148.3464870 135.5946930 126.8674910 149.1515470
 135.4714710 126.8861040 148.2024980 136.5431490 126.9153850 149.2713870
 132.6823720 142.1030210 148.4243450 132.9365220 142.0651600 147.5022820
 131.7336200 141.9763540 148.4171700 129.7666520 128.4509330 145.0870390
 130.6157050 128.8879480 145.0210580 129.3997790 128.7629590 145.9142450
 138.6876300 133.0222090 150.0001960 137.7466440 133.0372320 150.1749650
 139.0020370 132.2358050 150.4462260 128.6657940 134.7041690 143.5605920
 129.4321210 134.5923050 144.1231350 128.7432630 134.0079660 142.9082690
 127.3604700 132.1366760 144.2438810 127.4408290 131.1894270 144.3556210
 128.2524450 132.4673640 144.3499470 128.1619410 142.2862150 151.3473350
 128.8981890 141.7377610 151.6181920 128.5460330 143.1518160 151.2079340
 125.0464890 138.3535720 147.2214860 124.1204670 138.5956860 147.2120270
 125.5121320 139.1809980 147.0999610 131.2721720 141.4592460 143.1698920
 132.0650330 141.7481290 142.7180710 130.7526070 141.0284630 142.4911400
 140.3251890 140.6862590 144.5935660 140.0393400 140.2727730 143.7789840
 140.1271440 141.6150300 144.4736180 131.7899120 136.6795870 143.0341270
 131.6849760 136.0648220 143.7602650 131.6223340 136.1561760 142.2504280
 135.0301850 135.7415900 143.6383260 134.4811950 136.1885200 144.2826000
 135.6521110 135.2365150 144.1620930 130.6976970 134.7006820 145.5348560
 131.1193390 134.5346690 146.3779950 130.8227810 133.8907050 145.0403700
 133.2104610 133.7244430 142.7825660 133.7310270 133.0093450 142.4166810
 133.8573010 134.3630300 143.0826170 129.5935870 130.7740050 142.4806720
 129.3924930 129.9107410 142.8420060 129.4227920 130.6873410 141.5428320
 137.0724180 125.5848280 145.0093600 137.3526470 124.7416180 145.3653020
 136.2989910 125.8171390 145.5232350 128.3918670 127.8740670 142.4684600
 128.6944570 127.8808100 141.5603750 129.1313260 127.5238530 142.9652260
 131.6103600 126.8175290 143.4540800 131.2625600 126.1399280 142.8743250
 131.8116370 126.3564800 144.2684190 133.7752640 141.8056040 145.0727400
 134.6703430 142.1441010 145.0946160 133.8070270 141.0835450 144.4451680
 127.4148800 137.1783090 143.3014400 127.8523670 137.7212760 143.9571980
 127.8996530 136.3530040 143.3110740 124.6294600 139.9672120 150.7534660
 124.9597610 139.0993180 150.5213300 125.0585600 140.1730640 151.5839620
 129.2256520 138.2981130 148.4136630 128.9252060 138.1746100 149.3140540
 129.1194010 137.4389720 148.0052360 141.9948440 138.0777530 143.1163310
 141.1641400 138.1454180 143.5870540 142.1720270 138.9681650 142.8130170
 141.4504900 134.8225010 145.6197510 142.2123810 135.3921660 145.7257200
 141.4659270 134.2552210 146.3905820 124.9509240 133.3462940 149.8505170
 124.2958080 133.0774580 149.2064870 125.7887190 133.2367420 149.4007150
 142.4564870 135.6775110 150.4639440 142.8273700 134.8942430 150.0575410
 143.0966800 136.3664210 150.2856740 141.5024070 135.1159380 142.7770030
 141.7772910 136.0238260 142.6489250 141.3134810 135.0521910 143.7132020
 137.8999680 128.1404230 144.0723660 138.3184560 127.9535210 143.2320320
 137.5935740 127.2883280 144.3826590 141.3989410 133.0528370 147.7699460
 141.0233010 132.2856300 147.3380750 140.6692530 133.4351070 148.2574390
 124.1647320 130.5561870 145.7930500 123.2611400 130.8192070 145.6182160
 124.6487940 130.8273040 145.0130460 126.7074530 129.6127410 143.7024880
 127.4166230 129.1910630 143.2172160 125.9914470 129.6802640 143.0708230
 126.3548690 125.6666740 142.7427530 127.0776820 126.2075680 143.0608750
 126.6273210 125.3930160 141.8669070 140.1640340 130.5359210 147.0099110
 140.6599460 130.3030080 147.7947990 139.9656410 129.6971050 146.5936750
 141.5927500 129.1720160 149.5436790 141.4826780 129.0176200 150.4819060
 142.3535090 128.6441100 149.3012200 142.4817770 127.0028080 142.7842930
 143.4067080 126.8709260 142.5761220 142.4593560 127.0820900 143.7379380
 142.5556260 127.7738740 145.4099640 141.7607760 127.7083860 145.9392550
 142.7599540 128.7089380 145.3984990 139.4974680 141.8130290 149.4038030
 140.0933750 141.4914860 148.7272450 139.7552830 141.3402110 150.1951300
 140.8514760 125.7350860 149.8707290 140.7903160 124.7912080 149.7238310
 141.6306790 125.8430950 150.4160750 125.1567510 141.8743220 148.8331240
 124.9889550 141.2413900 149.5313130 124.2902020 142.0802620 148.4825430
 125.7795530 125.7060000 146.3363100 126.5374890 125.8188880 145.7627130
 125.3172700 126.5429200 146.2906530 132.3209340 127.8199270 149.3265410
 131.5083850 127.4456160 148.9861290 132.8250980 127.0644350 149.6286600
 136.8234320 124.4841720 150.5648480 137.4263690 125.0561930 151.0397000
 136.0827310 125.0481160 150.3422380 139.9668920 124.8863280 145.8388760
 140.1619550 125.7846730 146.1056190 139.1798790 124.6550360 146.3321710
 126.7630210 140.5676450 146.2781380 126.2377830 140.9484480 145.5743340
 126.6874790 141.1927220 146.9991090 128.1520680 126.2324050 144.8765070
 128.6813440 125.4453850 144.7473020 128.7849000 126.9115240 145.1100600
 130.3458520 125.9699190 147.9310460 129.7161260 125.2686500 148.0980590
 129.8063660 126.7303320 147.7143620 141.5195530 142.1263990 147.5995320
 141.6947720 141.4401730 146.9556240 140.8217100 142.6511040 147.2071990
 129.3623180 142.5158830 145.1530630 130.0942000 142.2318110 144.6054520
 129.6216850 142.2772110 146.0430010 128.5237970 138.6323560 145.1576960
 127.8946850 139.1008660 145.7062790 128.6385800 137.7872780 145.5923150
 135.9787690 132.6829220 131.3078160 135.8981740 131.7683830 131.0369870
 135.5652110 133.1796290 130.6017870 134.1105730 134.4608240 133.1887430
 133.3347830 133.9808680 133.4786000 134.7618660 133.7813890 133.0143590
 128.1271560 134.7728050 134.0663190 127.2956440 134.5176760 134.4659700
 128.7352540 134.8438820 134.8021110 138.1313160 138.8668430 131.9686560
 137.6694690 138.0955670 132.2973730 138.9438710 138.8934500 132.4739010
 128.1072820 138.8068140 134.2621210 128.4100860 137.9165880 134.0831430
 128.8516410 139.3638360 134.0343460 126.5363510 129.7329940 127.8505580
 125.6480210 130.0745910 127.7485460 126.8204700 129.5330260 126.9586410
 124.4996520 132.3335590 133.7345280 125.0712630 131.5657790 133.7348920
 124.4998060 132.6324350 132.8251890 134.3576470 141.1526440 131.5890550
 133.7387910 141.6083940 131.0184990 135.2128250 141.3077900 131.1880250
 133.5514720 137.1365430 133.1957590 133.4823000 136.1955370 133.0346720
 134.3134580 137.2266840 133.7680160 125.7421390 127.7419950 135.5214210
 125.5624230 126.8445700 135.8016970 125.3401470 128.2891820 136.1961160
 134.5819890 129.9435810 133.4226520 134.9584710 129.0707690 133.3100190
 134.4839400 130.2794510 132.5316960 128.7124900 128.3161440 128.8843960
 128.8191650 129.2165170 129.1912720 127.8017260 128.2679410 128.5938610
 138.3644010 127.4386250 130.3554860 139.1853630 126.9482820 130.3980340
 138.3978090 128.0283910 131.1086700 126.3608060 130.2380450 134.1296550
 127.0418170 130.5018820 134.7483950 126.0456110 129.3981320 134.4634560
 130.5532630 131.2847810 133.2169140 131.0610850 131.7828780 133.8574160
 131.0845870 130.5083010 133.0408500 142.6543560 129.4553000 136.9198490
 141.9495730 129.8434710 136.4013600 142.9201480 130.1503290 137.5219420
 128.8368730 125.9246370 137.4832560 128.8387170 126.4418760 136.6778460
 128.0073040 125.4476550 137.4602490 135.2239820 136.0365680 128.9822460
 134.6057090 136.5015130 128.4185180 135.7363070 136.7293160 129.3991970
 130.0871580 135.5641550 135.6606060 129.7540960 136.1910470 136.3027130
 130.2638260 136.0903430 134.8807730 138.6005490 129.3786630 133.1282400
 137.8961060 129.6671520 133.7085510 138.9617650 130.1886740 132.7681960
 128.5184060 127.6356330 135.4903010 128.8600870 128.4798380 135.1956880
 127.5799870 127.7840070 135.6068350 129.2990680 137.5322350 137.4755240
 129.9164680 138.2073430 137.1939690 128.4383800 137.9410330 137.3842740
 124.5923020 136.7222210 126.3562090 124.2151000 137.2109310 125.6246990
 124.8496090 137.3947490 126.9868620 140.2168270 138.9961760 135.3909880
 139.5331790 139.6660870 135.3826550 140.7562560 139.1942410 134.6254740
 141.6692410 128.8241420 133.5191610 140.7217320 128.8580400 133.6507040
 141.9942400 129.6380370 133.9040970 132.2011950 125.1238600 131.8147600
 132.5086930 124.5685490 131.0983100 131.2712650 125.2583060 131.6320590
 137.7527010 140.8405890 134.1055060 137.7654170 140.4368180 133.2377320
 137.2002230 141.6153180 134.0016490 139.0472430 137.5622110 129.1945230
 138.9368760 136.6196440 129.3194650 139.0440680 137.9237750 130.0807990
 137.1512450 135.7435730 135.4337670 137.5681240 135.5295840 134.5991130
 137.8752270 136.0008520 136.0046290 134.5892710 133.1887430 128.5507720
 133.6621990 133.1224810 128.7796190 134.7417530 134.1267560 128.4362960
 134.5761790 129.4604430 125.5474880 133.6365460 129.6218390 125.6327340
 134.8945050 130.1790110 125.0010870 141.0974550 134.1422950 135.5253910
 140.2693180 134.2116040 135.0504040 141.6925030 134.7277260 135.0569740
 138.6190000 134.7507730 129.0542970 138.0002420 134.4127280 128.4069270
 138.6014450 134.1067490 129.7622160 138.0616560 130.9292270 136.4708780
 137.6487740 131.7545980 136.7248770 137.3292510 130.3437310 136.2785140
 130.1949350 133.7152170 131.3327450 129.7906350 133.0029420 130.8373350
 130.2812470 133.3705410 132.2215490 130.6631050 137.4019730 133.4966660
 130.3659340 136.7965200 132.8174440 131.6130870 137.4397040 133.3856020
 128.9077970 130.4895380 135.1126490 129.4592560 130.5990720 134.3379740
 129.4221480 130.8632980 135.8281720 138.7516660 140.9751600 137.1589760
 138.2747220 141.7823790 136.9662370 138.0678450 140.3229930 137.3115970
 129.7549480 137.1401420 140.1474460 128.8578010 137.3641390 140.3947860
 129.7802350 137.2636360 139.1985860 136.7954700 133.9894540 126.0615720
 137.2347980 133.1516970 125.9153540 137.5083120 134.6223940 126.1479860
 128.5820700 134.0114740 138.7231830 128.4428470 134.8837540 139.0919230
 127.7002060 133.6687550 138.5779770 134.9050080 138.9290610 130.0296960
 135.3445990 139.6714940 129.6152350 134.8436970 139.1717180 130.9535920
 130.3801050 139.9536440 140.9316980 130.3516480 140.3579390 140.0645410
 130.2166020 139.0246800 140.7688580 140.3771840 125.2437350 124.3756760
 140.0644500 125.3364180 125.2755830 141.1384310 125.8218380 124.3254190
 126.8953980 132.6097150 128.8334100 126.7751580 133.3359240 128.2215370
 126.5854870 131.8400060 128.3562010 142.3315870 140.7363540 142.2281150
 142.8075590 141.2146430 142.9070230 142.9523030 140.6681030 141.5026650
 124.5339350 135.7812290 134.6402740 124.6119770 135.9161060 133.6958460
 125.1481030 135.0728180 134.8330860 125.7786980 137.4812480 131.0508920
 125.3715060 137.6227070 130.1962520 126.6699990 137.1972640 130.8480130
 141.7349120 137.9276390 139.3881160 141.8612180 137.6888270 138.4698340
 141.7770500 137.0960930 139.8603240 135.5965860 141.6304390 137.9575970
 136.1110530 141.5412400 138.7598400 134.7534940 141.9764090 138.2503880
 137.5720260 141.9159730 127.3859970 137.4121400 141.6262670 128.2841800
 137.4066970 141.1399860 126.8505200 130.0508640 141.6958260 129.1631590
 129.8751120 140.7793800 128.9499390 129.1964380 142.0545550 129.4029390
 137.2746390 139.4247290 125.9457970 136.5811550 139.4224580 125.2860250
 138.0169250 139.0006610 125.5152140 136.8396320 141.0510000 130.0206460
 137.2953270 140.2699380 130.3345080 137.1788840 141.7616820 130.5647640
 141.5873130 129.9808850 140.3530900 140.9717400 130.4888520 139.8246360
 141.2669550 129.0807180 140.2956840 124.5898870 136.8226460 137.1797200
 124.7529910 136.3531820 136.3616570 125.0551320 136.3150020 137.8446040
 129.3617640 125.9532220 132.2157770 128.9185790 126.7341760 131.8842290
 129.9202630 126.2762110 132.9228710 133.6487450 128.8200740 137.8193090
 133.1866820 129.0283760 138.6313030 133.2465560 128.0060090 137.5163760
 138.6491960 130.0409690 138.9489750 137.7985550 129.7415440 139.2698820
 138.4893750 130.2851700 138.0373570 135.7441670 131.5411440 141.0488540
 136.0695080 130.7075190 140.7090770 136.5322000 132.0639960 141.1966870
 132.4776460 125.5742920 127.0963600 131.8530640 125.5702790 127.8216910
 132.3906580 124.7073880 126.6999570 131.3993540 126.4979550 134.0747370
 131.6965870 127.4042380 133.9939390 131.9479100 126.0098330 133.4606940
 129.1531860 131.0765790 129.9439020 128.9272780 130.8602960 130.8485640
 128.3724390 131.5094250 129.5984990 136.3829620 131.0829160 128.5429670
 135.7838510 131.8064960 128.3593290 136.9309230 131.0205940 127.7606120
 131.5931070 131.9751370 140.6099290 131.4974670 131.0346100 140.4599690
 132.4363050 132.1966440 140.2147360 134.9894490 129.7192700 130.5732950
 135.3824060 130.0364900 129.7601640 135.3511340 128.8404580 130.6877470
 126.7241610 128.3865040 138.7633070 126.3305000 129.2340250 138.9705850
 126.0360010 127.7491410 138.9541710 133.2986660 128.4700010 141.8329810
 132.6084980 128.2772210 142.4675900 134.0418960 128.7534650 142.3654110
 124.0258660 126.3093500 132.7963150 123.7371710 126.8796360 133.5088130
 124.7704420 125.8297950 133.1594380 124.2128890 130.2513620 124.0065870
 124.1303560 131.1944380 124.1480860 123.8611950 130.1088530 123.1278220
 135.5749630 132.3098450 134.6683730 134.8430750 132.8185260 135.0173830
 135.1773970 131.4928430 134.3672510 132.0127020 128.9852650 133.0736220
 132.0163080 128.5442600 132.2240760 132.9078140 129.3069980 133.1808040
 127.8629400 128.8679140 132.0330430 127.5229450 129.3454370 132.7897480
 127.1006720 128.4144260 131.6731530 132.0747170 129.9864730 126.0642980
 132.1959990 129.9451210 127.0128800 131.6895680 130.8488880 125.9089710
 136.0375540 127.7632130 134.0806670 136.0548280 128.2140780 134.9248520
 135.7891120 126.8637770 134.2940110 131.0868670 132.2965870 125.4626280
 130.5185570 131.8484120 124.8362190 131.7957670 132.6558650 124.9291430
 139.4646290 125.1764310 139.9193050 139.7892060 124.4453970 140.4451030
 139.5002800 124.8577950 139.0174040 126.1637850 136.1977890 139.3393010
 125.7792640 135.5571560 139.9375970 126.4750040 136.9014010 139.9087740
 132.3134990 133.0454430 134.8201630 132.6805120 132.5713000 135.5662970
 132.1240050 133.9196000 135.1609970 125.1775480 127.7898120 130.9495100
 124.8922400 127.4253790 131.7873720 125.1154340 127.0578580 130.3358240
 130.1034360 132.0863070 137.1385840 129.7991430 132.9655050 137.3636200
 131.0580820 132.1462860 137.1743280 128.6316150 136.2924060 127.7352690
 127.8578410 135.7521680 127.5751410 129.3610780 135.7730670 127.3970450
 139.3904130 135.2889420 133.5279080 140.1103250 135.7844710 133.1375190
 139.1885950 134.6107310 132.8832950 134.8514070 126.6827380 127.6708470
 134.0378680 126.1840550 127.5953780 134.6576020 127.5225630 127.2544820
 134.7722930 135.3598480 139.4148080 134.7060240 134.4394150 139.1605670
 134.1428070 135.4573920 140.1292720 137.5662460 131.0547030 125.9670630
 138.4542080 131.3664260 125.7921970 137.5367550 130.1819280 125.5751210
 128.6753550 135.9604440 131.3731500 129.1932220 135.1572700 131.3188390
 128.2237570 135.8983580 132.2148330 133.5623050 137.2270720 126.6458800
 133.9038750 137.9712950 126.1502120 132.7335760 137.5401840 127.0083630
 126.1598090 132.9265810 138.2857200 125.8013030 133.5919660 138.8730540
 125.8652650 132.0949360 138.6569820 129.3611210 133.3850050 141.1696750
 129.0611350 133.5307230 140.2724570 130.1322450 132.8255340 141.0770140
 134.7039660 138.1819050 139.1651880 134.7184200 137.2500010 138.9470790
 133.9964760 138.2678810 139.8041650 139.8376730 132.3658870 125.4350490
 139.7540450 132.7973090 124.5846930 140.5570920 132.8257220 125.8677310
 140.9150870 134.8226390 138.5120460 140.1899060 135.4155170 138.3149850
 141.4426330 134.8149930 137.7133830 140.8663980 139.2201130 128.1632620
 140.2240140 138.5656750 128.4376340 140.4794640 139.6256220 127.3873290
 136.4450460 136.5486560 132.0104310 136.7974280 135.9514690 131.3505680
 135.5612790 136.2230790 132.1812560 132.5313740 137.3084250 129.4174720
 133.2184870 137.8553460 129.7982310 131.7446160 137.8524980 129.4524330
 124.6706140 132.9257070 124.9091800 125.5400990 133.2081870 125.1927720
 124.1796460 133.7392940 124.7940610 131.8340950 134.3130280 129.0300080
 132.2903730 135.1235530 129.2560270 131.4829160 133.9953420 129.8618570
 134.1373560 139.8236620 136.2592380 134.7815780 140.0296000 136.9365800
 134.5003000 139.0625020 135.8063230 127.7352730 124.6567930 129.5022600
 127.6067360 124.6485830 130.4507520 126.9114750 124.9951020 129.1513610
 135.4105640 137.8268970 134.9769830 136.0527870 137.1262130 135.0902000
 135.9354990 138.6067410 134.7966720 139.2561360 138.1117590 124.7008970
 139.0298940 137.3948030 125.2933610 138.8657560 137.8630030 123.8630720
 137.1843260 138.6263870 138.1805890 137.5199500 139.2130560 138.8583810
 136.2643600 138.4956580 138.4103680 125.0377390 142.1384450 125.4753430
 125.3975030 142.7373790 124.8210700 124.8969730 142.6844340 126.2488460
 124.7346660 126.4159050 138.9629300 124.0205180 126.6155970 139.5681910
 125.1541700 125.6398620 139.3344100 138.8377610 136.0289530 126.3623130
 138.5499310 136.4902220 127.1501010 139.6329780 135.5687300 126.6307350
 125.0219250 140.4039310 139.9495830 125.1310370 139.4634050 139.8091220
 124.3699810 140.6694060 139.3009560 133.0131840 138.6755200 141.3493950
 132.6928710 137.9564440 141.8939640 132.3390200 139.3510270 141.4230010
 131.0546010 139.5215650 126.2927100 131.0456110 140.2545340 125.6771610
 130.1344370 139.2747230 126.3854060 126.6552650 134.7430540 127.0373860
 126.0480600 135.4829440 127.0469160 127.1302000 134.8329900 126.2112060
 136.2285440 128.9081360 136.7130750 136.5966260 128.0876570 137.0410320
 135.3683640 128.9683250 137.1286400 139.5947470 127.8638300 127.5218310
 138.9660630 127.9683970 126.8076540 139.0999390 128.0835080 128.3112190
 134.0405610 139.5843890 124.9552290 134.1417590 139.3807880 124.0254270
 133.1407350 139.3302170 125.1600070 131.5631500 130.1424250 128.9376190
 130.8547650 130.6110590 129.3789800 131.8475980 129.4846260 129.5721380
 133.1887430 131.5620950 136.9368720 133.6872680 132.0366770 137.6020570
 133.3310380 130.6384470 137.1438750 135.5946930 126.8674910 130.3771980
 135.4714710 126.8861040 129.4281490 136.5431490 126.9153850 130.4970380
 132.6823720 142.1030210 129.6499960 132.9365220 142.0651600 128.7279330
 131.7336200 141.9763540 129.6428210 129.7666520 128.4509330 126.3126900
 130.6157050 128.8879480 126.2467090 129.3997790 128.7629590 127.1398960
 140.3954290 127.7788910 137.7797110 139.8927890 128.5194310 138.1190920
 141.2110950 128.1672910 137.4633900 138.6876300 133.0222090 131.2258470
 137.7466440 133.0372320 131.4006160 139.0020370 132.2358050 131.6718770
 128.6657940 134.7041690 124.7862430 129.4321210 134.5923050 125.3487860
 128.7432630 134.0079660 124.1339200 127.3604700 132.1366760 125.4695320
 127.4408290 131.1894270 125.5812720 128.2524450 132.4673640 125.5755980
 140.6901880 140.1930940 132.9012730 140.8149300 141.0162110 133.3736540
 141.5567440 139.9821670 132.5536880 128.1619410 142.2862150 132.5729860
 128.8981890 141.7377610 132.8438430 128.5460330 143.1518160 132.4335850
 125.0464890 138.3535720 128.4471370 124.1204670 138.5956860 128.4376780
 125.5121320 139.1809980 128.3256120 127.1677690 141.4708220 141.7615440
 127.9690420 141.7920270 142.1750840 126.6529510 141.1103800 142.4835350
 131.2721720 141.4592460 124.3955430 132.0650330 141.7481290 123.9437220
 130.7526070 141.0284630 123.7167910 136.0042320 137.5788090 141.7090850
 135.3980480 137.6019690 140.9686600 135.6996430 136.8471130 142.2458100
 137.4342690 141.3068380 140.3200260 138.3864440 141.2226400 140.2700500
 137.2870910 141.9710090 140.9934050 140.3251890 140.6862590 125.8192170
 140.0393400 140.2727730 125.0046350 140.1271440 141.6150300 125.6992690
 124.8875500 133.9581680 140.7051490 125.3914520 133.3788960 141.2767720
 124.1482920 134.2421910 141.2427860 131.7899120 136.6795870 124.2597780
 131.6849760 136.0648220 124.9859160 131.6223340 136.1561760 123.4760790
 131.9413440 135.3652670 140.2387010 131.1759110 135.9337670 140.1541680
 132.1229400 135.0728880 139.3455240 135.0301850 135.7415900 124.8639770
 134.4811950 136.1885200 125.5082510 135.6521110 135.2365150 125.3877440
 139.0836790 137.0958000 140.7962030 139.8246260 137.4333760 140.2929490
 138.3209470 137.2650060 140.2431800 126.9198580 132.1011270 141.6001560
 126.9603920 131.8025140 142.5086790 127.7744080 132.5018880 141.4409080
 130.6976970 134.7006820 126.7605070 131.1193390 134.5346690 127.6036460
 130.8227810 133.8907050 126.2660210 128.8604390 130.6803370 139.5676050
 128.3300850 130.1894320 138.9399390 129.5292460 131.1087570 139.0333980
 133.2104610 133.7244430 124.0082170 133.7310270 133.0093450 123.6423320
 133.8573010 134.3630300 124.3082680 137.7582450 135.1472830 139.3317240
 138.1723470 135.3017910 140.1807660 136.8233450 135.2728050 139.4943020
 138.2304620 132.4868990 141.3356390 138.8125390 131.7321310 141.2476870
 138.4066390 133.0176430 140.5587870 129.3476690 127.6465740 139.6473340
 129.2533560 127.0286490 138.9224210 128.7674080 128.3732030 139.4203250
 132.1138130 126.2038980 136.6800730 131.6655430 126.2263240 135.8346280
 131.4803330 125.8058000 137.2771030 132.5197680 135.0993310 137.3013170
 132.9385790 135.9426040 137.1289410 131.6006310 135.2365350 137.0719950
 134.8561580 132.8309490 138.6851010 134.9757790 132.2350630 139.4245850
 135.7155580 132.8679180 138.2652310 137.1949480 133.3846680 137.2613520
 136.6684700 133.9089300 136.6578660 137.5380820 134.0174070 137.8923250
 129.5935870 130.7740050 123.7063230 129.3924930 129.9107410 124.0676570
 129.4227920 130.6873410 122.7684830 130.3705100 141.4046320 138.4170900
 129.8326190 142.1292380 138.0979600 130.6239060 140.9276660 137.6268240
 131.6230350 129.3730840 139.9426830 132.2130040 129.0646690 140.6304650
 130.8050590 128.9010590 140.0986730 136.4423780 128.9896650 140.1759850
 135.7539300 128.3278190 140.1109840 137.1629800 128.5434920 140.6208310
 137.0724180 125.5848280 126.2350110 137.3526470 124.7416180 126.5909530
 136.2989910 125.8171390 126.7488860 128.3918670 127.8740670 123.6941110
 128.6944570 127.8808100 122.7860260 129.1313260 127.5238530 124.1908770
 133.2267310 142.6397530 138.6757550 133.1526010 143.5432670 138.9829920
 132.3246150 142.3209430 138.6479620 131.6103600 126.8175290 124.6797310
 131.2625600 126.1399280 124.0999760 131.8116370 126.3564800 125.4940700
 133.7752640 141.8056040 126.2983910 134.6703430 142.1441010 126.3202670
 133.8070270 141.0835450 125.6708190 127.4148800 137.1783090 124.5270910
 127.8523670 137.7212760 125.1828490 127.8996530 136.3530040 124.5367250
 124.6294600 139.9672120 131.9791170 124.9597610 139.0993180 131.7469810
 125.0585600 140.1730640 132.8096130 129.2256520 138.2981130 129.6393140
 128.9252060 138.1746100 130.5397050 129.1194010 137.4389720 129.2308870
 125.1184810 140.8342710 134.7172800 124.6815800 141.0143510 135.5496950
 125.6862490 141.5917330 134.5754520 140.7546990 140.3359710 139.0050110
 140.1548980 140.3952270 138.2614030 140.8840890 139.3964690 139.1346960
 141.9948440 138.0777530 124.3419820 141.1641400 138.1454180 124.8127050
 142.1720270 138.9681650 124.0386680 141.4504900 134.8225010 126.8454020
 142.2123810 135.3921660 126.9513710 141.4659270 134.2552210 127.6162330
 124.9509240 133.3462940 131.0761680 124.2958080 133.0774580 130.4321380
 125.7887190 133.2367420 130.6263660 142.4564870 135.6775110 131.6895950
 142.8273700 134.8942430 131.2831920 143.0966800 136.3664210 131.5113250
 139.4398630 137.0611690 137.1026270 138.6258470 137.4908850 137.3652060
 139.8472830 137.6730100 136.4895320 141.5024070 135.1159380 124.0026540
 141.7772910 136.0238260 123.8745760 141.3134810 135.0521910 124.9388530
 137.8999680 128.1404230 125.2980170 138.3184560 127.9535210 124.4576830
 137.5935740 127.2883280 125.6083100 141.3989410 133.0528370 128.9955970
 141.0233010 132.2856300 128.5637260 140.6692530 133.4351070 129.4830900
 125.9885170 133.7315510 135.6165020 126.3558210 133.6442910 136.4961040
 125.4195990 132.9682060 135.5171880 140.7889030 132.1999890 138.6295490
 140.5575120 131.9712640 137.7293440 141.0493580 133.1199440 138.5840380
 125.5401170 130.6424600 139.5223440 124.6457220 130.6091360 139.8617150
 126.0798720 130.8411390 140.2874690 139.2277100 127.4256320 141.4075190
 140.1047280 127.4339720 141.7909190 139.2397940 126.6887160 140.7967540
 124.1647320 130.5561870 127.0187010 123.2611400 130.8192070 126.8438670
 124.6487940 130.8273040 126.2386970 140.6740370 131.2785860 132.2963210
 141.1977850 130.7848510 131.6653380 141.2599790 131.4136220 133.0410780
 140.8530090 131.3625730 135.8182760 139.9032800 131.3289270 135.9327750
 141.0343100 132.2725840 135.5832530 126.7074530 129.6127410 124.9281390
 127.4166230 129.1910630 124.4428670 125.9914470 129.6802640 124.2964740
 126.3548690 125.6666740 123.9684040 127.0776820 126.2075680 124.2865260
 126.6273210 125.3930160 123.0925580 140.1640340 130.5359210 128.2355620
 140.6599460 130.3030080 129.0204500 139.9656410 129.6971050 127.8193260
 126.0440880 124.9172930 133.8706660 126.6917070 124.3670310 133.4301820
 126.4642720 125.1716080 134.6922470 141.5927500 129.1720160 130.7693300
 141.4826780 129.0176200 131.7075570 142.3535090 128.6441100 130.5268710
 139.9393220 125.1114290 137.2276300 140.5765440 125.7248430 137.5935490
 140.0868110 125.1474950 136.2825530 142.4817770 127.0028080 124.0099440
 143.4067080 126.8709260 123.8017730 142.4593560 127.0820900 124.9635890
 142.5556260 127.7738740 126.6356150 141.7607760 127.7083860 127.1649060
 142.7599540 128.7089380 126.6241500 139.4974680 141.8130290 130.6294540
 140.0933750 141.4914860 129.9528960 139.7552830 141.3402110 131.4207810
 125.7972880 125.0728600 136.6131980 125.4487700 125.5292420 137.3790160
 125.4660580 124.1785730 136.6954410 127.4037250 138.2448200 140.7785170
 127.3606880 137.8741110 141.6599630 127.5348260 139.1825770 140.9186990
 131.1043280 139.8007790 136.3794890 130.8634640 140.0682350 135.4925410
 132.0445920 139.9713520 136.4345750 133.3097700 126.2640480 140.1351400
 133.2486590 126.8562310 140.8846810 134.2498080 126.1566440 139.9901660
 135.9472260 125.9210540 139.7743690 136.5612670 126.2389830 139.1124770
 136.4921820 125.4359130 140.3939550 142.3647440 141.8202170 137.1805530
 141.8705720 142.2171040 136.4632660 141.7560730 141.1951380 137.5742810
 126.4693520 124.6004800 139.8882750 127.0176510 124.4192850 139.1248860
 126.5348830 123.8098910 140.4239060 127.2425280 141.1910450 137.8982950
 126.6485600 141.0595150 138.6372990 127.2349120 140.3548590 137.4325050
 136.6880300 124.4842680 136.1012980 135.8140140 124.8177790 135.8985910
 136.5791050 124.0115860 136.9264850 137.5952280 126.6913550 137.4854700
 137.2665640 125.8765310 137.1056430 138.5434580 126.6483360 137.3620390
 140.0486890 142.4625590 134.4592270 139.5889860 143.2141400 134.0850290
 139.4199350 141.7432060 134.4007070 126.8737510 138.5568830 136.8490990
 126.1471570 137.9374120 136.7816940 126.9346660 138.9509440 135.9789070
 130.4782610 140.7713830 133.6340400 130.9947630 140.1601190 133.1088660
 131.1279990 141.2742610 134.1251410 133.2178110 141.6622320 134.4609380
 133.5055920 141.4076620 133.5842390 133.7301330 141.1099680 135.0514950
 134.4355120 125.4012520 135.0405890 133.6526910 125.8758020 135.3202650
 134.1418050 124.4967350 134.9319070 138.9876190 126.1035620 133.0854980
 139.4284280 126.0480720 132.2376580 138.7183780 127.0193630 133.1565160
 140.8514760 125.7350860 131.0963800 140.7903160 124.7912080 130.9494820
 141.6306790 125.8430950 131.6417260 125.1567510 141.8743220 130.0587750
 124.9889550 141.2413900 130.7569640 124.2902020 142.0802620 129.7081940
 125.7795530 125.7060000 127.5619610 126.5374890 125.8188880 126.9883640
 125.3172700 126.5429200 127.5163040 132.3209340 127.8199270 130.5521920
 131.5083850 127.4456160 130.2117800 132.8250980 127.0644350 130.8543110
 136.8234320 124.4841720 131.7904990 137.4263690 125.0561930 132.2653510
 136.0827310 125.0481160 131.5678890 139.9668920 124.8863280 127.0645270
 140.1619550 125.7846730 127.3312700 139.1798790 124.6550360 127.5578220
 126.7630210 140.5676450 127.5037890 126.2377830 140.9484480 126.7999850
 126.6874790 141.1927220 128.2247600 128.1520680 126.2324050 126.1021580
 128.6813440 125.4453850 125.9729530 128.7849000 126.9115240 126.3357110
 130.3458520 125.9699190 129.1566970 129.7161260 125.2686500 129.3237100
 129.8063660 126.7303320 128.9400130 133.2850470 142.5838420 141.8277580
 134.2117780 142.3482690 141.8713540 133.2700900 143.4110420 141.3463610
 141.5195530 142.1263990 128.8251830 141.6947720 141.4401730 128.1812750
 140.8217100 142.6511040 128.4328500 130.4714080 125.2483170 141.5919460
 130.1898350 125.7516770 140.8280280 130.8533780 124.4504920 141.2261590
 129.3623180 142.5158830 126.3787140 130.0942000 142.2318110 125.8311030
 129.6216850 142.2772110 127.2686520 128.5237970 138.6323560 126.3833470
 127.8946850 139.1008660 126.9319300 128.6385800 137.7872780 126.8179660
 137.0729540 124.6636750 142.1699930 136.9594990 124.9831360 143.0651450
 137.8899280 125.0649260 141.8737210 139.8528030 141.8108280 141.6518620
 140.6453350 141.3157510 141.4444580 140.1461180 142.4898420 142.2594230
 135.9787690 132.6829220 112.5334670 135.8981740 131.7683830 112.2626380
 135.5652110 133.1796290 111.8274380 134.1105730 134.4608240 114.4143940
 133.3347830 133.9808680 114.7042510 134.7618660 133.7813890 114.2400100
 128.1271560 134.7728050 115.2919700 127.2956440 134.5176760 115.6916210
 128.7352540 134.8438820 116.0277620 138.1313160 138.8668430 113.1943070
 137.6694690 138.0955670 113.5230240 138.9438710 138.8934500 113.6995520
 128.1072820 138.8068140 115.4877720 128.4100860 137.9165880 115.3087940
 128.8516410 139.3638360 115.2599970 126.5363510 129.7329940 109.0762090
 125.6480210 130.0745910 108.9741970 126.8204700 129.5330260 108.1842920
 124.4996520 132.3335590 114.9601790 125.0712630 131.5657790 114.9605430
 124.4998060 132.6324350 114.0508400 134.3576470 141.1526440 112.8147060
 133.7387910 141.6083940 112.2441500 135.2128250 141.3077900 112.4136760
 133.5514720 137.1365430 114.4214100 133.4823000 136.1955370 114.2603230
 134.3134580 137.2266840 114.9936670 125.7421390 127.7419950 116.7470720
 125.5624230 126.8445700 117.0273480 125.3401470 128.2891820 117.4217670
 134.5819890 129.9435810 114.6483030 134.9584710 129.0707690 114.5356700
 134.4839400 130.2794510 113.7573470 128.7124900 128.3161440 110.1100470
 128.8191650 129.2165170 110.4169230 127.8017260 128.2679410 109.8195120
 138.3644010 127.4386250 111.5811370 139.1853630 126.9482820 111.6236850
 138.3978090 128.0283910 112.3343210 126.3608060 130.2380450 115.3553060
 127.0418170 130.5018820 115.9740460 126.0456110 129.3981320 115.6891070
 130.5532630 131.2847810 114.4425650 131.0610850 131.7828780 115.0830670
 131.0845870 130.5083010 114.2665010 142.6543560 129.4553000 118.1455000
 141.9495730 129.8434710 117.6270110 142.9201480 130.1503290 118.7475930
 128.8368730 125.9246370 118.7089070 128.8387170 126.4418760 117.9034970
 128.0073040 125.4476550 118.6859000 135.2239820 136.0365680 110.2078970
 134.6057090 136.5015130 109.6441690 135.7363070 136.7293160 110.6248480
 130.0871580 135.5641550 116.8862570 129.7540960 136.1910470 117.5283640
 130.2638260 136.0903430 116.1064240 138.6005490 129.3786630 114.3538910
 137.8961060 129.6671520 114.9342020 138.9617650 130.1886740 113.9938470
 128.5184060 127.6356330 116.7159520 128.8600870 128.4798380 116.4213390
 127.5799870 127.7840070 116.8324860 129.2990680 137.5322350 118.7011750
 129.9164680 138.2073430 118.4196200 128.4383800 137.9410330 118.6099250
 124.5923020 136.7222210 107.5818600 124.2151000 137.2109310 106.8503500
 124.8496090 137.3947490 108.2125130 140.2168270 138.9961760 116.6166390
 139.5331790 139.6660870 116.6083060 140.7562560 139.1942410 115.8511250
 141.6692410 128.8241420 114.7448120 140.7217320 128.8580400 114.8763550
 141.9942400 129.6380370 115.1297480 132.2011950 125.1238600 113.0404110
 132.5086930 124.5685490 112.3239610 131.2712650 125.2583060 112.8577100
 137.7527010 140.8405890 115.3311570 137.7654170 140.4368180 114.4633830
 137.2002230 141.6153180 115.2273000 139.0472430 137.5622110 110.4201740
 138.9368760 136.6196440 110.5451160 139.0440680 137.9237750 111.3064500
 137.1512450 135.7435730 116.6594180 137.5681240 135.5295840 115.8247640
 137.8752270 136.0008520 117.2302800 134.5892710 133.1887430 109.7764230
 133.6621990 133.1224810 110.0052700 134.7417530 134.1267560 109.6619470
 134.5761790 129.4604430 106.7731390 133.6365460 129.6218390 106.8583850
 134.8945050 130.1790110 106.2267380 141.0974550 134.1422950 116.7510420
 140.2693180 134.2116040 116.2760550 141.6925030 134.7277260 116.2826250
 138.6190000 134.7507730 110.2799480 138.0002420 134.4127280 109.6325780
 138.6014450 134.1067490 110.9878670 138.0616560 130.9292270 117.6965290
 137.6487740 131.7545980 117.9505280 137.3292510 130.3437310 117.5041650
 130.1949350 133.7152170 112.5583960 129.7906350 133.0029420 112.0629860
 130.2812470 133.3705410 113.4472000 130.6631050 137.4019730 114.7223170
 130.3659340 136.7965200 114.0430950 131.6130870 137.4397040 114.6112530
 128.9077970 130.4895380 116.3383000 129.4592560 130.5990720 115.5636250
 129.4221480 130.8632980 117.0538230 138.7516660 140.9751600 118.3846270
 138.2747220 141.7823790 118.1918880 138.0678450 140.3229930 118.5372480
 129.7549480 137.1401420 121.3730970 128.8578010 137.3641390 121.6204370
 129.7802350 137.2636360 120.4242370 136.7954700 133.9894540 107.2872230
 137.2347980 133.1516970 107.1410050 137.5083120 134.6223940 107.3736370
 128.5820700 134.0114740 119.9488340 128.4428470 134.8837540 120.3175740
 127.7002060 133.6687550 119.8036280 134.9050080 138.9290610 111.2553470
 135.3445990 139.6714940 110.8408860 134.8436970 139.1717180 112.1792430
 130.3801050 139.9536440 122.1573490 130.3516480 140.3579390 121.2901920
 130.2166020 139.0246800 121.9945090 140.3771840 125.2437350 105.6013270
 140.0644500 125.3364180 106.5012340 141.1384310 125.8218380 105.5510700
 126.8953980 132.6097150 110.0590610 126.7751580 133.3359240 109.4471880
 126.5854870 131.8400060 109.5818520 142.3315870 140.7363540 123.4537660
 142.8075590 141.2146430 124.1326740 142.9523030 140.6681030 122.7283160
 124.5339350 135.7812290 115.8659250 124.6119770 135.9161060 114.9214970
 125.1481030 135.0728180 116.0587370 125.7786980 137.4812480 112.2765430
 125.3715060 137.6227070 111.4219030 126.6699990 137.1972640 112.0736640
 141.7349120 137.9276390 120.6137670 141.8612180 137.6888270 119.6954850
 141.7770500 137.0960930 121.0859750 135.5965860 141.6304390 119.1832480
 136.1110530 141.5412400 119.9854910 134.7534940 141.9764090 119.4760390
 137.5720260 141.9159730 108.6116480 137.4121400 141.6262670 109.5098310
 137.4066970 141.1399860 108.0761710 130.0508640 141.6958260 110.3888100
 129.8751120 140.7793800 110.1755900 129.1964380 142.0545550 110.6285900
 137.2746390 139.4247290 107.1714480 136.5811550 139.4224580 106.5116760
 138.0169250 139.0006610 106.7408650 136.8396320 141.0510000 111.2462970
 137.2953270 140.2699380 111.5601590 137.1788840 141.7616820 111.7904150
 141.5873130 129.9808850 121.5787410 140.9717400 130.4888520 121.0502870
 141.2669550 129.0807180 121.5213350 124.5898870 136.8226460 118.4053710
 124.7529910 136.3531820 117.5873080 125.0551320 136.3150020 119.0702550
 129.3617640 125.9532220 113.4414280 128.9185790 126.7341760 113.1098800
 129.9202630 126.2762110 114.1485220 133.6487450 128.8200740 119.0449600
 133.1866820 129.0283760 119.8569540 133.2465560 128.0060090 118.7420270
 138.6491960 130.0409690 120.1746260 137.7985550 129.7415440 120.4955330
 138.4893750 130.2851700 119.2630080 135.7441670 131.5411440 122.2745050
 136.0695080 130.7075190 121.9347280 136.5322000 132.0639960 122.4223380
 132.4776460 125.5742920 108.3220110 131.8530640 125.5702790 109.0473420
 132.3906580 124.7073880 107.9256080 131.3993540 126.4979550 115.3003880
 131.6965870 127.4042380 115.2195900 131.9479100 126.0098330 114.6863450
 129.1531860 131.0765790 111.1695530 128.9272780 130.8602960 112.0742150
 128.3724390 131.5094250 110.8241500 136.3829620 131.0829160 109.7686180
 135.7838510 131.8064960 109.5849800 136.9309230 131.0205940 108.9862630
 131.5931070 131.9751370 121.8355800 131.4974670 131.0346100 121.6856200
 132.4363050 132.1966440 121.4403870 134.9894490 129.7192700 111.7989460
 135.3824060 130.0364900 110.9858150 135.3511340 128.8404580 111.9133980
 126.7241610 128.3865040 119.9889580 126.3305000 129.2340250 120.1962360
 126.0360010 127.7491410 120.1798220 133.2986660 128.4700010 123.0586320
 132.6084980 128.2772210 123.6932410 134.0418960 128.7534650 123.5910620
 124.0258660 126.3093500 114.0219660 123.7371710 126.8796360 114.7344640
 124.7704420 125.8297950 114.3850890 124.2128890 130.2513620 105.2322380
 124.1303560 131.1944380 105.3737370 123.8611950 130.1088530 104.3534730
 135.5749630 132.3098450 115.8940240 134.8430750 132.8185260 116.2430340
 135.1773970 131.4928430 115.5929020 132.0127020 128.9852650 114.2992730
 132.0163080 128.5442600 113.4497270 132.9078140 129.3069980 114.4064550
 127.8629400 128.8679140 113.2586940 127.5229450 129.3454370 114.0153990
 127.1006720 128.4144260 112.8988040 132.0747170 129.9864730 107.2899490
 132.1959990 129.9451210 108.2385310 131.6895680 130.8488880 107.1346220
 136.0375540 127.7632130 115.3063180 136.0548280 128.2140780 116.1505030
 135.7891120 126.8637770 115.5196620 131.0868670 132.2965870 106.6882790
 130.5185570 131.8484120 106.0618700 131.7957670 132.6558650 106.1547940
 139.4646290 125.1764310 121.1449560 139.7892060 124.4453970 121.6707540
 139.5002800 124.8577950 120.2430550 126.1637850 136.1977890 120.5649520
 125.7792640 135.5571560 121.1632480 126.4750040 136.9014010 121.1344250
 132.3134990 133.0454430 116.0458140 132.6805120 132.5713000 116.7919480
 132.1240050 133.9196000 116.3866480 125.1775480 127.7898120 112.1751610
 124.8922400 127.4253790 113.0130230 125.1154340 127.0578580 111.5614750
 130.1034360 132.0863070 118.3642350 129.7991430 132.9655050 118.5892710
 131.0580820 132.1462860 118.3999790 128.6316150 136.2924060 108.9609200
 127.8578410 135.7521680 108.8007920 129.3610780 135.7730670 108.6226960
 139.3904130 135.2889420 114.7535590 140.1103250 135.7844710 114.3631700
 139.1885950 134.6107310 114.1089460 134.8514070 126.6827380 108.8964980
 134.0378680 126.1840550 108.8210290 134.6576020 127.5225630 108.4801330
 134.7722930 135.3598480 120.6404590 134.7060240 134.4394150 120.3862180
 134.1428070 135.4573920 121.3549230 137.5662460 131.0547030 107.1927140
 138.4542080 131.3664260 107.0178480 137.5367550 130.1819280 106.8007720
 128.6753550 135.9604440 112.5988010 129.1932220 135.1572700 112.5444900
 128.2237570 135.8983580 113.4404840 133.5623050 137.2270720 107.8715310
 133.9038750 137.9712950 107.3758630 132.7335760 137.5401840 108.2340140
 126.1598090 132.9265810 119.5113710 125.8013030 133.5919660 120.0987050
 125.8652650 132.0949360 119.8826330 129.3611210 133.3850050 122.3953260
 129.0611350 133.5307230 121.4981080 130.1322450 132.8255340 122.3026650
 134.7039660 138.1819050 120.3908390 134.7184200 137.2500010 120.1727300
 133.9964760 138.2678810 121.0298160 139.8376730 132.3658870 106.6607000
 139.7540450 132.7973090 105.8103440 140.5570920 132.8257220 107.0933820
 140.9150870 134.8226390 119.7376970 140.1899060 135.4155170 119.5406360
 141.4426330 134.8149930 118.9390340 140.8663980 139.2201130 109.3889130
 140.2240140 138.5656750 109.6632850 140.4794640 139.6256220 108.6129800
 136.4450460 136.5486560 113.2360820 136.7974280 135.9514690 112.5762190
 135.5612790 136.2230790 113.4069070 132.5313740 137.3084250 110.6431230
 133.2184870 137.8553460 111.0238820 131.7446160 137.8524980 110.6780840
 124.6706140 132.9257070 106.1348310 125.5400990 133.2081870 106.4184230
 124.1796460 133.7392940 106.0197120 131.8340950 134.3130280 110.2556590
 132.2903730 135.1235530 110.4816780 131.4829160 133.9953420 111.0875080
 134.1373560 139.8236620 117.4848890 134.7815780 140.0296000 118.1622310
 134.5003000 139.0625020 117.0319740 127.7352730 124.6567930 110.7279110
 127.6067360 124.6485830 111.6764030 126.9114750 124.9951020 110.3770120
 135.4105640 137.8268970 116.2026340 136.0527870 137.1262130 116.3158510
 135.9354990 138.6067410 116.0223230 139.2561360 138.1117590 105.9265480
 139.0298940 137.3948030 106.5190120 138.8657560 137.8630030 105.0887230
 137.1843260 138.6263870 119.4062400 137.5199500 139.2130560 120.0840320
 136.2643600 138.4956580 119.6360190 125.0377390 142.1384450 106.7009940
 125.3975030 142.7373790 106.0467210 124.8969730 142.6844340 107.4744970
 124.7346660 126.4159050 120.1885810 124.0205180 126.6155970 120.7938420
 125.1541700 125.6398620 120.5600610 138.8377610 136.0289530 107.5879640
 138.5499310 136.4902220 108.3757520 139.6329780 135.5687300 107.8563860
 125.0219250 140.4039310 121.1752340 125.1310370 139.4634050 121.0347730
 124.3699810 140.6694060 120.5266070 133.0131840 138.6755200 122.5750460
 132.6928710 137.9564440 123.1196150 132.3390200 139.3510270 122.6486520
 131.0546010 139.5215650 107.5183610 131.0456110 140.2545340 106.9028120
 130.1344370 139.2747230 107.6110570 126.6552650 134.7430540 108.2630370
 126.0480600 135.4829440 108.2725670 127.1302000 134.8329900 107.4368570
 136.2285440 128.9081360 117.9387260 136.5966260 128.0876570 118.2666830
 135.3683640 128.9683250 118.3542910 139.5947470 127.8638300 108.7474820
 138.9660630 127.9683970 108.0333050 139.0999390 128.0835080 109.5368700
 134.0405610 139.5843890 106.1808800 134.1417590 139.3807880 105.2510780
 133.1407350 139.3302170 106.3856580 131.5631500 130.1424250 110.1632700
 130.8547650 130.6110590 110.6046310 131.8475980 129.4846260 110.7977890
 133.1887430 131.5620950 118.1625230 133.6872680 132.0366770 118.8277080
 133.3310380 130.6384470 118.3695260 135.5946930 126.8674910 111.6028490
 135.4714710 126.8861040 110.6538000 136.5431490 126.9153850 111.7226890
 132.6823720 142.1030210 110.8756470 132.9365220 142.0651600 109.9535840
 131.7336200 141.9763540 110.8684720 129.7666520 128.4509330 107.5383410
 130.6157050 128.8879480 107.4723600 129.3997790 128.7629590 108.3655470
 140.3954290 127.7788910 119.0053620 139.8927890 128.5194310 119.3447430
 141.2110950 128.1672910 118.6890410 138.6876300 133.0222090 112.4514980
 137.7466440 133.0372320 112.6262670 139.0020370 132.2358050 112.8975280
 128.6657940 134.7041690 106.0118940 129.4321210 134.5923050 106.5744370
 128.7432630 134.0079660 105.3595710 127.3604700 132.1366760 106.6951830
 127.4408290 131.1894270 106.8069230 128.2524450 132.4673640 106.8012490
 140.6901880 140.1930940 114.1269240 140.8149300 141.0162110 114.5993050
 141.5567440 139.9821670 113.7793390 128.1619410 142.2862150 113.7986370
 128.8981890 141.7377610 114.0694940 128.5460330 143.1518160 113.6592360
 125.0464890 138.3535720 109.6727880 124.1204670 138.5956860 109.6633290
 125.5121320 139.1809980 109.5512630 127.1677690 141.4708220 122.9871950
 127.9690420 141.7920270 123.4007350 126.6529510 141.1103800 123.7091860
 131.2721720 141.4592460 105.6211940 132.0650330 141.7481290 105.1693730
 130.7526070 141.0284630 104.9424420 136.0042320 137.5788090 122.9347360
 135.3980480 137.6019690 122.1943110 135.6996430 136.8471130 123.4714610
 137.4342690 141.3068380 121.5456770 138.3864440 141.2226400 121.4957010
 137.2870910 141.9710090 122.2190560 140.3251890 140.6862590 107.0448680
 140.0393400 140.2727730 106.2302860 140.1271440 141.6150300 106.9249200
 124.8875500 133.9581680 121.9308000 125.3914520 133.3788960 122.5024230
 124.1482920 134.2421910 122.4684370 131.7899120 136.6795870 105.4854290
 131.6849760 136.0648220 106.2115670 131.6223340 136.1561760 104.7017300
 131.9413440 135.3652670 121.4643520 131.1759110 135.9337670 121.3798190
 132.1229400 135.0728880 120.5711750 135.0301850 135.7415900 106.0896280
 134.4811950 136.1885200 106.7339020 135.6521110 135.2365150 106.6133950
 139.0836790 137.0958000 122.0218540 139.8246260 137.4333760 121.5186000
 138.3209470 137.2650060 121.4688310 126.9198580 132.1011270 122.8258070
 126.9603920 131.8025140 123.7343300 127.7744080 132.5018880 122.6665590
 130.6976970 134.7006820 107.9861580 131.1193390 134.5346690 108.8292970
 130.8227810 133.8907050 107.4916720 128.8604390 130.6803370 120.7932560
 128.3300850 130.1894320 120.1655900 129.5292460 131.1087570 120.2590490
 133.2104610 133.7244430 105.2338680 133.7310270 133.0093450 104.8679830
 133.8573010 134.3630300 105.5339190 137.7582450 135.1472830 120.5573750
 138.1723470 135.3017910 121.4064170 136.8233450 135.2728050 120.7199530
 138.2304620 132.4868990 122.5612900 138.8125390 131.7321310 122.4733380
 138.4066390 133.0176430 121.7844380 129.3476690 127.6465740 120.8729850
 129.2533560 127.0286490 120.1480720 128.7674080 128.3732030 120.6459760
 132.1138130 126.2038980 117.9057240 131.6655430 126.2263240 117.0602790
 131.4803330 125.8058000 118.5027540 132.5197680 135.0993310 118.5269680
 132.9385790 135.9426040 118.3545920 131.6006310 135.2365350 118.2976460
 134.8561580 132.8309490 119.9107520 134.9757790 132.2350630 120.6502360
 135.7155580 132.8679180 119.4908820 137.1949480 133.3846680 118.4870030
 136.6684700 133.9089300 117.8835170 137.5380820 134.0174070 119.1179760
 129.5935870 130.7740050 104.9319740 129.3924930 129.9107410 105.2933080
 129.4227920 130.6873410 103.9941340 130.3705100 141.4046320 119.6427410
 129.8326190 142.1292380 119.3236110 130.6239060 140.9276660 118.8524750
 131.6230350 129.3730840 121.1683340 132.2130040 129.0646690 121.8561160
 130.8050590 128.9010590 121.3243240 136.4423780 128.9896650 121.4016360
 135.7539300 128.3278190 121.3366350 137.1629800 128.5434920 121.8464820
 137.0724180 125.5848280 107.4606620 137.3526470 124.7416180 107.8166040
 136.2989910 125.8171390 107.9745370 128.3918670 127.8740670 104.9197620
 128.6944570 127.8808100 104.0116770 129.1313260 127.5238530 105.4165280
 133.2267310 142.6397530 119.9014060 133.1526010 143.5432670 120.2086430
 132.3246150 142.3209430 119.8736130 131.6103600 126.8175290 105.9053820
 131.2625600 126.1399280 105.3256270 131.8116370 126.3564800 106.7197210
 133.7752640 141.8056040 107.5240420 134.6703430 142.1441010 107.5459180
 133.8070270 141.0835450 106.8964700 127.4148800 137.1783090 105.7527420
 127.8523670 137.7212760 106.4085000 127.8996530 136.3530040 105.7623760
 124.6294600 139.9672120 113.2047680 124.9597610 139.0993180 112.9726320
 125.0585600 140.1730640 114.0352640 129.2256520 138.2981130 110.8649650
 128.9252060 138.1746100 111.7653560 129.1194010 137.4389720 110.4565380
 125.1184810 140.8342710 115.9429310 124.6815800 141.0143510 116.7753460
 125.6862490 141.5917330 115.8011030 140.7546990 140.3359710 120.2306620
 140.1548980 140.3952270 119.4870540 140.8840890 139.3964690 120.3603470
 141.9948440 138.0777530 105.5676330 141.1641400 138.1454180 106.0383560
 142.1720270 138.9681650 105.2643190 141.4504900 134.8225010 108.0710530
 142.2123810 135.3921660 108.1770220 141.4659270 134.2552210 108.8418840
 124.9509240 133.3462940 112.3018190 124.2958080 133.0774580 111.6577890
 125.7887190 133.2367420 111.8520170 142.4564870 135.6775110 112.9152460
 142.8273700 134.8942430 112.5088430 143.0966800 136.3664210 112.7369760
 139.4398630 137.0611690 118.3282780 138.6258470 137.4908850 118.5908570
 139.8472830 137.6730100 117.7151830 141.5024070 135.1159380 105.2283050
 141.7772910 136.0238260 105.1002270 141.3134810 135.0521910 106.1645040
 137.8999680 128.1404230 106.5236680 138.3184560 127.9535210 105.6833340
 137.5935740 127.2883280 106.8339610 141.3989410 133.0528370 110.2212480
 141.0233010 132.2856300 109.7893770 140.6692530 133.4351070 110.7087410
 125.9885170 133.7315510 116.8421530 126.3558210 133.6442910 117.7217550
 125.4195990 132.9682060 116.7428390 140.7889030 132.1999890 119.8552000
 140.5575120 131.9712640 118.9549950 141.0493580 133.1199440 119.8096890
 125.5401170 130.6424600 120.7479950 124.6457220 130.6091360 121.0873660
 126.0798720 130.8411390 121.5131200 139.2277100 127.4256320 122.6331700
 140.1047280 127.4339720 123.0165700 139.2397940 126.6887160 122.0224050
 124.1647320 130.5561870 108.2443520 123.2611400 130.8192070 108.0695180
 124.6487940 130.8273040 107.4643480 140.6740370 131.2785860 113.5219720
 141.1977850 130.7848510 112.8909890 141.2599790 131.4136220 114.2667290
 140.8530090 131.3625730 117.0439270 139.9032800 131.3289270 117.1584260
 141.0343100 132.2725840 116.8089040 126.7074530 129.6127410 106.1537900
 127.4166230 129.1910630 105.6685180 125.9914470 129.6802640 105.5221250
 126.3548690 125.6666740 105.1940550 127.0776820 126.2075680 105.5121770
 126.6273210 125.3930160 104.3182090 140.1640340 130.5359210 109.4612130
 140.6599460 130.3030080 110.2461010 139.9656410 129.6971050 109.0449770
 126.0440880 124.9172930 115.0963170 126.6917070 124.3670310 114.6558330
 126.4642720 125.1716080 115.9178980 141.5927500 129.1720160 111.9949810
 141.4826780 129.0176200 112.9332080 142.3535090 128.6441100 111.7525220
 139.9393220 125.1114290 118.4532810 140.5765440 125.7248430 118.8192000
 140.0868110 125.1474950 117.5082040 142.4817770 127.0028080 105.2355950
 143.4067080 126.8709260 105.0274240 142.4593560 127.0820900 106.1892400
 142.5556260 127.7738740 107.8612660 141.7607760 127.7083860 108.3905570
 142.7599540 128.7089380 107.8498010 139.4974680 141.8130290 111.8551050
 140.0933750 141.4914860 111.1785470 139.7552830 141.3402110 112.6464320
 125.7972880 125.0728600 117.8388490 125.4487700 125.5292420 118.6046670
 125.4660580 124.1785730 117.9210920 127.4037250 138.2448200 122.0041680
 127.3606880 137.8741110 122.8856140 127.5348260 139.1825770 122.1443500
 131.1043280 139.8007790 117.6051400 130.8634640 140.0682350 116.7181920
 132.0445920 139.9713520 117.6602260 133.3097700 126.2640480 121.3607910
 133.2486590 126.8562310 122.1103320 134.2498080 126.1566440 121.2158170
 135.9472260 125.9210540 121.0000200 136.5612670 126.2389830 120.3381280
 136.4921820 125.4359130 121.6196060 142.3647440 141.8202170 118.4062040
 141.8705720 142.2171040 117.6889170 141.7560730 141.1951380 118.7999320
 126.4693520 124.6004800 121.1139260 127.0176510 124.4192850 120.3505370
 126.5348830 123.8098910 121.6495570 127.2425280 141.1910450 119.1239460
 126.6485600 141.0595150 119.8629500 127.2349120 140.3548590 118.6581560
 136.6880300 124.4842680 117.3269490 135.8140140 124.8177790 117.1242420
 136.5791050 124.0115860 118.1521360 137.5952280 126.6913550 118.7111210
 137.2665640 125.8765310 118.3312940 138.5434580 126.6483360 118.5876900
 140.0486890 142.4625590 115.6848780 139.5889860 143.2141400 115.3106800
 139.4199350 141.7432060 115.6263580 126.8737510 138.5568830 118.0747500
 126.1471570 137.9374120 118.0073450 126.9346660 138.9509440 117.2045580
 130.4782610 140.7713830 114.8596910 130.9947630 140.1601190 114.3345170
 131.1279990 141.2742610 115.3507920 133.2178110 141.6622320 115.6865890
 133.5055920 141.4076620 114.8098900 133.7301330 141.1099680 116.2771460
 134.4355120 125.4012520 116.2662400 133.6526910 125.8758020 116.5459160
 134.1418050 124.4967350 116.1575580 138.9876190 126.1035620 114.3111490
 139.4284280 126.0480720 113.4633090 138.7183780 127.0193630 114.3821670
 140.8514760 125.7350860 112.3220310 140.7903160 124.7912080 112.1751330
 141.6306790 125.8430950 112.8673770 125.1567510 141.8743220 111.2844260
 124.9889550 141.2413900 111.9826150 124.2902020 142.0802620 110.9338450
 125.7795530 125.7060000 108.7876120 126.5374890 125.8188880 108.2140150
 125.3172700 126.5429200 108.7419550 132.3209340 127.8199270 111.7778430
 131.5083850 127.4456160 111.4374310 132.8250980 127.0644350 112.0799620
 136.8234320 124.4841720 113.0161500 137.4263690 125.0561930 113.4910020
 136.0827310 125.0481160 112.7935400 139.9668920 124.8863280 108.2901780
 140.1619550 125.7846730 108.5569210 139.1798790 124.6550360 108.7834730
 126.7630210 140.5676450 108.7294400 126.2377830 140.9484480 108.0256360
 126.6874790 141.1927220 109.4504110 128.1520680 126.2324050 107.3278090
 128.6813440 125.4453850 107.1986040 128.7849000 126.9115240 107.5613620
 130.3458520 125.9699190 110.3823480 129.7161260 125.2686500 110.5493610
 129.8063660 126.7303320 110.1656640 133.2850470 142.5838420 123.0534090
 134.2117780 142.3482690 123.0970050 133.2700900 143.4110420 122.5720120
 141.5195530 142.1263990 110.0508340 141.6947720 141.4401730 109.4069260
 140.8217100 142.6511040 109.6585010 130.4714080 125.2483170 122.8175970
 130.1898350 125.7516770 122.0536790 130.8533780 124.4504920 122.4518100
 129.3623180 142.5158830 107.6043650 130.0942000 142.2318110 107.0567540
 129.6216850 142.2772110 108.4943030 128.5237970 138.6323560 107.6089980
 127.8946850 139.1008660 108.1575810 128.6385800 137.7872780 108.0436170
 137.0729540 124.6636750 123.3956440 136.9594990 124.9831360 124.2907960
 137.8899280 125.0649260 123.0993720 139.8528030 141.8108280 122.8775130
 140.6453350 141.3157510 122.6701090 140.1461180 142.4898420 123.4850740
 135.9787690 132.6829220  93.7591180 135.8981740 131.7683830  93.4882890
 135.5652110 133.1796290  93.0530890 134.1105730 134.4608240  95.6400450
 133.3347830 133.9808680  95.9299020 134.7618660 133.7813890  95.4656610
 128.1271560 134.7728050  96.5176210 127.2956440 134.5176760  96.9172720
 128.7352540 134.8438820  97.2534130 138.1313160 138.8668430  94.4199580
 137.6694690 138.0955670  94.7486750 138.9438710 138.8934500  94.9252030
 128.1072820 138.8068140  96.7134230 128.4100860 137.9165880  96.5344450
 128.8516410 139.3638360  96.4856480 126.5363510 129.7329940  90.3018600
 125.6480210 130.0745910  90.1998480 126.8204700 129.5330260  89.4099430
 124.4996520 132.3335590  96.1858300 125.0712630 131.5657790  96.1861940
 124.4998060 132.6324350  95.2764910 134.3576470 141.1526440  94.0403570
 133.7387910 141.6083940  93.4698010 135.2128250 141.3077900  93.6393270
 133.5514720 137.1365430  95.6470610 133.4823000 136.1955370  95.4859740
 134.3134580 137.2266840  96.2193180 125.7421390 127.7419950  97.9727230
 125.5624230 126.8445700  98.2529990 125.3401470 128.2891820  98.6474180
 134.5819890 129.9435810  95.8739540 134.9584710 129.0707690  95.7613210
 134.4839400 130.2794510  94.9829980 128.7124900 128.3161440  91.3356980
 128.8191650 129.2165170  91.6425740 127.8017260 128.2679410  91.0451630
 138.3644010 127.4386250  92.8067880 139.1853630 126.9482820  92.8493360
 138.3978090 128.0283910  93.5599720 126.3608060 130.2380450  96.5809570
 127.0418170 130.5018820  97.1996970 126.0456110 129.3981320  96.9147580
 130.5532630 131.2847810  95.6682160 131.0610850 131.7828780  96.3087180
 131.0845870 130.5083010  95.4921520 142.6543560 129.4553000  99.3711510
 141.9495730 129.8434710  98.8526620 142.9201480 130.1503290  99.9732440
 128.8368730 125.9246370  99.9345580 128.8387170 126.4418760  99.1291480
 128.0073040 125.4476550  99.9115510 135.2239820 136.0365680  91.4335480
 134.6057090 136.5015130  90.8698200 135.7363070 136.7293160  91.8504990
 130.0871580 135.5641550  98.1119080 129.7540960 136.1910470  98.7540150
 130.2638260 136.0903430  97.3320750 138.6005490 129.3786630  95.5795420
 137.8961060 129.6671520  96.1598530 138.9617650 130.1886740  95.2194980
 128.5184060 127.6356330  97.9416030 128.8600870 128.4798380  97.6469900
 127.5799870 127.7840070  98.0581370 129.2990680 137.5322350  99.9268260
 129.9164680 138.2073430  99.6452710 128.4383800 137.9410330  99.8355760
 124.5923020 136.7222210  88.8075110 124.2151000 137.2109310  88.0760010
 124.8496090 137.3947490  89.4381640 140.2168270 138.9961760  97.8422900
 139.5331790 139.6660870  97.8339570 140.7562560 139.1942410  97.0767760
 141.6692410 128.8241420  95.9704630 140.7217320 128.8580400  96.1020060
 141.9942400 129.6380370  96.3553990 132.2011950 125.1238600  94.2660620
 132.5086930 124.5685490  93.5496120 131.2712650 125.2583060  94.0833610
 137.7527010 140.8405890  96.5568080 137.7654170 140.4368180  95.6890340
 137.2002230 141.6153180  96.4529510 139.0472430 137.5622110  91.6458250
 138.9368760 136.6196440  91.7707670 139.0440680 137.9237750  92.5321010
 137.1512450 135.7435730  97.8850690 137.5681240 135.5295840  97.0504150
 137.8752270 136.0008520  98.4559310 134.5892710 133.1887430  91.0020740
 133.6621990 133.1224810  91.2309210 134.7417530 134.1267560  90.8875980
 134.5761790 129.4604430  87.9987900 133.6365460 129.6218390  88.0840360
 134.8945050 130.1790110  87.4523890 141.0974550 134.1422950  97.9766930
 140.2693180 134.2116040  97.5017060 141.6925030 134.7277260  97.5082760
 138.6190000 134.7507730  91.5055990 138.0002420 134.4127280  90.8582290
 138.6014450 134.1067490  92.2135180 138.0616560 130.9292270  98.9221800
 137.6487740 131.7545980  99.1761790 137.3292510 130.3437310  98.7298160
 130.1949350 133.7152170  93.7840470 129.7906350 133.0029420  93.2886370
 130.2812470 133.3705410  94.6728510 130.6631050 137.4019730  95.9479680
 130.3659340 136.7965200  95.2687460 131.6130870 137.4397040  95.8369040
 128.9077970 130.4895380  97.5639510 129.4592560 130.5990720  96.7892760
 129.4221480 130.8632980  98.2794740 138.7516660 140.9751600  99.6102780
 138.2747220 141.7823790  99.4175390 138.0678450 140.3229930  99.7628990
 129.7549480 137.1401420 102.5987480 128.8578010 137.3641390 102.8460880
 129.7802350 137.2636360 101.6498880 136.7954700 133.9894540  88.5128740
 137.2347980 133.1516970  88.3666560 137.5083120 134.6223940  88.5992880
 128.5820700 134.0114740 101.1744850 128.4428470 134.8837540 101.5432250
 127.7002060 133.6687550 101.0292790 134.9050080 138.9290610  92.4809980
 135.3445990 139.6714940  92.0665370 134.8436970 139.1717180  93.4048940
 130.3801050 139.9536440 103.3830000 130.3516480 140.3579390 102.5158430
 130.2166020 139.0246800 103.2201600 140.3771840 125.2437350  86.8269780
 140.0644500 125.3364180  87.7268850 141.1384310 125.8218380  86.7767210
 126.8953980 132.6097150  91.2847120 126.7751580 133.3359240  90.6728390
 126.5854870 131.8400060  90.8075030 142.3315870 140.7363540 104.6794170
 142.8075590 141.2146430 105.3583250 142.9523030 140.6681030 103.9539670
 124.5339350 135.7812290  97.0915760 124.6119770 135.9161060  96.1471480
 125.1481030 135.0728180  97.2843880 125.7786980 137.4812480  93.5021940
 125.3715060 137.6227070  92.6475540 126.6699990 137.1972640  93.2993150
 141.7349120 137.9276390 101.8394180 141.8612180 137.6888270 100.9211360
 141.7770500 137.0960930 102.3116260 135.5965860 141.6304390 100.4088990
 136.1110530 141.5412400 101.2111420 134.7534940 141.9764090 100.7016900
 137.5720260 141.9159730  89.8372990 137.4121400 141.6262670  90.7354820
 137.4066970 141.1399860  89.3018220 130.0508640 141.6958260  91.6144610
 129.8751120 140.7793800  91.4012410 129.1964380 142.0545550  91.8542410
 137.2746390 139.4247290  88.3970990 136.5811550 139.4224580  87.7373270
 138.0169250 139.0006610  87.9665160 136.8396320 141.0510000  92.4719480
 137.2953270 140.2699380  92.7858100 137.1788840 141.7616820  93.0160660
 141.5873130 129.9808850 102.8043920 140.9717400 130.4888520 102.2759380
 141.2669550 129.0807180 102.7469860 124.5898870 136.8226460  99.6310220
 124.7529910 136.3531820  98.8129590 125.0551320 136.3150020 100.2959060
 129.3617640 125.9532220  94.6670790 128.9185790 126.7341760  94.3355310
 129.9202630 126.2762110  95.3741730 133.6487450 128.8200740 100.2706110
 133.1866820 129.0283760 101.0826050 133.2465560 128.0060090  99.9676780
 138.6491960 130.0409690 101.4002770 137.7985550 129.7415440 101.7211840
 138.4893750 130.2851700 100.4886590 135.7441670 131.5411440 103.5001560
 136.0695080 130.7075190 103.1603790 136.5322000 132.0639960 103.6479890
 132.4776460 125.5742920  89.5476620 131.8530640 125.5702790  90.2729930
 132.3906580 124.7073880  89.1512590 131.3993540 126.4979550  96.5260390
 131.6965870 127.4042380  96.4452410 131.9479100 126.0098330  95.9119960
 129.1531860 131.0765790  92.3952040 128.9272780 130.8602960  93.2998660
 128.3724390 131.5094250  92.0498010 136.3829620 131.0829160  90.9942690
 135.7838510 131.8064960  90.8106310 136.9309230 131.0205940  90.2119140
 131.5931070 131.9751370 103.0612310 131.4974670 131.0346100 102.9112710
 132.4363050 132.1966440 102.6660380 134.9894490 129.7192700  93.0245970
 135.3824060 130.0364900  92.2114660 135.3511340 128.8404580  93.1390490
 126.7241610 128.3865040 101.2146090 126.3305000 129.2340250 101.4218870
 126.0360010 127.7491410 101.4054730 133.2986660 128.4700010 104.2842830
 132.6084980 128.2772210 104.9188920 134.0418960 128.7534650 104.8167130
 124.0258660 126.3093500  95.2476170 123.7371710 126.8796360  95.9601150
 124.7704420 125.8297950  95.6107400 124.2128890 130.2513620  86.4578890
 124.1303560 131.1944380  86.5993880 123.8611950 130.1088530  85.5791240
 135.5749630 132.3098450  97.1196750 134.8430750 132.8185260  97.4686850
 135.1773970 131.4928430  96.8185530 132.0127020 128.9852650  95.5249240
 132.0163080 128.5442600  94.6753780 132.9078140 129.3069980  95.6321060
 127.8629400 128.8679140  94.4843450 127.5229450 129.3454370  95.2410500
 127.1006720 128.4144260  94.1244550 132.0747170 129.9864730  88.5156000
 132.1959990 129.9451210  89.4641820 131.6895680 130.8488880  88.3602730
 136.0375540 127.7632130  96.5319690 136.0548280 128.2140780  97.3761540
 135.7891120 126.8637770  96.7453130 131.0868670 132.2965870  87.9139300
 130.5185570 131.8484120  87.2875210 131.7957670 132.6558650  87.3804450
 139.4646290 125.1764310 102.3706070 139.7892060 124.4453970 102.8964050
 139.5002800 124.8577950 101.4687060 126.1637850 136.1977890 101.7906030
 125.7792640 135.5571560 102.3888990 126.4750040 136.9014010 102.3600760
 132.3134990 133.0454430  97.2714650 132.6805120 132.5713000  98.0175990
 132.1240050 133.9196000  97.6122990 125.1775480 127.7898120  93.4008120
 124.8922400 127.4253790  94.2386740 125.1154340 127.0578580  92.7871260
 130.1034360 132.0863070  99.5898860 129.7991430 132.9655050  99.8149220
 131.0580820 132.1462860  99.6256300 128.6316150 136.2924060  90.1865710
 127.8578410 135.7521680  90.0264430 129.3610780 135.7730670  89.8483470
 139.3904130 135.2889420  95.9792100 140.1103250 135.7844710  95.5888210
 139.1885950 134.6107310  95.3345970 134.8514070 126.6827380  90.1221490
 134.0378680 126.1840550  90.0466800 134.6576020 127.5225630  89.7057840
 134.7722930 135.3598480 101.8661100 134.7060240 134.4394150 101.6118690
 134.1428070 135.4573920 102.5805740 137.5662460 131.0547030  88.4183650
 138.4542080 131.3664260  88.2434990 137.5367550 130.1819280  88.0264230
 128.6753550 135.9604440  93.8244520 129.1932220 135.1572700  93.7701410
 128.2237570 135.8983580  94.6661350 133.5623050 137.2270720  89.0971820
 133.9038750 137.9712950  88.6015140 132.7335760 137.5401840  89.4596650
 126.1598090 132.9265810 100.7370220 125.8013030 133.5919660 101.3243560
 125.8652650 132.0949360 101.1082840 129.3611210 133.3850050 103.6209770
 129.0611350 133.5307230 102.7237590 130.1322450 132.8255340 103.5283160
 134.7039660 138.1819050 101.6164900 134.7184200 137.2500010 101.3983810
 133.9964760 138.2678810 102.2554670 139.8376730 132.3658870  87.8863510
 139.7540450 132.7973090  87.0359950 140.5570920 132.8257220  88.3190330
 140.9150870 134.8226390 100.9633480 140.1899060 135.4155170 100.7662870
 141.4426330 134.8149930 100.1646850 140.8663980 139.2201130  90.6145640
 140.2240140 138.5656750  90.8889360 140.4794640 139.6256220  89.8386310
 136.4450460 136.5486560  94.4617330 136.7974280 135.9514690  93.8018700
 135.5612790 136.2230790  94.6325580 132.5313740 137.3084250  91.8687740
 133.2184870 137.8553460  92.2495330 131.7446160 137.8524980  91.9037350
 124.6706140 132.9257070  87.3604820 125.5400990 133.2081870  87.6440740
 124.1796460 133.7392940  87.2453630 131.8340950 134.3130280  91.4813100
 132.2903730 135.1235530  91.7073290 131.4829160 133.9953420  92.3131590
 134.1373560 139.8236620  98.7105400 134.7815780 140.0296000  99.3878820
 134.5003000 139.0625020  98.2576250 127.7352730 124.6567930  91.9535620
 127.6067360 124.6485830  92.9020540 126.9114750 124.9951020  91.6026630
 135.4105640 137.8268970  97.4282850 136.0527870 137.1262130  97.5415020
 135.9354990 138.6067410  97.2479740 139.2561360 138.1117590  87.1521990
 139.0298940 137.3948030  87.7446630 138.8657560 137.8630030  86.3143740
 137.1843260 138.6263870 100.6318910 137.5199500 139.2130560 101.3096830
 136.2643600 138.4956580 100.8616700 125.0377390 142.1384450  87.9266450
 125.3975030 142.7373790  87.2723720 124.8969730 142.6844340  88.7001480
 124.7346660 126.4159050 101.4142320 124.0205180 126.6155970 102.0194930
 125.1541700 125.6398620 101.7857120 138.8377610 136.0289530  88.8136150
 138.5499310 136.4902220  89.6014030 139.6329780 135.5687300  89.0820370
 125.0219250 140.4039310 102.4008850 125.1310370 139.4634050 102.2604240
 124.3699810 140.6694060 101.7522580 133.0131840 138.6755200 103.8006970
 132.6928710 137.9564440 104.3452660 132.3390200 139.3510270 103.8743030
 131.0546010 139.5215650  88.7440120 131.0456110 140.2545340  88.1284630
 130.1344370 139.2747230  88.8367080 126.6552650 134.7430540  89.4886880
 126.0480600 135.4829440  89.4982180 127.1302000 134.8329900  88.6625080
 136.2285440 128.9081360  99.1643770 136.5966260 128.0876570  99.4923340
 135.3683640 128.9683250  99.5799420 139.5947470 127.8638300  89.9731330
 138.9660630 127.9683970  89.2589560 139.0999390 128.0835080  90.7625210
 134.0405610 139.5843890  87.4065310 134.1417590 139.3807880  86.4767290
 133.1407350 139.3302170  87.6113090 131.5631500 130.1424250  91.3889210
 130.8547650 130.6110590  91.8302820 131.8475980 129.4846260  92.0234400
 133.1887430 131.5620950  99.3881740 133.6872680 132.0366770 100.0533590
 133.3310380 130.6384470  99.5951770 135.5946930 126.8674910  92.8285000
 135.4714710 126.8861040  91.8794510 136.5431490 126.9153850  92.9483400
 132.6823720 142.1030210  92.1012980 132.9365220 142.0651600  91.1792350
 131.7336200 141.9763540  92.0941230 129.7666520 128.4509330  88.7639920
 130.6157050 128.8879480  88.6980110 129.3997790 128.7629590  89.5911980
 140.3954290 127.7788910 100.2310130 139.8927890 128.5194310 100.5703940
 141.2110950 128.1672910  99.9146920 138.6876300 133.0222090  93.6771490
 137.7466440 133.0372320  93.8519180 139.0020370 132.2358050  94.1231790
 128.6657940 134.7041690  87.2375450 129.4321210 134.5923050  87.8000880
 128.7432630 134.0079660  86.5852220 127.3604700 132.1366760  87.9208340
 127.4408290 131.1894270  88.0325740 128.2524450 132.4673640  88.0269000
 140.6901880 140.1930940  95.3525750 140.8149300 141.0162110  95.8249560
 141.5567440 139.9821670  95.0049900 128.1619410 142.2862150  95.0242880
 128.8981890 141.7377610  95.2951450 128.5460330 143.1518160  94.8848870
 125.0464890 138.3535720  90.8984390 124.1204670 138.5956860  90.8889800
 125.5121320 139.1809980  90.7769140 127.1677690 141.4708220 104.2128460
 127.9690420 141.7920270 104.6263860 126.6529510 141.1103800 104.9348370
 131.2721720 141.4592460  86.8468450 132.0650330 141.7481290  86.3950240
 130.7526070 141.0284630  86.1680930 136.0042320 137.5788090 104.1603870
 135.3980480 137.6019690 103.4199620 135.6996430 136.8471130 104.6971120
 137.4342690 141.3068380 102.7713280 138.3864440 141.2226400 102.7213520
 137.2870910 141.9710090 103.4447070 140.3251890 140.6862590  88.2705190
 140.0393400 140.2727730  87.4559370 140.1271440 141.6150300  88.1505710
 124.8875500 133.9581680 103.1564510 125.3914520 133.3788960 103.7280740
 124.1482920 134.2421910 103.6940880 131.7899120 136.6795870  86.7110800
 131.6849760 136.0648220  87.4372180 131.6223340 136.1561760  85.9273810
 131.9413440 135.3652670 102.6900030 131.1759110 135.9337670 102.6054700
 132.1229400 135.0728880 101.7968260 135.0301850 135.7415900  87.3152790
 134.4811950 136.1885200  87.9595530 135.6521110 135.2365150  87.8390460
 139.0836790 137.0958000 103.2475050 139.8246260 137.4333760 102.7442510
 138.3209470 137.2650060 102.6944820 126.9198580 132.1011270 104.0514580
 126.9603920 131.8025140 104.9599810 127.7744080 132.5018880 103.8922100
 130.6976970 134.7006820  89.2118090 131.1193390 134.5346690  90.0549480
 130.8227810 133.8907050  88.7173230 128.8604390 130.6803370 102.0189070
 128.3300850 130.1894320 101.3912410 129.5292460 131.1087570 101.4847000
 133.2104610 133.7244430  86.4595190 133.7310270 133.0093450  86.0936340
 133.8573010 134.3630300  86.7595700 137.7582450 135.1472830 101.7830260
 138.1723470 135.3017910 102.6320680 136.8233450 135.2728050 101.9456040
 138.2304620 132.4868990 103.7869410 138.8125390 131.7321310 103.6989890
 138.4066390 133.0176430 103.0100890 129.3476690 127.6465740 102.0986360
 129.2533560 127.0286490 101.3737230 128.7674080 128.3732030 101.8716270
 132.1138130 126.2038980  99.1313750 131.6655430 126.2263240  98.2859300
 131.4803330 125.8058000  99.7284050 132.5197680 135.0993310  99.7526190
 132.9385790 135.9426040  99.5802430 131.6006310 135.2365350  99.5232970
 134.8561580 132.8309490 101.1364030 134.9757790 132.2350630 101.8758870
 135.7155580 132.8679180 100.7165330 137.1949480 133.3846680  99.7126540
 136.6684700 133.9089300  99.1091680 137.5380820 134.0174070 100.3436270
 129.5935870 130.7740050  86.1576250 129.3924930 129.9107410  86.5189590
 129.4227920 130.6873410  85.2197850 130.3705100 141.4046320 100.8683920
 129.8326190 142.1292380 100.5492620 130.6239060 140.9276660 100.0781260
 131.6230350 129.3730840 102.3939850 132.2130040 129.0646690 103.0817670
 130.8050590 128.9010590 102.5499750 136.4423780 128.9896650 102.6272870
 135.7539300 128.3278190 102.5622860 137.1629800 128.5434920 103.0721330
 137.0724180 125.5848280  88.6863130 137.3526470 124.7416180  89.0422550
 136.2989910 125.8171390  89.2001880 128.3918670 127.8740670  86.1454130
 128.6944570 127.8808100  85.2373280 129.1313260 127.5238530  86.6421790
 133.2267310 142.6397530 101.1270570 133.1526010 143.5432670 101.4342940
 132.3246150 142.3209430 101.0992640 131.6103600 126.8175290  87.1310330
 131.2625600 126.1399280  86.5512780 131.8116370 126.3564800  87.9453720
 133.7752640 141.8056040  88.7496930 134.6703430 142.1441010  88.7715690
 133.8070270 141.0835450  88.1221210 127.4148800 137.1783090  86.9783930
 127.8523670 137.7212760  87.6341510 127.8996530 136.3530040  86.9880270
 124.6294600 139.9672120  94.4304190 124.9597610 139.0993180  94.1982830
 125.0585600 140.1730640  95.2609150 129.2256520 138.2981130  92.0906160
 128.9252060 138.1746100  92.9910070 129.1194010 137.4389720  91.6821890
 125.1184810 140.8342710  97.1685820 124.6815800 141.0143510  98.0009970
 125.6862490 141.5917330  97.0267540 140.7546990 140.3359710 101.4563130
 140.1548980 140.3952270 100.7127050 140.8840890 139.3964690 101.5859980
 141.9948440 138.0777530  86.7932840 141.1641400 138.1454180  87.2640070
 142.1720270 138.9681650  86.4899700 141.4504900 134.8225010  89.2967040
 142.2123810 135.3921660  89.4026730 141.4659270 134.2552210  90.0675350
 124.9509240 133.3462940  93.5274700 124.2958080 133.0774580  92.8834400
 125.7887190 133.2367420  93.0776680 142.4564870 135.6775110  94.1408970
 142.8273700 134.8942430  93.7344940 143.0966800 136.3664210  93.9626270
 139.4398630 137.0611690  99.5539290 138.6258470 137.4908850  99.8165080
 139.8472830 137.6730100  98.9408340 141.5024070 135.1159380  86.4539560
 141.7772910 136.0238260  86.3258780 141.3134810 135.0521910  87.3901550
 137.8999680 128.1404230  87.7493190 138.3184560 127.9535210  86.9089850
 137.5935740 127.2883280  88.0596120 141.3989410 133.0528370  91.4468990
 141.0233010 132.2856300  91.0150280 140.6692530 133.4351070  91.9343920
 125.9885170 133.7315510  98.0678040 126.3558210 133.6442910  98.9474060
 125.4195990 132.9682060  97.9684900 140.7889030 132.1999890 101.0808510
 140.5575120 131.9712640 100.1806460 141.0493580 133.1199440 101.0353400
 125.5401170 130.6424600 101.9736460 124.6457220 130.6091360 102.3130170
 126.0798720 130.8411390 102.7387710 139.2277100 127.4256320 103.8588210
 140.1047280 127.4339720 104.2422210 139.2397940 126.6887160 103.2480560
 124.1647320 130.5561870  89.4700030 123.2611400 130.8192070  89.2951690
 124.6487940 130.8273040  88.6899990 140.6740370 131.2785860  94.7476230
 141.1977850 130.7848510  94.1166400 141.2599790 131.4136220  95.4923800
 140.8530090 131.3625730  98.2695780 139.9032800 131.3289270  98.3840770
 141.0343100 132.2725840  98.0345550 126.7074530 129.6127410  87.3794410
 127.4166230 129.1910630  86.8941690 125.9914470 129.6802640  86.7477760
 126.3548690 125.6666740  86.4197060 127.0776820 126.2075680  86.7378280
 126.6273210 125.3930160  85.5438600 140.1640340 130.5359210  90.6868640
 140.6599460 130.3030080  91.4717520 139.9656410 129.6971050  90.2706280
 126.0440880 124.9172930  96.3219680 126.6917070 124.3670310  95.8814840
 126.4642720 125.1716080  97.1435490 141.5927500 129.1720160  93.2206320
 141.4826780 129.0176200  94.1588590 142.3535090 128.6441100  92.9781730
 139.9393220 125.1114290  99.6789320 140.5765440 125.7248430 100.0448510
 140.0868110 125.1474950  98.7338550 142.4817770 127.0028080  86.4612460
 143.4067080 126.8709260  86.2530750 142.4593560 127.0820900  87.4148910
 142.5556260 127.7738740  89.0869170 141.7607760 127.7083860  89.6162080
 142.7599540 128.7089380  89.0754520 139.4974680 141.8130290  93.0807560
 140.0933750 141.4914860  92.4041980 139.7552830 141.3402110  93.8720830
 125.7972880 125.0728600  99.0645000 125.4487700 125.5292420  99.8303180
 125.4660580 124.1785730  99.1467430 127.4037250 138.2448200 103.2298190
 127.3606880 137.8741110 104.1112650 127.5348260 139.1825770 103.3700010
 131.1043280 139.8007790  98.8307910 130.8634640 140.0682350  97.9438430
 132.0445920 139.9713520  98.8858770 133.3097700 126.2640480 102.5864420
 133.2486590 126.8562310 103.3359830 134.2498080 126.1566440 102.4414680
 135.9472260 125.9210540 102.2256710 136.5612670 126.2389830 101.5637790
 136.4921820 125.4359130 102.8452570 142.3647440 141.8202170  99.6318550
 141.8705720 142.2171040  98.9145680 141.7560730 141.1951380 100.0255830
 126.4693520 124.6004800 102.3395770 127.0176510 124.4192850 101.5761880
 126.5348830 123.8098910 102.8752080 127.2425280 141.1910450 100.3495970
 126.6485600 141.0595150 101.0886010 127.2349120 140.3548590  99.8838070
 136.6880300 124.4842680  98.5526000 135.8140140 124.8177790  98.3498930
 136.5791050 124.0115860  99.3777870 137.5952280 126.6913550  99.9367720
 137.2665640 125.8765310  99.5569450 138.5434580 126.6483360  99.8133410
 140.0486890 142.4625590  96.9105290 139.5889860 143.2141400  96.5363310
 139.4199350 141.7432060  96.8520090 126.8737510 138.5568830  99.3004010
 126.1471570 137.9374120  99.2329960 126.9346660 138.9509440  98.4302090
 130.4782610 140.7713830  96.0853420 130.9947630 140.1601190  95.5601680
 131.1279990 141.2742610  96.5764430 133.2178110 141.6622320  96.9122400
 133.5055920 141.4076620  96.0355410 133.7301330 141.1099680  97.5027970
 134.4355120 125.4012520  97.4918910 133.6526910 125.8758020  97.7715670
 134.1418050 124.4967350  97.3832090 138.9876190 126.1035620  95.5368000
 139.4284280 126.0480720  94.6889600 138.7183780 127.0193630  95.6078180
 140.8514760 125.7350860  93.5476820 140.7903160 124.7912080  93.4007840
 141.6306790 125.8430950  94.0930280 125.1567510 141.8743220  92.5100770
 124.9889550 141.2413900  93.2082660 124.2902020 142.0802620  92.1594960
 125.7795530 125.7060000  90.0132630 126.5374890 125.8188880  89.4396660
 125.3172700 126.5429200  89.9676060 132.3209340 127.8199270  93.0034940
 131.5083850 127.4456160  92.6630820 132.8250980 127.0644350  93.3056130
 136.8234320 124.4841720  94.2418010 137.4263690 125.0561930  94.7166530
 136.0827310 125.0481160  94.0191910 139.9668920 124.8863280  89.5158290
 140.1619550 125.7846730  89.7825720 139.1798790 124.6550360  90.0091240
 126.7630210 140.5676450  89.9550910 126.2377830 140.9484480  89.2512870
 126.6874790 141.1927220  90.6760620 128.1520680 126.2324050  88.5534600
 128.6813440 125.4453850  88.4242550 128.7849000 126.9115240  88.7870130
 130.3458520 125.9699190  91.6079990 129.7161260 125.2686500  91.7750120
 129.8063660 126.7303320  91.3913150 133.2850470 142.5838420 104.2790600
 134.2117780 142.3482690 104.3226560 133.2700900 143.4110420 103.7976630
 141.5195530 142.1263990  91.2764850 141.6947720 141.4401730  90.6325770
 140.8217100 142.6511040  90.8841520 130.4714080 125.2483170 104.0432480
 130.1898350 125.7516770 103.2793300 130.8533780 124.4504920 103.6774610
 129.3623180 142.5158830  88.8300160 130.0942000 142.2318110  88.2824050
 129.6216850 142.2772110  89.7199540 128.5237970 138.6323560  88.8346490
 127.8946850 139.1008660  89.3832320 128.6385800 137.7872780  89.2692680
 137.0729540 124.6636750 104.6212950 136.9594990 124.9831360 105.5164470
 137.8899280 125.0649260 104.3250230 139.8528030 141.8108280 104.1031640
 140.6453350 141.3157510 103.8957600 140.1461180 142.4898420 104.7107250
 135.9787690 132.6829220  74.9847690 135.8981740 131.7683830  74.7139400
 135.5652110 133.1796290  74.2787400 134.1105730 134.4608240  76.8656960
 133.3347830 133.9808680  77.1555530 134.7618660 133.7813890  76.6913120
 128.1271560 134.7728050  77.7432720 127.2956440 134.5176760  78.1429230
 128.7352540 134.8438820  78.4790640 138.1313160 138.8668430  75.6456090
 137.6694690 138.0955670  75.9743260 138.9438710 138.8934500  76.1508540
 128.1072820 138.8068140  77.9390740 128.4100860 137.9165880  77.7600960
 128.8516410 139.3638360  77.7112990 126.5363510 129.7329940  71.5275110
 125.6480210 130.0745910  71.4254990 126.8204700 129.5330260  70.6355940
 124.4996520 132.3335590  77.4114810 125.0712630 131.5657790  77.4118450
 124.4998060 132.6324350  76.5021420 134.3576470 141.1526440  75.2660080
 133.7387910 141.6083940  74.6954520 135.2128250 141.3077900  74.8649780
 133.5514720 137.1365430  76.8727120 133.4823000 136.1955370  76.7116250
 134.3134580 137.2266840  77.4449690 125.7421390 127.7419950  79.1983740
 125.5624230 126.8445700  79.4786500 125.3401470 128.2891820  79.8730690
 134.5819890 129.9435810  77.0996050 134.9584710 129.0707690  76.9869720
 134.4839400 130.2794510  76.2086490 128.7124900 128.3161440  72.5613490
 128.8191650 129.2165170  72.8682250 127.8017260 128.2679410  72.2708140
 138.3644010 127.4386250  74.0324390 139.1853630 126.9482820  74.0749870
 138.3978090 128.0283910  74.7856230 126.3608060 130.2380450  77.8066080
 127.0418170 130.5018820  78.4253480 126.0456110 129.3981320  78.1404090
 130.5532630 131.2847810  76.8938670 131.0610850 131.7828780  77.5343690
 131.0845870 130.5083010  76.7178030 142.6543560 129.4553000  80.5968020
 141.9495730 129.8434710  80.0783130 142.9201480 130.1503290  81.1988950
 128.8368730 125.9246370  81.1602090 128.8387170 126.4418760  80.3547990
 128.0073040 125.4476550  81.1372020 135.2239820 136.0365680  72.6591990
 134.6057090 136.5015130  72.0954710 135.7363070 136.7293160  73.0761500
 130.0871580 135.5641550  79.3375590 129.7540960 136.1910470  79.9796660
 130.2638260 136.0903430  78.5577260 138.6005490 129.3786630  76.8051930
 137.8961060 129.6671520  77.3855040 138.9617650 130.1886740  76.4451490
 128.5184060 127.6356330  79.1672540 128.8600870 128.4798380  78.8726410
 127.5799870 127.7840070  79.2837880 129.2990680 137.5322350  81.1524770
 129.9164680 138.2073430  80.8709220 128.4383800 137.9410330  81.0612270
 124.5923020 136.7222210  70.0331620 124.2151000 137.2109310  69.3016520
 124.8496090 137.3947490  70.6638150 140.2168270 138.9961760  79.0679410
 139.5331790 139.6660870  79.0596080 140.7562560 139.1942410  78.3024270
 141.6692410 128.8241420  77.1961140 140.7217320 128.8580400  77.3276570
 141.9942400 129.6380370  77.5810500 132.2011950 125.1238600  75.4917130
 132.5086930 124.5685490  74.7752630 131.2712650 125.2583060  75.3090120
 137.7527010 140.8405890  77.7824590 137.7654170 140.4368180  76.9146850
 137.2002230 141.6153180  77.6786020 139.0472430 137.5622110  72.8714760
 138.9368760 136.6196440  72.9964180 139.0440680 137.9237750  73.7577520
 137.1512450 135.7435730  79.1107200 137.5681240 135.5295840  78.2760660
 137.8752270 136.0008520  79.6815820 134.5892710 133.1887430  72.2277250
 133.6621990 133.1224810  72.4565720 134.7417530 134.1267560  72.1132490
 134.5761790 129.4604430  69.2244410 133.6365460 129.6218390  69.3096870
 134.8945050 130.1790110  68.6780400 141.0974550 134.1422950  79.2023440
 140.2693180 134.2116040  78.7273570 141.6925030 134.7277260  78.7339270
 138.6190000 134.7507730  72.7312500 138.0002420 134.4127280  72.0838800
 138.6014450 134.1067490  73.4391690 138.0616560 130.9292270  80.1478310
 137.6487740 131.7545980  80.4018300 137.3292510 130.3437310  79.9554670
 130.1949350 133.7152170  75.0096980 129.7906350 133.0029420  74.5142880
 130.2812470 133.3705410  75.8985020 130.6631050 137.4019730  77.1736190
 130.3659340 136.7965200  76.4943970 131.6130870 137.4397040  77.0625550
 128.9077970 130.4895380  78.7896020 129.4592560 130.5990720  78.0149270
 129.4221480 130.8632980  79.5051250 138.7516660 140.9751600  80.8359290
 138.2747220 141.7823790  80.6431900 138.0678450 140.3229930  80.9885500
 129.7549480 137.1401420  83.8243990 128.8578010 137.3641390  84.0717390
 129.7802350 137.2636360  82.8755390 136.7954700 133.9894540  69.7385250
 137.2347980 133.1516970  69.5923070 137.5083120 134.6223940  69.8249390
 128.5820700 134.0114740  82.4001360 128.4428470 134.8837540  82.7688760
 127.7002060 133.6687550  82.2549300 134.9050080 138.9290610  73.7066490
 135.3445990 139.6714940  73.2921880 134.8436970 139.1717180  74.6305450
 130.3801050 139.9536440  84.6086510 130.3516480 140.3579390  83.7414940
 130.2166020 139.0246800  84.4458110 140.3771840 125.2437350  68.0526290
 140.0644500 125.3364180  68.9525360 141.1384310 125.8218380  68.0023720
 126.8953980 132.6097150  72.5103630 126.7751580 133.3359240  71.8984900
 126.5854870 131.8400060  72.0331540 142.3315870 140.7363540  85.9050680
 142.8075590 141.2146430  86.5839760 142.9523030 140.6681030  85.1796180
 124.5339350 135.7812290  78.3172270 124.6119770 135.9161060  77.3727990
 125.1481030 135.0728180  78.5100390 125.7786980 137.4812480  74.7278450
 125.3715060 137.6227070  73.8732050 126.6699990 137.1972640  74.5249660
 141.7349120 137.9276390  83.0650690 141.8612180 137.6888270  82.1467870
 141.7770500 137.0960930  83.5372770 135.5965860 141.6304390  81.6345500
 136.1110530 141.5412400  82.4367930 134.7534940 141.9764090  81.9273410
 137.5720260 141.9159730  71.0629500 137.4121400 141.6262670  71.9611330
 137.4066970 141.1399860  70.5274730 130.0508640 141.6958260  72.8401120
 129.8751120 140.7793800  72.6268920 129.1964380 142.0545550  73.0798920
 137.2746390 139.4247290  69.6227500 136.5811550 139.4224580  68.9629780
 138.0169250 139.0006610  69.1921670 136.8396320 141.0510000  73.6975990
 137.2953270 140.2699380  74.0114610 137.1788840 141.7616820  74.2417170
 141.5873130 129.9808850  84.0300430 140.9717400 130.4888520  83.5015890
 141.2669550 129.0807180  83.9726370 124.5898870 136.8226460  80.8566730
 124.7529910 136.3531820  80.0386100 125.0551320 136.3150020  81.5215570
 129.3617640 125.9532220  75.8927300 128.9185790 126.7341760  75.5611820
 129.9202630 126.2762110  76.5998240 133.6487450 128.8200740  81.4962620
 133.1866820 129.0283760  82.3082560 133.2465560 128.0060090  81.1933290
 138.6491960 130.0409690  82.6259280 137.7985550 129.7415440  82.9468350
 138.4893750 130.2851700  81.7143100 135.7441670 131.5411440  84.7258070
 136.0695080 130.7075190  84.3860300 136.5322000 132.0639960  84.8736400
 132.4776460 125.5742920  70.7733130 131.8530640 125.5702790  71.4986440
 132.3906580 124.7073880  70.3769100 131.3993540 126.4979550  77.7516900
 131.6965870 127.4042380  77.6708920 131.9479100 126.0098330  77.1376470
 129.1531860 131.0765790  73.6208550 128.9272780 130.8602960  74.5255170
 128.3724390 131.5094250  73.2754520 136.3829620 131.0829160  72.2199200
 135.7838510 131.8064960  72.0362820 136.9309230 131.0205940  71.4375650
 131.5931070 131.9751370  84.2868820 131.4974670 131.0346100  84.1369220
 132.4363050 132.1966440  83.8916890 134.9894490 129.7192700  74.2502480
 135.3824060 130.0364900  73.4371170 135.3511340 128.8404580  74.3647000
 126.7241610 128.3865040  82.4402600 126.3305000 129.2340250  82.6475380
 126.0360010 127.7491410  82.6311240 133.2986660 128.4700010  85.5099340
 132.6084980 128.2772210  86.1445430 134.0418960 128.7534650  86.0423640
 124.0258660 126.3093500  76.4732680 123.7371710 126.8796360  77.1857660
 124.7704420 125.8297950  76.8363910 124.2128890 130.2513620  67.6835400
 124.1303560 131.1944380  67.8250390 123.8611950 130.1088530  66.8047750
 135.5749630 132.3098450  78.3453260 134.8430750 132.8185260  78.6943360
 135.1773970 131.4928430  78.0442040 132.0127020 128.9852650  76.7505750
 132.0163080 128.5442600  75.9010290 132.9078140 129.3069980  76.8577570
 127.8629400 128.8679140  75.7099960 127.5229450 129.3454370  76.4667010
 127.1006720 128.4144260  75.3501060 132.0747170 129.9864730  69.7412510
 132.1959990 129.9451210  70.6898330 131.6895680 130.8488880  69.5859240
 136.0375540 127.7632130  77.7576200 136.0548280 128.2140780  78.6018050
 135.7891120 126.8637770  77.9709640 131.0868670 132.2965870  69.1395810
 130.5185570 131.8484120  68.5131720 131.7957670 132.6558650  68.6060960
 139.4646290 125.1764310  83.5962580 139.7892060 124.4453970  84.1220560
 139.5002800 124.8577950  82.6943570 126.1637850 136.1977890  83.0162540
 125.7792640 135.5571560  83.6145500 126.4750040 136.9014010  83.5857270
 132.3134990 133.0454430  78.4971160 132.6805120 132.5713000  79.2432500
 132.1240050 133.9196000  78.8379500 125.1775480 127.7898120  74.6264630
 124.8922400 127.4253790  75.4643250 125.1154340 127.0578580  74.0127770
 130.1034360 132.0863070  80.8155370 129.7991430 132.9655050  81.0405730
 131.0580820 132.1462860  80.8512810 128.6316150 136.2924060  71.4122220
 127.8578410 135.7521680  71.2520940 129.3610780 135.7730670  71.0739980
 139.3904130 135.2889420  77.2048610 140.1103250 135.7844710  76.8144720
 139.1885950 134.6107310  76.5602480 134.8514070 126.6827380  71.3478000
 134.0378680 126.1840550  71.2723310 134.6576020 127.5225630  70.9314350
 134.7722930 135.3598480  83.0917610 134.7060240 134.4394150  82.8375200
 134.1428070 135.4573920  83.8062250 137.5662460 131.0547030  69.6440160
 138.4542080 131.3664260  69.4691500 137.5367550 130.1819280  69.2520740
 128.6753550 135.9604440  75.0501030 129.1932220 135.1572700  74.9957920
 128.2237570 135.8983580  75.8917860 133.5623050 137.2270720  70.3228330
 133.9038750 137.9712950  69.8271650 132.7335760 137.5401840  70.6853160
 126.1598090 132.9265810  81.9626730 125.8013030 133.5919660  82.5500070
 125.8652650 132.0949360  82.3339350 129.3611210 133.3850050  84.8466280
 129.0611350 133.5307230  83.9494100 130.1322450 132.8255340  84.7539670
 134.7039660 138.1819050  82.8421410 134.7184200 137.2500010  82.6240320
 133.9964760 138.2678810  83.4811180 139.8376730 132.3658870  69.1120020
 139.7540450 132.7973090  68.2616460 140.5570920 132.8257220  69.5446840
 140.9150870 134.8226390  82.1889990 140.1899060 135.4155170  81.9919380
 141.4426330 134.8149930  81.3903360 140.8663980 139.2201130  71.8402150
 140.2240140 138.5656750  72.1145870 140.4794640 139.6256220  71.0642820
 136.4450460 136.5486560  75.6873840 136.7974280 135.9514690  75.0275210
 135.5612790 136.2230790  75.8582090 132.5313740 137.3084250  73.0944250
 133.2184870 137.8553460  73.4751840 131.7446160 137.8524980  73.1293860
 124.6706140 132.9257070  68.5861330 125.5400990 133.2081870  68.8697250
 124.1796460 133.7392940  68.4710140 131.8340950 134.3130280  72.7069610
 132.2903730 135.1235530  72.9329800 131.4829160 133.9953420  73.5388100
 134.1373560 139.8236620  79.9361910 134.7815780 140.0296000  80.6135330
 134.5003000 139.0625020  79.4832760 127.7352730 124.6567930  73.1792130
 127.6067360 124.6485830  74.1277050 126.9114750 124.9951020  72.8283140
 135.4105640 137.8268970  78.6539360 136.0527870 137.1262130  78.7671530
 135.9354990 138.6067410  78.4736250 139.2561360 138.1117590  68.3778500
 139.0298940 137.3948030  68.9703140 138.8657560 137.8630030  67.5400250
 137.1843260 138.6263870  81.8575420 137.5199500 139.2130560  82.5353340
 136.2643600 138.4956580  82.0873210 125.0377390 142.1384450  69.1522960
 125.3975030 142.7373790  68.4980230 124.8969730 142.6844340  69.9257990
 124.7346660 126.4159050  82.6398830 124.0205180 126.6155970  83.2451440
 125.1541700 125.6398620  83.0113630 138.8377610 136.0289530  70.0392660
 138.5499310 136.4902220  70.8270540 139.6329780 135.5687300  70.3076880
 125.0219250 140.4039310  83.6265360 125.1310370 139.4634050  83.4860750
 124.3699810 140.6694060  82.9779090 133.0131840 138.6755200  85.0263480
 132.6928710 137.9564440  85.5709170 132.3390200 139.3510270  85.0999540
 131.0546010 139.5215650  69.9696630 131.0456110 140.2545340  69.3541140
 130.1344370 139.2747230  70.0623590 126.6552650 134.7430540  70.7143390
 126.0480600 135.4829440  70.7238690 127.1302000 134.8329900  69.8881590
 136.2285440 128.9081360  80.3900280 136.5966260 128.0876570  80.7179850
 135.3683640 128.9683250  80.8055930 139.5947470 127.8638300  71.1987840
 138.9660630 127.9683970  70.4846070 139.0999390 128.0835080  71.9881720
 134.0405610 139.5843890  68.6321820 134.1417590 139.3807880  67.7023800
 133.1407350 139.3302170  68.8369600 131.5631500 130.1424250  72.6145720
 130.8547650 130.6110590  73.0559330 131.8475980 129.4846260  73.2490910
 133.1887430 131.5620950  80.6138250 133.6872680 132.0366770  81.2790100
 133.3310380 130.6384470  80.8208280 135.5946930 126.8674910  74.0541510
 135.4714710 126.8861040  73.1051020 136.5431490 126.9153850  74.1739910
 132.6823720 142.1030210  73.3269490 132.9365220 142.0651600  72.4048860
 131.7336200 141.9763540  73.3197740 129.7666520 128.4509330  69.9896430
 130.6157050 128.8879480  69.9236620 129.3997790 128.7629590  70.8168490
 140.3954290 127.7788910  81.4566640 139.8927890 128.5194310  81.7960450
 141.2110950 128.1672910  81.1403430 138.6876300 133.0222090  74.9028000
 137.7466440 133.0372320  75.0775690 139.0020370 132.2358050  75.3488300
 128.6657940 134.7041690  68.4631960 129.4321210 134.5923050  69.0257390
 128.7432630 134.0079660  67.8108730 127.3604700 132.1366760  69.1464850
 127.4408290 131.1894270  69.2582250 128.2524450 132.4673640  69.2525510
 140.6901880 140.1930940  76.5782260 140.8149300 141.0162110  77.0506070
 141.5567440 139.9821670  76.2306410 128.1619410 142.2862150  76.2499390
 128.8981890 141.7377610  76.5207960 128.5460330 143.1518160  76.1105380
 125.0464890 138.3535720  72.1240900 124.1204670 138.5956860  72.1146310
 125.5121320 139.1809980  72.0025650 127.1677690 141.4708220  85.4384970
 127.9690420 141.7920270  85.8520370 126.6529510 141.1103800  86.1604880
 131.2721720 141.4592460  68.0724960 132.0650330 141.7481290  67.6206750
 130.7526070 141.0284630  67.3937440 136.0042320 137.5788090  85.3860380
 135.3980480 137.6019690  84.6456130 135.6996430 136.8471130  85.9227630
 137.4342690 141.3068380  83.9969790 138.3864440 141.2226400  83.9470030
 137.2870910 141.9710090  84.6703580 140.3251890 140.6862590  69.4961700
 140.0393400 140.2727730  68.6815880 140.1271440 141.6150300  69.3762220
 124.8875500 133.9581680  84.3821020 125.3914520 133.3788960  84.9537250
 124.1482920 134.2421910  84.9197390 131.7899120 136.6795870  67.9367310
 131.6849760 136.0648220  68.6628690 131.6223340 136.1561760  67.1530320
 131.9413440 135.3652670  83.9156540 131.1759110 135.9337670  83.8311210
 132.1229400 135.0728880  83.0224770 135.0301850 135.7415900  68.5409300
 134.4811950 136.1885200  69.1852040 135.6521110 135.2365150  69.0646970
 139.0836790 137.0958000  84.4731560 139.8246260 137.4333760  83.9699020
 138.3209470 137.2650060  83.9201330 126.9198580 132.1011270  85.2771090
 126.9603920 131.8025140  86.1856320 127.7744080 132.5018880  85.1178610
 130.6976970 134.7006820  70.4374600 131.1193390 134.5346690  71.2805990
 130.8227810 133.8907050  69.9429740 128.8604390 130.6803370  83.2445580
 128.3300850 130.1894320  82.6168920 129.5292460 131.1087570  82.7103510
 133.2104610 133.7244430  67.6851700 133.7310270 133.0093450  67.3192850
 133.8573010 134.3630300  67.9852210 137.7582450 135.1472830  83.0086770
 138.1723470 135.3017910  83.8577190 136.8233450 135.2728050  83.1712550
 138.2304620 132.4868990  85.0125920 138.8125390 131.7321310  84.9246400
 138.4066390 133.0176430  84.2357400 129.3476690 127.6465740  83.3242870
 129.2533560 127.0286490  82.5993740 128.7674080 128.3732030  83.0972780
 132.1138130 126.2038980  80.3570260 131.6655430 126.2263240  79.5115810
 131.4803330 125.8058000  80.9540560 132.5197680 135.0993310  80.9782700
 132.9385790 135.9426040  80.8058940 131.6006310 135.2365350  80.7489480
 134.8561580 132.8309490  82.3620540 134.9757790 132.2350630  83.1015380
 135.7155580 132.8679180  81.9421840 137.1949480 133.3846680  80.9383050
 136.6684700 133.9089300  80.3348190 137.5380820 134.0174070  81.5692780
 129.5935870 130.7740050  67.3832760 129.3924930 129.9107410  67.7446100
 129.4227920 130.6873410  66.4454360 130.3705100 141.4046320  82.0940430
 129.8326190 142.1292380  81.7749130 130.6239060 140.9276660  81.3037770
 131.6230350 129.3730840  83.6196360 132.2130040 129.0646690  84.3074180
 130.8050590 128.9010590  83.7756260 136.4423780 128.9896650  83.8529380
 135.7539300 128.3278190  83.7879370 137.1629800 128.5434920  84.2977840
 137.0724180 125.5848280  69.9119640 137.3526470 124.7416180  70.2679060
 136.2989910 125.8171390  70.4258390 128.3918670 127.8740670  67.3710640
 128.6944570 127.8808100  66.4629790 129.1313260 127.5238530  67.8678300
 133.2267310 142.6397530  82.3527080 133.1526010 143.5432670  82.6599450
 132.3246150 142.3209430  82.3249150 131.6103600 126.8175290  68.3566840
 131.2625600 126.1399280  67.7769290 131.8116370 126.3564800  69.1710230
 133.7752640 141.8056040  69.9753440 134.6703430 142.1441010  69.9972200
 133.8070270 141.0835450  69.3477720 127.4148800 137.1783090  68.2040440
 127.8523670 137.7212760  68.8598020 127.8996530 136.3530040  68.2136780
 124.6294600 139.9672120  75.6560700 124.9597610 139.0993180  75.4239340
 125.0585600 140.1730640  76.4865660 129.2256520 138.2981130  73.3162670
 128.9252060 138.1746100  74.2166580 129.1194010 137.4389720  72.9078400
 125.1184810 140.8342710  78.3942330 124.6815800 141.0143510  79.2266480
 125.6862490 141.5917330  78.2524050 140.7546990 140.3359710  82.6819640
 140.1548980 140.3952270  81.9383560 140.8840890 139.3964690  82.8116490
 141.9948440 138.0777530  68.0189350 141.1641400 138.1454180  68.4896580
 142.1720270 138.9681650  67.7156210 141.4504900 134.8225010  70.5223550
 142.2123810 135.3921660  70.6283240 141.4659270 134.2552210  71.2931860
 124.9509240 133.3462940  74.7531210 124.2958080 133.0774580  74.1090910
 125.7887190 133.2367420  74.3033190 142.4564870 135.6775110  75.3665480
 142.8273700 134.8942430  74.9601450 143.0966800 136.3664210  75.1882780
 139.4398630 137.0611690  80.7795800 138.6258470 137.4908850  81.0421590
 139.8472830 137.6730100  80.1664850 141.5024070 135.1159380  67.6796070
 141.7772910 136.0238260  67.5515290 141.3134810 135.0521910  68.6158060
 137.8999680 128.1404230  68.9749700 138.3184560 127.9535210  68.1346360
 137.5935740 127.2883280  69.2852630 141.3989410 133.0528370  72.6725500
 141.0233010 132.2856300  72.2406790 140.6692530 133.4351070  73.1600430
 125.9885170 133.7315510  79.2934550 126.3558210 133.6442910  80.1730570
 125.4195990 132.9682060  79.1941410 140.7889030 132.1999890  82.3065020
 140.5575120 131.9712640  81.4062970 141.0493580 133.1199440  82.2609910
 125.5401170 130.6424600  83.1992970 124.6457220 130.6091360  83.5386680
 126.0798720 130.8411390  83.9644220 139.2277100 127.4256320  85.0844720
 140.1047280 127.4339720  85.4678720 139.2397940 126.6887160  84.4737070
 124.1647320 130.5561870  70.6956540 123.2611400 130.8192070  70.5208200
 124.6487940 130.8273040  69.9156500 140.6740370 131.2785860  75.9732740
 141.1977850 130.7848510  75.3422910 141.2599790 131.4136220  76.7180310
 140.8530090 131.3625730  79.4952290 139.9032800 131.3289270  79.6097280
 141.0343100 132.2725840  79.2602060 126.7074530 129.6127410  68.6050920
 127.4166230 129.1910630  68.1198200 125.9914470 129.6802640  67.9734270
 126.3548690 125.6666740  67.6453570 127.0776820 126.2075680  67.9634790
 126.6273210 125.3930160  66.7695110 140.1640340 130.5359210  71.9125150
 140.6599460 130.3030080  72.6974030 139.9656410 129.6971050  71.4962790
 126.0440880 124.9172930  77.5476190 126.6917070 124.3670310  77.1071350
 126.4642720 125.1716080  78.3692000 141.5927500 129.1720160  74.4462830
 141.4826780 129.0176200  75.3845100 142.3535090 128.6441100  74.2038240
 139.9393220 125.1114290  80.9045830 140.5765440 125.7248430  81.2705020
 140.0868110 125.1474950  79.9595060 142.4817770 127.0028080  67.6868970
 143.4067080 126.8709260  67.4787260 142.4593560 127.0820900  68.6405420
 142.5556260 127.7738740  70.3125680 141.7607760 127.7083860  70.8418590
 142.7599540 128.7089380  70.3011030 139.4974680 141.8130290  74.3064070
 140.0933750 141.4914860  73.6298490 139.7552830 141.3402110  75.0977340
 125.7972880 125.0728600  80.2901510 125.4487700 125.5292420  81.0559690
 125.4660580 124.1785730  80.3723940 127.4037250 138.2448200  84.4554700
 127.3606880 137.8741110  85.3369160 127.5348260 139.1825770  84.5956520
 131.1043280 139.8007790  80.0564420 130.8634640 140.0682350  79.1694940
 132.0445920 139.9713520  80.1115280 133.3097700 126.2640480  83.8120930
 133.2486590 126.8562310  84.5616340 134.2498080 126.1566440  83.6671190
 135.9472260 125.9210540  83.4513220 136.5612670 126.2389830  82.7894300
 136.4921820 125.4359130  84.0709080 142.3647440 141.8202170  80.8575060
 141.8705720 142.2171040  80.1402190 141.7560730 141.1951380  81.2512340
 126.4693520 124.6004800  83.5652280 127.0176510 124.4192850  82.8018390
 126.5348830 123.8098910  84.1008590 127.2425280 141.1910450  81.5752480
 126.6485600 141.0595150  82.3142520 127.2349120 140.3548590  81.1094580
 136.6880300 124.4842680  79.7782510 135.8140140 124.8177790  79.5755440
 136.5791050 124.0115860  80.6034380 137.5952280 126.6913550  81.1624230
 137.2665640 125.8765310  80.7825960 138.5434580 126.6483360  81.0389920
 140.0486890 142.4625590  78.1361800 139.5889860 143.2141400  77.7619820
 139.4199350 141.7432060  78.0776600 126.8737510 138.5568830  80.5260520
 126.1471570 137.9374120  80.4586470 126.9346660 138.9509440  79.6558600
 130.4782610 140.7713830  77.3109930 130.9947630 140.1601190  76.7858190
 131.1279990 141.2742610  77.8020940 133.2178110 141.6622320  78.1378910
 133.5055920 141.4076620  77.2611920 133.7301330 141.1099680  78.7284480
 134.4355120 125.4012520  78.7175420 133.6526910 125.8758020  78.9972180
 134.1418050 124.4967350  78.6088600 138.9876190 126.1035620  76.7624510
 139.4284280 126.0480720  75.9146110 138.7183780 127.0193630  76.8334690
 140.8514760 125.7350860  74.7733330 140.7903160 124.7912080  74.6264350
 141.6306790 125.8430950  75.3186790 125.1567510 141.8743220  73.7357280
 124.9889550 141.2413900  74.4339170 124.2902020 142.0802620  73.3851470
 125.7795530 125.7060000  71.2389140 126.5374890 125.8188880  70.6653170
 125.3172700 126.5429200  71.1932570 132.3209340 127.8199270  74.2291450
 131.5083850 127.4456160  73.8887330 132.8250980 127.0644350  74.5312640
 136.8234320 124.4841720  75.4674520 137.4263690 125.0561930  75.9423040
 136.0827310 125.0481160  75.2448420 139.9668920 124.8863280  70.7414800
 140.1619550 125.7846730  71.0082230 139.1798790 124.6550360  71.2347750
 126.7630210 140.5676450  71.1807420 126.2377830 140.9484480  70.4769380
 126.6874790 141.1927220  71.9017130 128.1520680 126.2324050  69.7791110
 128.6813440 125.4453850  69.6499060 128.7849000 126.9115240  70.0126640
 130.3458520 125.9699190  72.8336500 129.7161260 125.2686500  73.0006630
 129.8063660 126.7303320  72.6169660 133.2850470 142.5838420  85.5047110
 134.2117780 142.3482690  85.5483070 133.2700900 143.4110420  85.0233140
 141.5195530 142.1263990  72.5021360 141.6947720 141.4401730  71.8582280
 140.8217100 142.6511040  72.1098030 130.4714080 125.2483170  85.2688990
 130.1898350 125.7516770  84.5049810 130.8533780 124.4504920  84.9031120
 129.3623180 142.5158830  70.0556670 130.0942000 142.2318110  69.5080560
 129.6216850 142.2772110  70.9456050 128.5237970 138.6323560  70.0603000
 127.8946850 139.1008660  70.6088830 128.6385800 137.7872780  70.4949190
 137.0729540 124.6636750  85.8469460 136.9594990 124.9831360  86.7420980
 137.8899280 125.0649260  85.5506740 139.8528030 141.8108280  85.3288150
 140.6453350 141.3157510  85.1214110 140.1461180 142.4898420  85.9363760
 135.9787690 132.6829220  56.2104200 135.8981740 131.7683830  55.9395910
 135.5652110 133.1796290  55.5043910 134.1105730 134.4608240  58.0913470
 133.3347830 133.9808680  58.3812040 134.7618660 133.7813890  57.9169630
 128.1271560 134.7728050  58.9689230 127.2956440 134.5176760  59.3685740
 128.7352540 134.8438820  59.7047150 138.1313160 138.8668430  56.8712600
 137.6694690 138.0955670  57.1999770 138.9438710 138.8934500  57.3765050
 128.1072820 138.8068140  59.1647250 128.4100860 137.9165880  58.9857470
 128.8516410 139.3638360  58.9369500 126.5363510 129.7329940  52.7531620
 125.6480210 130.0745910  52.6511500 126.8204700 129.5330260  51.8612450
 124.4996520 132.3335590  58.6371320 125.0712630 131.5657790  58.6374960
 124.4998060 132.6324350  57.7277930 134.3576470 141.1526440  56.4916590
 133.7387910 141.6083940  55.9211030 135.2128250 141.3077900  56.0906290
 133.5514720 137.1365430  58.0983630 133.4823000 136.1955370  57.9372760
 134.3134580 137.2266840  58.6706200 125.7421390 127.7419950  60.4240250
 125.5624230 126.8445700  60.7043010 125.3401470 128.2891820  61.0987200
 134.5819890 129.9435810  58.3252560 134.9584710 129.0707690  58.2126230
 134.4839400 130.2794510  57.4343000 128.7124900 128.3161440  53.7870000
 128.8191650 129.2165170  54.0938760 127.8017260 128.2679410  53.4964650
 138.3644010 127.4386250  55.2580900 139.1853630 126.9482820  55.3006380
 138.3978090 128.0283910  56.0112740 126.3608060 130.2380450  59.0322590
 127.0418170 130.5018820  59.6509990 126.0456110 129.3981320  59.3660600
 130.5532630 131.2847810  58.1195180 131.0610850 131.7828780  58.7600200
 131.0845870 130.5083010  57.9434540 142.6543560 129.4553000  61.8224530
 141.9495730 129.8434710  61.3039640 142.9201480 130.1503290  62.4245460
 128.8368730 125.9246370  62.3858600 128.8387170 126.4418760  61.5804500
 128.0073040 125.4476550  62.3628530 135.2239820 136.0365680  53.8848500
 134.6057090 136.5015130  53.3211220 135.7363070 136.7293160  54.3018010
 130.0871580 135.5641550  60.5632100 129.7540960 136.1910470  61.2053170
 130.2638260 136.0903430  59.7833770 138.6005490 129.3786630  58.0308440
 137.8961060 129.6671520  58.6111550 138.9617650 130.1886740  57.6708000
 128.5184060 127.6356330  60.3929050 128.8600870 128.4798380  60.0982920
 127.5799870 127.7840070  60.5094390 129.2990680 137.5322350  62.3781280
 129.9164680 138.2073430  62.0965730 128.4383800 137.9410330  62.2868780
 124.5923020 136.7222210  51.2588130 124.2151000 137.2109310  50.5273030
 124.8496090 137.3947490  51.8894660 140.2168270 138.9961760  60.2935920
 139.5331790 139.6660870  60.2852590 140.7562560 139.1942410  59.5280780
 141.6692410 128.8241420  58.4217650 140.7217320 128.8580400  58.5533080
 141.9942400 129.6380370  58.8067010 132.2011950 125.1238600  56.7173640
 132.5086930 124.5685490  56.0009140 131.2712650 125.2583060  56.5346630
 137.7527010 140.8405890  59.0081100 137.7654170 140.4368180  58.1403360
 137.2002230 141.6153180  58.9042530 139.0472430 137.5622110  54.0971270
 138.9368760 136.6196440  54.2220690 139.0440680 137.9237750  54.9834030
 137.1512450 135.7435730  60.3363710 137.5681240 135.5295840  59.5017170
 137.8752270 136.0008520  60.9072330 134.5892710 133.1887430  53.4533760
 133.6621990 133.1224810  53.6822230 134.7417530 134.1267560  53.3389000
 134.5761790 129.4604430  50.4500920 133.6365460 129.6218390  50.5353380
 134.8945050 130.1790110  49.9036910 141.0974550 134.1422950  60.4279950
 140.2693180 134.2116040  59.9530080 141.6925030 134.7277260  59.9595780
 138.6190000 134.7507730  53.9569010 138.0002420 134.4127280  53.3095310
 138.6014450 134.1067490  54.6648200 138.0616560 130.9292270  61.3734820
 137.6487740 131.7545980  61.6274810 137.3292510 130.3437310  61.1811180
 130.1949350 133.7152170  56.2353490 129.7906350 133.0029420  55.7399390
 130.2812470 133.3705410  57.1241530 130.6631050 137.4019730  58.3992700
 130.3659340 136.7965200  57.7200480 131.6130870 137.4397040  58.2882060
 128.9077970 130.4895380  60.0152530 129.4592560 130.5990720  59.2405780
 129.4221480 130.8632980  60.7307760 138.7516660 140.9751600  62.0615800
 138.2747220 141.7823790  61.8688410 138.0678450 140.3229930  62.2142010
 129.7549480 137.1401420  65.0500500 128.8578010 137.3641390  65.2973900
 129.7802350 137.2636360  64.1011900 136.7954700 133.9894540  50.9641760
 137.2347980 133.1516970  50.8179580 137.5083120 134.6223940  51.0505900
 128.5820700 134.0114740  63.6257870 128.4428470 134.8837540  63.9945270
 127.7002060 133.6687550  63.4805810 134.9050080 138.9290610  54.9323000
 135.3445990 139.6714940  54.5178390 134.8436970 139.1717180  55.8561960
 130.3801050 139.9536440  65.8343020 130.3516480 140.3579390  64.9671450
 130.2166020 139.0246800  65.6714620 140.3771840 125.2437350  49.2782800
 140.0644500 125.3364180  50.1781870 141.1384310 125.8218380  49.2280230
 126.8953980 132.6097150  53.7360140 126.7751580 133.3359240  53.1241410
 126.5854870 131.8400060  53.2588050 142.3315870 140.7363540  67.1307190
 142.8075590 141.2146430  67.8096270 142.9523030 140.6681030  66.4052690
 124.5339350 135.7812290  59.5428780 124.6119770 135.9161060  58.5984500
 125.1481030 135.0728180  59.7356900 125.7786980 137.4812480  55.9534960
 125.3715060 137.6227070  55.0988560 126.6699990 137.1972640  55.7506170
 141.7349120 137.9276390  64.2907200 141.8612180 137.6888270  63.3724380
 141.7770500 137.0960930  64.7629280 135.5965860 141.6304390  62.8602010
 136.1110530 141.5412400  63.6624440 134.7534940 141.9764090  63.1529920
 137.5720260 141.9159730  52.2886010 137.4121400 141.6262670  53.1867840
 137.4066970 141.1399860  51.7531240 130.0508640 141.6958260  54.0657630
 129.8751120 140.7793800  53.8525430 129.1964380 142.0545550  54.3055430
 137.2746390 139.4247290  50.8484010 136.5811550 139.4224580  50.1886290
 138.0169250 139.0006610  50.4178180 136.8396320 141.0510000  54.9232500
 137.2953270 140.2699380  55.2371120 137.1788840 141.7616820  55.4673680
 141.5873130 129.9808850  65.2556940 140.9717400 130.4888520  64.7272400
 141.2669550 129.0807180  65.1982880 124.5898870 136.8226460  62.0823240
 124.7529910 136.3531820  61.2642610 125.0551320 136.3150020  62.7472080
 129.3617640 125.9532220  57.1183810 128.9185790 126.7341760  56.7868330
 129.9202630 126.2762110  57.8254750 133.6487450 128.8200740  62.7219130
 133.1866820 129.0283760  63.5339070 133.2465560 128.0060090  62.4189800
 138.6491960 130.0409690  63.8515790 137.7985550 129.7415440  64.1724860
 138.4893750 130.2851700  62.9399610 135.7441670 131.5411440  65.9514580
 136.0695080 130.7075190  65.6116810 136.5322000 132.0639960  66.0992910
 132.4776460 125.5742920  51.9989640 131.8530640 125.5702790  52.7242950
 132.3906580 124.7073880  51.6025610 131.3993540 126.4979550  58.9773410
 131.6965870 127.4042380  58.8965430 131.9479100 126.0098330  58.3632980
 129.1531860 131.0765790  54.8465060 128.9272780 130.8602960  55.7511680
 128.3724390 131.5094250  54.5011030 136.3829620 131.0829160  53.4455710
 135.7838510 131.8064960  53.2619330 136.9309230 131.0205940  52.6632160
 131.5931070 131.9751370  65.5125330 131.4974670 131.0346100  65.3625730
 132.4363050 132.1966440  65.1173400 134.9894490 129.7192700  55.4758990
 135.3824060 130.0364900  54.6627680 135.3511340 128.8404580  55.5903510
 126.7241610 128.3865040  63.6659110 126.3305000 129.2340250  63.8731890
 126.0360010 127.7491410  63.8567750 133.2986660 128.4700010  66.7355850
 132.6084980 128.2772210  67.3701940 134.0418960 128.7534650  67.2680150
 124.0258660 126.3093500  57.6989190 123.7371710 126.8796360  58.4114170
 124.7704420 125.8297950  58.0620420 124.2128890 130.2513620  48.9091910
 124.1303560 131.1944380  49.0506900 123.8611950 130.1088530  48.0304260
 135.5749630 132.3098450  59.5709770 134.8430750 132.8185260  59.9199870
 135.1773970 131.4928430  59.2698550 132.0127020 128.9852650  57.9762260
 132.0163080 128.5442600  57.1266800 132.9078140 129.3069980  58.0834080
 127.8629400 128.8679140  56.9356470 127.5229450 129.3454370  57.6923520
 127.1006720 128.4144260  56.5757570 132.0747170 129.9864730  50.9669020
 132.1959990 129.9451210  51.9154840 131.6895680 130.8488880  50.8115750
 136.0375540 127.7632130  58.9832710 136.0548280 128.2140780  59.8274560
 135.7891120 126.8637770  59.1966150 131.0868670 132.2965870  50.3652320
 130.5185570 131.8484120  49.7388230 131.7957670 132.6558650  49.8317470
 139.4646290 125.1764310  64.8219090 139.7892060 124.4453970  65.3477070
 139.5002800 124.8577950  63.9200080 126.1637850 136.1977890  64.2419050
 125.7792640 135.5571560  64.8402010 126.4750040 136.9014010  64.8113780
 132.3134990 133.0454430  59.7227670 132.6805120 132.5713000  60.4689010
 132.1240050 133.9196000  60.0636010 125.1775480 127.7898120  55.8521140
 124.8922400 127.4253790  56.6899760 125.1154340 127.0578580  55.2384280
 130.1034360 132.0863070  62.0411880 129.7991430 132.9655050  62.2662240
 131.0580820 132.1462860  62.0769320 128.6316150 136.2924060  52.6378730
 127.8578410 135.7521680  52.4777450 129.3610780 135.7730670  52.2996490
 139.3904130 135.2889420  58.4305120 140.1103250 135.7844710  58.0401230
 139.1885950 134.6107310  57.7858990 134.8514070 126.6827380  52.5734510
 134.0378680 126.1840550  52.4979820 134.6576020 127.5225630  52.1570860
 134.7722930 135.3598480  64.3174120 134.7060240 134.4394150  64.0631710
 134.1428070 135.4573920  65.0318760 137.5662460 131.0547030  50.8696670
 138.4542080 131.3664260  50.6948010 137.5367550 130.1819280  50.4777250
 128.6753550 135.9604440  56.2757540 129.1932220 135.1572700  56.2214430
 128.2237570 135.8983580  57.1174370 133.5623050 137.2270720  51.5484840
 133.9038750 137.9712950  51.0528160 132.7335760 137.5401840  51.9109670
 126.1598090 132.9265810  63.1883240 125.8013030 133.5919660  63.7756580
 125.8652650 132.0949360  63.5595860 129.3611210 133.3850050  66.0722790
 129.0611350 133.5307230  65.1750610 130.1322450 132.8255340  65.9796180
 134.7039660 138.1819050  64.0677920 134.7184200 137.2500010  63.8496830
 133.9964760 138.2678810  64.7067690 139.8376730 132.3658870  50.3376530
 139.7540450 132.7973090  49.4872970 140.5570920 132.8257220  50.7703350
 140.9150870 134.8226390  63.4146500 140.1899060 135.4155170  63.2175890
 141.4426330 134.8149930  62.6159870 140.8663980 139.2201130  53.0658660
 140.2240140 138.5656750  53.3402380 140.4794640 139.6256220  52.2899330
 136.4450460 136.5486560  56.9130350 136.7974280 135.9514690  56.2531720
 135.5612790 136.2230790  57.0838600 132.5313740 137.3084250  54.3200760
 133.2184870 137.8553460  54.7008350 131.7446160 137.8524980  54.3550370
 124.6706140 132.9257070  49.8117840 125.5400990 133.2081870  50.0953760
 124.1796460 133.7392940  49.6966650 131.8340950 134.3130280  53.9326120
 132.2903730 135.1235530  54.1586310 131.4829160 133.9953420  54.7644610
 134.1373560 139.8236620  61.1618420 134.7815780 140.0296000  61.8391840
 134.5003000 139.0625020  60.7089270 127.7352730 124.6567930  54.4048640
 127.6067360 124.6485830  55.3533560 126.9114750 124.9951020  54.0539650
 135.4105640 137.8268970  59.8795870 136.0527870 137.1262130  59.9928040
 135.9354990 138.6067410  59.6992760 139.2561360 138.1117590  49.6035010
 139.0298940 137.3948030  50.1959650 138.8657560 137.8630030  48.7656760
 137.1843260 138.6263870  63.0831930 137.5199500 139.2130560  63.7609850
 136.2643600 138.4956580  63.3129720 125.0377390 142.1384450  50.3779470
 125.3975030 142.7373790  49.7236740 124.8969730 142.6844340  51.1514500
 124.7346660 126.4159050  63.8655340 124.0205180 126.6155970  64.4707950
 125.1541700 125.6398620  64.2370140 138.8377610 136.0289530  51.2649170
 138.5499310 136.4902220  52.0527050 139.6329780 135.5687300  51.5333390
 125.0219250 140.4039310  64.8521870 125.1310370 139.4634050  64.7117260
 124.3699810 140.6694060  64.2035600 133.0131840 138.6755200  66.2519990
 132.6928710 137.9564440  66.7965680 132.3390200 139.3510270  66.3256050
 131.0546010 139.5215650  51.1953140 131.0456110 140.2545340  50.5797650
 130.1344370 139.2747230  51.2880100 126.6552650 134.7430540  51.9399900
 126.0480600 135.4829440  51.9495200 127.1302000 134.8329900  51.1138100
 136.2285440 128.9081360  61.6156790 136.5966260 128.0876570  61.9436360
 135.3683640 128.9683250  62.0312440 139.5947470 127.8638300  52.4244350
 138.9660630 127.9683970  51.7102580 139.0999390 128.0835080  53.2138230
 134.0405610 139.5843890  49.8578330 134.1417590 139.3807880  48.9280310
 133.1407350 139.3302170  50.0626110 131.5631500 130.1424250  53.8402230
 130.8547650 130.6110590  54.2815840 131.8475980 129.4846260  54.4747420
 133.1887430 131.5620950  61.8394760 133.6872680 132.0366770  62.5046610
 133.3310380 130.6384470  62.0464790 135.5946930 126.8674910  55.2798020
 135.4714710 126.8861040  54.3307530 136.5431490 126.9153850  55.3996420
 132.6823720 142.1030210  54.5526000 132.9365220 142.0651600  53.6305370
 131.7336200 141.9763540  54.5454250 129.7666520 128.4509330  51.2152940
 130.6157050 128.8879480  51.1493130 129.3997790 128.7629590  52.0425000
 140.3954290 127.7788910  62.6823150 139.8927890 128.5194310  63.0216960
 141.2110950 128.1672910  62.3659940 138.6876300 133.0222090  56.1284510
 137.7466440 133.0372320  56.3032200 139.0020370 132.2358050  56.5744810
 128.6657940 134.7041690  49.6888470 129.4321210 134.5923050  50.2513900
 128.7432630 134.0079660  49.0365240 127.3604700 132.1366760  50.3721360
 127.4408290 131.1894270  50.4838760 128.2524450 132.4673640  50.4782020
 140.6901880 140.1930940  57.8038770 140.8149300 141.0162110  58.2762580
 141.5567440 139.9821670  57.4562920 128.1619410 142.2862150  57.4755900
 128.8981890 141.7377610  57.7464470 128.5460330 143.1518160  57.3361890
 125.0464890 138.3535720  53.3497410 124.1204670 138.5956860  53.3402820
 125.5121320 139.1809980  53.2282160 127.1677690 141.4708220  66.6641480
 127.9690420 141.7920270  67.0776880 126.6529510 141.1103800  67.3861390
 131.2721720 141.4592460  49.2981470 132.0650330 141.7481290  48.8463260
 130.7526070 141.0284630  48.6193950 136.0042320 137.5788090  66.6116890
 135.3980480 137.6019690  65.8712640 135.6996430 136.8471130  67.1484140
 137.4342690 141.3068380  65.2226300 138.3864440 141.2226400  65.1726540
 137.2870910 141.9710090  65.8960090 140.3251890 140.6862590  50.7218210
 140.0393400 140.2727730  49.9072390 140.1271440 141.6150300  50.6018730
 124.8875500 133.9581680  65.6077530 125.3914520 133.3788960  66.1793760
 124.1482920 134.2421910  66.1453900 131.7899120 136.6795870  49.1623820
 131.6849760 136.0648220  49.8885200 131.6223340 136.1561760  48.3786830
 131.9413440 135.3652670  65.1413050 131.1759110 135.9337670  65.0567720
 132.1229400 135.0728880  64.2481280 135.0301850 135.7415900  49.7665810
 134.4811950 136.1885200  50.4108550 135.6521110 135.2365150  50.2903480
 139.0836790 137.0958000  65.6988070 139.8246260 137.4333760  65.1955530
 138.3209470 137.2650060  65.1457840 126.9198580 132.1011270  66.5027600
 126.9603920 131.8025140  67.4112830 127.7744080 132.5018880  66.3435120
 130.6976970 134.7006820  51.6631110 131.1193390 134.5346690  52.5062500
 130.8227810 133.8907050  51.1686250 128.8604390 130.6803370  64.4702090
 128.3300850 130.1894320  63.8425430 129.5292460 131.1087570  63.9360020
 133.2104610 133.7244430  48.9108210 133.7310270 133.0093450  48.5449360
 133.8573010 134.3630300  49.2108720 137.7582450 135.1472830  64.2343280
 138.1723470 135.3017910  65.0833700 136.8233450 135.2728050  64.3969060
 138.2304620 132.4868990  66.2382430 138.8125390 131.7321310  66.1502910
 138.4066390 133.0176430  65.4613910 129.3476690 127.6465740  64.5499380
 129.2533560 127.0286490  63.8250250 128.7674080 128.3732030  64.3229290
 132.1138130 126.2038980  61.5826770 131.6655430 126.2263240  60.7372320
 131.4803330 125.8058000  62.1797070 132.5197680 135.0993310  62.2039210
 132.9385790 135.9426040  62.0315450 131.6006310 135.2365350  61.9745990
 134.8561580 132.8309490  63.5877050 134.9757790 132.2350630  64.3271890
 135.7155580 132.8679180  63.1678350 137.1949480 133.3846680  62.1639560
 136.6684700 133.9089300  61.5604700 137.5380820 134.0174070  62.7949290
 129.5935870 130.7740050  48.6089270 129.3924930 129.9107410  48.9702610
 129.4227920 130.6873410  47.6710870 130.3705100 141.4046320  63.3196940
 129.8326190 142.1292380  63.0005640 130.6239060 140.9276660  62.5294280
 131.6230350 129.3730840  64.8452870 132.2130040 129.0646690  65.5330690
 130.8050590 128.9010590  65.0012770 136.4423780 128.9896650  65.0785890
 135.7539300 128.3278190  65.0135880 137.1629800 128.5434920  65.5234350
 137.0724180 125.5848280  51.1376150 137.3526470 124.7416180  51.4935570
 136.2989910 125.8171390  51.6514900 128.3918670 127.8740670  48.5967150
 128.6944570 127.8808100  47.6886300 129.1313260 127.5238530  49.0934810
 133.2267310 142.6397530  63.5783590 133.1526010 143.5432670  63.8855960
 132.3246150 142.3209430  63.5505660 131.6103600 126.8175290  49.5823350
 131.2625600 126.1399280  49.0025800 131.8116370 126.3564800  50.3966740
 133.7752640 141.8056040  51.2009950 134.6703430 142.1441010  51.2228710
 133.8070270 141.0835450  50.5734230 127.4148800 137.1783090  49.4296950
 127.8523670 137.7212760  50.0854530 127.8996530 136.3530040  49.4393290
 124.6294600 139.9672120  56.8817210 124.9597610 139.0993180  56.6495850
 125.0585600 140.1730640  57.7122170 129.2256520 138.2981130  54.5419180
 128.9252060 138.1746100  55.4423090 129.1194010 137.4389720  54.1334910
 125.1184810 140.8342710  59.6198840 124.6815800 141.0143510  60.4522990
 125.6862490 141.5917330  59.4780560 140.7546990 140.3359710  63.9076150
 140.1548980 140.3952270  63.1640070 140.8840890 139.3964690  64.0373000
 141.9948440 138.0777530  49.2445860 141.1641400 138.1454180  49.7153090
 142.1720270 138.9681650  48.9412720 141.4504900 134.8225010  51.7480060
 142.2123810 135.3921660  51.8539750 141.4659270 134.2552210  52.5188370
 124.9509240 133.3462940  55.9787720 124.2958080 133.0774580  55.3347420
 125.7887190 133.2367420  55.5289700 142.4564870 135.6775110  56.5921990
 142.8273700 134.8942430  56.1857960 143.0966800 136.3664210  56.4139290
 139.4398630 137.0611690  62.0052310 138.6258470 137.4908850  62.2678100
 139.8472830 137.6730100  61.3921360 141.5024070 135.1159380  48.9052580
 141.7772910 136.0238260  48.7771800 141.3134810 135.0521910  49.8414570
 137.8999680 128.1404230  50.2006210 138.3184560 127.9535210  49.3602870
 137.5935740 127.2883280  50.5109140 141.3989410 133.0528370  53.8982010
 141.0233010 132.2856300  53.4663300 140.6692530 133.4351070  54.3856940
 125.9885170 133.7315510  60.5191060 126.3558210 133.6442910  61.3987080
 125.4195990 132.9682060  60.4197920 140.7889030 132.1999890  63.5321530
 140.5575120 131.9712640  62.6319480 141.0493580 133.1199440  63.4866420
 125.5401170 130.6424600  64.4249480 124.6457220 130.6091360  64.7643190
 126.0798720 130.8411390  65.1900730 139.2277100 127.4256320  66.3101230
 140.1047280 127.4339720  66.6935230 139.2397940 126.6887160  65.6993580
 124.1647320 130.5561870  51.9213050 123.2611400 130.8192070  51.7464710
 124.6487940 130.8273040  51.1413010 140.6740370 131.2785860  57.1989250
 141.1977850 130.7848510  56.5679420 141.2599790 131.4136220  57.9436820
 140.8530090 131.3625730  60.7208800 139.9032800 131.3289270  60.8353790
 141.0343100 132.2725840  60.4858570 126.7074530 129.6127410  49.8307430
 127.4166230 129.1910630  49.3454710 125.9914470 129.6802640  49.1990780
 126.3548690 125.6666740  48.8710080 127.0776820 126.2075680  49.1891300
 126.6273210 125.3930160  47.9951620 140.1640340 130.5359210  53.1381660
 140.6599460 130.3030080  53.9230540 139.9656410 129.6971050  52.7219300
 126.0440880 124.9172930  58.7732700 126.6917070 124.3670310  58.3327860
 126.4642720 125.1716080  59.5948510 141.5927500 129.1720160  55.6719340
 141.4826780 129.0176200  56.6101610 142.3535090 128.6441100  55.4294750
 139.9393220 125.1114290  62.1302340 140.5765440 125.7248430  62.4961530
 140.0868110 125.1474950  61.1851570 142.4817770 127.0028080  48.9125480
 143.4067080 126.8709260  48.7043770 142.4593560 127.0820900  49.8661930
 142.5556260 127.7738740  51.5382190 141.7607760 127.7083860  52.0675100
 142.7599540 128.7089380  51.5267540 139.4974680 141.8130290  55.5320580
 140.0933750 141.4914860  54.8555000 139.7552830 141.3402110  56.3233850
 125.7972880 125.0728600  61.5158020 125.4487700 125.5292420  62.2816200
 125.4660580 124.1785730  61.5980450 127.4037250 138.2448200  65.6811210
 127.3606880 137.8741110  66.5625670 127.5348260 139.1825770  65.8213030
 131.1043280 139.8007790  61.2820930 130.8634640 140.0682350  60.3951450
 132.0445920 139.9713520  61.3371790 133.3097700 126.2640480  65.0377440
 133.2486590 126.8562310  65.7872850 134.2498080 126.1566440  64.8927700
 135.9472260 125.9210540  64.6769730 136.5612670 126.2389830  64.0150810
 136.4921820 125.4359130  65.2965590 142.3647440 141.8202170  62.0831570
 141.8705720 142.2171040  61.3658700 141.7560730 141.1951380  62.4768850
 126.4693520 124.6004800  64.7908790 127.0176510 124.4192850  64.0274900
 126.5348830 123.8098910  65.3265100 127.2425280 141.1910450  62.8008990
 126.6485600 141.0595150  63.5399030 127.2349120 140.3548590  62.3351090
 136.6880300 124.4842680  61.0039020 135.8140140 124.8177790  60.8011950
 136.5791050 124.0115860  61.8290890 137.5952280 126.6913550  62.3880740
 137.2665640 125.8765310  62.0082470 138.5434580 126.6483360  62.2646430
 140.0486890 142.4625590  59.3618310 139.5889860 143.2141400  58.9876330
 139.4199350 141.7432060  59.3033110 126.8737510 138.5568830  61.7517030
 126.1471570 137.9374120  61.6842980 126.9346660 138.9509440  60.8815110
 130.4782610 140.7713830  58.5366440 130.9947630 140.1601190  58.0114700
 131.1279990 141.2742610  59.0277450 133.2178110 141.6622320  59.3635420
 133.5055920 141.4076620  58.4868430 133.7301330 141.1099680  59.9540990
 134.4355120 125.4012520  59.9431930 133.6526910 125.8758020  60.2228690
 134.1418050 124.4967350  59.8345110 138.9876190 126.1035620  57.9881020
 139.4284280 126.0480720  57.1402620 138.7183780 127.0193630  58.0591200
 140.8514760 125.7350860  55.9989840 140.7903160 124.7912080  55.8520860
 141.6306790 125.8430950  56.5443300 125.1567510 141.8743220  54.9613790
 124.9889550 141.2413900  55.6595680 124.2902020 142.0802620  54.6107980
 125.7795530 125.7060000  52.4645650 126.5374890 125.8188880  51.8909680
 125.3172700 126.5429200  52.4189080 132.3209340 127.8199270  55.4547960
 131.5083850 127.4456160  55.1143840 132.8250980 127.0644350  55.7569150
 136.8234320 124.4841720  56.6931030 137.4263690 125.0561930  57.1679550
 136.0827310 125.0481160  56.4704930 139.9668920 124.8863280  51.9671310
 140.1619550 125.7846730  52.2338740 139.1798790 124.6550360  52.4604260
 126.7630210 140.5676450  52.4063930 126.2377830 140.9484480  51.7025890
 126.6874790 141.1927220  53.1273640 128.1520680 126.2324050  51.0047620
 128.6813440 125.4453850  50.8755570 128.7849000 126.9115240  51.2383150
 130.3458520 125.9699190  54.0593010 129.7161260 125.2686500  54.2263140
 129.8063660 126.7303320  53.8426170 133.2850470 142.5838420  66.7303620
 134.2117780 142.3482690  66.7739580 133.2700900 143.4110420  66.2489650
 141.5195530 142.1263990  53.7277870 141.6947720 141.4401730  53.0838790
 140.8217100 142.6511040  53.3354540 130.4714080 125.2483170  66.4945500
 130.1898350 125.7516770  65.7306320 130.8533780 124.4504920  66.1287630
 129.3623180 142.5158830  51.2813180 130.0942000 142.2318110  50.7337070
 129.6216850 142.2772110  52.1712560 128.5237970 138.6323560  51.2859510
 127.8946850 139.1008660  51.8345340 128.6385800 137.7872780  51.7205700
 137.0729540 124.6636750  67.0725970 136.9594990 124.9831360  67.9677490
 137.8899280 125.0649260  66.7763250 139.8528030 141.8108280  66.5544660
 140.6453350 141.3157510  66.3470620 140.1461180 142.4898420  67.1620270
 135.9787690 132.6829220  37.4360710 135.8981740 131.7683830  37.1652420
 135.5652110 133.1796290  36.7300420 134.1105730 134.4608240  39.3169980
 133.3347830 133.9808680  39.6068550 134.7618660 133.7813890  39.1426140
 128.1271560 134.7728050  40.1945740 127.2956440 134.5176760  40.5942250
 128.7352540 134.8438820  40.9303660 138.1313160 138.8668430  38.0969110
 137.6694690 138.0955670  38.4256280 138.9438710 138.8934500  38.6021560
 128.1072820 138.8068140  40.3903760 128.4100860 137.9165880  40.2113980
 128.8516410 139.3638360  40.1626010 126.5363510 129.7329940  33.9788130
 125.6480210 130.0745910  33.8768010 126.8204700 129.5330260  33.0868960
 124.4996520 132.3335590  39.8627830 125.0712630 131.5657790  39.8631470
 124.4998060 132.6324350  38.9534440 134.3576470 141.1526440  37.7173100
 133.7387910 141.6083940  37.1467540 135.2128250 141.3077900  37.3162800
 133.5514720 137.1365430  39.3240140 133.4823000 136.1955370  39.1629270
 134.3134580 137.2266840  39.8962710 125.7421390 127.7419950  41.6496760
 125.5624230 126.8445700  41.9299520 125.3401470 128.2891820  42.3243710
 134.5819890 129.9435810  39.5509070 134.9584710 129.0707690  39.4382740
 134.4839400 130.2794510  38.6599510 128.7124900 128.3161440  35.0126510
 128.8191650 129.2165170  35.3195270 127.8017260 128.2679410  34.7221160
 138.3644010 127.4386250  36.4837410 139.1853630 126.9482820  36.5262890
 138.3978090 128.0283910  37.2369250 126.3608060 130.2380450  40.2579100
 127.0418170 130.5018820  40.8766500 126.0456110 129.3981320  40.5917110
 130.5532630 131.2847810  39.3451690 131.0610850 131.7828780  39.9856710
 131.0845870 130.5083010  39.1691050 142.6543560 129.4553000  43.0481040
 141.9495730 129.8434710  42.5296150 142.9201480 130.1503290  43.6501970
 128.8368730 125.9246370  43.6115110 128.8387170 126.4418760  42.8061010
 128.0073040 125.4476550  43.5885040 135.2239820 136.0365680  35.1105010
 134.6057090 136.5015130  34.5467730 135.7363070 136.7293160  35.5274520
 130.0871580 135.5641550  41.7888610 129.7540960 136.1910470  42.4309680
 130.2638260 136.0903430  41.0090280 138.6005490 129.3786630  39.2564950
 137.8961060 129.6671520  39.8368060 138.9617650 130.1886740  38.8964510
 128.5184060 127.6356330  41.6185560 128.8600870 128.4798380  41.3239430
 127.5799870 127.7840070  41.7350900 129.2990680 137.5322350  43.6037790
 129.9164680 138.2073430  43.3222240 128.4383800 137.9410330  43.5125290
 124.5923020 136.7222210  32.4844640 124.2151000 137.2109310  31.7529540
 124.8496090 137.3947490  33.1151170 140.2168270 138.9961760  41.5192430
 139.5331790 139.6660870  41.5109100 140.7562560 139.1942410  40.7537290
 141.6692410 128.8241420  39.6474160 140.7217320 128.8580400  39.7789590
 141.9942400 129.6380370  40.0323520 132.2011950 125.1238600  37.9430150
 132.5086930 124.5685490  37.2265650 131.2712650 125.2583060  37.7603140
 137.7527010 140.8405890  40.2337610 137.7654170 140.4368180  39.3659870
 137.2002230 141.6153180  40.1299040 139.0472430 137.5622110  35.3227780
 138.9368760 136.6196440  35.4477200 139.0440680 137.9237750  36.2090540
 137.1512450 135.7435730  41.5620220 137.5681240 135.5295840  40.7273680
 137.8752270 136.0008520  42.1328840 134.5892710 133.1887430  34.6790270
 133.6621990 133.1224810  34.9078740 134.7417530 134.1267560  34.5645510
 134.5761790 129.4604430  31.6757430 133.6365460 129.6218390  31.7609890
 134.8945050 130.1790110  31.1293420 141.0974550 134.1422950  41.6536460
 140.2693180 134.2116040  41.1786590 141.6925030 134.7277260  41.1852290
 138.6190000 134.7507730  35.1825520 138.0002420 134.4127280  34.5351820
 138.6014450 134.1067490  35.8904710 138.0616560 130.9292270  42.5991330
 137.6487740 131.7545980  42.8531320 137.3292510 130.3437310  42.4067690
 130.1949350 133.7152170  37.4610000 129.7906350 133.0029420  36.9655900
 130.2812470 133.3705410  38.3498040 130.6631050 137.4019730  39.6249210
 130.3659340 136.7965200  38.9456990 131.6130870 137.4397040  39.5138570
 128.9077970 130.4895380  41.2409040 129.4592560 130.5990720  40.4662290
 129.4221480 130.8632980  41.9564270 138.7516660 140.9751600  43.2872310
 138.2747220 141.7823790  43.0944920 138.0678450 140.3229930  43.4398520
 129.7549480 137.1401420  46.2757010 128.8578010 137.3641390  46.5230410
 129.7802350 137.2636360  45.3268410 136.7954700 133.9894540  32.1898270
 137.2347980 133.1516970  32.0436090 137.5083120 134.6223940  32.2762410
 128.5820700 134.0114740  44.8514380 128.4428470 134.8837540  45.2201780
 127.7002060 133.6687550  44.7062320 134.9050080 138.9290610  36.1579510
 135.3445990 139.6714940  35.7434900 134.8436970 139.1717180  37.0818470
 130.3801050 139.9536440  47.0599530 130.3516480 140.3579390  46.1927960
 130.2166020 139.0246800  46.8971130 140.3771840 125.2437350  30.5039310
 140.0644500 125.3364180  31.4038380 141.1384310 125.8218380  30.4536740
 126.8953980 132.6097150  34.9616650 126.7751580 133.3359240  34.3497920
 126.5854870 131.8400060  34.4844560 142.3315870 140.7363540  48.3563700
 142.8075590 141.2146430  49.0352780 142.9523030 140.6681030  47.6309200
 124.5339350 135.7812290  40.7685290 124.6119770 135.9161060  39.8241010
 125.1481030 135.0728180  40.9613410 125.7786980 137.4812480  37.1791470
 125.3715060 137.6227070  36.3245070 126.6699990 137.1972640  36.9762680
 141.7349120 137.9276390  45.5163710 141.8612180 137.6888270  44.5980890
 141.7770500 137.0960930  45.9885790 135.5965860 141.6304390  44.0858520
 136.1110530 141.5412400  44.8880950 134.7534940 141.9764090  44.3786430
 137.5720260 141.9159730  33.5142520 137.4121400 141.6262670  34.4124350
 137.4066970 141.1399860  32.9787750 130.0508640 141.6958260  35.2914140
 129.8751120 140.7793800  35.0781940 129.1964380 142.0545550  35.5311940
 137.2746390 139.4247290  32.0740520 136.5811550 139.4224580  31.4142800
 138.0169250 139.0006610  31.6434690 136.8396320 141.0510000  36.1489010
 137.2953270 140.2699380  36.4627630 137.1788840 141.7616820  36.6930190
 141.5873130 129.9808850  46.4813450 140.9717400 130.4888520  45.9528910
 141.2669550 129.0807180  46.4239390 124.5898870 136.8226460  43.3079750
 124.7529910 136.3531820  42.4899120 125.0551320 136.3150020  43.9728590
 129.3617640 125.9532220  38.3440320 128.9185790 126.7341760  38.0124840
 129.9202630 126.2762110  39.0511260 133.6487450 128.8200740  43.9475640
 133.1866820 129.0283760  44.7595580 133.2465560 128.0060090  43.6446310
 138.6491960 130.0409690  45.0772300 137.7985550 129.7415440  45.3981370
 138.4893750 130.2851700  44.1656120 135.7441670 131.5411440  47.1771090
 136.0695080 130.7075190  46.8373320 136.5322000 132.0639960  47.3249420
 132.4776460 125.5742920  33.2246150 131.8530640 125.5702790  33.9499460
 132.3906580 124.7073880  32.8282120 131.3993540 126.4979550  40.2029920
 131.6965870 127.4042380  40.1221940 131.9479100 126.0098330  39.5889490
 129.1531860 131.0765790  36.0721570 128.9272780 130.8602960  36.9768190
 128.3724390 131.5094250  35.7267540 136.3829620 131.0829160  34.6712220
 135.7838510 131.8064960  34.4875840 136.9309230 131.0205940  33.8888670
 131.5931070 131.9751370  46.7381840 131.4974670 131.0346100  46.5882240
 132.4363050 132.1966440  46.3429910 134.9894490 129.7192700  36.7015500
 135.3824060 130.0364900  35.8884190 135.3511340 128.8404580  36.8160020
 126.7241610 128.3865040  44.8915620 126.3305000 129.2340250  45.0988400
 126.0360010 127.7491410  45.0824260 133.2986660 128.4700010  47.9612360
 132.6084980 128.2772210  48.5958450 134.0418960 128.7534650  48.4936660
 124.0258660 126.3093500  38.9245700 123.7371710 126.8796360  39.6370680
 124.7704420 125.8297950  39.2876930 124.2128890 130.2513620  30.1348420
 124.1303560 131.1944380  30.2763410 123.8611950 130.1088530  29.2560770
 135.5749630 132.3098450  40.7966280 134.8430750 132.8185260  41.1456380
 135.1773970 131.4928430  40.4955060 132.0127020 128.9852650  39.2018770
 132.0163080 128.5442600  38.3523310 132.9078140 129.3069980  39.3090590
 127.8629400 128.8679140  38.1612980 127.5229450 129.3454370  38.9180030
 127.1006720 128.4144260  37.8014080 132.0747170 129.9864730  32.1925530
 132.1959990 129.9451210  33.1411350 131.6895680 130.8488880  32.0372260
 136.0375540 127.7632130  40.2089220 136.0548280 128.2140780  41.0531070
 135.7891120 126.8637770  40.4222660 131.0868670 132.2965870  31.5908830
 130.5185570 131.8484120  30.9644740 131.7957670 132.6558650  31.0573980
 139.4646290 125.1764310  46.0475600 139.7892060 124.4453970  46.5733580
 139.5002800 124.8577950  45.1456590 126.1637850 136.1977890  45.4675560
 125.7792640 135.5571560  46.0658520 126.4750040 136.9014010  46.0370290
 132.3134990 133.0454430  40.9484180 132.6805120 132.5713000  41.6945520
 132.1240050 133.9196000  41.2892520 125.1775480 127.7898120  37.0777650
 124.8922400 127.4253790  37.9156270 125.1154340 127.0578580  36.4640790
 130.1034360 132.0863070  43.2668390 129.7991430 132.9655050  43.4918750
 131.0580820 132.1462860  43.3025830 128.6316150 136.2924060  33.8635240
 127.8578410 135.7521680  33.7033960 129.3610780 135.7730670  33.5253000
 139.3904130 135.2889420  39.6561630 140.1103250 135.7844710  39.2657740
 139.1885950 134.6107310  39.0115500 134.8514070 126.6827380  33.7991020
 134.0378680 126.1840550  33.7236330 134.6576020 127.5225630  33.3827370
 134.7722930 135.3598480  45.5430630 134.7060240 134.4394150  45.2888220
 134.1428070 135.4573920  46.2575270 137.5662460 131.0547030  32.0953180
 138.4542080 131.3664260  31.9204520 137.5367550 130.1819280  31.7033760
 128.6753550 135.9604440  37.5014050 129.1932220 135.1572700  37.4470940
 128.2237570 135.8983580  38.3430880 133.5623050 137.2270720  32.7741350
 133.9038750 137.9712950  32.2784670 132.7335760 137.5401840  33.1366180
 126.1598090 132.9265810  44.4139750 125.8013030 133.5919660  45.0013090
 125.8652650 132.0949360  44.7852370 129.3611210 133.3850050  47.2979300
 129.0611350 133.5307230  46.4007120 130.1322450 132.8255340  47.2052690
 134.7039660 138.1819050  45.2934430 134.7184200 137.2500010  45.0753340
 133.9964760 138.2678810  45.9324200 139.8376730 132.3658870  31.5633040
 139.7540450 132.7973090  30.7129480 140.5570920 132.8257220  31.9959860
 140.9150870 134.8226390  44.6403010 140.1899060 135.4155170  44.4432400
 141.4426330 134.8149930  43.8416380 140.8663980 139.2201130  34.2915170
 140.2240140 138.5656750  34.5658890 140.4794640 139.6256220  33.5155840
 136.4450460 136.5486560  38.1386860 136.7974280 135.9514690  37.4788230
 135.5612790 136.2230790  38.3095110 132.5313740 137.3084250  35.5457270
 133.2184870 137.8553460  35.9264860 131.7446160 137.8524980  35.5806880
 124.6706140 132.9257070  31.0374350 125.5400990 133.2081870  31.3210270
 124.1796460 133.7392940  30.9223160 131.8340950 134.3130280  35.1582630
 132.2903730 135.1235530  35.3842820 131.4829160 133.9953420  35.9901120
 134.1373560 139.8236620  42.3874930 134.7815780 140.0296000  43.0648350
 134.5003000 139.0625020  41.9345780 127.7352730 124.6567930  35.6305150
 127.6067360 124.6485830  36.5790070 126.9114750 124.9951020  35.2796160
 135.4105640 137.8268970  41.1052380 136.0527870 137.1262130  41.2184550
 135.9354990 138.6067410  40.9249270 139.2561360 138.1117590  30.8291520
 139.0298940 137.3948030  31.4216160 138.8657560 137.8630030  29.9913270
 137.1843260 138.6263870  44.3088440 137.5199500 139.2130560  44.9866360
 136.2643600 138.4956580  44.5386230 125.0377390 142.1384450  31.6035980
 125.3975030 142.7373790  30.9493250 124.8969730 142.6844340  32.3771010
 124.7346660 126.4159050  45.0911850 124.0205180 126.6155970  45.6964460
 125.1541700 125.6398620  45.4626650 138.8377610 136.0289530  32.4905680
 138.5499310 136.4902220  33.2783560 139.6329780 135.5687300  32.7589900
 125.0219250 140.4039310  46.0778380 125.1310370 139.4634050  45.9373770
 124.3699810 140.6694060  45.4292110 133.0131840 138.6755200  47.4776500
 132.6928710 137.9564440  48.0222190 132.3390200 139.3510270  47.5512560
 131.0546010 139.5215650  32.4209650 131.0456110 140.2545340  31.8054160
 130.1344370 139.2747230  32.5136610 126.6552650 134.7430540  33.1656410
 126.0480600 135.4829440  33.1751710 127.1302000 134.8329900  32.3394610
 136.2285440 128.9081360  42.8413300 136.5966260 128.0876570  43.1692870
 135.3683640 128.9683250  43.2568950 139.5947470 127.8638300  33.6500860
 138.9660630 127.9683970  32.9359090 139.0999390 128.0835080  34.4394740
 134.0405610 139.5843890  31.0834840 134.1417590 139.3807880  30.1536820
 133.1407350 139.3302170  31.2882620 131.5631500 130.1424250  35.0658740
 130.8547650 130.6110590  35.5072350 131.8475980 129.4846260  35.7003930
 133.1887430 131.5620950  43.0651270 133.6872680 132.0366770  43.7303120
 133.3310380 130.6384470  43.2721300 135.5946930 126.8674910  36.5054530
 135.4714710 126.8861040  35.5564040 136.5431490 126.9153850  36.6252930
 132.6823720 142.1030210  35.7782510 132.9365220 142.0651600  34.8561880
 131.7336200 141.9763540  35.7710760 129.7666520 128.4509330  32.4409450
 130.6157050 128.8879480  32.3749640 129.3997790 128.7629590  33.2681510
 140.3954290 127.7788910  43.9079660 139.8927890 128.5194310  44.2473470
 141.2110950 128.1672910  43.5916450 138.6876300 133.0222090  37.3541020
 137.7466440 133.0372320  37.5288710 139.0020370 132.2358050  37.8001320
 128.6657940 134.7041690  30.9144980 129.4321210 134.5923050  31.4770410
 128.7432630 134.0079660  30.2621750 127.3604700 132.1366760  31.5977870
 127.4408290 131.1894270  31.7095270 128.2524450 132.4673640  31.7038530
 140.6901880 140.1930940  39.0295280 140.8149300 141.0162110  39.5019090
 141.5567440 139.9821670  38.6819430 128.1619410 142.2862150  38.7012410
 128.8981890 141.7377610  38.9720980 128.5460330 143.1518160  38.5618400
 125.0464890 138.3535720  34.5753920 124.1204670 138.5956860  34.5659330
 125.5121320 139.1809980  34.4538670 127.1677690 141.4708220  47.8897990
 127.9690420 141.7920270  48.3033390 126.6529510 141.1103800  48.6117900
 131.2721720 141.4592460  30.5237980 132.0650330 141.7481290  30.0719770
 130.7526070 141.0284630  29.8450460 136.0042320 137.5788090  47.8373400
 135.3980480 137.6019690  47.0969150 135.6996430 136.8471130  48.3740650
 137.4342690 141.3068380  46.4482810 138.3864440 141.2226400  46.3983050
 137.2870910 141.9710090  47.1216600 140.3251890 140.6862590  31.9474720
 140.0393400 140.2727730  31.1328900 140.1271440 141.6150300  31.8275240
 124.8875500 133.9581680  46.8334040 125.3914520 133.3788960  47.4050270
 124.1482920 134.2421910  47.3710410 131.7899120 136.6795870  30.3880330
 131.6849760 136.0648220  31.1141710 131.6223340 136.1561760  29.6043340
 131.9413440 135.3652670  46.3669560 131.1759110 135.9337670  46.2824230
 132.1229400 135.0728880  45.4737790 135.0301850 135.7415900  30.9922320
 134.4811950 136.1885200  31.6365060 135.6521110 135.2365150  31.5159990
 139.0836790 137.0958000  46.9244580 139.8246260 137.4333760  46.4212040
 138.3209470 137.2650060  46.3714350 126.9198580 132.1011270  47.7284110
 126.9603920 131.8025140  48.6369340 127.7744080 132.5018880  47.5691630
 130.6976970 134.7006820  32.8887620 131.1193390 134.5346690  33.7319010
 130.8227810 133.8907050  32.3942760 128.8604390 130.6803370  45.6958600
 128.3300850 130.1894320  45.0681940 129.5292460 131.1087570  45.1616530
 133.2104610 133.7244430  30.1364720 133.7310270 133.0093450  29.7705870
 133.8573010 134.3630300  30.4365230 137.7582450 135.1472830  45.4599790
 138.1723470 135.3017910  46.3090210 136.8233450 135.2728050  45.6225570
 138.2304620 132.4868990  47.4638940 138.8125390 131.7321310  47.3759420
 138.4066390 133.0176430  46.6870420 129.3476690 127.6465740  45.7755890
 129.2533560 127.0286490  45.0506760 128.7674080 128.3732030  45.5485800
 132.1138130 126.2038980  42.8083280 131.6655430 126.2263240  41.9628830
 131.4803330 125.8058000  43.4053580 132.5197680 135.0993310  43.4295720
 132.9385790 135.9426040  43.2571960 131.6006310 135.2365350  43.2002500
 134.8561580 132.8309490  44.8133560 134.9757790 132.2350630  45.5528400
 135.7155580 132.8679180  44.3934860 137.1949480 133.3846680  43.3896070
 136.6684700 133.9089300  42.7861210 137.5380820 134.0174070  44.0205800
 129.5935870 130.7740050  29.8345780 129.3924930 129.9107410  30.1959120
 129.4227920 130.6873410  28.8967380 130.3705100 141.4046320  44.5453450
 129.8326190 142.1292380  44.2262150 130.6239060 140.9276660  43.7550790
 131.6230350 129.3730840  46.0709380 132.2130040 129.0646690  46.7587200
 130.8050590 128.9010590  46.2269280 136.4423780 128.9896650  46.3042400
 135.7539300 128.3278190  46.2392390 137.1629800 128.5434920  46.7490860
 137.0724180 125.5848280  32.3632660 137.3526470 124.7416180  32.7192080
 136.2989910 125.8171390  32.8771410 128.3918670 127.8740670  29.8223660
 128.6944570 127.8808100  28.9142810 129.1313260 127.5238530  30.3191320
 133.2267310 142.6397530  44.8040100 133.1526010 143.5432670  45.1112470
 132.3246150 142.3209430  44.7762170 131.6103600 126.8175290  30.8079860
 131.2625600 126.1399280  30.2282310 131.8116370 126.3564800  31.6223250
 133.7752640 141.8056040  32.4266460 134.6703430 142.1441010  32.4485220
 133.8070270 141.0835450  31.7990740 127.4148800 137.1783090  30.6553460
 127.8523670 137.7212760  31.3111040 127.8996530 136.3530040  30.6649800
 124.6294600 139.9672120  38.1073720 124.9597610 139.0993180  37.8752360
 125.0585600 140.1730640  38.9378680 129.2256520 138.2981130  35.7675690
 128.9252060 138.1746100  36.6679600 129.1194010 137.4389720  35.3591420
 125.1184810 140.8342710  40.8455350 124.6815800 141.0143510  41.6779500
 125.6862490 141.5917330  40.7037070 140.7546990 140.3359710  45.1332660
 140.1548980 140.3952270  44.3896580 140.8840890 139.3964690  45.2629510
 141.9948440 138.0777530  30.4702370 141.1641400 138.1454180  30.9409600
 142.1720270 138.9681650  30.1669230 141.4504900 134.8225010  32.9736570
 142.2123810 135.3921660  33.0796260 141.4659270 134.2552210  33.7444880
 124.9509240 133.3462940  37.2044230 124.2958080 133.0774580  36.5603930
 125.7887190 133.2367420  36.7546210 142.4564870 135.6775110  37.8178500
 142.8273700 134.8942430  37.4114470 143.0966800 136.3664210  37.6395800
 139.4398630 137.0611690  43.2308820 138.6258470 137.4908850  43.4934610
 139.8472830 137.6730100  42.6177870 141.5024070 135.1159380  30.1309090
 141.7772910 136.0238260  30.0028310 141.3134810 135.0521910  31.0671080
 137.8999680 128.1404230  31.4262720 138.3184560 127.9535210  30.5859380
 137.5935740 127.2883280  31.7365650 141.3989410 133.0528370  35.1238520
 141.0233010 132.2856300  34.6919810 140.6692530 133.4351070  35.6113450
 125.9885170 133.7315510  41.7447570 126.3558210 133.6442910  42.6243590
 125.4195990 132.9682060  41.6454430 140.7889030 132.1999890  44.7578040
 140.5575120 131.9712640  43.8575990 141.0493580 133.1199440  44.7122930
 125.5401170 130.6424600  45.6505990 124.6457220 130.6091360  45.9899700
 126.0798720 130.8411390  46.4157240 139.2277100 127.4256320  47.5357740
 140.1047280 127.4339720  47.9191740 139.2397940 126.6887160  46.9250090
 124.1647320 130.5561870  33.1469560 123.2611400 130.8192070  32.9721220
 124.6487940 130.8273040  32.3669520 140.6740370 131.2785860  38.4245760
 141.1977850 130.7848510  37.7935930 141.2599790 131.4136220  39.1693330
 140.8530090 131.3625730  41.9465310 139.9032800 131.3289270  42.0610300
 141.0343100 132.2725840  41.7115080 126.7074530 129.6127410  31.0563940
 127.4166230 129.1910630  30.5711220 125.9914470 129.6802640  30.4247290
 126.3548690 125.6666740  30.0966590 127.0776820 126.2075680  30.4147810
 126.6273210 125.3930160  29.2208130 140.1640340 130.5359210  34.3638170
 140.6599460 130.3030080  35.1487050 139.9656410 129.6971050  33.9475810
 126.0440880 124.9172930  39.9989210 126.6917070 124.3670310  39.5584370
 126.4642720 125.1716080  40.8205020 141.5927500 129.1720160  36.8975850
 141.4826780 129.0176200  37.8358120 142.3535090 128.6441100  36.6551260
 139.9393220 125.1114290  43.3558850 140.5765440 125.7248430  43.7218040
 140.0868110 125.1474950  42.4108080 142.4817770 127.0028080  30.1381990
 143.4067080 126.8709260  29.9300280 142.4593560 127.0820900  31.0918440
 142.5556260 127.7738740  32.7638700 141.7607760 127.7083860  33.2931610
 142.7599540 128.7089380  32.7524050 139.4974680 141.8130290  36.7577090
 140.0933750 141.4914860  36.0811510 139.7552830 141.3402110  37.5490360
 125.7972880 125.0728600  42.7414530 125.4487700 125.5292420  43.5072710
 125.4660580 124.1785730  42.8236960 127.4037250 138.2448200  46.9067720
 127.3606880 137.8741110  47.7882180 127.5348260 139.1825770  47.0469540
 131.1043280 139.8007790  42.5077440 130.8634640 140.0682350  41.6207960
 132.0445920 139.9713520  42.5628300 133.3097700 126.2640480  46.2633950
 133.2486590 126.8562310  47.0129360 134.2498080 126.1566440  46.1184210
 135.9472260 125.9210540  45.9026240 136.5612670 126.2389830  45.2407320
 136.4921820 125.4359130  46.5222100 142.3647440 141.8202170  43.3088080
 141.8705720 142.2171040  42.5915210 141.7560730 141.1951380  43.7025360
 126.4693520 124.6004800  46.0165300 127.0176510 124.4192850  45.2531410
 126.5348830 123.8098910  46.5521610 127.2425280 141.1910450  44.0265500
 126.6485600 141.0595150  44.7655540 127.2349120 140.3548590  43.5607600
 136.6880300 124.4842680  42.2295530 135.8140140 124.8177790  42.0268460
 136.5791050 124.0115860  43.0547400 137.5952280 126.6913550  43.6137250
 137.2665640 125.8765310  43.2338980 138.5434580 126.6483360  43.4902940
 140.0486890 142.4625590  40.5874820 139.5889860 143.2141400  40.2132840
 139.4199350 141.7432060  40.5289620 126.8737510 138.5568830  42.9773540
 126.1471570 137.9374120  42.9099490 126.9346660 138.9509440  42.1071620
 130.4782610 140.7713830  39.7622950 130.9947630 140.1601190  39.2371210
 131.1279990 141.2742610  40.2533960 133.2178110 141.6622320  40.5891930
 133.5055920 141.4076620  39.7124940 133.7301330 141.1099680  41.1797500
 134.4355120 125.4012520  41.1688440 133.6526910 125.8758020  41.4485200
 134.1418050 124.4967350  41.0601620 138.9876190 126.1035620  39.2137530
 139.4284280 126.0480720  38.3659130 138.7183780 127.0193630  39.2847710
 140.8514760 125.7350860  37.2246350 140.7903160 124.7912080  37.0777370
 141.6306790 125.8430950  37.7699810 125.1567510 141.8743220  36.1870300
 124.9889550 141.2413900  36.8852190 124.2902020 142.0802620  35.8364490
 125.7795530 125.7060000  33.6902160 126.5374890 125.8188880  33.1166190
 125.3172700 126.5429200  33.6445590 132.3209340 127.8199270  36.6804470
 131.5083850 127.4456160  36.3400350 132.8250980 127.0644350  36.9825660
 136.8234320 124.4841720  37.9187540 137.4263690 125.0561930  38.3936060
 136.0827310 125.0481160  37.6961440 139.9668920 124.8863280  33.1927820
 140.1619550 125.7846730  33.4595250 139.1798790 124.6550360  33.6860770
 126.7630210 140.5676450  33.6320440 126.2377830 140.9484480  32.9282400
 126.6874790 141.1927220  34.3530150 128.1520680 126.2324050  32.2304130
 128.6813440 125.4453850  32.1012080 128.7849000 126.9115240  32.4639660
 130.3458520 125.9699190  35.2849520 129.7161260 125.2686500  35.4519650
 129.8063660 126.7303320  35.0682680 133.2850470 142.5838420  47.9560130
 134.2117780 142.3482690  47.9996090 133.2700900 143.4110420  47.4746160
 141.5195530 142.1263990  34.9534380 141.6947720 141.4401730  34.3095300
 140.8217100 142.6511040  34.5611050 130.4714080 125.2483170  47.7202010
 130.1898350 125.7516770  46.9562830 130.8533780 124.4504920  47.3544140
 129.3623180 142.5158830  32.5069690 130.0942000 142.2318110  31.9593580
 129.6216850 142.2772110  33.3969070 128.5237970 138.6323560  32.5116020
 127.8946850 139.1008660  33.0601850 128.6385800 137.7872780  32.9462210
 137.0729540 124.6636750  48.2982480 136.9594990 124.9831360  49.1934000
 137.8899280 125.0649260  48.0019760 139.8528030 141.8108280  47.7801170
 140.6453350 141.3157510  47.5727130 140.1461180 142.4898420  48.3876780
 135.9787690 132.6829220  18.6617220 135.8981740 131.7683830  18.3908930
 135.5652110 133.1796290  17.9556930 134.1105730 134.4608240  20.5426490
 133.3347830 133.9808680  20.8325060 134.7618660 133.7813890  20.3682650
 128.1271560 134.7728050  21.4202250 127.2956440 134.5176760  21.8198760
 128.7352540 134.8438820  22.1560170 138.1313160 138.8668430  19.3225620
 137.6694690 138.0955670  19.6512790 138.9438710 138.8934500  19.8278070
 128.1072820 138.8068140  21.6160270 128.4100860 137.9165880  21.4370490
 128.8516410 139.3638360  21.3882520 126.5363510 129.7329940  15.2044640
 125.6480210 130.0745910  15.1024520 126.8204700 129.5330260  14.3125470
 124.4996520 132.3335590  21.0884340 125.0712630 131.5657790  21.0887980
 124.4998060 132.6324350  20.1790950 134.3576470 141.1526440  18.9429610
 133.7387910 141.6083940  18.3724050 135.2128250 141.3077900  18.5419310
 133.5514720 137.1365430  20.5496650 133.4823000 136.1955370  20.3885780
 134.3134580 137.2266840  21.1219220 125.7421390 127.7419950  22.8753270
 125.5624230 126.8445700  23.1556030 125.3401470 128.2891820  23.5500220
 134.5819890 129.9435810  20.7765580 134.9584710 129.0707690  20.6639250
 134.4839400 130.2794510  19.8856020 128.7124900 128.3161440  16.2383020
 128.8191650 129.2165170  16.5451780 127.8017260 128.2679410  15.9477670
 138.3644010 127.4386250  17.7093920 139.1853630 126.9482820  17.7519400
 138.3978090 128.0283910  18.4625760 126.3608060 130.2380450  21.4835610
 127.0418170 130.5018820  22.1023010 126.0456110 129.3981320  21.8173620
 130.5532630 131.2847810  20.5708200 131.0610850 131.7828780  21.2113220
 131.0845870 130.5083010  20.3947560 142.6543560 129.4553000  24.2737550
 141.9495730 129.8434710  23.7552660 142.9201480 130.1503290  24.8758480
 128.8368730 125.9246370  24.8371620 128.8387170 126.4418760  24.0317520
 128.0073040 125.4476550  24.8141550 135.2239820 136.0365680  16.3361520
 134.6057090 136.5015130  15.7724240 135.7363070 136.7293160  16.7531030
 130.0871580 135.5641550  23.0145120 129.7540960 136.1910470  23.6566190
 130.2638260 136.0903430  22.2346790 138.6005490 129.3786630  20.4821460
 137.8961060 129.6671520  21.0624570 138.9617650 130.1886740  20.1221020
 128.5184060 127.6356330  22.8442070 128.8600870 128.4798380  22.5495940
 127.5799870 127.7840070  22.9607410 129.2990680 137.5322350  24.8294300
 129.9164680 138.2073430  24.5478750 128.4383800 137.9410330  24.7381800
 124.5923020 136.7222210  13.7101150 124.2151000 137.2109310  12.9786050
 124.8496090 137.3947490  14.3407680 140.2168270 138.9961760  22.7448940
 139.5331790 139.6660870  22.7365610 140.7562560 139.1942410  21.9793800
 141.6692410 128.8241420  20.8730670 140.7217320 128.8580400  21.0046100
 141.9942400 129.6380370  21.2580030 132.2011950 125.1238600  19.1686660
 132.5086930 124.5685490  18.4522160 131.2712650 125.2583060  18.9859650
 137.7527010 140.8405890  21.4594120 137.7654170 140.4368180  20.5916380
 137.2002230 141.6153180  21.3555550 139.0472430 137.5622110  16.5484290
 138.9368760 136.6196440  16.6733710 139.0440680 137.9237750  17.4347050
 137.1512450 135.7435730  22.7876730 137.5681240 135.5295840  21.9530190
 137.8752270 136.0008520  23.3585350 134.5892710 133.1887430  15.9046780
 133.6621990 133.1224810  16.1335250 134.7417530 134.1267560  15.7902020
 134.5761790 129.4604430  12.9013940 133.6365460 129.6218390  12.9866400
 134.8945050 130.1790110  12.3549930 141.0974550 134.1422950  22.8792970
 140.2693180 134.2116040  22.4043100 141.6925030 134.7277260  22.4108800
 138.6190000 134.7507730  16.4082030 138.0002420 134.4127280  15.7608330
 138.6014450 134.1067490  17.1161220 138.0616560 130.9292270  23.8247840
 137.6487740 131.7545980  24.0787830 137.3292510 130.3437310  23.6324200
 130.1949350 133.7152170  18.6866510 129.7906350 133.0029420  18.1912410
 130.2812470 133.3705410  19.5754550 130.6631050 137.4019730  20.8505720
 130.3659340 136.7965200  20.1713500 131.6130870 137.4397040  20.7395080
 128.9077970 130.4895380  22.4665550 129.4592560 130.5990720  21.6918800
 129.4221480 130.8632980  23.1820780 138.7516660 140.9751600  24.5128820
 138.2747220 141.7823790  24.3201430 138.0678450 140.3229930  24.6655030
 129.7549480 137.1401420  27.5013520 128.8578010 137.3641390  27.7486920
 129.7802350 137.2636360  26.5524920 136.7954700 133.9894540  13.4154780
 137.2347980 133.1516970  13.2692600 137.5083120 134.6223940  13.5018920
 128.5820700 134.0114740  26.0770890 128.4428470 134.8837540  26.4458290
 127.7002060 133.6687550  25.9318830 134.9050080 138.9290610  17.3836020
 135.3445990 139.6714940  16.9691410 134.8436970 139.1717180  18.3074980
 130.3801050 139.9536440  28.2856040 130.3516480 140.3579390  27.4184470
 130.2166020 139.0246800  28.1227640 140.3771840 125.2437350  11.7295820
 140.0644500 125.3364180  12.6294890 141.1384310 125.8218380  11.6793250
 126.8953980 132.6097150  16.1873160 126.7751580 133.3359240  15.5754430
 126.5854870 131.8400060  15.7101070 142.3315870 140.7363540  29.5820210
 142.8075590 141.2146430  30.2609290 142.9523030 140.6681030  28.8565710
 124.5339350 135.7812290  21.9941800 124.6119770 135.9161060  21.0497520
 125.1481030 135.0728180  22.1869920 125.7786980 137.4812480  18.4047980
 125.3715060 137.6227070  17.5501580 126.6699990 137.1972640  18.2019190
 141.7349120 137.9276390  26.7420220 141.8612180 137.6888270  25.8237400
 141.7770500 137.0960930  27.2142300 135.5965860 141.6304390  25.3115030
 136.1110530 141.5412400  26.1137460 134.7534940 141.9764090  25.6042940
 137.5720260 141.9159730  14.7399030 137.4121400 141.6262670  15.6380860
 137.4066970 141.1399860  14.2044260 130.0508640 141.6958260  16.5170650
 129.8751120 140.7793800  16.3038450 129.1964380 142.0545550  16.7568450
 137.2746390 139.4247290  13.2997030 136.5811550 139.4224580  12.6399310
 138.0169250 139.0006610  12.8691200 136.8396320 141.0510000  17.3745520
 137.2953270 140.2699380  17.6884140 137.1788840 141.7616820  17.9186700
 141.5873130 129.9808850  27.7069960 140.9717400 130.4888520  27.1785420
 141.2669550 129.0807180  27.6495900 124.5898870 136.8226460  24.5336260
 124.7529910 136.3531820  23.7155630 125.0551320 136.3150020  25.1985100
 129.3617640 125.9532220  19.5696830 128.9185790 126.7341760  19.2381350
 129.9202630 126.2762110  20.2767770 133.6487450 128.8200740  25.1732150
 133.1866820 129.0283760  25.9852090 133.2465560 128.0060090  24.8702820
 138.6491960 130.0409690  26.3028810 137.7985550 129.7415440  26.6237880
 138.4893750 130.2851700  25.3912630 135.7441670 131.5411440  28.4027600
 136.0695080 130.7075190  28.0629830 136.5322000 132.0639960  28.5505930
 132.4776460 125.5742920  14.4502660 131.8530640 125.5702790  15.1755970
 132.3906580 124.7073880  14.0538630 131.3993540 126.4979550  21.4286430
 131.6965870 127.4042380  21.3478450 131.9479100 126.0098330  20.8146000
 129.1531860 131.0765790  17.2978080 128.9272780 130.8602960  18.2024700
 128.3724390 131.5094250  16.9524050 136.3829620 131.0829160  15.8968730
 135.7838510 131.8064960  15.7132350 136.9309230 131.0205940  15.1145180
 131.5931070 131.9751370  27.9638350 131.4974670 131.0346100  27.8138750
 132.4363050 132.1966440  27.5686420 134.9894490 129.7192700  17.9272010
 135.3824060 130.0364900  17.1140700 135.3511340 128.8404580  18.0416530
 126.7241610 128.3865040  26.1172130 126.3305000 129.2340250  26.3244910
 126.0360010 127.7491410  26.3080770 133.2986660 128.4700010  29.1868870
 132.6084980 128.2772210  29.8214960 134.0418960 128.7534650  29.7193170
 124.0258660 126.3093500  20.1502210 123.7371710 126.8796360  20.8627190
 124.7704420 125.8297950  20.5133440 124.2128890 130.2513620  11.3604930
 124.1303560 131.1944380  11.5019920 123.8611950 130.1088530  10.4817280
 135.5749630 132.3098450  22.0222790 134.8430750 132.8185260  22.3712890
 135.1773970 131.4928430  21.7211570 132.0127020 128.9852650  20.4275280
 132.0163080 128.5442600  19.5779820 132.9078140 129.3069980  20.5347100
 127.8629400 128.8679140  19.3869490 127.5229450 129.3454370  20.1436540
 127.1006720 128.4144260  19.0270590 132.0747170 129.9864730  13.4182040
 132.1959990 129.9451210  14.3667860 131.6895680 130.8488880  13.2628770
 136.0375540 127.7632130  21.4345730 136.0548280 128.2140780  22.2787580
 135.7891120 126.8637770  21.6479170 131.0868670 132.2965870  12.8165340
 130.5185570 131.8484120  12.1901250 131.7957670 132.6558650  12.2830490
 139.4646290 125.1764310  27.2732110 139.7892060 124.4453970  27.7990090
 139.5002800 124.8577950  26.3713100 126.1637850 136.1977890  26.6932070
 125.7792640 135.5571560  27.2915030 126.4750040 136.9014010  27.2626800
 132.3134990 133.0454430  22.1740690 132.6805120 132.5713000  22.9202030
 132.1240050 133.9196000  22.5149030 125.1775480 127.7898120  18.3034160
 124.8922400 127.4253790  19.1412780 125.1154340 127.0578580  17.6897300
 130.1034360 132.0863070  24.4924900 129.7991430 132.9655050  24.7175260
 131.0580820 132.1462860  24.5282340 128.6316150 136.2924060  15.0891750
 127.8578410 135.7521680  14.9290470 129.3610780 135.7730670  14.7509510
 139.3904130 135.2889420  20.8818140 140.1103250 135.7844710  20.4914250
 139.1885950 134.6107310  20.2372010 134.8514070 126.6827380  15.0247530
 134.0378680 126.1840550  14.9492840 134.6576020 127.5225630  14.6083880
 134.7722930 135.3598480  26.7687140 134.7060240 134.4394150  26.5144730
 134.1428070 135.4573920  27.4831780 137.5662460 131.0547030  13.3209690
 138.4542080 131.3664260  13.1461030 137.5367550 130.1819280  12.9290270
 128.6753550 135.9604440  18.7270560 129.1932220 135.1572700  18.6727450
 128.2237570 135.8983580  19.5687390 133.5623050 137.2270720  13.9997860
 133.9038750 137.9712950  13.5041180 132.7335760 137.5401840  14.3622690
 126.1598090 132.9265810  25.6396260 125.8013030 133.5919660  26.2269600
 125.8652650 132.0949360  26.0108880 129.3611210 133.3850050  28.5235810
 129.0611350 133.5307230  27.6263630 130.1322450 132.8255340  28.4309200
 134.7039660 138.1819050  26.5190940 134.7184200 137.2500010  26.3009850
 133.9964760 138.2678810  27.1580710 139.8376730 132.3658870  12.7889550
 139.7540450 132.7973090  11.9385990 140.5570920 132.8257220  13.2216370
 140.9150870 134.8226390  25.8659520 140.1899060 135.4155170  25.6688910
 141.4426330 134.8149930  25.0672890 140.8663980 139.2201130  15.5171680
 140.2240140 138.5656750  15.7915400 140.4794640 139.6256220  14.7412350
 136.4450460 136.5486560  19.3643370 136.7974280 135.9514690  18.7044740
 135.5612790 136.2230790  19.5351620 132.5313740 137.3084250  16.7713780
 133.2184870 137.8553460  17.1521370 131.7446160 137.8524980  16.8063390
 124.6706140 132.9257070  12.2630860 125.5400990 133.2081870  12.5466780
 124.1796460 133.7392940  12.1479670 131.8340950 134.3130280  16.3839140
 132.2903730 135.1235530  16.6099330 131.4829160 133.9953420  17.2157630
 134.1373560 139.8236620  23.6131440 134.7815780 140.0296000  24.2904860
 134.5003000 139.0625020  23.1602290 127.7352730 124.6567930  16.8561660
 127.6067360 124.6485830  17.8046580 126.9114750 124.9951020  16.5052670
 135.4105640 137.8268970  22.3308890 136.0527870 137.1262130  22.4441060
 135.9354990 138.6067410  22.1505780 139.2561360 138.1117590  12.0548030
 139.0298940 137.3948030  12.6472670 138.8657560 137.8630030  11.2169780
 137.1843260 138.6263870  25.5344950 137.5199500 139.2130560  26.2122870
 136.2643600 138.4956580  25.7642740 125.0377390 142.1384450  12.8292490
 125.3975030 142.7373790  12.1749760 124.8969730 142.6844340  13.6027520
 124.7346660 126.4159050  26.3168360 124.0205180 126.6155970  26.9220970
 125.1541700 125.6398620  26.6883160 138.8377610 136.0289530  13.7162190
 138.5499310 136.4902220  14.5040070 139.6329780 135.5687300  13.9846410
 125.0219250 140.4039310  27.3034890 125.1310370 139.4634050  27.1630280
 124.3699810 140.6694060  26.6548620 133.0131840 138.6755200  28.7033010
 132.6928710 137.9564440  29.2478700 132.3390200 139.3510270  28.7769070
 131.0546010 139.5215650  13.6466160 131.0456110 140.2545340  13.0310670
 130.1344370 139.2747230  13.7393120 126.6552650 134.7430540  14.3912920
 126.0480600 135.4829440  14.4008220 127.1302000 134.8329900  13.5651120
 136.2285440 128.9081360  24.0669810 136.5966260 128.0876570  24.3949380
 135.3683640 128.9683250  24.4825460 139.5947470 127.8638300  14.8757370
 138.9660630 127.9683970  14.1615600 139.0999390 128.0835080  15.6651250
 134.0405610 139.5843890  12.3091350 134.1417590 139.3807880  11.3793330
 133.1407350 139.3302170  12.5139130 131.5631500 130.1424250  16.2915250
 130.8547650 130.6110590  16.7328860 131.8475980 129.4846260  16.9260440
 133.1887430 131.5620950  24.2907780 133.6872680 132.0366770  24.9559630
 133.3310380 130.6384470  24.4977810 135.5946930 126.8674910  17.7311040
 135.4714710 126.8861040  16.7820550 136.5431490 126.9153850  17.8509440
 132.6823720 142.1030210  17.0039020 132.9365220 142.0651600  16.0818390
 131.7336200 141.9763540  16.9967270 129.7666520 128.4509330  13.6665960
 130.6157050 128.8879480  13.6006150 129.3997790 128.7629590  14.4938020
 140.3954290 127.7788910  25.1336170 139.8927890 128.5194310  25.4729980
 141.2110950 128.1672910  24.8172960 138.6876300 133.0222090  18.5797530
 137.7466440 133.0372320  18.7545220 139.0020370 132.2358050  19.0257830
 128.6657940 134.7041690  12.1401490 129.4321210 134.5923050  12.7026920
 128.7432630 134.0079660  11.4878260 127.3604700 132.1366760  12.8234380
 127.4408290 131.1894270  12.9351780 128.2524450 132.4673640  12.9295040
 140.6901880 140.1930940  20.2551790 140.8149300 141.0162110  20.7275600
 141.5567440 139.9821670  19.9075940 128.1619410 142.2862150  19.9268920
 128.8981890 141.7377610  20.1977490 128.5460330 143.1518160  19.7874910
 125.0464890 138.3535720  15.8010430 124.1204670 138.5956860  15.7915840
 125.5121320 139.1809980  15.6795180 127.1677690 141.4708220  29.1154500
 127.9690420 141.7920270  29.5289900 126.6529510 141.1103800  29.8374410
 131.2721720 141.4592460  11.7494490 132.0650330 141.7481290  11.2976280
 130.7526070 141.0284630  11.0706970 136.0042320 137.5788090  29.0629910
 135.3980480 137.6019690  28.3225660 135.6996430 136.8471130  29.5997160
 137.4342690 141.3068380  27.6739320 138.3864440 141.2226400  27.6239560
 137.2870910 141.9710090  28.3473110 140.3251890 140.6862590  13.1731230
 140.0393400 140.2727730  12.3585410 140.1271440 141.6150300  13.0531750
 124.8875500 133.9581680  28.0590550 125.3914520 133.3788960  28.6306780
 124.1482920 134.2421910  28.5966920 131.7899120 136.6795870  11.6136840
 131.6849760 136.0648220  12.3398220 131.6223340 136.1561760  10.8299850
 131.9413440 135.3652670  27.5926070 131.1759110 135.9337670  27.5080740
 132.1229400 135.0728880  26.6994300 135.0301850 135.7415900  12.2178830
 134.4811950 136.1885200  12.8621570 135.6521110 135.2365150  12.7416500
 139.0836790 137.0958000  28.1501090 139.8246260 137.4333760  27.6468550
 138.3209470 137.2650060  27.5970860 126.9198580 132.1011270  28.9540620
 126.9603920 131.8025140  29.8625850 127.7744080 132.5018880  28.7948140
 130.6976970 134.7006820  14.1144130 131.1193390 134.5346690  14.9575520
 130.8227810 133.8907050  13.6199270 128.8604390 130.6803370  26.9215110
 128.3300850 130.1894320  26.2938450 129.5292460 131.1087570  26.3873040
 133.2104610 133.7244430  11.3621230 133.7310270 133.0093450  10.9962380
 133.8573010 134.3630300  11.6621740 137.7582450 135.1472830  26.6856300
 138.1723470 135.3017910  27.5346720 136.8233450 135.2728050  26.8482080
 138.2304620 132.4868990  28.6895450 138.8125390 131.7321310  28.6015930
 138.4066390 133.0176430  27.9126930 129.3476690 127.6465740  27.0012400
 129.2533560 127.0286490  26.2763270 128.7674080 128.3732030  26.7742310
 132.1138130 126.2038980  24.0339790 131.6655430 126.2263240  23.1885340
 131.4803330 125.8058000  24.6310090 132.5197680 135.0993310  24.6552230
 132.9385790 135.9426040  24.4828470 131.6006310 135.2365350  24.4259010
 134.8561580 132.8309490  26.0390070 134.9757790 132.2350630  26.7784910
 135.7155580 132.8679180  25.6191370 137.1949480 133.3846680  24.6152580
 136.6684700 133.9089300  24.0117720 137.5380820 134.0174070  25.2462310
 129.5935870 130.7740050  11.0602290 129.3924930 129.9107410  11.4215630
 129.4227920 130.6873410  10.1223890 130.3705100 141.4046320  25.7709960
 129.8326190 142.1292380  25.4518660 130.6239060 140.9276660  24.9807300
 131.6230350 129.3730840  27.2965890 132.2130040 129.0646690  27.9843710
 130.8050590 128.9010590  27.4525790 136.4423780 128.9896650  27.5298910
 135.7539300 128.3278190  27.4648900 137.1629800 128.5434920  27.9747370
 137.0724180 125.5848280  13.5889170 137.3526470 124.7416180  13.9448590
 136.2989910 125.8171390  14.1027920 128.3918670 127.8740670  11.0480170
 128.6944570 127.8808100  10.1399320 129.1313260 127.5238530  11.5447830
 133.2267310 142.6397530  26.0296610 133.1526010 143.5432670  26.3368980
 132.3246150 142.3209430  26.0018680 131.6103600 126.8175290  12.0336370
 131.2625600 126.1399280  11.4538820 131.8116370 126.3564800  12.8479760
 133.7752640 141.8056040  13.6522970 134.6703430 142.1441010  13.6741730
 133.8070270 141.0835450  13.0247250 127.4148800 137.1783090  11.8809970
 127.8523670 137.7212760  12.5367550 127.8996530 136.3530040  11.8906310
 124.6294600 139.9672120  19.3330230 124.9597610 139.0993180  19.1008870
 125.0585600 140.1730640  20.1635190 129.2256520 138.2981130  16.9932200
 128.9252060 138.1746100  17.8936110 129.1194010 137.4389720  16.5847930
 125.1184810 140.8342710  22.0711860 124.6815800 141.0143510  22.9036010
 125.6862490 141.5917330  21.9293580 140.7546990 140.3359710  26.3589170
 140.1548980 140.3952270  25.6153090 140.8840890 139.3964690  26.4886020
 141.9948440 138.0777530  11.6958880 141.1641400 138.1454180  12.1666110
 142.1720270 138.9681650  11.3925740 141.4504900 134.8225010  14.1993080
 142.2123810 135.3921660  14.3052770 141.4659270 134.2552210  14.9701390
 124.9509240 133.3462940  18.4300740 124.2958080 133.0774580  17.7860440
 125.7887190 133.2367420  17.9802720 142.4564870 135.6775110  19.0435010
 142.8273700 134.8942430  18.6370980 143.0966800 136.3664210  18.8652310
 139.4398630 137.0611690  24.4565330 138.6258470 137.4908850  24.7191120
 139.8472830 137.6730100  23.8434380 141.5024070 135.1159380  11.3565600
 141.7772910 136.0238260  11.2284820 141.3134810 135.0521910  12.2927590
 137.8999680 128.1404230  12.6519230 138.3184560 127.9535210  11.8115890
 137.5935740 127.2883280  12.9622160 141.3989410 133.0528370  16.3495030
 141.0233010 132.2856300  15.9176320 140.6692530 133.4351070  16.8369960
 125.9885170 133.7315510  22.9704080 126.3558210 133.6442910  23.8500100
 125.4195990 132.9682060  22.8710940 140.7889030 132.1999890  25.9834550
 140.5575120 131.9712640  25.0832500 141.0493580 133.1199440  25.9379440
 125.5401170 130.6424600  26.8762500 124.6457220 130.6091360  27.2156210
 126.0798720 130.8411390  27.6413750 139.2277100 127.4256320  28.7614250
 140.1047280 127.4339720  29.1448250 139.2397940 126.6887160  28.1506600
 124.1647320 130.5561870  14.3726070 123.2611400 130.8192070  14.1977730
 124.6487940 130.8273040  13.5926030 140.6740370 131.2785860  19.6502270
 141.1977850 130.7848510  19.0192440 141.2599790 131.4136220  20.3949840
 140.8530090 131.3625730  23.1721820 139.9032800 131.3289270  23.2866810
 141.0343100 132.2725840  22.9371590 126.7074530 129.6127410  12.2820450
 127.4166230 129.1910630  11.7967730 125.9914470 129.6802640  11.6503800
 126.3548690 125.6666740  11.3223100 127.0776820 126.2075680  11.6404320
 126.6273210 125.3930160  10.4464640 140.1640340 130.5359210  15.5894680
 140.6599460 130.3030080  16.3743560 139.9656410 129.6971050  15.1732320
 126.0440880 124.9172930  21.2245720 126.6917070 124.3670310  20.7840880
 126.4642720 125.1716080  22.0461530 141.5927500 129.1720160  18.1232360
 141.4826780 129.0176200  19.0614630 142.3535090 128.6441100  17.8807770
 139.9393220 125.1114290  24.5815360 140.5765440 125.7248430  24.9474550
 140.0868110 125.1474950  23.6364590 142.4817770 127.0028080  11.3638500
 143.4067080 126.8709260  11.1556790 142.4593560 127.0820900  12.3174950
 142.5556260 127.7738740  13.9895210 141.7607760 127.7083860  14.5188120
 142.7599540 128.7089380  13.9780560 139.4974680 141.8130290  17.9833600
 140.0933750 141.4914860  17.3068020 139.7552830 141.3402110  18.7746870
 125.7972880 125.0728600  23.9671040 125.4487700 125.5292420  24.7329220
 125.4660580 124.1785730  24.0493470 127.4037250 138.2448200  28.1324230
 127.3606880 137.8741110  29.0138690 127.5348260 139.1825770  28.2726050
 131.1043280 139.8007790  23.7333950 130.8634640 140.0682350  22.8464470
 132.0445920 139.9713520  23.7884810 133.3097700 126.2640480  27.4890460
 133.2486590 126.8562310  28.2385870 134.2498080 126.1566440  27.3440720
 135.9472260 125.9210540  27.1282750 136.5612670 126.2389830  26.4663830
 136.4921820 125.4359130  27.7478610 142.3647440 141.8202170  24.5344590
 141.8705720 142.2171040  23.8171720 141.7560730 141.1951380  24.9281870
 126.4693520 124.6004800  27.2421810 127.0176510 124.4192850  26.4787920
 126.5348830 123.8098910  27.7778120 127.2425280 141.1910450  25.2522010
 126.6485600 141.0595150  25.9912050 127.2349120 140.3548590  24.7864110
 136.6880300 124.4842680  23.4552040 135.8140140 124.8177790  23.2524970
 136.5791050 124.0115860  24.2803910 137.5952280 126.6913550  24.8393760
 137.2665640 125.8765310  24.4595490 138.5434580 126.6483360  24.7159450
 140.0486890 142.4625590  21.8131330 139.5889860 143.2141400  21.4389350
 139.4199350 141.7432060  21.7546130 126.8737510 138.5568830  24.2030050
 126.1471570 137.9374120  24.1356000 126.9346660 138.9509440  23.3328130
 130.4782610 140.7713830  20.9879460 130.9947630 140.1601190  20.4627720
 131.1279990 141.2742610  21.4790470 133.2178110 141.6622320  21.8148440
 133.5055920 141.4076620  20.9381450 133.7301330 141.1099680  22.4054010
 134.4355120 125.4012520  22.3944950 133.6526910 125.8758020  22.6741710
 134.1418050 124.4967350  22.2858130 138.9876190 126.1035620  20.4394040
 139.4284280 126.0480720  19.5915640 138.7183780 127.0193630  20.5104220
 140.8514760 125.7350860  18.4502860 140.7903160 124.7912080  18.3033880
 141.6306790 125.8430950  18.9956320 125.1567510 141.8743220  17.4126810
 124.9889550 141.2413900  18.1108700 124.2902020 142.0802620  17.0621000
 125.7795530 125.7060000  14.9158670 126.5374890 125.8188880  14.3422700
 125.3172700 126.5429200  14.8702100 132.3209340 127.8199270  17.9060980
 131.5083850 127.4456160  17.5656860 132.8250980 127.0644350  18.2082170
 136.8234320 124.4841720  19.1444050 137.4263690 125.0561930  19.6192570
 136.0827310 125.0481160  18.9217950 139.9668920 124.8863280  14.4184330
 140.1619550 125.7846730  14.6851760 139.1798790 124.6550360  14.9117280
 126.7630210 140.5676450  14.8576950 126.2377830 140.9484480  14.1538910
 126.6874790 141.1927220  15.5786660 128.1520680 126.2324050  13.4560640
 128.6813440 125.4453850  13.3268590 128.7849000 126.9115240  13.6896170
 130.3458520 125.9699190  16.5106030 129.7161260 125.2686500  16.6776160
 129.8063660 126.7303320  16.2939190 133.2850470 142.5838420  29.1816640
 134.2117780 142.3482690  29.2252600 133.2700900 143.4110420  28.7002670
 141.5195530 142.1263990  16.1790890 141.6947720 141.4401730  15.5351810
 140.8217100 142.6511040  15.7867560 130.4714080 125.2483170  28.9458520
 130.1898350 125.7516770  28.1819340 130.8533780 124.4504920  28.5800650
 129.3623180 142.5158830  13.7326200 130.0942000 142.2318110  13.1850090
 129.6216850 142.2772110  14.6225580 128.5237970 138.6323560  13.7372530
 127.8946850 139.1008660  14.2858360 128.6385800 137.7872780  14.1718720
 137.0729540 124.6636750  29.5238990 136.9594990 124.9831360  30.4190510
 137.8899280 125.0649260  29.2276270 139.8528030 141.8108280  29.0057680
 140.6453350 141.3157510  28.7983640 140.1461180 142.4898420  29.6133290
 134.1105730 134.4608240   1.7683000 133.3347830 133.9808680   2.0581570
 134.7618660 133.7813890   1.5939160 128.1271560 134.7728050   2.6458760
 127.2956440 134.5176760   3.0455270 128.7352540 134.8438820   3.3816680
 128.1072820 138.8068140   2.8416780 128.4100860 137.9165880   2.6627000
 128.8516410 139.3638360   2.6139030 133.5514720 137.1365430   1.7753160
 133.4823000 136.1955370   1.6142290 134.3134580 137.2266840   2.3475730
 125.7421390 127.7419950   4.1009780 125.5624230 126.8445700   4.3812540
 125.3401470 128.2891820   4.7756730 126.3608060 130.2380450   2.7092120
 127.0418170 130.5018820   3.3279520 126.0456110 129.3981320   3.0430130
 130.5532630 131.2847810   1.7964710 131.0610850 131.7828780   2.4369730
 131.0845870 130.5083010   1.6204070 142.6543560 129.4553000   5.4994060
 141.9495730 129.8434710   4.9809170 142.9201480 130.1503290   6.1014990
 128.8368730 125.9246370   6.0628130 128.8387170 126.4418760   5.2574030
 128.0073040 125.4476550   6.0398060 130.0871580 135.5641550   4.2401630
 129.7540960 136.1910470   4.8822700 130.2638260 136.0903430   3.4603300
 128.5184060 127.6356330   4.0698580 128.8600870 128.4798380   3.7752450
 127.5799870 127.7840070   4.1863920 129.2990680 137.5322350   6.0550810
 129.9164680 138.2073430   5.7735260 128.4383800 137.9410330   5.9638310
 140.2168270 138.9961760   3.9705450 139.5331790 139.6660870   3.9622120
 140.7562560 139.1942410   3.2050310 141.6692410 128.8241420   2.0987180
 140.7217320 128.8580400   2.2302610 141.9942400 129.6380370   2.4836540
 137.7527010 140.8405890   2.6850630 137.7654170 140.4368180   1.8172890
 137.2002230 141.6153180   2.5812060 137.1512450 135.7435730   4.0133240
 137.5681240 135.5295840   3.1786700 137.8752270 136.0008520   4.5841860
 141.0974550 134.1422950   4.1049480 140.2693180 134.2116040   3.6299610
 141.6925030 134.7277260   3.6365310 138.0616560 130.9292270   5.0504350
 137.6487740 131.7545980   5.3044340 137.3292510 130.3437310   4.8580710
 128.9077970 130.4895380   3.6922060 129.4592560 130.5990720   2.9175310
 129.4221480 130.8632980   4.4077290 138.7516660 140.9751600   5.7385330
 138.2747220 141.7823790   5.5457940 138.0678450 140.3229930   5.8911540
 129.7549480 137.1401420   8.7270030 128.8578010 137.3641390   8.9743430
 129.7802350 137.2636360   7.7781430 128.5820700 134.0114740   7.3027400
 128.4428470 134.8837540   7.6714800 127.7002060 133.6687550   7.1575340
 130.3801050 139.9536440   9.5112550 130.3516480 140.3579390   8.6440980
 130.2166020 139.0246800   9.3484150 142.3315870 140.7363540  10.8076720
 142.8075590 141.2146430  11.4865800 142.9523030 140.6681030  10.0822220
 124.5339350 135.7812290   3.2198310 124.6119770 135.9161060   2.2754030
 125.1481030 135.0728180   3.4126430 141.7349120 137.9276390   7.9676730
 141.8612180 137.6888270   7.0493910 141.7770500 137.0960930   8.4398810
 135.5965860 141.6304390   6.5371540 136.1110530 141.5412400   7.3393970
 134.7534940 141.9764090   6.8299450 141.5873130 129.9808850   8.9326470
 140.9717400 130.4888520   8.4041930 141.2669550 129.0807180   8.8752410
 124.5898870 136.8226460   5.7592770 124.7529910 136.3531820   4.9412140
 125.0551320 136.3150020   6.4241610 133.6487450 128.8200740   6.3988660
 133.1866820 129.0283760   7.2108600 133.2465560 128.0060090   6.0959330
 138.6491960 130.0409690   7.5285320 137.7985550 129.7415440   7.8494390
 138.4893750 130.2851700   6.6169140 135.7441670 131.5411440   9.6284110
 136.0695080 130.7075190   9.2886340 136.5322000 132.0639960   9.7762440
 131.3993540 126.4979550   2.6542940 131.6965870 127.4042380   2.5734960
 131.9479100 126.0098330   2.0402510 131.5931070 131.9751370   9.1894860
 131.4974670 131.0346100   9.0395260 132.4363050 132.1966440   8.7942930
 126.7241610 128.3865040   7.3428640 126.3305000 129.2340250   7.5501420
 126.0360010 127.7491410   7.5337280 133.2986660 128.4700010  10.4125380
 132.6084980 128.2772210  11.0471470 134.0418960 128.7534650  10.9449680
 135.5749630 132.3098450   3.2479300 134.8430750 132.8185260   3.5969400
 135.1773970 131.4928430   2.9468080 136.0375540 127.7632130   2.6602240
 136.0548280 128.2140780   3.5044090 135.7891120 126.8637770   2.8735680
 139.4646290 125.1764310   8.4988620 139.7892060 124.4453970   9.0246600
 139.5002800 124.8577950   7.5969610 126.1637850 136.1977890   7.9188580
 125.7792640 135.5571560   8.5171540 126.4750040 136.9014010   8.4883310
 132.3134990 133.0454430   3.3997200 132.6805120 132.5713000   4.1458540
 132.1240050 133.9196000   3.7405540 130.1034360 132.0863070   5.7181410
 129.7991430 132.9655050   5.9431770 131.0580820 132.1462860   5.7538850
 139.3904130 135.2889420   2.1074650 140.1103250 135.7844710   1.7170760
 139.1885950 134.6107310   1.4628520 134.7722930 135.3598480   7.9943650
 134.7060240 134.4394150   7.7401240 134.1428070 135.4573920   8.7088290
 126.1598090 132.9265810   6.8652770 125.8013030 133.5919660   7.4526110
 125.8652650 132.0949360   7.2365390 129.3611210 133.3850050   9.7492320
 129.0611350 133.5307230   8.8520140 130.1322450 132.8255340   9.6565710
 134.7039660 138.1819050   7.7447450 134.7184200 137.2500010   7.5266360
 133.9964760 138.2678810   8.3837220 140.9150870 134.8226390   7.0916030
 140.1899060 135.4155170   6.8945420 141.4426330 134.8149930   6.2929400
 134.1373560 139.8236620   4.8387950 134.7815780 140.0296000   5.5161370
 134.5003000 139.0625020   4.3858800 135.4105640 137.8268970   3.5565400
 136.0527870 137.1262130   3.6697570 135.9354990 138.6067410   3.3762290
 137.1843260 138.6263870   6.7601460 137.5199500 139.2130560   7.4379380
 136.2643600 138.4956580   6.9899250 124.7346660 126.4159050   7.5424870
 124.0205180 126.6155970   8.1477480 125.1541700 125.6398620   7.9139670
 125.0219250 140.4039310   8.5291400 125.1310370 139.4634050   8.3886790
 124.3699810 140.6694060   7.8805130 133.0131840 138.6755200   9.9289520
 132.6928710 137.9564440  10.4735210 132.3390200 139.3510270  10.0025580
 136.2285440 128.9081360   5.2926320 136.5966260 128.0876570   5.6205890
 135.3683640 128.9683250   5.7081970 133.1887430 131.5620950   5.5164290
 133.6872680 132.0366770   6.1816140 133.3310380 130.6384470   5.7234320
 140.3954290 127.7788910   6.3592680 139.8927890 128.5194310   6.6986490
 141.2110950 128.1672910   6.0429470 127.1677690 141.4708220  10.3411010
 127.9690420 141.7920270  10.7546410 126.6529510 141.1103800  11.0630920
 136.0042320 137.5788090  10.2886420 135.3980480 137.6019690   9.5482170
 135.6996430 136.8471130  10.8253670 137.4342690 141.3068380   8.8995830
 138.3864440 141.2226400   8.8496070 137.2870910 141.9710090   9.5729620
 124.8875500 133.9581680   9.2847060 125.3914520 133.3788960   9.8563290
 124.1482920 134.2421910   9.8223430 131.9413440 135.3652670   8.8182580
 131.1759110 135.9337670   8.7337250 132.1229400 135.0728880   7.9250810
 139.0836790 137.0958000   9.3757600 139.8246260 137.4333760   8.8725060
 138.3209470 137.2650060   8.8227370 126.9198580 132.1011270  10.1797130
 126.9603920 131.8025140  11.0882360 127.7744080 132.5018880  10.0204650
 128.8604390 130.6803370   8.1471620 128.3300850 130.1894320   7.5194960
 129.5292460 131.1087570   7.6129550 137.7582450 135.1472830   7.9112810
 138.1723470 135.3017910   8.7603230 136.8233450 135.2728050   8.0738590
 138.2304620 132.4868990   9.9151960 138.8125390 131.7321310   9.8272440
 138.4066390 133.0176430   9.1383440 129.3476690 127.6465740   8.2268910
 129.2533560 127.0286490   7.5019780 128.7674080 128.3732030   7.9998820
 132.1138130 126.2038980   5.2596300 131.6655430 126.2263240   4.4141850
 131.4803330 125.8058000   5.8566600 132.5197680 135.0993310   5.8808740
 132.9385790 135.9426040   5.7084980 131.6006310 135.2365350   5.6515520
 134.8561580 132.8309490   7.2646580 134.9757790 132.2350630   8.0041420
 135.7155580 132.8679180   6.8447880 137.1949480 133.3846680   5.8409090
 136.6684700 133.9089300   5.2374230 137.5380820 134.0174070   6.4718820
 130.3705100 141.4046320   6.9966470 129.8326190 142.1292380   6.6775170
 130.6239060 140.9276660   6.2063810 131.6230350 129.3730840   8.5222400
 132.2130040 129.0646690   9.2100220 130.8050590 128.9010590   8.6782300
 136.4423780 128.9896650   8.7555420 135.7539300 128.3278190   8.6905410
 137.1629800 128.5434920   9.2003880 133.2267310 142.6397530   7.2553120
 133.1526010 143.5432670   7.5625490 132.3246150 142.3209430   7.2275190
 125.1184810 140.8342710   3.2968370 124.6815800 141.0143510   4.1292520
 125.6862490 141.5917330   3.1550090 140.7546990 140.3359710   7.5845680
 140.1548980 140.3952270   6.8409600 140.8840890 139.3964690   7.7142530
 139.4398630 137.0611690   5.6821840 138.6258470 137.4908850   5.9447630
 139.8472830 137.6730100   5.0690890 125.9885170 133.7315510   4.1960590
 126.3558210 133.6442910   5.0756610 125.4195990 132.9682060   4.0967450
 140.7889030 132.1999890   7.2091060 140.5575120 131.9712640   6.3089010
 141.0493580 133.1199440   7.1635950 125.5401170 130.6424600   8.1019010
 124.6457220 130.6091360   8.4412720 126.0798720 130.8411390   8.8670260
 139.2277100 127.4256320   9.9870760 140.1047280 127.4339720  10.3704760
 139.2397940 126.6887160   9.3763110 140.8530090 131.3625730   4.3978330
 139.9032800 131.3289270   4.5123320 141.0343100 132.2725840   4.1628100
 126.0440880 124.9172930   2.4502230 126.6917070 124.3670310   2.0097390
 126.4642720 125.1716080   3.2718040 139.9393220 125.1114290   5.8071870
 140.5765440 125.7248430   6.1731060 140.0868110 125.1474950   4.8621100
 125.7972880 125.0728600   5.1927550 125.4487700 125.5292420   5.9585730
 125.4660580 124.1785730   5.2749980 127.4037250 138.2448200   9.3580740
 127.3606880 137.8741110  10.2395200 127.5348260 139.1825770   9.4982560
 131.1043280 139.8007790   4.9590460 130.8634640 140.0682350   4.0720980
 132.0445920 139.9713520   5.0141320 133.3097700 126.2640480   8.7146970
 133.2486590 126.8562310   9.4642380 134.2498080 126.1566440   8.5697230
 135.9472260 125.9210540   8.3539260 136.5612670 126.2389830   7.6920340
 136.4921820 125.4359130   8.9735120 142.3647440 141.8202170   5.7601100
 141.8705720 142.2171040   5.0428230 141.7560730 141.1951380   6.1538380
 126.4693520 124.6004800   8.4678320 127.0176510 124.4192850   7.7044430
 126.5348830 123.8098910   9.0034630 127.2425280 141.1910450   6.4778520
 126.6485600 141.0595150   7.2168560 127.2349120 140.3548590   6.0120620
 136.6880300 124.4842680   4.6808550 135.8140140 124.8177790   4.4781480
 136.5791050 124.0115860   5.5060420 137.5952280 126.6913550   6.0650270
 137.2665640 125.8765310   5.6852000 138.5434580 126.6483360   5.9415960
 140.0486890 142.4625590   3.0387840 139.5889860 143.2141400   2.6645860
 139.4199350 141.7432060   2.9802640 126.8737510 138.5568830   5.4286560
 126.1471570 137.9374120   5.3612510 126.9346660 138.9509440   4.5584640
 130.4782610 140.7713830   2.2135970 130.9947630 140.1601190   1.6884230
 131.1279990 141.2742610   2.7046980 133.2178110 141.6622320   3.0404950
 133.5055920 141.4076620   2.1637960 133.7301330 141.1099680   3.6310520
 134.4355120 125.4012520   3.6201460 133.6526910 125.8758020   3.8998220
 134.1418050 124.4967350   3.5114640 133.2850470 142.5838420  10.4073150
 134.2117780 142.3482690  10.4509110 133.2700900 143.4110420   9.9259180
 130.4714080 125.2483170  10.1715030 130.1898350 125.7516770   9.4075850
 130.8533780 124.4504920   9.8057160 137.0729540 124.6636750  10.7495500
 136.9594990 124.9831360  11.6447020 137.8899280 125.0649260  10.4532780
 139.8528030 141.8108280  10.2314190 140.6453350 141.3157510  10.0240150
 140.1461180 142.4898420  10.8389800 135.9787690 113.9085730 150.0821650
 135.8981740 112.9940340 149.8113360 135.5652110 114.4052800 149.3761360
 138.1313160 120.0924940 150.7430050 137.6694690 119.3212180 151.0717220
 138.9438710 120.1191010 151.2482500 126.5363510 110.9586450 146.6249070
 125.6480210 111.3002420 146.5228950 126.8204700 110.7586770 145.7329900
 134.3576470 122.3782950 150.3634040 133.7387910 122.8340450 149.7928480
 135.2128250 122.5334410 149.9623740 128.7124900 109.5417950 147.6587450
 128.8191650 110.4421680 147.9656210 127.8017260 109.4935920 147.3682100
 138.3644010 108.6642760 149.1298350 139.1853630 108.1739330 149.1723830
 138.3978090 109.2540420 149.8830190 135.2239820 117.2622190 147.7565950
 134.6057090 117.7271640 147.1928670 135.7363070 117.9549670 148.1735460
 124.5923020 117.9478720 145.1305580 124.2151000 118.4365820 144.3990480
 124.8496090 118.6204000 145.7612110 132.2011950 106.3495110 150.5891090
 132.5086930 105.7942000 149.8726590 131.2712650 106.4839570 150.4064080
 139.0472430 118.7878620 147.9688720 138.9368760 117.8452950 148.0938140
 139.0440680 119.1494260 148.8551480 134.5892710 114.4143940 147.3251210
 133.6621990 114.3481320 147.5539680 134.7417530 115.3524070 147.2106450
 134.5761790 110.6860940 144.3218370 133.6365460 110.8474900 144.4070830
 134.8945050 111.4046620 143.7754360 138.6190000 115.9764240 147.8286460
 138.0002420 115.6383790 147.1812760 138.6014450 115.3324000 148.5365650
 130.1949350 114.9408680 150.1070940 129.7906350 114.2285930 149.6116840
 130.2812470 114.5961920 150.9958980 136.7954700 115.2151050 144.8359210
 137.2347980 114.3773480 144.6897030 137.5083120 115.8480450 144.9223350
 134.9050080 120.1547120 148.8040450 135.3445990 120.8971450 148.3895840
 134.8436970 120.3973690 149.7279410 140.3771840 106.4693860 143.1500250
 140.0644500 106.5620690 144.0499320 141.1384310 107.0474890 143.0997680
 126.8953980 113.8353660 147.6077590 126.7751580 114.5615750 146.9958860
 126.5854870 113.0656570 147.1305500 125.7786980 118.7068990 149.8252410
 125.3715060 118.8483580 148.9706010 126.6699990 118.4229150 149.6223620
 137.5720260 123.1416240 146.1603460 137.4121400 122.8519180 147.0585290
 137.4066970 122.3656370 145.6248690 130.0508640 122.9214770 147.9375080
 129.8751120 122.0050310 147.7242880 129.1964380 123.2802060 148.1772880
 137.2746390 120.6503800 144.7201460 136.5811550 120.6481090 144.0603740
 138.0169250 120.2263120 144.2895630 136.8396320 122.2766510 148.7949950
 137.2953270 121.4955890 149.1088570 137.1788840 122.9873330 149.3391130
 129.3617640 107.1788730 150.9901260 128.9185790 107.9598270 150.6585780
 129.9202630 107.5018620 151.6972200 132.4776460 106.7999430 145.8707090
 131.8530640 106.7959300 146.5960400 132.3906580 105.9330390 145.4743060
 129.1531860 112.3022300 148.7182510 128.9272780 112.0859470 149.6229130
 128.3724390 112.7350760 148.3728480 136.3829620 112.3085670 147.3173160
 135.7838510 113.0321470 147.1336780 136.9309230 112.2462450 146.5349610
 134.9894490 110.9449210 149.3476440 135.3824060 111.2621410 148.5345130
 135.3511340 110.0661090 149.4620960 124.2128890 111.4770130 142.7809360
 124.1303560 112.4200890 142.9224350 123.8611950 111.3345040 141.9021710
 127.8629400 110.0935650 150.8073920 127.5229450 110.5710880 151.5640970
 127.1006720 109.6400770 150.4475020 132.0747170 111.2121240 144.8386470
 132.1959990 111.1707720 145.7872290 131.6895680 112.0745390 144.6833200
 131.0868670 113.5222380 144.2369770 130.5185570 113.0740630 143.6105680
 131.7957670 113.8815160 143.7034920 125.1775480 109.0154630 149.7238590
 124.8922400 108.6510300 150.5617210 125.1154340 108.2835090 149.1101730
 128.6316150 117.5180570 146.5096180 127.8578410 116.9778190 146.3494900
 129.3610780 116.9987180 146.1713940 134.8514070 107.9083890 146.4451960
 134.0378680 107.4097060 146.3697270 134.6576020 108.7482140 146.0288310
 137.5662460 112.2803540 144.7414120 138.4542080 112.5920770 144.5665460
 137.5367550 111.4075790 144.3494700 128.6753550 117.1860950 150.1474990
 129.1932220 116.3829210 150.0931880 128.2237570 117.1240090 150.9891820
 133.5623050 118.4527230 145.4202290 133.9038750 119.1969460 144.9245610
 132.7335760 118.7658350 145.7827120 139.8376730 113.5915380 144.2093980
 139.7540450 114.0229600 143.3590420 140.5570920 114.0513730 144.6420800
 140.8663980 120.4457640 146.9376110 140.2240140 119.7913260 147.2119830
 140.4794640 120.8512730 146.1616780 136.4450460 117.7743070 150.7847800
 136.7974280 117.1771200 150.1249170 135.5612790 117.4487300 150.9556050
 132.5313740 118.5340760 148.1918210 133.2184870 119.0809970 148.5725800
 131.7446160 119.0781490 148.2267820 124.6706140 114.1513580 143.6835290
 125.5400990 114.4338380 143.9671210 124.1796460 114.9649450 143.5684100
 131.8340950 115.5386790 147.8043570 132.2903730 116.3492040 148.0303760
 131.4829160 115.2209930 148.6362060 127.7352730 105.8824440 148.2766090
 127.6067360 105.8742340 149.2251010 126.9114750 106.2207530 147.9257100
 139.2561360 119.3374100 143.4752460 139.0298940 118.6204540 144.0677100
 138.8657560 119.0886540 142.6374210 125.0377390 123.3640960 144.2496920
 125.3975030 123.9630300 143.5954190 124.8969730 123.9100850 145.0231950
 138.8377610 117.2546040 145.1366620 138.5499310 117.7158730 145.9244500
 139.6329780 116.7943810 145.4050840 131.0546010 120.7472160 145.0670590
 131.0456110 121.4801850 144.4515100 130.1344370 120.5003740 145.1597550
 126.6552650 115.9687050 145.8117350 126.0480600 116.7085950 145.8212650
 127.1302000 116.0586410 144.9855550 139.5947470 109.0894810 146.2961800
 138.9660630 109.1940480 145.5820030 139.0999390 109.3091590 147.0855680
 134.0405610 120.8100400 143.7295780 134.1417590 120.6064390 142.7997760
 133.1407350 120.5558680 143.9343560 131.5631500 111.3680760 147.7119680
 130.8547650 111.8367100 148.1533290 131.8475980 110.7102770 148.3464870
 135.5946930 108.0931420 149.1515470 135.4714710 108.1117550 148.2024980
 136.5431490 108.1410360 149.2713870 132.6823720 123.3286720 148.4243450
 132.9365220 123.2908110 147.5022820 131.7336200 123.2020050 148.4171700
 129.7666520 109.6765840 145.0870390 130.6157050 110.1135990 145.0210580
 129.3997790 109.9886100 145.9142450 138.6876300 114.2478600 150.0001960
 137.7466440 114.2628830 150.1749650 139.0020370 113.4614560 150.4462260
 128.6657940 115.9298200 143.5605920 129.4321210 115.8179560 144.1231350
 128.7432630 115.2336170 142.9082690 127.3604700 113.3623270 144.2438810
 127.4408290 112.4150780 144.3556210 128.2524450 113.6930150 144.3499470
 128.1619410 123.5118660 151.3473350 128.8981890 122.9634120 151.6181920
 128.5460330 124.3774670 151.2079340 125.0464890 119.5792230 147.2214860
 124.1204670 119.8213370 147.2120270 125.5121320 120.4066490 147.0999610
 131.2721720 122.6848970 143.1698920 132.0650330 122.9737800 142.7180710
 130.7526070 122.2541140 142.4911400 140.3251890 121.9119100 144.5935660
 140.0393400 121.4984240 143.7789840 140.1271440 122.8406810 144.4736180
 131.7899120 117.9052380 143.0341270 131.6849760 117.2904730 143.7602650
 131.6223340 117.3818270 142.2504280 135.0301850 116.9672410 143.6383260
 134.4811950 117.4141710 144.2826000 135.6521110 116.4621660 144.1620930
 130.6976970 115.9263330 145.5348560 131.1193390 115.7603200 146.3779950
 130.8227810 115.1163560 145.0403700 133.2104610 114.9500940 142.7825660
 133.7310270 114.2349960 142.4166810 133.8573010 115.5886810 143.0826170
 129.5935870 111.9996560 142.4806720 129.3924930 111.1363920 142.8420060
 129.4227920 111.9129920 141.5428320 137.0724180 106.8104790 145.0093600
 137.3526470 105.9672690 145.3653020 136.2989910 107.0427900 145.5232350
 128.3918670 109.0997180 142.4684600 128.6944570 109.1064610 141.5603750
 129.1313260 108.7495040 142.9652260 131.6103600 108.0431800 143.4540800
 131.2625600 107.3655790 142.8743250 131.8116370 107.5821310 144.2684190
 133.7752640 123.0312550 145.0727400 134.6703430 123.3697520 145.0946160
 133.8070270 122.3091960 144.4451680 127.4148800 118.4039600 143.3014400
 127.8523670 118.9469270 143.9571980 127.8996530 117.5786550 143.3110740
 124.6294600 121.1928630 150.7534660 124.9597610 120.3249690 150.5213300
 125.0585600 121.3987150 151.5839620 129.2256520 119.5237640 148.4136630
 128.9252060 119.4002610 149.3140540 129.1194010 118.6646230 148.0052360
 141.9948440 119.3034040 143.1163310 141.1641400 119.3710690 143.5870540
 142.1720270 120.1938160 142.8130170 141.4504900 116.0481520 145.6197510
 142.2123810 116.6178170 145.7257200 141.4659270 115.4808720 146.3905820
 124.9509240 114.5719450 149.8505170 124.2958080 114.3031090 149.2064870
 125.7887190 114.4623930 149.4007150 142.4564870 116.9031620 150.4639440
 142.8273700 116.1198940 150.0575410 143.0966800 117.5920720 150.2856740
 141.5024070 116.3415890 142.7770030 141.7772910 117.2494770 142.6489250
 141.3134810 116.2778420 143.7132020 137.8999680 109.3660740 144.0723660
 138.3184560 109.1791720 143.2320320 137.5935740 108.5139790 144.3826590
 141.3989410 114.2784880 147.7699460 141.0233010 113.5112810 147.3380750
 140.6692530 114.6607580 148.2574390 124.1647320 111.7818380 145.7930500
 123.2611400 112.0448580 145.6182160 124.6487940 112.0529550 145.0130460
 126.7074530 110.8383920 143.7024880 127.4166230 110.4167140 143.2172160
 125.9914470 110.9059150 143.0708230 126.3548690 106.8923250 142.7427530
 127.0776820 107.4332190 143.0608750 126.6273210 106.6186670 141.8669070
 140.1640340 111.7615720 147.0099110 140.6599460 111.5286590 147.7947990
 139.9656410 110.9227560 146.5936750 141.5927500 110.3976670 149.5436790
 141.4826780 110.2432710 150.4819060 142.3535090 109.8697610 149.3012200
 142.4817770 108.2284590 142.7842930 143.4067080 108.0965770 142.5761220
 142.4593560 108.3077410 143.7379380 142.5556260 108.9995250 145.4099640
 141.7607760 108.9340370 145.9392550 142.7599540 109.9345890 145.3984990
 139.4974680 123.0386800 149.4038030 140.0933750 122.7171370 148.7272450
 139.7552830 122.5658620 150.1951300 140.8514760 106.9607370 149.8707290
 140.7903160 106.0168590 149.7238310 141.6306790 107.0687460 150.4160750
 125.1567510 123.0999730 148.8331240 124.9889550 122.4670410 149.5313130
 124.2902020 123.3059130 148.4825430 125.7795530 106.9316510 146.3363100
 126.5374890 107.0445390 145.7627130 125.3172700 107.7685710 146.2906530
 132.3209340 109.0455780 149.3265410 131.5083850 108.6712670 148.9861290
 132.8250980 108.2900860 149.6286600 136.8234320 105.7098230 150.5648480
 137.4263690 106.2818440 151.0397000 136.0827310 106.2737670 150.3422380
 139.9668920 106.1119790 145.8388760 140.1619550 107.0103240 146.1056190
 139.1798790 105.8806870 146.3321710 126.7630210 121.7932960 146.2781380
 126.2377830 122.1740990 145.5743340 126.6874790 122.4183730 146.9991090
 128.1520680 107.4580560 144.8765070 128.6813440 106.6710360 144.7473020
 128.7849000 108.1371750 145.1100600 130.3458520 107.1955700 147.9310460
 129.7161260 106.4943010 148.0980590 129.8063660 107.9559830 147.7143620
 141.5195530 123.3520500 147.5995320 141.6947720 122.6658240 146.9556240
 140.8217100 123.8767550 147.2071990 129.3623180 123.7415340 145.1530630
 130.0942000 123.4574620 144.6054520 129.6216850 123.5028620 146.0430010
 128.5237970 119.8580070 145.1576960 127.8946850 120.3265170 145.7062790
 128.6385800 119.0129290 145.5923150 135.9787690 113.9085730 131.3078160
 135.8981740 112.9940340 131.0369870 135.5652110 114.4052800 130.6017870
 134.1105730 115.6864750 133.1887430 133.3347830 115.2065190 133.4786000
 134.7618660 115.0070400 133.0143590 128.1271560 115.9984560 134.0663190
 127.2956440 115.7433270 134.4659700 128.7352540 116.0695330 134.8021110
 138.1313160 120.0924940 131.9686560 137.6694690 119.3212180 132.2973730
 138.9438710 120.1191010 132.4739010 128.1072820 120.0324650 134.2621210
 128.4100860 119.1422390 134.0831430 128.8516410 120.5894870 134.0343460
 126.5363510 110.9586450 127.8505580 125.6480210 111.3002420 127.7485460
 126.8204700 110.7586770 126.9586410 124.4996520 113.5592100 133.7345280
 125.0712630 112.7914300 133.7348920 124.4998060 113.8580860 132.8251890
 134.3576470 122.3782950 131.5890550 133.7387910 122.8340450 131.0184990
 135.2128250 122.5334410 131.1880250 133.5514720 118.3621940 133.1957590
 133.4823000 117.4211880 133.0346720 134.3134580 118.4523350 133.7680160
 125.7421390 108.9676460 135.5214210 125.5624230 108.0702210 135.8016970
 125.3401470 109.5148330 136.1961160 134.5819890 111.1692320 133.4226520
 134.9584710 110.2964200 133.3100190 134.4839400 111.5051020 132.5316960
 128.7124900 109.5417950 128.8843960 128.8191650 110.4421680 129.1912720
 127.8017260 109.4935920 128.5938610 138.3644010 108.6642760 130.3554860
 139.1853630 108.1739330 130.3980340 138.3978090 109.2540420 131.1086700
 126.3608060 111.4636960 134.1296550 127.0418170 111.7275330 134.7483950
 126.0456110 110.6237830 134.4634560 130.5532630 112.5104320 133.2169140
 131.0610850 113.0085290 133.8574160 131.0845870 111.7339520 133.0408500
 142.6543560 110.6809510 136.9198490 141.9495730 111.0691220 136.4013600
 142.9201480 111.3759800 137.5219420 128.8368730 107.1502880 137.4832560
 128.8387170 107.6675270 136.6778460 128.0073040 106.6733060 137.4602490
 135.2239820 117.2622190 128.9822460 134.6057090 117.7271640 128.4185180
 135.7363070 117.9549670 129.3991970 130.0871580 116.7898060 135.6606060
 129.7540960 117.4166980 136.3027130 130.2638260 117.3159940 134.8807730
 138.6005490 110.6043140 133.1282400 137.8961060 110.8928030 133.7085510
 138.9617650 111.4143250 132.7681960 128.5184060 108.8612840 135.4903010
 128.8600870 109.7054890 135.1956880 127.5799870 109.0096580 135.6068350
 129.2990680 118.7578860 137.4755240 129.9164680 119.4329940 137.1939690
 128.4383800 119.1666840 137.3842740 124.5923020 117.9478720 126.3562090
 124.2151000 118.4365820 125.6246990 124.8496090 118.6204000 126.9868620
 140.2168270 120.2218270 135.3909880 139.5331790 120.8917380 135.3826550
 140.7562560 120.4198920 134.6254740 141.6692410 110.0497930 133.5191610
 140.7217320 110.0836910 133.6507040 141.9942400 110.8636880 133.9040970
 132.2011950 106.3495110 131.8147600 132.5086930 105.7942000 131.0983100
 131.2712650 106.4839570 131.6320590 137.7527010 122.0662400 134.1055060
 137.7654170 121.6624690 133.2377320 137.2002230 122.8409690 134.0016490
 139.0472430 118.7878620 129.1945230 138.9368760 117.8452950 129.3194650
 139.0440680 119.1494260 130.0807990 137.1512450 116.9692240 135.4337670
 137.5681240 116.7552350 134.5991130 137.8752270 117.2265030 136.0046290
 134.5892710 114.4143940 128.5507720 133.6621990 114.3481320 128.7796190
 134.7417530 115.3524070 128.4362960 134.5761790 110.6860940 125.5474880
 133.6365460 110.8474900 125.6327340 134.8945050 111.4046620 125.0010870
 141.0974550 115.3679460 135.5253910 140.2693180 115.4372550 135.0504040
 141.6925030 115.9533770 135.0569740 138.6190000 115.9764240 129.0542970
 138.0002420 115.6383790 128.4069270 138.6014450 115.3324000 129.7622160
 138.0616560 112.1548780 136.4708780 137.6487740 112.9802490 136.7248770
 137.3292510 111.5693820 136.2785140 130.1949350 114.9408680 131.3327450
 129.7906350 114.2285930 130.8373350 130.2812470 114.5961920 132.2215490
 130.6631050 118.6276240 133.4966660 130.3659340 118.0221710 132.8174440
 131.6130870 118.6653550 133.3856020 128.9077970 111.7151890 135.1126490
 129.4592560 111.8247230 134.3379740 129.4221480 112.0889490 135.8281720
 138.7516660 122.2008110 137.1589760 138.2747220 123.0080300 136.9662370
 138.0678450 121.5486440 137.3115970 129.7549480 118.3657930 140.1474460
 128.8578010 118.5897900 140.3947860 129.7802350 118.4892870 139.1985860
 136.7954700 115.2151050 126.0615720 137.2347980 114.3773480 125.9153540
 137.5083120 115.8480450 126.1479860 128.5820700 115.2371250 138.7231830
 128.4428470 116.1094050 139.0919230 127.7002060 114.8944060 138.5779770
 134.9050080 120.1547120 130.0296960 135.3445990 120.8971450 129.6152350
 134.8436970 120.3973690 130.9535920 130.3801050 121.1792950 140.9316980
 130.3516480 121.5835900 140.0645410 130.2166020 120.2503310 140.7688580
 140.3771840 106.4693860 124.3756760 140.0644500 106.5620690 125.2755830
 141.1384310 107.0474890 124.3254190 126.8953980 113.8353660 128.8334100
 126.7751580 114.5615750 128.2215370 126.5854870 113.0656570 128.3562010
 142.3315870 121.9620050 142.2281150 142.8075590 122.4402940 142.9070230
 142.9523030 121.8937540 141.5026650 124.5339350 117.0068800 134.6402740
 124.6119770 117.1417570 133.6958460 125.1481030 116.2984690 134.8330860
 125.7786980 118.7068990 131.0508920 125.3715060 118.8483580 130.1962520
 126.6699990 118.4229150 130.8480130 141.7349120 119.1532900 139.3881160
 141.8612180 118.9144780 138.4698340 141.7770500 118.3217440 139.8603240
 135.5965860 122.8560900 137.9575970 136.1110530 122.7668910 138.7598400
 134.7534940 123.2020600 138.2503880 137.5720260 123.1416240 127.3859970
 137.4121400 122.8519180 128.2841800 137.4066970 122.3656370 126.8505200
 130.0508640 122.9214770 129.1631590 129.8751120 122.0050310 128.9499390
 129.1964380 123.2802060 129.4029390 137.2746390 120.6503800 125.9457970
 136.5811550 120.6481090 125.2860250 138.0169250 120.2263120 125.5152140
 136.8396320 122.2766510 130.0206460 137.2953270 121.4955890 130.3345080
 137.1788840 122.9873330 130.5647640 141.5873130 111.2065360 140.3530900
 140.9717400 111.7145030 139.8246360 141.2669550 110.3063690 140.2956840
 124.5898870 118.0482970 137.1797200 124.7529910 117.5788330 136.3616570
 125.0551320 117.5406530 137.8446040 129.3617640 107.1788730 132.2157770
 128.9185790 107.9598270 131.8842290 129.9202630 107.5018620 132.9228710
 133.6487450 110.0457250 137.8193090 133.1866820 110.2540270 138.6313030
 133.2465560 109.2316600 137.5163760 138.6491960 111.2666200 138.9489750
 137.7985550 110.9671950 139.2698820 138.4893750 111.5108210 138.0373570
 135.7441670 112.7667950 141.0488540 136.0695080 111.9331700 140.7090770
 136.5322000 113.2896470 141.1966870 132.4776460 106.7999430 127.0963600
 131.8530640 106.7959300 127.8216910 132.3906580 105.9330390 126.6999570
 131.3993540 107.7236060 134.0747370 131.6965870 108.6298890 133.9939390
 131.9479100 107.2354840 133.4606940 129.1531860 112.3022300 129.9439020
 128.9272780 112.0859470 130.8485640 128.3724390 112.7350760 129.5984990
 136.3829620 112.3085670 128.5429670 135.7838510 113.0321470 128.3593290
 136.9309230 112.2462450 127.7606120 131.5931070 113.2007880 140.6099290
 131.4974670 112.2602610 140.4599690 132.4363050 113.4222950 140.2147360
 134.9894490 110.9449210 130.5732950 135.3824060 111.2621410 129.7601640
 135.3511340 110.0661090 130.6877470 126.7241610 109.6121550 138.7633070
 126.3305000 110.4596760 138.9705850 126.0360010 108.9747920 138.9541710
 133.2986660 109.6956520 141.8329810 132.6084980 109.5028720 142.4675900
 134.0418960 109.9791160 142.3654110 124.0258660 107.5350010 132.7963150
 123.7371710 108.1052870 133.5088130 124.7704420 107.0554460 133.1594380
 124.2128890 111.4770130 124.0065870 124.1303560 112.4200890 124.1480860
 123.8611950 111.3345040 123.1278220 135.5749630 113.5354960 134.6683730
 134.8430750 114.0441770 135.0173830 135.1773970 112.7184940 134.3672510
 132.0127020 110.2109160 133.0736220 132.0163080 109.7699110 132.2240760
 132.9078140 110.5326490 133.1808040 127.8629400 110.0935650 132.0330430
 127.5229450 110.5710880 132.7897480 127.1006720 109.6400770 131.6731530
 132.0747170 111.2121240 126.0642980 132.1959990 111.1707720 127.0128800
 131.6895680 112.0745390 125.9089710 136.0375540 108.9888640 134.0806670
 136.0548280 109.4397290 134.9248520 135.7891120 108.0894280 134.2940110
 131.0868670 113.5222380 125.4626280 130.5185570 113.0740630 124.8362190
 131.7957670 113.8815160 124.9291430 139.4646290 106.4020820 139.9193050
 139.7892060 105.6710480 140.4451030 139.5002800 106.0834460 139.0174040
 126.1637850 117.4234400 139.3393010 125.7792640 116.7828070 139.9375970
 126.4750040 118.1270520 139.9087740 132.3134990 114.2710940 134.8201630
 132.6805120 113.7969510 135.5662970 132.1240050 115.1452510 135.1609970
 125.1775480 109.0154630 130.9495100 124.8922400 108.6510300 131.7873720
 125.1154340 108.2835090 130.3358240 130.1034360 113.3119580 137.1385840
 129.7991430 114.1911560 137.3636200 131.0580820 113.3719370 137.1743280
 128.6316150 117.5180570 127.7352690 127.8578410 116.9778190 127.5751410
 129.3610780 116.9987180 127.3970450 139.3904130 116.5145930 133.5279080
 140.1103250 117.0101220 133.1375190 139.1885950 115.8363820 132.8832950
 134.8514070 107.9083890 127.6708470 134.0378680 107.4097060 127.5953780
 134.6576020 108.7482140 127.2544820 134.7722930 116.5854990 139.4148080
 134.7060240 115.6650660 139.1605670 134.1428070 116.6830430 140.1292720
 137.5662460 112.2803540 125.9670630 138.4542080 112.5920770 125.7921970
 137.5367550 111.4075790 125.5751210 128.6753550 117.1860950 131.3731500
 129.1932220 116.3829210 131.3188390 128.2237570 117.1240090 132.2148330
 133.5623050 118.4527230 126.6458800 133.9038750 119.1969460 126.1502120
 132.7335760 118.7658350 127.0083630 126.1598090 114.1522320 138.2857200
 125.8013030 114.8176170 138.8730540 125.8652650 113.3205870 138.6569820
 129.3611210 114.6106560 141.1696750 129.0611350 114.7563740 140.2724570
 130.1322450 114.0511850 141.0770140 134.7039660 119.4075560 139.1651880
 134.7184200 118.4756520 138.9470790 133.9964760 119.4935320 139.8041650
 139.8376730 113.5915380 125.4350490 139.7540450 114.0229600 124.5846930
 140.5570920 114.0513730 125.8677310 140.9150870 116.0482900 138.5120460
 140.1899060 116.6411680 138.3149850 141.4426330 116.0406440 137.7133830
 140.8663980 120.4457640 128.1632620 140.2240140 119.7913260 128.4376340
 140.4794640 120.8512730 127.3873290 136.4450460 117.7743070 132.0104310
 136.7974280 117.1771200 131.3505680 135.5612790 117.4487300 132.1812560
 132.5313740 118.5340760 129.4174720 133.2184870 119.0809970 129.7982310
 131.7446160 119.0781490 129.4524330 124.6706140 114.1513580 124.9091800
 125.5400990 114.4338380 125.1927720 124.1796460 114.9649450 124.7940610
 131.8340950 115.5386790 129.0300080 132.2903730 116.3492040 129.2560270
 131.4829160 115.2209930 129.8618570 134.1373560 121.0493130 136.2592380
 134.7815780 121.2552510 136.9365800 134.5003000 120.2881530 135.8063230
 127.7352730 105.8824440 129.5022600 127.6067360 105.8742340 130.4507520
 126.9114750 106.2207530 129.1513610 135.4105640 119.0525480 134.9769830
 136.0527870 118.3518640 135.0902000 135.9354990 119.8323920 134.7966720
 139.2561360 119.3374100 124.7008970 139.0298940 118.6204540 125.2933610
 138.8657560 119.0886540 123.8630720 137.1843260 119.8520380 138.1805890
 137.5199500 120.4387070 138.8583810 136.2643600 119.7213090 138.4103680
 125.0377390 123.3640960 125.4753430 125.3975030 123.9630300 124.8210700
 124.8969730 123.9100850 126.2488460 124.7346660 107.6415560 138.9629300
 124.0205180 107.8412480 139.5681910 125.1541700 106.8655130 139.3344100
 138.8377610 117.2546040 126.3623130 138.5499310 117.7158730 127.1501010
 139.6329780 116.7943810 126.6307350 125.0219250 121.6295820 139.9495830
 125.1310370 120.6890560 139.8091220 124.3699810 121.8950570 139.3009560
 133.0131840 119.9011710 141.3493950 132.6928710 119.1820950 141.8939640
 132.3390200 120.5766780 141.4230010 131.0546010 120.7472160 126.2927100
 131.0456110 121.4801850 125.6771610 130.1344370 120.5003740 126.3854060
 126.6552650 115.9687050 127.0373860 126.0480600 116.7085950 127.0469160
 127.1302000 116.0586410 126.2112060 136.2285440 110.1337870 136.7130750
 136.5966260 109.3133080 137.0410320 135.3683640 110.1939760 137.1286400
 139.5947470 109.0894810 127.5218310 138.9660630 109.1940480 126.8076540
 139.0999390 109.3091590 128.3112190 134.0405610 120.8100400 124.9552290
 134.1417590 120.6064390 124.0254270 133.1407350 120.5558680 125.1600070
 131.5631500 111.3680760 128.9376190 130.8547650 111.8367100 129.3789800
 131.8475980 110.7102770 129.5721380 133.1887430 112.7877460 136.9368720
 133.6872680 113.2623280 137.6020570 133.3310380 111.8640980 137.1438750
 135.5946930 108.0931420 130.3771980 135.4714710 108.1117550 129.4281490
 136.5431490 108.1410360 130.4970380 132.6823720 123.3286720 129.6499960
 132.9365220 123.2908110 128.7279330 131.7336200 123.2020050 129.6428210
 129.7666520 109.6765840 126.3126900 130.6157050 110.1135990 126.2467090
 129.3997790 109.9886100 127.1398960 140.3954290 109.0045420 137.7797110
 139.8927890 109.7450820 138.1190920 141.2110950 109.3929420 137.4633900
 138.6876300 114.2478600 131.2258470 137.7466440 114.2628830 131.4006160
 139.0020370 113.4614560 131.6718770 128.6657940 115.9298200 124.7862430
 129.4321210 115.8179560 125.3487860 128.7432630 115.2336170 124.1339200
 127.3604700 113.3623270 125.4695320 127.4408290 112.4150780 125.5812720
 128.2524450 113.6930150 125.5755980 140.6901880 121.4187450 132.9012730
 140.8149300 122.2418620 133.3736540 141.5567440 121.2078180 132.5536880
 128.1619410 123.5118660 132.5729860 128.8981890 122.9634120 132.8438430
 128.5460330 124.3774670 132.4335850 125.0464890 119.5792230 128.4471370
 124.1204670 119.8213370 128.4376780 125.5121320 120.4066490 128.3256120
 127.1677690 122.6964730 141.7615440 127.9690420 123.0176780 142.1750840
 126.6529510 122.3360310 142.4835350 131.2721720 122.6848970 124.3955430
 132.0650330 122.9737800 123.9437220 130.7526070 122.2541140 123.7167910
 136.0042320 118.8044600 141.7090850 135.3980480 118.8276200 140.9686600
 135.6996430 118.0727640 142.2458100 137.4342690 122.5324890 140.3200260
 138.3864440 122.4482910 140.2700500 137.2870910 123.1966600 140.9934050
 140.3251890 121.9119100 125.8192170 140.0393400 121.4984240 125.0046350
 140.1271440 122.8406810 125.6992690 124.8875500 115.1838190 140.7051490
 125.3914520 114.6045470 141.2767720 124.1482920 115.4678420 141.2427860
 131.7899120 117.9052380 124.2597780 131.6849760 117.2904730 124.9859160
 131.6223340 117.3818270 123.4760790 131.9413440 116.5909180 140.2387010
 131.1759110 117.1594180 140.1541680 132.1229400 116.2985390 139.3455240
 135.0301850 116.9672410 124.8639770 134.4811950 117.4141710 125.5082510
 135.6521110 116.4621660 125.3877440 139.0836790 118.3214510 140.7962030
 139.8246260 118.6590270 140.2929490 138.3209470 118.4906570 140.2431800
 126.9198580 113.3267780 141.6001560 126.9603920 113.0281650 142.5086790
 127.7744080 113.7275390 141.4409080 130.6976970 115.9263330 126.7605070
 131.1193390 115.7603200 127.6036460 130.8227810 115.1163560 126.2660210
 128.8604390 111.9059880 139.5676050 128.3300850 111.4150830 138.9399390
 129.5292460 112.3344080 139.0333980 133.2104610 114.9500940 124.0082170
 133.7310270 114.2349960 123.6423320 133.8573010 115.5886810 124.3082680
 137.7582450 116.3729340 139.3317240 138.1723470 116.5274420 140.1807660
 136.8233450 116.4984560 139.4943020 138.2304620 113.7125500 141.3356390
 138.8125390 112.9577820 141.2476870 138.4066390 114.2432940 140.5587870
 129.3476690 108.8722250 139.6473340 129.2533560 108.2543000 138.9224210
 128.7674080 109.5988540 139.4203250 132.1138130 107.4295490 136.6800730
 131.6655430 107.4519750 135.8346280 131.4803330 107.0314510 137.2771030
 132.5197680 116.3249820 137.3013170 132.9385790 117.1682550 137.1289410
 131.6006310 116.4621860 137.0719950 134.8561580 114.0566000 138.6851010
 134.9757790 113.4607140 139.4245850 135.7155580 114.0935690 138.2652310
 137.1949480 114.6103190 137.2613520 136.6684700 115.1345810 136.6578660
 137.5380820 115.2430580 137.8923250 129.5935870 111.9996560 123.7063230
 129.3924930 111.1363920 124.0676570 129.4227920 111.9129920 122.7684830
 130.3705100 122.6302830 138.4170900 129.8326190 123.3548890 138.0979600
 130.6239060 122.1533170 137.6268240 131.6230350 110.5987350 139.9426830
 132.2130040 110.2903200 140.6304650 130.8050590 110.1267100 140.0986730
 136.4423780 110.2153160 140.1759850 135.7539300 109.5534700 140.1109840
 137.1629800 109.7691430 140.6208310 137.0724180 106.8104790 126.2350110
 137.3526470 105.9672690 126.5909530 136.2989910 107.0427900 126.7488860
 128.3918670 109.0997180 123.6941110 128.6944570 109.1064610 122.7860260
 129.1313260 108.7495040 124.1908770 133.2267310 123.8654040 138.6757550
 133.1526010 124.7689180 138.9829920 132.3246150 123.5465940 138.6479620
 131.6103600 108.0431800 124.6797310 131.2625600 107.3655790 124.0999760
 131.8116370 107.5821310 125.4940700 133.7752640 123.0312550 126.2983910
 134.6703430 123.3697520 126.3202670 133.8070270 122.3091960 125.6708190
 127.4148800 118.4039600 124.5270910 127.8523670 118.9469270 125.1828490
 127.8996530 117.5786550 124.5367250 124.6294600 121.1928630 131.9791170
 124.9597610 120.3249690 131.7469810 125.0585600 121.3987150 132.8096130
 129.2256520 119.5237640 129.6393140 128.9252060 119.4002610 130.5397050
 129.1194010 118.6646230 129.2308870 125.1184810 122.0599220 134.7172800
 124.6815800 122.2400020 135.5496950 125.6862490 122.8173840 134.5754520
 140.7546990 121.5616220 139.0050110 140.1548980 121.6208780 138.2614030
 140.8840890 120.6221200 139.1346960 141.9948440 119.3034040 124.3419820
 141.1641400 119.3710690 124.8127050 142.1720270 120.1938160 124.0386680
 141.4504900 116.0481520 126.8454020 142.2123810 116.6178170 126.9513710
 141.4659270 115.4808720 127.6162330 124.9509240 114.5719450 131.0761680
 124.2958080 114.3031090 130.4321380 125.7887190 114.4623930 130.6263660
 142.4564870 116.9031620 131.6895950 142.8273700 116.1198940 131.2831920
 143.0966800 117.5920720 131.5113250 139.4398630 118.2868200 137.1026270
 138.6258470 118.7165360 137.3652060 139.8472830 118.8986610 136.4895320
 141.5024070 116.3415890 124.0026540 141.7772910 117.2494770 123.8745760
 141.3134810 116.2778420 124.9388530 137.8999680 109.3660740 125.2980170
 138.3184560 109.1791720 124.4576830 137.5935740 108.5139790 125.6083100
 141.3989410 114.2784880 128.9955970 141.0233010 113.5112810 128.5637260
 140.6692530 114.6607580 129.4830900 125.9885170 114.9572020 135.6165020
 126.3558210 114.8699420 136.4961040 125.4195990 114.1938570 135.5171880
 140.7889030 113.4256400 138.6295490 140.5575120 113.1969150 137.7293440
 141.0493580 114.3455950 138.5840380 125.5401170 111.8681110 139.5223440
 124.6457220 111.8347870 139.8617150 126.0798720 112.0667900 140.2874690
 139.2277100 108.6512830 141.4075190 140.1047280 108.6596230 141.7909190
 139.2397940 107.9143670 140.7967540 124.1647320 111.7818380 127.0187010
 123.2611400 112.0448580 126.8438670 124.6487940 112.0529550 126.2386970
 140.6740370 112.5042370 132.2963210 141.1977850 112.0105020 131.6653380
 141.2599790 112.6392730 133.0410780 140.8530090 112.5882240 135.8182760
 139.9032800 112.5545780 135.9327750 141.0343100 113.4982350 135.5832530
 126.7074530 110.8383920 124.9281390 127.4166230 110.4167140 124.4428670
 125.9914470 110.9059150 124.2964740 126.3548690 106.8923250 123.9684040
 127.0776820 107.4332190 124.2865260 126.6273210 106.6186670 123.0925580
 140.1640340 111.7615720 128.2355620 140.6599460 111.5286590 129.0204500
 139.9656410 110.9227560 127.8193260 126.0440880 106.1429440 133.8706660
 126.6917070 105.5926820 133.4301820 126.4642720 106.3972590 134.6922470
 141.5927500 110.3976670 130.7693300 141.4826780 110.2432710 131.7075570
 142.3535090 109.8697610 130.5268710 139.9393220 106.3370800 137.2276300
 140.5765440 106.9504940 137.5935490 140.0868110 106.3731460 136.2825530
 142.4817770 108.2284590 124.0099440 143.4067080 108.0965770 123.8017730
 142.4593560 108.3077410 124.9635890 142.5556260 108.9995250 126.6356150
 141.7607760 108.9340370 127.1649060 142.7599540 109.9345890 126.6241500
 139.4974680 123.0386800 130.6294540 140.0933750 122.7171370 129.9528960
 139.7552830 122.5658620 131.4207810 125.7972880 106.2985110 136.6131980
 125.4487700 106.7548930 137.3790160 125.4660580 105.4042240 136.6954410
 127.4037250 119.4704710 140.7785170 127.3606880 119.0997620 141.6599630
 127.5348260 120.4082280 140.9186990 131.1043280 121.0264300 136.3794890
 130.8634640 121.2938860 135.4925410 132.0445920 121.1970030 136.4345750
 133.3097700 107.4896990 140.1351400 133.2486590 108.0818820 140.8846810
 134.2498080 107.3822950 139.9901660 135.9472260 107.1467050 139.7743690
 136.5612670 107.4646340 139.1124770 136.4921820 106.6615640 140.3939550
 142.3647440 123.0458680 137.1805530 141.8705720 123.4427550 136.4632660
 141.7560730 122.4207890 137.5742810 126.4693520 105.8261310 139.8882750
 127.0176510 105.6449360 139.1248860 126.5348830 105.0355420 140.4239060
 127.2425280 122.4166960 137.8982950 126.6485600 122.2851660 138.6372990
 127.2349120 121.5805100 137.4325050 136.6880300 105.7099190 136.1012980
 135.8140140 106.0434300 135.8985910 136.5791050 105.2372370 136.9264850
 137.5952280 107.9170060 137.4854700 137.2665640 107.1021820 137.1056430
 138.5434580 107.8739870 137.3620390 140.0486890 123.6882100 134.4592270
 139.5889860 124.4397910 134.0850290 139.4199350 122.9688570 134.4007070
 126.8737510 119.7825340 136.8490990 126.1471570 119.1630630 136.7816940
 126.9346660 120.1765950 135.9789070 130.4782610 121.9970340 133.6340400
 130.9947630 121.3857700 133.1088660 131.1279990 122.4999120 134.1251410
 133.2178110 122.8878830 134.4609380 133.5055920 122.6333130 133.5842390
 133.7301330 122.3356190 135.0514950 134.4355120 106.6269030 135.0405890
 133.6526910 107.1014530 135.3202650 134.1418050 105.7223860 134.9319070
 138.9876190 107.3292130 133.0854980 139.4284280 107.2737230 132.2376580
 138.7183780 108.2450140 133.1565160 140.8514760 106.9607370 131.0963800
 140.7903160 106.0168590 130.9494820 141.6306790 107.0687460 131.6417260
 125.1567510 123.0999730 130.0587750 124.9889550 122.4670410 130.7569640
 124.2902020 123.3059130 129.7081940 125.7795530 106.9316510 127.5619610
 126.5374890 107.0445390 126.9883640 125.3172700 107.7685710 127.5163040
 132.3209340 109.0455780 130.5521920 131.5083850 108.6712670 130.2117800
 132.8250980 108.2900860 130.8543110 136.8234320 105.7098230 131.7904990
 137.4263690 106.2818440 132.2653510 136.0827310 106.2737670 131.5678890
 139.9668920 106.1119790 127.0645270 140.1619550 107.0103240 127.3312700
 139.1798790 105.8806870 127.5578220 126.7630210 121.7932960 127.5037890
 126.2377830 122.1740990 126.7999850 126.6874790 122.4183730 128.2247600
 128.1520680 107.4580560 126.1021580 128.6813440 106.6710360 125.9729530
 128.7849000 108.1371750 126.3357110 130.3458520 107.1955700 129.1566970
 129.7161260 106.4943010 129.3237100 129.8063660 107.9559830 128.9400130
 133.2850470 123.8094930 141.8277580 134.2117780 123.5739200 141.8713540
 133.2700900 124.6366930 141.3463610 141.5195530 123.3520500 128.8251830
 141.6947720 122.6658240 128.1812750 140.8217100 123.8767550 128.4328500
 130.4714080 106.4739680 141.5919460 130.1898350 106.9773280 140.8280280
 130.8533780 105.6761430 141.2261590 129.3623180 123.7415340 126.3787140
 130.0942000 123.4574620 125.8311030 129.6216850 123.5028620 127.2686520
 128.5237970 119.8580070 126.3833470 127.8946850 120.3265170 126.9319300
 128.6385800 119.0129290 126.8179660 137.0729540 105.8893260 142.1699930
 136.9594990 106.2087870 143.0651450 137.8899280 106.2905770 141.8737210
 139.8528030 123.0364790 141.6518620 140.6453350 122.5414020 141.4444580
 140.1461180 123.7154930 142.2594230 135.9787690 113.9085730 112.5334670
 135.8981740 112.9940340 112.2626380 135.5652110 114.4052800 111.8274380
 134.1105730 115.6864750 114.4143940 133.3347830 115.2065190 114.7042510
 134.7618660 115.0070400 114.2400100 128.1271560 115.9984560 115.2919700
 127.2956440 115.7433270 115.6916210 128.7352540 116.0695330 116.0277620
 138.1313160 120.0924940 113.1943070 137.6694690 119.3212180 113.5230240
 138.9438710 120.1191010 113.6995520 128.1072820 120.0324650 115.4877720
 128.4100860 119.1422390 115.3087940 128.8516410 120.5894870 115.2599970
 126.5363510 110.9586450 109.0762090 125.6480210 111.3002420 108.9741970
 126.8204700 110.7586770 108.1842920 124.4996520 113.5592100 114.9601790
 125.0712630 112.7914300 114.9605430 124.4998060 113.8580860 114.0508400
 134.3576470 122.3782950 112.8147060 133.7387910 122.8340450 112.2441500
 135.2128250 122.5334410 112.4136760 133.5514720 118.3621940 114.4214100
 133.4823000 117.4211880 114.2603230 134.3134580 118.4523350 114.9936670
 125.7421390 108.9676460 116.7470720 125.5624230 108.0702210 117.0273480
 125.3401470 109.5148330 117.4217670 134.5819890 111.1692320 114.6483030
 134.9584710 110.2964200 114.5356700 134.4839400 111.5051020 113.7573470
 128.7124900 109.5417950 110.1100470 128.8191650 110.4421680 110.4169230
 127.8017260 109.4935920 109.8195120 138.3644010 108.6642760 111.5811370
 139.1853630 108.1739330 111.6236850 138.3978090 109.2540420 112.3343210
 126.3608060 111.4636960 115.3553060 127.0418170 111.7275330 115.9740460
 126.0456110 110.6237830 115.6891070 130.5532630 112.5104320 114.4425650
 131.0610850 113.0085290 115.0830670 131.0845870 111.7339520 114.2665010
 142.6543560 110.6809510 118.1455000 141.9495730 111.0691220 117.6270110
 142.9201480 111.3759800 118.7475930 128.8368730 107.1502880 118.7089070
 128.8387170 107.6675270 117.9034970 128.0073040 106.6733060 118.6859000
 135.2239820 117.2622190 110.2078970 134.6057090 117.7271640 109.6441690
 135.7363070 117.9549670 110.6248480 130.0871580 116.7898060 116.8862570
 129.7540960 117.4166980 117.5283640 130.2638260 117.3159940 116.1064240
 138.6005490 110.6043140 114.3538910 137.8961060 110.8928030 114.9342020
 138.9617650 111.4143250 113.9938470 128.5184060 108.8612840 116.7159520
 128.8600870 109.7054890 116.4213390 127.5799870 109.0096580 116.8324860
 129.2990680 118.7578860 118.7011750 129.9164680 119.4329940 118.4196200
 128.4383800 119.1666840 118.6099250 124.5923020 117.9478720 107.5818600
 124.2151000 118.4365820 106.8503500 124.8496090 118.6204000 108.2125130
 140.2168270 120.2218270 116.6166390 139.5331790 120.8917380 116.6083060
 140.7562560 120.4198920 115.8511250 141.6692410 110.0497930 114.7448120
 140.7217320 110.0836910 114.8763550 141.9942400 110.8636880 115.1297480
 132.2011950 106.3495110 113.0404110 132.5086930 105.7942000 112.3239610
 131.2712650 106.4839570 112.8577100 137.7527010 122.0662400 115.3311570
 137.7654170 121.6624690 114.4633830 137.2002230 122.8409690 115.2273000
 139.0472430 118.7878620 110.4201740 138.9368760 117.8452950 110.5451160
 139.0440680 119.1494260 111.3064500 137.1512450 116.9692240 116.6594180
 137.5681240 116.7552350 115.8247640 137.8752270 117.2265030 117.2302800
 134.5892710 114.4143940 109.7764230 133.6621990 114.3481320 110.0052700
 134.7417530 115.3524070 109.6619470 134.5761790 110.6860940 106.7731390
 133.6365460 110.8474900 106.8583850 134.8945050 111.4046620 106.2267380
 141.0974550 115.3679460 116.7510420 140.2693180 115.4372550 116.2760550
 141.6925030 115.9533770 116.2826250 138.6190000 115.9764240 110.2799480
 138.0002420 115.6383790 109.6325780 138.6014450 115.3324000 110.9878670
 138.0616560 112.1548780 117.6965290 137.6487740 112.9802490 117.9505280
 137.3292510 111.5693820 117.5041650 130.1949350 114.9408680 112.5583960
 129.7906350 114.2285930 112.0629860 130.2812470 114.5961920 113.4472000
 130.6631050 118.6276240 114.7223170 130.3659340 118.0221710 114.0430950
 131.6130870 118.6653550 114.6112530 128.9077970 111.7151890 116.3383000
 129.4592560 111.8247230 115.5636250 129.4221480 112.0889490 117.0538230
 138.7516660 122.2008110 118.3846270 138.2747220 123.0080300 118.1918880
 138.0678450 121.5486440 118.5372480 129.7549480 118.3657930 121.3730970
 128.8578010 118.5897900 121.6204370 129.7802350 118.4892870 120.4242370
 136.7954700 115.2151050 107.2872230 137.2347980 114.3773480 107.1410050
 137.5083120 115.8480450 107.3736370 128.5820700 115.2371250 119.9488340
 128.4428470 116.1094050 120.3175740 127.7002060 114.8944060 119.8036280
 134.9050080 120.1547120 111.2553470 135.3445990 120.8971450 110.8408860
 134.8436970 120.3973690 112.1792430 130.3801050 121.1792950 122.1573490
 130.3516480 121.5835900 121.2901920 130.2166020 120.2503310 121.9945090
 140.3771840 106.4693860 105.6013270 140.0644500 106.5620690 106.5012340
 141.1384310 107.0474890 105.5510700 126.8953980 113.8353660 110.0590610
 126.7751580 114.5615750 109.4471880 126.5854870 113.0656570 109.5818520
 142.3315870 121.9620050 123.4537660 142.8075590 122.4402940 124.1326740
 142.9523030 121.8937540 122.7283160 124.5339350 117.0068800 115.8659250
 124.6119770 117.1417570 114.9214970 125.1481030 116.2984690 116.0587370
 125.7786980 118.7068990 112.2765430 125.3715060 118.8483580 111.4219030
 126.6699990 118.4229150 112.0736640 141.7349120 119.1532900 120.6137670
 141.8612180 118.9144780 119.6954850 141.7770500 118.3217440 121.0859750
 135.5965860 122.8560900 119.1832480 136.1110530 122.7668910 119.9854910
 134.7534940 123.2020600 119.4760390 137.5720260 123.1416240 108.6116480
 137.4121400 122.8519180 109.5098310 137.4066970 122.3656370 108.0761710
 130.0508640 122.9214770 110.3888100 129.8751120 122.0050310 110.1755900
 129.1964380 123.2802060 110.6285900 137.2746390 120.6503800 107.1714480
 136.5811550 120.6481090 106.5116760 138.0169250 120.2263120 106.7408650
 136.8396320 122.2766510 111.2462970 137.2953270 121.4955890 111.5601590
 137.1788840 122.9873330 111.7904150 141.5873130 111.2065360 121.5787410
 140.9717400 111.7145030 121.0502870 141.2669550 110.3063690 121.5213350
 124.5898870 118.0482970 118.4053710 124.7529910 117.5788330 117.5873080
 125.0551320 117.5406530 119.0702550 129.3617640 107.1788730 113.4414280
 128.9185790 107.9598270 113.1098800 129.9202630 107.5018620 114.1485220
 133.6487450 110.0457250 119.0449600 133.1866820 110.2540270 119.8569540
 133.2465560 109.2316600 118.7420270 138.6491960 111.2666200 120.1746260
 137.7985550 110.9671950 120.4955330 138.4893750 111.5108210 119.2630080
 135.7441670 112.7667950 122.2745050 136.0695080 111.9331700 121.9347280
 136.5322000 113.2896470 122.4223380 132.4776460 106.7999430 108.3220110
 131.8530640 106.7959300 109.0473420 132.3906580 105.9330390 107.9256080
 131.3993540 107.7236060 115.3003880 131.6965870 108.6298890 115.2195900
 131.9479100 107.2354840 114.6863450 129.1531860 112.3022300 111.1695530
 128.9272780 112.0859470 112.0742150 128.3724390 112.7350760 110.8241500
 136.3829620 112.3085670 109.7686180 135.7838510 113.0321470 109.5849800
 136.9309230 112.2462450 108.9862630 131.5931070 113.2007880 121.8355800
 131.4974670 112.2602610 121.6856200 132.4363050 113.4222950 121.4403870
 134.9894490 110.9449210 111.7989460 135.3824060 111.2621410 110.9858150
 135.3511340 110.0661090 111.9133980 126.7241610 109.6121550 119.9889580
 126.3305000 110.4596760 120.1962360 126.0360010 108.9747920 120.1798220
 133.2986660 109.6956520 123.0586320 132.6084980 109.5028720 123.6932410
 134.0418960 109.9791160 123.5910620 124.0258660 107.5350010 114.0219660
 123.7371710 108.1052870 114.7344640 124.7704420 107.0554460 114.3850890
 124.2128890 111.4770130 105.2322380 124.1303560 112.4200890 105.3737370
 123.8611950 111.3345040 104.3534730 135.5749630 113.5354960 115.8940240
 134.8430750 114.0441770 116.2430340 135.1773970 112.7184940 115.5929020
 132.0127020 110.2109160 114.2992730 132.0163080 109.7699110 113.4497270
 132.9078140 110.5326490 114.4064550 127.8629400 110.0935650 113.2586940
 127.5229450 110.5710880 114.0153990 127.1006720 109.6400770 112.8988040
 132.0747170 111.2121240 107.2899490 132.1959990 111.1707720 108.2385310
 131.6895680 112.0745390 107.1346220 136.0375540 108.9888640 115.3063180
 136.0548280 109.4397290 116.1505030 135.7891120 108.0894280 115.5196620
 131.0868670 113.5222380 106.6882790 130.5185570 113.0740630 106.0618700
 131.7957670 113.8815160 106.1547940 139.4646290 106.4020820 121.1449560
 139.7892060 105.6710480 121.6707540 139.5002800 106.0834460 120.2430550
 126.1637850 117.4234400 120.5649520 125.7792640 116.7828070 121.1632480
 126.4750040 118.1270520 121.1344250 132.3134990 114.2710940 116.0458140
 132.6805120 113.7969510 116.7919480 132.1240050 115.1452510 116.3866480
 125.1775480 109.0154630 112.1751610 124.8922400 108.6510300 113.0130230
 125.1154340 108.2835090 111.5614750 130.1034360 113.3119580 118.3642350
 129.7991430 114.1911560 118.5892710 131.0580820 113.3719370 118.3999790
 128.6316150 117.5180570 108.9609200 127.8578410 116.9778190 108.8007920
 129.3610780 116.9987180 108.6226960 139.3904130 116.5145930 114.7535590
 140.1103250 117.0101220 114.3631700 139.1885950 115.8363820 114.1089460
 134.8514070 107.9083890 108.8964980 134.0378680 107.4097060 108.8210290
 134.6576020 108.7482140 108.4801330 134.7722930 116.5854990 120.6404590
 134.7060240 115.6650660 120.3862180 134.1428070 116.6830430 121.3549230
 137.5662460 112.2803540 107.1927140 138.4542080 112.5920770 107.0178480
 137.5367550 111.4075790 106.8007720 128.6753550 117.1860950 112.5988010
 129.1932220 116.3829210 112.5444900 128.2237570 117.1240090 113.4404840
 133.5623050 118.4527230 107.8715310 133.9038750 119.1969460 107.3758630
 132.7335760 118.7658350 108.2340140 126.1598090 114.1522320 119.5113710
 125.8013030 114.8176170 120.0987050 125.8652650 113.3205870 119.8826330
 129.3611210 114.6106560 122.3953260 129.0611350 114.7563740 121.4981080
 130.1322450 114.0511850 122.3026650 134.7039660 119.4075560 120.3908390
 134.7184200 118.4756520 120.1727300 133.9964760 119.4935320 121.0298160
 139.8376730 113.5915380 106.6607000 139.7540450 114.0229600 105.8103440
 140.5570920 114.0513730 107.0933820 140.9150870 116.0482900 119.7376970
 140.1899060 116.6411680 119.5406360 141.4426330 116.0406440 118.9390340
 140.8663980 120.4457640 109.3889130 140.2240140 119.7913260 109.6632850
 140.4794640 120.8512730 108.6129800 136.4450460 117.7743070 113.2360820
 136.7974280 117.1771200 112.5762190 135.5612790 117.4487300 113.4069070
 132.5313740 118.5340760 110.6431230 133.2184870 119.0809970 111.0238820
 131.7446160 119.0781490 110.6780840 124.6706140 114.1513580 106.1348310
 125.5400990 114.4338380 106.4184230 124.1796460 114.9649450 106.0197120
 131.8340950 115.5386790 110.2556590 132.2903730 116.3492040 110.4816780
 131.4829160 115.2209930 111.0875080 134.1373560 121.0493130 117.4848890
 134.7815780 121.2552510 118.1622310 134.5003000 120.2881530 117.0319740
 127.7352730 105.8824440 110.7279110 127.6067360 105.8742340 111.6764030
 126.9114750 106.2207530 110.3770120 135.4105640 119.0525480 116.2026340
 136.0527870 118.3518640 116.3158510 135.9354990 119.8323920 116.0223230
 139.2561360 119.3374100 105.9265480 139.0298940 118.6204540 106.5190120
 138.8657560 119.0886540 105.0887230 137.1843260 119.8520380 119.4062400
 137.5199500 120.4387070 120.0840320 136.2643600 119.7213090 119.6360190
 125.0377390 123.3640960 106.7009940 125.3975030 123.9630300 106.0467210
 124.8969730 123.9100850 107.4744970 124.7346660 107.6415560 120.1885810
 124.0205180 107.8412480 120.7938420 125.1541700 106.8655130 120.5600610
 138.8377610 117.2546040 107.5879640 138.5499310 117.7158730 108.3757520
 139.6329780 116.7943810 107.8563860 125.0219250 121.6295820 121.1752340
 125.1310370 120.6890560 121.0347730 124.3699810 121.8950570 120.5266070
 133.0131840 119.9011710 122.5750460 132.6928710 119.1820950 123.1196150
 132.3390200 120.5766780 122.6486520 131.0546010 120.7472160 107.5183610
 131.0456110 121.4801850 106.9028120 130.1344370 120.5003740 107.6110570
 126.6552650 115.9687050 108.2630370 126.0480600 116.7085950 108.2725670
 127.1302000 116.0586410 107.4368570 136.2285440 110.1337870 117.9387260
 136.5966260 109.3133080 118.2666830 135.3683640 110.1939760 118.3542910
 139.5947470 109.0894810 108.7474820 138.9660630 109.1940480 108.0333050
 139.0999390 109.3091590 109.5368700 134.0405610 120.8100400 106.1808800
 134.1417590 120.6064390 105.2510780 133.1407350 120.5558680 106.3856580
 131.5631500 111.3680760 110.1632700 130.8547650 111.8367100 110.6046310
 131.8475980 110.7102770 110.7977890 133.1887430 112.7877460 118.1625230
 133.6872680 113.2623280 118.8277080 133.3310380 111.8640980 118.3695260
 135.5946930 108.0931420 111.6028490 135.4714710 108.1117550 110.6538000
 136.5431490 108.1410360 111.7226890 132.6823720 123.3286720 110.8756470
 132.9365220 123.2908110 109.9535840 131.7336200 123.2020050 110.8684720
 129.7666520 109.6765840 107.5383410 130.6157050 110.1135990 107.4723600
 129.3997790 109.9886100 108.3655470 140.3954290 109.0045420 119.0053620
 139.8927890 109.7450820 119.3447430 141.2110950 109.3929420 118.6890410
 138.6876300 114.2478600 112.4514980 137.7466440 114.2628830 112.6262670
 139.0020370 113.4614560 112.8975280 128.6657940 115.9298200 106.0118940
 129.4321210 115.8179560 106.5744370 128.7432630 115.2336170 105.3595710
 127.3604700 113.3623270 106.6951830 127.4408290 112.4150780 106.8069230
 128.2524450 113.6930150 106.8012490 140.6901880 121.4187450 114.1269240
 140.8149300 122.2418620 114.5993050 141.5567440 121.2078180 113.7793390
 128.1619410 123.5118660 113.7986370 128.8981890 122.9634120 114.0694940
 128.5460330 124.3774670 113.6592360 125.0464890 119.5792230 109.6727880
 124.1204670 119.8213370 109.6633290 125.5121320 120.4066490 109.5512630
 127.1677690 122.6964730 122.9871950 127.9690420 123.0176780 123.4007350
 126.6529510 122.3360310 123.7091860 131.2721720 122.6848970 105.6211940
 132.0650330 122.9737800 105.1693730 130.7526070 122.2541140 104.9424420
 136.0042320 118.8044600 122.9347360 135.3980480 118.8276200 122.1943110
 135.6996430 118.0727640 123.4714610 137.4342690 122.5324890 121.5456770
 138.3864440 122.4482910 121.4957010 137.2870910 123.1966600 122.2190560
 140.3251890 121.9119100 107.0448680 140.0393400 121.4984240 106.2302860
 140.1271440 122.8406810 106.9249200 124.8875500 115.1838190 121.9308000
 125.3914520 114.6045470 122.5024230 124.1482920 115.4678420 122.4684370
 131.7899120 117.9052380 105.4854290 131.6849760 117.2904730 106.2115670
 131.6223340 117.3818270 104.7017300 131.9413440 116.5909180 121.4643520
 131.1759110 117.1594180 121.3798190 132.1229400 116.2985390 120.5711750
 135.0301850 116.9672410 106.0896280 134.4811950 117.4141710 106.7339020
 135.6521110 116.4621660 106.6133950 139.0836790 118.3214510 122.0218540
 139.8246260 118.6590270 121.5186000 138.3209470 118.4906570 121.4688310
 126.9198580 113.3267780 122.8258070 126.9603920 113.0281650 123.7343300
 127.7744080 113.7275390 122.6665590 130.6976970 115.9263330 107.9861580
 131.1193390 115.7603200 108.8292970 130.8227810 115.1163560 107.4916720
 128.8604390 111.9059880 120.7932560 128.3300850 111.4150830 120.1655900
 129.5292460 112.3344080 120.2590490 133.2104610 114.9500940 105.2338680
 133.7310270 114.2349960 104.8679830 133.8573010 115.5886810 105.5339190
 137.7582450 116.3729340 120.5573750 138.1723470 116.5274420 121.4064170
 136.8233450 116.4984560 120.7199530 138.2304620 113.7125500 122.5612900
 138.8125390 112.9577820 122.4733380 138.4066390 114.2432940 121.7844380
 129.3476690 108.8722250 120.8729850 129.2533560 108.2543000 120.1480720
 128.7674080 109.5988540 120.6459760 132.1138130 107.4295490 117.9057240
 131.6655430 107.4519750 117.0602790 131.4803330 107.0314510 118.5027540
 132.5197680 116.3249820 118.5269680 132.9385790 117.1682550 118.3545920
 131.6006310 116.4621860 118.2976460 134.8561580 114.0566000 119.9107520
 134.9757790 113.4607140 120.6502360 135.7155580 114.0935690 119.4908820
 137.1949480 114.6103190 118.4870030 136.6684700 115.1345810 117.8835170
 137.5380820 115.2430580 119.1179760 129.5935870 111.9996560 104.9319740
 129.3924930 111.1363920 105.2933080 129.4227920 111.9129920 103.9941340
 130.3705100 122.6302830 119.6427410 129.8326190 123.3548890 119.3236110
 130.6239060 122.1533170 118.8524750 131.6230350 110.5987350 121.1683340
 132.2130040 110.2903200 121.8561160 130.8050590 110.1267100 121.3243240
 136.4423780 110.2153160 121.4016360 135.7539300 109.5534700 121.3366350
 137.1629800 109.7691430 121.8464820 137.0724180 106.8104790 107.4606620
 137.3526470 105.9672690 107.8166040 136.2989910 107.0427900 107.9745370
 128.3918670 109.0997180 104.9197620 128.6944570 109.1064610 104.0116770
 129.1313260 108.7495040 105.4165280 133.2267310 123.8654040 119.9014060
 133.1526010 124.7689180 120.2086430 132.3246150 123.5465940 119.8736130
 131.6103600 108.0431800 105.9053820 131.2625600 107.3655790 105.3256270
 131.8116370 107.5821310 106.7197210 133.7752640 123.0312550 107.5240420
 134.6703430 123.3697520 107.5459180 133.8070270 122.3091960 106.8964700
 127.4148800 118.4039600 105.7527420 127.8523670 118.9469270 106.4085000
 127.8996530 117.5786550 105.7623760 124.6294600 121.1928630 113.2047680
 124.9597610 120.3249690 112.9726320 125.0585600 121.3987150 114.0352640
 129.2256520 119.5237640 110.8649650 128.9252060 119.4002610 111.7653560
 129.1194010 118.6646230 110.4565380 125.1184810 122.0599220 115.9429310
 124.6815800 122.2400020 116.7753460 125.6862490 122.8173840 115.8011030
 140.7546990 121.5616220 120.2306620 140.1548980 121.6208780 119.4870540
 140.8840890 120.6221200 120.3603470 141.9948440 119.3034040 105.5676330
 141.1641400 119.3710690 106.0383560 142.1720270 120.1938160 105.2643190
 141.4504900 116.0481520 108.0710530 142.2123810 116.6178170 108.1770220
 141.4659270 115.4808720 108.8418840 124.9509240 114.5719450 112.3018190
 124.2958080 114.3031090 111.6577890 125.7887190 114.4623930 111.8520170
 142.4564870 116.9031620 112.9152460 142.8273700 116.1198940 112.5088430
 143.0966800 117.5920720 112.7369760 139.4398630 118.2868200 118.3282780
 138.6258470 118.7165360 118.5908570 139.8472830 118.8986610 117.7151830
 141.5024070 116.3415890 105.2283050 141.7772910 117.2494770 105.1002270
 141.3134810 116.2778420 106.1645040 137.8999680 109.3660740 106.5236680
 138.3184560 109.1791720 105.6833340 137.5935740 108.5139790 106.8339610
 141.3989410 114.2784880 110.2212480 141.0233010 113.5112810 109.7893770
 140.6692530 114.6607580 110.7087410 125.9885170 114.9572020 116.8421530
 126.3558210 114.8699420 117.7217550 125.4195990 114.1938570 116.7428390
 140.7889030 113.4256400 119.8552000 140.5575120 113.1969150 118.9549950
 141.0493580 114.3455950 119.8096890 125.5401170 111.8681110 120.7479950
 124.6457220 111.8347870 121.0873660 126.0798720 112.0667900 121.5131200
 139.2277100 108.6512830 122.6331700 140.1047280 108.6596230 123.0165700
 139.2397940 107.9143670 122.0224050 124.1647320 111.7818380 108.2443520
 123.2611400 112.0448580 108.0695180 124.6487940 112.0529550 107.4643480
 140.6740370 112.5042370 113.5219720 141.1977850 112.0105020 112.8909890
 141.2599790 112.6392730 114.2667290 140.8530090 112.5882240 117.0439270
 139.9032800 112.5545780 117.1584260 141.0343100 113.4982350 116.8089040
 126.7074530 110.8383920 106.1537900 127.4166230 110.4167140 105.6685180
 125.9914470 110.9059150 105.5221250 126.3548690 106.8923250 105.1940550
 127.0776820 107.4332190 105.5121770 126.6273210 106.6186670 104.3182090
 140.1640340 111.7615720 109.4612130 140.6599460 111.5286590 110.2461010
 139.9656410 110.9227560 109.0449770 126.0440880 106.1429440 115.0963170
 126.6917070 105.5926820 114.6558330 126.4642720 106.3972590 115.9178980
 141.5927500 110.3976670 111.9949810 141.4826780 110.2432710 112.9332080
 142.3535090 109.8697610 111.7525220 139.9393220 106.3370800 118.4532810
 140.5765440 106.9504940 118.8192000 140.0868110 106.3731460 117.5082040
 142.4817770 108.2284590 105.2355950 143.4067080 108.0965770 105.0274240
 142.4593560 108.3077410 106.1892400 142.5556260 108.9995250 107.8612660
 141.7607760 108.9340370 108.3905570 142.7599540 109.9345890 107.8498010
 139.4974680 123.0386800 111.8551050 140.0933750 122.7171370 111.1785470
 139.7552830 122.5658620 112.6464320 125.7972880 106.2985110 117.8388490
 125.4487700 106.7548930 118.6046670 125.4660580 105.4042240 117.9210920
 127.4037250 119.4704710 122.0041680 127.3606880 119.0997620 122.8856140
 127.5348260 120.4082280 122.1443500 131.1043280 121.0264300 117.6051400
 130.8634640 121.2938860 116.7181920 132.0445920 121.1970030 117.6602260
 133.3097700 107.4896990 121.3607910 133.2486590 108.0818820 122.1103320
 134.2498080 107.3822950 121.2158170 135.9472260 107.1467050 121.0000200
 136.5612670 107.4646340 120.3381280 136.4921820 106.6615640 121.6196060
 142.3647440 123.0458680 118.4062040 141.8705720 123.4427550 117.6889170
 141.7560730 122.4207890 118.7999320 126.4693520 105.8261310 121.1139260
 127.0176510 105.6449360 120.3505370 126.5348830 105.0355420 121.6495570
 127.2425280 122.4166960 119.1239460 126.6485600 122.2851660 119.8629500
 127.2349120 121.5805100 118.6581560 136.6880300 105.7099190 117.3269490
 135.8140140 106.0434300 117.1242420 136.5791050 105.2372370 118.1521360
 137.5952280 107.9170060 118.7111210 137.2665640 107.1021820 118.3312940
 138.5434580 107.8739870 118.5876900 140.0486890 123.6882100 115.6848780
 139.5889860 124.4397910 115.3106800 139.4199350 122.9688570 115.6263580
 126.8737510 119.7825340 118.0747500 126.1471570 119.1630630 118.0073450
 126.9346660 120.1765950 117.2045580 130.4782610 121.9970340 114.8596910
 130.9947630 121.3857700 114.3345170 131.1279990 122.4999120 115.3507920
 133.2178110 122.8878830 115.6865890 133.5055920 122.6333130 114.8098900
 133.7301330 122.3356190 116.2771460 134.4355120 106.6269030 116.2662400
 133.6526910 107.1014530 116.5459160 134.1418050 105.7223860 116.1575580
 138.9876190 107.3292130 114.3111490 139.4284280 107.2737230 113.4633090
 138.7183780 108.2450140 114.3821670 140.8514760 106.9607370 112.3220310
 140.7903160 106.0168590 112.1751330 141.6306790 107.0687460 112.8673770
 125.1567510 123.0999730 111.2844260 124.9889550 122.4670410 111.9826150
 124.2902020 123.3059130 110.9338450 125.7795530 106.9316510 108.7876120
 126.5374890 107.0445390 108.2140150 125.3172700 107.7685710 108.7419550
 132.3209340 109.0455780 111.7778430 131.5083850 108.6712670 111.4374310
 132.8250980 108.2900860 112.0799620 136.8234320 105.7098230 113.0161500
 137.4263690 106.2818440 113.4910020 136.0827310 106.2737670 112.7935400
 139.9668920 106.1119790 108.2901780 140.1619550 107.0103240 108.5569210
 139.1798790 105.8806870 108.7834730 126.7630210 121.7932960 108.7294400
 126.2377830 122.1740990 108.0256360 126.6874790 122.4183730 109.4504110
 128.1520680 107.4580560 107.3278090 128.6813440 106.6710360 107.1986040
 128.7849000 108.1371750 107.5613620 130.3458520 107.1955700 110.3823480
 129.7161260 106.4943010 110.5493610 129.8063660 107.9559830 110.1656640
 133.2850470 123.8094930 123.0534090 134.2117780 123.5739200 123.0970050
 133.2700900 124.6366930 122.5720120 141.5195530 123.3520500 110.0508340
 141.6947720 122.6658240 109.4069260 140.8217100 123.8767550 109.6585010
 130.4714080 106.4739680 122.8175970 130.1898350 106.9773280 122.0536790
 130.8533780 105.6761430 122.4518100 129.3623180 123.7415340 107.6043650
 130.0942000 123.4574620 107.0567540 129.6216850 123.5028620 108.4943030
 128.5237970 119.8580070 107.6089980 127.8946850 120.3265170 108.1575810
 128.6385800 119.0129290 108.0436170 137.0729540 105.8893260 123.3956440
 136.9594990 106.2087870 124.2907960 137.8899280 106.2905770 123.0993720
 139.8528030 123.0364790 122.8775130 140.6453350 122.5414020 122.6701090
 140.1461180 123.7154930 123.4850740 135.9787690 113.9085730  93.7591180
 135.8981740 112.9940340  93.4882890 135.5652110 114.4052800  93.0530890
 134.1105730 115.6864750  95.6400450 133.3347830 115.2065190  95.9299020
 134.7618660 115.0070400  95.4656610 128.1271560 115.9984560  96.5176210
 127.2956440 115.7433270  96.9172720 128.7352540 116.0695330  97.2534130
 138.1313160 120.0924940  94.4199580 137.6694690 119.3212180  94.7486750
 138.9438710 120.1191010  94.9252030 128.1072820 120.0324650  96.7134230
 128.4100860 119.1422390  96.5344450 128.8516410 120.5894870  96.4856480
 126.5363510 110.9586450  90.3018600 125.6480210 111.3002420  90.1998480
 126.8204700 110.7586770  89.4099430 124.4996520 113.5592100  96.1858300
 125.0712630 112.7914300  96.1861940 124.4998060 113.8580860  95.2764910
 134.3576470 122.3782950  94.0403570 133.7387910 122.8340450  93.4698010
 135.2128250 122.5334410  93.6393270 133.5514720 118.3621940  95.6470610
 133.4823000 117.4211880  95.4859740 134.3134580 118.4523350  96.2193180
 125.7421390 108.9676460  97.9727230 125.5624230 108.0702210  98.2529990
 125.3401470 109.5148330  98.6474180 134.5819890 111.1692320  95.8739540
 134.9584710 110.2964200  95.7613210 134.4839400 111.5051020  94.9829980
 128.7124900 109.5417950  91.3356980 128.8191650 110.4421680  91.6425740
 127.8017260 109.4935920  91.0451630 138.3644010 108.6642760  92.8067880
 139.1853630 108.1739330  92.8493360 138.3978090 109.2540420  93.5599720
 126.3608060 111.4636960  96.5809570 127.0418170 111.7275330  97.1996970
 126.0456110 110.6237830  96.9147580 130.5532630 112.5104320  95.6682160
 131.0610850 113.0085290  96.3087180 131.0845870 111.7339520  95.4921520
 142.6543560 110.6809510  99.3711510 141.9495730 111.0691220  98.8526620
 142.9201480 111.3759800  99.9732440 128.8368730 107.1502880  99.9345580
 128.8387170 107.6675270  99.1291480 128.0073040 106.6733060  99.9115510
 135.2239820 117.2622190  91.4335480 134.6057090 117.7271640  90.8698200
 135.7363070 117.9549670  91.8504990 130.0871580 116.7898060  98.1119080
 129.7540960 117.4166980  98.7540150 130.2638260 117.3159940  97.3320750
 138.6005490 110.6043140  95.5795420 137.8961060 110.8928030  96.1598530
 138.9617650 111.4143250  95.2194980 128.5184060 108.8612840  97.9416030
 128.8600870 109.7054890  97.6469900 127.5799870 109.0096580  98.0581370
 129.2990680 118.7578860  99.9268260 129.9164680 119.4329940  99.6452710
 128.4383800 119.1666840  99.8355760 140.2168270 120.2218270  97.8422900
 139.5331790 120.8917380  97.8339570 140.7562560 120.4198920  97.0767760
 141.6692410 110.0497930  95.9704630 140.7217320 110.0836910  96.1020060
 141.9942400 110.8636880  96.3553990 132.2011950 106.3495110  94.2660620
 132.5086930 105.7942000  93.5496120 131.2712650 106.4839570  94.0833610
 137.7527010 122.0662400  96.5568080 137.7654170 121.6624690  95.6890340
 137.2002230 122.8409690  96.4529510 139.0472430 118.7878620  91.6458250
 138.9368760 117.8452950  91.7707670 139.0440680 119.1494260  92.5321010
 137.1512450 116.9692240  97.8850690 137.5681240 116.7552350  97.0504150
 137.8752270 117.2265030  98.4559310 134.5892710 114.4143940  91.0020740
 133.6621990 114.3481320  91.2309210 134.7417530 115.3524070  90.8875980
 134.5761790 110.6860940  87.9987900 133.6365460 110.8474900  88.0840360
 134.8945050 111.4046620  87.4523890 141.0974550 115.3679460  97.9766930
 140.2693180 115.4372550  97.5017060 141.6925030 115.9533770  97.5082760
 138.6190000 115.9764240  91.5055990 138.0002420 115.6383790  90.8582290
 138.6014450 115.3324000  92.2135180 138.0616560 112.1548780  98.9221800
 137.6487740 112.9802490  99.1761790 137.3292510 111.5693820  98.7298160
 130.1949350 114.9408680  93.7840470 129.7906350 114.2285930  93.2886370
 130.2812470 114.5961920  94.6728510 130.6631050 118.6276240  95.9479680
 130.3659340 118.0221710  95.2687460 131.6130870 118.6653550  95.8369040
 128.9077970 111.7151890  97.5639510 129.4592560 111.8247230  96.7892760
 129.4221480 112.0889490  98.2794740 138.7516660 122.2008110  99.6102780
 138.2747220 123.0080300  99.4175390 138.0678450 121.5486440  99.7628990
 129.7549480 118.3657930 102.5987480 128.8578010 118.5897900 102.8460880
 129.7802350 118.4892870 101.6498880 136.7954700 115.2151050  88.5128740
 137.2347980 114.3773480  88.3666560 137.5083120 115.8480450  88.5992880
 128.5820700 115.2371250 101.1744850 128.4428470 116.1094050 101.5432250
 127.7002060 114.8944060 101.0292790 134.9050080 120.1547120  92.4809980
 135.3445990 120.8971450  92.0665370 134.8436970 120.3973690  93.4048940
 130.3801050 121.1792950 103.3830000 130.3516480 121.5835900 102.5158430
 130.2166020 120.2503310 103.2201600 140.3771840 106.4693860  86.8269780
 140.0644500 106.5620690  87.7268850 141.1384310 107.0474890  86.7767210
 126.8953980 113.8353660  91.2847120 126.7751580 114.5615750  90.6728390
 126.5854870 113.0656570  90.8075030 142.3315870 121.9620050 104.6794170
 142.8075590 122.4402940 105.3583250 142.9523030 121.8937540 103.9539670
 141.7349120 119.1532900 101.8394180 141.8612180 118.9144780 100.9211360
 141.7770500 118.3217440 102.3116260 135.5965860 122.8560900 100.4088990
 136.1110530 122.7668910 101.2111420 134.7534940 123.2020600 100.7016900
 137.5720260 123.1416240  89.8372990 137.4121400 122.8519180  90.7354820
 137.4066970 122.3656370  89.3018220 130.0508640 122.9214770  91.6144610
 129.8751120 122.0050310  91.4012410 129.1964380 123.2802060  91.8542410
 137.2746390 120.6503800  88.3970990 136.5811550 120.6481090  87.7373270
 138.0169250 120.2263120  87.9665160 136.8396320 122.2766510  92.4719480
 137.2953270 121.4955890  92.7858100 137.1788840 122.9873330  93.0160660
 141.5873130 111.2065360 102.8043920 140.9717400 111.7145030 102.2759380
 141.2669550 110.3063690 102.7469860 124.5898870 118.0482970  99.6310220
 124.7529910 117.5788330  98.8129590 125.0551320 117.5406530 100.2959060
 129.3617640 107.1788730  94.6670790 128.9185790 107.9598270  94.3355310
 129.9202630 107.5018620  95.3741730 133.6487450 110.0457250 100.2706110
 133.1866820 110.2540270 101.0826050 133.2465560 109.2316600  99.9676780
 138.6491960 111.2666200 101.4002770 137.7985550 110.9671950 101.7211840
 138.4893750 111.5108210 100.4886590 135.7441670 112.7667950 103.5001560
 136.0695080 111.9331700 103.1603790 136.5322000 113.2896470 103.6479890
 132.4776460 106.7999430  89.5476620 131.8530640 106.7959300  90.2729930
 132.3906580 105.9330390  89.1512590 131.3993540 107.7236060  96.5260390
 131.6965870 108.6298890  96.4452410 131.9479100 107.2354840  95.9119960
 129.1531860 112.3022300  92.3952040 128.9272780 112.0859470  93.2998660
 128.3724390 112.7350760  92.0498010 136.3829620 112.3085670  90.9942690
 135.7838510 113.0321470  90.8106310 136.9309230 112.2462450  90.2119140
 131.5931070 113.2007880 103.0612310 131.4974670 112.2602610 102.9112710
 132.4363050 113.4222950 102.6660380 134.9894490 110.9449210  93.0245970
 135.3824060 111.2621410  92.2114660 135.3511340 110.0661090  93.1390490
 126.7241610 109.6121550 101.2146090 126.3305000 110.4596760 101.4218870
 126.0360010 108.9747920 101.4054730 133.2986660 109.6956520 104.2842830
 132.6084980 109.5028720 104.9188920 134.0418960 109.9791160 104.8167130
 124.0258660 107.5350010  95.2476170 123.7371710 108.1052870  95.9601150
 124.7704420 107.0554460  95.6107400 124.2128890 111.4770130  86.4578890
 124.1303560 112.4200890  86.5993880 123.8611950 111.3345040  85.5791240
 135.5749630 113.5354960  97.1196750 134.8430750 114.0441770  97.4686850
 135.1773970 112.7184940  96.8185530 132.0127020 110.2109160  95.5249240
 132.0163080 109.7699110  94.6753780 132.9078140 110.5326490  95.6321060
 127.8629400 110.0935650  94.4843450 127.5229450 110.5710880  95.2410500
 127.1006720 109.6400770  94.1244550 132.0747170 111.2121240  88.5156000
 132.1959990 111.1707720  89.4641820 131.6895680 112.0745390  88.3602730
 136.0375540 108.9888640  96.5319690 136.0548280 109.4397290  97.3761540
 135.7891120 108.0894280  96.7453130 131.0868670 113.5222380  87.9139300
 130.5185570 113.0740630  87.2875210 131.7957670 113.8815160  87.3804450
 139.4646290 106.4020820 102.3706070 139.7892060 105.6710480 102.8964050
 139.5002800 106.0834460 101.4687060 126.1637850 117.4234400 101.7906030
 125.7792640 116.7828070 102.3888990 126.4750040 118.1270520 102.3600760
 132.3134990 114.2710940  97.2714650 132.6805120 113.7969510  98.0175990
 132.1240050 115.1452510  97.6122990 125.1775480 109.0154630  93.4008120
 124.8922400 108.6510300  94.2386740 125.1154340 108.2835090  92.7871260
 130.1034360 113.3119580  99.5898860 129.7991430 114.1911560  99.8149220
 131.0580820 113.3719370  99.6256300 128.6316150 117.5180570  90.1865710
 127.8578410 116.9778190  90.0264430 129.3610780 116.9987180  89.8483470
 139.3904130 116.5145930  95.9792100 140.1103250 117.0101220  95.5888210
 139.1885950 115.8363820  95.3345970 134.8514070 107.9083890  90.1221490
 134.0378680 107.4097060  90.0466800 134.6576020 108.7482140  89.7057840
 134.7722930 116.5854990 101.8661100 134.7060240 115.6650660 101.6118690
 134.1428070 116.6830430 102.5805740 137.5662460 112.2803540  88.4183650
 138.4542080 112.5920770  88.2434990 137.5367550 111.4075790  88.0264230
 128.6753550 117.1860950  93.8244520 129.1932220 116.3829210  93.7701410
 128.2237570 117.1240090  94.6661350 133.5623050 118.4527230  89.0971820
 133.9038750 119.1969460  88.6015140 132.7335760 118.7658350  89.4596650
 126.1598090 114.1522320 100.7370220 125.8013030 114.8176170 101.3243560
 125.8652650 113.3205870 101.1082840 129.3611210 114.6106560 103.6209770
 129.0611350 114.7563740 102.7237590 130.1322450 114.0511850 103.5283160
 134.7039660 119.4075560 101.6164900 134.7184200 118.4756520 101.3983810
 133.9964760 119.4935320 102.2554670 139.8376730 113.5915380  87.8863510
 139.7540450 114.0229600  87.0359950 140.5570920 114.0513730  88.3190330
 140.9150870 116.0482900 100.9633480 140.1899060 116.6411680 100.7662870
 141.4426330 116.0406440 100.1646850 140.8663980 120.4457640  90.6145640
 140.2240140 119.7913260  90.8889360 140.4794640 120.8512730  89.8386310
 136.4450460 117.7743070  94.4617330 136.7974280 117.1771200  93.8018700
 135.5612790 117.4487300  94.6325580 132.5313740 118.5340760  91.8687740
 133.2184870 119.0809970  92.2495330 131.7446160 119.0781490  91.9037350
 131.8340950 115.5386790  91.4813100 132.2903730 116.3492040  91.7073290
 131.4829160 115.2209930  92.3131590 134.1373560 121.0493130  98.7105400
 134.7815780 121.2552510  99.3878820 134.5003000 120.2881530  98.2576250
 127.7352730 105.8824440  91.9535620 127.6067360 105.8742340  92.9020540
 126.9114750 106.2207530  91.6026630 135.4105640 119.0525480  97.4282850
 136.0527870 118.3518640  97.5415020 135.9354990 119.8323920  97.2479740
 139.2561360 119.3374100  87.1521990 139.0298940 118.6204540  87.7446630
 138.8657560 119.0886540  86.3143740 137.1843260 119.8520380 100.6318910
 137.5199500 120.4387070 101.3096830 136.2643600 119.7213090 100.8616700
 125.0377390 123.3640960  87.9266450 125.3975030 123.9630300  87.2723720
 124.8969730 123.9100850  88.7001480 124.7346660 107.6415560 101.4142320
 124.0205180 107.8412480 102.0194930 125.1541700 106.8655130 101.7857120
 138.8377610 117.2546040  88.8136150 138.5499310 117.7158730  89.6014030
 139.6329780 116.7943810  89.0820370 125.0219250 121.6295820 102.4008850
 125.1310370 120.6890560 102.2604240 124.3699810 121.8950570 101.7522580
 133.0131840 119.9011710 103.8006970 132.6928710 119.1820950 104.3452660
 132.3390200 120.5766780 103.8743030 131.0546010 120.7472160  88.7440120
 131.0456110 121.4801850  88.1284630 130.1344370 120.5003740  88.8367080
 136.2285440 110.1337870  99.1643770 136.5966260 109.3133080  99.4923340
 135.3683640 110.1939760  99.5799420 139.5947470 109.0894810  89.9731330
 138.9660630 109.1940480  89.2589560 139.0999390 109.3091590  90.7625210
 134.0405610 120.8100400  87.4065310 134.1417590 120.6064390  86.4767290
 133.1407350 120.5558680  87.6113090 131.5631500 111.3680760  91.3889210
 130.8547650 111.8367100  91.8302820 131.8475980 110.7102770  92.0234400
 133.1887430 112.7877460  99.3881740 133.6872680 113.2623280 100.0533590
 133.3310380 111.8640980  99.5951770 135.5946930 108.0931420  92.8285000
 135.4714710 108.1117550  91.8794510 136.5431490 108.1410360  92.9483400
 132.6823720 123.3286720  92.1012980 132.9365220 123.2908110  91.1792350
 131.7336200 123.2020050  92.0941230 140.3954290 109.0045420 100.2310130
 139.8927890 109.7450820 100.5703940 141.2110950 109.3929420  99.9146920
 138.6876300 114.2478600  93.6771490 137.7466440 114.2628830  93.8519180
 139.0020370 113.4614560  94.1231790 128.6657940 115.9298200  87.2375450
 129.4321210 115.8179560  87.8000880 128.7432630 115.2336170  86.5852220
 127.3604700 113.3623270  87.9208340 127.4408290 112.4150780  88.0325740
 128.2524450 113.6930150  88.0269000 140.6901880 121.4187450  95.3525750
 140.8149300 122.2418620  95.8249560 141.5567440 121.2078180  95.0049900
 128.1619410 123.5118660  95.0242880 128.8981890 122.9634120  95.2951450
 128.5460330 124.3774670  94.8848870 127.1677690 122.6964730 104.2128460
 127.9690420 123.0176780 104.6263860 126.6529510 122.3360310 104.9348370
 131.2721720 122.6848970  86.8468450 132.0650330 122.9737800  86.3950240
 130.7526070 122.2541140  86.1680930 136.0042320 118.8044600 104.1603870
 135.3980480 118.8276200 103.4199620 135.6996430 118.0727640 104.6971120
 137.4342690 122.5324890 102.7713280 138.3864440 122.4482910 102.7213520
 137.2870910 123.1966600 103.4447070 140.3251890 121.9119100  88.2705190
 140.0393400 121.4984240  87.4559370 140.1271440 122.8406810  88.1505710
 124.8875500 115.1838190 103.1564510 125.3914520 114.6045470 103.7280740
 124.1482920 115.4678420 103.6940880 131.7899120 117.9052380  86.7110800
 131.6849760 117.2904730  87.4372180 131.6223340 117.3818270  85.9273810
 131.9413440 116.5909180 102.6900030 131.1759110 117.1594180 102.6054700
 132.1229400 116.2985390 101.7968260 135.0301850 116.9672410  87.3152790
 134.4811950 117.4141710  87.9595530 135.6521110 116.4621660  87.8390460
 139.0836790 118.3214510 103.2475050 139.8246260 118.6590270 102.7442510
 138.3209470 118.4906570 102.6944820 126.9198580 113.3267780 104.0514580
 126.9603920 113.0281650 104.9599810 127.7744080 113.7275390 103.8922100
 130.6976970 115.9263330  89.2118090 131.1193390 115.7603200  90.0549480
 130.8227810 115.1163560  88.7173230 128.8604390 111.9059880 102.0189070
 128.3300850 111.4150830 101.3912410 129.5292460 112.3344080 101.4847000
 133.2104610 114.9500940  86.4595190 133.7310270 114.2349960  86.0936340
 133.8573010 115.5886810  86.7595700 137.7582450 116.3729340 101.7830260
 138.1723470 116.5274420 102.6320680 136.8233450 116.4984560 101.9456040
 138.2304620 113.7125500 103.7869410 138.8125390 112.9577820 103.6989890
 138.4066390 114.2432940 103.0100890 129.3476690 108.8722250 102.0986360
 129.2533560 108.2543000 101.3737230 128.7674080 109.5988540 101.8716270
 132.1138130 107.4295490  99.1313750 131.6655430 107.4519750  98.2859300
 131.4803330 107.0314510  99.7284050 132.5197680 116.3249820  99.7526190
 132.9385790 117.1682550  99.5802430 131.6006310 116.4621860  99.5232970
 134.8561580 114.0566000 101.1364030 134.9757790 113.4607140 101.8758870
 135.7155580 114.0935690 100.7165330 137.1949480 114.6103190  99.7126540
 136.6684700 115.1345810  99.1091680 137.5380820 115.2430580 100.3436270
 130.3705100 122.6302830 100.8683920 129.8326190 123.3548890 100.5492620
 130.6239060 122.1533170 100.0781260 131.6230350 110.5987350 102.3939850
 132.2130040 110.2903200 103.0817670 130.8050590 110.1267100 102.5499750
 136.4423780 110.2153160 102.6272870 135.7539300 109.5534700 102.5622860
 137.1629800 109.7691430 103.0721330 137.0724180 106.8104790  88.6863130
 137.3526470 105.9672690  89.0422550 136.2989910 107.0427900  89.2001880
 133.2267310 123.8654040 101.1270570 133.1526010 124.7689180 101.4342940
 132.3246150 123.5465940 101.0992640 133.7752640 123.0312550  88.7496930
 134.6703430 123.3697520  88.7715690 133.8070270 122.3091960  88.1221210
 127.4148800 118.4039600  86.9783930 127.8523670 118.9469270  87.6341510
 127.8996530 117.5786550  86.9880270 129.2256520 119.5237640  92.0906160
 128.9252060 119.4002610  92.9910070 129.1194010 118.6646230  91.6821890
 125.1184810 122.0599220  97.1685820 124.6815800 122.2400020  98.0009970
 125.6862490 122.8173840  97.0267540 140.7546990 121.5616220 101.4563130
 140.1548980 121.6208780 100.7127050 140.8840890 120.6221200 101.5859980
 141.9948440 119.3034040  86.7932840 141.1641400 119.3710690  87.2640070
 142.1720270 120.1938160  86.4899700 141.4504900 116.0481520  89.2967040
 142.2123810 116.6178170  89.4026730 141.4659270 115.4808720  90.0675350
 124.9509240 114.5719450  93.5274700 124.2958080 114.3031090  92.8834400
 125.7887190 114.4623930  93.0776680 142.4564870 116.9031620  94.1408970
 142.8273700 116.1198940  93.7344940 143.0966800 117.5920720  93.9626270
 139.4398630 118.2868200  99.5539290 138.6258470 118.7165360  99.8165080
 139.8472830 118.8986610  98.9408340 141.5024070 116.3415890  86.4539560
 141.7772910 117.2494770  86.3258780 141.3134810 116.2778420  87.3901550
 137.8999680 109.3660740  87.7493190 138.3184560 109.1791720  86.9089850
 137.5935740 108.5139790  88.0596120 141.3989410 114.2784880  91.4468990
 141.0233010 113.5112810  91.0150280 140.6692530 114.6607580  91.9343920
 125.9885170 114.9572020  98.0678040 126.3558210 114.8699420  98.9474060
 125.4195990 114.1938570  97.9684900 140.7889030 113.4256400 101.0808510
 140.5575120 113.1969150 100.1806460 141.0493580 114.3455950 101.0353400
 125.5401170 111.8681110 101.9736460 124.6457220 111.8347870 102.3130170
 126.0798720 112.0667900 102.7387710 139.2277100 108.6512830 103.8588210
 140.1047280 108.6596230 104.2422210 139.2397940 107.9143670 103.2480560
 140.6740370 112.5042370  94.7476230 141.1977850 112.0105020  94.1166400
 141.2599790 112.6392730  95.4923800 140.8530090 112.5882240  98.2695780
 139.9032800 112.5545780  98.3840770 141.0343100 113.4982350  98.0345550
 126.3548690 106.8923250  86.4197060 127.0776820 107.4332190  86.7378280
 126.6273210 106.6186670  85.5438600 140.1640340 111.7615720  90.6868640
 140.6599460 111.5286590  91.4717520 139.9656410 110.9227560  90.2706280
 126.0440880 106.1429440  96.3219680 126.6917070 105.5926820  95.8814840
 126.4642720 106.3972590  97.1435490 141.5927500 110.3976670  93.2206320
 141.4826780 110.2432710  94.1588590 142.3535090 109.8697610  92.9781730
 139.9393220 106.3370800  99.6789320 140.5765440 106.9504940 100.0448510
 140.0868110 106.3731460  98.7338550 142.4817770 108.2284590  86.4612460
 143.4067080 108.0965770  86.2530750 142.4593560 108.3077410  87.4148910
 142.5556260 108.9995250  89.0869170 141.7607760 108.9340370  89.6162080
 142.7599540 109.9345890  89.0754520 139.4974680 123.0386800  93.0807560
 140.0933750 122.7171370  92.4041980 139.7552830 122.5658620  93.8720830
 125.7972880 106.2985110  99.0645000 125.4487700 106.7548930  99.8303180
 125.4660580 105.4042240  99.1467430 127.4037250 119.4704710 103.2298190
 127.3606880 119.0997620 104.1112650 127.5348260 120.4082280 103.3700010
 131.1043280 121.0264300  98.8307910 130.8634640 121.2938860  97.9438430
 132.0445920 121.1970030  98.8858770 133.3097700 107.4896990 102.5864420
 133.2486590 108.0818820 103.3359830 134.2498080 107.3822950 102.4414680
 135.9472260 107.1467050 102.2256710 136.5612670 107.4646340 101.5637790
 136.4921820 106.6615640 102.8452570 142.3647440 123.0458680  99.6318550
 141.8705720 123.4427550  98.9145680 141.7560730 122.4207890 100.0255830
 126.4693520 105.8261310 102.3395770 127.0176510 105.6449360 101.5761880
 126.5348830 105.0355420 102.8752080 127.2425280 122.4166960 100.3495970
 126.6485600 122.2851660 101.0886010 127.2349120 121.5805100  99.8838070
 136.6880300 105.7099190  98.5526000 135.8140140 106.0434300  98.3498930
 136.5791050 105.2372370  99.3777870 137.5952280 107.9170060  99.9367720
 137.2665640 107.1021820  99.5569450 138.5434580 107.8739870  99.8133410
 140.0486890 123.6882100  96.9105290 139.5889860 124.4397910  96.5363310
 139.4199350 122.9688570  96.8520090 126.8737510 119.7825340  99.3004010
 126.1471570 119.1630630  99.2329960 126.9346660 120.1765950  98.4302090
 130.4782610 121.9970340  96.0853420 130.9947630 121.3857700  95.5601680
 131.1279990 122.4999120  96.5764430 133.2178110 122.8878830  96.9122400
 133.5055920 122.6333130  96.0355410 133.7301330 122.3356190  97.5027970
 134.4355120 106.6269030  97.4918910 133.6526910 107.1014530  97.7715670
 134.1418050 105.7223860  97.3832090 138.9876190 107.3292130  95.5368000
 139.4284280 107.2737230  94.6889600 138.7183780 108.2450140  95.6078180
 140.8514760 106.9607370  93.5476820 140.7903160 106.0168590  93.4007840
 141.6306790 107.0687460  94.0930280 125.1567510 123.0999730  92.5100770
 124.9889550 122.4670410  93.2082660 124.2902020 123.3059130  92.1594960
 125.7795530 106.9316510  90.0132630 126.5374890 107.0445390  89.4396660
 125.3172700 107.7685710  89.9676060 132.3209340 109.0455780  93.0034940
 131.5083850 108.6712670  92.6630820 132.8250980 108.2900860  93.3056130
 136.8234320 105.7098230  94.2418010 137.4263690 106.2818440  94.7166530
 136.0827310 106.2737670  94.0191910 139.9668920 106.1119790  89.5158290
 140.1619550 107.0103240  89.7825720 139.1798790 105.8806870  90.0091240
 126.7630210 121.7932960  89.9550910 126.2377830 122.1740990  89.2512870
 126.6874790 122.4183730  90.6760620 128.1520680 107.4580560  88.5534600
 128.6813440 106.6710360  88.4242550 128.7849000 108.1371750  88.7870130
 130.3458520 107.1955700  91.6079990 129.7161260 106.4943010  91.7750120
 129.8063660 107.9559830  91.3913150 133.2850470 123.8094930 104.2790600
 134.2117780 123.5739200 104.3226560 133.2700900 124.6366930 103.7976630
 141.5195530 123.3520500  91.2764850 141.6947720 122.6658240  90.6325770
 140.8217100 123.8767550  90.8841520 130.4714080 106.4739680 104.0432480
 130.1898350 106.9773280 103.2793300 130.8533780 105.6761430 103.6774610
 129.3623180 123.7415340  88.8300160 130.0942000 123.4574620  88.2824050
 129.6216850 123.5028620  89.7199540 128.5237970 119.8580070  88.8346490
 127.8946850 120.3265170  89.3832320 128.6385800 119.0129290  89.2692680
 137.0729540 105.8893260 104.6212950 136.9594990 106.2087870 105.5164470
 137.8899280 106.2905770 104.3250230 139.8528030 123.0364790 104.1031640
 140.6453350 122.5414020 103.8957600 140.1461180 123.7154930 104.7107250
 135.9787690 113.9085730  74.9847690 135.8981740 112.9940340  74.7139400
 135.5652110 114.4052800  74.2787400 134.1105730 115.6864750  76.8656960
 133.3347830 115.2065190  77.1555530 134.7618660 115.0070400  76.6913120
 128.1271560 115.9984560  77.7432720 127.2956440 115.7433270  78.1429230
 128.7352540 116.0695330  78.4790640 138.1313160 120.0924940  75.6456090
 137.6694690 119.3212180  75.9743260 138.9438710 120.1191010  76.1508540
 128.1072820 120.0324650  77.9390740 128.4100860 119.1422390  77.7600960
 128.8516410 120.5894870  77.7112990 126.5363510 110.9586450  71.5275110
 125.6480210 111.3002420  71.4254990 126.8204700 110.7586770  70.6355940
 134.3576470 122.3782950  75.2660080 133.7387910 122.8340450  74.6954520
 135.2128250 122.5334410  74.8649780 133.5514720 118.3621940  76.8727120
 133.4823000 117.4211880  76.7116250 134.3134580 118.4523350  77.4449690
 134.5819890 111.1692320  77.0996050 134.9584710 110.2964200  76.9869720
 134.4839400 111.5051020  76.2086490 128.7124900 109.5417950  72.5613490
 128.8191650 110.4421680  72.8682250 127.8017260 109.4935920  72.2708140
 138.3644010 108.6642760  74.0324390 139.1853630 108.1739330  74.0749870
 138.3978090 109.2540420  74.7856230 142.6543560 110.6809510  80.5968020
 141.9495730 111.0691220  80.0783130 142.9201480 111.3759800  81.1988950
 135.2239820 117.2622190  72.6591990 134.6057090 117.7271640  72.0954710
 135.7363070 117.9549670  73.0761500 130.0871580 116.7898060  79.3375590
 129.7540960 117.4166980  79.9796660 130.2638260 117.3159940  78.5577260
 138.6005490 110.6043140  76.8051930 137.8961060 110.8928030  77.3855040
 138.9617650 111.4143250  76.4451490 129.2990680 118.7578860  81.1524770
 129.9164680 119.4329940  80.8709220 128.4383800 119.1666840  81.0612270
 124.5923020 117.9478720  70.0331620 124.2151000 118.4365820  69.3016520
 124.8496090 118.6204000  70.6638150 140.2168270 120.2218270  79.0679410
 139.5331790 120.8917380  79.0596080 140.7562560 120.4198920  78.3024270
 141.6692410 110.0497930  77.1961140 140.7217320 110.0836910  77.3276570
 141.9942400 110.8636880  77.5810500 132.2011950 106.3495110  75.4917130
 132.5086930 105.7942000  74.7752630 131.2712650 106.4839570  75.3090120
 137.7527010 122.0662400  77.7824590 137.7654170 121.6624690  76.9146850
 137.2002230 122.8409690  77.6786020 139.0472430 118.7878620  72.8714760
 138.9368760 117.8452950  72.9964180 139.0440680 119.1494260  73.7577520
 137.1512450 116.9692240  79.1107200 137.5681240 116.7552350  78.2760660
 137.8752270 117.2265030  79.6815820 134.5892710 114.4143940  72.2277250
 133.6621990 114.3481320  72.4565720 134.7417530 115.3524070  72.1132490
 134.5761790 110.6860940  69.2244410 133.6365460 110.8474900  69.3096870
 134.8945050 111.4046620  68.6780400 141.0974550 115.3679460  79.2023440
 140.2693180 115.4372550  78.7273570 141.6925030 115.9533770  78.7339270
 138.6190000 115.9764240  72.7312500 138.0002420 115.6383790  72.0838800
 138.6014450 115.3324000  73.4391690 138.0616560 112.1548780  80.1478310
 137.6487740 112.9802490  80.4018300 137.3292510 111.5693820  79.9554670
 130.1949350 114.9408680  75.0096980 129.7906350 114.2285930  74.5142880
 130.2812470 114.5961920  75.8985020 130.6631050 118.6276240  77.1736190
 130.3659340 118.0221710  76.4943970 131.6130870 118.6653550  77.0625550
 138.7516660 122.2008110  80.8359290 138.2747220 123.0080300  80.6431900
 138.0678450 121.5486440  80.9885500 129.7549480 118.3657930  83.8243990
 128.8578010 118.5897900  84.0717390 129.7802350 118.4892870  82.8755390
 136.7954700 115.2151050  69.7385250 137.2347980 114.3773480  69.5923070
 137.5083120 115.8480450  69.8249390 134.9050080 120.1547120  73.7066490
 135.3445990 120.8971450  73.2921880 134.8436970 120.3973690  74.6305450
 130.3801050 121.1792950  84.6086510 130.3516480 121.5835900  83.7414940
 130.2166020 120.2503310  84.4458110 140.3771840 106.4693860  68.0526290
 140.0644500 106.5620690  68.9525360 141.1384310 107.0474890  68.0023720
 126.8953980 113.8353660  72.5103630 126.7751580 114.5615750  71.8984900
 126.5854870 113.0656570  72.0331540 142.3315870 121.9620050  85.9050680
 142.8075590 122.4402940  86.5839760 142.9523030 121.8937540  85.1796180
 124.5339350 117.0068800  78.3172270 124.6119770 117.1417570  77.3727990
 125.1481030 116.2984690  78.5100390 125.7786980 118.7068990  74.7278450
 125.3715060 118.8483580  73.8732050 126.6699990 118.4229150  74.5249660
 141.7349120 119.1532900  83.0650690 141.8612180 118.9144780  82.1467870
 141.7770500 118.3217440  83.5372770 135.5965860 122.8560900  81.6345500
 136.1110530 122.7668910  82.4367930 134.7534940 123.2020600  81.9273410
 137.5720260 123.1416240  71.0629500 137.4121400 122.8519180  71.9611330
 137.4066970 122.3656370  70.5274730 130.0508640 122.9214770  72.8401120
 129.8751120 122.0050310  72.6268920 129.1964380 123.2802060  73.0798920
 137.2746390 120.6503800  69.6227500 136.5811550 120.6481090  68.9629780
 138.0169250 120.2263120  69.1921670 136.8396320 122.2766510  73.6975990
 137.2953270 121.4955890  74.0114610 137.1788840 122.9873330  74.2417170
 141.5873130 111.2065360  84.0300430 140.9717400 111.7145030  83.5015890
 141.2669550 110.3063690  83.9726370 124.5898870 118.0482970  80.8566730
 124.7529910 117.5788330  80.0386100 125.0551320 117.5406530  81.5215570
 129.3617640 107.1788730  75.8927300 128.9185790 107.9598270  75.5611820
 129.9202630 107.5018620  76.5998240 133.6487450 110.0457250  81.4962620
 133.1866820 110.2540270  82.3082560 133.2465560 109.2316600  81.1933290
 138.6491960 111.2666200  82.6259280 137.7985550 110.9671950  82.9468350
 138.4893750 111.5108210  81.7143100 135.7441670 112.7667950  84.7258070
 136.0695080 111.9331700  84.3860300 136.5322000 113.2896470  84.8736400
 132.4776460 106.7999430  70.7733130 131.8530640 106.7959300  71.4986440
 132.3906580 105.9330390  70.3769100 131.3993540 107.7236060  77.7516900
 131.6965870 108.6298890  77.6708920 131.9479100 107.2354840  77.1376470
 129.1531860 112.3022300  73.6208550 128.9272780 112.0859470  74.5255170
 128.3724390 112.7350760  73.2754520 136.3829620 112.3085670  72.2199200
 135.7838510 113.0321470  72.0362820 136.9309230 112.2462450  71.4375650
 131.5931070 113.2007880  84.2868820 131.4974670 112.2602610  84.1369220
 132.4363050 113.4222950  83.8916890 134.9894490 110.9449210  74.2502480
 135.3824060 111.2621410  73.4371170 135.3511340 110.0661090  74.3647000
 124.2128890 111.4770130  67.6835400 124.1303560 112.4200890  67.8250390
 123.8611950 111.3345040  66.8047750 135.5749630 113.5354960  78.3453260
 134.8430750 114.0441770  78.6943360 135.1773970 112.7184940  78.0442040
 132.0747170 111.2121240  69.7412510 132.1959990 111.1707720  70.6898330
 131.6895680 112.0745390  69.5859240 136.0375540 108.9888640  77.7576200
 136.0548280 109.4397290  78.6018050 135.7891120 108.0894280  77.9709640
 131.0868670 113.5222380  69.1395810 130.5185570 113.0740630  68.5131720
 131.7957670 113.8815160  68.6060960 139.4646290 106.4020820  83.5962580
 139.7892060 105.6710480  84.1220560 139.5002800 106.0834460  82.6943570
 126.1637850 117.4234400  83.0162540 125.7792640 116.7828070  83.6145500
 126.4750040 118.1270520  83.5857270 132.3134990 114.2710940  78.4971160
 132.6805120 113.7969510  79.2432500 132.1240050 115.1452510  78.8379500
 125.1775480 109.0154630  74.6264630 124.8922400 108.6510300  75.4643250
 125.1154340 108.2835090  74.0127770 128.6316150 117.5180570  71.4122220
 127.8578410 116.9778190  71.2520940 129.3610780 116.9987180  71.0739980
 139.3904130 116.5145930  77.2048610 140.1103250 117.0101220  76.8144720
 139.1885950 115.8363820  76.5602480 134.8514070 107.9083890  71.3478000
 134.0378680 107.4097060  71.2723310 134.6576020 108.7482140  70.9314350
 134.7722930 116.5854990  83.0917610 134.7060240 115.6650660  82.8375200
 134.1428070 116.6830430  83.8062250 137.5662460 112.2803540  69.6440160
 138.4542080 112.5920770  69.4691500 137.5367550 111.4075790  69.2520740
 128.6753550 117.1860950  75.0501030 129.1932220 116.3829210  74.9957920
 128.2237570 117.1240090  75.8917860 133.5623050 118.4527230  70.3228330
 133.9038750 119.1969460  69.8271650 132.7335760 118.7658350  70.6853160
 129.3611210 114.6106560  84.8466280 129.0611350 114.7563740  83.9494100
 130.1322450 114.0511850  84.7539670 134.7039660 119.4075560  82.8421410
 134.7184200 118.4756520  82.6240320 133.9964760 119.4935320  83.4811180
 139.8376730 113.5915380  69.1120020 139.7540450 114.0229600  68.2616460
 140.5570920 114.0513730  69.5446840 140.9150870 116.0482900  82.1889990
 140.1899060 116.6411680  81.9919380 141.4426330 116.0406440  81.3903360
 140.8663980 120.4457640  71.8402150 140.2240140 119.7913260  72.1145870
 140.4794640 120.8512730  71.0642820 136.4450460 117.7743070  75.6873840
 136.7974280 117.1771200  75.0275210 135.5612790 117.4487300  75.8582090
 132.5313740 118.5340760  73.0944250 133.2184870 119.0809970  73.4751840
 131.7446160 119.0781490  73.1293860 124.6706140 114.1513580  68.5861330
 125.5400990 114.4338380  68.8697250 124.1796460 114.9649450  68.4710140
 131.8340950 115.5386790  72.7069610 132.2903730 116.3492040  72.9329800
 131.4829160 115.2209930  73.5388100 134.1373560 121.0493130  79.9361910
 134.7815780 121.2552510  80.6135330 134.5003000 120.2881530  79.4832760
 127.7352730 105.8824440  73.1792130 127.6067360 105.8742340  74.1277050
 126.9114750 106.2207530  72.8283140 135.4105640 119.0525480  78.6539360
 136.0527870 118.3518640  78.7671530 135.9354990 119.8323920  78.4736250
 139.2561360 119.3374100  68.3778500 139.0298940 118.6204540  68.9703140
 138.8657560 119.0886540  67.5400250 137.1843260 119.8520380  81.8575420
 137.5199500 120.4387070  82.5353340 136.2643600 119.7213090  82.0873210
 125.0377390 123.3640960  69.1522960 125.3975030 123.9630300  68.4980230
 124.8969730 123.9100850  69.9257990 124.7346660 107.6415560  82.6398830
 124.0205180 107.8412480  83.2451440 125.1541700 106.8655130  83.0113630
 138.8377610 117.2546040  70.0392660 138.5499310 117.7158730  70.8270540
 139.6329780 116.7943810  70.3076880 125.0219250 121.6295820  83.6265360
 125.1310370 120.6890560  83.4860750 124.3699810 121.8950570  82.9779090
 133.0131840 119.9011710  85.0263480 132.6928710 119.1820950  85.5709170
 132.3390200 120.5766780  85.0999540 131.0546010 120.7472160  69.9696630
 131.0456110 121.4801850  69.3541140 130.1344370 120.5003740  70.0623590
 126.6552650 115.9687050  70.7143390 126.0480600 116.7085950  70.7238690
 127.1302000 116.0586410  69.8881590 136.2285440 110.1337870  80.3900280
 136.5966260 109.3133080  80.7179850 135.3683640 110.1939760  80.8055930
 139.5947470 109.0894810  71.1987840 138.9660630 109.1940480  70.4846070
 139.0999390 109.3091590  71.9881720 134.0405610 120.8100400  68.6321820
 134.1417590 120.6064390  67.7023800 133.1407350 120.5558680  68.8369600
 131.5631500 111.3680760  72.6145720 130.8547650 111.8367100  73.0559330
 131.8475980 110.7102770  73.2490910 133.1887430 112.7877460  80.6138250
 133.6872680 113.2623280  81.2790100 133.3310380 111.8640980  80.8208280
 135.5946930 108.0931420  74.0541510 135.4714710 108.1117550  73.1051020
 136.5431490 108.1410360  74.1739910 132.6823720 123.3286720  73.3269490
 132.9365220 123.2908110  72.4048860 131.7336200 123.2020050  73.3197740
 129.7666520 109.6765840  69.9896430 130.6157050 110.1135990  69.9236620
 129.3997790 109.9886100  70.8168490 140.3954290 109.0045420  81.4566640
 139.8927890 109.7450820  81.7960450 141.2110950 109.3929420  81.1403430
 138.6876300 114.2478600  74.9028000 137.7466440 114.2628830  75.0775690
 139.0020370 113.4614560  75.3488300 128.6657940 115.9298200  68.4631960
 129.4321210 115.8179560  69.0257390 128.7432630 115.2336170  67.8108730
 127.3604700 113.3623270  69.1464850 127.4408290 112.4150780  69.2582250
 128.2524450 113.6930150  69.2525510 140.6901880 121.4187450  76.5782260
 140.8149300 122.2418620  77.0506070 141.5567440 121.2078180  76.2306410
 128.1619410 123.5118660  76.2499390 128.8981890 122.9634120  76.5207960
 128.5460330 124.3774670  76.1105380 125.0464890 119.5792230  72.1240900
 124.1204670 119.8213370  72.1146310 125.5121320 120.4066490  72.0025650
 127.1677690 122.6964730  85.4384970 127.9690420 123.0176780  85.8520370
 126.6529510 122.3360310  86.1604880 131.2721720 122.6848970  68.0724960
 132.0650330 122.9737800  67.6206750 130.7526070 122.2541140  67.3937440
 136.0042320 118.8044600  85.3860380 135.3980480 118.8276200  84.6456130
 135.6996430 118.0727640  85.9227630 137.4342690 122.5324890  83.9969790
 138.3864440 122.4482910  83.9470030 137.2870910 123.1966600  84.6703580
 140.3251890 121.9119100  69.4961700 140.0393400 121.4984240  68.6815880
 140.1271440 122.8406810  69.3762220 124.8875500 115.1838190  84.3821020
 125.3914520 114.6045470  84.9537250 124.1482920 115.4678420  84.9197390
 131.7899120 117.9052380  67.9367310 131.6849760 117.2904730  68.6628690
 131.6223340 117.3818270  67.1530320 131.9413440 116.5909180  83.9156540
 131.1759110 117.1594180  83.8311210 132.1229400 116.2985390  83.0224770
 135.0301850 116.9672410  68.5409300 134.4811950 117.4141710  69.1852040
 135.6521110 116.4621660  69.0646970 139.0836790 118.3214510  84.4731560
 139.8246260 118.6590270  83.9699020 138.3209470 118.4906570  83.9201330
 130.6976970 115.9263330  70.4374600 131.1193390 115.7603200  71.2805990
 130.8227810 115.1163560  69.9429740 133.2104610 114.9500940  67.6851700
 133.7310270 114.2349960  67.3192850 133.8573010 115.5886810  67.9852210
 137.7582450 116.3729340  83.0086770 138.1723470 116.5274420  83.8577190
 136.8233450 116.4984560  83.1712550 138.2304620 113.7125500  85.0125920
 138.8125390 112.9577820  84.9246400 138.4066390 114.2432940  84.2357400
 132.5197680 116.3249820  80.9782700 132.9385790 117.1682550  80.8058940
 131.6006310 116.4621860  80.7489480 134.8561580 114.0566000  82.3620540
 134.9757790 113.4607140  83.1015380 135.7155580 114.0935690  81.9421840
 137.1949480 114.6103190  80.9383050 136.6684700 115.1345810  80.3348190
 137.5380820 115.2430580  81.5692780 129.5935870 111.9996560  67.3832760
 129.3924930 111.1363920  67.7446100 129.4227920 111.9129920  66.4454360
 130.3705100 122.6302830  82.0940430 129.8326190 123.3548890  81.7749130
 130.6239060 122.1533170  81.3037770 136.4423780 110.2153160  83.8529380
 135.7539300 109.5534700  83.7879370 137.1629800 109.7691430  84.2977840
 137.0724180 106.8104790  69.9119640 137.3526470 105.9672690  70.2679060
 136.2989910 107.0427900  70.4258390 128.3918670 109.0997180  67.3710640
 128.6944570 109.1064610  66.4629790 129.1313260 108.7495040  67.8678300
 133.2267310 123.8654040  82.3527080 133.1526010 124.7689180  82.6599450
 132.3246150 123.5465940  82.3249150 131.6103600 108.0431800  68.3566840
 131.2625600 107.3655790  67.7769290 131.8116370 107.5821310  69.1710230
 133.7752640 123.0312550  69.9753440 134.6703430 123.3697520  69.9972200
 133.8070270 122.3091960  69.3477720 127.4148800 118.4039600  68.2040440
 127.8523670 118.9469270  68.8598020 127.8996530 117.5786550  68.2136780
 124.6294600 121.1928630  75.6560700 124.9597610 120.3249690  75.4239340
 125.0585600 121.3987150  76.4865660 129.2256520 119.5237640  73.3162670
 128.9252060 119.4002610  74.2166580 129.1194010 118.6646230  72.9078400
 125.1184810 122.0599220  78.3942330 124.6815800 122.2400020  79.2266480
 125.6862490 122.8173840  78.2524050 140.7546990 121.5616220  82.6819640
 140.1548980 121.6208780  81.9383560 140.8840890 120.6221200  82.8116490
 141.9948440 119.3034040  68.0189350 141.1641400 119.3710690  68.4896580
 142.1720270 120.1938160  67.7156210 141.4504900 116.0481520  70.5223550
 142.2123810 116.6178170  70.6283240 141.4659270 115.4808720  71.2931860
 124.9509240 114.5719450  74.7531210 124.2958080 114.3031090  74.1090910
 125.7887190 114.4623930  74.3033190 142.4564870 116.9031620  75.3665480
 142.8273700 116.1198940  74.9601450 143.0966800 117.5920720  75.1882780
 139.4398630 118.2868200  80.7795800 138.6258470 118.7165360  81.0421590
 139.8472830 118.8986610  80.1664850 141.5024070 116.3415890  67.6796070
 141.7772910 117.2494770  67.5515290 141.3134810 116.2778420  68.6158060
 137.8999680 109.3660740  68.9749700 138.3184560 109.1791720  68.1346360
 137.5935740 108.5139790  69.2852630 141.3989410 114.2784880  72.6725500
 141.0233010 113.5112810  72.2406790 140.6692530 114.6607580  73.1600430
 140.7889030 113.4256400  82.3065020 140.5575120 113.1969150  81.4062970
 141.0493580 114.3455950  82.2609910 139.2277100 108.6512830  85.0844720
 140.1047280 108.6596230  85.4678720 139.2397940 107.9143670  84.4737070
 124.1647320 111.7818380  70.6956540 123.2611400 112.0448580  70.5208200
 124.6487940 112.0529550  69.9156500 140.6740370 112.5042370  75.9732740
 141.1977850 112.0105020  75.3422910 141.2599790 112.6392730  76.7180310
 140.8530090 112.5882240  79.4952290 139.9032800 112.5545780  79.6097280
 141.0343100 113.4982350  79.2602060 126.7074530 110.8383920  68.6050920
 127.4166230 110.4167140  68.1198200 125.9914470 110.9059150  67.9734270
 126.3548690 106.8923250  67.6453570 127.0776820 107.4332190  67.9634790
 126.6273210 106.6186670  66.7695110 140.1640340 111.7615720  71.9125150
 140.6599460 111.5286590  72.6974030 139.9656410 110.9227560  71.4962790
 141.5927500 110.3976670  74.4462830 141.4826780 110.2432710  75.3845100
 142.3535090 109.8697610  74.2038240 139.9393220 106.3370800  80.9045830
 140.5765440 106.9504940  81.2705020 140.0868110 106.3731460  79.9595060
 142.4817770 108.2284590  67.6868970 143.4067080 108.0965770  67.4787260
 142.4593560 108.3077410  68.6405420 142.5556260 108.9995250  70.3125680
 141.7607760 108.9340370  70.8418590 142.7599540 109.9345890  70.3011030
 139.4974680 123.0386800  74.3064070 140.0933750 122.7171370  73.6298490
 139.7552830 122.5658620  75.0977340 127.4037250 119.4704710  84.4554700
 127.3606880 119.0997620  85.3369160 127.5348260 120.4082280  84.5956520
 131.1043280 121.0264300  80.0564420 130.8634640 121.2938860  79.1694940
 132.0445920 121.1970030  80.1115280 135.9472260 107.1467050  83.4513220
 136.5612670 107.4646340  82.7894300 136.4921820 106.6615640  84.0709080
 142.3647440 123.0458680  80.8575060 141.8705720 123.4427550  80.1402190
 141.7560730 122.4207890  81.2512340 126.4693520 105.8261310  83.5652280
 127.0176510 105.6449360  82.8018390 126.5348830 105.0355420  84.1008590
 127.2425280 122.4166960  81.5752480 126.6485600 122.2851660  82.3142520
 127.2349120 121.5805100  81.1094580 136.6880300 105.7099190  79.7782510
 135.8140140 106.0434300  79.5755440 136.5791050 105.2372370  80.6034380
 137.5952280 107.9170060  81.1624230 137.2665640 107.1021820  80.7825960
 138.5434580 107.8739870  81.0389920 140.0486890 123.6882100  78.1361800
 139.5889860 124.4397910  77.7619820 139.4199350 122.9688570  78.0776600
 126.8737510 119.7825340  80.5260520 126.1471570 119.1630630  80.4586470
 126.9346660 120.1765950  79.6558600 130.4782610 121.9970340  77.3109930
 130.9947630 121.3857700  76.7858190 131.1279990 122.4999120  77.8020940
 133.2178110 122.8878830  78.1378910 133.5055920 122.6333130  77.2611920
 133.7301330 122.3356190  78.7284480 134.4355120 106.6269030  78.7175420
 133.6526910 107.1014530  78.9972180 134.1418050 105.7223860  78.6088600
 138.9876190 107.3292130  76.7624510 139.4284280 107.2737230  75.9146110
 138.7183780 108.2450140  76.8334690 140.8514760 106.9607370  74.7733330
 140.7903160 106.0168590  74.6264350 141.6306790 107.0687460  75.3186790
 125.1567510 123.0999730  73.7357280 124.9889550 122.4670410  74.4339170
 124.2902020 123.3059130  73.3851470 125.7795530 106.9316510  71.2389140
 126.5374890 107.0445390  70.6653170 125.3172700 107.7685710  71.1932570
 132.3209340 109.0455780  74.2291450 131.5083850 108.6712670  73.8887330
 132.8250980 108.2900860  74.5312640 136.8234320 105.7098230  75.4674520
 137.4263690 106.2818440  75.9423040 136.0827310 106.2737670  75.2448420
 139.9668920 106.1119790  70.7414800 140.1619550 107.0103240  71.0082230
 139.1798790 105.8806870  71.2347750 126.7630210 121.7932960  71.1807420
 126.2377830 122.1740990  70.4769380 126.6874790 122.4183730  71.9017130
 128.1520680 107.4580560  69.7791110 128.6813440 106.6710360  69.6499060
 128.7849000 108.1371750  70.0126640 130.3458520 107.1955700  72.8336500
 129.7161260 106.4943010  73.0006630 129.8063660 107.9559830  72.6169660
 133.2850470 123.8094930  85.5047110 134.2117780 123.5739200  85.5483070
 133.2700900 124.6366930  85.0233140 141.5195530 123.3520500  72.5021360
 141.6947720 122.6658240  71.8582280 140.8217100 123.8767550  72.1098030
 129.3623180 123.7415340  70.0556670 130.0942000 123.4574620  69.5080560
 129.6216850 123.5028620  70.9456050 128.5237970 119.8580070  70.0603000
 127.8946850 120.3265170  70.6088830 128.6385800 119.0129290  70.4949190
 137.0729540 105.8893260  85.8469460 136.9594990 106.2087870  86.7420980
 137.8899280 106.2905770  85.5506740 139.8528030 123.0364790  85.3288150
 140.6453350 122.5414020  85.1214110 140.1461180 123.7154930  85.9363760
 135.9787690 113.9085730  56.2104200 135.8981740 112.9940340  55.9395910
 135.5652110 114.4052800  55.5043910 134.1105730 115.6864750  58.0913470
 133.3347830 115.2065190  58.3812040 134.7618660 115.0070400  57.9169630
 128.1271560 115.9984560  58.9689230 127.2956440 115.7433270  59.3685740
 128.7352540 116.0695330  59.7047150 138.1313160 120.0924940  56.8712600
 137.6694690 119.3212180  57.1999770 138.9438710 120.1191010  57.3765050
 128.1072820 120.0324650  59.1647250 128.4100860 119.1422390  58.9857470
 128.8516410 120.5894870  58.9369500 126.5363510 110.9586450  52.7531620
 125.6480210 111.3002420  52.6511500 126.8204700 110.7586770  51.8612450
 134.3576470 122.3782950  56.4916590 133.7387910 122.8340450  55.9211030
 135.2128250 122.5334410  56.0906290 133.5514720 118.3621940  58.0983630
 133.4823000 117.4211880  57.9372760 134.3134580 118.4523350  58.6706200
 134.5819890 111.1692320  58.3252560 134.9584710 110.2964200  58.2126230
 134.4839400 111.5051020  57.4343000 128.7124900 109.5417950  53.7870000
 128.8191650 110.4421680  54.0938760 127.8017260 109.4935920  53.4964650
 138.3644010 108.6642760  55.2580900 139.1853630 108.1739330  55.3006380
 138.3978090 109.2540420  56.0112740 126.3608060 111.4636960  59.0322590
 127.0418170 111.7275330  59.6509990 126.0456110 110.6237830  59.3660600
 130.5532630 112.5104320  58.1195180 131.0610850 113.0085290  58.7600200
 131.0845870 111.7339520  57.9434540 142.6543560 110.6809510  61.8224530
 141.9495730 111.0691220  61.3039640 142.9201480 111.3759800  62.4245460
 128.8368730 107.1502880  62.3858600 128.8387170 107.6675270  61.5804500
 128.0073040 106.6733060  62.3628530 135.2239820 117.2622190  53.8848500
 134.6057090 117.7271640  53.3211220 135.7363070 117.9549670  54.3018010
 130.0871580 116.7898060  60.5632100 129.7540960 117.4166980  61.2053170
 130.2638260 117.3159940  59.7833770 138.6005490 110.6043140  58.0308440
 137.8961060 110.8928030  58.6111550 138.9617650 111.4143250  57.6708000
 128.5184060 108.8612840  60.3929050 128.8600870 109.7054890  60.0982920
 127.5799870 109.0096580  60.5094390 129.2990680 118.7578860  62.3781280
 129.9164680 119.4329940  62.0965730 128.4383800 119.1666840  62.2868780
 124.5923020 117.9478720  51.2588130 124.2151000 118.4365820  50.5273030
 124.8496090 118.6204000  51.8894660 140.2168270 120.2218270  60.2935920
 139.5331790 120.8917380  60.2852590 140.7562560 120.4198920  59.5280780
 141.6692410 110.0497930  58.4217650 140.7217320 110.0836910  58.5533080
 141.9942400 110.8636880  58.8067010 132.2011950 106.3495110  56.7173640
 132.5086930 105.7942000  56.0009140 131.2712650 106.4839570  56.5346630
 137.7527010 122.0662400  59.0081100 137.7654170 121.6624690  58.1403360
 137.2002230 122.8409690  58.9042530 139.0472430 118.7878620  54.0971270
 138.9368760 117.8452950  54.2220690 139.0440680 119.1494260  54.9834030
 137.1512450 116.9692240  60.3363710 137.5681240 116.7552350  59.5017170
 137.8752270 117.2265030  60.9072330 134.5892710 114.4143940  53.4533760
 133.6621990 114.3481320  53.6822230 134.7417530 115.3524070  53.3389000
 134.5761790 110.6860940  50.4500920 133.6365460 110.8474900  50.5353380
 134.8945050 111.4046620  49.9036910 141.0974550 115.3679460  60.4279950
 140.2693180 115.4372550  59.9530080 141.6925030 115.9533770  59.9595780
 138.6190000 115.9764240  53.9569010 138.0002420 115.6383790  53.3095310
 138.6014450 115.3324000  54.6648200 138.0616560 112.1548780  61.3734820
 137.6487740 112.9802490  61.6274810 137.3292510 111.5693820  61.1811180
 130.1949350 114.9408680  56.2353490 129.7906350 114.2285930  55.7399390
 130.2812470 114.5961920  57.1241530 130.6631050 118.6276240  58.3992700
 130.3659340 118.0221710  57.7200480 131.6130870 118.6653550  58.2882060
 128.9077970 111.7151890  60.0152530 129.4592560 111.8247230  59.2405780
 129.4221480 112.0889490  60.7307760 138.7516660 122.2008110  62.0615800
 138.2747220 123.0080300  61.8688410 138.0678450 121.5486440  62.2142010
 129.7549480 118.3657930  65.0500500 128.8578010 118.5897900  65.2973900
 129.7802350 118.4892870  64.1011900 136.7954700 115.2151050  50.9641760
 137.2347980 114.3773480  50.8179580 137.5083120 115.8480450  51.0505900
 128.5820700 115.2371250  63.6257870 128.4428470 116.1094050  63.9945270
 127.7002060 114.8944060  63.4805810 134.9050080 120.1547120  54.9323000
 135.3445990 120.8971450  54.5178390 134.8436970 120.3973690  55.8561960
 130.3801050 121.1792950  65.8343020 130.3516480 121.5835900  64.9671450
 130.2166020 120.2503310  65.6714620 140.3771840 106.4693860  49.2782800
 140.0644500 106.5620690  50.1781870 141.1384310 107.0474890  49.2280230
 126.8953980 113.8353660  53.7360140 126.7751580 114.5615750  53.1241410
 126.5854870 113.0656570  53.2588050 142.3315870 121.9620050  67.1307190
 142.8075590 122.4402940  67.8096270 142.9523030 121.8937540  66.4052690
 124.5339350 117.0068800  59.5428780 124.6119770 117.1417570  58.5984500
 125.1481030 116.2984690  59.7356900 125.7786980 118.7068990  55.9534960
 125.3715060 118.8483580  55.0988560 126.6699990 118.4229150  55.7506170
 141.7349120 119.1532900  64.2907200 141.8612180 118.9144780  63.3724380
 141.7770500 118.3217440  64.7629280 135.5965860 122.8560900  62.8602010
 136.1110530 122.7668910  63.6624440 134.7534940 123.2020600  63.1529920
 137.5720260 123.1416240  52.2886010 137.4121400 122.8519180  53.1867840
 137.4066970 122.3656370  51.7531240 130.0508640 122.9214770  54.0657630
 129.8751120 122.0050310  53.8525430 129.1964380 123.2802060  54.3055430
 137.2746390 120.6503800  50.8484010 136.5811550 120.6481090  50.1886290
 138.0169250 120.2263120  50.4178180 136.8396320 122.2766510  54.9232500
 137.2953270 121.4955890  55.2371120 137.1788840 122.9873330  55.4673680
 141.5873130 111.2065360  65.2556940 140.9717400 111.7145030  64.7272400
 141.2669550 110.3063690  65.1982880 124.5898870 118.0482970  62.0823240
 124.7529910 117.5788330  61.2642610 125.0551320 117.5406530  62.7472080
 129.3617640 107.1788730  57.1183810 128.9185790 107.9598270  56.7868330
 129.9202630 107.5018620  57.8254750 133.6487450 110.0457250  62.7219130
 133.1866820 110.2540270  63.5339070 133.2465560 109.2316600  62.4189800
 138.6491960 111.2666200  63.8515790 137.7985550 110.9671950  64.1724860
 138.4893750 111.5108210  62.9399610 135.7441670 112.7667950  65.9514580
 136.0695080 111.9331700  65.6116810 136.5322000 113.2896470  66.0992910
 132.4776460 106.7999430  51.9989640 131.8530640 106.7959300  52.7242950
 132.3906580 105.9330390  51.6025610 131.3993540 107.7236060  58.9773410
 131.6965870 108.6298890  58.8965430 131.9479100 107.2354840  58.3632980
 129.1531860 112.3022300  54.8465060 128.9272780 112.0859470  55.7511680
 128.3724390 112.7350760  54.5011030 136.3829620 112.3085670  53.4455710
 135.7838510 113.0321470  53.2619330 136.9309230 112.2462450  52.6632160
 131.5931070 113.2007880  65.5125330 131.4974670 112.2602610  65.3625730
 132.4363050 113.4222950  65.1173400 134.9894490 110.9449210  55.4758990
 135.3824060 111.2621410  54.6627680 135.3511340 110.0661090  55.5903510
 126.7241610 109.6121550  63.6659110 126.3305000 110.4596760  63.8731890
 126.0360010 108.9747920  63.8567750 133.2986660 109.6956520  66.7355850
 132.6084980 109.5028720  67.3701940 134.0418960 109.9791160  67.2680150
 124.2128890 111.4770130  48.9091910 124.1303560 112.4200890  49.0506900
 123.8611950 111.3345040  48.0304260 135.5749630 113.5354960  59.5709770
 134.8430750 114.0441770  59.9199870 135.1773970 112.7184940  59.2698550
 132.0127020 110.2109160  57.9762260 132.0163080 109.7699110  57.1266800
 132.9078140 110.5326490  58.0834080 127.8629400 110.0935650  56.9356470
 127.5229450 110.5710880  57.6923520 127.1006720 109.6400770  56.5757570
 132.0747170 111.2121240  50.9669020 132.1959990 111.1707720  51.9154840
 131.6895680 112.0745390  50.8115750 136.0375540 108.9888640  58.9832710
 136.0548280 109.4397290  59.8274560 135.7891120 108.0894280  59.1966150
 131.0868670 113.5222380  50.3652320 130.5185570 113.0740630  49.7388230
 131.7957670 113.8815160  49.8317470 139.4646290 106.4020820  64.8219090
 139.7892060 105.6710480  65.3477070 139.5002800 106.0834460  63.9200080
 126.1637850 117.4234400  64.2419050 125.7792640 116.7828070  64.8402010
 126.4750040 118.1270520  64.8113780 132.3134990 114.2710940  59.7227670
 132.6805120 113.7969510  60.4689010 132.1240050 115.1452510  60.0636010
 125.1775480 109.0154630  55.8521140 124.8922400 108.6510300  56.6899760
 125.1154340 108.2835090  55.2384280 130.1034360 113.3119580  62.0411880
 129.7991430 114.1911560  62.2662240 131.0580820 113.3719370  62.0769320
 128.6316150 117.5180570  52.6378730 127.8578410 116.9778190  52.4777450
 129.3610780 116.9987180  52.2996490 139.3904130 116.5145930  58.4305120
 140.1103250 117.0101220  58.0401230 139.1885950 115.8363820  57.7858990
 134.8514070 107.9083890  52.5734510 134.0378680 107.4097060  52.4979820
 134.6576020 108.7482140  52.1570860 134.7722930 116.5854990  64.3174120
 134.7060240 115.6650660  64.0631710 134.1428070 116.6830430  65.0318760
 137.5662460 112.2803540  50.8696670 138.4542080 112.5920770  50.6948010
 137.5367550 111.4075790  50.4777250 128.6753550 117.1860950  56.2757540
 129.1932220 116.3829210  56.2214430 128.2237570 117.1240090  57.1174370
 133.5623050 118.4527230  51.5484840 133.9038750 119.1969460  51.0528160
 132.7335760 118.7658350  51.9109670 129.3611210 114.6106560  66.0722790
 129.0611350 114.7563740  65.1750610 130.1322450 114.0511850  65.9796180
 134.7039660 119.4075560  64.0677920 134.7184200 118.4756520  63.8496830
 133.9964760 119.4935320  64.7067690 139.8376730 113.5915380  50.3376530
 139.7540450 114.0229600  49.4872970 140.5570920 114.0513730  50.7703350
 140.9150870 116.0482900  63.4146500 140.1899060 116.6411680  63.2175890
 141.4426330 116.0406440  62.6159870 140.8663980 120.4457640  53.0658660
 140.2240140 119.7913260  53.3402380 140.4794640 120.8512730  52.2899330
 136.4450460 117.7743070  56.9130350 136.7974280 117.1771200  56.2531720
 135.5612790 117.4487300  57.0838600 132.5313740 118.5340760  54.3200760
 133.2184870 119.0809970  54.7008350 131.7446160 119.0781490  54.3550370
 124.6706140 114.1513580  49.8117840 125.5400990 114.4338380  50.0953760
 124.1796460 114.9649450  49.6966650 131.8340950 115.5386790  53.9326120
 132.2903730 116.3492040  54.1586310 131.4829160 115.2209930  54.7644610
 134.1373560 121.0493130  61.1618420 134.7815780 121.2552510  61.8391840
 134.5003000 120.2881530  60.7089270 135.4105640 119.0525480  59.8795870
 136.0527870 118.3518640  59.9928040 135.9354990 119.8323920  59.6992760
 139.2561360 119.3374100  49.6035010 139.0298940 118.6204540  50.1959650
 138.8657560 119.0886540  48.7656760 137.1843260 119.8520380  63.0831930
 137.5199500 120.4387070  63.7609850 136.2643600 119.7213090  63.3129720
 125.0377390 123.3640960  50.3779470 125.3975030 123.9630300  49.7236740
 124.8969730 123.9100850  51.1514500 124.7346660 107.6415560  63.8655340
 124.0205180 107.8412480  64.4707950 125.1541700 106.8655130  64.2370140
 138.8377610 117.2546040  51.2649170 138.5499310 117.7158730  52.0527050
 139.6329780 116.7943810  51.5333390 125.0219250 121.6295820  64.8521870
 125.1310370 120.6890560  64.7117260 124.3699810 121.8950570  64.2035600
 133.0131840 119.9011710  66.2519990 132.6928710 119.1820950  66.7965680
 132.3390200 120.5766780  66.3256050 131.0546010 120.7472160  51.1953140
 131.0456110 121.4801850  50.5797650 130.1344370 120.5003740  51.2880100
 126.6552650 115.9687050  51.9399900 126.0480600 116.7085950  51.9495200
 127.1302000 116.0586410  51.1138100 136.2285440 110.1337870  61.6156790
 136.5966260 109.3133080  61.9436360 135.3683640 110.1939760  62.0312440
 139.5947470 109.0894810  52.4244350 138.9660630 109.1940480  51.7102580
 139.0999390 109.3091590  53.2138230 134.0405610 120.8100400  49.8578330
 134.1417590 120.6064390  48.9280310 133.1407350 120.5558680  50.0626110
 131.5631500 111.3680760  53.8402230 130.8547650 111.8367100  54.2815840
 131.8475980 110.7102770  54.4747420 133.1887430 112.7877460  61.8394760
 133.6872680 113.2623280  62.5046610 133.3310380 111.8640980  62.0464790
 135.5946930 108.0931420  55.2798020 135.4714710 108.1117550  54.3307530
 136.5431490 108.1410360  55.3996420 132.6823720 123.3286720  54.5526000
 132.9365220 123.2908110  53.6305370 131.7336200 123.2020050  54.5454250
 129.7666520 109.6765840  51.2152940 130.6157050 110.1135990  51.1493130
 129.3997790 109.9886100  52.0425000 140.3954290 109.0045420  62.6823150
 139.8927890 109.7450820  63.0216960 141.2110950 109.3929420  62.3659940
 138.6876300 114.2478600  56.1284510 137.7466440 114.2628830  56.3032200
 139.0020370 113.4614560  56.5744810 128.6657940 115.9298200  49.6888470
 129.4321210 115.8179560  50.2513900 128.7432630 115.2336170  49.0365240
 127.3604700 113.3623270  50.3721360 127.4408290 112.4150780  50.4838760
 128.2524450 113.6930150  50.4782020 140.6901880 121.4187450  57.8038770
 140.8149300 122.2418620  58.2762580 141.5567440 121.2078180  57.4562920
 128.1619410 123.5118660  57.4755900 128.8981890 122.9634120  57.7464470
 128.5460330 124.3774670  57.3361890 125.0464890 119.5792230  53.3497410
 124.1204670 119.8213370  53.3402820 125.5121320 120.4066490  53.2282160
 127.1677690 122.6964730  66.6641480 127.9690420 123.0176780  67.0776880
 126.6529510 122.3360310  67.3861390 131.2721720 122.6848970  49.2981470
 132.0650330 122.9737800  48.8463260 130.7526070 122.2541140  48.6193950
 136.0042320 118.8044600  66.6116890 135.3980480 118.8276200  65.8712640
 135.6996430 118.0727640  67.1484140 137.4342690 122.5324890  65.2226300
 138.3864440 122.4482910  65.1726540 137.2870910 123.1966600  65.8960090
 140.3251890 121.9119100  50.7218210 140.0393400 121.4984240  49.9072390
 140.1271440 122.8406810  50.6018730 131.7899120 117.9052380  49.1623820
 131.6849760 117.2904730  49.8885200 131.6223340 117.3818270  48.3786830
 131.9413440 116.5909180  65.1413050 131.1759110 117.1594180  65.0567720
 132.1229400 116.2985390  64.2481280 135.0301850 116.9672410  49.7665810
 134.4811950 117.4141710  50.4108550 135.6521110 116.4621660  50.2903480
 139.0836790 118.3214510  65.6988070 139.8246260 118.6590270  65.1955530
 138.3209470 118.4906570  65.1457840 126.9198580 113.3267780  66.5027600
 126.9603920 113.0281650  67.4112830 127.7744080 113.7275390  66.3435120
 130.6976970 115.9263330  51.6631110 131.1193390 115.7603200  52.5062500
 130.8227810 115.1163560  51.1686250 128.8604390 111.9059880  64.4702090
 128.3300850 111.4150830  63.8425430 129.5292460 112.3344080  63.9360020
 133.2104610 114.9500940  48.9108210 133.7310270 114.2349960  48.5449360
 133.8573010 115.5886810  49.2108720 137.7582450 116.3729340  64.2343280
 138.1723470 116.5274420  65.0833700 136.8233450 116.4984560  64.3969060
 138.2304620 113.7125500  66.2382430 138.8125390 112.9577820  66.1502910
 138.4066390 114.2432940  65.4613910 129.3476690 108.8722250  64.5499380
 129.2533560 108.2543000  63.8250250 128.7674080 109.5988540  64.3229290
 132.1138130 107.4295490  61.5826770 131.6655430 107.4519750  60.7372320
 131.4803330 107.0314510  62.1797070 132.5197680 116.3249820  62.2039210
 132.9385790 117.1682550  62.0315450 131.6006310 116.4621860  61.9745990
 134.8561580 114.0566000  63.5877050 134.9757790 113.4607140  64.3271890
 135.7155580 114.0935690  63.1678350 137.1949480 114.6103190  62.1639560
 136.6684700 115.1345810  61.5604700 137.5380820 115.2430580  62.7949290
 129.5935870 111.9996560  48.6089270 129.3924930 111.1363920  48.9702610
 129.4227920 111.9129920  47.6710870 130.3705100 122.6302830  63.3196940
 129.8326190 123.3548890  63.0005640 130.6239060 122.1533170  62.5294280
 131.6230350 110.5987350  64.8452870 132.2130040 110.2903200  65.5330690
 130.8050590 110.1267100  65.0012770 136.4423780 110.2153160  65.0785890
 135.7539300 109.5534700  65.0135880 137.1629800 109.7691430  65.5234350
 137.0724180 106.8104790  51.1376150 137.3526470 105.9672690  51.4935570
 136.2989910 107.0427900  51.6514900 128.3918670 109.0997180  48.5967150
 128.6944570 109.1064610  47.6886300 129.1313260 108.7495040  49.0934810
 133.2267310 123.8654040  63.5783590 133.1526010 124.7689180  63.8855960
 132.3246150 123.5465940  63.5505660 131.6103600 108.0431800  49.5823350
 131.2625600 107.3655790  49.0025800 131.8116370 107.5821310  50.3966740
 133.7752640 123.0312550  51.2009950 134.6703430 123.3697520  51.2228710
 133.8070270 122.3091960  50.5734230 127.4148800 118.4039600  49.4296950
 127.8523670 118.9469270  50.0854530 127.8996530 117.5786550  49.4393290
 124.6294600 121.1928630  56.8817210 124.9597610 120.3249690  56.6495850
 125.0585600 121.3987150  57.7122170 129.2256520 119.5237640  54.5419180
 128.9252060 119.4002610  55.4423090 129.1194010 118.6646230  54.1334910
 125.1184810 122.0599220  59.6198840 124.6815800 122.2400020  60.4522990
 125.6862490 122.8173840  59.4780560 140.7546990 121.5616220  63.9076150
 140.1548980 121.6208780  63.1640070 140.8840890 120.6221200  64.0373000
 141.9948440 119.3034040  49.2445860 141.1641400 119.3710690  49.7153090
 142.1720270 120.1938160  48.9412720 141.4504900 116.0481520  51.7480060
 142.2123810 116.6178170  51.8539750 141.4659270 115.4808720  52.5188370
 124.9509240 114.5719450  55.9787720 124.2958080 114.3031090  55.3347420
 125.7887190 114.4623930  55.5289700 142.4564870 116.9031620  56.5921990
 142.8273700 116.1198940  56.1857960 143.0966800 117.5920720  56.4139290
 139.4398630 118.2868200  62.0052310 138.6258470 118.7165360  62.2678100
 139.8472830 118.8986610  61.3921360 141.5024070 116.3415890  48.9052580
 141.7772910 117.2494770  48.7771800 141.3134810 116.2778420  49.8414570
 137.8999680 109.3660740  50.2006210 138.3184560 109.1791720  49.3602870
 137.5935740 108.5139790  50.5109140 141.3989410 114.2784880  53.8982010
 141.0233010 113.5112810  53.4663300 140.6692530 114.6607580  54.3856940
 125.9885170 114.9572020  60.5191060 126.3558210 114.8699420  61.3987080
 125.4195990 114.1938570  60.4197920 140.7889030 113.4256400  63.5321530
 140.5575120 113.1969150  62.6319480 141.0493580 114.3455950  63.4866420
 125.5401170 111.8681110  64.4249480 124.6457220 111.8347870  64.7643190
 126.0798720 112.0667900  65.1900730 139.2277100 108.6512830  66.3101230
 140.1047280 108.6596230  66.6935230 139.2397940 107.9143670  65.6993580
 124.1647320 111.7818380  51.9213050 123.2611400 112.0448580  51.7464710
 124.6487940 112.0529550  51.1413010 140.6740370 112.5042370  57.1989250
 141.1977850 112.0105020  56.5679420 141.2599790 112.6392730  57.9436820
 140.8530090 112.5882240  60.7208800 139.9032800 112.5545780  60.8353790
 141.0343100 113.4982350  60.4858570 126.7074530 110.8383920  49.8307430
 127.4166230 110.4167140  49.3454710 125.9914470 110.9059150  49.1990780
 126.3548690 106.8923250  48.8710080 127.0776820 107.4332190  49.1891300
 126.6273210 106.6186670  47.9951620 140.1640340 111.7615720  53.1381660
 140.6599460 111.5286590  53.9230540 139.9656410 110.9227560  52.7219300
 126.0440880 106.1429440  58.7732700 126.6917070 105.5926820  58.3327860
 126.4642720 106.3972590  59.5948510 141.5927500 110.3976670  55.6719340
 141.4826780 110.2432710  56.6101610 142.3535090 109.8697610  55.4294750
 139.9393220 106.3370800  62.1302340 140.5765440 106.9504940  62.4961530
 140.0868110 106.3731460  61.1851570 142.4817770 108.2284590  48.9125480
 143.4067080 108.0965770  48.7043770 142.4593560 108.3077410  49.8661930
 142.5556260 108.9995250  51.5382190 141.7607760 108.9340370  52.0675100
 142.7599540 109.9345890  51.5267540 139.4974680 123.0386800  55.5320580
 140.0933750 122.7171370  54.8555000 139.7552830 122.5658620  56.3233850
 125.7972880 106.2985110  61.5158020 125.4487700 106.7548930  62.2816200
 125.4660580 105.4042240  61.5980450 127.4037250 119.4704710  65.6811210
 127.3606880 119.0997620  66.5625670 127.5348260 120.4082280  65.8213030
 131.1043280 121.0264300  61.2820930 130.8634640 121.2938860  60.3951450
 132.0445920 121.1970030  61.3371790 133.3097700 107.4896990  65.0377440
 133.2486590 108.0818820  65.7872850 134.2498080 107.3822950  64.8927700
 135.9472260 107.1467050  64.6769730 136.5612670 107.4646340  64.0150810
 136.4921820 106.6615640  65.2965590 142.3647440 123.0458680  62.0831570
 141.8705720 123.4427550  61.3658700 141.7560730 122.4207890  62.4768850
 126.4693520 105.8261310  64.7908790 127.0176510 105.6449360  64.0274900
 126.5348830 105.0355420  65.3265100 127.2425280 122.4166960  62.8008990
 126.6485600 122.2851660  63.5399030 127.2349120 121.5805100  62.3351090
 136.6880300 105.7099190  61.0039020 135.8140140 106.0434300  60.8011950
 136.5791050 105.2372370  61.8290890 137.5952280 107.9170060  62.3880740
 137.2665640 107.1021820  62.0082470 138.5434580 107.8739870  62.2646430
 140.0486890 123.6882100  59.3618310 139.5889860 124.4397910  58.9876330
 139.4199350 122.9688570  59.3033110 126.8737510 119.7825340  61.7517030
 126.1471570 119.1630630  61.6842980 126.9346660 120.1765950  60.8815110
 130.4782610 121.9970340  58.5366440 130.9947630 121.3857700  58.0114700
 131.1279990 122.4999120  59.0277450 133.2178110 122.8878830  59.3635420
 133.5055920 122.6333130  58.4868430 133.7301330 122.3356190  59.9540990
 134.4355120 106.6269030  59.9431930 133.6526910 107.1014530  60.2228690
 134.1418050 105.7223860  59.8345110 138.9876190 107.3292130  57.9881020
 139.4284280 107.2737230  57.1402620 138.7183780 108.2450140  58.0591200
 140.8514760 106.9607370  55.9989840 140.7903160 106.0168590  55.8520860
 141.6306790 107.0687460  56.5443300 125.1567510 123.0999730  54.9613790
 124.9889550 122.4670410  55.6595680 124.2902020 123.3059130  54.6107980
 125.7795530 106.9316510  52.4645650 126.5374890 107.0445390  51.8909680
 125.3172700 107.7685710  52.4189080 132.3209340 109.0455780  55.4547960
 131.5083850 108.6712670  55.1143840 132.8250980 108.2900860  55.7569150
 136.8234320 105.7098230  56.6931030 137.4263690 106.2818440  57.1679550
 136.0827310 106.2737670  56.4704930 139.9668920 106.1119790  51.9671310
 140.1619550 107.0103240  52.2338740 139.1798790 105.8806870  52.4604260
 126.7630210 121.7932960  52.4063930 126.2377830 122.1740990  51.7025890
 126.6874790 122.4183730  53.1273640 128.1520680 107.4580560  51.0047620
 128.6813440 106.6710360  50.8755570 128.7849000 108.1371750  51.2383150
 130.3458520 107.1955700  54.0593010 129.7161260 106.4943010  54.2263140
 129.8063660 107.9559830  53.8426170 133.2850470 123.8094930  66.7303620
 134.2117780 123.5739200  66.7739580 133.2700900 124.6366930  66.2489650
 141.5195530 123.3520500  53.7277870 141.6947720 122.6658240  53.0838790
 140.8217100 123.8767550  53.3354540 130.4714080 106.4739680  66.4945500
 130.1898350 106.9773280  65.7306320 130.8533780 105.6761430  66.1287630
 129.3623180 123.7415340  51.2813180 130.0942000 123.4574620  50.7337070
 129.6216850 123.5028620  52.1712560 128.5237970 119.8580070  51.2859510
 127.8946850 120.3265170  51.8345340 128.6385800 119.0129290  51.7205700
 137.0729540 105.8893260  67.0725970 136.9594990 106.2087870  67.9677490
 137.8899280 106.2905770  66.7763250 139.8528030 123.0364790  66.5544660
 140.6453350 122.5414020  66.3470620 140.1461180 123.7154930  67.1620270
 135.9787690 113.9085730  37.4360710 135.8981740 112.9940340  37.1652420
 135.5652110 114.4052800  36.7300420 134.1105730 115.6864750  39.3169980
 133.3347830 115.2065190  39.6068550 134.7618660 115.0070400  39.1426140
 128.1271560 115.9984560  40.1945740 127.2956440 115.7433270  40.5942250
 128.7352540 116.0695330  40.9303660 138.1313160 120.0924940  38.0969110
 137.6694690 119.3212180  38.4256280 138.9438710 120.1191010  38.6021560
 128.1072820 120.0324650  40.3903760 128.4100860 119.1422390  40.2113980
 128.8516410 120.5894870  40.1626010 126.5363510 110.9586450  33.9788130
 125.6480210 111.3002420  33.8768010 126.8204700 110.7586770  33.0868960
 124.4996520 113.5592100  39.8627830 125.0712630 112.7914300  39.8631470
 124.4998060 113.8580860  38.9534440 134.3576470 122.3782950  37.7173100
 133.7387910 122.8340450  37.1467540 135.2128250 122.5334410  37.3162800
 133.5514720 118.3621940  39.3240140 133.4823000 117.4211880  39.1629270
 134.3134580 118.4523350  39.8962710 125.7421390 108.9676460  41.6496760
 125.5624230 108.0702210  41.9299520 125.3401470 109.5148330  42.3243710
 134.5819890 111.1692320  39.5509070 134.9584710 110.2964200  39.4382740
 134.4839400 111.5051020  38.6599510 128.7124900 109.5417950  35.0126510
 128.8191650 110.4421680  35.3195270 127.8017260 109.4935920  34.7221160
 138.3644010 108.6642760  36.4837410 139.1853630 108.1739330  36.5262890
 138.3978090 109.2540420  37.2369250 126.3608060 111.4636960  40.2579100
 127.0418170 111.7275330  40.8766500 126.0456110 110.6237830  40.5917110
 130.5532630 112.5104320  39.3451690 131.0610850 113.0085290  39.9856710
 131.0845870 111.7339520  39.1691050 142.6543560 110.6809510  43.0481040
 141.9495730 111.0691220  42.5296150 142.9201480 111.3759800  43.6501970
 128.8368730 107.1502880  43.6115110 128.8387170 107.6675270  42.8061010
 128.0073040 106.6733060  43.5885040 135.2239820 117.2622190  35.1105010
 134.6057090 117.7271640  34.5467730 135.7363070 117.9549670  35.5274520
 130.0871580 116.7898060  41.7888610 129.7540960 117.4166980  42.4309680
 130.2638260 117.3159940  41.0090280 138.6005490 110.6043140  39.2564950
 137.8961060 110.8928030  39.8368060 138.9617650 111.4143250  38.8964510
 128.5184060 108.8612840  41.6185560 128.8600870 109.7054890  41.3239430
 127.5799870 109.0096580  41.7350900 129.2990680 118.7578860  43.6037790
 129.9164680 119.4329940  43.3222240 128.4383800 119.1666840  43.5125290
 124.5923020 117.9478720  32.4844640 124.2151000 118.4365820  31.7529540
 124.8496090 118.6204000  33.1151170 140.2168270 120.2218270  41.5192430
 139.5331790 120.8917380  41.5109100 140.7562560 120.4198920  40.7537290
 141.6692410 110.0497930  39.6474160 140.7217320 110.0836910  39.7789590
 141.9942400 110.8636880  40.0323520 132.2011950 106.3495110  37.9430150
 132.5086930 105.7942000  37.2265650 131.2712650 106.4839570  37.7603140
 137.7527010 122.0662400  40.2337610 137.7654170 121.6624690  39.3659870
 137.2002230 122.8409690  40.1299040 139.0472430 118.7878620  35.3227780
 138.9368760 117.8452950  35.4477200 139.0440680 119.1494260  36.2090540
 137.1512450 116.9692240  41.5620220 137.5681240 116.7552350  40.7273680
 137.8752270 117.2265030  42.1328840 134.5892710 114.4143940  34.6790270
 133.6621990 114.3481320  34.9078740 134.7417530 115.3524070  34.5645510
 134.5761790 110.6860940  31.6757430 133.6365460 110.8474900  31.7609890
 134.8945050 111.4046620  31.1293420 141.0974550 115.3679460  41.6536460
 140.2693180 115.4372550  41.1786590 141.6925030 115.9533770  41.1852290
 138.6190000 115.9764240  35.1825520 138.0002420 115.6383790  34.5351820
 138.6014450 115.3324000  35.8904710 138.0616560 112.1548780  42.5991330
 137.6487740 112.9802490  42.8531320 137.3292510 111.5693820  42.4067690
 130.1949350 114.9408680  37.4610000 129.7906350 114.2285930  36.9655900
 130.2812470 114.5961920  38.3498040 130.6631050 118.6276240  39.6249210
 130.3659340 118.0221710  38.9456990 131.6130870 118.6653550  39.5138570
 128.9077970 111.7151890  41.2409040 129.4592560 111.8247230  40.4662290
 129.4221480 112.0889490  41.9564270 138.7516660 122.2008110  43.2872310
 138.2747220 123.0080300  43.0944920 138.0678450 121.5486440  43.4398520
 129.7549480 118.3657930  46.2757010 128.8578010 118.5897900  46.5230410
 129.7802350 118.4892870  45.3268410 136.7954700 115.2151050  32.1898270
 137.2347980 114.3773480  32.0436090 137.5083120 115.8480450  32.2762410
 128.5820700 115.2371250  44.8514380 128.4428470 116.1094050  45.2201780
 127.7002060 114.8944060  44.7062320 134.9050080 120.1547120  36.1579510
 135.3445990 120.8971450  35.7434900 134.8436970 120.3973690  37.0818470
 130.3801050 121.1792950  47.0599530 130.3516480 121.5835900  46.1927960
 130.2166020 120.2503310  46.8971130 140.3771840 106.4693860  30.5039310
 140.0644500 106.5620690  31.4038380 141.1384310 107.0474890  30.4536740
 126.8953980 113.8353660  34.9616650 126.7751580 114.5615750  34.3497920
 126.5854870 113.0656570  34.4844560 142.3315870 121.9620050  48.3563700
 142.8075590 122.4402940  49.0352780 142.9523030 121.8937540  47.6309200
 124.5339350 117.0068800  40.7685290 124.6119770 117.1417570  39.8241010
 125.1481030 116.2984690  40.9613410 125.7786980 118.7068990  37.1791470
 125.3715060 118.8483580  36.3245070 126.6699990 118.4229150  36.9762680
 141.7349120 119.1532900  45.5163710 141.8612180 118.9144780  44.5980890
 141.7770500 118.3217440  45.9885790 135.5965860 122.8560900  44.0858520
 136.1110530 122.7668910  44.8880950 134.7534940 123.2020600  44.3786430
 137.5720260 123.1416240  33.5142520 137.4121400 122.8519180  34.4124350
 137.4066970 122.3656370  32.9787750 130.0508640 122.9214770  35.2914140
 129.8751120 122.0050310  35.0781940 129.1964380 123.2802060  35.5311940
 137.2746390 120.6503800  32.0740520 136.5811550 120.6481090  31.4142800
 138.0169250 120.2263120  31.6434690 136.8396320 122.2766510  36.1489010
 137.2953270 121.4955890  36.4627630 137.1788840 122.9873330  36.6930190
 141.5873130 111.2065360  46.4813450 140.9717400 111.7145030  45.9528910
 141.2669550 110.3063690  46.4239390 124.5898870 118.0482970  43.3079750
 124.7529910 117.5788330  42.4899120 125.0551320 117.5406530  43.9728590
 129.3617640 107.1788730  38.3440320 128.9185790 107.9598270  38.0124840
 129.9202630 107.5018620  39.0511260 133.6487450 110.0457250  43.9475640
 133.1866820 110.2540270  44.7595580 133.2465560 109.2316600  43.6446310
 138.6491960 111.2666200  45.0772300 137.7985550 110.9671950  45.3981370
 138.4893750 111.5108210  44.1656120 135.7441670 112.7667950  47.1771090
 136.0695080 111.9331700  46.8373320 136.5322000 113.2896470  47.3249420
 132.4776460 106.7999430  33.2246150 131.8530640 106.7959300  33.9499460
 132.3906580 105.9330390  32.8282120 131.3993540 107.7236060  40.2029920
 131.6965870 108.6298890  40.1221940 131.9479100 107.2354840  39.5889490
 129.1531860 112.3022300  36.0721570 128.9272780 112.0859470  36.9768190
 128.3724390 112.7350760  35.7267540 136.3829620 112.3085670  34.6712220
 135.7838510 113.0321470  34.4875840 136.9309230 112.2462450  33.8888670
 131.5931070 113.2007880  46.7381840 131.4974670 112.2602610  46.5882240
 132.4363050 113.4222950  46.3429910 134.9894490 110.9449210  36.7015500
 135.3824060 111.2621410  35.8884190 135.3511340 110.0661090  36.8160020
 126.7241610 109.6121550  44.8915620 126.3305000 110.4596760  45.0988400
 126.0360010 108.9747920  45.0824260 133.2986660 109.6956520  47.9612360
 132.6084980 109.5028720  48.5958450 134.0418960 109.9791160  48.4936660
 124.0258660 107.5350010  38.9245700 123.7371710 108.1052870  39.6370680
 124.7704420 107.0554460  39.2876930 124.2128890 111.4770130  30.1348420
 124.1303560 112.4200890  30.2763410 123.8611950 111.3345040  29.2560770
 135.5749630 113.5354960  40.7966280 134.8430750 114.0441770  41.1456380
 135.1773970 112.7184940  40.4955060 132.0127020 110.2109160  39.2018770
 132.0163080 109.7699110  38.3523310 132.9078140 110.5326490  39.3090590
 127.8629400 110.0935650  38.1612980 127.5229450 110.5710880  38.9180030
 127.1006720 109.6400770  37.8014080 132.0747170 111.2121240  32.1925530
 132.1959990 111.1707720  33.1411350 131.6895680 112.0745390  32.0372260
 136.0375540 108.9888640  40.2089220 136.0548280 109.4397290  41.0531070
 135.7891120 108.0894280  40.4222660 131.0868670 113.5222380  31.5908830
 130.5185570 113.0740630  30.9644740 131.7957670 113.8815160  31.0573980
 139.4646290 106.4020820  46.0475600 139.7892060 105.6710480  46.5733580
 139.5002800 106.0834460  45.1456590 126.1637850 117.4234400  45.4675560
 125.7792640 116.7828070  46.0658520 126.4750040 118.1270520  46.0370290
 132.3134990 114.2710940  40.9484180 132.6805120 113.7969510  41.6945520
 132.1240050 115.1452510  41.2892520 125.1775480 109.0154630  37.0777650
 124.8922400 108.6510300  37.9156270 125.1154340 108.2835090  36.4640790
 130.1034360 113.3119580  43.2668390 129.7991430 114.1911560  43.4918750
 131.0580820 113.3719370  43.3025830 128.6316150 117.5180570  33.8635240
 127.8578410 116.9778190  33.7033960 129.3610780 116.9987180  33.5253000
 139.3904130 116.5145930  39.6561630 140.1103250 117.0101220  39.2657740
 139.1885950 115.8363820  39.0115500 134.8514070 107.9083890  33.7991020
 134.0378680 107.4097060  33.7236330 134.6576020 108.7482140  33.3827370
 134.7722930 116.5854990  45.5430630 134.7060240 115.6650660  45.2888220
 134.1428070 116.6830430  46.2575270 137.5662460 112.2803540  32.0953180
 138.4542080 112.5920770  31.9204520 137.5367550 111.4075790  31.7033760
 128.6753550 117.1860950  37.5014050 129.1932220 116.3829210  37.4470940
 128.2237570 117.1240090  38.3430880 133.5623050 118.4527230  32.7741350
 133.9038750 119.1969460  32.2784670 132.7335760 118.7658350  33.1366180
 126.1598090 114.1522320  44.4139750 125.8013030 114.8176170  45.0013090
 125.8652650 113.3205870  44.7852370 129.3611210 114.6106560  47.2979300
 129.0611350 114.7563740  46.4007120 130.1322450 114.0511850  47.2052690
 134.7039660 119.4075560  45.2934430 134.7184200 118.4756520  45.0753340
 133.9964760 119.4935320  45.9324200 139.8376730 113.5915380  31.5633040
 139.7540450 114.0229600  30.7129480 140.5570920 114.0513730  31.9959860
 140.9150870 116.0482900  44.6403010 140.1899060 116.6411680  44.4432400
 141.4426330 116.0406440  43.8416380 140.8663980 120.4457640  34.2915170
 140.2240140 119.7913260  34.5658890 140.4794640 120.8512730  33.5155840
 136.4450460 117.7743070  38.1386860 136.7974280 117.1771200  37.4788230
 135.5612790 117.4487300  38.3095110 132.5313740 118.5340760  35.5457270
 133.2184870 119.0809970  35.9264860 131.7446160 119.0781490  35.5806880
 124.6706140 114.1513580  31.0374350 125.5400990 114.4338380  31.3210270
 124.1796460 114.9649450  30.9223160 131.8340950 115.5386790  35.1582630
 132.2903730 116.3492040  35.3842820 131.4829160 115.2209930  35.9901120
 134.1373560 121.0493130  42.3874930 134.7815780 121.2552510  43.0648350
 134.5003000 120.2881530  41.9345780 127.7352730 105.8824440  35.6305150
 127.6067360 105.8742340  36.5790070 126.9114750 106.2207530  35.2796160
 135.4105640 119.0525480  41.1052380 136.0527870 118.3518640  41.2184550
 135.9354990 119.8323920  40.9249270 139.2561360 119.3374100  30.8291520
 139.0298940 118.6204540  31.4216160 138.8657560 119.0886540  29.9913270
 137.1843260 119.8520380  44.3088440 137.5199500 120.4387070  44.9866360
 136.2643600 119.7213090  44.5386230 125.0377390 123.3640960  31.6035980
 125.3975030 123.9630300  30.9493250 124.8969730 123.9100850  32.3771010
 124.7346660 107.6415560  45.0911850 124.0205180 107.8412480  45.6964460
 125.1541700 106.8655130  45.4626650 138.8377610 117.2546040  32.4905680
 138.5499310 117.7158730  33.2783560 139.6329780 116.7943810  32.7589900
 125.0219250 121.6295820  46.0778380 125.1310370 120.6890560  45.9373770
 124.3699810 121.8950570  45.4292110 133.0131840 119.9011710  47.4776500
 132.6928710 119.1820950  48.0222190 132.3390200 120.5766780  47.5512560
 131.0546010 120.7472160  32.4209650 131.0456110 121.4801850  31.8054160
 130.1344370 120.5003740  32.5136610 126.6552650 115.9687050  33.1656410
 126.0480600 116.7085950  33.1751710 127.1302000 116.0586410  32.3394610
 136.2285440 110.1337870  42.8413300 136.5966260 109.3133080  43.1692870
 135.3683640 110.1939760  43.2568950 139.5947470 109.0894810  33.6500860
 138.9660630 109.1940480  32.9359090 139.0999390 109.3091590  34.4394740
 134.0405610 120.8100400  31.0834840 134.1417590 120.6064390  30.1536820
 133.1407350 120.5558680  31.2882620 131.5631500 111.3680760  35.0658740
 130.8547650 111.8367100  35.5072350 131.8475980 110.7102770  35.7003930
 133.1887430 112.7877460  43.0651270 133.6872680 113.2623280  43.7303120
 133.3310380 111.8640980  43.2721300 135.5946930 108.0931420  36.5054530
 135.4714710 108.1117550  35.5564040 136.5431490 108.1410360  36.6252930
 132.6823720 123.3286720  35.7782510 132.9365220 123.2908110  34.8561880
 131.7336200 123.2020050  35.7710760 129.7666520 109.6765840  32.4409450
 130.6157050 110.1135990  32.3749640 129.3997790 109.9886100  33.2681510
 140.3954290 109.0045420  43.9079660 139.8927890 109.7450820  44.2473470
 141.2110950 109.3929420  43.5916450 138.6876300 114.2478600  37.3541020
 137.7466440 114.2628830  37.5288710 139.0020370 113.4614560  37.8001320
 128.6657940 115.9298200  30.9144980 129.4321210 115.8179560  31.4770410
 128.7432630 115.2336170  30.2621750 127.3604700 113.3623270  31.5977870
 127.4408290 112.4150780  31.7095270 128.2524450 113.6930150  31.7038530
 140.6901880 121.4187450  39.0295280 140.8149300 122.2418620  39.5019090
 141.5567440 121.2078180  38.6819430 128.1619410 123.5118660  38.7012410
 128.8981890 122.9634120  38.9720980 128.5460330 124.3774670  38.5618400
 125.0464890 119.5792230  34.5753920 124.1204670 119.8213370  34.5659330
 125.5121320 120.4066490  34.4538670 127.1677690 122.6964730  47.8897990
 127.9690420 123.0176780  48.3033390 126.6529510 122.3360310  48.6117900
 131.2721720 122.6848970  30.5237980 132.0650330 122.9737800  30.0719770
 130.7526070 122.2541140  29.8450460 136.0042320 118.8044600  47.8373400
 135.3980480 118.8276200  47.0969150 135.6996430 118.0727640  48.3740650
 137.4342690 122.5324890  46.4482810 138.3864440 122.4482910  46.3983050
 137.2870910 123.1966600  47.1216600 140.3251890 121.9119100  31.9474720
 140.0393400 121.4984240  31.1328900 140.1271440 122.8406810  31.8275240
 124.8875500 115.1838190  46.8334040 125.3914520 114.6045470  47.4050270
 124.1482920 115.4678420  47.3710410 131.7899120 117.9052380  30.3880330
 131.6849760 117.2904730  31.1141710 131.6223340 117.3818270  29.6043340
 131.9413440 116.5909180  46.3669560 131.1759110 117.1594180  46.2824230
 132.1229400 116.2985390  45.4737790 135.0301850 116.9672410  30.9922320
 134.4811950 117.4141710  31.6365060 135.6521110 116.4621660  31.5159990
 139.0836790 118.3214510  46.9244580 139.8246260 118.6590270  46.4212040
 138.3209470 118.4906570  46.3714350 126.9198580 113.3267780  47.7284110
 126.9603920 113.0281650  48.6369340 127.7744080 113.7275390  47.5691630
 130.6976970 115.9263330  32.8887620 131.1193390 115.7603200  33.7319010
 130.8227810 115.1163560  32.3942760 128.8604390 111.9059880  45.6958600
 128.3300850 111.4150830  45.0681940 129.5292460 112.3344080  45.1616530
 133.2104610 114.9500940  30.1364720 133.7310270 114.2349960  29.7705870
 133.8573010 115.5886810  30.4365230 137.7582450 116.3729340  45.4599790
 138.1723470 116.5274420  46.3090210 136.8233450 116.4984560  45.6225570
 138.2304620 113.7125500  47.4638940 138.8125390 112.9577820  47.3759420
 138.4066390 114.2432940  46.6870420 129.3476690 108.8722250  45.7755890
 129.2533560 108.2543000  45.0506760 128.7674080 109.5988540  45.5485800
 132.1138130 107.4295490  42.8083280 131.6655430 107.4519750  41.9628830
 131.4803330 107.0314510  43.4053580 132.5197680 116.3249820  43.4295720
 132.9385790 117.1682550  43.2571960 131.6006310 116.4621860  43.2002500
 134.8561580 114.0566000  44.8133560 134.9757790 113.4607140  45.5528400
 135.7155580 114.0935690  44.3934860 137.1949480 114.6103190  43.3896070
 136.6684700 115.1345810  42.7861210 137.5380820 115.2430580  44.0205800
 129.5935870 111.9996560  29.8345780 129.3924930 111.1363920  30.1959120
 129.4227920 111.9129920  28.8967380 130.3705100 122.6302830  44.5453450
 129.8326190 123.3548890  44.2262150 130.6239060 122.1533170  43.7550790
 131.6230350 110.5987350  46.0709380 132.2130040 110.2903200  46.7587200
 130.8050590 110.1267100  46.2269280 136.4423780 110.2153160  46.3042400
 135.7539300 109.5534700  46.2392390 137.1629800 109.7691430  46.7490860
 137.0724180 106.8104790  32.3632660 137.3526470 105.9672690  32.7192080
 136.2989910 107.0427900  32.8771410 128.3918670 109.0997180  29.8223660
 128.6944570 109.1064610  28.9142810 129.1313260 108.7495040  30.3191320
 133.2267310 123.8654040  44.8040100 133.1526010 124.7689180  45.1112470
 132.3246150 123.5465940  44.7762170 131.6103600 108.0431800  30.8079860
 131.2625600 107.3655790  30.2282310 131.8116370 107.5821310  31.6223250
 133.7752640 123.0312550  32.4266460 134.6703430 123.3697520  32.4485220
 133.8070270 122.3091960  31.7990740 127.4148800 118.4039600  30.6553460
 127.8523670 118.9469270  31.3111040 127.8996530 117.5786550  30.6649800
 124.6294600 121.1928630  38.1073720 124.9597610 120.3249690  37.8752360
 125.0585600 121.3987150  38.9378680 129.2256520 119.5237640  35.7675690
 128.9252060 119.4002610  36.6679600 129.1194010 118.6646230  35.3591420
 125.1184810 122.0599220  40.8455350 124.6815800 122.2400020  41.6779500
 125.6862490 122.8173840  40.7037070 140.7546990 121.5616220  45.1332660
 140.1548980 121.6208780  44.3896580 140.8840890 120.6221200  45.2629510
 141.9948440 119.3034040  30.4702370 141.1641400 119.3710690  30.9409600
 142.1720270 120.1938160  30.1669230 141.4504900 116.0481520  32.9736570
 142.2123810 116.6178170  33.0796260 141.4659270 115.4808720  33.7444880
 124.9509240 114.5719450  37.2044230 124.2958080 114.3031090  36.5603930
 125.7887190 114.4623930  36.7546210 142.4564870 116.9031620  37.8178500
 142.8273700 116.1198940  37.4114470 143.0966800 117.5920720  37.6395800
 139.4398630 118.2868200  43.2308820 138.6258470 118.7165360  43.4934610
 139.8472830 118.8986610  42.6177870 141.5024070 116.3415890  30.1309090
 141.7772910 117.2494770  30.0028310 141.3134810 116.2778420  31.0671080
 137.8999680 109.3660740  31.4262720 138.3184560 109.1791720  30.5859380
 137.5935740 108.5139790  31.7365650 141.3989410 114.2784880  35.1238520
 141.0233010 113.5112810  34.6919810 140.6692530 114.6607580  35.6113450
 125.9885170 114.9572020  41.7447570 126.3558210 114.8699420  42.6243590
 125.4195990 114.1938570  41.6454430 140.7889030 113.4256400  44.7578040
 140.5575120 113.1969150  43.8575990 141.0493580 114.3455950  44.7122930
 125.5401170 111.8681110  45.6505990 124.6457220 111.8347870  45.9899700
 126.0798720 112.0667900  46.4157240 139.2277100 108.6512830  47.5357740
 140.1047280 108.6596230  47.9191740 139.2397940 107.9143670  46.9250090
 124.1647320 111.7818380  33.1469560 123.2611400 112.0448580  32.9721220
 124.6487940 112.0529550  32.3669520 140.6740370 112.5042370  38.4245760
 141.1977850 112.0105020  37.7935930 141.2599790 112.6392730  39.1693330
 140.8530090 112.5882240  41.9465310 139.9032800 112.5545780  42.0610300
 141.0343100 113.4982350  41.7115080 126.7074530 110.8383920  31.0563940
 127.4166230 110.4167140  30.5711220 125.9914470 110.9059150  30.4247290
 126.3548690 106.8923250  30.0966590 127.0776820 107.4332190  30.4147810
 126.6273210 106.6186670  29.2208130 140.1640340 111.7615720  34.3638170
 140.6599460 111.5286590  35.1487050 139.9656410 110.9227560  33.9475810
 126.0440880 106.1429440  39.9989210 126.6917070 105.5926820  39.5584370
 126.4642720 106.3972590  40.8205020 141.5927500 110.3976670  36.8975850
 141.4826780 110.2432710  37.8358120 142.3535090 109.8697610  36.6551260
 139.9393220 106.3370800  43.3558850 140.5765440 106.9504940  43.7218040
 140.0868110 106.3731460  42.4108080 142.4817770 108.2284590  30.1381990
 143.4067080 108.0965770  29.9300280 142.4593560 108.3077410  31.0918440
 142.5556260 108.9995250  32.7638700 141.7607760 108.9340370  33.2931610
 142.7599540 109.9345890  32.7524050 139.4974680 123.0386800  36.7577090
 140.0933750 122.7171370  36.0811510 139.7552830 122.5658620  37.5490360
 125.7972880 106.2985110  42.7414530 125.4487700 106.7548930  43.5072710
 125.4660580 105.4042240  42.8236960 127.4037250 119.4704710  46.9067720
 127.3606880 119.0997620  47.7882180 127.5348260 120.4082280  47.0469540
 131.1043280 121.0264300  42.5077440 130.8634640 121.2938860  41.6207960
 132.0445920 121.1970030  42.5628300 133.3097700 107.4896990  46.2633950
 133.2486590 108.0818820  47.0129360 134.2498080 107.3822950  46.1184210
 135.9472260 107.1467050  45.9026240 136.5612670 107.4646340  45.2407320
 136.4921820 106.6615640  46.5222100 142.3647440 123.0458680  43.3088080
 141.8705720 123.4427550  42.5915210 141.7560730 122.4207890  43.7025360
 126.4693520 105.8261310  46.0165300 127.0176510 105.6449360  45.2531410
 126.5348830 105.0355420  46.5521610 127.2425280 122.4166960  44.0265500
 126.6485600 122.2851660  44.7655540 127.2349120 121.5805100  43.5607600
 136.6880300 105.7099190  42.2295530 135.8140140 106.0434300  42.0268460
 136.5791050 105.2372370  43.0547400 137.5952280 107.9170060  43.6137250
 137.2665640 107.1021820  43.2338980 138.5434580 107.8739870  43.4902940
 140.0486890 123.6882100  40.5874820 139.5889860 124.4397910  40.2132840
 139.4199350 122.9688570  40.5289620 126.8737510 119.7825340  42.9773540
 126.1471570 119.1630630  42.9099490 126.9346660 120.1765950  42.1071620
 130.4782610 121.9970340  39.7622950 130.9947630 121.3857700  39.2371210
 131.1279990 122.4999120  40.2533960 133.2178110 122.8878830  40.5891930
 133.5055920 122.6333130  39.7124940 133.7301330 122.3356190  41.1797500
 134.4355120 106.6269030  41.1688440 133.6526910 107.1014530  41.4485200
 134.1418050 105.7223860  41.0601620 138.9876190 107.3292130  39.2137530
 139.4284280 107.2737230  38.3659130 138.7183780 108.2450140  39.2847710
 140.8514760 106.9607370  37.2246350 140.7903160 106.0168590  37.0777370
 141.6306790 107.0687460  37.7699810 125.1567510 123.0999730  36.1870300
 124.9889550 122.4670410  36.8852190 124.2902020 123.3059130  35.8364490
 125.7795530 106.9316510  33.6902160 126.5374890 107.0445390  33.1166190
 125.3172700 107.7685710  33.6445590 132.3209340 109.0455780  36.6804470
 131.5083850 108.6712670  36.3400350 132.8250980 108.2900860  36.9825660
 136.8234320 105.7098230  37.9187540 137.4263690 106.2818440  38.3936060
 136.0827310 106.2737670  37.6961440 139.9668920 106.1119790  33.1927820
 140.1619550 107.0103240  33.4595250 139.1798790 105.8806870  33.6860770
 126.7630210 121.7932960  33.6320440 126.2377830 122.1740990  32.9282400
 126.6874790 122.4183730  34.3530150 128.1520680 107.4580560  32.2304130
 128.6813440 106.6710360  32.1012080 128.7849000 108.1371750  32.4639660
 130.3458520 107.1955700  35.2849520 129.7161260 106.4943010  35.4519650
 129.8063660 107.9559830  35.0682680 133.2850470 123.8094930  47.9560130
 134.2117780 123.5739200  47.9996090 133.2700900 124.6366930  47.4746160
 141.5195530 123.3520500  34.9534380 141.6947720 122.6658240  34.3095300
 140.8217100 123.8767550  34.5611050 130.4714080 106.4739680  47.7202010
 130.1898350 106.9773280  46.9562830 130.8533780 105.6761430  47.3544140
 129.3623180 123.7415340  32.5069690 130.0942000 123.4574620  31.9593580
 129.6216850 123.5028620  33.3969070 128.5237970 119.8580070  32.5116020
 127.8946850 120.3265170  33.0601850 128.6385800 119.0129290  32.9462210
 137.0729540 105.8893260  48.2982480 136.9594990 106.2087870  49.1934000
 137.8899280 106.2905770  48.0019760 139.8528030 123.0364790  47.7801170
 140.6453350 122.5414020  47.5727130 140.1461180 123.7154930  48.3876780
 135.9787690 113.9085730  18.6617220 135.8981740 112.9940340  18.3908930
 135.5652110 114.4052800  17.9556930 134.1105730 115.6864750  20.5426490
 133.3347830 115.2065190  20.8325060 134.7618660 115.0070400  20.3682650
 128.1271560 115.9984560  21.4202250 127.2956440 115.7433270  21.8198760
 128.7352540 116.0695330  22.1560170 138.1313160 120.0924940  19.3225620
 137.6694690 119.3212180  19.6512790 138.9438710 120.1191010  19.8278070
 128.1072820 120.0324650  21.6160270 128.4100860 119.1422390  21.4370490
 128.8516410 120.5894870  21.3882520 126.5363510 110.9586450  15.2044640
 125.6480210 111.3002420  15.1024520 126.8204700 110.7586770  14.3125470
 124.4996520 113.5592100  21.0884340 125.0712630 112.7914300  21.0887980
 124.4998060 113.8580860  20.1790950 134.3576470 122.3782950  18.9429610
 133.7387910 122.8340450  18.3724050 135.2128250 122.5334410  18.5419310
 133.5514720 118.3621940  20.5496650 133.4823000 117.4211880  20.3885780
 134.3134580 118.4523350  21.1219220 125.7421390 108.9676460  22.8753270
 125.5624230 108.0702210  23.1556030 125.3401470 109.5148330  23.5500220
 134.5819890 111.1692320  20.7765580 134.9584710 110.2964200  20.6639250
 134.4839400 111.5051020  19.8856020 128.7124900 109.5417950  16.2383020
 128.8191650 110.4421680  16.5451780 127.8017260 109.4935920  15.9477670
 138.3644010 108.6642760  17.7093920 139.1853630 108.1739330  17.7519400
 138.3978090 109.2540420  18.4625760 126.3608060 111.4636960  21.4835610
 127.0418170 111.7275330  22.1023010 126.0456110 110.6237830  21.8173620
 130.5532630 112.5104320  20.5708200 131.0610850 113.0085290  21.2113220
 131.0845870 111.7339520  20.3947560 142.6543560 110.6809510  24.2737550
 141.9495730 111.0691220  23.7552660 142.9201480 111.3759800  24.8758480
 128.8368730 107.1502880  24.8371620 128.8387170 107.6675270  24.0317520
 128.0073040 106.6733060  24.8141550 135.2239820 117.2622190  16.3361520
 134.6057090 117.7271640  15.7724240 135.7363070 117.9549670  16.7531030
 130.0871580 116.7898060  23.0145120 129.7540960 117.4166980  23.6566190
 130.2638260 117.3159940  22.2346790 138.6005490 110.6043140  20.4821460
 137.8961060 110.8928030  21.0624570 138.9617650 111.4143250  20.1221020
 128.5184060 108.8612840  22.8442070 128.8600870 109.7054890  22.5495940
 127.5799870 109.0096580  22.9607410 129.2990680 118.7578860  24.8294300
 129.9164680 119.4329940  24.5478750 128.4383800 119.1666840  24.7381800
 124.5923020 117.9478720  13.7101150 124.2151000 118.4365820  12.9786050
 124.8496090 118.6204000  14.3407680 140.2168270 120.2218270  22.7448940
 139.5331790 120.8917380  22.7365610 140.7562560 120.4198920  21.9793800
 141.6692410 110.0497930  20.8730670 140.7217320 110.0836910  21.0046100
 141.9942400 110.8636880  21.2580030 132.2011950 106.3495110  19.1686660
 132.5086930 105.7942000  18.4522160 131.2712650 106.4839570  18.9859650
 137.7527010 122.0662400  21.4594120 137.7654170 121.6624690  20.5916380
 137.2002230 122.8409690  21.3555550 139.0472430 118.7878620  16.5484290
 138.9368760 117.8452950  16.6733710 139.0440680 119.1494260  17.4347050
 137.1512450 116.9692240  22.7876730 137.5681240 116.7552350  21.9530190
 137.8752270 117.2265030  23.3585350 134.5892710 114.4143940  15.9046780
 133.6621990 114.3481320  16.1335250 134.7417530 115.3524070  15.7902020
 134.5761790 110.6860940  12.9013940 133.6365460 110.8474900  12.9866400
 134.8945050 111.4046620  12.3549930 141.0974550 115.3679460  22.8792970
 140.2693180 115.4372550  22.4043100 141.6925030 115.9533770  22.4108800
 138.6190000 115.9764240  16.4082030 138.0002420 115.6383790  15.7608330
 138.6014450 115.3324000  17.1161220 138.0616560 112.1548780  23.8247840
 137.6487740 112.9802490  24.0787830 137.3292510 111.5693820  23.6324200
 130.1949350 114.9408680  18.6866510 129.7906350 114.2285930  18.1912410
 130.2812470 114.5961920  19.5754550 130.6631050 118.6276240  20.8505720
 130.3659340 118.0221710  20.1713500 131.6130870 118.6653550  20.7395080
 128.9077970 111.7151890  22.4665550 129.4592560 111.8247230  21.6918800
 129.4221480 112.0889490  23.1820780 138.7516660 122.2008110  24.5128820
 138.2747220 123.0080300  24.3201430 138.0678450 121.5486440  24.6655030
 129.7549480 118.3657930  27.5013520 128.8578010 118.5897900  27.7486920
 129.7802350 118.4892870  26.5524920 136.7954700 115.2151050  13.4154780
 137.2347980 114.3773480  13.2692600 137.5083120 115.8480450  13.5018920
 128.5820700 115.2371250  26.0770890 128.4428470 116.1094050  26.4458290
 127.7002060 114.8944060  25.9318830 134.9050080 120.1547120  17.3836020
 135.3445990 120.8971450  16.9691410 134.8436970 120.3973690  18.3074980
 130.3801050 121.1792950  28.2856040 130.3516480 121.5835900  27.4184470
 130.2166020 120.2503310  28.1227640 140.3771840 106.4693860  11.7295820
 140.0644500 106.5620690  12.6294890 141.1384310 107.0474890  11.6793250
 126.8953980 113.8353660  16.1873160 126.7751580 114.5615750  15.5754430
 126.5854870 113.0656570  15.7101070 142.3315870 121.9620050  29.5820210
 142.8075590 122.4402940  30.2609290 142.9523030 121.8937540  28.8565710
 124.5339350 117.0068800  21.9941800 124.6119770 117.1417570  21.0497520
 125.1481030 116.2984690  22.1869920 125.7786980 118.7068990  18.4047980
 125.3715060 118.8483580  17.5501580 126.6699990 118.4229150  18.2019190
 141.7349120 119.1532900  26.7420220 141.8612180 118.9144780  25.8237400
 141.7770500 118.3217440  27.2142300 135.5965860 122.8560900  25.3115030
 136.1110530 122.7668910  26.1137460 134.7534940 123.2020600  25.6042940
 137.5720260 123.1416240  14.7399030 137.4121400 122.8519180  15.6380860
 137.4066970 122.3656370  14.2044260 130.0508640 122.9214770  16.5170650
 129.8751120 122.0050310  16.3038450 129.1964380 123.2802060  16.7568450
 137.2746390 120.6503800  13.2997030 136.5811550 120.6481090  12.6399310
 138.0169250 120.2263120  12.8691200 136.8396320 122.2766510  17.3745520
 137.2953270 121.4955890  17.6884140 137.1788840 122.9873330  17.9186700
 141.5873130 111.2065360  27.7069960 140.9717400 111.7145030  27.1785420
 141.2669550 110.3063690  27.6495900 124.5898870 118.0482970  24.5336260
 124.7529910 117.5788330  23.7155630 125.0551320 117.5406530  25.1985100
 129.3617640 107.1788730  19.5696830 128.9185790 107.9598270  19.2381350
 129.9202630 107.5018620  20.2767770 133.6487450 110.0457250  25.1732150
 133.1866820 110.2540270  25.9852090 133.2465560 109.2316600  24.8702820
 138.6491960 111.2666200  26.3028810 137.7985550 110.9671950  26.6237880
 138.4893750 111.5108210  25.3912630 135.7441670 112.7667950  28.4027600
 136.0695080 111.9331700  28.0629830 136.5322000 113.2896470  28.5505930
 132.4776460 106.7999430  14.4502660 131.8530640 106.7959300  15.1755970
 132.3906580 105.9330390  14.0538630 131.3993540 107.7236060  21.4286430
 131.6965870 108.6298890  21.3478450 131.9479100 107.2354840  20.8146000
 129.1531860 112.3022300  17.2978080 128.9272780 112.0859470  18.2024700
 128.3724390 112.7350760  16.9524050 136.3829620 112.3085670  15.8968730
 135.7838510 113.0321470  15.7132350 136.9309230 112.2462450  15.1145180
 131.5931070 113.2007880  27.9638350 131.4974670 112.2602610  27.8138750
 132.4363050 113.4222950  27.5686420 134.9894490 110.9449210  17.9272010
 135.3824060 111.2621410  17.1140700 135.3511340 110.0661090  18.0416530
 126.7241610 109.6121550  26.1172130 126.3305000 110.4596760  26.3244910
 126.0360010 108.9747920  26.3080770 133.2986660 109.6956520  29.1868870
 132.6084980 109.5028720  29.8214960 134.0418960 109.9791160  29.7193170
 124.0258660 107.5350010  20.1502210 123.7371710 108.1052870  20.8627190
 124.7704420 107.0554460  20.5133440 124.2128890 111.4770130  11.3604930
 124.1303560 112.4200890  11.5019920 123.8611950 111.3345040  10.4817280
 135.5749630 113.5354960  22.0222790 134.8430750 114.0441770  22.3712890
 135.1773970 112.7184940  21.7211570 132.0127020 110.2109160  20.4275280
 132.0163080 109.7699110  19.5779820 132.9078140 110.5326490  20.5347100
 127.8629400 110.0935650  19.3869490 127.5229450 110.5710880  20.1436540
 127.1006720 109.6400770  19.0270590 132.0747170 111.2121240  13.4182040
 132.1959990 111.1707720  14.3667860 131.6895680 112.0745390  13.2628770
 136.0375540 108.9888640  21.4345730 136.0548280 109.4397290  22.2787580
 135.7891120 108.0894280  21.6479170 131.0868670 113.5222380  12.8165340
 130.5185570 113.0740630  12.1901250 131.7957670 113.8815160  12.2830490
 139.4646290 106.4020820  27.2732110 139.7892060 105.6710480  27.7990090
 139.5002800 106.0834460  26.3713100 126.1637850 117.4234400  26.6932070
 125.7792640 116.7828070  27.2915030 126.4750040 118.1270520  27.2626800
 132.3134990 114.2710940  22.1740690 132.6805120 113.7969510  22.9202030
 132.1240050 115.1452510  22.5149030 125.1775480 109.0154630  18.3034160
 124.8922400 108.6510300  19.1412780 125.1154340 108.2835090  17.6897300
 130.1034360 113.3119580  24.4924900 129.7991430 114.1911560  24.7175260
 131.0580820 113.3719370  24.5282340 128.6316150 117.5180570  15.0891750
 127.8578410 116.9778190  14.9290470 129.3610780 116.9987180  14.7509510
 139.3904130 116.5145930  20.8818140 140.1103250 117.0101220  20.4914250
 139.1885950 115.8363820  20.2372010 134.8514070 107.9083890  15.0247530
 134.0378680 107.4097060  14.9492840 134.6576020 108.7482140  14.6083880
 134.7722930 116.5854990  26.7687140 134.7060240 115.6650660  26.5144730
 134.1428070 116.6830430  27.4831780 137.5662460 112.2803540  13.3209690
 138.4542080 112.5920770  13.1461030 137.5367550 111.4075790  12.9290270
 128.6753550 117.1860950  18.7270560 129.1932220 116.3829210  18.6727450
 128.2237570 117.1240090  19.5687390 133.5623050 118.4527230  13.9997860
 133.9038750 119.1969460  13.5041180 132.7335760 118.7658350  14.3622690
 126.1598090 114.1522320  25.6396260 125.8013030 114.8176170  26.2269600
 125.8652650 113.3205870  26.0108880 129.3611210 114.6106560  28.5235810
 129.0611350 114.7563740  27.6263630 130.1322450 114.0511850  28.4309200
 134.7039660 119.4075560  26.5190940 134.7184200 118.4756520  26.3009850
 133.9964760 119.4935320  27.1580710 139.8376730 113.5915380  12.7889550
 139.7540450 114.0229600  11.9385990 140.5570920 114.0513730  13.2216370
 140.9150870 116.0482900  25.8659520 140.1899060 116.6411680  25.6688910
 141.4426330 116.0406440  25.0672890 140.8663980 120.4457640  15.5171680
 140.2240140 119.7913260  15.7915400 140.4794640 120.8512730  14.7412350
 136.4450460 117.7743070  19.3643370 136.7974280 117.1771200  18.7044740
 135.5612790 117.4487300  19.5351620 132.5313740 118.5340760  16.7713780
 133.2184870 119.0809970  17.1521370 131.7446160 119.0781490  16.8063390
 124.6706140 114.1513580  12.2630860 125.5400990 114.4338380  12.5466780
 124.1796460 114.9649450  12.1479670 131.8340950 115.5386790  16.3839140
 132.2903730 116.3492040  16.6099330 131.4829160 115.2209930  17.2157630
 134.1373560 121.0493130  23.6131440 134.7815780 121.2552510  24.2904860
 134.5003000 120.2881530  23.1602290 127.7352730 105.8824440  16.8561660
 127.6067360 105.8742340  17.8046580 126.9114750 106.2207530  16.5052670
 135.4105640 119.0525480  22.3308890 136.0527870 118.3518640  22.4441060
 135.9354990 119.8323920  22.1505780 139.2561360 119.3374100  12.0548030
 139.0298940 118.6204540  12.6472670 138.8657560 119.0886540  11.2169780
 137.1843260 119.8520380  25.5344950 137.5199500 120.4387070  26.2122870
 136.2643600 119.7213090  25.7642740 125.0377390 123.3640960  12.8292490
 125.3975030 123.9630300  12.1749760 124.8969730 123.9100850  13.6027520
 124.7346660 107.6415560  26.3168360 124.0205180 107.8412480  26.9220970
 125.1541700 106.8655130  26.6883160 138.8377610 117.2546040  13.7162190
 138.5499310 117.7158730  14.5040070 139.6329780 116.7943810  13.9846410
 125.0219250 121.6295820  27.3034890 125.1310370 120.6890560  27.1630280
 124.3699810 121.8950570  26.6548620 133.0131840 119.9011710  28.7033010
 132.6928710 119.1820950  29.2478700 132.3390200 120.5766780  28.7769070
 131.0546010 120.7472160  13.6466160 131.0456110 121.4801850  13.0310670
 130.1344370 120.5003740  13.7393120 126.6552650 115.9687050  14.3912920
 126.0480600 116.7085950  14.4008220 127.1302000 116.0586410  13.5651120
 136.2285440 110.1337870  24.0669810 136.5966260 109.3133080  24.3949380
 135.3683640 110.1939760  24.4825460 139.5947470 109.0894810  14.8757370
 138.9660630 109.1940480  14.1615600 139.0999390 109.3091590  15.6651250
 134.0405610 120.8100400  12.3091350 134.1417590 120.6064390  11.3793330
 133.1407350 120.5558680  12.5139130 131.5631500 111.3680760  16.2915250
 130.8547650 111.8367100  16.7328860 131.8475980 110.7102770  16.9260440
 133.1887430 112.7877460  24.2907780 133.6872680 113.2623280  24.9559630
 133.3310380 111.8640980  24.4977810 135.5946930 108.0931420  17.7311040
 135.4714710 108.1117550  16.7820550 136.5431490 108.1410360  17.8509440
 132.6823720 123.3286720  17.0039020 132.9365220 123.2908110  16.0818390
 131.7336200 123.2020050  16.9967270 129.7666520 109.6765840  13.6665960
 130.6157050 110.1135990  13.6006150 129.3997790 109.9886100  14.4938020
 140.3954290 109.0045420  25.1336170 139.8927890 109.7450820  25.4729980
 141.2110950 109.3929420  24.8172960 138.6876300 114.2478600  18.5797530
 137.7466440 114.2628830  18.7545220 139.0020370 113.4614560  19.0257830
 128.6657940 115.9298200  12.1401490 129.4321210 115.8179560  12.7026920
 128.7432630 115.2336170  11.4878260 127.3604700 113.3623270  12.8234380
 127.4408290 112.4150780  12.9351780 128.2524450 113.6930150  12.9295040
 140.6901880 121.4187450  20.2551790 140.8149300 122.2418620  20.7275600
 141.5567440 121.2078180  19.9075940 128.1619410 123.5118660  19.9268920
 128.8981890 122.9634120  20.1977490 128.5460330 124.3774670  19.7874910
 125.0464890 119.5792230  15.8010430 124.1204670 119.8213370  15.7915840
 125.5121320 120.4066490  15.6795180 127.1677690 122.6964730  29.1154500
 127.9690420 123.0176780  29.5289900 126.6529510 122.3360310  29.8374410
 131.2721720 122.6848970  11.7494490 132.0650330 122.9737800  11.2976280
 130.7526070 122.2541140  11.0706970 136.0042320 118.8044600  29.0629910
 135.3980480 118.8276200  28.3225660 135.6996430 118.0727640  29.5997160
 137.4342690 122.5324890  27.6739320 138.3864440 122.4482910  27.6239560
 137.2870910 123.1966600  28.3473110 140.3251890 121.9119100  13.1731230
 140.0393400 121.4984240  12.3585410 140.1271440 122.8406810  13.0531750
 124.8875500 115.1838190  28.0590550 125.3914520 114.6045470  28.6306780
 124.1482920 115.4678420  28.5966920 131.7899120 117.9052380  11.6136840
 131.6849760 117.2904730  12.3398220 131.6223340 117.3818270  10.8299850
 131.9413440 116.5909180  27.5926070 131.1759110 117.1594180  27.5080740
 132.1229400 116.2985390  26.6994300 135.0301850 116.9672410  12.2178830
 134.4811950 117.4141710  12.8621570 135.6521110 116.4621660  12.7416500
 139.0836790 118.3214510  28.1501090 139.8246260 118.6590270  27.6468550
 138.3209470 118.4906570  27.5970860 126.9198580 113.3267780  28.9540620
 126.9603920 113.0281650  29.8625850 127.7744080 113.7275390  28.7948140
 130.6976970 115.9263330  14.1144130 131.1193390 115.7603200  14.9575520
 130.8227810 115.1163560  13.6199270 128.8604390 111.9059880  26.9215110
 128.3300850 111.4150830  26.2938450 129.5292460 112.3344080  26.3873040
 133.2104610 114.9500940  11.3621230 133.7310270 114.2349960  10.9962380
 133.8573010 115.5886810  11.6621740 137.7582450 116.3729340  26.6856300
 138.1723470 116.5274420  27.5346720 136.8233450 116.4984560  26.8482080
 138.2304620 113.7125500  28.6895450 138.8125390 112.9577820  28.6015930
 138.4066390 114.2432940  27.9126930 129.3476690 108.8722250  27.0012400
 129.2533560 108.2543000  26.2763270 128.7674080 109.5988540  26.7742310
 132.1138130 107.4295490  24.0339790 131.6655430 107.4519750  23.1885340
 131.4803330 107.0314510  24.6310090 132.5197680 116.3249820  24.6552230
 132.9385790 117.1682550  24.4828470 131.6006310 116.4621860  24.4259010
 134.8561580 114.0566000  26.0390070 134.9757790 113.4607140  26.7784910
 135.7155580 114.0935690  25.6191370 137.1949480 114.6103190  24.6152580
 136.6684700 115.1345810  24.0117720 137.5380820 115.2430580  25.2462310
 129.5935870 111.9996560  11.0602290 129.3924930 111.1363920  11.4215630
 129.4227920 111.9129920  10.1223890 130.3705100 122.6302830  25.7709960
 129.8326190 123.3548890  25.4518660 130.6239060 122.1533170  24.9807300
 131.6230350 110.5987350  27.2965890 132.2130040 110.2903200  27.9843710
 130.8050590 110.1267100  27.4525790 136.4423780 110.2153160  27.5298910
 135.7539300 109.5534700  27.4648900 137.1629800 109.7691430  27.9747370
 137.0724180 106.8104790  13.5889170 137.3526470 105.9672690  13.9448590
 136.2989910 107.0427900  14.1027920 128.3918670 109.0997180  11.0480170
 128.6944570 109.1064610  10.1399320 129.1313260 108.7495040  11.5447830
 133.2267310 123.8654040  26.0296610 133.1526010 124.7689180  26.3368980
 132.3246150 123.5465940  26.0018680 131.6103600 108.0431800  12.0336370
 131.2625600 107.3655790  11.4538820 131.8116370 107.5821310  12.8479760
 133.7752640 123.0312550  13.6522970 134.6703430 123.3697520  13.6741730
 133.8070270 122.3091960  13.0247250 127.4148800 118.4039600  11.8809970
 127.8523670 118.9469270  12.5367550 127.8996530 117.5786550  11.8906310
 124.6294600 121.1928630  19.3330230 124.9597610 120.3249690  19.1008870
 125.0585600 121.3987150  20.1635190 129.2256520 119.5237640  16.9932200
 128.9252060 119.4002610  17.8936110 129.1194010 118.6646230  16.5847930
 125.1184810 122.0599220  22.0711860 124.6815800 122.2400020  22.9036010
 125.6862490 122.8173840  21.9293580 140.7546990 121.5616220  26.3589170
 140.1548980 121.6208780  25.6153090 140.8840890 120.6221200  26.4886020
 141.9948440 119.3034040  11.6958880 141.1641400 119.3710690  12.1666110
 142.1720270 120.1938160  11.3925740 141.4504900 116.0481520  14.1993080
 142.2123810 116.6178170  14.3052770 141.4659270 115.4808720  14.9701390
 124.9509240 114.5719450  18.4300740 124.2958080 114.3031090  17.7860440
 125.7887190 114.4623930  17.9802720 142.4564870 116.9031620  19.0435010
 142.8273700 116.1198940  18.6370980 143.0966800 117.5920720  18.8652310
 139.4398630 118.2868200  24.4565330 138.6258470 118.7165360  24.7191120
 139.8472830 118.8986610  23.8434380 141.5024070 116.3415890  11.3565600
 141.7772910 117.2494770  11.2284820 141.3134810 116.2778420  12.2927590
 137.8999680 109.3660740  12.6519230 138.3184560 109.1791720  11.8115890
 137.5935740 108.5139790  12.9622160 141.3989410 114.2784880  16.3495030
 141.0233010 113.5112810  15.9176320 140.6692530 114.6607580  16.8369960
 125.9885170 114.9572020  22.9704080 126.3558210 114.8699420  23.8500100
 125.4195990 114.1938570  22.8710940 140.7889030 113.4256400  25.9834550
 140.5575120 113.1969150  25.0832500 141.0493580 114.3455950  25.9379440
 125.5401170 111.8681110  26.8762500 124.6457220 111.8347870  27.2156210
 126.0798720 112.0667900  27.6413750 139.2277100 108.6512830  28.7614250
 140.1047280 108.6596230  29.1448250 139.2397940 107.9143670  28.1506600
 124.1647320 111.7818380  14.3726070 123.2611400 112.0448580  14.1977730
 124.6487940 112.0529550  13.5926030 140.6740370 112.5042370  19.6502270
 141.1977850 112.0105020  19.0192440 141.2599790 112.6392730  20.3949840
 140.8530090 112.5882240  23.1721820 139.9032800 112.5545780  23.2866810
 141.0343100 113.4982350  22.9371590 126.7074530 110.8383920  12.2820450
 127.4166230 110.4167140  11.7967730 125.9914470 110.9059150  11.6503800
 126.3548690 106.8923250  11.3223100 127.0776820 107.4332190  11.6404320
 126.6273210 106.6186670  10.4464640 140.1640340 111.7615720  15.5894680
 140.6599460 111.5286590  16.3743560 139.9656410 110.9227560  15.1732320
 126.0440880 106.1429440  21.2245720 126.6917070 105.5926820  20.7840880
 126.4642720 106.3972590  22.0461530 141.5927500 110.3976670  18.1232360
 141.4826780 110.2432710  19.0614630 142.3535090 109.8697610  17.8807770
 139.9393220 106.3370800  24.5815360 140.5765440 106.9504940  24.9474550
 140.0868110 106.3731460  23.6364590 142.4817770 108.2284590  11.3638500
 143.4067080 108.0965770  11.1556790 142.4593560 108.3077410  12.3174950
 142.5556260 108.9995250  13.9895210 141.7607760 108.9340370  14.5188120
 142.7599540 109.9345890  13.9780560 139.4974680 123.0386800  17.9833600
 140.0933750 122.7171370  17.3068020 139.7552830 122.5658620  18.7746870
 125.7972880 106.2985110  23.9671040 125.4487700 106.7548930  24.7329220
 125.4660580 105.4042240  24.0493470 127.4037250 119.4704710  28.1324230
 127.3606880 119.0997620  29.0138690 127.5348260 120.4082280  28.2726050
 131.1043280 121.0264300  23.7333950 130.8634640 121.2938860  22.8464470
 132.0445920 121.1970030  23.7884810 133.3097700 107.4896990  27.4890460
 133.2486590 108.0818820  28.2385870 134.2498080 107.3822950  27.3440720
 135.9472260 107.1467050  27.1282750 136.5612670 107.4646340  26.4663830
 136.4921820 106.6615640  27.7478610 142.3647440 123.0458680  24.5344590
 141.8705720 123.4427550  23.8171720 141.7560730 122.4207890  24.9281870
 126.4693520 105.8261310  27.2421810 127.0176510 105.6449360  26.4787920
 126.5348830 105.0355420  27.7778120 127.2425280 122.4166960  25.2522010
 126.6485600 122.2851660  25.9912050 127.2349120 121.5805100  24.7864110
 136.6880300 105.7099190  23.4552040 135.8140140 106.0434300  23.2524970
 136.5791050 105.2372370  24.2803910 137.5952280 107.9170060  24.8393760
 137.2665640 107.1021820  24.4595490 138.5434580 107.8739870  24.7159450
 140.0486890 123.6882100  21.8131330 139.5889860 124.4397910  21.4389350
 139.4199350 122.9688570  21.7546130 126.8737510 119.7825340  24.2030050
 126.1471570 119.1630630  24.1356000 126.9346660 120.1765950  23.3328130
 130.4782610 121.9970340  20.9879460 130.9947630 121.3857700  20.4627720
 131.1279990 122.4999120  21.4790470 133.2178110 122.8878830  21.8148440
 133.5055920 122.6333130  20.9381450 133.7301330 122.3356190  22.4054010
 134.4355120 106.6269030  22.3944950 133.6526910 107.1014530  22.6741710
 134.1418050 105.7223860  22.2858130 138.9876190 107.3292130  20.4394040
 139.4284280 107.2737230  19.5915640 138.7183780 108.2450140  20.5104220
 140.8514760 106.9607370  18.4502860 140.7903160 106.0168590  18.3033880
 141.6306790 107.0687460  18.9956320 125.1567510 123.0999730  17.4126810
 124.9889550 122.4670410  18.1108700 124.2902020 123.3059130  17.0621000
 125.7795530 106.9316510  14.9158670 126.5374890 107.0445390  14.3422700
 125.3172700 107.7685710  14.8702100 132.3209340 109.0455780  17.9060980
 131.5083850 108.6712670  17.5656860 132.8250980 108.2900860  18.2082170
 136.8234320 105.7098230  19.1444050 137.4263690 106.2818440  19.6192570
 136.0827310 106.2737670  18.9217950 139.9668920 106.1119790  14.4184330
 140.1619550 107.0103240  14.6851760 139.1798790 105.8806870  14.9117280
 126.7630210 121.7932960  14.8576950 126.2377830 122.1740990  14.1538910
 126.6874790 122.4183730  15.5786660 128.1520680 107.4580560  13.4560640
 128.6813440 106.6710360  13.3268590 128.7849000 108.1371750  13.6896170
 130.3458520 107.1955700  16.5106030 129.7161260 106.4943010  16.6776160
 129.8063660 107.9559830  16.2939190 133.2850470 123.8094930  29.1816640
 134.2117780 123.5739200  29.2252600 133.2700900 124.6366930  28.7002670
 141.5195530 123.3520500  16.1790890 141.6947720 122.6658240  15.5351810
 140.8217100 123.8767550  15.7867560 130.4714080 106.4739680  28.9458520
 130.1898350 106.9773280  28.1819340 130.8533780 105.6761430  28.5800650
 129.3623180 123.7415340  13.7326200 130.0942000 123.4574620  13.1850090
 129.6216850 123.5028620  14.6225580 128.5237970 119.8580070  13.7372530
 127.8946850 120.3265170  14.2858360 128.6385800 119.0129290  14.1718720
 137.0729540 105.8893260  29.5238990 136.9594990 106.2087870  30.4190510
 137.8899280 106.2905770  29.2276270 139.8528030 123.0364790  29.0057680
 140.6453350 122.5414020  28.7983640 140.1461180 123.7154930  29.6133290
 134.1105730 115.6864750   1.7683000 133.3347830 115.2065190   2.0581570
 134.7618660 115.0070400   1.5939160 128.1271560 115.9984560   2.6458760
 127.2956440 115.7433270   3.0455270 128.7352540 116.0695330   3.3816680
 128.1072820 120.0324650   2.8416780 128.4100860 119.1422390   2.6627000
 128.8516410 120.5894870   2.6139030 133.5514720 118.3621940   1.7753160
 133.4823000 117.4211880   1.6142290 134.3134580 118.4523350   2.3475730
 125.7421390 108.9676460   4.1009780 125.5624230 108.0702210   4.3812540
 125.3401470 109.5148330   4.7756730 126.3608060 111.4636960   2.7092120
 127.0418170 111.7275330   3.3279520 126.0456110 110.6237830   3.0430130
 130.5532630 112.5104320   1.7964710 131.0610850 113.0085290   2.4369730
 131.0845870 111.7339520   1.6204070 142.6543560 110.6809510   5.4994060
 141.9495730 111.0691220   4.9809170 142.9201480 111.3759800   6.1014990
 128.8368730 107.1502880   6.0628130 128.8387170 107.6675270   5.2574030
 128.0073040 106.6733060   6.0398060 130.0871580 116.7898060   4.2401630
 129.7540960 117.4166980   4.8822700 130.2638260 117.3159940   3.4603300
 128.5184060 108.8612840   4.0698580 128.8600870 109.7054890   3.7752450
 127.5799870 109.0096580   4.1863920 129.2990680 118.7578860   6.0550810
 129.9164680 119.4329940   5.7735260 128.4383800 119.1666840   5.9638310
 140.2168270 120.2218270   3.9705450 139.5331790 120.8917380   3.9622120
 140.7562560 120.4198920   3.2050310 141.6692410 110.0497930   2.0987180
 140.7217320 110.0836910   2.2302610 141.9942400 110.8636880   2.4836540
 137.7527010 122.0662400   2.6850630 137.7654170 121.6624690   1.8172890
 137.2002230 122.8409690   2.5812060 137.1512450 116.9692240   4.0133240
 137.5681240 116.7552350   3.1786700 137.8752270 117.2265030   4.5841860
 141.0974550 115.3679460   4.1049480 140.2693180 115.4372550   3.6299610
 141.6925030 115.9533770   3.6365310 138.0616560 112.1548780   5.0504350
 137.6487740 112.9802490   5.3044340 137.3292510 111.5693820   4.8580710
 128.9077970 111.7151890   3.6922060 129.4592560 111.8247230   2.9175310
 129.4221480 112.0889490   4.4077290 138.7516660 122.2008110   5.7385330
 138.2747220 123.0080300   5.5457940 138.0678450 121.5486440   5.8911540
 129.7549480 118.3657930   8.7270030 128.8578010 118.5897900   8.9743430
 129.7802350 118.4892870   7.7781430 128.5820700 115.2371250   7.3027400
 128.4428470 116.1094050   7.6714800 127.7002060 114.8944060   7.1575340
 130.3801050 121.1792950   9.5112550 130.3516480 121.5835900   8.6440980
 130.2166020 120.2503310   9.3484150 142.3315870 121.9620050  10.8076720
 142.8075590 122.4402940  11.4865800 142.9523030 121.8937540  10.0822220
 124.5339350 117.0068800   3.2198310 124.6119770 117.1417570   2.2754030
 125.1481030 116.2984690   3.4126430 141.7349120 119.1532900   7.9676730
 141.8612180 118.9144780   7.0493910 141.7770500 118.3217440   8.4398810
 135.5965860 122.8560900   6.5371540 136.1110530 122.7668910   7.3393970
 134.7534940 123.2020600   6.8299450 141.5873130 111.2065360   8.9326470
 140.9717400 111.7145030   8.4041930 141.2669550 110.3063690   8.8752410
 124.5898870 118.0482970   5.7592770 124.7529910 117.5788330   4.9412140
 125.0551320 117.5406530   6.4241610 133.6487450 110.0457250   6.3988660
 133.1866820 110.2540270   7.2108600 133.2465560 109.2316600   6.0959330
 138.6491960 111.2666200   7.5285320 137.7985550 110.9671950   7.8494390
 138.4893750 111.5108210   6.6169140 135.7441670 112.7667950   9.6284110
 136.0695080 111.9331700   9.2886340 136.5322000 113.2896470   9.7762440
 131.3993540 107.7236060   2.6542940 131.6965870 108.6298890   2.5734960
 131.9479100 107.2354840   2.0402510 131.5931070 113.2007880   9.1894860
 131.4974670 112.2602610   9.0395260 132.4363050 113.4222950   8.7942930
 126.7241610 109.6121550   7.3428640 126.3305000 110.4596760   7.5501420
 126.0360010 108.9747920   7.5337280 133.2986660 109.6956520  10.4125380
 132.6084980 109.5028720  11.0471470 134.0418960 109.9791160  10.9449680
 135.5749630 113.5354960   3.2479300 134.8430750 114.0441770   3.5969400
 135.1773970 112.7184940   2.9468080 136.0375540 108.9888640   2.6602240
 136.0548280 109.4397290   3.5044090 135.7891120 108.0894280   2.8735680
 139.4646290 106.4020820   8.4988620 139.7892060 105.6710480   9.0246600
 139.5002800 106.0834460   7.5969610 126.1637850 117.4234400   7.9188580
 125.7792640 116.7828070   8.5171540 126.4750040 118.1270520   8.4883310
 132.3134990 114.2710940   3.3997200 132.6805120 113.7969510   4.1458540
 132.1240050 115.1452510   3.7405540 130.1034360 113.3119580   5.7181410
 129.7991430 114.1911560   5.9431770 131.0580820 113.3719370   5.7538850
 139.3904130 116.5145930   2.1074650 140.1103250 117.0101220   1.7170760
 139.1885950 115.8363820   1.4628520 134.7722930 116.5854990   7.9943650
 134.7060240 115.6650660   7.7401240 134.1428070 116.6830430   8.7088290
 126.1598090 114.1522320   6.8652770 125.8013030 114.8176170   7.4526110
 125.8652650 113.3205870   7.2365390 129.3611210 114.6106560   9.7492320
 129.0611350 114.7563740   8.8520140 130.1322450 114.0511850   9.6565710
 134.7039660 119.4075560   7.7447450 134.7184200 118.4756520   7.5266360
 133.9964760 119.4935320   8.3837220 140.9150870 116.0482900   7.0916030
 140.1899060 116.6411680   6.8945420 141.4426330 116.0406440   6.2929400
 134.1373560 121.0493130   4.8387950 134.7815780 121.2552510   5.5161370
 134.5003000 120.2881530   4.3858800 135.4105640 119.0525480   3.5565400
 136.0527870 118.3518640   3.6697570 135.9354990 119.8323920   3.3762290
 137.1843260 119.8520380   6.7601460 137.5199500 120.4387070   7.4379380
 136.2643600 119.7213090   6.9899250 124.7346660 107.6415560   7.5424870
 124.0205180 107.8412480   8.1477480 125.1541700 106.8655130   7.9139670
 125.0219250 121.6295820   8.5291400 125.1310370 120.6890560   8.3886790
 124.3699810 121.8950570   7.8805130 133.0131840 119.9011710   9.9289520
 132.6928710 119.1820950  10.4735210 132.3390200 120.5766780  10.0025580
 136.2285440 110.1337870   5.2926320 136.5966260 109.3133080   5.6205890
 135.3683640 110.1939760   5.7081970 133.1887430 112.7877460   5.5164290
 133.6872680 113.2623280   6.1816140 133.3310380 111.8640980   5.7234320
 140.3954290 109.0045420   6.3592680 139.8927890 109.7450820   6.6986490
 141.2110950 109.3929420   6.0429470 127.1677690 122.6964730  10.3411010
 127.9690420 123.0176780  10.7546410 126.6529510 122.3360310  11.0630920
 136.0042320 118.8044600  10.2886420 135.3980480 118.8276200   9.5482170
 135.6996430 118.0727640  10.8253670 137.4342690 122.5324890   8.8995830
 138.3864440 122.4482910   8.8496070 137.2870910 123.1966600   9.5729620
 124.8875500 115.1838190   9.2847060 125.3914520 114.6045470   9.8563290
 124.1482920 115.4678420   9.8223430 131.9413440 116.5909180   8.8182580
 131.1759110 117.1594180   8.7337250 132.1229400 116.2985390   7.9250810
 139.0836790 118.3214510   9.3757600 139.8246260 118.6590270   8.8725060
 138.3209470 118.4906570   8.8227370 126.9198580 113.3267780  10.1797130
 126.9603920 113.0281650  11.0882360 127.7744080 113.7275390  10.0204650
 128.8604390 111.9059880   8.1471620 128.3300850 111.4150830   7.5194960
 129.5292460 112.3344080   7.6129550 137.7582450 116.3729340   7.9112810
 138.1723470 116.5274420   8.7603230 136.8233450 116.4984560   8.0738590
 138.2304620 113.7125500   9.9151960 138.8125390 112.9577820   9.8272440
 138.4066390 114.2432940   9.1383440 129.3476690 108.8722250   8.2268910
 129.2533560 108.2543000   7.5019780 128.7674080 109.5988540   7.9998820
 132.1138130 107.4295490   5.2596300 131.6655430 107.4519750   4.4141850
 131.4803330 107.0314510   5.8566600 132.5197680 116.3249820   5.8808740
 132.9385790 117.1682550   5.7084980 131.6006310 116.4621860   5.6515520
 134.8561580 114.0566000   7.2646580 134.9757790 113.4607140   8.0041420
 135.7155580 114.0935690   6.8447880 137.1949480 114.6103190   5.8409090
 136.6684700 115.1345810   5.2374230 137.5380820 115.2430580   6.4718820
 130.3705100 122.6302830   6.9966470 129.8326190 123.3548890   6.6775170
 130.6239060 122.1533170   6.2063810 131.6230350 110.5987350   8.5222400
 132.2130040 110.2903200   9.2100220 130.8050590 110.1267100   8.6782300
 136.4423780 110.2153160   8.7555420 135.7539300 109.5534700   8.6905410
 137.1629800 109.7691430   9.2003880 133.2267310 123.8654040   7.2553120
 133.1526010 124.7689180   7.5625490 132.3246150 123.5465940   7.2275190
 125.1184810 122.0599220   3.2968370 124.6815800 122.2400020   4.1292520
 125.6862490 122.8173840   3.1550090 140.7546990 121.5616220   7.5845680
 140.1548980 121.6208780   6.8409600 140.8840890 120.6221200   7.7142530
 139.4398630 118.2868200   5.6821840 138.6258470 118.7165360   5.9447630
 139.8472830 118.8986610   5.0690890 125.9885170 114.9572020   4.1960590
 126.3558210 114.8699420   5.0756610 125.4195990 114.1938570   4.0967450
 140.7889030 113.4256400   7.2091060 140.5575120 113.1969150   6.3089010
 141.0493580 114.3455950   7.1635950 125.5401170 111.8681110   8.1019010
 124.6457220 111.8347870   8.4412720 126.0798720 112.0667900   8.8670260
 139.2277100 108.6512830   9.9870760 140.1047280 108.6596230  10.3704760
 139.2397940 107.9143670   9.3763110 140.8530090 112.5882240   4.3978330
 139.9032800 112.5545780   4.5123320 141.0343100 113.4982350   4.1628100
 126.0440880 106.1429440   2.4502230 126.6917070 105.5926820   2.0097390
 126.4642720 106.3972590   3.2718040 139.9393220 106.3370800   5.8071870
 140.5765440 106.9504940   6.1731060 140.0868110 106.3731460   4.8621100
 125.7972880 106.2985110   5.1927550 125.4487700 106.7548930   5.9585730
 125.4660580 105.4042240   5.2749980 127.4037250 119.4704710   9.3580740
 127.3606880 119.0997620  10.2395200 127.5348260 120.4082280   9.4982560
 131.1043280 121.0264300   4.9590460 130.8634640 121.2938860   4.0720980
 132.0445920 121.1970030   5.0141320 133.3097700 107.4896990   8.7146970
 133.2486590 108.0818820   9.4642380 134.2498080 107.3822950   8.5697230
 135.9472260 107.1467050   8.3539260 136.5612670 107.4646340   7.6920340
 136.4921820 106.6615640   8.9735120 142.3647440 123.0458680   5.7601100
 141.8705720 123.4427550   5.0428230 141.7560730 122.4207890   6.1538380
 126.4693520 105.8261310   8.4678320 127.0176510 105.6449360   7.7044430
 126.5348830 105.0355420   9.0034630 127.2425280 122.4166960   6.4778520
 126.6485600 122.2851660   7.2168560 127.2349120 121.5805100   6.0120620
 136.6880300 105.7099190   4.6808550 135.8140140 106.0434300   4.4781480
 136.5791050 105.2372370   5.5060420 137.5952280 107.9170060   6.0650270
 137.2665640 107.1021820   5.6852000 138.5434580 107.8739870   5.9415960
 140.0486890 123.6882100   3.0387840 139.5889860 124.4397910   2.6645860
 139.4199350 122.9688570   2.9802640 126.8737510 119.7825340   5.4286560
 126.1471570 119.1630630   5.3612510 126.9346660 120.1765950   4.5584640
 130.4782610 121.9970340   2.2135970 130.9947630 121.3857700   1.6884230
 131.1279990 122.4999120   2.7046980 133.2178110 122.8878830   3.0404950
 133.5055920 122.6333130   2.1637960 133.7301330 122.3356190   3.6310520
 134.4355120 106.6269030   3.6201460 133.6526910 107.1014530   3.8998220
 134.1418050 105.7223860   3.5114640 133.2850470 123.8094930  10.4073150
 134.2117780 123.5739200  10.4509110 133.2700900 124.6366930   9.9259180
 130.4714080 106.4739680  10.1715030 130.1898350 106.9773280   9.4075850
 130.8533780 105.6761430   9.8057160 137.0729540 105.8893260  10.7495500
 136.9594990 106.2087870  11.6447020 137.8899280 106.2905770  10.4532780
 139.8528030 123.0364790  10.2314190 140.6453350 122.5414020  10.0240150
 140.1461180 123.7154930  10.8389800 135.9787690  95.1342240 150.0821650
 135.8981740  94.2196850 149.8113360 135.5652110  95.6309310 149.3761360
 138.1313160 101.3181450 150.7430050 137.6694690 100.5468690 151.0717220
 138.9438710 101.3447520 151.2482500 126.5363510  92.1842960 146.6249070
 125.6480210  92.5258930 146.5228950 126.8204700  91.9843280 145.7329900
 134.3576470 103.6039460 150.3634040 133.7387910 104.0596960 149.7928480
 135.2128250 103.7590920 149.9623740 128.7124900  90.7674460 147.6587450
 128.8191650  91.6678190 147.9656210 127.8017260  90.7192430 147.3682100
 138.3644010  89.8899270 149.1298350 139.1853630  89.3995840 149.1723830
 138.3978090  90.4796930 149.8830190 135.2239820  98.4878700 147.7565950
 134.6057090  98.9528150 147.1928670 135.7363070  99.1806180 148.1735460
 124.5923020  99.1735230 145.1305580 124.2151000  99.6622330 144.3990480
 124.8496090  99.8460510 145.7612110 132.2011950  87.5751620 150.5891090
 132.5086930  87.0198510 149.8726590 131.2712650  87.7096080 150.4064080
 139.0472430 100.0135130 147.9688720 138.9368760  99.0709460 148.0938140
 139.0440680 100.3750770 148.8551480 134.5892710  95.6400450 147.3251210
 133.6621990  95.5737830 147.5539680 134.7417530  96.5780580 147.2106450
 134.5761790  91.9117450 144.3218370 133.6365460  92.0731410 144.4070830
 134.8945050  92.6303130 143.7754360 138.6190000  97.2020750 147.8286460
 138.0002420  96.8640300 147.1812760 138.6014450  96.5580510 148.5365650
 130.1949350  96.1665190 150.1070940 129.7906350  95.4542440 149.6116840
 130.2812470  95.8218430 150.9958980 136.7954700  96.4407560 144.8359210
 137.2347980  95.6029990 144.6897030 137.5083120  97.0736960 144.9223350
 134.9050080 101.3803630 148.8040450 135.3445990 102.1227960 148.3895840
 134.8436970 101.6230200 149.7279410 140.3771840  87.6950370 143.1500250
 140.0644500  87.7877200 144.0499320 141.1384310  88.2731400 143.0997680
 126.8953980  95.0610170 147.6077590 126.7751580  95.7872260 146.9958860
 126.5854870  94.2913080 147.1305500 125.7786980  99.9325500 149.8252410
 125.3715060 100.0740090 148.9706010 126.6699990  99.6485660 149.6223620
 137.5720260 104.3672750 146.1603460 137.4121400 104.0775690 147.0585290
 137.4066970 103.5912880 145.6248690 130.0508640 104.1471280 147.9375080
 129.8751120 103.2306820 147.7242880 129.1964380 104.5058570 148.1772880
 137.2746390 101.8760310 144.7201460 136.5811550 101.8737600 144.0603740
 138.0169250 101.4519630 144.2895630 136.8396320 103.5023020 148.7949950
 137.2953270 102.7212400 149.1088570 137.1788840 104.2129840 149.3391130
 129.3617640  88.4045240 150.9901260 128.9185790  89.1854780 150.6585780
 129.9202630  88.7275130 151.6972200 132.4776460  88.0255940 145.8707090
 131.8530640  88.0215810 146.5960400 132.3906580  87.1586900 145.4743060
 129.1531860  93.5278810 148.7182510 128.9272780  93.3115980 149.6229130
 128.3724390  93.9607270 148.3728480 136.3829620  93.5342180 147.3173160
 135.7838510  94.2577980 147.1336780 136.9309230  93.4718960 146.5349610
 134.9894490  92.1705720 149.3476440 135.3824060  92.4877920 148.5345130
 135.3511340  91.2917600 149.4620960 124.2128890  92.7026640 142.7809360
 124.1303560  93.6457400 142.9224350 123.8611950  92.5601550 141.9021710
 127.8629400  91.3192160 150.8073920 127.5229450  91.7967390 151.5640970
 127.1006720  90.8657280 150.4475020 132.0747170  92.4377750 144.8386470
 132.1959990  92.3964230 145.7872290 131.6895680  93.3001900 144.6833200
 131.0868670  94.7478890 144.2369770 130.5185570  94.2997140 143.6105680
 131.7957670  95.1071670 143.7034920 125.1775480  90.2411140 149.7238590
 124.8922400  89.8766810 150.5617210 125.1154340  89.5091600 149.1101730
 128.6316150  98.7437080 146.5096180 127.8578410  98.2034700 146.3494900
 129.3610780  98.2243690 146.1713940 134.8514070  89.1340400 146.4451960
 134.0378680  88.6353570 146.3697270 134.6576020  89.9738650 146.0288310
 137.5662460  93.5060050 144.7414120 138.4542080  93.8177280 144.5665460
 137.5367550  92.6332300 144.3494700 128.6753550  98.4117460 150.1474990
 129.1932220  97.6085720 150.0931880 128.2237570  98.3496600 150.9891820
 133.5623050  99.6783740 145.4202290 133.9038750 100.4225970 144.9245610
 132.7335760  99.9914860 145.7827120 139.8376730  94.8171890 144.2093980
 139.7540450  95.2486110 143.3590420 140.5570920  95.2770240 144.6420800
 140.8663980 101.6714150 146.9376110 140.2240140 101.0169770 147.2119830
 140.4794640 102.0769240 146.1616780 136.4450460  98.9999580 150.7847800
 136.7974280  98.4027710 150.1249170 135.5612790  98.6743810 150.9556050
 132.5313740  99.7597270 148.1918210 133.2184870 100.3066480 148.5725800
 131.7446160 100.3038000 148.2267820 124.6706140  95.3770090 143.6835290
 125.5400990  95.6594890 143.9671210 124.1796460  96.1905960 143.5684100
 131.8340950  96.7643300 147.8043570 132.2903730  97.5748550 148.0303760
 131.4829160  96.4466440 148.6362060 127.7352730  87.1080950 148.2766090
 127.6067360  87.0998850 149.2251010 126.9114750  87.4464040 147.9257100
 139.2561360 100.5630610 143.4752460 139.0298940  99.8461050 144.0677100
 138.8657560 100.3143050 142.6374210 125.0377390 104.5897470 144.2496920
 125.3975030 105.1886810 143.5954190 124.8969730 105.1357360 145.0231950
 138.8377610  98.4802550 145.1366620 138.5499310  98.9415240 145.9244500
 139.6329780  98.0200320 145.4050840 131.0546010 101.9728670 145.0670590
 131.0456110 102.7058360 144.4515100 130.1344370 101.7260250 145.1597550
 126.6552650  97.1943560 145.8117350 126.0480600  97.9342460 145.8212650
 127.1302000  97.2842920 144.9855550 139.5947470  90.3151320 146.2961800
 138.9660630  90.4196990 145.5820030 139.0999390  90.5348100 147.0855680
 134.0405610 102.0356910 143.7295780 134.1417590 101.8320900 142.7997760
 133.1407350 101.7815190 143.9343560 131.5631500  92.5937270 147.7119680
 130.8547650  93.0623610 148.1533290 131.8475980  91.9359280 148.3464870
 135.5946930  89.3187930 149.1515470 135.4714710  89.3374060 148.2024980
 136.5431490  89.3666870 149.2713870 132.6823720 104.5543230 148.4243450
 132.9365220 104.5164620 147.5022820 131.7336200 104.4276560 148.4171700
 129.7666520  90.9022350 145.0870390 130.6157050  91.3392500 145.0210580
 129.3997790  91.2142610 145.9142450 138.6876300  95.4735110 150.0001960
 137.7466440  95.4885340 150.1749650 139.0020370  94.6871070 150.4462260
 128.6657940  97.1554710 143.5605920 129.4321210  97.0436070 144.1231350
 128.7432630  96.4592680 142.9082690 127.3604700  94.5879780 144.2438810
 127.4408290  93.6407290 144.3556210 128.2524450  94.9186660 144.3499470
 128.1619410 104.7375170 151.3473350 128.8981890 104.1890630 151.6181920
 128.5460330 105.6031180 151.2079340 125.0464890 100.8048740 147.2214860
 124.1204670 101.0469880 147.2120270 125.5121320 101.6323000 147.0999610
 131.2721720 103.9105480 143.1698920 132.0650330 104.1994310 142.7180710
 130.7526070 103.4797650 142.4911400 140.3251890 103.1375610 144.5935660
 140.0393400 102.7240750 143.7789840 140.1271440 104.0663320 144.4736180
 131.7899120  99.1308890 143.0341270 131.6849760  98.5161240 143.7602650
 131.6223340  98.6074780 142.2504280 135.0301850  98.1928920 143.6383260
 134.4811950  98.6398220 144.2826000 135.6521110  97.6878170 144.1620930
 130.6976970  97.1519840 145.5348560 131.1193390  96.9859710 146.3779950
 130.8227810  96.3420070 145.0403700 133.2104610  96.1757450 142.7825660
 133.7310270  95.4606470 142.4166810 133.8573010  96.8143320 143.0826170
 129.5935870  93.2253070 142.4806720 129.3924930  92.3620430 142.8420060
 129.4227920  93.1386430 141.5428320 137.0724180  88.0361300 145.0093600
 137.3526470  87.1929200 145.3653020 136.2989910  88.2684410 145.5232350
 128.3918670  90.3253690 142.4684600 128.6944570  90.3321120 141.5603750
 129.1313260  89.9751550 142.9652260 131.6103600  89.2688310 143.4540800
 131.2625600  88.5912300 142.8743250 131.8116370  88.8077820 144.2684190
 133.7752640 104.2569060 145.0727400 134.6703430 104.5954030 145.0946160
 133.8070270 103.5348470 144.4451680 127.4148800  99.6296110 143.3014400
 127.8523670 100.1725780 143.9571980 127.8996530  98.8043060 143.3110740
 124.6294600 102.4185140 150.7534660 124.9597610 101.5506200 150.5213300
 125.0585600 102.6243660 151.5839620 129.2256520 100.7494150 148.4136630
 128.9252060 100.6259120 149.3140540 129.1194010  99.8902740 148.0052360
 141.9948440 100.5290550 143.1163310 141.1641400 100.5967200 143.5870540
 142.1720270 101.4194670 142.8130170 141.4504900  97.2738030 145.6197510
 142.2123810  97.8434680 145.7257200 141.4659270  96.7065230 146.3905820
 124.9509240  95.7975960 149.8505170 124.2958080  95.5287600 149.2064870
 125.7887190  95.6880440 149.4007150 142.4564870  98.1288130 150.4639440
 142.8273700  97.3455450 150.0575410 143.0966800  98.8177230 150.2856740
 141.5024070  97.5672400 142.7770030 141.7772910  98.4751280 142.6489250
 141.3134810  97.5034930 143.7132020 137.8999680  90.5917250 144.0723660
 138.3184560  90.4048230 143.2320320 137.5935740  89.7396300 144.3826590
 141.3989410  95.5041390 147.7699460 141.0233010  94.7369320 147.3380750
 140.6692530  95.8864090 148.2574390 124.1647320  93.0074890 145.7930500
 123.2611400  93.2705090 145.6182160 124.6487940  93.2786060 145.0130460
 126.7074530  92.0640430 143.7024880 127.4166230  91.6423650 143.2172160
 125.9914470  92.1315660 143.0708230 126.3548690  88.1179760 142.7427530
 127.0776820  88.6588700 143.0608750 126.6273210  87.8443180 141.8669070
 140.1640340  92.9872230 147.0099110 140.6599460  92.7543100 147.7947990
 139.9656410  92.1484070 146.5936750 141.5927500  91.6233180 149.5436790
 141.4826780  91.4689220 150.4819060 142.3535090  91.0954120 149.3012200
 142.4817770  89.4541100 142.7842930 143.4067080  89.3222280 142.5761220
 142.4593560  89.5333920 143.7379380 142.5556260  90.2251760 145.4099640
 141.7607760  90.1596880 145.9392550 142.7599540  91.1602400 145.3984990
 139.4974680 104.2643310 149.4038030 140.0933750 103.9427880 148.7272450
 139.7552830 103.7915130 150.1951300 140.8514760  88.1863880 149.8707290
 140.7903160  87.2425100 149.7238310 141.6306790  88.2943970 150.4160750
 125.1567510 104.3256240 148.8331240 124.9889550 103.6926920 149.5313130
 124.2902020 104.5315640 148.4825430 125.7795530  88.1573020 146.3363100
 126.5374890  88.2701900 145.7627130 125.3172700  88.9942220 146.2906530
 132.3209340  90.2712290 149.3265410 131.5083850  89.8969180 148.9861290
 132.8250980  89.5157370 149.6286600 136.8234320  86.9354740 150.5648480
 137.4263690  87.5074950 151.0397000 136.0827310  87.4994180 150.3422380
 139.9668920  87.3376300 145.8388760 140.1619550  88.2359750 146.1056190
 139.1798790  87.1063380 146.3321710 126.7630210 103.0189470 146.2781380
 126.2377830 103.3997500 145.5743340 126.6874790 103.6440240 146.9991090
 128.1520680  88.6837070 144.8765070 128.6813440  87.8966870 144.7473020
 128.7849000  89.3628260 145.1100600 130.3458520  88.4212210 147.9310460
 129.7161260  87.7199520 148.0980590 129.8063660  89.1816340 147.7143620
 141.5195530 104.5777010 147.5995320 141.6947720 103.8914750 146.9556240
 140.8217100 105.1024060 147.2071990 129.3623180 104.9671850 145.1530630
 130.0942000 104.6831130 144.6054520 129.6216850 104.7285130 146.0430010
 128.5237970 101.0836580 145.1576960 127.8946850 101.5521680 145.7062790
 128.6385800 100.2385800 145.5923150 135.9787690  95.1342240 131.3078160
 135.8981740  94.2196850 131.0369870 135.5652110  95.6309310 130.6017870
 134.1105730  96.9121260 133.1887430 133.3347830  96.4321700 133.4786000
 134.7618660  96.2326910 133.0143590 128.1271560  97.2241070 134.0663190
 127.2956440  96.9689780 134.4659700 128.7352540  97.2951840 134.8021110
 138.1313160 101.3181450 131.9686560 137.6694690 100.5468690 132.2973730
 138.9438710 101.3447520 132.4739010 128.1072820 101.2581160 134.2621210
 128.4100860 100.3678900 134.0831430 128.8516410 101.8151380 134.0343460
 126.5363510  92.1842960 127.8505580 125.6480210  92.5258930 127.7485460
 126.8204700  91.9843280 126.9586410 124.4996520  94.7848610 133.7345280
 125.0712630  94.0170810 133.7348920 124.4998060  95.0837370 132.8251890
 134.3576470 103.6039460 131.5890550 133.7387910 104.0596960 131.0184990
 135.2128250 103.7590920 131.1880250 133.5514720  99.5878450 133.1957590
 133.4823000  98.6468390 133.0346720 134.3134580  99.6779860 133.7680160
 125.7421390  90.1932970 135.5214210 125.5624230  89.2958720 135.8016970
 125.3401470  90.7404840 136.1961160 134.5819890  92.3948830 133.4226520
 134.9584710  91.5220710 133.3100190 134.4839400  92.7307530 132.5316960
 128.7124900  90.7674460 128.8843960 128.8191650  91.6678190 129.1912720
 127.8017260  90.7192430 128.5938610 138.3644010  89.8899270 130.3554860
 139.1853630  89.3995840 130.3980340 138.3978090  90.4796930 131.1086700
 126.3608060  92.6893470 134.1296550 127.0418170  92.9531840 134.7483950
 126.0456110  91.8494340 134.4634560 130.5532630  93.7360830 133.2169140
 131.0610850  94.2341800 133.8574160 131.0845870  92.9596030 133.0408500
 142.6543560  91.9066020 136.9198490 141.9495730  92.2947730 136.4013600
 142.9201480  92.6016310 137.5219420 128.8368730  88.3759390 137.4832560
 128.8387170  88.8931780 136.6778460 128.0073040  87.8989570 137.4602490
 135.2239820  98.4878700 128.9822460 134.6057090  98.9528150 128.4185180
 135.7363070  99.1806180 129.3991970 130.0871580  98.0154570 135.6606060
 129.7540960  98.6423490 136.3027130 130.2638260  98.5416450 134.8807730
 138.6005490  91.8299650 133.1282400 137.8961060  92.1184540 133.7085510
 138.9617650  92.6399760 132.7681960 128.5184060  90.0869350 135.4903010
 128.8600870  90.9311400 135.1956880 127.5799870  90.2353090 135.6068350
 129.2990680  99.9835370 137.4755240 129.9164680 100.6586450 137.1939690
 128.4383800 100.3923350 137.3842740 124.5923020  99.1735230 126.3562090
 124.2151000  99.6622330 125.6246990 124.8496090  99.8460510 126.9868620
 140.2168270 101.4474780 135.3909880 139.5331790 102.1173890 135.3826550
 140.7562560 101.6455430 134.6254740 141.6692410  91.2754440 133.5191610
 140.7217320  91.3093420 133.6507040 141.9942400  92.0893390 133.9040970
 132.2011950  87.5751620 131.8147600 132.5086930  87.0198510 131.0983100
 131.2712650  87.7096080 131.6320590 137.7527010 103.2918910 134.1055060
 137.7654170 102.8881200 133.2377320 137.2002230 104.0666200 134.0016490
 139.0472430 100.0135130 129.1945230 138.9368760  99.0709460 129.3194650
 139.0440680 100.3750770 130.0807990 137.1512450  98.1948750 135.4337670
 137.5681240  97.9808860 134.5991130 137.8752270  98.4521540 136.0046290
 134.5892710  95.6400450 128.5507720 133.6621990  95.5737830 128.7796190
 134.7417530  96.5780580 128.4362960 134.5761790  91.9117450 125.5474880
 133.6365460  92.0731410 125.6327340 134.8945050  92.6303130 125.0010870
 141.0974550  96.5935970 135.5253910 140.2693180  96.6629060 135.0504040
 141.6925030  97.1790280 135.0569740 138.6190000  97.2020750 129.0542970
 138.0002420  96.8640300 128.4069270 138.6014450  96.5580510 129.7622160
 138.0616560  93.3805290 136.4708780 137.6487740  94.2059000 136.7248770
 137.3292510  92.7950330 136.2785140 130.1949350  96.1665190 131.3327450
 129.7906350  95.4542440 130.8373350 130.2812470  95.8218430 132.2215490
 130.6631050  99.8532750 133.4966660 130.3659340  99.2478220 132.8174440
 131.6130870  99.8910060 133.3856020 128.9077970  92.9408400 135.1126490
 129.4592560  93.0503740 134.3379740 129.4221480  93.3146000 135.8281720
 138.7516660 103.4264620 137.1589760 138.2747220 104.2336810 136.9662370
 138.0678450 102.7742950 137.3115970 129.7549480  99.5914440 140.1474460
 128.8578010  99.8154410 140.3947860 129.7802350  99.7149380 139.1985860
 136.7954700  96.4407560 126.0615720 137.2347980  95.6029990 125.9153540
 137.5083120  97.0736960 126.1479860 128.5820700  96.4627760 138.7231830
 128.4428470  97.3350560 139.0919230 127.7002060  96.1200570 138.5779770
 134.9050080 101.3803630 130.0296960 135.3445990 102.1227960 129.6152350
 134.8436970 101.6230200 130.9535920 130.3801050 102.4049460 140.9316980
 130.3516480 102.8092410 140.0645410 130.2166020 101.4759820 140.7688580
 140.3771840  87.6950370 124.3756760 140.0644500  87.7877200 125.2755830
 141.1384310  88.2731400 124.3254190 126.8953980  95.0610170 128.8334100
 126.7751580  95.7872260 128.2215370 126.5854870  94.2913080 128.3562010
 142.3315870 103.1876560 142.2281150 142.8075590 103.6659450 142.9070230
 142.9523030 103.1194050 141.5026650 124.5339350  98.2325310 134.6402740
 124.6119770  98.3674080 133.6958460 125.1481030  97.5241200 134.8330860
 125.7786980  99.9325500 131.0508920 125.3715060 100.0740090 130.1962520
 126.6699990  99.6485660 130.8480130 141.7349120 100.3789410 139.3881160
 141.8612180 100.1401290 138.4698340 141.7770500  99.5473950 139.8603240
 135.5965860 104.0817410 137.9575970 136.1110530 103.9925420 138.7598400
 134.7534940 104.4277110 138.2503880 137.5720260 104.3672750 127.3859970
 137.4121400 104.0775690 128.2841800 137.4066970 103.5912880 126.8505200
 130.0508640 104.1471280 129.1631590 129.8751120 103.2306820 128.9499390
 129.1964380 104.5058570 129.4029390 137.2746390 101.8760310 125.9457970
 136.5811550 101.8737600 125.2860250 138.0169250 101.4519630 125.5152140
 136.8396320 103.5023020 130.0206460 137.2953270 102.7212400 130.3345080
 137.1788840 104.2129840 130.5647640 141.5873130  92.4321870 140.3530900
 140.9717400  92.9401540 139.8246360 141.2669550  91.5320200 140.2956840
 124.5898870  99.2739480 137.1797200 124.7529910  98.8044840 136.3616570
 125.0551320  98.7663040 137.8446040 129.3617640  88.4045240 132.2157770
 128.9185790  89.1854780 131.8842290 129.9202630  88.7275130 132.9228710
 133.6487450  91.2713760 137.8193090 133.1866820  91.4796780 138.6313030
 133.2465560  90.4573110 137.5163760 138.6491960  92.4922710 138.9489750
 137.7985550  92.1928460 139.2698820 138.4893750  92.7364720 138.0373570
 135.7441670  93.9924460 141.0488540 136.0695080  93.1588210 140.7090770
 136.5322000  94.5152980 141.1966870 132.4776460  88.0255940 127.0963600
 131.8530640  88.0215810 127.8216910 132.3906580  87.1586900 126.6999570
 131.3993540  88.9492570 134.0747370 131.6965870  89.8555400 133.9939390
 131.9479100  88.4611350 133.4606940 129.1531860  93.5278810 129.9439020
 128.9272780  93.3115980 130.8485640 128.3724390  93.9607270 129.5984990
 136.3829620  93.5342180 128.5429670 135.7838510  94.2577980 128.3593290
 136.9309230  93.4718960 127.7606120 131.5931070  94.4264390 140.6099290
 131.4974670  93.4859120 140.4599690 132.4363050  94.6479460 140.2147360
 134.9894490  92.1705720 130.5732950 135.3824060  92.4877920 129.7601640
 135.3511340  91.2917600 130.6877470 126.7241610  90.8378060 138.7633070
 126.3305000  91.6853270 138.9705850 126.0360010  90.2004430 138.9541710
 133.2986660  90.9213030 141.8329810 132.6084980  90.7285230 142.4675900
 134.0418960  91.2047670 142.3654110 124.0258660  88.7606520 132.7963150
 123.7371710  89.3309380 133.5088130 124.7704420  88.2810970 133.1594380
 124.2128890  92.7026640 124.0065870 124.1303560  93.6457400 124.1480860
 123.8611950  92.5601550 123.1278220 135.5749630  94.7611470 134.6683730
 134.8430750  95.2698280 135.0173830 135.1773970  93.9441450 134.3672510
 132.0127020  91.4365670 133.0736220 132.0163080  90.9955620 132.2240760
 132.9078140  91.7583000 133.1808040 127.8629400  91.3192160 132.0330430
 127.5229450  91.7967390 132.7897480 127.1006720  90.8657280 131.6731530
 132.0747170  92.4377750 126.0642980 132.1959990  92.3964230 127.0128800
 131.6895680  93.3001900 125.9089710 136.0375540  90.2145150 134.0806670
 136.0548280  90.6653800 134.9248520 135.7891120  89.3150790 134.2940110
 131.0868670  94.7478890 125.4626280 130.5185570  94.2997140 124.8362190
 131.7957670  95.1071670 124.9291430 139.4646290  87.6277330 139.9193050
 139.7892060  86.8966990 140.4451030 139.5002800  87.3090970 139.0174040
 126.1637850  98.6490910 139.3393010 125.7792640  98.0084580 139.9375970
 126.4750040  99.3527030 139.9087740 132.3134990  95.4967450 134.8201630
 132.6805120  95.0226020 135.5662970 132.1240050  96.3709020 135.1609970
 125.1775480  90.2411140 130.9495100 124.8922400  89.8766810 131.7873720
 125.1154340  89.5091600 130.3358240 130.1034360  94.5376090 137.1385840
 129.7991430  95.4168070 137.3636200 131.0580820  94.5975880 137.1743280
 128.6316150  98.7437080 127.7352690 127.8578410  98.2034700 127.5751410
 129.3610780  98.2243690 127.3970450 139.3904130  97.7402440 133.5279080
 140.1103250  98.2357730 133.1375190 139.1885950  97.0620330 132.8832950
 134.8514070  89.1340400 127.6708470 134.0378680  88.6353570 127.5953780
 134.6576020  89.9738650 127.2544820 134.7722930  97.8111500 139.4148080
 134.7060240  96.8907170 139.1605670 134.1428070  97.9086940 140.1292720
 137.5662460  93.5060050 125.9670630 138.4542080  93.8177280 125.7921970
 137.5367550  92.6332300 125.5751210 128.6753550  98.4117460 131.3731500
 129.1932220  97.6085720 131.3188390 128.2237570  98.3496600 132.2148330
 133.5623050  99.6783740 126.6458800 133.9038750 100.4225970 126.1502120
 132.7335760  99.9914860 127.0083630 126.1598090  95.3778830 138.2857200
 125.8013030  96.0432680 138.8730540 125.8652650  94.5462380 138.6569820
 129.3611210  95.8363070 141.1696750 129.0611350  95.9820250 140.2724570
 130.1322450  95.2768360 141.0770140 134.7039660 100.6332070 139.1651880
 134.7184200  99.7013030 138.9470790 133.9964760 100.7191830 139.8041650
 139.8376730  94.8171890 125.4350490 139.7540450  95.2486110 124.5846930
 140.5570920  95.2770240 125.8677310 140.9150870  97.2739410 138.5120460
 140.1899060  97.8668190 138.3149850 141.4426330  97.2662950 137.7133830
 140.8663980 101.6714150 128.1632620 140.2240140 101.0169770 128.4376340
 140.4794640 102.0769240 127.3873290 136.4450460  98.9999580 132.0104310
 136.7974280  98.4027710 131.3505680 135.5612790  98.6743810 132.1812560
 132.5313740  99.7597270 129.4174720 133.2184870 100.3066480 129.7982310
 131.7446160 100.3038000 129.4524330 124.6706140  95.3770090 124.9091800
 125.5400990  95.6594890 125.1927720 124.1796460  96.1905960 124.7940610
 131.8340950  96.7643300 129.0300080 132.2903730  97.5748550 129.2560270
 131.4829160  96.4466440 129.8618570 134.1373560 102.2749640 136.2592380
 134.7815780 102.4809020 136.9365800 134.5003000 101.5138040 135.8063230
 127.7352730  87.1080950 129.5022600 127.6067360  87.0998850 130.4507520
 126.9114750  87.4464040 129.1513610 135.4105640 100.2781990 134.9769830
 136.0527870  99.5775150 135.0902000 135.9354990 101.0580430 134.7966720
 139.2561360 100.5630610 124.7008970 139.0298940  99.8461050 125.2933610
 138.8657560 100.3143050 123.8630720 137.1843260 101.0776890 138.1805890
 137.5199500 101.6643580 138.8583810 136.2643600 100.9469600 138.4103680
 125.0377390 104.5897470 125.4753430 125.3975030 105.1886810 124.8210700
 124.8969730 105.1357360 126.2488460 124.7346660  88.8672070 138.9629300
 124.0205180  89.0668990 139.5681910 125.1541700  88.0911640 139.3344100
 138.8377610  98.4802550 126.3623130 138.5499310  98.9415240 127.1501010
 139.6329780  98.0200320 126.6307350 125.0219250 102.8552330 139.9495830
 125.1310370 101.9147070 139.8091220 124.3699810 103.1207080 139.3009560
 133.0131840 101.1268220 141.3493950 132.6928710 100.4077460 141.8939640
 132.3390200 101.8023290 141.4230010 131.0546010 101.9728670 126.2927100
 131.0456110 102.7058360 125.6771610 130.1344370 101.7260250 126.3854060
 126.6552650  97.1943560 127.0373860 126.0480600  97.9342460 127.0469160
 127.1302000  97.2842920 126.2112060 136.2285440  91.3594380 136.7130750
 136.5966260  90.5389590 137.0410320 135.3683640  91.4196270 137.1286400
 139.5947470  90.3151320 127.5218310 138.9660630  90.4196990 126.8076540
 139.0999390  90.5348100 128.3112190 134.0405610 102.0356910 124.9552290
 134.1417590 101.8320900 124.0254270 133.1407350 101.7815190 125.1600070
 131.5631500  92.5937270 128.9376190 130.8547650  93.0623610 129.3789800
 131.8475980  91.9359280 129.5721380 133.1887430  94.0133970 136.9368720
 133.6872680  94.4879790 137.6020570 133.3310380  93.0897490 137.1438750
 135.5946930  89.3187930 130.3771980 135.4714710  89.3374060 129.4281490
 136.5431490  89.3666870 130.4970380 132.6823720 104.5543230 129.6499960
 132.9365220 104.5164620 128.7279330 131.7336200 104.4276560 129.6428210
 129.7666520  90.9022350 126.3126900 130.6157050  91.3392500 126.2467090
 129.3997790  91.2142610 127.1398960 140.3954290  90.2301930 137.7797110
 139.8927890  90.9707330 138.1190920 141.2110950  90.6185930 137.4633900
 138.6876300  95.4735110 131.2258470 137.7466440  95.4885340 131.4006160
 139.0020370  94.6871070 131.6718770 128.6657940  97.1554710 124.7862430
 129.4321210  97.0436070 125.3487860 128.7432630  96.4592680 124.1339200
 127.3604700  94.5879780 125.4695320 127.4408290  93.6407290 125.5812720
 128.2524450  94.9186660 125.5755980 140.6901880 102.6443960 132.9012730
 140.8149300 103.4675130 133.3736540 141.5567440 102.4334690 132.5536880
 128.1619410 104.7375170 132.5729860 128.8981890 104.1890630 132.8438430
 128.5460330 105.6031180 132.4335850 125.0464890 100.8048740 128.4471370
 124.1204670 101.0469880 128.4376780 125.5121320 101.6323000 128.3256120
 127.1677690 103.9221240 141.7615440 127.9690420 104.2433290 142.1750840
 126.6529510 103.5616820 142.4835350 131.2721720 103.9105480 124.3955430
 132.0650330 104.1994310 123.9437220 130.7526070 103.4797650 123.7167910
 136.0042320 100.0301110 141.7090850 135.3980480 100.0532710 140.9686600
 135.6996430  99.2984150 142.2458100 137.4342690 103.7581400 140.3200260
 138.3864440 103.6739420 140.2700500 137.2870910 104.4223110 140.9934050
 140.3251890 103.1375610 125.8192170 140.0393400 102.7240750 125.0046350
 140.1271440 104.0663320 125.6992690 124.8875500  96.4094700 140.7051490
 125.3914520  95.8301980 141.2767720 124.1482920  96.6934930 141.2427860
 131.7899120  99.1308890 124.2597780 131.6849760  98.5161240 124.9859160
 131.6223340  98.6074780 123.4760790 131.9413440  97.8165690 140.2387010
 131.1759110  98.3850690 140.1541680 132.1229400  97.5241900 139.3455240
 135.0301850  98.1928920 124.8639770 134.4811950  98.6398220 125.5082510
 135.6521110  97.6878170 125.3877440 139.0836790  99.5471020 140.7962030
 139.8246260  99.8846780 140.2929490 138.3209470  99.7163080 140.2431800
 126.9198580  94.5524290 141.6001560 126.9603920  94.2538160 142.5086790
 127.7744080  94.9531900 141.4409080 130.6976970  97.1519840 126.7605070
 131.1193390  96.9859710 127.6036460 130.8227810  96.3420070 126.2660210
 128.8604390  93.1316390 139.5676050 128.3300850  92.6407340 138.9399390
 129.5292460  93.5600590 139.0333980 133.2104610  96.1757450 124.0082170
 133.7310270  95.4606470 123.6423320 133.8573010  96.8143320 124.3082680
 137.7582450  97.5985850 139.3317240 138.1723470  97.7530930 140.1807660
 136.8233450  97.7241070 139.4943020 138.2304620  94.9382010 141.3356390
 138.8125390  94.1834330 141.2476870 138.4066390  95.4689450 140.5587870
 129.3476690  90.0978760 139.6473340 129.2533560  89.4799510 138.9224210
 128.7674080  90.8245050 139.4203250 132.1138130  88.6552000 136.6800730
 131.6655430  88.6776260 135.8346280 131.4803330  88.2571020 137.2771030
 132.5197680  97.5506330 137.3013170 132.9385790  98.3939060 137.1289410
 131.6006310  97.6878370 137.0719950 134.8561580  95.2822510 138.6851010
 134.9757790  94.6863650 139.4245850 135.7155580  95.3192200 138.2652310
 137.1949480  95.8359700 137.2613520 136.6684700  96.3602320 136.6578660
 137.5380820  96.4687090 137.8923250 129.5935870  93.2253070 123.7063230
 129.3924930  92.3620430 124.0676570 129.4227920  93.1386430 122.7684830
 130.3705100 103.8559340 138.4170900 129.8326190 104.5805400 138.0979600
 130.6239060 103.3789680 137.6268240 131.6230350  91.8243860 139.9426830
 132.2130040  91.5159710 140.6304650 130.8050590  91.3523610 140.0986730
 136.4423780  91.4409670 140.1759850 135.7539300  90.7791210 140.1109840
 137.1629800  90.9947940 140.6208310 137.0724180  88.0361300 126.2350110
 137.3526470  87.1929200 126.5909530 136.2989910  88.2684410 126.7488860
 128.3918670  90.3253690 123.6941110 128.6944570  90.3321120 122.7860260
 129.1313260  89.9751550 124.1908770 133.2267310 105.0910550 138.6757550
 133.1526010 105.9945690 138.9829920 132.3246150 104.7722450 138.6479620
 131.6103600  89.2688310 124.6797310 131.2625600  88.5912300 124.0999760
 131.8116370  88.8077820 125.4940700 133.7752640 104.2569060 126.2983910
 134.6703430 104.5954030 126.3202670 133.8070270 103.5348470 125.6708190
 127.4148800  99.6296110 124.5270910 127.8523670 100.1725780 125.1828490
 127.8996530  98.8043060 124.5367250 124.6294600 102.4185140 131.9791170
 124.9597610 101.5506200 131.7469810 125.0585600 102.6243660 132.8096130
 129.2256520 100.7494150 129.6393140 128.9252060 100.6259120 130.5397050
 129.1194010  99.8902740 129.2308870 125.1184810 103.2855730 134.7172800
 124.6815800 103.4656530 135.5496950 125.6862490 104.0430350 134.5754520
 140.7546990 102.7872730 139.0050110 140.1548980 102.8465290 138.2614030
 140.8840890 101.8477710 139.1346960 141.9948440 100.5290550 124.3419820
 141.1641400 100.5967200 124.8127050 142.1720270 101.4194670 124.0386680
 141.4504900  97.2738030 126.8454020 142.2123810  97.8434680 126.9513710
 141.4659270  96.7065230 127.6162330 124.9509240  95.7975960 131.0761680
 124.2958080  95.5287600 130.4321380 125.7887190  95.6880440 130.6263660
 142.4564870  98.1288130 131.6895950 142.8273700  97.3455450 131.2831920
 143.0966800  98.8177230 131.5113250 139.4398630  99.5124710 137.1026270
 138.6258470  99.9421870 137.3652060 139.8472830 100.1243120 136.4895320
 141.5024070  97.5672400 124.0026540 141.7772910  98.4751280 123.8745760
 141.3134810  97.5034930 124.9388530 137.8999680  90.5917250 125.2980170
 138.3184560  90.4048230 124.4576830 137.5935740  89.7396300 125.6083100
 141.3989410  95.5041390 128.9955970 141.0233010  94.7369320 128.5637260
 140.6692530  95.8864090 129.4830900 125.9885170  96.1828530 135.6165020
 126.3558210  96.0955930 136.4961040 125.4195990  95.4195080 135.5171880
 140.7889030  94.6512910 138.6295490 140.5575120  94.4225660 137.7293440
 141.0493580  95.5712460 138.5840380 125.5401170  93.0937620 139.5223440
 124.6457220  93.0604380 139.8617150 126.0798720  93.2924410 140.2874690
 139.2277100  89.8769340 141.4075190 140.1047280  89.8852740 141.7909190
 139.2397940  89.1400180 140.7967540 124.1647320  93.0074890 127.0187010
 123.2611400  93.2705090 126.8438670 124.6487940  93.2786060 126.2386970
 140.6740370  93.7298880 132.2963210 141.1977850  93.2361530 131.6653380
 141.2599790  93.8649240 133.0410780 140.8530090  93.8138750 135.8182760
 139.9032800  93.7802290 135.9327750 141.0343100  94.7238860 135.5832530
 126.7074530  92.0640430 124.9281390 127.4166230  91.6423650 124.4428670
 125.9914470  92.1315660 124.2964740 126.3548690  88.1179760 123.9684040
 127.0776820  88.6588700 124.2865260 126.6273210  87.8443180 123.0925580
 140.1640340  92.9872230 128.2355620 140.6599460  92.7543100 129.0204500
 139.9656410  92.1484070 127.8193260 126.0440880  87.3685950 133.8706660
 126.6917070  86.8183330 133.4301820 126.4642720  87.6229100 134.6922470
 141.5927500  91.6233180 130.7693300 141.4826780  91.4689220 131.7075570
 142.3535090  91.0954120 130.5268710 139.9393220  87.5627310 137.2276300
 140.5765440  88.1761450 137.5935490 140.0868110  87.5987970 136.2825530
 142.4817770  89.4541100 124.0099440 143.4067080  89.3222280 123.8017730
 142.4593560  89.5333920 124.9635890 142.5556260  90.2251760 126.6356150
 141.7607760  90.1596880 127.1649060 142.7599540  91.1602400 126.6241500
 139.4974680 104.2643310 130.6294540 140.0933750 103.9427880 129.9528960
 139.7552830 103.7915130 131.4207810 125.7972880  87.5241620 136.6131980
 125.4487700  87.9805440 137.3790160 125.4660580  86.6298750 136.6954410
 127.4037250 100.6961220 140.7785170 127.3606880 100.3254130 141.6599630
 127.5348260 101.6338790 140.9186990 131.1043280 102.2520810 136.3794890
 130.8634640 102.5195370 135.4925410 132.0445920 102.4226540 136.4345750
 133.3097700  88.7153500 140.1351400 133.2486590  89.3075330 140.8846810
 134.2498080  88.6079460 139.9901660 135.9472260  88.3723560 139.7743690
 136.5612670  88.6902850 139.1124770 136.4921820  87.8872150 140.3939550
 142.3647440 104.2715190 137.1805530 141.8705720 104.6684060 136.4632660
 141.7560730 103.6464400 137.5742810 126.4693520  87.0517820 139.8882750
 127.0176510  86.8705870 139.1248860 126.5348830  86.2611930 140.4239060
 127.2425280 103.6423470 137.8982950 126.6485600 103.5108170 138.6372990
 127.2349120 102.8061610 137.4325050 136.6880300  86.9355700 136.1012980
 135.8140140  87.2690810 135.8985910 136.5791050  86.4628880 136.9264850
 137.5952280  89.1426570 137.4854700 137.2665640  88.3278330 137.1056430
 138.5434580  89.0996380 137.3620390 140.0486890 104.9138610 134.4592270
 139.5889860 105.6654420 134.0850290 139.4199350 104.1945080 134.4007070
 126.8737510 101.0081850 136.8490990 126.1471570 100.3887140 136.7816940
 126.9346660 101.4022460 135.9789070 130.4782610 103.2226850 133.6340400
 130.9947630 102.6114210 133.1088660 131.1279990 103.7255630 134.1251410
 133.2178110 104.1135340 134.4609380 133.5055920 103.8589640 133.5842390
 133.7301330 103.5612700 135.0514950 134.4355120  87.8525540 135.0405890
 133.6526910  88.3271040 135.3202650 134.1418050  86.9480370 134.9319070
 138.9876190  88.5548640 133.0854980 139.4284280  88.4993740 132.2376580
 138.7183780  89.4706650 133.1565160 140.8514760  88.1863880 131.0963800
 140.7903160  87.2425100 130.9494820 141.6306790  88.2943970 131.6417260
 125.1567510 104.3256240 130.0587750 124.9889550 103.6926920 130.7569640
 124.2902020 104.5315640 129.7081940 125.7795530  88.1573020 127.5619610
 126.5374890  88.2701900 126.9883640 125.3172700  88.9942220 127.5163040
 132.3209340  90.2712290 130.5521920 131.5083850  89.8969180 130.2117800
 132.8250980  89.5157370 130.8543110 136.8234320  86.9354740 131.7904990
 137.4263690  87.5074950 132.2653510 136.0827310  87.4994180 131.5678890
 139.9668920  87.3376300 127.0645270 140.1619550  88.2359750 127.3312700
 139.1798790  87.1063380 127.5578220 126.7630210 103.0189470 127.5037890
 126.2377830 103.3997500 126.7999850 126.6874790 103.6440240 128.2247600
 128.1520680  88.6837070 126.1021580 128.6813440  87.8966870 125.9729530
 128.7849000  89.3628260 126.3357110 130.3458520  88.4212210 129.1566970
 129.7161260  87.7199520 129.3237100 129.8063660  89.1816340 128.9400130
 133.2850470 105.0351440 141.8277580 134.2117780 104.7995710 141.8713540
 133.2700900 105.8623440 141.3463610 141.5195530 104.5777010 128.8251830
 141.6947720 103.8914750 128.1812750 140.8217100 105.1024060 128.4328500
 130.4714080  87.6996190 141.5919460 130.1898350  88.2029790 140.8280280
 130.8533780  86.9017940 141.2261590 129.3623180 104.9671850 126.3787140
 130.0942000 104.6831130 125.8311030 129.6216850 104.7285130 127.2686520
 128.5237970 101.0836580 126.3833470 127.8946850 101.5521680 126.9319300
 128.6385800 100.2385800 126.8179660 137.0729540  87.1149770 142.1699930
 136.9594990  87.4344380 143.0651450 137.8899280  87.5162280 141.8737210
 139.8528030 104.2621300 141.6518620 140.6453350 103.7670530 141.4444580
 140.1461180 104.9411440 142.2594230 135.9787690  95.1342240 112.5334670
 135.8981740  94.2196850 112.2626380 135.5652110  95.6309310 111.8274380
 134.1105730  96.9121260 114.4143940 133.3347830  96.4321700 114.7042510
 134.7618660  96.2326910 114.2400100 128.1271560  97.2241070 115.2919700
 127.2956440  96.9689780 115.6916210 128.7352540  97.2951840 116.0277620
 138.1313160 101.3181450 113.1943070 137.6694690 100.5468690 113.5230240
 138.9438710 101.3447520 113.6995520 128.1072820 101.2581160 115.4877720
 128.4100860 100.3678900 115.3087940 128.8516410 101.8151380 115.2599970
 126.5363510  92.1842960 109.0762090 125.6480210  92.5258930 108.9741970
 126.8204700  91.9843280 108.1842920 124.4996520  94.7848610 114.9601790
 125.0712630  94.0170810 114.9605430 124.4998060  95.0837370 114.0508400
 134.3576470 103.6039460 112.8147060 133.7387910 104.0596960 112.2441500
 135.2128250 103.7590920 112.4136760 133.5514720  99.5878450 114.4214100
 133.4823000  98.6468390 114.2603230 134.3134580  99.6779860 114.9936670
 125.7421390  90.1932970 116.7470720 125.5624230  89.2958720 117.0273480
 125.3401470  90.7404840 117.4217670 134.5819890  92.3948830 114.6483030
 134.9584710  91.5220710 114.5356700 134.4839400  92.7307530 113.7573470
 128.7124900  90.7674460 110.1100470 128.8191650  91.6678190 110.4169230
 127.8017260  90.7192430 109.8195120 138.3644010  89.8899270 111.5811370
 139.1853630  89.3995840 111.6236850 138.3978090  90.4796930 112.3343210
 126.3608060  92.6893470 115.3553060 127.0418170  92.9531840 115.9740460
 126.0456110  91.8494340 115.6891070 130.5532630  93.7360830 114.4425650
 131.0610850  94.2341800 115.0830670 131.0845870  92.9596030 114.2665010
 142.6543560  91.9066020 118.1455000 141.9495730  92.2947730 117.6270110
 142.9201480  92.6016310 118.7475930 128.8368730  88.3759390 118.7089070
 128.8387170  88.8931780 117.9034970 128.0073040  87.8989570 118.6859000
 135.2239820  98.4878700 110.2078970 134.6057090  98.9528150 109.6441690
 135.7363070  99.1806180 110.6248480 130.0871580  98.0154570 116.8862570
 129.7540960  98.6423490 117.5283640 130.2638260  98.5416450 116.1064240
 138.6005490  91.8299650 114.3538910 137.8961060  92.1184540 114.9342020
 138.9617650  92.6399760 113.9938470 128.5184060  90.0869350 116.7159520
 128.8600870  90.9311400 116.4213390 127.5799870  90.2353090 116.8324860
 129.2990680  99.9835370 118.7011750 129.9164680 100.6586450 118.4196200
 128.4383800 100.3923350 118.6099250 124.5923020  99.1735230 107.5818600
 124.2151000  99.6622330 106.8503500 124.8496090  99.8460510 108.2125130
 140.2168270 101.4474780 116.6166390 139.5331790 102.1173890 116.6083060
 140.7562560 101.6455430 115.8511250 141.6692410  91.2754440 114.7448120
 140.7217320  91.3093420 114.8763550 141.9942400  92.0893390 115.1297480
 132.2011950  87.5751620 113.0404110 132.5086930  87.0198510 112.3239610
 131.2712650  87.7096080 112.8577100 137.7527010 103.2918910 115.3311570
 137.7654170 102.8881200 114.4633830 137.2002230 104.0666200 115.2273000
 139.0472430 100.0135130 110.4201740 138.9368760  99.0709460 110.5451160
 139.0440680 100.3750770 111.3064500 137.1512450  98.1948750 116.6594180
 137.5681240  97.9808860 115.8247640 137.8752270  98.4521540 117.2302800
 134.5892710  95.6400450 109.7764230 133.6621990  95.5737830 110.0052700
 134.7417530  96.5780580 109.6619470 134.5761790  91.9117450 106.7731390
 133.6365460  92.0731410 106.8583850 134.8945050  92.6303130 106.2267380
 141.0974550  96.5935970 116.7510420 140.2693180  96.6629060 116.2760550
 141.6925030  97.1790280 116.2826250 138.6190000  97.2020750 110.2799480
 138.0002420  96.8640300 109.6325780 138.6014450  96.5580510 110.9878670
 138.0616560  93.3805290 117.6965290 137.6487740  94.2059000 117.9505280
 137.3292510  92.7950330 117.5041650 130.1949350  96.1665190 112.5583960
 129.7906350  95.4542440 112.0629860 130.2812470  95.8218430 113.4472000
 130.6631050  99.8532750 114.7223170 130.3659340  99.2478220 114.0430950
 131.6130870  99.8910060 114.6112530 128.9077970  92.9408400 116.3383000
 129.4592560  93.0503740 115.5636250 129.4221480  93.3146000 117.0538230
 138.7516660 103.4264620 118.3846270 138.2747220 104.2336810 118.1918880
 138.0678450 102.7742950 118.5372480 129.7549480  99.5914440 121.3730970
 128.8578010  99.8154410 121.6204370 129.7802350  99.7149380 120.4242370
 136.7954700  96.4407560 107.2872230 137.2347980  95.6029990 107.1410050
 137.5083120  97.0736960 107.3736370 128.5820700  96.4627760 119.9488340
 128.4428470  97.3350560 120.3175740 127.7002060  96.1200570 119.8036280
 134.9050080 101.3803630 111.2553470 135.3445990 102.1227960 110.8408860
 134.8436970 101.6230200 112.1792430 130.3801050 102.4049460 122.1573490
 130.3516480 102.8092410 121.2901920 130.2166020 101.4759820 121.9945090
 140.3771840  87.6950370 105.6013270 140.0644500  87.7877200 106.5012340
 141.1384310  88.2731400 105.5510700 126.8953980  95.0610170 110.0590610
 126.7751580  95.7872260 109.4471880 126.5854870  94.2913080 109.5818520
 142.3315870 103.1876560 123.4537660 142.8075590 103.6659450 124.1326740
 142.9523030 103.1194050 122.7283160 124.5339350  98.2325310 115.8659250
 124.6119770  98.3674080 114.9214970 125.1481030  97.5241200 116.0587370
 125.7786980  99.9325500 112.2765430 125.3715060 100.0740090 111.4219030
 126.6699990  99.6485660 112.0736640 141.7349120 100.3789410 120.6137670
 141.8612180 100.1401290 119.6954850 141.7770500  99.5473950 121.0859750
 135.5965860 104.0817410 119.1832480 136.1110530 103.9925420 119.9854910
 134.7534940 104.4277110 119.4760390 137.5720260 104.3672750 108.6116480
 137.4121400 104.0775690 109.5098310 137.4066970 103.5912880 108.0761710
 130.0508640 104.1471280 110.3888100 129.8751120 103.2306820 110.1755900
 129.1964380 104.5058570 110.6285900 137.2746390 101.8760310 107.1714480
 136.5811550 101.8737600 106.5116760 138.0169250 101.4519630 106.7408650
 136.8396320 103.5023020 111.2462970 137.2953270 102.7212400 111.5601590
 137.1788840 104.2129840 111.7904150 141.5873130  92.4321870 121.5787410
 140.9717400  92.9401540 121.0502870 141.2669550  91.5320200 121.5213350
 124.5898870  99.2739480 118.4053710 124.7529910  98.8044840 117.5873080
 125.0551320  98.7663040 119.0702550 129.3617640  88.4045240 113.4414280
 128.9185790  89.1854780 113.1098800 129.9202630  88.7275130 114.1485220
 133.6487450  91.2713760 119.0449600 133.1866820  91.4796780 119.8569540
 133.2465560  90.4573110 118.7420270 138.6491960  92.4922710 120.1746260
 137.7985550  92.1928460 120.4955330 138.4893750  92.7364720 119.2630080
 135.7441670  93.9924460 122.2745050 136.0695080  93.1588210 121.9347280
 136.5322000  94.5152980 122.4223380 132.4776460  88.0255940 108.3220110
 131.8530640  88.0215810 109.0473420 132.3906580  87.1586900 107.9256080
 131.3993540  88.9492570 115.3003880 131.6965870  89.8555400 115.2195900
 131.9479100  88.4611350 114.6863450 129.1531860  93.5278810 111.1695530
 128.9272780  93.3115980 112.0742150 128.3724390  93.9607270 110.8241500
 136.3829620  93.5342180 109.7686180 135.7838510  94.2577980 109.5849800
 136.9309230  93.4718960 108.9862630 131.5931070  94.4264390 121.8355800
 131.4974670  93.4859120 121.6856200 132.4363050  94.6479460 121.4403870
 134.9894490  92.1705720 111.7989460 135.3824060  92.4877920 110.9858150
 135.3511340  91.2917600 111.9133980 126.7241610  90.8378060 119.9889580
 126.3305000  91.6853270 120.1962360 126.0360010  90.2004430 120.1798220
 133.2986660  90.9213030 123.0586320 132.6084980  90.7285230 123.6932410
 134.0418960  91.2047670 123.5910620 124.0258660  88.7606520 114.0219660
 123.7371710  89.3309380 114.7344640 124.7704420  88.2810970 114.3850890
 124.2128890  92.7026640 105.2322380 124.1303560  93.6457400 105.3737370
 123.8611950  92.5601550 104.3534730 135.5749630  94.7611470 115.8940240
 134.8430750  95.2698280 116.2430340 135.1773970  93.9441450 115.5929020
 132.0127020  91.4365670 114.2992730 132.0163080  90.9955620 113.4497270
 132.9078140  91.7583000 114.4064550 127.8629400  91.3192160 113.2586940
 127.5229450  91.7967390 114.0153990 127.1006720  90.8657280 112.8988040
 132.0747170  92.4377750 107.2899490 132.1959990  92.3964230 108.2385310
 131.6895680  93.3001900 107.1346220 136.0375540  90.2145150 115.3063180
 136.0548280  90.6653800 116.1505030 135.7891120  89.3150790 115.5196620
 131.0868670  94.7478890 106.6882790 130.5185570  94.2997140 106.0618700
 131.7957670  95.1071670 106.1547940 139.4646290  87.6277330 121.1449560
 139.7892060  86.8966990 121.6707540 139.5002800  87.3090970 120.2430550
 126.1637850  98.6490910 120.5649520 125.7792640  98.0084580 121.1632480
 126.4750040  99.3527030 121.1344250 132.3134990  95.4967450 116.0458140
 132.6805120  95.0226020 116.7919480 132.1240050  96.3709020 116.3866480
 125.1775480  90.2411140 112.1751610 124.8922400  89.8766810 113.0130230
 125.1154340  89.5091600 111.5614750 130.1034360  94.5376090 118.3642350
 129.7991430  95.4168070 118.5892710 131.0580820  94.5975880 118.3999790
 128.6316150  98.7437080 108.9609200 127.8578410  98.2034700 108.8007920
 129.3610780  98.2243690 108.6226960 139.3904130  97.7402440 114.7535590
 140.1103250  98.2357730 114.3631700 139.1885950  97.0620330 114.1089460
 134.8514070  89.1340400 108.8964980 134.0378680  88.6353570 108.8210290
 134.6576020  89.9738650 108.4801330 134.7722930  97.8111500 120.6404590
 134.7060240  96.8907170 120.3862180 134.1428070  97.9086940 121.3549230
 137.5662460  93.5060050 107.1927140 138.4542080  93.8177280 107.0178480
 137.5367550  92.6332300 106.8007720 128.6753550  98.4117460 112.5988010
 129.1932220  97.6085720 112.5444900 128.2237570  98.3496600 113.4404840
 133.5623050  99.6783740 107.8715310 133.9038750 100.4225970 107.3758630
 132.7335760  99.9914860 108.2340140 126.1598090  95.3778830 119.5113710
 125.8013030  96.0432680 120.0987050 125.8652650  94.5462380 119.8826330
 129.3611210  95.8363070 122.3953260 129.0611350  95.9820250 121.4981080
 130.1322450  95.2768360 122.3026650 134.7039660 100.6332070 120.3908390
 134.7184200  99.7013030 120.1727300 133.9964760 100.7191830 121.0298160
 139.8376730  94.8171890 106.6607000 139.7540450  95.2486110 105.8103440
 140.5570920  95.2770240 107.0933820 140.9150870  97.2739410 119.7376970
 140.1899060  97.8668190 119.5406360 141.4426330  97.2662950 118.9390340
 140.8663980 101.6714150 109.3889130 140.2240140 101.0169770 109.6632850
 140.4794640 102.0769240 108.6129800 136.4450460  98.9999580 113.2360820
 136.7974280  98.4027710 112.5762190 135.5612790  98.6743810 113.4069070
 132.5313740  99.7597270 110.6431230 133.2184870 100.3066480 111.0238820
 131.7446160 100.3038000 110.6780840 124.6706140  95.3770090 106.1348310
 125.5400990  95.6594890 106.4184230 124.1796460  96.1905960 106.0197120
 131.8340950  96.7643300 110.2556590 132.2903730  97.5748550 110.4816780
 131.4829160  96.4466440 111.0875080 134.1373560 102.2749640 117.4848890
 134.7815780 102.4809020 118.1622310 134.5003000 101.5138040 117.0319740
 127.7352730  87.1080950 110.7279110 127.6067360  87.0998850 111.6764030
 126.9114750  87.4464040 110.3770120 135.4105640 100.2781990 116.2026340
 136.0527870  99.5775150 116.3158510 135.9354990 101.0580430 116.0223230
 139.2561360 100.5630610 105.9265480 139.0298940  99.8461050 106.5190120
 138.8657560 100.3143050 105.0887230 137.1843260 101.0776890 119.4062400
 137.5199500 101.6643580 120.0840320 136.2643600 100.9469600 119.6360190
 125.0377390 104.5897470 106.7009940 125.3975030 105.1886810 106.0467210
 124.8969730 105.1357360 107.4744970 124.7346660  88.8672070 120.1885810
 124.0205180  89.0668990 120.7938420 125.1541700  88.0911640 120.5600610
 138.8377610  98.4802550 107.5879640 138.5499310  98.9415240 108.3757520
 139.6329780  98.0200320 107.8563860 125.0219250 102.8552330 121.1752340
 125.1310370 101.9147070 121.0347730 124.3699810 103.1207080 120.5266070
 133.0131840 101.1268220 122.5750460 132.6928710 100.4077460 123.1196150
 132.3390200 101.8023290 122.6486520 131.0546010 101.9728670 107.5183610
 131.0456110 102.7058360 106.9028120 130.1344370 101.7260250 107.6110570
 126.6552650  97.1943560 108.2630370 126.0480600  97.9342460 108.2725670
 127.1302000  97.2842920 107.4368570 136.2285440  91.3594380 117.9387260
 136.5966260  90.5389590 118.2666830 135.3683640  91.4196270 118.3542910
 139.5947470  90.3151320 108.7474820 138.9660630  90.4196990 108.0333050
 139.0999390  90.5348100 109.5368700 134.0405610 102.0356910 106.1808800
 134.1417590 101.8320900 105.2510780 133.1407350 101.7815190 106.3856580
 131.5631500  92.5937270 110.1632700 130.8547650  93.0623610 110.6046310
 131.8475980  91.9359280 110.7977890 133.1887430  94.0133970 118.1625230
 133.6872680  94.4879790 118.8277080 133.3310380  93.0897490 118.3695260
 135.5946930  89.3187930 111.6028490 135.4714710  89.3374060 110.6538000
 136.5431490  89.3666870 111.7226890 132.6823720 104.5543230 110.8756470
 132.9365220 104.5164620 109.9535840 131.7336200 104.4276560 110.8684720
 129.7666520  90.9022350 107.5383410 130.6157050  91.3392500 107.4723600
 129.3997790  91.2142610 108.3655470 140.3954290  90.2301930 119.0053620
 139.8927890  90.9707330 119.3447430 141.2110950  90.6185930 118.6890410
 138.6876300  95.4735110 112.4514980 137.7466440  95.4885340 112.6262670
 139.0020370  94.6871070 112.8975280 128.6657940  97.1554710 106.0118940
 129.4321210  97.0436070 106.5744370 128.7432630  96.4592680 105.3595710
 127.3604700  94.5879780 106.6951830 127.4408290  93.6407290 106.8069230
 128.2524450  94.9186660 106.8012490 140.6901880 102.6443960 114.1269240
 140.8149300 103.4675130 114.5993050 141.5567440 102.4334690 113.7793390
 128.1619410 104.7375170 113.7986370 128.8981890 104.1890630 114.0694940
 128.5460330 105.6031180 113.6592360 125.0464890 100.8048740 109.6727880
 124.1204670 101.0469880 109.6633290 125.5121320 101.6323000 109.5512630
 127.1677690 103.9221240 122.9871950 127.9690420 104.2433290 123.4007350
 126.6529510 103.5616820 123.7091860 131.2721720 103.9105480 105.6211940
 132.0650330 104.1994310 105.1693730 130.7526070 103.4797650 104.9424420
 136.0042320 100.0301110 122.9347360 135.3980480 100.0532710 122.1943110
 135.6996430  99.2984150 123.4714610 137.4342690 103.7581400 121.5456770
 138.3864440 103.6739420 121.4957010 137.2870910 104.4223110 122.2190560
 140.3251890 103.1375610 107.0448680 140.0393400 102.7240750 106.2302860
 140.1271440 104.0663320 106.9249200 124.8875500  96.4094700 121.9308000
 125.3914520  95.8301980 122.5024230 124.1482920  96.6934930 122.4684370
 131.7899120  99.1308890 105.4854290 131.6849760  98.5161240 106.2115670
 131.6223340  98.6074780 104.7017300 131.9413440  97.8165690 121.4643520
 131.1759110  98.3850690 121.3798190 132.1229400  97.5241900 120.5711750
 135.0301850  98.1928920 106.0896280 134.4811950  98.6398220 106.7339020
 135.6521110  97.6878170 106.6133950 139.0836790  99.5471020 122.0218540
 139.8246260  99.8846780 121.5186000 138.3209470  99.7163080 121.4688310
 126.9198580  94.5524290 122.8258070 126.9603920  94.2538160 123.7343300
 127.7744080  94.9531900 122.6665590 130.6976970  97.1519840 107.9861580
 131.1193390  96.9859710 108.8292970 130.8227810  96.3420070 107.4916720
 128.8604390  93.1316390 120.7932560 128.3300850  92.6407340 120.1655900
 129.5292460  93.5600590 120.2590490 133.2104610  96.1757450 105.2338680
 133.7310270  95.4606470 104.8679830 133.8573010  96.8143320 105.5339190
 137.7582450  97.5985850 120.5573750 138.1723470  97.7530930 121.4064170
 136.8233450  97.7241070 120.7199530 138.2304620  94.9382010 122.5612900
 138.8125390  94.1834330 122.4733380 138.4066390  95.4689450 121.7844380
 129.3476690  90.0978760 120.8729850 129.2533560  89.4799510 120.1480720
 128.7674080  90.8245050 120.6459760 132.1138130  88.6552000 117.9057240
 131.6655430  88.6776260 117.0602790 131.4803330  88.2571020 118.5027540
 132.5197680  97.5506330 118.5269680 132.9385790  98.3939060 118.3545920
 131.6006310  97.6878370 118.2976460 134.8561580  95.2822510 119.9107520
 134.9757790  94.6863650 120.6502360 135.7155580  95.3192200 119.4908820
 137.1949480  95.8359700 118.4870030 136.6684700  96.3602320 117.8835170
 137.5380820  96.4687090 119.1179760 129.5935870  93.2253070 104.9319740
 129.3924930  92.3620430 105.2933080 129.4227920  93.1386430 103.9941340
 130.3705100 103.8559340 119.6427410 129.8326190 104.5805400 119.3236110
 130.6239060 103.3789680 118.8524750 131.6230350  91.8243860 121.1683340
 132.2130040  91.5159710 121.8561160 130.8050590  91.3523610 121.3243240
 136.4423780  91.4409670 121.4016360 135.7539300  90.7791210 121.3366350
 137.1629800  90.9947940 121.8464820 137.0724180  88.0361300 107.4606620
 137.3526470  87.1929200 107.8166040 136.2989910  88.2684410 107.9745370
 128.3918670  90.3253690 104.9197620 128.6944570  90.3321120 104.0116770
 129.1313260  89.9751550 105.4165280 133.2267310 105.0910550 119.9014060
 133.1526010 105.9945690 120.2086430 132.3246150 104.7722450 119.8736130
 131.6103600  89.2688310 105.9053820 131.2625600  88.5912300 105.3256270
 131.8116370  88.8077820 106.7197210 133.7752640 104.2569060 107.5240420
 134.6703430 104.5954030 107.5459180 133.8070270 103.5348470 106.8964700
 127.4148800  99.6296110 105.7527420 127.8523670 100.1725780 106.4085000
 127.8996530  98.8043060 105.7623760 124.6294600 102.4185140 113.2047680
 124.9597610 101.5506200 112.9726320 125.0585600 102.6243660 114.0352640
 129.2256520 100.7494150 110.8649650 128.9252060 100.6259120 111.7653560
 129.1194010  99.8902740 110.4565380 125.1184810 103.2855730 115.9429310
 124.6815800 103.4656530 116.7753460 125.6862490 104.0430350 115.8011030
 140.7546990 102.7872730 120.2306620 140.1548980 102.8465290 119.4870540
 140.8840890 101.8477710 120.3603470 141.9948440 100.5290550 105.5676330
 141.1641400 100.5967200 106.0383560 142.1720270 101.4194670 105.2643190
 141.4504900  97.2738030 108.0710530 142.2123810  97.8434680 108.1770220
 141.4659270  96.7065230 108.8418840 124.9509240  95.7975960 112.3018190
 124.2958080  95.5287600 111.6577890 125.7887190  95.6880440 111.8520170
 142.4564870  98.1288130 112.9152460 142.8273700  97.3455450 112.5088430
 143.0966800  98.8177230 112.7369760 139.4398630  99.5124710 118.3282780
 138.6258470  99.9421870 118.5908570 139.8472830 100.1243120 117.7151830
 141.5024070  97.5672400 105.2283050 141.7772910  98.4751280 105.1002270
 141.3134810  97.5034930 106.1645040 137.8999680  90.5917250 106.5236680
 138.3184560  90.4048230 105.6833340 137.5935740  89.7396300 106.8339610
 141.3989410  95.5041390 110.2212480 141.0233010  94.7369320 109.7893770
 140.6692530  95.8864090 110.7087410 125.9885170  96.1828530 116.8421530
 126.3558210  96.0955930 117.7217550 125.4195990  95.4195080 116.7428390
 140.7889030  94.6512910 119.8552000 140.5575120  94.4225660 118.9549950
 141.0493580  95.5712460 119.8096890 125.5401170  93.0937620 120.7479950
 124.6457220  93.0604380 121.0873660 126.0798720  93.2924410 121.5131200
 139.2277100  89.8769340 122.6331700 140.1047280  89.8852740 123.0165700
 139.2397940  89.1400180 122.0224050 124.1647320  93.0074890 108.2443520
 123.2611400  93.2705090 108.0695180 124.6487940  93.2786060 107.4643480
 140.6740370  93.7298880 113.5219720 141.1977850  93.2361530 112.8909890
 141.2599790  93.8649240 114.2667290 140.8530090  93.8138750 117.0439270
 139.9032800  93.7802290 117.1584260 141.0343100  94.7238860 116.8089040
 126.7074530  92.0640430 106.1537900 127.4166230  91.6423650 105.6685180
 125.9914470  92.1315660 105.5221250 126.3548690  88.1179760 105.1940550
 127.0776820  88.6588700 105.5121770 126.6273210  87.8443180 104.3182090
 140.1640340  92.9872230 109.4612130 140.6599460  92.7543100 110.2461010
 139.9656410  92.1484070 109.0449770 126.0440880  87.3685950 115.0963170
 126.6917070  86.8183330 114.6558330 126.4642720  87.6229100 115.9178980
 141.5927500  91.6233180 111.9949810 141.4826780  91.4689220 112.9332080
 142.3535090  91.0954120 111.7525220 139.9393220  87.5627310 118.4532810
 140.5765440  88.1761450 118.8192000 140.0868110  87.5987970 117.5082040
 142.4817770  89.4541100 105.2355950 143.4067080  89.3222280 105.0274240
 142.4593560  89.5333920 106.1892400 142.5556260  90.2251760 107.8612660
 141.7607760  90.1596880 108.3905570 142.7599540  91.1602400 107.8498010
 139.4974680 104.2643310 111.8551050 140.0933750 103.9427880 111.1785470
 139.7552830 103.7915130 112.6464320 125.7972880  87.5241620 117.8388490
 125.4487700  87.9805440 118.6046670 125.4660580  86.6298750 117.9210920
 127.4037250 100.6961220 122.0041680 127.3606880 100.3254130 122.8856140
 127.5348260 101.6338790 122.1443500 131.1043280 102.2520810 117.6051400
 130.8634640 102.5195370 116.7181920 132.0445920 102.4226540 117.6602260
 133.3097700  88.7153500 121.3607910 133.2486590  89.3075330 122.1103320
 134.2498080  88.6079460 121.2158170 135.9472260  88.3723560 121.0000200
 136.5612670  88.6902850 120.3381280 136.4921820  87.8872150 121.6196060
 142.3647440 104.2715190 118.4062040 141.8705720 104.6684060 117.6889170
 141.7560730 103.6464400 118.7999320 126.4693520  87.0517820 121.1139260
 127.0176510  86.8705870 120.3505370 126.5348830  86.2611930 121.6495570
 127.2425280 103.6423470 119.1239460 126.6485600 103.5108170 119.8629500
 127.2349120 102.8061610 118.6581560 136.6880300  86.9355700 117.3269490
 135.8140140  87.2690810 117.1242420 136.5791050  86.4628880 118.1521360
 137.5952280  89.1426570 118.7111210 137.2665640  88.3278330 118.3312940
 138.5434580  89.0996380 118.5876900 140.0486890 104.9138610 115.6848780
 139.5889860 105.6654420 115.3106800 139.4199350 104.1945080 115.6263580
 126.8737510 101.0081850 118.0747500 126.1471570 100.3887140 118.0073450
 126.9346660 101.4022460 117.2045580 130.4782610 103.2226850 114.8596910
 130.9947630 102.6114210 114.3345170 131.1279990 103.7255630 115.3507920
 133.2178110 104.1135340 115.6865890 133.5055920 103.8589640 114.8098900
 133.7301330 103.5612700 116.2771460 134.4355120  87.8525540 116.2662400
 133.6526910  88.3271040 116.5459160 134.1418050  86.9480370 116.1575580
 138.9876190  88.5548640 114.3111490 139.4284280  88.4993740 113.4633090
 138.7183780  89.4706650 114.3821670 140.8514760  88.1863880 112.3220310
 140.7903160  87.2425100 112.1751330 141.6306790  88.2943970 112.8673770
 125.1567510 104.3256240 111.2844260 124.9889550 103.6926920 111.9826150
 124.2902020 104.5315640 110.9338450 125.7795530  88.1573020 108.7876120
 126.5374890  88.2701900 108.2140150 125.3172700  88.9942220 108.7419550
 132.3209340  90.2712290 111.7778430 131.5083850  89.8969180 111.4374310
 132.8250980  89.5157370 112.0799620 136.8234320  86.9354740 113.0161500
 137.4263690  87.5074950 113.4910020 136.0827310  87.4994180 112.7935400
 139.9668920  87.3376300 108.2901780 140.1619550  88.2359750 108.5569210
 139.1798790  87.1063380 108.7834730 126.7630210 103.0189470 108.7294400
 126.2377830 103.3997500 108.0256360 126.6874790 103.6440240 109.4504110
 128.1520680  88.6837070 107.3278090 128.6813440  87.8966870 107.1986040
 128.7849000  89.3628260 107.5613620 130.3458520  88.4212210 110.3823480
 129.7161260  87.7199520 110.5493610 129.8063660  89.1816340 110.1656640
 133.2850470 105.0351440 123.0534090 134.2117780 104.7995710 123.0970050
 133.2700900 105.8623440 122.5720120 141.5195530 104.5777010 110.0508340
 141.6947720 103.8914750 109.4069260 140.8217100 105.1024060 109.6585010
 130.4714080  87.6996190 122.8175970 130.1898350  88.2029790 122.0536790
 130.8533780  86.9017940 122.4518100 129.3623180 104.9671850 107.6043650
 130.0942000 104.6831130 107.0567540 129.6216850 104.7285130 108.4943030
 128.5237970 101.0836580 107.6089980 127.8946850 101.5521680 108.1575810
 128.6385800 100.2385800 108.0436170 137.0729540  87.1149770 123.3956440
 136.9594990  87.4344380 124.2907960 137.8899280  87.5162280 123.0993720
 139.8528030 104.2621300 122.8775130 140.6453350 103.7670530 122.6701090
 140.1461180 104.9411440 123.4850740 134.1105730  96.9121260  95.6400450
 133.3347830  96.4321700  95.9299020 134.7618660  96.2326910  95.4656610
 138.1313160 101.3181450  94.4199580 137.6694690 100.5468690  94.7486750
 138.9438710 101.3447520  94.9252030 126.5363510  92.1842960  90.3018600
 125.6480210  92.5258930  90.1998480 126.8204700  91.9843280  89.4099430
 134.3576470 103.6039460  94.0403570 133.7387910 104.0596960  93.4698010
 135.2128250 103.7590920  93.6393270 133.5514720  99.5878450  95.6470610
 133.4823000  98.6468390  95.4859740 134.3134580  99.6779860  96.2193180
 125.7421390  90.1932970  97.9727230 125.5624230  89.2958720  98.2529990
 125.3401470  90.7404840  98.6474180 134.5819890  92.3948830  95.8739540
 134.9584710  91.5220710  95.7613210 134.4839400  92.7307530  94.9829980
 142.6543560  91.9066020  99.3711510 141.9495730  92.2947730  98.8526620
 142.9201480  92.6016310  99.9732440 128.8368730  88.3759390  99.9345580
 128.8387170  88.8931780  99.1291480 128.0073040  87.8989570  99.9115510
 135.2239820  98.4878700  91.4335480 134.6057090  98.9528150  90.8698200
 135.7363070  99.1806180  91.8504990 138.6005490  91.8299650  95.5795420
 137.8961060  92.1184540  96.1598530 138.9617650  92.6399760  95.2194980
 128.5184060  90.0869350  97.9416030 128.8600870  90.9311400  97.6469900
 127.5799870  90.2353090  98.0581370 124.5923020  99.1735230  88.8075110
 124.2151000  99.6622330  88.0760010 124.8496090  99.8460510  89.4381640
 140.2168270 101.4474780  97.8422900 139.5331790 102.1173890  97.8339570
 140.7562560 101.6455430  97.0767760 141.6692410  91.2754440  95.9704630
 140.7217320  91.3093420  96.1020060 141.9942400  92.0893390  96.3553990
 132.2011950  87.5751620  94.2660620 132.5086930  87.0198510  93.5496120
 131.2712650  87.7096080  94.0833610 137.7527010 103.2918910  96.5568080
 137.7654170 102.8881200  95.6890340 137.2002230 104.0666200  96.4529510
 139.0472430 100.0135130  91.6458250 138.9368760  99.0709460  91.7707670
 139.0440680 100.3750770  92.5321010 137.1512450  98.1948750  97.8850690
 137.5681240  97.9808860  97.0504150 137.8752270  98.4521540  98.4559310
 141.0974550  96.5935970  97.9766930 140.2693180  96.6629060  97.5017060
 141.6925030  97.1790280  97.5082760 138.6190000  97.2020750  91.5055990
 138.0002420  96.8640300  90.8582290 138.6014450  96.5580510  92.2135180
 138.0616560  93.3805290  98.9221800 137.6487740  94.2059000  99.1761790
 137.3292510  92.7950330  98.7298160 130.6631050  99.8532750  95.9479680
 130.3659340  99.2478220  95.2687460 131.6130870  99.8910060  95.8369040
 138.7516660 103.4264620  99.6102780 138.2747220 104.2336810  99.4175390
 138.0678450 102.7742950  99.7628990 129.7549480  99.5914440 102.5987480
 128.8578010  99.8154410 102.8460880 129.7802350  99.7149380 101.6498880
 134.9050080 101.3803630  92.4809980 135.3445990 102.1227960  92.0665370
 134.8436970 101.6230200  93.4048940 130.3801050 102.4049460 103.3830000
 130.3516480 102.8092410 102.5158430 130.2166020 101.4759820 103.2201600
 140.3771840  87.6950370  86.8269780 140.0644500  87.7877200  87.7268850
 141.1384310  88.2731400  86.7767210 142.3315870 103.1876560 104.6794170
 142.8075590 103.6659450 105.3583250 142.9523030 103.1194050 103.9539670
 125.7786980  99.9325500  93.5021940 125.3715060 100.0740090  92.6475540
 126.6699990  99.6485660  93.2993150 141.7349120 100.3789410 101.8394180
 141.8612180 100.1401290 100.9211360 141.7770500  99.5473950 102.3116260
 135.5965860 104.0817410 100.4088990 136.1110530 103.9925420 101.2111420
 134.7534940 104.4277110 100.7016900 137.5720260 104.3672750  89.8372990
 137.4121400 104.0775690  90.7354820 137.4066970 103.5912880  89.3018220
 130.0508640 104.1471280  91.6144610 129.8751120 103.2306820  91.4012410
 129.1964380 104.5058570  91.8542410 137.2746390 101.8760310  88.3970990
 136.5811550 101.8737600  87.7373270 138.0169250 101.4519630  87.9665160
 136.8396320 103.5023020  92.4719480 137.2953270 102.7212400  92.7858100
 137.1788840 104.2129840  93.0160660 141.5873130  92.4321870 102.8043920
 140.9717400  92.9401540 102.2759380 141.2669550  91.5320200 102.7469860
 129.3617640  88.4045240  94.6670790 128.9185790  89.1854780  94.3355310
 129.9202630  88.7275130  95.3741730 133.6487450  91.2713760 100.2706110
 133.1866820  91.4796780 101.0826050 133.2465560  90.4573110  99.9676780
 138.6491960  92.4922710 101.4002770 137.7985550  92.1928460 101.7211840
 138.4893750  92.7364720 100.4886590 135.7441670  93.9924460 103.5001560
 136.0695080  93.1588210 103.1603790 136.5322000  94.5152980 103.6479890
 132.4776460  88.0255940  89.5476620 131.8530640  88.0215810  90.2729930
 132.3906580  87.1586900  89.1512590 131.3993540  88.9492570  96.5260390
 131.6965870  89.8555400  96.4452410 131.9479100  88.4611350  95.9119960
 131.5931070  94.4264390 103.0612310 131.4974670  93.4859120 102.9112710
 132.4363050  94.6479460 102.6660380 126.7241610  90.8378060 101.2146090
 126.3305000  91.6853270 101.4218870 126.0360010  90.2004430 101.4054730
 133.2986660  90.9213030 104.2842830 132.6084980  90.7285230 104.9188920
 134.0418960  91.2047670 104.8167130 124.0258660  88.7606520  95.2476170
 123.7371710  89.3309380  95.9601150 124.7704420  88.2810970  95.6107400
 124.2128890  92.7026640  86.4578890 124.1303560  93.6457400  86.5993880
 123.8611950  92.5601550  85.5791240 135.5749630  94.7611470  97.1196750
 134.8430750  95.2698280  97.4686850 135.1773970  93.9441450  96.8185530
 132.0747170  92.4377750  88.5156000 132.1959990  92.3964230  89.4641820
 131.6895680  93.3001900  88.3602730 136.0375540  90.2145150  96.5319690
 136.0548280  90.6653800  97.3761540 135.7891120  89.3150790  96.7453130
 139.4646290  87.6277330 102.3706070 139.7892060  86.8966990 102.8964050
 139.5002800  87.3090970 101.4687060 125.1775480  90.2411140  93.4008120
 124.8922400  89.8766810  94.2386740 125.1154340  89.5091600  92.7871260
 139.3904130  97.7402440  95.9792100 140.1103250  98.2357730  95.5888210
 139.1885950  97.0620330  95.3345970 134.7722930  97.8111500 101.8661100
 134.7060240  96.8907170 101.6118690 134.1428070  97.9086940 102.5805740
 129.3611210  95.8363070 103.6209770 129.0611350  95.9820250 102.7237590
 130.1322450  95.2768360 103.5283160 134.7039660 100.6332070 101.6164900
 134.7184200  99.7013030 101.3983810 133.9964760 100.7191830 102.2554670
 140.9150870  97.2739410 100.9633480 140.1899060  97.8668190 100.7662870
 141.4426330  97.2662950 100.1646850 140.8663980 101.6714150  90.6145640
 140.2240140 101.0169770  90.8889360 140.4794640 102.0769240  89.8386310
 136.4450460  98.9999580  94.4617330 136.7974280  98.4027710  93.8018700
 135.5612790  98.6743810  94.6325580 124.6706140  95.3770090  87.3604820
 125.5400990  95.6594890  87.6440740 124.1796460  96.1905960  87.2453630
 131.8340950  96.7643300  91.4813100 132.2903730  97.5748550  91.7073290
 131.4829160  96.4466440  92.3131590 134.1373560 102.2749640  98.7105400
 134.7815780 102.4809020  99.3878820 134.5003000 101.5138040  98.2576250
 127.7352730  87.1080950  91.9535620 127.6067360  87.0998850  92.9020540
 126.9114750  87.4464040  91.6026630 135.4105640 100.2781990  97.4282850
 136.0527870  99.5775150  97.5415020 135.9354990 101.0580430  97.2479740
 139.2561360 100.5630610  87.1521990 139.0298940  99.8461050  87.7446630
 138.8657560 100.3143050  86.3143740 137.1843260 101.0776890 100.6318910
 137.5199500 101.6643580 101.3096830 136.2643600 100.9469600 100.8616700
 125.0377390 104.5897470  87.9266450 125.3975030 105.1886810  87.2723720
 124.8969730 105.1357360  88.7001480 124.7346660  88.8672070 101.4142320
 124.0205180  89.0668990 102.0194930 125.1541700  88.0911640 101.7857120
 138.8377610  98.4802550  88.8136150 138.5499310  98.9415240  89.6014030
 139.6329780  98.0200320  89.0820370 133.0131840 101.1268220 103.8006970
 132.6928710 100.4077460 104.3452660 132.3390200 101.8023290 103.8743030
 136.2285440  91.3594380  99.1643770 136.5966260  90.5389590  99.4923340
 135.3683640  91.4196270  99.5799420 134.0405610 102.0356910  87.4065310
 134.1417590 101.8320900  86.4767290 133.1407350 101.7815190  87.6113090
 131.5631500  92.5937270  91.3889210 130.8547650  93.0623610  91.8302820
 131.8475980  91.9359280  92.0234400 133.1887430  94.0133970  99.3881740
 133.6872680  94.4879790 100.0533590 133.3310380  93.0897490  99.5951770
 132.6823720 104.5543230  92.1012980 132.9365220 104.5164620  91.1792350
 131.7336200 104.4276560  92.0941230 140.3954290  90.2301930 100.2310130
 139.8927890  90.9707330 100.5703940 141.2110950  90.6185930  99.9146920
 138.6876300  95.4735110  93.6771490 137.7466440  95.4885340  93.8519180
 139.0020370  94.6871070  94.1231790 140.6901880 102.6443960  95.3525750
 140.8149300 103.4675130  95.8249560 141.5567440 102.4334690  95.0049900
 128.1619410 104.7375170  95.0242880 128.8981890 104.1890630  95.2951450
 128.5460330 105.6031180  94.8848870 125.0464890 100.8048740  90.8984390
 124.1204670 101.0469880  90.8889800 125.5121320 101.6323000  90.7769140
 127.1677690 103.9221240 104.2128460 127.9690420 104.2433290 104.6263860
 126.6529510 103.5616820 104.9348370 131.2721720 103.9105480  86.8468450
 132.0650330 104.1994310  86.3950240 130.7526070 103.4797650  86.1680930
 136.0042320 100.0301110 104.1603870 135.3980480 100.0532710 103.4199620
 135.6996430  99.2984150 104.6971120 137.4342690 103.7581400 102.7713280
 138.3864440 103.6739420 102.7213520 137.2870910 104.4223110 103.4447070
 140.3251890 103.1375610  88.2705190 140.0393400 102.7240750  87.4559370
 140.1271440 104.0663320  88.1505710 124.8875500  96.4094700 103.1564510
 125.3914520  95.8301980 103.7280740 124.1482920  96.6934930 103.6940880
 131.9413440  97.8165690 102.6900030 131.1759110  98.3850690 102.6054700
 132.1229400  97.5241900 101.7968260 135.0301850  98.1928920  87.3152790
 134.4811950  98.6398220  87.9595530 135.6521110  97.6878170  87.8390460
 139.0836790  99.5471020 103.2475050 139.8246260  99.8846780 102.7442510
 138.3209470  99.7163080 102.6944820 126.9198580  94.5524290 104.0514580
 126.9603920  94.2538160 104.9599810 127.7744080  94.9531900 103.8922100
 128.8604390  93.1316390 102.0189070 128.3300850  92.6407340 101.3912410
 129.5292460  93.5600590 101.4847000 133.2104610  96.1757450  86.4595190
 133.7310270  95.4606470  86.0936340 133.8573010  96.8143320  86.7595700
 137.7582450  97.5985850 101.7830260 138.1723470  97.7530930 102.6320680
 136.8233450  97.7241070 101.9456040 138.2304620  94.9382010 103.7869410
 138.8125390  94.1834330 103.6989890 138.4066390  95.4689450 103.0100890
 129.3476690  90.0978760 102.0986360 129.2533560  89.4799510 101.3737230
 128.7674080  90.8245050 101.8716270 132.1138130  88.6552000  99.1313750
 131.6655430  88.6776260  98.2859300 131.4803330  88.2571020  99.7284050
 132.5197680  97.5506330  99.7526190 132.9385790  98.3939060  99.5802430
 131.6006310  97.6878370  99.5232970 134.8561580  95.2822510 101.1364030
 134.9757790  94.6863650 101.8758870 135.7155580  95.3192200 100.7165330
 137.1949480  95.8359700  99.7126540 136.6684700  96.3602320  99.1091680
 137.5380820  96.4687090 100.3436270 130.3705100 103.8559340 100.8683920
 129.8326190 104.5805400 100.5492620 130.6239060 103.3789680 100.0781260
 131.6230350  91.8243860 102.3939850 132.2130040  91.5159710 103.0817670
 130.8050590  91.3523610 102.5499750 136.4423780  91.4409670 102.6272870
 135.7539300  90.7791210 102.5622860 137.1629800  90.9947940 103.0721330
 133.2267310 105.0910550 101.1270570 133.1526010 105.9945690 101.4342940
 132.3246150 104.7722450 101.0992640 133.7752640 104.2569060  88.7496930
 134.6703430 104.5954030  88.7715690 133.8070270 103.5348470  88.1221210
 140.7546990 102.7872730 101.4563130 140.1548980 102.8465290 100.7127050
 140.8840890 101.8477710 101.5859980 141.9948440 100.5290550  86.7932840
 141.1641400 100.5967200  87.2640070 142.1720270 101.4194670  86.4899700
 141.4504900  97.2738030  89.2967040 142.2123810  97.8434680  89.4026730
 141.4659270  96.7065230  90.0675350 124.9509240  95.7975960  93.5274700
 124.2958080  95.5287600  92.8834400 125.7887190  95.6880440  93.0776680
 142.4564870  98.1288130  94.1408970 142.8273700  97.3455450  93.7344940
 143.0966800  98.8177230  93.9626270 139.4398630  99.5124710  99.5539290
 138.6258470  99.9421870  99.8165080 139.8472830 100.1243120  98.9408340
 141.5024070  97.5672400  86.4539560 141.7772910  98.4751280  86.3258780
 141.3134810  97.5034930  87.3901550 141.3989410  95.5041390  91.4468990
 141.0233010  94.7369320  91.0150280 140.6692530  95.8864090  91.9343920
 140.7889030  94.6512910 101.0808510 140.5575120  94.4225660 100.1806460
 141.0493580  95.5712460 101.0353400 139.2277100  89.8769340 103.8588210
 140.1047280  89.8852740 104.2422210 139.2397940  89.1400180 103.2480560
 124.1647320  93.0074890  89.4700030 123.2611400  93.2705090  89.2951690
 124.6487940  93.2786060  88.6899990 140.6740370  93.7298880  94.7476230
 141.1977850  93.2361530  94.1166400 141.2599790  93.8649240  95.4923800
 140.8530090  93.8138750  98.2695780 139.9032800  93.7802290  98.3840770
 141.0343100  94.7238860  98.0345550 141.5927500  91.6233180  93.2206320
 141.4826780  91.4689220  94.1588590 142.3535090  91.0954120  92.9781730
 139.9393220  87.5627310  99.6789320 140.5765440  88.1761450 100.0448510
 140.0868110  87.5987970  98.7338550 142.4817770  89.4541100  86.4612460
 143.4067080  89.3222280  86.2530750 142.4593560  89.5333920  87.4148910
 142.5556260  90.2251760  89.0869170 141.7607760  90.1596880  89.6162080
 142.7599540  91.1602400  89.0754520 139.4974680 104.2643310  93.0807560
 140.0933750 103.9427880  92.4041980 139.7552830 103.7915130  93.8720830
 125.7972880  87.5241620  99.0645000 125.4487700  87.9805440  99.8303180
 125.4660580  86.6298750  99.1467430 127.4037250 100.6961220 103.2298190
 127.3606880 100.3254130 104.1112650 127.5348260 101.6338790 103.3700010
 131.1043280 102.2520810  98.8307910 130.8634640 102.5195370  97.9438430
 132.0445920 102.4226540  98.8858770 133.3097700  88.7153500 102.5864420
 133.2486590  89.3075330 103.3359830 134.2498080  88.6079460 102.4414680
 135.9472260  88.3723560 102.2256710 136.5612670  88.6902850 101.5637790
 136.4921820  87.8872150 102.8452570 142.3647440 104.2715190  99.6318550
 141.8705720 104.6684060  98.9145680 141.7560730 103.6464400 100.0255830
 126.4693520  87.0517820 102.3395770 127.0176510  86.8705870 101.5761880
 126.5348830  86.2611930 102.8752080 136.6880300  86.9355700  98.5526000
 135.8140140  87.2690810  98.3498930 136.5791050  86.4628880  99.3777870
 137.5952280  89.1426570  99.9367720 137.2665640  88.3278330  99.5569450
 138.5434580  89.0996380  99.8133410 140.0486890 104.9138610  96.9105290
 139.5889860 105.6654420  96.5363310 139.4199350 104.1945080  96.8520090
 130.4782610 103.2226850  96.0853420 130.9947630 102.6114210  95.5601680
 131.1279990 103.7255630  96.5764430 133.2178110 104.1135340  96.9122400
 133.5055920 103.8589640  96.0355410 133.7301330 103.5612700  97.5027970
 134.4355120  87.8525540  97.4918910 133.6526910  88.3271040  97.7715670
 134.1418050  86.9480370  97.3832090 138.9876190  88.5548640  95.5368000
 139.4284280  88.4993740  94.6889600 138.7183780  89.4706650  95.6078180
 140.8514760  88.1863880  93.5476820 140.7903160  87.2425100  93.4007840
 141.6306790  88.2943970  94.0930280 125.1567510 104.3256240  92.5100770
 124.9889550 103.6926920  93.2082660 124.2902020 104.5315640  92.1594960
 125.7795530  88.1573020  90.0132630 126.5374890  88.2701900  89.4396660
 125.3172700  88.9942220  89.9676060 136.8234320  86.9354740  94.2418010
 137.4263690  87.5074950  94.7166530 136.0827310  87.4994180  94.0191910
 139.9668920  87.3376300  89.5158290 140.1619550  88.2359750  89.7825720
 139.1798790  87.1063380  90.0091240 126.7630210 103.0189470  89.9550910
 126.2377830 103.3997500  89.2512870 126.6874790 103.6440240  90.6760620
 130.3458520  88.4212210  91.6079990 129.7161260  87.7199520  91.7750120
 129.8063660  89.1816340  91.3913150 133.2850470 105.0351440 104.2790600
 134.2117780 104.7995710 104.3226560 133.2700900 105.8623440 103.7976630
 141.5195530 104.5777010  91.2764850 141.6947720 103.8914750  90.6325770
 140.8217100 105.1024060  90.8841520 130.4714080  87.6996190 104.0432480
 130.1898350  88.2029790 103.2793300 130.8533780  86.9017940 103.6774610
 129.3623180 104.9671850  88.8300160 130.0942000 104.6831130  88.2824050
 129.6216850 104.7285130  89.7199540 137.0729540  87.1149770 104.6212950
 136.9594990  87.4344380 105.5164470 137.8899280  87.5162280 104.3250230
 139.8528030 104.2621300 104.1031640 140.6453350 103.7670530 103.8957600
 140.1461180 104.9411440 104.7107250 128.1072820 101.2581160  77.9390740
 128.4100860 100.3678900  77.7600960 128.8516410 101.8151380  77.7112990
 126.5363510  92.1842960  71.5275110 125.6480210  92.5258930  71.4254990
 126.8204700  91.9843280  70.6355940 124.4996520  94.7848610  77.4114810
 125.0712630  94.0170810  77.4118450 124.4998060  95.0837370  76.5021420
 134.3576470 103.6039460  75.2660080 133.7387910 104.0596960  74.6954520
 135.2128250 103.7590920  74.8649780 138.3644010  89.8899270  74.0324390
 139.1853630  89.3995840  74.0749870 138.3978090  90.4796930  74.7856230
 126.3608060  92.6893470  77.8066080 127.0418170  92.9531840  78.4253480
 126.0456110  91.8494340  78.1404090 142.6543560  91.9066020  80.5968020
 141.9495730  92.2947730  80.0783130 142.9201480  92.6016310  81.1988950
 138.6005490  91.8299650  76.8051930 137.8961060  92.1184540  77.3855040
 138.9617650  92.6399760  76.4451490 124.5923020  99.1735230  70.0331620
 124.2151000  99.6622330  69.3016520 124.8496090  99.8460510  70.6638150
 140.2168270 101.4474780  79.0679410 139.5331790 102.1173890  79.0596080
 140.7562560 101.6455430  78.3024270 141.6692410  91.2754440  77.1961140
 140.7217320  91.3093420  77.3276570 141.9942400  92.0893390  77.5810500
 132.2011950  87.5751620  75.4917130 132.5086930  87.0198510  74.7752630
 131.2712650  87.7096080  75.3090120 137.7527010 103.2918910  77.7824590
 137.7654170 102.8881200  76.9146850 137.2002230 104.0666200  77.6786020
 139.0472430 100.0135130  72.8714760 138.9368760  99.0709460  72.9964180
 139.0440680 100.3750770  73.7577520 134.5761790  91.9117450  69.2244410
 133.6365460  92.0731410  69.3096870 134.8945050  92.6303130  68.6780400
 141.0974550  96.5935970  79.2023440 140.2693180  96.6629060  78.7273570
 141.6925030  97.1790280  78.7339270 138.6190000  97.2020750  72.7312500
 138.0002420  96.8640300  72.0838800 138.6014450  96.5580510  73.4391690
 138.0616560  93.3805290  80.1478310 137.6487740  94.2059000  80.4018300
 137.3292510  92.7950330  79.9554670 128.9077970  92.9408400  78.7896020
 129.4592560  93.0503740  78.0149270 129.4221480  93.3146000  79.5051250
 138.7516660 103.4264620  80.8359290 138.2747220 104.2336810  80.6431900
 138.0678450 102.7742950  80.9885500 136.7954700  96.4407560  69.7385250
 137.2347980  95.6029990  69.5923070 137.5083120  97.0736960  69.8249390
 134.9050080 101.3803630  73.7066490 135.3445990 102.1227960  73.2921880
 134.8436970 101.6230200  74.6305450 130.3801050 102.4049460  84.6086510
 130.3516480 102.8092410  83.7414940 130.2166020 101.4759820  84.4458110
 140.3771840  87.6950370  68.0526290 140.0644500  87.7877200  68.9525360
 141.1384310  88.2731400  68.0023720 126.8953980  95.0610170  72.5103630
 126.7751580  95.7872260  71.8984900 126.5854870  94.2913080  72.0331540
 142.3315870 103.1876560  85.9050680 142.8075590 103.6659450  86.5839760
 142.9523030 103.1194050  85.1796180 141.7349120 100.3789410  83.0650690
 141.8612180 100.1401290  82.1467870 141.7770500  99.5473950  83.5372770
 135.5965860 104.0817410  81.6345500 136.1110530 103.9925420  82.4367930
 134.7534940 104.4277110  81.9273410 137.5720260 104.3672750  71.0629500
 137.4121400 104.0775690  71.9611330 137.4066970 103.5912880  70.5274730
 130.0508640 104.1471280  72.8401120 129.8751120 103.2306820  72.6268920
 129.1964380 104.5058570  73.0798920 137.2746390 101.8760310  69.6227500
 136.5811550 101.8737600  68.9629780 138.0169250 101.4519630  69.1921670
 136.8396320 103.5023020  73.6975990 137.2953270 102.7212400  74.0114610
 137.1788840 104.2129840  74.2417170 141.5873130  92.4321870  84.0300430
 140.9717400  92.9401540  83.5015890 141.2669550  91.5320200  83.9726370
 138.6491960  92.4922710  82.6259280 137.7985550  92.1928460  82.9468350
 138.4893750  92.7364720  81.7143100 135.7441670  93.9924460  84.7258070
 136.0695080  93.1588210  84.3860300 136.5322000  94.5152980  84.8736400
 129.1531860  93.5278810  73.6208550 128.9272780  93.3115980  74.5255170
 128.3724390  93.9607270  73.2754520 136.3829620  93.5342180  72.2199200
 135.7838510  94.2577980  72.0362820 136.9309230  93.4718960  71.4375650
 134.9894490  92.1705720  74.2502480 135.3824060  92.4877920  73.4371170
 135.3511340  91.2917600  74.3647000 133.2986660  90.9213030  85.5099340
 132.6084980  90.7285230  86.1445430 134.0418960  91.2047670  86.0423640
 124.2128890  92.7026640  67.6835400 124.1303560  93.6457400  67.8250390
 123.8611950  92.5601550  66.8047750 132.0127020  91.4365670  76.7505750
 132.0163080  90.9955620  75.9010290 132.9078140  91.7583000  76.8577570
 127.8629400  91.3192160  75.7099960 127.5229450  91.7967390  76.4667010
 127.1006720  90.8657280  75.3501060 132.0747170  92.4377750  69.7412510
 132.1959990  92.3964230  70.6898330 131.6895680  93.3001900  69.5859240
 131.0868670  94.7478890  69.1395810 130.5185570  94.2997140  68.5131720
 131.7957670  95.1071670  68.6060960 134.8514070  89.1340400  71.3478000
 134.0378680  88.6353570  71.2723310 134.6576020  89.9738650  70.9314350
 134.7722930  97.8111500  83.0917610 134.7060240  96.8907170  82.8375200
 134.1428070  97.9086940  83.8062250 137.5662460  93.5060050  69.6440160
 138.4542080  93.8177280  69.4691500 137.5367550  92.6332300  69.2520740
 134.7039660 100.6332070  82.8421410 134.7184200  99.7013030  82.6240320
 133.9964760 100.7191830  83.4811180 139.8376730  94.8171890  69.1120020
 139.7540450  95.2486110  68.2616460 140.5570920  95.2770240  69.5446840
 140.9150870  97.2739410  82.1889990 140.1899060  97.8668190  81.9919380
 141.4426330  97.2662950  81.3903360 140.8663980 101.6714150  71.8402150
 140.2240140 101.0169770  72.1145870 140.4794640 102.0769240  71.0642820
 124.6706140  95.3770090  68.5861330 125.5400990  95.6594890  68.8697250
 124.1796460  96.1905960  68.4710140 134.1373560 102.2749640  79.9361910
 134.7815780 102.4809020  80.6135330 134.5003000 101.5138040  79.4832760
 139.2561360 100.5630610  68.3778500 139.0298940  99.8461050  68.9703140
 138.8657560 100.3143050  67.5400250 137.1843260 101.0776890  81.8575420
 137.5199500 101.6643580  82.5353340 136.2643600 100.9469600  82.0873210
 125.0377390 104.5897470  69.1522960 125.3975030 105.1886810  68.4980230
 124.8969730 105.1357360  69.9257990 138.8377610  98.4802550  70.0392660
 138.5499310  98.9415240  70.8270540 139.6329780  98.0200320  70.3076880
 131.0546010 101.9728670  69.9696630 131.0456110 102.7058360  69.3541140
 130.1344370 101.7260250  70.0623590 136.2285440  91.3594380  80.3900280
 136.5966260  90.5389590  80.7179850 135.3683640  91.4196270  80.8055930
 139.5947470  90.3151320  71.1987840 138.9660630  90.4196990  70.4846070
 139.0999390  90.5348100  71.9881720 134.0405610 102.0356910  68.6321820
 134.1417590 101.8320900  67.7023800 133.1407350 101.7815190  68.8369600
 131.5631500  92.5937270  72.6145720 130.8547650  93.0623610  73.0559330
 131.8475980  91.9359280  73.2490910 132.6823720 104.5543230  73.3269490
 132.9365220 104.5164620  72.4048860 131.7336200 104.4276560  73.3197740
 129.7666520  90.9022350  69.9896430 130.6157050  91.3392500  69.9236620
 129.3997790  91.2142610  70.8168490 128.6657940  97.1554710  68.4631960
 129.4321210  97.0436070  69.0257390 128.7432630  96.4592680  67.8108730
 127.3604700  94.5879780  69.1464850 127.4408290  93.6407290  69.2582250
 128.2524450  94.9186660  69.2525510 140.6901880 102.6443960  76.5782260
 140.8149300 103.4675130  77.0506070 141.5567440 102.4334690  76.2306410
 128.1619410 104.7375170  76.2499390 128.8981890 104.1890630  76.5207960
 128.5460330 105.6031180  76.1105380 125.0464890 100.8048740  72.1240900
 124.1204670 101.0469880  72.1146310 125.5121320 101.6323000  72.0025650
 127.1677690 103.9221240  85.4384970 127.9690420 104.2433290  85.8520370
 126.6529510 103.5616820  86.1604880 131.2721720 103.9105480  68.0724960
 132.0650330 104.1994310  67.6206750 130.7526070 103.4797650  67.3937440
 136.0042320 100.0301110  85.3860380 135.3980480 100.0532710  84.6456130
 135.6996430  99.2984150  85.9227630 137.4342690 103.7581400  83.9969790
 138.3864440 103.6739420  83.9470030 137.2870910 104.4223110  84.6703580
 140.3251890 103.1375610  69.4961700 140.0393400 102.7240750  68.6815880
 140.1271440 104.0663320  69.3762220 124.8875500  96.4094700  84.3821020
 125.3914520  95.8301980  84.9537250 124.1482920  96.6934930  84.9197390
 131.7899120  99.1308890  67.9367310 131.6849760  98.5161240  68.6628690
 131.6223340  98.6074780  67.1530320 135.0301850  98.1928920  68.5409300
 134.4811950  98.6398220  69.1852040 135.6521110  97.6878170  69.0646970
 139.0836790  99.5471020  84.4731560 139.8246260  99.8846780  83.9699020
 138.3209470  99.7163080  83.9201330 133.2104610  96.1757450  67.6851700
 133.7310270  95.4606470  67.3192850 133.8573010  96.8143320  67.9852210
 137.7582450  97.5985850  83.0086770 138.1723470  97.7530930  83.8577190
 136.8233450  97.7241070  83.1712550 138.2304620  94.9382010  85.0125920
 138.8125390  94.1834330  84.9246400 138.4066390  95.4689450  84.2357400
 134.8561580  95.2822510  82.3620540 134.9757790  94.6863650  83.1015380
 135.7155580  95.3192200  81.9421840 129.5935870  93.2253070  67.3832760
 129.3924930  92.3620430  67.7446100 129.4227920  93.1386430  66.4454360
 130.3705100 103.8559340  82.0940430 129.8326190 104.5805400  81.7749130
 130.6239060 103.3789680  81.3037770 131.6230350  91.8243860  83.6196360
 132.2130040  91.5159710  84.3074180 130.8050590  91.3523610  83.7756260
 136.4423780  91.4409670  83.8529380 135.7539300  90.7791210  83.7879370
 137.1629800  90.9947940  84.2977840 137.0724180  88.0361300  69.9119640
 137.3526470  87.1929200  70.2679060 136.2989910  88.2684410  70.4258390
 133.2267310 105.0910550  82.3527080 133.1526010 105.9945690  82.6599450
 132.3246150 104.7722450  82.3249150 133.7752640 104.2569060  69.9753440
 134.6703430 104.5954030  69.9972200 133.8070270 103.5348470  69.3477720
 127.4148800  99.6296110  68.2040440 127.8523670 100.1725780  68.8598020
 127.8996530  98.8043060  68.2136780 140.7546990 102.7872730  82.6819640
 140.1548980 102.8465290  81.9383560 140.8840890 101.8477710  82.8116490
 141.9948440 100.5290550  68.0189350 141.1641400 100.5967200  68.4896580
 142.1720270 101.4194670  67.7156210 141.4504900  97.2738030  70.5223550
 142.2123810  97.8434680  70.6283240 141.4659270  96.7065230  71.2931860
 124.9509240  95.7975960  74.7531210 124.2958080  95.5287600  74.1090910
 125.7887190  95.6880440  74.3033190 142.4564870  98.1288130  75.3665480
 142.8273700  97.3455450  74.9601450 143.0966800  98.8177230  75.1882780
 139.4398630  99.5124710  80.7795800 138.6258470  99.9421870  81.0421590
 139.8472830 100.1243120  80.1664850 141.5024070  97.5672400  67.6796070
 141.7772910  98.4751280  67.5515290 141.3134810  97.5034930  68.6158060
 137.8999680  90.5917250  68.9749700 138.3184560  90.4048230  68.1346360
 137.5935740  89.7396300  69.2852630 141.3989410  95.5041390  72.6725500
 141.0233010  94.7369320  72.2406790 140.6692530  95.8864090  73.1600430
 125.9885170  96.1828530  79.2934550 126.3558210  96.0955930  80.1730570
 125.4195990  95.4195080  79.1941410 140.7889030  94.6512910  82.3065020
 140.5575120  94.4225660  81.4062970 141.0493580  95.5712460  82.2609910
 139.2277100  89.8769340  85.0844720 140.1047280  89.8852740  85.4678720
 139.2397940  89.1400180  84.4737070 124.1647320  93.0074890  70.6956540
 123.2611400  93.2705090  70.5208200 124.6487940  93.2786060  69.9156500
 140.6740370  93.7298880  75.9732740 141.1977850  93.2361530  75.3422910
 141.2599790  93.8649240  76.7180310 140.8530090  93.8138750  79.4952290
 139.9032800  93.7802290  79.6097280 141.0343100  94.7238860  79.2602060
 140.1640340  92.9872230  71.9125150 140.6599460  92.7543100  72.6974030
 139.9656410  92.1484070  71.4962790 141.5927500  91.6233180  74.4462830
 141.4826780  91.4689220  75.3845100 142.3535090  91.0954120  74.2038240
 142.4817770  89.4541100  67.6868970 143.4067080  89.3222280  67.4787260
 142.4593560  89.5333920  68.6405420 142.5556260  90.2251760  70.3125680
 141.7607760  90.1596880  70.8418590 142.7599540  91.1602400  70.3011030
 139.4974680 104.2643310  74.3064070 140.0933750 103.9427880  73.6298490
 139.7552830 103.7915130  75.0977340 131.1043280 102.2520810  80.0564420
 130.8634640 102.5195370  79.1694940 132.0445920 102.4226540  80.1115280
 142.3647440 104.2715190  80.8575060 141.8705720 104.6684060  80.1402190
 141.7560730 103.6464400  81.2512340 140.0486890 104.9138610  78.1361800
 139.5889860 105.6654420  77.7619820 139.4199350 104.1945080  78.0776600
 130.4782610 103.2226850  77.3109930 130.9947630 102.6114210  76.7858190
 131.1279990 103.7255630  77.8020940 133.2178110 104.1135340  78.1378910
 133.5055920 103.8589640  77.2611920 133.7301330 103.5612700  78.7284480
 125.1567510 104.3256240  73.7357280 124.9889550 103.6926920  74.4339170
 124.2902020 104.5315640  73.3851470 132.3209340  90.2712290  74.2291450
 131.5083850  89.8969180  73.8887330 132.8250980  89.5157370  74.5312640
 139.9668920  87.3376300  70.7414800 140.1619550  88.2359750  71.0082230
 139.1798790  87.1063380  71.2347750 126.7630210 103.0189470  71.1807420
 126.2377830 103.3997500  70.4769380 126.6874790 103.6440240  71.9017130
 133.2850470 105.0351440  85.5047110 134.2117780 104.7995710  85.5483070
 133.2700900 105.8623440  85.0233140 141.5195530 104.5777010  72.5021360
 141.6947720 103.8914750  71.8582280 140.8217100 105.1024060  72.1098030
 129.3623180 104.9671850  70.0556670 130.0942000 104.6831130  69.5080560
 129.6216850 104.7285130  70.9456050 137.0729540  87.1149770  85.8469460
 136.9594990  87.4344380  86.7420980 137.8899280  87.5162280  85.5506740
 139.8528030 104.2621300  85.3288150 140.6453350 103.7670530  85.1214110
 140.1461180 104.9411440  85.9363760 135.9787690  95.1342240  56.2104200
 135.8981740  94.2196850  55.9395910 135.5652110  95.6309310  55.5043910
 138.1313160 101.3181450  56.8712600 137.6694690 100.5468690  57.1999770
 138.9438710 101.3447520  57.3765050 134.3576470 103.6039460  56.4916590
 133.7387910 104.0596960  55.9211030 135.2128250 103.7590920  56.0906290
 134.5819890  92.3948830  58.3252560 134.9584710  91.5220710  58.2126230
 134.4839400  92.7307530  57.4343000 128.7124900  90.7674460  53.7870000
 128.8191650  91.6678190  54.0938760 127.8017260  90.7192430  53.4964650
 138.3644010  89.8899270  55.2580900 139.1853630  89.3995840  55.3006380
 138.3978090  90.4796930  56.0112740 142.6543560  91.9066020  61.8224530
 141.9495730  92.2947730  61.3039640 142.9201480  92.6016310  62.4245460
 128.8368730  88.3759390  62.3858600 128.8387170  88.8931780  61.5804500
 128.0073040  87.8989570  62.3628530 135.2239820  98.4878700  53.8848500
 134.6057090  98.9528150  53.3211220 135.7363070  99.1806180  54.3018010
 138.6005490  91.8299650  58.0308440 137.8961060  92.1184540  58.6111550
 138.9617650  92.6399760  57.6708000 124.5923020  99.1735230  51.2588130
 124.2151000  99.6622330  50.5273030 124.8496090  99.8460510  51.8894660
 140.2168270 101.4474780  60.2935920 139.5331790 102.1173890  60.2852590
 140.7562560 101.6455430  59.5280780 141.6692410  91.2754440  58.4217650
 140.7217320  91.3093420  58.5533080 141.9942400  92.0893390  58.8067010
 132.2011950  87.5751620  56.7173640 132.5086930  87.0198510  56.0009140
 131.2712650  87.7096080  56.5346630 137.7527010 103.2918910  59.0081100
 137.7654170 102.8881200  58.1403360 137.2002230 104.0666200  58.9042530
 139.0472430 100.0135130  54.0971270 138.9368760  99.0709460  54.2220690
 139.0440680 100.3750770  54.9834030 137.1512450  98.1948750  60.3363710
 137.5681240  97.9808860  59.5017170 137.8752270  98.4521540  60.9072330
 134.5892710  95.6400450  53.4533760 133.6621990  95.5737830  53.6822230
 134.7417530  96.5780580  53.3389000 134.5761790  91.9117450  50.4500920
 133.6365460  92.0731410  50.5353380 134.8945050  92.6303130  49.9036910
 141.0974550  96.5935970  60.4279950 140.2693180  96.6629060  59.9530080
 141.6925030  97.1790280  59.9595780 138.6190000  97.2020750  53.9569010
 138.0002420  96.8640300  53.3095310 138.6014450  96.5580510  54.6648200
 138.0616560  93.3805290  61.3734820 137.6487740  94.2059000  61.6274810
 137.3292510  92.7950330  61.1811180 138.7516660 103.4264620  62.0615800
 138.2747220 104.2336810  61.8688410 138.0678450 102.7742950  62.2142010
 129.7549480  99.5914440  65.0500500 128.8578010  99.8154410  65.2973900
 129.7802350  99.7149380  64.1011900 136.7954700  96.4407560  50.9641760
 137.2347980  95.6029990  50.8179580 137.5083120  97.0736960  51.0505900
 128.5820700  96.4627760  63.6257870 128.4428470  97.3350560  63.9945270
 127.7002060  96.1200570  63.4805810 134.9050080 101.3803630  54.9323000
 135.3445990 102.1227960  54.5178390 134.8436970 101.6230200  55.8561960
 130.3801050 102.4049460  65.8343020 130.3516480 102.8092410  64.9671450
 130.2166020 101.4759820  65.6714620 140.3771840  87.6950370  49.2782800
 140.0644500  87.7877200  50.1781870 141.1384310  88.2731400  49.2280230
 142.3315870 103.1876560  67.1307190 142.8075590 103.6659450  67.8096270
 142.9523030 103.1194050  66.4052690 141.7349120 100.3789410  64.2907200
 141.8612180 100.1401290  63.3724380 141.7770500  99.5473950  64.7629280
 135.5965860 104.0817410  62.8602010 136.1110530 103.9925420  63.6624440
 134.7534940 104.4277110  63.1529920 137.5720260 104.3672750  52.2886010
 137.4121400 104.0775690  53.1867840 137.4066970 103.5912880  51.7531240
 137.2746390 101.8760310  50.8484010 136.5811550 101.8737600  50.1886290
 138.0169250 101.4519630  50.4178180 136.8396320 103.5023020  54.9232500
 137.2953270 102.7212400  55.2371120 137.1788840 104.2129840  55.4673680
 141.5873130  92.4321870  65.2556940 140.9717400  92.9401540  64.7272400
 141.2669550  91.5320200  65.1982880 133.6487450  91.2713760  62.7219130
 133.1866820  91.4796780  63.5339070 133.2465560  90.4573110  62.4189800
 138.6491960  92.4922710  63.8515790 137.7985550  92.1928460  64.1724860
 138.4893750  92.7364720  62.9399610 135.7441670  93.9924460  65.9514580
 136.0695080  93.1588210  65.6116810 136.5322000  94.5152980  66.0992910
 132.4776460  88.0255940  51.9989640 131.8530640  88.0215810  52.7242950
 132.3906580  87.1586900  51.6025610 131.3993540  88.9492570  58.9773410
 131.6965870  89.8555400  58.8965430 131.9479100  88.4611350  58.3632980
 136.3829620  93.5342180  53.4455710 135.7838510  94.2577980  53.2619330
 136.9309230  93.4718960  52.6632160 131.5931070  94.4264390  65.5125330
 131.4974670  93.4859120  65.3625730 132.4363050  94.6479460  65.1173400
 134.9894490  92.1705720  55.4758990 135.3824060  92.4877920  54.6627680
 135.3511340  91.2917600  55.5903510 126.7241610  90.8378060  63.6659110
 126.3305000  91.6853270  63.8731890 126.0360010  90.2004430  63.8567750
 133.2986660  90.9213030  66.7355850 132.6084980  90.7285230  67.3701940
 134.0418960  91.2047670  67.2680150 135.5749630  94.7611470  59.5709770
 134.8430750  95.2698280  59.9199870 135.1773970  93.9441450  59.2698550
 132.0127020  91.4365670  57.9762260 132.0163080  90.9955620  57.1266800
 132.9078140  91.7583000  58.0834080 132.0747170  92.4377750  50.9669020
 132.1959990  92.3964230  51.9154840 131.6895680  93.3001900  50.8115750
 136.0375540  90.2145150  58.9832710 136.0548280  90.6653800  59.8274560
 135.7891120  89.3150790  59.1966150 139.4646290  87.6277330  64.8219090
 139.7892060  86.8966990  65.3477070 139.5002800  87.3090970  63.9200080
 126.1637850  98.6490910  64.2419050 125.7792640  98.0084580  64.8402010
 126.4750040  99.3527030  64.8113780 128.6316150  98.7437080  52.6378730
 127.8578410  98.2034700  52.4777450 129.3610780  98.2243690  52.2996490
 139.3904130  97.7402440  58.4305120 140.1103250  98.2357730  58.0401230
 139.1885950  97.0620330  57.7858990 134.8514070  89.1340400  52.5734510
 134.0378680  88.6353570  52.4979820 134.6576020  89.9738650  52.1570860
 134.7722930  97.8111500  64.3174120 134.7060240  96.8907170  64.0631710
 134.1428070  97.9086940  65.0318760 137.5662460  93.5060050  50.8696670
 138.4542080  93.8177280  50.6948010 137.5367550  92.6332300  50.4777250
 133.5623050  99.6783740  51.5484840 133.9038750 100.4225970  51.0528160
 132.7335760  99.9914860  51.9109670 129.3611210  95.8363070  66.0722790
 129.0611350  95.9820250  65.1750610 130.1322450  95.2768360  65.9796180
 134.7039660 100.6332070  64.0677920 134.7184200  99.7013030  63.8496830
 133.9964760 100.7191830  64.7067690 139.8376730  94.8171890  50.3376530
 139.7540450  95.2486110  49.4872970 140.5570920  95.2770240  50.7703350
 140.9150870  97.2739410  63.4146500 140.1899060  97.8668190  63.2175890
 141.4426330  97.2662950  62.6159870 140.8663980 101.6714150  53.0658660
 140.2240140 101.0169770  53.3402380 140.4794640 102.0769240  52.2899330
 136.4450460  98.9999580  56.9130350 136.7974280  98.4027710  56.2531720
 135.5612790  98.6743810  57.0838600 134.1373560 102.2749640  61.1618420
 134.7815780 102.4809020  61.8391840 134.5003000 101.5138040  60.7089270
 135.4105640 100.2781990  59.8795870 136.0527870  99.5775150  59.9928040
 135.9354990 101.0580430  59.6992760 139.2561360 100.5630610  49.6035010
 139.0298940  99.8461050  50.1959650 138.8657560 100.3143050  48.7656760
 137.1843260 101.0776890  63.0831930 137.5199500 101.6643580  63.7609850
 136.2643600 100.9469600  63.3129720 125.0377390 104.5897470  50.3779470
 125.3975030 105.1886810  49.7236740 124.8969730 105.1357360  51.1514500
 138.8377610  98.4802550  51.2649170 138.5499310  98.9415240  52.0527050
 139.6329780  98.0200320  51.5333390 125.0219250 102.8552330  64.8521870
 125.1310370 101.9147070  64.7117260 124.3699810 103.1207080  64.2035600
 133.0131840 101.1268220  66.2519990 132.6928710 100.4077460  66.7965680
 132.3390200 101.8023290  66.3256050 131.0546010 101.9728670  51.1953140
 131.0456110 102.7058360  50.5797650 130.1344370 101.7260250  51.2880100
 136.2285440  91.3594380  61.6156790 136.5966260  90.5389590  61.9436360
 135.3683640  91.4196270  62.0312440 139.5947470  90.3151320  52.4244350
 138.9660630  90.4196990  51.7102580 139.0999390  90.5348100  53.2138230
 134.0405610 102.0356910  49.8578330 134.1417590 101.8320900  48.9280310
 133.1407350 101.7815190  50.0626110 131.5631500  92.5937270  53.8402230
 130.8547650  93.0623610  54.2815840 131.8475980  91.9359280  54.4747420
 135.5946930  89.3187930  55.2798020 135.4714710  89.3374060  54.3307530
 136.5431490  89.3666870  55.3996420 132.6823720 104.5543230  54.5526000
 132.9365220 104.5164620  53.6305370 131.7336200 104.4276560  54.5454250
 129.7666520  90.9022350  51.2152940 130.6157050  91.3392500  51.1493130
 129.3997790  91.2142610  52.0425000 140.3954290  90.2301930  62.6823150
 139.8927890  90.9707330  63.0216960 141.2110950  90.6185930  62.3659940
 138.6876300  95.4735110  56.1284510 137.7466440  95.4885340  56.3032200
 139.0020370  94.6871070  56.5744810 140.6901880 102.6443960  57.8038770
 140.8149300 103.4675130  58.2762580 141.5567440 102.4334690  57.4562920
 127.1677690 103.9221240  66.6641480 127.9690420 104.2433290  67.0776880
 126.6529510 103.5616820  67.3861390 131.2721720 103.9105480  49.2981470
 132.0650330 104.1994310  48.8463260 130.7526070 103.4797650  48.6193950
 136.0042320 100.0301110  66.6116890 135.3980480 100.0532710  65.8712640
 135.6996430  99.2984150  67.1484140 137.4342690 103.7581400  65.2226300
 138.3864440 103.6739420  65.1726540 137.2870910 104.4223110  65.8960090
 140.3251890 103.1375610  50.7218210 140.0393400 102.7240750  49.9072390
 140.1271440 104.0663320  50.6018730 124.8875500  96.4094700  65.6077530
 125.3914520  95.8301980  66.1793760 124.1482920  96.6934930  66.1453900
 131.7899120  99.1308890  49.1623820 131.6849760  98.5161240  49.8885200
 131.6223340  98.6074780  48.3786830 131.9413440  97.8165690  65.1413050
 131.1759110  98.3850690  65.0567720 132.1229400  97.5241900  64.2481280
 135.0301850  98.1928920  49.7665810 134.4811950  98.6398220  50.4108550
 135.6521110  97.6878170  50.2903480 139.0836790  99.5471020  65.6988070
 139.8246260  99.8846780  65.1955530 138.3209470  99.7163080  65.1457840
 126.9198580  94.5524290  66.5027600 126.9603920  94.2538160  67.4112830
 127.7744080  94.9531900  66.3435120 128.8604390  93.1316390  64.4702090
 128.3300850  92.6407340  63.8425430 129.5292460  93.5600590  63.9360020
 133.2104610  96.1757450  48.9108210 133.7310270  95.4606470  48.5449360
 133.8573010  96.8143320  49.2108720 137.7582450  97.5985850  64.2343280
 138.1723470  97.7530930  65.0833700 136.8233450  97.7241070  64.3969060
 138.2304620  94.9382010  66.2382430 138.8125390  94.1834330  66.1502910
 138.4066390  95.4689450  65.4613910 129.3476690  90.0978760  64.5499380
 129.2533560  89.4799510  63.8250250 128.7674080  90.8245050  64.3229290
 132.1138130  88.6552000  61.5826770 131.6655430  88.6776260  60.7372320
 131.4803330  88.2571020  62.1797070 134.8561580  95.2822510  63.5877050
 134.9757790  94.6863650  64.3271890 135.7155580  95.3192200  63.1678350
 137.1949480  95.8359700  62.1639560 136.6684700  96.3602320  61.5604700
 137.5380820  96.4687090  62.7949290 130.3705100 103.8559340  63.3196940
 129.8326190 104.5805400  63.0005640 130.6239060 103.3789680  62.5294280
 131.6230350  91.8243860  64.8452870 132.2130040  91.5159710  65.5330690
 130.8050590  91.3523610  65.0012770 136.4423780  91.4409670  65.0785890
 135.7539300  90.7791210  65.0135880 137.1629800  90.9947940  65.5234350
 137.0724180  88.0361300  51.1376150 137.3526470  87.1929200  51.4935570
 136.2989910  88.2684410  51.6514900 128.3918670  90.3253690  48.5967150
 128.6944570  90.3321120  47.6886300 129.1313260  89.9751550  49.0934810
 133.2267310 105.0910550  63.5783590 133.1526010 105.9945690  63.8855960
 132.3246150 104.7722450  63.5505660 131.6103600  89.2688310  49.5823350
 131.2625600  88.5912300  49.0025800 131.8116370  88.8077820  50.3966740
 133.7752640 104.2569060  51.2009950 134.6703430 104.5954030  51.2228710
 133.8070270 103.5348470  50.5734230 127.4148800  99.6296110  49.4296950
 127.8523670 100.1725780  50.0854530 127.8996530  98.8043060  49.4393290
 140.7546990 102.7872730  63.9076150 140.1548980 102.8465290  63.1640070
 140.8840890 101.8477710  64.0373000 141.9948440 100.5290550  49.2445860
 141.1641400 100.5967200  49.7153090 142.1720270 101.4194670  48.9412720
 141.4504900  97.2738030  51.7480060 142.2123810  97.8434680  51.8539750
 141.4659270  96.7065230  52.5188370 142.4564870  98.1288130  56.5921990
 142.8273700  97.3455450  56.1857960 143.0966800  98.8177230  56.4139290
 139.4398630  99.5124710  62.0052310 138.6258470  99.9421870  62.2678100
 139.8472830 100.1243120  61.3921360 141.5024070  97.5672400  48.9052580
 141.7772910  98.4751280  48.7771800 141.3134810  97.5034930  49.8414570
 137.8999680  90.5917250  50.2006210 138.3184560  90.4048230  49.3602870
 137.5935740  89.7396300  50.5109140 141.3989410  95.5041390  53.8982010
 141.0233010  94.7369320  53.4663300 140.6692530  95.8864090  54.3856940
 140.7889030  94.6512910  63.5321530 140.5575120  94.4225660  62.6319480
 141.0493580  95.5712460  63.4866420 125.5401170  93.0937620  64.4249480
 124.6457220  93.0604380  64.7643190 126.0798720  93.2924410  65.1900730
 139.2277100  89.8769340  66.3101230 140.1047280  89.8852740  66.6935230
 139.2397940  89.1400180  65.6993580 140.6740370  93.7298880  57.1989250
 141.1977850  93.2361530  56.5679420 141.2599790  93.8649240  57.9436820
 140.8530090  93.8138750  60.7208800 139.9032800  93.7802290  60.8353790
 141.0343100  94.7238860  60.4858570 126.3548690  88.1179760  48.8710080
 127.0776820  88.6588700  49.1891300 126.6273210  87.8443180  47.9951620
 140.1640340  92.9872230  53.1381660 140.6599460  92.7543100  53.9230540
 139.9656410  92.1484070  52.7219300 141.5927500  91.6233180  55.6719340
 141.4826780  91.4689220  56.6101610 142.3535090  91.0954120  55.4294750
 139.9393220  87.5627310  62.1302340 140.5765440  88.1761450  62.4961530
 140.0868110  87.5987970  61.1851570 142.4817770  89.4541100  48.9125480
 143.4067080  89.3222280  48.7043770 142.4593560  89.5333920  49.8661930
 142.5556260  90.2251760  51.5382190 141.7607760  90.1596880  52.0675100
 142.7599540  91.1602400  51.5267540 139.4974680 104.2643310  55.5320580
 140.0933750 103.9427880  54.8555000 139.7552830 103.7915130  56.3233850
 127.4037250 100.6961220  65.6811210 127.3606880 100.3254130  66.5625670
 127.5348260 101.6338790  65.8213030 133.3097700  88.7153500  65.0377440
 133.2486590  89.3075330  65.7872850 134.2498080  88.6079460  64.8927700
 135.9472260  88.3723560  64.6769730 136.5612670  88.6902850  64.0150810
 136.4921820  87.8872150  65.2965590 142.3647440 104.2715190  62.0831570
 141.8705720 104.6684060  61.3658700 141.7560730 103.6464400  62.4768850
 127.2425280 103.6423470  62.8008990 126.6485600 103.5108170  63.5399030
 127.2349120 102.8061610  62.3351090 136.6880300  86.9355700  61.0039020
 135.8140140  87.2690810  60.8011950 136.5791050  86.4628880  61.8290890
 137.5952280  89.1426570  62.3880740 137.2665640  88.3278330  62.0082470
 138.5434580  89.0996380  62.2646430 140.0486890 104.9138610  59.3618310
 139.5889860 105.6654420  58.9876330 139.4199350 104.1945080  59.3033110
 126.8737510 101.0081850  61.7517030 126.1471570 100.3887140  61.6842980
 126.9346660 101.4022460  60.8815110 133.2178110 104.1135340  59.3635420
 133.5055920 103.8589640  58.4868430 133.7301330 103.5612700  59.9540990
 134.4355120  87.8525540  59.9431930 133.6526910  88.3271040  60.2228690
 134.1418050  86.9480370  59.8345110 138.9876190  88.5548640  57.9881020
 139.4284280  88.4993740  57.1402620 138.7183780  89.4706650  58.0591200
 140.8514760  88.1863880  55.9989840 140.7903160  87.2425100  55.8520860
 141.6306790  88.2943970  56.5443300 125.7795530  88.1573020  52.4645650
 126.5374890  88.2701900  51.8909680 125.3172700  88.9942220  52.4189080
 132.3209340  90.2712290  55.4547960 131.5083850  89.8969180  55.1143840
 132.8250980  89.5157370  55.7569150 136.8234320  86.9354740  56.6931030
 137.4263690  87.5074950  57.1679550 136.0827310  87.4994180  56.4704930
 139.9668920  87.3376300  51.9671310 140.1619550  88.2359750  52.2338740
 139.1798790  87.1063380  52.4604260 128.1520680  88.6837070  51.0047620
 128.6813440  87.8966870  50.8755570 128.7849000  89.3628260  51.2383150
 130.3458520  88.4212210  54.0593010 129.7161260  87.7199520  54.2263140
 129.8063660  89.1816340  53.8426170 133.2850470 105.0351440  66.7303620
 134.2117780 104.7995710  66.7739580 133.2700900 105.8623440  66.2489650
 141.5195530 104.5777010  53.7277870 141.6947720 103.8914750  53.0838790
 140.8217100 105.1024060  53.3354540 129.3623180 104.9671850  51.2813180
 130.0942000 104.6831130  50.7337070 129.6216850 104.7285130  52.1712560
 137.0729540  87.1149770  67.0725970 136.9594990  87.4344380  67.9677490
 137.8899280  87.5162280  66.7763250 139.8528030 104.2621300  66.5544660
 140.6453350 103.7670530  66.3470620 140.1461180 104.9411440  67.1620270
 135.9787690  95.1342240  37.4360710 135.8981740  94.2196850  37.1652420
 135.5652110  95.6309310  36.7300420 134.1105730  96.9121260  39.3169980
 133.3347830  96.4321700  39.6068550 134.7618660  96.2326910  39.1426140
 128.1271560  97.2241070  40.1945740 127.2956440  96.9689780  40.5942250
 128.7352540  97.2951840  40.9303660 138.1313160 101.3181450  38.0969110
 137.6694690 100.5468690  38.4256280 138.9438710 101.3447520  38.6021560
 128.1072820 101.2581160  40.3903760 128.4100860 100.3678900  40.2113980
 128.8516410 101.8151380  40.1626010 126.5363510  92.1842960  33.9788130
 125.6480210  92.5258930  33.8768010 126.8204700  91.9843280  33.0868960
 124.4996520  94.7848610  39.8627830 125.0712630  94.0170810  39.8631470
 124.4998060  95.0837370  38.9534440 134.3576470 103.6039460  37.7173100
 133.7387910 104.0596960  37.1467540 135.2128250 103.7590920  37.3162800
 133.5514720  99.5878450  39.3240140 133.4823000  98.6468390  39.1629270
 134.3134580  99.6779860  39.8962710 125.7421390  90.1932970  41.6496760
 125.5624230  89.2958720  41.9299520 125.3401470  90.7404840  42.3243710
 134.5819890  92.3948830  39.5509070 134.9584710  91.5220710  39.4382740
 134.4839400  92.7307530  38.6599510 128.7124900  90.7674460  35.0126510
 128.8191650  91.6678190  35.3195270 127.8017260  90.7192430  34.7221160
 138.3644010  89.8899270  36.4837410 139.1853630  89.3995840  36.5262890
 138.3978090  90.4796930  37.2369250 126.3608060  92.6893470  40.2579100
 127.0418170  92.9531840  40.8766500 126.0456110  91.8494340  40.5917110
 130.5532630  93.7360830  39.3451690 131.0610850  94.2341800  39.9856710
 131.0845870  92.9596030  39.1691050 142.6543560  91.9066020  43.0481040
 141.9495730  92.2947730  42.5296150 142.9201480  92.6016310  43.6501970
 128.8368730  88.3759390  43.6115110 128.8387170  88.8931780  42.8061010
 128.0073040  87.8989570  43.5885040 135.2239820  98.4878700  35.1105010
 134.6057090  98.9528150  34.5467730 135.7363070  99.1806180  35.5274520
 130.0871580  98.0154570  41.7888610 129.7540960  98.6423490  42.4309680
 130.2638260  98.5416450  41.0090280 138.6005490  91.8299650  39.2564950
 137.8961060  92.1184540  39.8368060 138.9617650  92.6399760  38.8964510
 128.5184060  90.0869350  41.6185560 128.8600870  90.9311400  41.3239430
 127.5799870  90.2353090  41.7350900 129.2990680  99.9835370  43.6037790
 129.9164680 100.6586450  43.3222240 128.4383800 100.3923350  43.5125290
 124.5923020  99.1735230  32.4844640 124.2151000  99.6622330  31.7529540
 124.8496090  99.8460510  33.1151170 140.2168270 101.4474780  41.5192430
 139.5331790 102.1173890  41.5109100 140.7562560 101.6455430  40.7537290
 141.6692410  91.2754440  39.6474160 140.7217320  91.3093420  39.7789590
 141.9942400  92.0893390  40.0323520 132.2011950  87.5751620  37.9430150
 132.5086930  87.0198510  37.2265650 131.2712650  87.7096080  37.7603140
 137.7527010 103.2918910  40.2337610 137.7654170 102.8881200  39.3659870
 137.2002230 104.0666200  40.1299040 139.0472430 100.0135130  35.3227780
 138.9368760  99.0709460  35.4477200 139.0440680 100.3750770  36.2090540
 137.1512450  98.1948750  41.5620220 137.5681240  97.9808860  40.7273680
 137.8752270  98.4521540  42.1328840 134.5892710  95.6400450  34.6790270
 133.6621990  95.5737830  34.9078740 134.7417530  96.5780580  34.5645510
 134.5761790  91.9117450  31.6757430 133.6365460  92.0731410  31.7609890
 134.8945050  92.6303130  31.1293420 141.0974550  96.5935970  41.6536460
 140.2693180  96.6629060  41.1786590 141.6925030  97.1790280  41.1852290
 138.6190000  97.2020750  35.1825520 138.0002420  96.8640300  34.5351820
 138.6014450  96.5580510  35.8904710 138.0616560  93.3805290  42.5991330
 137.6487740  94.2059000  42.8531320 137.3292510  92.7950330  42.4067690
 130.1949350  96.1665190  37.4610000 129.7906350  95.4542440  36.9655900
 130.2812470  95.8218430  38.3498040 130.6631050  99.8532750  39.6249210
 130.3659340  99.2478220  38.9456990 131.6130870  99.8910060  39.5138570
 128.9077970  92.9408400  41.2409040 129.4592560  93.0503740  40.4662290
 129.4221480  93.3146000  41.9564270 138.7516660 103.4264620  43.2872310
 138.2747220 104.2336810  43.0944920 138.0678450 102.7742950  43.4398520
 129.7549480  99.5914440  46.2757010 128.8578010  99.8154410  46.5230410
 129.7802350  99.7149380  45.3268410 136.7954700  96.4407560  32.1898270
 137.2347980  95.6029990  32.0436090 137.5083120  97.0736960  32.2762410
 128.5820700  96.4627760  44.8514380 128.4428470  97.3350560  45.2201780
 127.7002060  96.1200570  44.7062320 134.9050080 101.3803630  36.1579510
 135.3445990 102.1227960  35.7434900 134.8436970 101.6230200  37.0818470
 130.3801050 102.4049460  47.0599530 130.3516480 102.8092410  46.1927960
 130.2166020 101.4759820  46.8971130 140.3771840  87.6950370  30.5039310
 140.0644500  87.7877200  31.4038380 141.1384310  88.2731400  30.4536740
 126.8953980  95.0610170  34.9616650 126.7751580  95.7872260  34.3497920
 126.5854870  94.2913080  34.4844560 142.3315870 103.1876560  48.3563700
 142.8075590 103.6659450  49.0352780 142.9523030 103.1194050  47.6309200
 124.5339350  98.2325310  40.7685290 124.6119770  98.3674080  39.8241010
 125.1481030  97.5241200  40.9613410 125.7786980  99.9325500  37.1791470
 125.3715060 100.0740090  36.3245070 126.6699990  99.6485660  36.9762680
 141.7349120 100.3789410  45.5163710 141.8612180 100.1401290  44.5980890
 141.7770500  99.5473950  45.9885790 135.5965860 104.0817410  44.0858520
 136.1110530 103.9925420  44.8880950 134.7534940 104.4277110  44.3786430
 137.5720260 104.3672750  33.5142520 137.4121400 104.0775690  34.4124350
 137.4066970 103.5912880  32.9787750 130.0508640 104.1471280  35.2914140
 129.8751120 103.2306820  35.0781940 129.1964380 104.5058570  35.5311940
 137.2746390 101.8760310  32.0740520 136.5811550 101.8737600  31.4142800
 138.0169250 101.4519630  31.6434690 136.8396320 103.5023020  36.1489010
 137.2953270 102.7212400  36.4627630 137.1788840 104.2129840  36.6930190
 141.5873130  92.4321870  46.4813450 140.9717400  92.9401540  45.9528910
 141.2669550  91.5320200  46.4239390 124.5898870  99.2739480  43.3079750
 124.7529910  98.8044840  42.4899120 125.0551320  98.7663040  43.9728590
 129.3617640  88.4045240  38.3440320 128.9185790  89.1854780  38.0124840
 129.9202630  88.7275130  39.0511260 133.6487450  91.2713760  43.9475640
 133.1866820  91.4796780  44.7595580 133.2465560  90.4573110  43.6446310
 138.6491960  92.4922710  45.0772300 137.7985550  92.1928460  45.3981370
 138.4893750  92.7364720  44.1656120 135.7441670  93.9924460  47.1771090
 136.0695080  93.1588210  46.8373320 136.5322000  94.5152980  47.3249420
 132.4776460  88.0255940  33.2246150 131.8530640  88.0215810  33.9499460
 132.3906580  87.1586900  32.8282120 131.3993540  88.9492570  40.2029920
 131.6965870  89.8555400  40.1221940 131.9479100  88.4611350  39.5889490
 129.1531860  93.5278810  36.0721570 128.9272780  93.3115980  36.9768190
 128.3724390  93.9607270  35.7267540 136.3829620  93.5342180  34.6712220
 135.7838510  94.2577980  34.4875840 136.9309230  93.4718960  33.8888670
 131.5931070  94.4264390  46.7381840 131.4974670  93.4859120  46.5882240
 132.4363050  94.6479460  46.3429910 134.9894490  92.1705720  36.7015500
 135.3824060  92.4877920  35.8884190 135.3511340  91.2917600  36.8160020
 126.7241610  90.8378060  44.8915620 126.3305000  91.6853270  45.0988400
 126.0360010  90.2004430  45.0824260 133.2986660  90.9213030  47.9612360
 132.6084980  90.7285230  48.5958450 134.0418960  91.2047670  48.4936660
 124.0258660  88.7606520  38.9245700 123.7371710  89.3309380  39.6370680
 124.7704420  88.2810970  39.2876930 124.2128890  92.7026640  30.1348420
 124.1303560  93.6457400  30.2763410 123.8611950  92.5601550  29.2560770
 135.5749630  94.7611470  40.7966280 134.8430750  95.2698280  41.1456380
 135.1773970  93.9441450  40.4955060 132.0127020  91.4365670  39.2018770
 132.0163080  90.9955620  38.3523310 132.9078140  91.7583000  39.3090590
 127.8629400  91.3192160  38.1612980 127.5229450  91.7967390  38.9180030
 127.1006720  90.8657280  37.8014080 132.0747170  92.4377750  32.1925530
 132.1959990  92.3964230  33.1411350 131.6895680  93.3001900  32.0372260
 136.0375540  90.2145150  40.2089220 136.0548280  90.6653800  41.0531070
 135.7891120  89.3150790  40.4222660 131.0868670  94.7478890  31.5908830
 130.5185570  94.2997140  30.9644740 131.7957670  95.1071670  31.0573980
 139.4646290  87.6277330  46.0475600 139.7892060  86.8966990  46.5733580
 139.5002800  87.3090970  45.1456590 126.1637850  98.6490910  45.4675560
 125.7792640  98.0084580  46.0658520 126.4750040  99.3527030  46.0370290
 132.3134990  95.4967450  40.9484180 132.6805120  95.0226020  41.6945520
 132.1240050  96.3709020  41.2892520 125.1775480  90.2411140  37.0777650
 124.8922400  89.8766810  37.9156270 125.1154340  89.5091600  36.4640790
 130.1034360  94.5376090  43.2668390 129.7991430  95.4168070  43.4918750
 131.0580820  94.5975880  43.3025830 128.6316150  98.7437080  33.8635240
 127.8578410  98.2034700  33.7033960 129.3610780  98.2243690  33.5253000
 139.3904130  97.7402440  39.6561630 140.1103250  98.2357730  39.2657740
 139.1885950  97.0620330  39.0115500 134.8514070  89.1340400  33.7991020
 134.0378680  88.6353570  33.7236330 134.6576020  89.9738650  33.3827370
 134.7722930  97.8111500  45.5430630 134.7060240  96.8907170  45.2888220
 134.1428070  97.9086940  46.2575270 137.5662460  93.5060050  32.0953180
 138.4542080  93.8177280  31.9204520 137.5367550  92.6332300  31.7033760
 128.6753550  98.4117460  37.5014050 129.1932220  97.6085720  37.4470940
 128.2237570  98.3496600  38.3430880 133.5623050  99.6783740  32.7741350
 133.9038750 100.4225970  32.2784670 132.7335760  99.9914860  33.1366180
 126.1598090  95.3778830  44.4139750 125.8013030  96.0432680  45.0013090
 125.8652650  94.5462380  44.7852370 134.7039660 100.6332070  45.2934430
 134.7184200  99.7013030  45.0753340 133.9964760 100.7191830  45.9324200
 139.8376730  94.8171890  31.5633040 139.7540450  95.2486110  30.7129480
 140.5570920  95.2770240  31.9959860 140.9150870  97.2739410  44.6403010
 140.1899060  97.8668190  44.4432400 141.4426330  97.2662950  43.8416380
 140.8663980 101.6714150  34.2915170 140.2240140 101.0169770  34.5658890
 140.4794640 102.0769240  33.5155840 136.4450460  98.9999580  38.1386860
 136.7974280  98.4027710  37.4788230 135.5612790  98.6743810  38.3095110
 132.5313740  99.7597270  35.5457270 133.2184870 100.3066480  35.9264860
 131.7446160 100.3038000  35.5806880 124.6706140  95.3770090  31.0374350
 125.5400990  95.6594890  31.3210270 124.1796460  96.1905960  30.9223160
 131.8340950  96.7643300  35.1582630 132.2903730  97.5748550  35.3842820
 131.4829160  96.4466440  35.9901120 134.1373560 102.2749640  42.3874930
 134.7815780 102.4809020  43.0648350 134.5003000 101.5138040  41.9345780
 127.7352730  87.1080950  35.6305150 127.6067360  87.0998850  36.5790070
 126.9114750  87.4464040  35.2796160 135.4105640 100.2781990  41.1052380
 136.0527870  99.5775150  41.2184550 135.9354990 101.0580430  40.9249270
 139.2561360 100.5630610  30.8291520 139.0298940  99.8461050  31.4216160
 138.8657560 100.3143050  29.9913270 137.1843260 101.0776890  44.3088440
 137.5199500 101.6643580  44.9866360 136.2643600 100.9469600  44.5386230
 125.0377390 104.5897470  31.6035980 125.3975030 105.1886810  30.9493250
 124.8969730 105.1357360  32.3771010 124.7346660  88.8672070  45.0911850
 124.0205180  89.0668990  45.6964460 125.1541700  88.0911640  45.4626650
 138.8377610  98.4802550  32.4905680 138.5499310  98.9415240  33.2783560
 139.6329780  98.0200320  32.7589900 125.0219250 102.8552330  46.0778380
 125.1310370 101.9147070  45.9373770 124.3699810 103.1207080  45.4292110
 133.0131840 101.1268220  47.4776500 132.6928710 100.4077460  48.0222190
 132.3390200 101.8023290  47.5512560 131.0546010 101.9728670  32.4209650
 131.0456110 102.7058360  31.8054160 130.1344370 101.7260250  32.5136610
 126.6552650  97.1943560  33.1656410 126.0480600  97.9342460  33.1751710
 127.1302000  97.2842920  32.3394610 136.2285440  91.3594380  42.8413300
 136.5966260  90.5389590  43.1692870 135.3683640  91.4196270  43.2568950
 139.5947470  90.3151320  33.6500860 138.9660630  90.4196990  32.9359090
 139.0999390  90.5348100  34.4394740 134.0405610 102.0356910  31.0834840
 134.1417590 101.8320900  30.1536820 133.1407350 101.7815190  31.2882620
 131.5631500  92.5937270  35.0658740 130.8547650  93.0623610  35.5072350
 131.8475980  91.9359280  35.7003930 133.1887430  94.0133970  43.0651270
 133.6872680  94.4879790  43.7303120 133.3310380  93.0897490  43.2721300
 135.5946930  89.3187930  36.5054530 135.4714710  89.3374060  35.5564040
 136.5431490  89.3666870  36.6252930 132.6823720 104.5543230  35.7782510
 132.9365220 104.5164620  34.8561880 131.7336200 104.4276560  35.7710760
 129.7666520  90.9022350  32.4409450 130.6157050  91.3392500  32.3749640
 129.3997790  91.2142610  33.2681510 140.3954290  90.2301930  43.9079660
 139.8927890  90.9707330  44.2473470 141.2110950  90.6185930  43.5916450
 138.6876300  95.4735110  37.3541020 137.7466440  95.4885340  37.5288710
 139.0020370  94.6871070  37.8001320 128.6657940  97.1554710  30.9144980
 129.4321210  97.0436070  31.4770410 128.7432630  96.4592680  30.2621750
 127.3604700  94.5879780  31.5977870 127.4408290  93.6407290  31.7095270
 128.2524450  94.9186660  31.7038530 140.6901880 102.6443960  39.0295280
 140.8149300 103.4675130  39.5019090 141.5567440 102.4334690  38.6819430
 128.1619410 104.7375170  38.7012410 128.8981890 104.1890630  38.9720980
 128.5460330 105.6031180  38.5618400 125.0464890 100.8048740  34.5753920
 124.1204670 101.0469880  34.5659330 125.5121320 101.6323000  34.4538670
 127.1677690 103.9221240  47.8897990 127.9690420 104.2433290  48.3033390
 126.6529510 103.5616820  48.6117900 131.2721720 103.9105480  30.5237980
 132.0650330 104.1994310  30.0719770 130.7526070 103.4797650  29.8450460
 136.0042320 100.0301110  47.8373400 135.3980480 100.0532710  47.0969150
 135.6996430  99.2984150  48.3740650 137.4342690 103.7581400  46.4482810
 138.3864440 103.6739420  46.3983050 137.2870910 104.4223110  47.1216600
 140.3251890 103.1375610  31.9474720 140.0393400 102.7240750  31.1328900
 140.1271440 104.0663320  31.8275240 131.7899120  99.1308890  30.3880330
 131.6849760  98.5161240  31.1141710 131.6223340  98.6074780  29.6043340
 131.9413440  97.8165690  46.3669560 131.1759110  98.3850690  46.2824230
 132.1229400  97.5241900  45.4737790 135.0301850  98.1928920  30.9922320
 134.4811950  98.6398220  31.6365060 135.6521110  97.6878170  31.5159990
 139.0836790  99.5471020  46.9244580 139.8246260  99.8846780  46.4212040
 138.3209470  99.7163080  46.3714350 130.6976970  97.1519840  32.8887620
 131.1193390  96.9859710  33.7319010 130.8227810  96.3420070  32.3942760
 128.8604390  93.1316390  45.6958600 128.3300850  92.6407340  45.0681940
 129.5292460  93.5600590  45.1616530 133.2104610  96.1757450  30.1364720
 133.7310270  95.4606470  29.7705870 133.8573010  96.8143320  30.4365230
 137.7582450  97.5985850  45.4599790 138.1723470  97.7530930  46.3090210
 136.8233450  97.7241070  45.6225570 138.2304620  94.9382010  47.4638940
 138.8125390  94.1834330  47.3759420 138.4066390  95.4689450  46.6870420
 129.3476690  90.0978760  45.7755890 129.2533560  89.4799510  45.0506760
 128.7674080  90.8245050  45.5485800 132.1138130  88.6552000  42.8083280
 131.6655430  88.6776260  41.9628830 131.4803330  88.2571020  43.4053580
 132.5197680  97.5506330  43.4295720 132.9385790  98.3939060  43.2571960
 131.6006310  97.6878370  43.2002500 134.8561580  95.2822510  44.8133560
 134.9757790  94.6863650  45.5528400 135.7155580  95.3192200  44.3934860
 137.1949480  95.8359700  43.3896070 136.6684700  96.3602320  42.7861210
 137.5380820  96.4687090  44.0205800 129.5935870  93.2253070  29.8345780
 129.3924930  92.3620430  30.1959120 129.4227920  93.1386430  28.8967380
 130.3705100 103.8559340  44.5453450 129.8326190 104.5805400  44.2262150
 130.6239060 103.3789680  43.7550790 131.6230350  91.8243860  46.0709380
 132.2130040  91.5159710  46.7587200 130.8050590  91.3523610  46.2269280
 136.4423780  91.4409670  46.3042400 135.7539300  90.7791210  46.2392390
 137.1629800  90.9947940  46.7490860 137.0724180  88.0361300  32.3632660
 137.3526470  87.1929200  32.7192080 136.2989910  88.2684410  32.8771410
 128.3918670  90.3253690  29.8223660 128.6944570  90.3321120  28.9142810
 129.1313260  89.9751550  30.3191320 133.2267310 105.0910550  44.8040100
 133.1526010 105.9945690  45.1112470 132.3246150 104.7722450  44.7762170
 131.6103600  89.2688310  30.8079860 131.2625600  88.5912300  30.2282310
 131.8116370  88.8077820  31.6223250 133.7752640 104.2569060  32.4266460
 134.6703430 104.5954030  32.4485220 133.8070270 103.5348470  31.7990740
 127.4148800  99.6296110  30.6553460 127.8523670 100.1725780  31.3111040
 127.8996530  98.8043060  30.6649800 124.6294600 102.4185140  38.1073720
 124.9597610 101.5506200  37.8752360 125.0585600 102.6243660  38.9378680
 129.2256520 100.7494150  35.7675690 128.9252060 100.6259120  36.6679600
 129.1194010  99.8902740  35.3591420 125.1184810 103.2855730  40.8455350
 124.6815800 103.4656530  41.6779500 125.6862490 104.0430350  40.7037070
 140.7546990 102.7872730  45.1332660 140.1548980 102.8465290  44.3896580
 140.8840890 101.8477710  45.2629510 141.9948440 100.5290550  30.4702370
 141.1641400 100.5967200  30.9409600 142.1720270 101.4194670  30.1669230
 141.4504900  97.2738030  32.9736570 142.2123810  97.8434680  33.0796260
 141.4659270  96.7065230  33.7444880 124.9509240  95.7975960  37.2044230
 124.2958080  95.5287600  36.5603930 125.7887190  95.6880440  36.7546210
 142.4564870  98.1288130  37.8178500 142.8273700  97.3455450  37.4114470
 143.0966800  98.8177230  37.6395800 139.4398630  99.5124710  43.2308820
 138.6258470  99.9421870  43.4934610 139.8472830 100.1243120  42.6177870
 141.5024070  97.5672400  30.1309090 141.7772910  98.4751280  30.0028310
 141.3134810  97.5034930  31.0671080 137.8999680  90.5917250  31.4262720
 138.3184560  90.4048230  30.5859380 137.5935740  89.7396300  31.7365650
 141.3989410  95.5041390  35.1238520 141.0233010  94.7369320  34.6919810
 140.6692530  95.8864090  35.6113450 125.9885170  96.1828530  41.7447570
 126.3558210  96.0955930  42.6243590 125.4195990  95.4195080  41.6454430
 140.7889030  94.6512910  44.7578040 140.5575120  94.4225660  43.8575990
 141.0493580  95.5712460  44.7122930 139.2277100  89.8769340  47.5357740
 140.1047280  89.8852740  47.9191740 139.2397940  89.1400180  46.9250090
 124.1647320  93.0074890  33.1469560 123.2611400  93.2705090  32.9721220
 124.6487940  93.2786060  32.3669520 140.6740370  93.7298880  38.4245760
 141.1977850  93.2361530  37.7935930 141.2599790  93.8649240  39.1693330
 140.8530090  93.8138750  41.9465310 139.9032800  93.7802290  42.0610300
 141.0343100  94.7238860  41.7115080 126.7074530  92.0640430  31.0563940
 127.4166230  91.6423650  30.5711220 125.9914470  92.1315660  30.4247290
 126.3548690  88.1179760  30.0966590 127.0776820  88.6588700  30.4147810
 126.6273210  87.8443180  29.2208130 140.1640340  92.9872230  34.3638170
 140.6599460  92.7543100  35.1487050 139.9656410  92.1484070  33.9475810
 126.0440880  87.3685950  39.9989210 126.6917070  86.8183330  39.5584370
 126.4642720  87.6229100  40.8205020 141.5927500  91.6233180  36.8975850
 141.4826780  91.4689220  37.8358120 142.3535090  91.0954120  36.6551260
 139.9393220  87.5627310  43.3558850 140.5765440  88.1761450  43.7218040
 140.0868110  87.5987970  42.4108080 142.4817770  89.4541100  30.1381990
 143.4067080  89.3222280  29.9300280 142.4593560  89.5333920  31.0918440
 142.5556260  90.2251760  32.7638700 141.7607760  90.1596880  33.2931610
 142.7599540  91.1602400  32.7524050 139.4974680 104.2643310  36.7577090
 140.0933750 103.9427880  36.0811510 139.7552830 103.7915130  37.5490360
 125.7972880  87.5241620  42.7414530 125.4487700  87.9805440  43.5072710
 125.4660580  86.6298750  42.8236960 127.4037250 100.6961220  46.9067720
 127.3606880 100.3254130  47.7882180 127.5348260 101.6338790  47.0469540
 131.1043280 102.2520810  42.5077440 130.8634640 102.5195370  41.6207960
 132.0445920 102.4226540  42.5628300 133.3097700  88.7153500  46.2633950
 133.2486590  89.3075330  47.0129360 134.2498080  88.6079460  46.1184210
 135.9472260  88.3723560  45.9026240 136.5612670  88.6902850  45.2407320
 136.4921820  87.8872150  46.5222100 142.3647440 104.2715190  43.3088080
 141.8705720 104.6684060  42.5915210 141.7560730 103.6464400  43.7025360
 126.4693520  87.0517820  46.0165300 127.0176510  86.8705870  45.2531410
 126.5348830  86.2611930  46.5521610 127.2425280 103.6423470  44.0265500
 126.6485600 103.5108170  44.7655540 127.2349120 102.8061610  43.5607600
 136.6880300  86.9355700  42.2295530 135.8140140  87.2690810  42.0268460
 136.5791050  86.4628880  43.0547400 137.5952280  89.1426570  43.6137250
 137.2665640  88.3278330  43.2338980 138.5434580  89.0996380  43.4902940
 140.0486890 104.9138610  40.5874820 139.5889860 105.6654420  40.2132840
 139.4199350 104.1945080  40.5289620 126.8737510 101.0081850  42.9773540
 126.1471570 100.3887140  42.9099490 126.9346660 101.4022460  42.1071620
 130.4782610 103.2226850  39.7622950 130.9947630 102.6114210  39.2371210
 131.1279990 103.7255630  40.2533960 133.2178110 104.1135340  40.5891930
 133.5055920 103.8589640  39.7124940 133.7301330 103.5612700  41.1797500
 134.4355120  87.8525540  41.1688440 133.6526910  88.3271040  41.4485200
 134.1418050  86.9480370  41.0601620 138.9876190  88.5548640  39.2137530
 139.4284280  88.4993740  38.3659130 138.7183780  89.4706650  39.2847710
 140.8514760  88.1863880  37.2246350 140.7903160  87.2425100  37.0777370
 141.6306790  88.2943970  37.7699810 125.1567510 104.3256240  36.1870300
 124.9889550 103.6926920  36.8852190 124.2902020 104.5315640  35.8364490
 125.7795530  88.1573020  33.6902160 126.5374890  88.2701900  33.1166190
 125.3172700  88.9942220  33.6445590 132.3209340  90.2712290  36.6804470
 131.5083850  89.8969180  36.3400350 132.8250980  89.5157370  36.9825660
 136.8234320  86.9354740  37.9187540 137.4263690  87.5074950  38.3936060
 136.0827310  87.4994180  37.6961440 139.9668920  87.3376300  33.1927820
 140.1619550  88.2359750  33.4595250 139.1798790  87.1063380  33.6860770
 126.7630210 103.0189470  33.6320440 126.2377830 103.3997500  32.9282400
 126.6874790 103.6440240  34.3530150 128.1520680  88.6837070  32.2304130
 128.6813440  87.8966870  32.1012080 128.7849000  89.3628260  32.4639660
 130.3458520  88.4212210  35.2849520 129.7161260  87.7199520  35.4519650
 129.8063660  89.1816340  35.0682680 133.2850470 105.0351440  47.9560130
 134.2117780 104.7995710  47.9996090 133.2700900 105.8623440  47.4746160
 141.5195530 104.5777010  34.9534380 141.6947720 103.8914750  34.3095300
 140.8217100 105.1024060  34.5611050 130.4714080  87.6996190  47.7202010
 130.1898350  88.2029790  46.9562830 130.8533780  86.9017940  47.3544140
 129.3623180 104.9671850  32.5069690 130.0942000 104.6831130  31.9593580
 129.6216850 104.7285130  33.3969070 128.5237970 101.0836580  32.5116020
 127.8946850 101.5521680  33.0601850 128.6385800 100.2385800  32.9462210
 137.0729540  87.1149770  48.2982480 136.9594990  87.4344380  49.1934000
 137.8899280  87.5162280  48.0019760 139.8528030 104.2621300  47.7801170
 140.6453350 103.7670530  47.5727130 140.1461180 104.9411440  48.3876780
 135.9787690  95.1342240  18.6617220 135.8981740  94.2196850  18.3908930
 135.5652110  95.6309310  17.9556930 134.1105730  96.9121260  20.5426490
 133.3347830  96.4321700  20.8325060 134.7618660  96.2326910  20.3682650
 128.1271560  97.2241070  21.4202250 127.2956440  96.9689780  21.8198760
 128.7352540  97.2951840  22.1560170 138.1313160 101.3181450  19.3225620
 137.6694690 100.5468690  19.6512790 138.9438710 101.3447520  19.8278070
 128.1072820 101.2581160  21.6160270 128.4100860 100.3678900  21.4370490
 128.8516410 101.8151380  21.3882520 126.5363510  92.1842960  15.2044640
 125.6480210  92.5258930  15.1024520 126.8204700  91.9843280  14.3125470
 124.4996520  94.7848610  21.0884340 125.0712630  94.0170810  21.0887980
 124.4998060  95.0837370  20.1790950 134.3576470 103.6039460  18.9429610
 133.7387910 104.0596960  18.3724050 135.2128250 103.7590920  18.5419310
 133.5514720  99.5878450  20.5496650 133.4823000  98.6468390  20.3885780
 134.3134580  99.6779860  21.1219220 125.7421390  90.1932970  22.8753270
 125.5624230  89.2958720  23.1556030 125.3401470  90.7404840  23.5500220
 134.5819890  92.3948830  20.7765580 134.9584710  91.5220710  20.6639250
 134.4839400  92.7307530  19.8856020 128.7124900  90.7674460  16.2383020
 128.8191650  91.6678190  16.5451780 127.8017260  90.7192430  15.9477670
 138.3644010  89.8899270  17.7093920 139.1853630  89.3995840  17.7519400
 138.3978090  90.4796930  18.4625760 126.3608060  92.6893470  21.4835610
 127.0418170  92.9531840  22.1023010 126.0456110  91.8494340  21.8173620
 130.5532630  93.7360830  20.5708200 131.0610850  94.2341800  21.2113220
 131.0845870  92.9596030  20.3947560 142.6543560  91.9066020  24.2737550
 141.9495730  92.2947730  23.7552660 142.9201480  92.6016310  24.8758480
 128.8368730  88.3759390  24.8371620 128.8387170  88.8931780  24.0317520
 128.0073040  87.8989570  24.8141550 135.2239820  98.4878700  16.3361520
 134.6057090  98.9528150  15.7724240 135.7363070  99.1806180  16.7531030
 130.0871580  98.0154570  23.0145120 129.7540960  98.6423490  23.6566190
 130.2638260  98.5416450  22.2346790 138.6005490  91.8299650  20.4821460
 137.8961060  92.1184540  21.0624570 138.9617650  92.6399760  20.1221020
 128.5184060  90.0869350  22.8442070 128.8600870  90.9311400  22.5495940
 127.5799870  90.2353090  22.9607410 129.2990680  99.9835370  24.8294300
 129.9164680 100.6586450  24.5478750 128.4383800 100.3923350  24.7381800
 124.5923020  99.1735230  13.7101150 124.2151000  99.6622330  12.9786050
 124.8496090  99.8460510  14.3407680 140.2168270 101.4474780  22.7448940
 139.5331790 102.1173890  22.7365610 140.7562560 101.6455430  21.9793800
 141.6692410  91.2754440  20.8730670 140.7217320  91.3093420  21.0046100
 141.9942400  92.0893390  21.2580030 132.2011950  87.5751620  19.1686660
 132.5086930  87.0198510  18.4522160 131.2712650  87.7096080  18.9859650
 137.7527010 103.2918910  21.4594120 137.7654170 102.8881200  20.5916380
 137.2002230 104.0666200  21.3555550 139.0472430 100.0135130  16.5484290
 138.9368760  99.0709460  16.6733710 139.0440680 100.3750770  17.4347050
 137.1512450  98.1948750  22.7876730 137.5681240  97.9808860  21.9530190
 137.8752270  98.4521540  23.3585350 134.5892710  95.6400450  15.9046780
 133.6621990  95.5737830  16.1335250 134.7417530  96.5780580  15.7902020
 134.5761790  91.9117450  12.9013940 133.6365460  92.0731410  12.9866400
 134.8945050  92.6303130  12.3549930 141.0974550  96.5935970  22.8792970
 140.2693180  96.6629060  22.4043100 141.6925030  97.1790280  22.4108800
 138.6190000  97.2020750  16.4082030 138.0002420  96.8640300  15.7608330
 138.6014450  96.5580510  17.1161220 138.0616560  93.3805290  23.8247840
 137.6487740  94.2059000  24.0787830 137.3292510  92.7950330  23.6324200
 130.1949350  96.1665190  18.6866510 129.7906350  95.4542440  18.1912410
 130.2812470  95.8218430  19.5754550 130.6631050  99.8532750  20.8505720
 130.3659340  99.2478220  20.1713500 131.6130870  99.8910060  20.7395080
 128.9077970  92.9408400  22.4665550 129.4592560  93.0503740  21.6918800
 129.4221480  93.3146000  23.1820780 138.7516660 103.4264620  24.5128820
 138.2747220 104.2336810  24.3201430 138.0678450 102.7742950  24.6655030
 129.7549480  99.5914440  27.5013520 128.8578010  99.8154410  27.7486920
 129.7802350  99.7149380  26.5524920 136.7954700  96.4407560  13.4154780
 137.2347980  95.6029990  13.2692600 137.5083120  97.0736960  13.5018920
 128.5820700  96.4627760  26.0770890 128.4428470  97.3350560  26.4458290
 127.7002060  96.1200570  25.9318830 134.9050080 101.3803630  17.3836020
 135.3445990 102.1227960  16.9691410 134.8436970 101.6230200  18.3074980
 130.3801050 102.4049460  28.2856040 130.3516480 102.8092410  27.4184470
 130.2166020 101.4759820  28.1227640 140.3771840  87.6950370  11.7295820
 140.0644500  87.7877200  12.6294890 141.1384310  88.2731400  11.6793250
 126.8953980  95.0610170  16.1873160 126.7751580  95.7872260  15.5754430
 126.5854870  94.2913080  15.7101070 142.3315870 103.1876560  29.5820210
 142.8075590 103.6659450  30.2609290 142.9523030 103.1194050  28.8565710
 124.5339350  98.2325310  21.9941800 124.6119770  98.3674080  21.0497520
 125.1481030  97.5241200  22.1869920 125.7786980  99.9325500  18.4047980
 125.3715060 100.0740090  17.5501580 126.6699990  99.6485660  18.2019190
 141.7349120 100.3789410  26.7420220 141.8612180 100.1401290  25.8237400
 141.7770500  99.5473950  27.2142300 135.5965860 104.0817410  25.3115030
 136.1110530 103.9925420  26.1137460 134.7534940 104.4277110  25.6042940
 137.5720260 104.3672750  14.7399030 137.4121400 104.0775690  15.6380860
 137.4066970 103.5912880  14.2044260 130.0508640 104.1471280  16.5170650
 129.8751120 103.2306820  16.3038450 129.1964380 104.5058570  16.7568450
 137.2746390 101.8760310  13.2997030 136.5811550 101.8737600  12.6399310
 138.0169250 101.4519630  12.8691200 136.8396320 103.5023020  17.3745520
 137.2953270 102.7212400  17.6884140 137.1788840 104.2129840  17.9186700
 141.5873130  92.4321870  27.7069960 140.9717400  92.9401540  27.1785420
 141.2669550  91.5320200  27.6495900 124.5898870  99.2739480  24.5336260
 124.7529910  98.8044840  23.7155630 125.0551320  98.7663040  25.1985100
 129.3617640  88.4045240  19.5696830 128.9185790  89.1854780  19.2381350
 129.9202630  88.7275130  20.2767770 133.6487450  91.2713760  25.1732150
 133.1866820  91.4796780  25.9852090 133.2465560  90.4573110  24.8702820
 138.6491960  92.4922710  26.3028810 137.7985550  92.1928460  26.6237880
 138.4893750  92.7364720  25.3912630 135.7441670  93.9924460  28.4027600
 136.0695080  93.1588210  28.0629830 136.5322000  94.5152980  28.5505930
 132.4776460  88.0255940  14.4502660 131.8530640  88.0215810  15.1755970
 132.3906580  87.1586900  14.0538630 131.3993540  88.9492570  21.4286430
 131.6965870  89.8555400  21.3478450 131.9479100  88.4611350  20.8146000
 129.1531860  93.5278810  17.2978080 128.9272780  93.3115980  18.2024700
 128.3724390  93.9607270  16.9524050 136.3829620  93.5342180  15.8968730
 135.7838510  94.2577980  15.7132350 136.9309230  93.4718960  15.1145180
 131.5931070  94.4264390  27.9638350 131.4974670  93.4859120  27.8138750
 132.4363050  94.6479460  27.5686420 134.9894490  92.1705720  17.9272010
 135.3824060  92.4877920  17.1140700 135.3511340  91.2917600  18.0416530
 126.7241610  90.8378060  26.1172130 126.3305000  91.6853270  26.3244910
 126.0360010  90.2004430  26.3080770 133.2986660  90.9213030  29.1868870
 132.6084980  90.7285230  29.8214960 134.0418960  91.2047670  29.7193170
 124.0258660  88.7606520  20.1502210 123.7371710  89.3309380  20.8627190
 124.7704420  88.2810970  20.5133440 124.2128890  92.7026640  11.3604930
 124.1303560  93.6457400  11.5019920 123.8611950  92.5601550  10.4817280
 135.5749630  94.7611470  22.0222790 134.8430750  95.2698280  22.3712890
 135.1773970  93.9441450  21.7211570 132.0127020  91.4365670  20.4275280
 132.0163080  90.9955620  19.5779820 132.9078140  91.7583000  20.5347100
 127.8629400  91.3192160  19.3869490 127.5229450  91.7967390  20.1436540
 127.1006720  90.8657280  19.0270590 132.0747170  92.4377750  13.4182040
 132.1959990  92.3964230  14.3667860 131.6895680  93.3001900  13.2628770
 136.0375540  90.2145150  21.4345730 136.0548280  90.6653800  22.2787580
 135.7891120  89.3150790  21.6479170 131.0868670  94.7478890  12.8165340
 130.5185570  94.2997140  12.1901250 131.7957670  95.1071670  12.2830490
 139.4646290  87.6277330  27.2732110 139.7892060  86.8966990  27.7990090
 139.5002800  87.3090970  26.3713100 126.1637850  98.6490910  26.6932070
 125.7792640  98.0084580  27.2915030 126.4750040  99.3527030  27.2626800
 132.3134990  95.4967450  22.1740690 132.6805120  95.0226020  22.9202030
 132.1240050  96.3709020  22.5149030 125.1775480  90.2411140  18.3034160
 124.8922400  89.8766810  19.1412780 125.1154340  89.5091600  17.6897300
 130.1034360  94.5376090  24.4924900 129.7991430  95.4168070  24.7175260
 131.0580820  94.5975880  24.5282340 128.6316150  98.7437080  15.0891750
 127.8578410  98.2034700  14.9290470 129.3610780  98.2243690  14.7509510
 139.3904130  97.7402440  20.8818140 140.1103250  98.2357730  20.4914250
 139.1885950  97.0620330  20.2372010 134.8514070  89.1340400  15.0247530
 134.0378680  88.6353570  14.9492840 134.6576020  89.9738650  14.6083880
 134.7722930  97.8111500  26.7687140 134.7060240  96.8907170  26.5144730
 134.1428070  97.9086940  27.4831780 137.5662460  93.5060050  13.3209690
 138.4542080  93.8177280  13.1461030 137.5367550  92.6332300  12.9290270
 128.6753550  98.4117460  18.7270560 129.1932220  97.6085720  18.6727450
 128.2237570  98.3496600  19.5687390 133.5623050  99.6783740  13.9997860
 133.9038750 100.4225970  13.5041180 132.7335760  99.9914860  14.3622690
 126.1598090  95.3778830  25.6396260 125.8013030  96.0432680  26.2269600
 125.8652650  94.5462380  26.0108880 129.3611210  95.8363070  28.5235810
 129.0611350  95.9820250  27.6263630 130.1322450  95.2768360  28.4309200
 134.7039660 100.6332070  26.5190940 134.7184200  99.7013030  26.3009850
 133.9964760 100.7191830  27.1580710 139.8376730  94.8171890  12.7889550
 139.7540450  95.2486110  11.9385990 140.5570920  95.2770240  13.2216370
 140.9150870  97.2739410  25.8659520 140.1899060  97.8668190  25.6688910
 141.4426330  97.2662950  25.0672890 140.8663980 101.6714150  15.5171680
 140.2240140 101.0169770  15.7915400 140.4794640 102.0769240  14.7412350
 136.4450460  98.9999580  19.3643370 136.7974280  98.4027710  18.7044740
 135.5612790  98.6743810  19.5351620 132.5313740  99.7597270  16.7713780
 133.2184870 100.3066480  17.1521370 131.7446160 100.3038000  16.8063390
 124.6706140  95.3770090  12.2630860 125.5400990  95.6594890  12.5466780
 124.1796460  96.1905960  12.1479670 131.8340950  96.7643300  16.3839140
 132.2903730  97.5748550  16.6099330 131.4829160  96.4466440  17.2157630
 134.1373560 102.2749640  23.6131440 134.7815780 102.4809020  24.2904860
 134.5003000 101.5138040  23.1602290 127.7352730  87.1080950  16.8561660
 127.6067360  87.0998850  17.8046580 126.9114750  87.4464040  16.5052670
 135.4105640 100.2781990  22.3308890 136.0527870  99.5775150  22.4441060
 135.9354990 101.0580430  22.1505780 139.2561360 100.5630610  12.0548030
 139.0298940  99.8461050  12.6472670 138.8657560 100.3143050  11.2169780
 137.1843260 101.0776890  25.5344950 137.5199500 101.6643580  26.2122870
 136.2643600 100.9469600  25.7642740 125.0377390 104.5897470  12.8292490
 125.3975030 105.1886810  12.1749760 124.8969730 105.1357360  13.6027520
 124.7346660  88.8672070  26.3168360 124.0205180  89.0668990  26.9220970
 125.1541700  88.0911640  26.6883160 138.8377610  98.4802550  13.7162190
 138.5499310  98.9415240  14.5040070 139.6329780  98.0200320  13.9846410
 125.0219250 102.8552330  27.3034890 125.1310370 101.9147070  27.1630280
 124.3699810 103.1207080  26.6548620 133.0131840 101.1268220  28.7033010
 132.6928710 100.4077460  29.2478700 132.3390200 101.8023290  28.7769070
 131.0546010 101.9728670  13.6466160 131.0456110 102.7058360  13.0310670
 130.1344370 101.7260250  13.7393120 126.6552650  97.1943560  14.3912920
 126.0480600  97.9342460  14.4008220 127.1302000  97.2842920  13.5651120
 136.2285440  91.3594380  24.0669810 136.5966260  90.5389590  24.3949380
 135.3683640  91.4196270  24.4825460 139.5947470  90.3151320  14.8757370
 138.9660630  90.4196990  14.1615600 139.0999390  90.5348100  15.6651250
 134.0405610 102.0356910  12.3091350 134.1417590 101.8320900  11.3793330
 133.1407350 101.7815190  12.5139130 131.5631500  92.5937270  16.2915250
 130.8547650  93.0623610  16.7328860 131.8475980  91.9359280  16.9260440
 133.1887430  94.0133970  24.2907780 133.6872680  94.4879790  24.9559630
 133.3310380  93.0897490  24.4977810 135.5946930  89.3187930  17.7311040
 135.4714710  89.3374060  16.7820550 136.5431490  89.3666870  17.8509440
 132.6823720 104.5543230  17.0039020 132.9365220 104.5164620  16.0818390
 131.7336200 104.4276560  16.9967270 129.7666520  90.9022350  13.6665960
 130.6157050  91.3392500  13.6006150 129.3997790  91.2142610  14.4938020
 140.3954290  90.2301930  25.1336170 139.8927890  90.9707330  25.4729980
 141.2110950  90.6185930  24.8172960 138.6876300  95.4735110  18.5797530
 137.7466440  95.4885340  18.7545220 139.0020370  94.6871070  19.0257830
 128.6657940  97.1554710  12.1401490 129.4321210  97.0436070  12.7026920
 128.7432630  96.4592680  11.4878260 127.3604700  94.5879780  12.8234380
 127.4408290  93.6407290  12.9351780 128.2524450  94.9186660  12.9295040
 140.6901880 102.6443960  20.2551790 140.8149300 103.4675130  20.7275600
 141.5567440 102.4334690  19.9075940 128.1619410 104.7375170  19.9268920
 128.8981890 104.1890630  20.1977490 128.5460330 105.6031180  19.7874910
 125.0464890 100.8048740  15.8010430 124.1204670 101.0469880  15.7915840
 125.5121320 101.6323000  15.6795180 127.1677690 103.9221240  29.1154500
 127.9690420 104.2433290  29.5289900 126.6529510 103.5616820  29.8374410
 131.2721720 103.9105480  11.7494490 132.0650330 104.1994310  11.2976280
 130.7526070 103.4797650  11.0706970 136.0042320 100.0301110  29.0629910
 135.3980480 100.0532710  28.3225660 135.6996430  99.2984150  29.5997160
 137.4342690 103.7581400  27.6739320 138.3864440 103.6739420  27.6239560
 137.2870910 104.4223110  28.3473110 140.3251890 103.1375610  13.1731230
 140.0393400 102.7240750  12.3585410 140.1271440 104.0663320  13.0531750
 124.8875500  96.4094700  28.0590550 125.3914520  95.8301980  28.6306780
 124.1482920  96.6934930  28.5966920 131.7899120  99.1308890  11.6136840
 131.6849760  98.5161240  12.3398220 131.6223340  98.6074780  10.8299850
 131.9413440  97.8165690  27.5926070 131.1759110  98.3850690  27.5080740
 132.1229400  97.5241900  26.6994300 135.0301850  98.1928920  12.2178830
 134.4811950  98.6398220  12.8621570 135.6521110  97.6878170  12.7416500
 139.0836790  99.5471020  28.1501090 139.8246260  99.8846780  27.6468550
 138.3209470  99.7163080  27.5970860 126.9198580  94.5524290  28.9540620
 126.9603920  94.2538160  29.8625850 127.7744080  94.9531900  28.7948140
 130.6976970  97.1519840  14.1144130 131.1193390  96.9859710  14.9575520
 130.8227810  96.3420070  13.6199270 128.8604390  93.1316390  26.9215110
 128.3300850  92.6407340  26.2938450 129.5292460  93.5600590  26.3873040
 133.2104610  96.1757450  11.3621230 133.7310270  95.4606470  10.9962380
 133.8573010  96.8143320  11.6621740 137.7582450  97.5985850  26.6856300
 138.1723470  97.7530930  27.5346720 136.8233450  97.7241070  26.8482080
 138.2304620  94.9382010  28.6895450 138.8125390  94.1834330  28.6015930
 138.4066390  95.4689450  27.9126930 129.3476690  90.0978760  27.0012400
 129.2533560  89.4799510  26.2763270 128.7674080  90.8245050  26.7742310
 132.1138130  88.6552000  24.0339790 131.6655430  88.6776260  23.1885340
 131.4803330  88.2571020  24.6310090 132.5197680  97.5506330  24.6552230
 132.9385790  98.3939060  24.4828470 131.6006310  97.6878370  24.4259010
 134.8561580  95.2822510  26.0390070 134.9757790  94.6863650  26.7784910
 135.7155580  95.3192200  25.6191370 137.1949480  95.8359700  24.6152580
 136.6684700  96.3602320  24.0117720 137.5380820  96.4687090  25.2462310
 129.5935870  93.2253070  11.0602290 129.3924930  92.3620430  11.4215630
 129.4227920  93.1386430  10.1223890 130.3705100 103.8559340  25.7709960
 129.8326190 104.5805400  25.4518660 130.6239060 103.3789680  24.9807300
 131.6230350  91.8243860  27.2965890 132.2130040  91.5159710  27.9843710
 130.8050590  91.3523610  27.4525790 136.4423780  91.4409670  27.5298910
 135.7539300  90.7791210  27.4648900 137.1629800  90.9947940  27.9747370
 137.0724180  88.0361300  13.5889170 137.3526470  87.1929200  13.9448590
 136.2989910  88.2684410  14.1027920 128.3918670  90.3253690  11.0480170
 128.6944570  90.3321120  10.1399320 129.1313260  89.9751550  11.5447830
 133.2267310 105.0910550  26.0296610 133.1526010 105.9945690  26.3368980
 132.3246150 104.7722450  26.0018680 131.6103600  89.2688310  12.0336370
 131.2625600  88.5912300  11.4538820 131.8116370  88.8077820  12.8479760
 133.7752640 104.2569060  13.6522970 134.6703430 104.5954030  13.6741730
 133.8070270 103.5348470  13.0247250 127.4148800  99.6296110  11.8809970
 127.8523670 100.1725780  12.5367550 127.8996530  98.8043060  11.8906310
 124.6294600 102.4185140  19.3330230 124.9597610 101.5506200  19.1008870
 125.0585600 102.6243660  20.1635190 129.2256520 100.7494150  16.9932200
 128.9252060 100.6259120  17.8936110 129.1194010  99.8902740  16.5847930
 125.1184810 103.2855730  22.0711860 124.6815800 103.4656530  22.9036010
 125.6862490 104.0430350  21.9293580 140.7546990 102.7872730  26.3589170
 140.1548980 102.8465290  25.6153090 140.8840890 101.8477710  26.4886020
 141.9948440 100.5290550  11.6958880 141.1641400 100.5967200  12.1666110
 142.1720270 101.4194670  11.3925740 141.4504900  97.2738030  14.1993080
 142.2123810  97.8434680  14.3052770 141.4659270  96.7065230  14.9701390
 124.9509240  95.7975960  18.4300740 124.2958080  95.5287600  17.7860440
 125.7887190  95.6880440  17.9802720 142.4564870  98.1288130  19.0435010
 142.8273700  97.3455450  18.6370980 143.0966800  98.8177230  18.8652310
 139.4398630  99.5124710  24.4565330 138.6258470  99.9421870  24.7191120
 139.8472830 100.1243120  23.8434380 141.5024070  97.5672400  11.3565600
 141.7772910  98.4751280  11.2284820 141.3134810  97.5034930  12.2927590
 137.8999680  90.5917250  12.6519230 138.3184560  90.4048230  11.8115890
 137.5935740  89.7396300  12.9622160 141.3989410  95.5041390  16.3495030
 141.0233010  94.7369320  15.9176320 140.6692530  95.8864090  16.8369960
 125.9885170  96.1828530  22.9704080 126.3558210  96.0955930  23.8500100
 125.4195990  95.4195080  22.8710940 140.7889030  94.6512910  25.9834550
 140.5575120  94.4225660  25.0832500 141.0493580  95.5712460  25.9379440
 125.5401170  93.0937620  26.8762500 124.6457220  93.0604380  27.2156210
 126.0798720  93.2924410  27.6413750 139.2277100  89.8769340  28.7614250
 140.1047280  89.8852740  29.1448250 139.2397940  89.1400180  28.1506600
 124.1647320  93.0074890  14.3726070 123.2611400  93.2705090  14.1977730
 124.6487940  93.2786060  13.5926030 140.6740370  93.7298880  19.6502270
 141.1977850  93.2361530  19.0192440 141.2599790  93.8649240  20.3949840
 140.8530090  93.8138750  23.1721820 139.9032800  93.7802290  23.2866810
 141.0343100  94.7238860  22.9371590 126.7074530  92.0640430  12.2820450
 127.4166230  91.6423650  11.7967730 125.9914470  92.1315660  11.6503800
 126.3548690  88.1179760  11.3223100 127.0776820  88.6588700  11.6404320
 126.6273210  87.8443180  10.4464640 140.1640340  92.9872230  15.5894680
 140.6599460  92.7543100  16.3743560 139.9656410  92.1484070  15.1732320
 126.0440880  87.3685950  21.2245720 126.6917070  86.8183330  20.7840880
 126.4642720  87.6229100  22.0461530 141.5927500  91.6233180  18.1232360
 141.4826780  91.4689220  19.0614630 142.3535090  91.0954120  17.8807770
 139.9393220  87.5627310  24.5815360 140.5765440  88.1761450  24.9474550
 140.0868110  87.5987970  23.6364590 142.4817770  89.4541100  11.3638500
 143.4067080  89.3222280  11.1556790 142.4593560  89.5333920  12.3174950
 142.5556260  90.2251760  13.9895210 141.7607760  90.1596880  14.5188120
 142.7599540  91.1602400  13.9780560 139.4974680 104.2643310  17.9833600
 140.0933750 103.9427880  17.3068020 139.7552830 103.7915130  18.7746870
 125.7972880  87.5241620  23.9671040 125.4487700  87.9805440  24.7329220
 125.4660580  86.6298750  24.0493470 127.4037250 100.6961220  28.1324230
 127.3606880 100.3254130  29.0138690 127.5348260 101.6338790  28.2726050
 131.1043280 102.2520810  23.7333950 130.8634640 102.5195370  22.8464470
 132.0445920 102.4226540  23.7884810 133.3097700  88.7153500  27.4890460
 133.2486590  89.3075330  28.2385870 134.2498080  88.6079460  27.3440720
 135.9472260  88.3723560  27.1282750 136.5612670  88.6902850  26.4663830
 136.4921820  87.8872150  27.7478610 142.3647440 104.2715190  24.5344590
 141.8705720 104.6684060  23.8171720 141.7560730 103.6464400  24.9281870
 126.4693520  87.0517820  27.2421810 127.0176510  86.8705870  26.4787920
 126.5348830  86.2611930  27.7778120 127.2425280 103.6423470  25.2522010
 126.6485600 103.5108170  25.9912050 127.2349120 102.8061610  24.7864110
 136.6880300  86.9355700  23.4552040 135.8140140  87.2690810  23.2524970
 136.5791050  86.4628880  24.2803910 137.5952280  89.1426570  24.8393760
 137.2665640  88.3278330  24.4595490 138.5434580  89.0996380  24.7159450
 140.0486890 104.9138610  21.8131330 139.5889860 105.6654420  21.4389350
 139.4199350 104.1945080  21.7546130 126.8737510 101.0081850  24.2030050
 126.1471570 100.3887140  24.1356000 126.9346660 101.4022460  23.3328130
 130.4782610 103.2226850  20.9879460 130.9947630 102.6114210  20.4627720
 131.1279990 103.7255630  21.4790470 133.2178110 104.1135340  21.8148440
 133.5055920 103.8589640  20.9381450 133.7301330 103.5612700  22.4054010
 134.4355120  87.8525540  22.3944950 133.6526910  88.3271040  22.6741710
 134.1418050  86.9480370  22.2858130 138.9876190  88.5548640  20.4394040
 139.4284280  88.4993740  19.5915640 138.7183780  89.4706650  20.5104220
 140.8514760  88.1863880  18.4502860 140.7903160  87.2425100  18.3033880
 141.6306790  88.2943970  18.9956320 125.1567510 104.3256240  17.4126810
 124.9889550 103.6926920  18.1108700 124.2902020 104.5315640  17.0621000
 125.7795530  88.1573020  14.9158670 126.5374890  88.2701900  14.3422700
 125.3172700  88.9942220  14.8702100 132.3209340  90.2712290  17.9060980
 131.5083850  89.8969180  17.5656860 132.8250980  89.5157370  18.2082170
 136.8234320  86.9354740  19.1444050 137.4263690  87.5074950  19.6192570
 136.0827310  87.4994180  18.9217950 139.9668920  87.3376300  14.4184330
 140.1619550  88.2359750  14.6851760 139.1798790  87.1063380  14.9117280
 126.7630210 103.0189470  14.8576950 126.2377830 103.3997500  14.1538910
 126.6874790 103.6440240  15.5786660 128.1520680  88.6837070  13.4560640
 128.6813440  87.8966870  13.3268590 128.7849000  89.3628260  13.6896170
 130.3458520  88.4212210  16.5106030 129.7161260  87.7199520  16.6776160
 129.8063660  89.1816340  16.2939190 133.2850470 105.0351440  29.1816640
 134.2117780 104.7995710  29.2252600 133.2700900 105.8623440  28.7002670
 141.5195530 104.5777010  16.1790890 141.6947720 103.8914750  15.5351810
 140.8217100 105.1024060  15.7867560 130.4714080  87.6996190  28.9458520
 130.1898350  88.2029790  28.1819340 130.8533780  86.9017940  28.5800650
 129.3623180 104.9671850  13.7326200 130.0942000 104.6831130  13.1850090
 129.6216850 104.7285130  14.6225580 128.5237970 101.0836580  13.7372530
 127.8946850 101.5521680  14.2858360 128.6385800 100.2385800  14.1718720
 137.0729540  87.1149770  29.5238990 136.9594990  87.4344380  30.4190510
 137.8899280  87.5162280  29.2276270 139.8528030 104.2621300  29.0057680
 140.6453350 103.7670530  28.7983640 140.1461180 104.9411440  29.6133290
 134.1105730  96.9121260   1.7683000 133.3347830  96.4321700   2.0581570
 134.7618660  96.2326910   1.5939160 128.1271560  97.2241070   2.6458760
 127.2956440  96.9689780   3.0455270 128.7352540  97.2951840   3.3816680
 128.1072820 101.2581160   2.8416780 128.4100860 100.3678900   2.6627000
 128.8516410 101.8151380   2.6139030 133.5514720  99.5878450   1.7753160
 133.4823000  98.6468390   1.6142290 134.3134580  99.6779860   2.3475730
 125.7421390  90.1932970   4.1009780 125.5624230  89.2958720   4.3812540
 125.3401470  90.7404840   4.7756730 126.3608060  92.6893470   2.7092120
 127.0418170  92.9531840   3.3279520 126.0456110  91.8494340   3.0430130
 130.5532630  93.7360830   1.7964710 131.0610850  94.2341800   2.4369730
 131.0845870  92.9596030   1.6204070 142.6543560  91.9066020   5.4994060
 141.9495730  92.2947730   4.9809170 142.9201480  92.6016310   6.1014990
 128.8368730  88.3759390   6.0628130 128.8387170  88.8931780   5.2574030
 128.0073040  87.8989570   6.0398060 130.0871580  98.0154570   4.2401630
 129.7540960  98.6423490   4.8822700 130.2638260  98.5416450   3.4603300
 128.5184060  90.0869350   4.0698580 128.8600870  90.9311400   3.7752450
 127.5799870  90.2353090   4.1863920 129.2990680  99.9835370   6.0550810
 129.9164680 100.6586450   5.7735260 128.4383800 100.3923350   5.9638310
 140.2168270 101.4474780   3.9705450 139.5331790 102.1173890   3.9622120
 140.7562560 101.6455430   3.2050310 141.6692410  91.2754440   2.0987180
 140.7217320  91.3093420   2.2302610 141.9942400  92.0893390   2.4836540
 137.7527010 103.2918910   2.6850630 137.7654170 102.8881200   1.8172890
 137.2002230 104.0666200   2.5812060 137.1512450  98.1948750   4.0133240
 137.5681240  97.9808860   3.1786700 137.8752270  98.4521540   4.5841860
 141.0974550  96.5935970   4.1049480 140.2693180  96.6629060   3.6299610
 141.6925030  97.1790280   3.6365310 138.0616560  93.3805290   5.0504350
 137.6487740  94.2059000   5.3044340 137.3292510  92.7950330   4.8580710
 128.9077970  92.9408400   3.6922060 129.4592560  93.0503740   2.9175310
 129.4221480  93.3146000   4.4077290 138.7516660 103.4264620   5.7385330
 138.2747220 104.2336810   5.5457940 138.0678450 102.7742950   5.8911540
 129.7549480  99.5914440   8.7270030 128.8578010  99.8154410   8.9743430
 129.7802350  99.7149380   7.7781430 128.5820700  96.4627760   7.3027400
 128.4428470  97.3350560   7.6714800 127.7002060  96.1200570   7.1575340
 130.3801050 102.4049460   9.5112550 130.3516480 102.8092410   8.6440980
 130.2166020 101.4759820   9.3484150 142.3315870 103.1876560  10.8076720
 142.8075590 103.6659450  11.4865800 142.9523030 103.1194050  10.0822220
 124.5339350  98.2325310   3.2198310 124.6119770  98.3674080   2.2754030
 125.1481030  97.5241200   3.4126430 141.7349120 100.3789410   7.9676730
 141.8612180 100.1401290   7.0493910 141.7770500  99.5473950   8.4398810
 135.5965860 104.0817410   6.5371540 136.1110530 103.9925420   7.3393970
 134.7534940 104.4277110   6.8299450 141.5873130  92.4321870   8.9326470
 140.9717400  92.9401540   8.4041930 141.2669550  91.5320200   8.8752410
 124.5898870  99.2739480   5.7592770 124.7529910  98.8044840   4.9412140
 125.0551320  98.7663040   6.4241610 133.6487450  91.2713760   6.3988660
 133.1866820  91.4796780   7.2108600 133.2465560  90.4573110   6.0959330
 138.6491960  92.4922710   7.5285320 137.7985550  92.1928460   7.8494390
 138.4893750  92.7364720   6.6169140 135.7441670  93.9924460   9.6284110
 136.0695080  93.1588210   9.2886340 136.5322000  94.5152980   9.7762440
 131.3993540  88.9492570   2.6542940 131.6965870  89.8555400   2.5734960
 131.9479100  88.4611350   2.0402510 131.5931070  94.4264390   9.1894860
 131.4974670  93.4859120   9.0395260 132.4363050  94.6479460   8.7942930
 126.7241610  90.8378060   7.3428640 126.3305000  91.6853270   7.5501420
 126.0360010  90.2004430   7.5337280 133.2986660  90.9213030  10.4125380
 132.6084980  90.7285230  11.0471470 134.0418960  91.2047670  10.9449680
 135.5749630  94.7611470   3.2479300 134.8430750  95.2698280   3.5969400
 135.1773970  93.9441450   2.9468080 136.0375540  90.2145150   2.6602240
 136.0548280  90.6653800   3.5044090 135.7891120  89.3150790   2.8735680
 139.4646290  87.6277330   8.4988620 139.7892060  86.8966990   9.0246600
 139.5002800  87.3090970   7.5969610 126.1637850  98.6490910   7.9188580
 125.7792640  98.0084580   8.5171540 126.4750040  99.3527030   8.4883310
 132.3134990  95.4967450   3.3997200 132.6805120  95.0226020   4.1458540
 132.1240050  96.3709020   3.7405540 130.1034360  94.5376090   5.7181410
 129.7991430  95.4168070   5.9431770 131.0580820  94.5975880   5.7538850
 139.3904130  97.7402440   2.1074650 140.1103250  98.2357730   1.7170760
 139.1885950  97.0620330   1.4628520 134.7722930  97.8111500   7.9943650
 134.7060240  96.8907170   7.7401240 134.1428070  97.9086940   8.7088290
 126.1598090  95.3778830   6.8652770 125.8013030  96.0432680   7.4526110
 125.8652650  94.5462380   7.2365390 129.3611210  95.8363070   9.7492320
 129.0611350  95.9820250   8.8520140 130.1322450  95.2768360   9.6565710
 134.7039660 100.6332070   7.7447450 134.7184200  99.7013030   7.5266360
 133.9964760 100.7191830   8.3837220 140.9150870  97.2739410   7.0916030
 140.1899060  97.8668190   6.8945420 141.4426330  97.2662950   6.2929400
 134.1373560 102.2749640   4.8387950 134.7815780 102.4809020   5.5161370
 134.5003000 101.5138040   4.3858800 135.4105640 100.2781990   3.5565400
 136.0527870  99.5775150   3.6697570 135.9354990 101.0580430   3.3762290
 137.1843260 101.0776890   6.7601460 137.5199500 101.6643580   7.4379380
 136.2643600 100.9469600   6.9899250 124.7346660  88.8672070   7.5424870
 124.0205180  89.0668990   8.1477480 125.1541700  88.0911640   7.9139670
 125.0219250 102.8552330   8.5291400 125.1310370 101.9147070   8.3886790
 124.3699810 103.1207080   7.8805130 133.0131840 101.1268220   9.9289520
 132.6928710 100.4077460  10.4735210 132.3390200 101.8023290  10.0025580
 136.2285440  91.3594380   5.2926320 136.5966260  90.5389590   5.6205890
 135.3683640  91.4196270   5.7081970 133.1887430  94.0133970   5.5164290
 133.6872680  94.4879790   6.1816140 133.3310380  93.0897490   5.7234320
 140.3954290  90.2301930   6.3592680 139.8927890  90.9707330   6.6986490
 141.2110950  90.6185930   6.0429470 127.1677690 103.9221240  10.3411010
 127.9690420 104.2433290  10.7546410 126.6529510 103.5616820  11.0630920
 136.0042320 100.0301110  10.2886420 135.3980480 100.0532710   9.5482170
 135.6996430  99.2984150  10.8253670 137.4342690 103.7581400   8.8995830
 138.3864440 103.6739420   8.8496070 137.2870910 104.4223110   9.5729620
 124.8875500  96.4094700   9.2847060 125.3914520  95.8301980   9.8563290
 124.1482920  96.6934930   9.8223430 131.9413440  97.8165690   8.8182580
 131.1759110  98.3850690   8.7337250 132.1229400  97.5241900   7.9250810
 139.0836790  99.5471020   9.3757600 139.8246260  99.8846780   8.8725060
 138.3209470  99.7163080   8.8227370 126.9198580  94.5524290  10.1797130
 126.9603920  94.2538160  11.0882360 127.7744080  94.9531900  10.0204650
 128.8604390  93.1316390   8.1471620 128.3300850  92.6407340   7.5194960
 129.5292460  93.5600590   7.6129550 137.7582450  97.5985850   7.9112810
 138.1723470  97.7530930   8.7603230 136.8233450  97.7241070   8.0738590
 138.2304620  94.9382010   9.9151960 138.8125390  94.1834330   9.8272440
 138.4066390  95.4689450   9.1383440 129.3476690  90.0978760   8.2268910
 129.2533560  89.4799510   7.5019780 128.7674080  90.8245050   7.9998820
 132.1138130  88.6552000   5.2596300 131.6655430  88.6776260   4.4141850
 131.4803330  88.2571020   5.8566600 132.5197680  97.5506330   5.8808740
 132.9385790  98.3939060   5.7084980 131.6006310  97.6878370   5.6515520
 134.8561580  95.2822510   7.2646580 134.9757790  94.6863650   8.0041420
 135.7155580  95.3192200   6.8447880 137.1949480  95.8359700   5.8409090
 136.6684700  96.3602320   5.2374230 137.5380820  96.4687090   6.4718820
 130.3705100 103.8559340   6.9966470 129.8326190 104.5805400   6.6775170
 130.6239060 103.3789680   6.2063810 131.6230350  91.8243860   8.5222400
 132.2130040  91.5159710   9.2100220 130.8050590  91.3523610   8.6782300
 136.4423780  91.4409670   8.7555420 135.7539300  90.7791210   8.6905410
 137.1629800  90.9947940   9.2003880 133.2267310 105.0910550   7.2553120
 133.1526010 105.9945690   7.5625490 132.3246150 104.7722450   7.2275190
 125.1184810 103.2855730   3.2968370 124.6815800 103.4656530   4.1292520
 125.6862490 104.0430350   3.1550090 140.7546990 102.7872730   7.5845680
 140.1548980 102.8465290   6.8409600 140.8840890 101.8477710   7.7142530
 139.4398630  99.5124710   5.6821840 138.6258470  99.9421870   5.9447630
 139.8472830 100.1243120   5.0690890 125.9885170  96.1828530   4.1960590
 126.3558210  96.0955930   5.0756610 125.4195990  95.4195080   4.0967450
 140.7889030  94.6512910   7.2091060 140.5575120  94.4225660   6.3089010
 141.0493580  95.5712460   7.1635950 125.5401170  93.0937620   8.1019010
 124.6457220  93.0604380   8.4412720 126.0798720  93.2924410   8.8670260
 139.2277100  89.8769340   9.9870760 140.1047280  89.8852740  10.3704760
 139.2397940  89.1400180   9.3763110 140.8530090  93.8138750   4.3978330
 139.9032800  93.7802290   4.5123320 141.0343100  94.7238860   4.1628100
 126.0440880  87.3685950   2.4502230 126.6917070  86.8183330   2.0097390
 126.4642720  87.6229100   3.2718040 139.9393220  87.5627310   5.8071870
 140.5765440  88.1761450   6.1731060 140.0868110  87.5987970   4.8621100
 125.7972880  87.5241620   5.1927550 125.4487700  87.9805440   5.9585730
 125.4660580  86.6298750   5.2749980 127.4037250 100.6961220   9.3580740
 127.3606880 100.3254130  10.2395200 127.5348260 101.6338790   9.4982560
 131.1043280 102.2520810   4.9590460 130.8634640 102.5195370   4.0720980
 132.0445920 102.4226540   5.0141320 133.3097700  88.7153500   8.7146970
 133.2486590  89.3075330   9.4642380 134.2498080  88.6079460   8.5697230
 135.9472260  88.3723560   8.3539260 136.5612670  88.6902850   7.6920340
 136.4921820  87.8872150   8.9735120 142.3647440 104.2715190   5.7601100
 141.8705720 104.6684060   5.0428230 141.7560730 103.6464400   6.1538380
 126.4693520  87.0517820   8.4678320 127.0176510  86.8705870   7.7044430
 126.5348830  86.2611930   9.0034630 127.2425280 103.6423470   6.4778520
 126.6485600 103.5108170   7.2168560 127.2349120 102.8061610   6.0120620
 136.6880300  86.9355700   4.6808550 135.8140140  87.2690810   4.4781480
 136.5791050  86.4628880   5.5060420 137.5952280  89.1426570   6.0650270
 137.2665640  88.3278330   5.6852000 138.5434580  89.0996380   5.9415960
 140.0486890 104.9138610   3.0387840 139.5889860 105.6654420   2.6645860
 139.4199350 104.1945080   2.9802640 126.8737510 101.0081850   5.4286560
 126.1471570 100.3887140   5.3612510 126.9346660 101.4022460   4.5584640
 130.4782610 103.2226850   2.2135970 130.9947630 102.6114210   1.6884230
 131.1279990 103.7255630   2.7046980 133.2178110 104.1135340   3.0404950
 133.5055920 103.8589640   2.1637960 133.7301330 103.5612700   3.6310520
 134.4355120  87.8525540   3.6201460 133.6526910  88.3271040   3.8998220
 134.1418050  86.9480370   3.5114640 133.2850470 105.0351440  10.4073150
 134.2117780 104.7995710  10.4509110 133.2700900 105.8623440   9.9259180
 130.4714080  87.6996190  10.1715030 130.1898350  88.2029790   9.4075850
 130.8533780  86.9017940   9.8057160 137.0729540  87.1149770  10.7495500
 136.9594990  87.4344380  11.6447020 137.8899280  87.5162280  10.4532780
 139.8528030 104.2621300  10.2314190 140.6453350 103.7670530  10.0240150
 140.1461180 104.9411440  10.8389800 135.9787690  76.3598750 150.0821650
 135.8981740  75.4453360 149.8113360 135.5652110  76.8565820 149.3761360
 138.1313160  82.5437960 150.7430050 137.6694690  81.7725200 151.0717220
 138.9438710  82.5704030 151.2482500 126.5363510  73.4099470 146.6249070
 125.6480210  73.7515440 146.5228950 126.8204700  73.2099790 145.7329900
 134.3576470  84.8295970 150.3634040 133.7387910  85.2853470 149.7928480
 135.2128250  84.9847430 149.9623740 128.7124900  71.9930970 147.6587450
 128.8191650  72.8934700 147.9656210 127.8017260  71.9448940 147.3682100
 138.3644010  71.1155780 149.1298350 139.1853630  70.6252350 149.1723830
 138.3978090  71.7053440 149.8830190 135.2239820  79.7135210 147.7565950
 134.6057090  80.1784660 147.1928670 135.7363070  80.4062690 148.1735460
 124.5923020  80.3991740 145.1305580 124.2151000  80.8878840 144.3990480
 124.8496090  81.0717020 145.7612110 132.2011950  68.8008130 150.5891090
 132.5086930  68.2455020 149.8726590 131.2712650  68.9352590 150.4064080
 139.0472430  81.2391640 147.9688720 138.9368760  80.2965970 148.0938140
 139.0440680  81.6007280 148.8551480 134.5892710  76.8656960 147.3251210
 133.6621990  76.7994340 147.5539680 134.7417530  77.8037090 147.2106450
 134.5761790  73.1373960 144.3218370 133.6365460  73.2987920 144.4070830
 134.8945050  73.8559640 143.7754360 138.6190000  78.4277260 147.8286460
 138.0002420  78.0896810 147.1812760 138.6014450  77.7837020 148.5365650
 130.1949350  77.3921700 150.1070940 129.7906350  76.6798950 149.6116840
 130.2812470  77.0474940 150.9958980 136.7954700  77.6664070 144.8359210
 137.2347980  76.8286500 144.6897030 137.5083120  78.2993470 144.9223350
 134.9050080  82.6060140 148.8040450 135.3445990  83.3484470 148.3895840
 134.8436970  82.8486710 149.7279410 140.3771840  68.9206880 143.1500250
 140.0644500  69.0133710 144.0499320 141.1384310  69.4987910 143.0997680
 126.8953980  76.2866680 147.6077590 126.7751580  77.0128770 146.9958860
 126.5854870  75.5169590 147.1305500 125.7786980  81.1582010 149.8252410
 125.3715060  81.2996600 148.9706010 126.6699990  80.8742170 149.6223620
 137.5720260  85.5929260 146.1603460 137.4121400  85.3032200 147.0585290
 137.4066970  84.8169390 145.6248690 130.0508640  85.3727790 147.9375080
 129.8751120  84.4563330 147.7242880 129.1964380  85.7315080 148.1772880
 137.2746390  83.1016820 144.7201460 136.5811550  83.0994110 144.0603740
 138.0169250  82.6776140 144.2895630 136.8396320  84.7279530 148.7949950
 137.2953270  83.9468910 149.1088570 137.1788840  85.4386350 149.3391130
 129.3617640  69.6301750 150.9901260 128.9185790  70.4111290 150.6585780
 129.9202630  69.9531640 151.6972200 132.4776460  69.2512450 145.8707090
 131.8530640  69.2472320 146.5960400 132.3906580  68.3843410 145.4743060
 129.1531860  74.7535320 148.7182510 128.9272780  74.5372490 149.6229130
 128.3724390  75.1863780 148.3728480 136.3829620  74.7598690 147.3173160
 135.7838510  75.4834490 147.1336780 136.9309230  74.6975470 146.5349610
 134.9894490  73.3962230 149.3476440 135.3824060  73.7134430 148.5345130
 135.3511340  72.5174110 149.4620960 124.2128890  73.9283150 142.7809360
 124.1303560  74.8713910 142.9224350 123.8611950  73.7858060 141.9021710
 127.8629400  72.5448670 150.8073920 127.5229450  73.0223900 151.5640970
 127.1006720  72.0913790 150.4475020 132.0747170  73.6634260 144.8386470
 132.1959990  73.6220740 145.7872290 131.6895680  74.5258410 144.6833200
 131.0868670  75.9735400 144.2369770 130.5185570  75.5253650 143.6105680
 131.7957670  76.3328180 143.7034920 125.1775480  71.4667650 149.7238590
 124.8922400  71.1023320 150.5617210 125.1154340  70.7348110 149.1101730
 128.6316150  79.9693590 146.5096180 127.8578410  79.4291210 146.3494900
 129.3610780  79.4500200 146.1713940 134.8514070  70.3596910 146.4451960
 134.0378680  69.8610080 146.3697270 134.6576020  71.1995160 146.0288310
 137.5662460  74.7316560 144.7414120 138.4542080  75.0433790 144.5665460
 137.5367550  73.8588810 144.3494700 128.6753550  79.6373970 150.1474990
 129.1932220  78.8342230 150.0931880 128.2237570  79.5753110 150.9891820
 133.5623050  80.9040250 145.4202290 133.9038750  81.6482480 144.9245610
 132.7335760  81.2171370 145.7827120 139.8376730  76.0428400 144.2093980
 139.7540450  76.4742620 143.3590420 140.5570920  76.5026750 144.6420800
 140.8663980  82.8970660 146.9376110 140.2240140  82.2426280 147.2119830
 140.4794640  83.3025750 146.1616780 136.4450460  80.2256090 150.7847800
 136.7974280  79.6284220 150.1249170 135.5612790  79.9000320 150.9556050
 132.5313740  80.9853780 148.1918210 133.2184870  81.5322990 148.5725800
 131.7446160  81.5294510 148.2267820 124.6706140  76.6026600 143.6835290
 125.5400990  76.8851400 143.9671210 124.1796460  77.4162470 143.5684100
 131.8340950  77.9899810 147.8043570 132.2903730  78.8005060 148.0303760
 131.4829160  77.6722950 148.6362060 127.7352730  68.3337460 148.2766090
 127.6067360  68.3255360 149.2251010 126.9114750  68.6720550 147.9257100
 139.2561360  81.7887120 143.4752460 139.0298940  81.0717560 144.0677100
 138.8657560  81.5399560 142.6374210 125.0377390  85.8153980 144.2496920
 125.3975030  86.4143320 143.5954190 124.8969730  86.3613870 145.0231950
 138.8377610  79.7059060 145.1366620 138.5499310  80.1671750 145.9244500
 139.6329780  79.2456830 145.4050840 131.0546010  83.1985180 145.0670590
 131.0456110  83.9314870 144.4515100 130.1344370  82.9516760 145.1597550
 126.6552650  78.4200070 145.8117350 126.0480600  79.1598970 145.8212650
 127.1302000  78.5099430 144.9855550 139.5947470  71.5407830 146.2961800
 138.9660630  71.6453500 145.5820030 139.0999390  71.7604610 147.0855680
 134.0405610  83.2613420 143.7295780 134.1417590  83.0577410 142.7997760
 133.1407350  83.0071700 143.9343560 131.5631500  73.8193780 147.7119680
 130.8547650  74.2880120 148.1533290 131.8475980  73.1615790 148.3464870
 135.5946930  70.5444440 149.1515470 135.4714710  70.5630570 148.2024980
 136.5431490  70.5923380 149.2713870 132.6823720  85.7799740 148.4243450
 132.9365220  85.7421130 147.5022820 131.7336200  85.6533070 148.4171700
 129.7666520  72.1278860 145.0870390 130.6157050  72.5649010 145.0210580
 129.3997790  72.4399120 145.9142450 138.6876300  76.6991620 150.0001960
 137.7466440  76.7141850 150.1749650 139.0020370  75.9127580 150.4462260
 128.6657940  78.3811220 143.5605920 129.4321210  78.2692580 144.1231350
 128.7432630  77.6849190 142.9082690 127.3604700  75.8136290 144.2438810
 127.4408290  74.8663800 144.3556210 128.2524450  76.1443170 144.3499470
 128.1619410  85.9631680 151.3473350 128.8981890  85.4147140 151.6181920
 128.5460330  86.8287690 151.2079340 125.0464890  82.0305250 147.2214860
 124.1204670  82.2726390 147.2120270 125.5121320  82.8579510 147.0999610
 131.2721720  85.1361990 143.1698920 132.0650330  85.4250820 142.7180710
 130.7526070  84.7054160 142.4911400 140.3251890  84.3632120 144.5935660
 140.0393400  83.9497260 143.7789840 140.1271440  85.2919830 144.4736180
 131.7899120  80.3565400 143.0341270 131.6849760  79.7417750 143.7602650
 131.6223340  79.8331290 142.2504280 135.0301850  79.4185430 143.6383260
 134.4811950  79.8654730 144.2826000 135.6521110  78.9134680 144.1620930
 130.6976970  78.3776350 145.5348560 131.1193390  78.2116220 146.3779950
 130.8227810  77.5676580 145.0403700 133.2104610  77.4013960 142.7825660
 133.7310270  76.6862980 142.4166810 133.8573010  78.0399830 143.0826170
 129.5935870  74.4509580 142.4806720 129.3924930  73.5876940 142.8420060
 129.4227920  74.3642940 141.5428320 137.0724180  69.2617810 145.0093600
 137.3526470  68.4185710 145.3653020 136.2989910  69.4940920 145.5232350
 128.3918670  71.5510200 142.4684600 128.6944570  71.5577630 141.5603750
 129.1313260  71.2008060 142.9652260 131.6103600  70.4944820 143.4540800
 131.2625600  69.8168810 142.8743250 131.8116370  70.0334330 144.2684190
 133.7752640  85.4825570 145.0727400 134.6703430  85.8210540 145.0946160
 133.8070270  84.7604980 144.4451680 127.4148800  80.8552620 143.3014400
 127.8523670  81.3982290 143.9571980 127.8996530  80.0299570 143.3110740
 124.6294600  83.6441650 150.7534660 124.9597610  82.7762710 150.5213300
 125.0585600  83.8500170 151.5839620 129.2256520  81.9750660 148.4136630
 128.9252060  81.8515630 149.3140540 129.1194010  81.1159250 148.0052360
 141.9948440  81.7547060 143.1163310 141.1641400  81.8223710 143.5870540
 142.1720270  82.6451180 142.8130170 141.4504900  78.4994540 145.6197510
 142.2123810  79.0691190 145.7257200 141.4659270  77.9321740 146.3905820
 124.9509240  77.0232470 149.8505170 124.2958080  76.7544110 149.2064870
 125.7887190  76.9136950 149.4007150 142.4564870  79.3544640 150.4639440
 142.8273700  78.5711960 150.0575410 143.0966800  80.0433740 150.2856740
 141.5024070  78.7928910 142.7770030 141.7772910  79.7007790 142.6489250
 141.3134810  78.7291440 143.7132020 137.8999680  71.8173760 144.0723660
 138.3184560  71.6304740 143.2320320 137.5935740  70.9652810 144.3826590
 141.3989410  76.7297900 147.7699460 141.0233010  75.9625830 147.3380750
 140.6692530  77.1120600 148.2574390 124.1647320  74.2331400 145.7930500
 123.2611400  74.4961600 145.6182160 124.6487940  74.5042570 145.0130460
 126.7074530  73.2896940 143.7024880 127.4166230  72.8680160 143.2172160
 125.9914470  73.3572170 143.0708230 126.3548690  69.3436270 142.7427530
 127.0776820  69.8845210 143.0608750 126.6273210  69.0699690 141.8669070
 140.1640340  74.2128740 147.0099110 140.6599460  73.9799610 147.7947990
 139.9656410  73.3740580 146.5936750 141.5927500  72.8489690 149.5436790
 141.4826780  72.6945730 150.4819060 142.3535090  72.3210630 149.3012200
 142.4817770  70.6797610 142.7842930 143.4067080  70.5478790 142.5761220
 142.4593560  70.7590430 143.7379380 142.5556260  71.4508270 145.4099640
 141.7607760  71.3853390 145.9392550 142.7599540  72.3858910 145.3984990
 139.4974680  85.4899820 149.4038030 140.0933750  85.1684390 148.7272450
 139.7552830  85.0171640 150.1951300 140.8514760  69.4120390 149.8707290
 140.7903160  68.4681610 149.7238310 141.6306790  69.5200480 150.4160750
 125.1567510  85.5512750 148.8331240 124.9889550  84.9183430 149.5313130
 124.2902020  85.7572150 148.4825430 125.7795530  69.3829530 146.3363100
 126.5374890  69.4958410 145.7627130 125.3172700  70.2198730 146.2906530
 132.3209340  71.4968800 149.3265410 131.5083850  71.1225690 148.9861290
 132.8250980  70.7413880 149.6286600 136.8234320  68.1611250 150.5648480
 137.4263690  68.7331460 151.0397000 136.0827310  68.7250690 150.3422380
 139.9668920  68.5632810 145.8388760 140.1619550  69.4616260 146.1056190
 139.1798790  68.3319890 146.3321710 126.7630210  84.2445980 146.2781380
 126.2377830  84.6254010 145.5743340 126.6874790  84.8696750 146.9991090
 128.1520680  69.9093580 144.8765070 128.6813440  69.1223380 144.7473020
 128.7849000  70.5884770 145.1100600 130.3458520  69.6468720 147.9310460
 129.7161260  68.9456030 148.0980590 129.8063660  70.4072850 147.7143620
 141.5195530  85.8033520 147.5995320 141.6947720  85.1171260 146.9556240
 140.8217100  86.3280570 147.2071990 129.3623180  86.1928360 145.1530630
 130.0942000  85.9087640 144.6054520 129.6216850  85.9541640 146.0430010
 128.5237970  82.3093090 145.1576960 127.8946850  82.7778190 145.7062790
 128.6385800  81.4642310 145.5923150 135.9787690  76.3598750 131.3078160
 135.8981740  75.4453360 131.0369870 135.5652110  76.8565820 130.6017870
 134.1105730  78.1377770 133.1887430 133.3347830  77.6578210 133.4786000
 134.7618660  77.4583420 133.0143590 128.1271560  78.4497580 134.0663190
 127.2956440  78.1946290 134.4659700 128.7352540  78.5208350 134.8021110
 138.1313160  82.5437960 131.9686560 137.6694690  81.7725200 132.2973730
 138.9438710  82.5704030 132.4739010 128.1072820  82.4837670 134.2621210
 128.4100860  81.5935410 134.0831430 128.8516410  83.0407890 134.0343460
 126.5363510  73.4099470 127.8505580 125.6480210  73.7515440 127.7485460
 126.8204700  73.2099790 126.9586410 124.4996520  76.0105120 133.7345280
 125.0712630  75.2427320 133.7348920 124.4998060  76.3093880 132.8251890
 134.3576470  84.8295970 131.5890550 133.7387910  85.2853470 131.0184990
 135.2128250  84.9847430 131.1880250 133.5514720  80.8134960 133.1957590
 133.4823000  79.8724900 133.0346720 134.3134580  80.9036370 133.7680160
 125.7421390  71.4189480 135.5214210 125.5624230  70.5215230 135.8016970
 125.3401470  71.9661350 136.1961160 134.5819890  73.6205340 133.4226520
 134.9584710  72.7477220 133.3100190 134.4839400  73.9564040 132.5316960
 128.7124900  71.9930970 128.8843960 128.8191650  72.8934700 129.1912720
 127.8017260  71.9448940 128.5938610 138.3644010  71.1155780 130.3554860
 139.1853630  70.6252350 130.3980340 138.3978090  71.7053440 131.1086700
 126.3608060  73.9149980 134.1296550 127.0418170  74.1788350 134.7483950
 126.0456110  73.0750850 134.4634560 130.5532630  74.9617340 133.2169140
 131.0610850  75.4598310 133.8574160 131.0845870  74.1852540 133.0408500
 142.6543560  73.1322530 136.9198490 141.9495730  73.5204240 136.4013600
 142.9201480  73.8272820 137.5219420 128.8368730  69.6015900 137.4832560
 128.8387170  70.1188290 136.6778460 128.0073040  69.1246080 137.4602490
 135.2239820  79.7135210 128.9822460 134.6057090  80.1784660 128.4185180
 135.7363070  80.4062690 129.3991970 130.0871580  79.2411080 135.6606060
 129.7540960  79.8680000 136.3027130 130.2638260  79.7672960 134.8807730
 138.6005490  73.0556160 133.1282400 137.8961060  73.3441050 133.7085510
 138.9617650  73.8656270 132.7681960 128.5184060  71.3125860 135.4903010
 128.8600870  72.1567910 135.1956880 127.5799870  71.4609600 135.6068350
 129.2990680  81.2091880 137.4755240 129.9164680  81.8842960 137.1939690
 128.4383800  81.6179860 137.3842740 124.5923020  80.3991740 126.3562090
 124.2151000  80.8878840 125.6246990 124.8496090  81.0717020 126.9868620
 140.2168270  82.6731290 135.3909880 139.5331790  83.3430400 135.3826550
 140.7562560  82.8711940 134.6254740 141.6692410  72.5010950 133.5191610
 140.7217320  72.5349930 133.6507040 141.9942400  73.3149900 133.9040970
 132.2011950  68.8008130 131.8147600 132.5086930  68.2455020 131.0983100
 131.2712650  68.9352590 131.6320590 137.7527010  84.5175420 134.1055060
 137.7654170  84.1137710 133.2377320 137.2002230  85.2922710 134.0016490
 139.0472430  81.2391640 129.1945230 138.9368760  80.2965970 129.3194650
 139.0440680  81.6007280 130.0807990 137.1512450  79.4205260 135.4337670
 137.5681240  79.2065370 134.5991130 137.8752270  79.6778050 136.0046290
 134.5892710  76.8656960 128.5507720 133.6621990  76.7994340 128.7796190
 134.7417530  77.8037090 128.4362960 134.5761790  73.1373960 125.5474880
 133.6365460  73.2987920 125.6327340 134.8945050  73.8559640 125.0010870
 141.0974550  77.8192480 135.5253910 140.2693180  77.8885570 135.0504040
 141.6925030  78.4046790 135.0569740 138.6190000  78.4277260 129.0542970
 138.0002420  78.0896810 128.4069270 138.6014450  77.7837020 129.7622160
 138.0616560  74.6061800 136.4708780 137.6487740  75.4315510 136.7248770
 137.3292510  74.0206840 136.2785140 130.1949350  77.3921700 131.3327450
 129.7906350  76.6798950 130.8373350 130.2812470  77.0474940 132.2215490
 130.6631050  81.0789260 133.4966660 130.3659340  80.4734730 132.8174440
 131.6130870  81.1166570 133.3856020 128.9077970  74.1664910 135.1126490
 129.4592560  74.2760250 134.3379740 129.4221480  74.5402510 135.8281720
 138.7516660  84.6521130 137.1589760 138.2747220  85.4593320 136.9662370
 138.0678450  83.9999460 137.3115970 129.7549480  80.8170950 140.1474460
 128.8578010  81.0410920 140.3947860 129.7802350  80.9405890 139.1985860
 136.7954700  77.6664070 126.0615720 137.2347980  76.8286500 125.9153540
 137.5083120  78.2993470 126.1479860 128.5820700  77.6884270 138.7231830
 128.4428470  78.5607070 139.0919230 127.7002060  77.3457080 138.5779770
 134.9050080  82.6060140 130.0296960 135.3445990  83.3484470 129.6152350
 134.8436970  82.8486710 130.9535920 130.3801050  83.6305970 140.9316980
 130.3516480  84.0348920 140.0645410 130.2166020  82.7016330 140.7688580
 140.3771840  68.9206880 124.3756760 140.0644500  69.0133710 125.2755830
 141.1384310  69.4987910 124.3254190 126.8953980  76.2866680 128.8334100
 126.7751580  77.0128770 128.2215370 126.5854870  75.5169590 128.3562010
 142.3315870  84.4133070 142.2281150 142.8075590  84.8915960 142.9070230
 142.9523030  84.3450560 141.5026650 124.5339350  79.4581820 134.6402740
 124.6119770  79.5930590 133.6958460 125.1481030  78.7497710 134.8330860
 125.7786980  81.1582010 131.0508920 125.3715060  81.2996600 130.1962520
 126.6699990  80.8742170 130.8480130 141.7349120  81.6045920 139.3881160
 141.8612180  81.3657800 138.4698340 141.7770500  80.7730460 139.8603240
 135.5965860  85.3073920 137.9575970 136.1110530  85.2181930 138.7598400
 134.7534940  85.6533620 138.2503880 137.5720260  85.5929260 127.3859970
 137.4121400  85.3032200 128.2841800 137.4066970  84.8169390 126.8505200
 130.0508640  85.3727790 129.1631590 129.8751120  84.4563330 128.9499390
 129.1964380  85.7315080 129.4029390 137.2746390  83.1016820 125.9457970
 136.5811550  83.0994110 125.2860250 138.0169250  82.6776140 125.5152140
 136.8396320  84.7279530 130.0206460 137.2953270  83.9468910 130.3345080
 137.1788840  85.4386350 130.5647640 141.5873130  73.6578380 140.3530900
 140.9717400  74.1658050 139.8246360 141.2669550  72.7576710 140.2956840
 124.5898870  80.4995990 137.1797200 124.7529910  80.0301350 136.3616570
 125.0551320  79.9919550 137.8446040 129.3617640  69.6301750 132.2157770
 128.9185790  70.4111290 131.8842290 129.9202630  69.9531640 132.9228710
 133.6487450  72.4970270 137.8193090 133.1866820  72.7053290 138.6313030
 133.2465560  71.6829620 137.5163760 138.6491960  73.7179220 138.9489750
 137.7985550  73.4184970 139.2698820 138.4893750  73.9621230 138.0373570
 135.7441670  75.2180970 141.0488540 136.0695080  74.3844720 140.7090770
 136.5322000  75.7409490 141.1966870 132.4776460  69.2512450 127.0963600
 131.8530640  69.2472320 127.8216910 132.3906580  68.3843410 126.6999570
 131.3993540  70.1749080 134.0747370 131.6965870  71.0811910 133.9939390
 131.9479100  69.6867860 133.4606940 129.1531860  74.7535320 129.9439020
 128.9272780  74.5372490 130.8485640 128.3724390  75.1863780 129.5984990
 136.3829620  74.7598690 128.5429670 135.7838510  75.4834490 128.3593290
 136.9309230  74.6975470 127.7606120 131.5931070  75.6520900 140.6099290
 131.4974670  74.7115630 140.4599690 132.4363050  75.8735970 140.2147360
 134.9894490  73.3962230 130.5732950 135.3824060  73.7134430 129.7601640
 135.3511340  72.5174110 130.6877470 126.7241610  72.0634570 138.7633070
 126.3305000  72.9109780 138.9705850 126.0360010  71.4260940 138.9541710
 133.2986660  72.1469540 141.8329810 132.6084980  71.9541740 142.4675900
 134.0418960  72.4304180 142.3654110 124.0258660  69.9863030 132.7963150
 123.7371710  70.5565890 133.5088130 124.7704420  69.5067480 133.1594380
 124.2128890  73.9283150 124.0065870 124.1303560  74.8713910 124.1480860
 123.8611950  73.7858060 123.1278220 135.5749630  75.9867980 134.6683730
 134.8430750  76.4954790 135.0173830 135.1773970  75.1697960 134.3672510
 132.0127020  72.6622180 133.0736220 132.0163080  72.2212130 132.2240760
 132.9078140  72.9839510 133.1808040 127.8629400  72.5448670 132.0330430
 127.5229450  73.0223900 132.7897480 127.1006720  72.0913790 131.6731530
 132.0747170  73.6634260 126.0642980 132.1959990  73.6220740 127.0128800
 131.6895680  74.5258410 125.9089710 136.0375540  71.4401660 134.0806670
 136.0548280  71.8910310 134.9248520 135.7891120  70.5407300 134.2940110
 131.0868670  75.9735400 125.4626280 130.5185570  75.5253650 124.8362190
 131.7957670  76.3328180 124.9291430 139.4646290  68.8533840 139.9193050
 139.7892060  68.1223500 140.4451030 139.5002800  68.5347480 139.0174040
 126.1637850  79.8747420 139.3393010 125.7792640  79.2341090 139.9375970
 126.4750040  80.5783540 139.9087740 132.3134990  76.7223960 134.8201630
 132.6805120  76.2482530 135.5662970 132.1240050  77.5965530 135.1609970
 125.1775480  71.4667650 130.9495100 124.8922400  71.1023320 131.7873720
 125.1154340  70.7348110 130.3358240 130.1034360  75.7632600 137.1385840
 129.7991430  76.6424580 137.3636200 131.0580820  75.8232390 137.1743280
 128.6316150  79.9693590 127.7352690 127.8578410  79.4291210 127.5751410
 129.3610780  79.4500200 127.3970450 139.3904130  78.9658950 133.5279080
 140.1103250  79.4614240 133.1375190 139.1885950  78.2876840 132.8832950
 134.8514070  70.3596910 127.6708470 134.0378680  69.8610080 127.5953780
 134.6576020  71.1995160 127.2544820 134.7722930  79.0368010 139.4148080
 134.7060240  78.1163680 139.1605670 134.1428070  79.1343450 140.1292720
 137.5662460  74.7316560 125.9670630 138.4542080  75.0433790 125.7921970
 137.5367550  73.8588810 125.5751210 128.6753550  79.6373970 131.3731500
 129.1932220  78.8342230 131.3188390 128.2237570  79.5753110 132.2148330
 133.5623050  80.9040250 126.6458800 133.9038750  81.6482480 126.1502120
 132.7335760  81.2171370 127.0083630 126.1598090  76.6035340 138.2857200
 125.8013030  77.2689190 138.8730540 125.8652650  75.7718890 138.6569820
 129.3611210  77.0619580 141.1696750 129.0611350  77.2076760 140.2724570
 130.1322450  76.5024870 141.0770140 134.7039660  81.8588580 139.1651880
 134.7184200  80.9269540 138.9470790 133.9964760  81.9448340 139.8041650
 139.8376730  76.0428400 125.4350490 139.7540450  76.4742620 124.5846930
 140.5570920  76.5026750 125.8677310 140.9150870  78.4995920 138.5120460
 140.1899060  79.0924700 138.3149850 141.4426330  78.4919460 137.7133830
 140.8663980  82.8970660 128.1632620 140.2240140  82.2426280 128.4376340
 140.4794640  83.3025750 127.3873290 136.4450460  80.2256090 132.0104310
 136.7974280  79.6284220 131.3505680 135.5612790  79.9000320 132.1812560
 132.5313740  80.9853780 129.4174720 133.2184870  81.5322990 129.7982310
 131.7446160  81.5294510 129.4524330 124.6706140  76.6026600 124.9091800
 125.5400990  76.8851400 125.1927720 124.1796460  77.4162470 124.7940610
 131.8340950  77.9899810 129.0300080 132.2903730  78.8005060 129.2560270
 131.4829160  77.6722950 129.8618570 134.1373560  83.5006150 136.2592380
 134.7815780  83.7065530 136.9365800 134.5003000  82.7394550 135.8063230
 127.7352730  68.3337460 129.5022600 127.6067360  68.3255360 130.4507520
 126.9114750  68.6720550 129.1513610 135.4105640  81.5038500 134.9769830
 136.0527870  80.8031660 135.0902000 135.9354990  82.2836940 134.7966720
 139.2561360  81.7887120 124.7008970 139.0298940  81.0717560 125.2933610
 138.8657560  81.5399560 123.8630720 137.1843260  82.3033400 138.1805890
 137.5199500  82.8900090 138.8583810 136.2643600  82.1726110 138.4103680
 125.0377390  85.8153980 125.4753430 125.3975030  86.4143320 124.8210700
 124.8969730  86.3613870 126.2488460 124.7346660  70.0928580 138.9629300
 124.0205180  70.2925500 139.5681910 125.1541700  69.3168150 139.3344100
 138.8377610  79.7059060 126.3623130 138.5499310  80.1671750 127.1501010
 139.6329780  79.2456830 126.6307350 125.0219250  84.0808840 139.9495830
 125.1310370  83.1403580 139.8091220 124.3699810  84.3463590 139.3009560
 133.0131840  82.3524730 141.3493950 132.6928710  81.6333970 141.8939640
 132.3390200  83.0279800 141.4230010 131.0546010  83.1985180 126.2927100
 131.0456110  83.9314870 125.6771610 130.1344370  82.9516760 126.3854060
 126.6552650  78.4200070 127.0373860 126.0480600  79.1598970 127.0469160
 127.1302000  78.5099430 126.2112060 136.2285440  72.5850890 136.7130750
 136.5966260  71.7646100 137.0410320 135.3683640  72.6452780 137.1286400
 139.5947470  71.5407830 127.5218310 138.9660630  71.6453500 126.8076540
 139.0999390  71.7604610 128.3112190 134.0405610  83.2613420 124.9552290
 134.1417590  83.0577410 124.0254270 133.1407350  83.0071700 125.1600070
 131.5631500  73.8193780 128.9376190 130.8547650  74.2880120 129.3789800
 131.8475980  73.1615790 129.5721380 133.1887430  75.2390480 136.9368720
 133.6872680  75.7136300 137.6020570 133.3310380  74.3154000 137.1438750
 135.5946930  70.5444440 130.3771980 135.4714710  70.5630570 129.4281490
 136.5431490  70.5923380 130.4970380 132.6823720  85.7799740 129.6499960
 132.9365220  85.7421130 128.7279330 131.7336200  85.6533070 129.6428210
 129.7666520  72.1278860 126.3126900 130.6157050  72.5649010 126.2467090
 129.3997790  72.4399120 127.1398960 140.3954290  71.4558440 137.7797110
 139.8927890  72.1963840 138.1190920 141.2110950  71.8442440 137.4633900
 138.6876300  76.6991620 131.2258470 137.7466440  76.7141850 131.4006160
 139.0020370  75.9127580 131.6718770 128.6657940  78.3811220 124.7862430
 129.4321210  78.2692580 125.3487860 128.7432630  77.6849190 124.1339200
 127.3604700  75.8136290 125.4695320 127.4408290  74.8663800 125.5812720
 128.2524450  76.1443170 125.5755980 140.6901880  83.8700470 132.9012730
 140.8149300  84.6931640 133.3736540 141.5567440  83.6591200 132.5536880
 128.1619410  85.9631680 132.5729860 128.8981890  85.4147140 132.8438430
 128.5460330  86.8287690 132.4335850 125.0464890  82.0305250 128.4471370
 124.1204670  82.2726390 128.4376780 125.5121320  82.8579510 128.3256120
 127.1677690  85.1477750 141.7615440 127.9690420  85.4689800 142.1750840
 126.6529510  84.7873330 142.4835350 131.2721720  85.1361990 124.3955430
 132.0650330  85.4250820 123.9437220 130.7526070  84.7054160 123.7167910
 136.0042320  81.2557620 141.7090850 135.3980480  81.2789220 140.9686600
 135.6996430  80.5240660 142.2458100 137.4342690  84.9837910 140.3200260
 138.3864440  84.8995930 140.2700500 137.2870910  85.6479620 140.9934050
 140.3251890  84.3632120 125.8192170 140.0393400  83.9497260 125.0046350
 140.1271440  85.2919830 125.6992690 124.8875500  77.6351210 140.7051490
 125.3914520  77.0558490 141.2767720 124.1482920  77.9191440 141.2427860
 131.7899120  80.3565400 124.2597780 131.6849760  79.7417750 124.9859160
 131.6223340  79.8331290 123.4760790 131.9413440  79.0422200 140.2387010
 131.1759110  79.6107200 140.1541680 132.1229400  78.7498410 139.3455240
 135.0301850  79.4185430 124.8639770 134.4811950  79.8654730 125.5082510
 135.6521110  78.9134680 125.3877440 139.0836790  80.7727530 140.7962030
 139.8246260  81.1103290 140.2929490 138.3209470  80.9419590 140.2431800
 126.9198580  75.7780800 141.6001560 126.9603920  75.4794670 142.5086790
 127.7744080  76.1788410 141.4409080 130.6976970  78.3776350 126.7605070
 131.1193390  78.2116220 127.6036460 130.8227810  77.5676580 126.2660210
 128.8604390  74.3572900 139.5676050 128.3300850  73.8663850 138.9399390
 129.5292460  74.7857100 139.0333980 133.2104610  77.4013960 124.0082170
 133.7310270  76.6862980 123.6423320 133.8573010  78.0399830 124.3082680
 137.7582450  78.8242360 139.3317240 138.1723470  78.9787440 140.1807660
 136.8233450  78.9497580 139.4943020 138.2304620  76.1638520 141.3356390
 138.8125390  75.4090840 141.2476870 138.4066390  76.6945960 140.5587870
 129.3476690  71.3235270 139.6473340 129.2533560  70.7056020 138.9224210
 128.7674080  72.0501560 139.4203250 132.1138130  69.8808510 136.6800730
 131.6655430  69.9032770 135.8346280 131.4803330  69.4827530 137.2771030
 132.5197680  78.7762840 137.3013170 132.9385790  79.6195570 137.1289410
 131.6006310  78.9134880 137.0719950 134.8561580  76.5079020 138.6851010
 134.9757790  75.9120160 139.4245850 135.7155580  76.5448710 138.2652310
 137.1949480  77.0616210 137.2613520 136.6684700  77.5858830 136.6578660
 137.5380820  77.6943600 137.8923250 129.5935870  74.4509580 123.7063230
 129.3924930  73.5876940 124.0676570 129.4227920  74.3642940 122.7684830
 130.3705100  85.0815850 138.4170900 129.8326190  85.8061910 138.0979600
 130.6239060  84.6046190 137.6268240 131.6230350  73.0500370 139.9426830
 132.2130040  72.7416220 140.6304650 130.8050590  72.5780120 140.0986730
 136.4423780  72.6666180 140.1759850 135.7539300  72.0047720 140.1109840
 137.1629800  72.2204450 140.6208310 137.0724180  69.2617810 126.2350110
 137.3526470  68.4185710 126.5909530 136.2989910  69.4940920 126.7488860
 128.3918670  71.5510200 123.6941110 128.6944570  71.5577630 122.7860260
 129.1313260  71.2008060 124.1908770 133.2267310  86.3167060 138.6757550
 133.1526010  87.2202200 138.9829920 132.3246150  85.9978960 138.6479620
 131.6103600  70.4944820 124.6797310 131.2625600  69.8168810 124.0999760
 131.8116370  70.0334330 125.4940700 133.7752640  85.4825570 126.2983910
 134.6703430  85.8210540 126.3202670 133.8070270  84.7604980 125.6708190
 127.4148800  80.8552620 124.5270910 127.8523670  81.3982290 125.1828490
 127.8996530  80.0299570 124.5367250 124.6294600  83.6441650 131.9791170
 124.9597610  82.7762710 131.7469810 125.0585600  83.8500170 132.8096130
 129.2256520  81.9750660 129.6393140 128.9252060  81.8515630 130.5397050
 129.1194010  81.1159250 129.2308870 125.1184810  84.5112240 134.7172800
 124.6815800  84.6913040 135.5496950 125.6862490  85.2686860 134.5754520
 140.7546990  84.0129240 139.0050110 140.1548980  84.0721800 138.2614030
 140.8840890  83.0734220 139.1346960 141.9948440  81.7547060 124.3419820
 141.1641400  81.8223710 124.8127050 142.1720270  82.6451180 124.0386680
 141.4504900  78.4994540 126.8454020 142.2123810  79.0691190 126.9513710
 141.4659270  77.9321740 127.6162330 124.9509240  77.0232470 131.0761680
 124.2958080  76.7544110 130.4321380 125.7887190  76.9136950 130.6263660
 142.4564870  79.3544640 131.6895950 142.8273700  78.5711960 131.2831920
 143.0966800  80.0433740 131.5113250 139.4398630  80.7381220 137.1026270
 138.6258470  81.1678380 137.3652060 139.8472830  81.3499630 136.4895320
 141.5024070  78.7928910 124.0026540 141.7772910  79.7007790 123.8745760
 141.3134810  78.7291440 124.9388530 137.8999680  71.8173760 125.2980170
 138.3184560  71.6304740 124.4576830 137.5935740  70.9652810 125.6083100
 141.3989410  76.7297900 128.9955970 141.0233010  75.9625830 128.5637260
 140.6692530  77.1120600 129.4830900 125.9885170  77.4085040 135.6165020
 126.3558210  77.3212440 136.4961040 125.4195990  76.6451590 135.5171880
 140.7889030  75.8769420 138.6295490 140.5575120  75.6482170 137.7293440
 141.0493580  76.7968970 138.5840380 125.5401170  74.3194130 139.5223440
 124.6457220  74.2860890 139.8617150 126.0798720  74.5180920 140.2874690
 139.2277100  71.1025850 141.4075190 140.1047280  71.1109250 141.7909190
 139.2397940  70.3656690 140.7967540 124.1647320  74.2331400 127.0187010
 123.2611400  74.4961600 126.8438670 124.6487940  74.5042570 126.2386970
 140.6740370  74.9555390 132.2963210 141.1977850  74.4618040 131.6653380
 141.2599790  75.0905750 133.0410780 140.8530090  75.0395260 135.8182760
 139.9032800  75.0058800 135.9327750 141.0343100  75.9495370 135.5832530
 126.7074530  73.2896940 124.9281390 127.4166230  72.8680160 124.4428670
 125.9914470  73.3572170 124.2964740 126.3548690  69.3436270 123.9684040
 127.0776820  69.8845210 124.2865260 126.6273210  69.0699690 123.0925580
 140.1640340  74.2128740 128.2355620 140.6599460  73.9799610 129.0204500
 139.9656410  73.3740580 127.8193260 126.0440880  68.5942460 133.8706660
 126.6917070  68.0439840 133.4301820 126.4642720  68.8485610 134.6922470
 141.5927500  72.8489690 130.7693300 141.4826780  72.6945730 131.7075570
 142.3535090  72.3210630 130.5268710 139.9393220  68.7883820 137.2276300
 140.5765440  69.4017960 137.5935490 140.0868110  68.8244480 136.2825530
 142.4817770  70.6797610 124.0099440 143.4067080  70.5478790 123.8017730
 142.4593560  70.7590430 124.9635890 142.5556260  71.4508270 126.6356150
 141.7607760  71.3853390 127.1649060 142.7599540  72.3858910 126.6241500
 139.4974680  85.4899820 130.6294540 140.0933750  85.1684390 129.9528960
 139.7552830  85.0171640 131.4207810 125.7972880  68.7498130 136.6131980
 125.4487700  69.2061950 137.3790160 125.4660580  67.8555260 136.6954410
 127.4037250  81.9217730 140.7785170 127.3606880  81.5510640 141.6599630
 127.5348260  82.8595300 140.9186990 131.1043280  83.4777320 136.3794890
 130.8634640  83.7451880 135.4925410 132.0445920  83.6483050 136.4345750
 133.3097700  69.9410010 140.1351400 133.2486590  70.5331840 140.8846810
 134.2498080  69.8335970 139.9901660 135.9472260  69.5980070 139.7743690
 136.5612670  69.9159360 139.1124770 136.4921820  69.1128660 140.3939550
 142.3647440  85.4971700 137.1805530 141.8705720  85.8940570 136.4632660
 141.7560730  84.8720910 137.5742810 126.4693520  68.2774330 139.8882750
 127.0176510  68.0962380 139.1248860 126.5348830  67.4868440 140.4239060
 127.2425280  84.8679980 137.8982950 126.6485600  84.7364680 138.6372990
 127.2349120  84.0318120 137.4325050 136.6880300  68.1612210 136.1012980
 135.8140140  68.4947320 135.8985910 136.5791050  67.6885390 136.9264850
 137.5952280  70.3683080 137.4854700 137.2665640  69.5534840 137.1056430
 138.5434580  70.3252890 137.3620390 140.0486890  86.1395120 134.4592270
 139.5889860  86.8910930 134.0850290 139.4199350  85.4201590 134.4007070
 126.8737510  82.2338360 136.8490990 126.1471570  81.6143650 136.7816940
 126.9346660  82.6278970 135.9789070 130.4782610  84.4483360 133.6340400
 130.9947630  83.8370720 133.1088660 131.1279990  84.9512140 134.1251410
 133.2178110  85.3391850 134.4609380 133.5055920  85.0846150 133.5842390
 133.7301330  84.7869210 135.0514950 134.4355120  69.0782050 135.0405890
 133.6526910  69.5527550 135.3202650 134.1418050  68.1736880 134.9319070
 138.9876190  69.7805150 133.0854980 139.4284280  69.7250250 132.2376580
 138.7183780  70.6963160 133.1565160 140.8514760  69.4120390 131.0963800
 140.7903160  68.4681610 130.9494820 141.6306790  69.5200480 131.6417260
 125.1567510  85.5512750 130.0587750 124.9889550  84.9183430 130.7569640
 124.2902020  85.7572150 129.7081940 125.7795530  69.3829530 127.5619610
 126.5374890  69.4958410 126.9883640 125.3172700  70.2198730 127.5163040
 132.3209340  71.4968800 130.5521920 131.5083850  71.1225690 130.2117800
 132.8250980  70.7413880 130.8543110 136.8234320  68.1611250 131.7904990
 137.4263690  68.7331460 132.2653510 136.0827310  68.7250690 131.5678890
 139.9668920  68.5632810 127.0645270 140.1619550  69.4616260 127.3312700
 139.1798790  68.3319890 127.5578220 126.7630210  84.2445980 127.5037890
 126.2377830  84.6254010 126.7999850 126.6874790  84.8696750 128.2247600
 128.1520680  69.9093580 126.1021580 128.6813440  69.1223380 125.9729530
 128.7849000  70.5884770 126.3357110 130.3458520  69.6468720 129.1566970
 129.7161260  68.9456030 129.3237100 129.8063660  70.4072850 128.9400130
 133.2850470  86.2607950 141.8277580 134.2117780  86.0252220 141.8713540
 133.2700900  87.0879950 141.3463610 141.5195530  85.8033520 128.8251830
 141.6947720  85.1171260 128.1812750 140.8217100  86.3280570 128.4328500
 130.4714080  68.9252700 141.5919460 130.1898350  69.4286300 140.8280280
 130.8533780  68.1274450 141.2261590 129.3623180  86.1928360 126.3787140
 130.0942000  85.9087640 125.8311030 129.6216850  85.9541640 127.2686520
 128.5237970  82.3093090 126.3833470 127.8946850  82.7778190 126.9319300
 128.6385800  81.4642310 126.8179660 137.0729540  68.3406280 142.1699930
 136.9594990  68.6600890 143.0651450 137.8899280  68.7418790 141.8737210
 139.8528030  85.4877810 141.6518620 140.6453350  84.9927040 141.4444580
 140.1461180  86.1667950 142.2594230 135.9787690  76.3598750 112.5334670
 135.8981740  75.4453360 112.2626380 135.5652110  76.8565820 111.8274380
 134.1105730  78.1377770 114.4143940 133.3347830  77.6578210 114.7042510
 134.7618660  77.4583420 114.2400100 138.1313160  82.5437960 113.1943070
 137.6694690  81.7725200 113.5230240 138.9438710  82.5704030 113.6995520
 124.4996520  76.0105120 114.9601790 125.0712630  75.2427320 114.9605430
 124.4998060  76.3093880 114.0508400 134.3576470  84.8295970 112.8147060
 133.7387910  85.2853470 112.2441500 135.2128250  84.9847430 112.4136760
 133.5514720  80.8134960 114.4214100 133.4823000  79.8724900 114.2603230
 134.3134580  80.9036370 114.9936670 125.7421390  71.4189480 116.7470720
 125.5624230  70.5215230 117.0273480 125.3401470  71.9661350 117.4217670
 134.5819890  73.6205340 114.6483030 134.9584710  72.7477220 114.5356700
 134.4839400  73.9564040 113.7573470 138.3644010  71.1155780 111.5811370
 139.1853630  70.6252350 111.6236850 138.3978090  71.7053440 112.3343210
 126.3608060  73.9149980 115.3553060 127.0418170  74.1788350 115.9740460
 126.0456110  73.0750850 115.6891070 130.5532630  74.9617340 114.4425650
 131.0610850  75.4598310 115.0830670 131.0845870  74.1852540 114.2665010
 142.6543560  73.1322530 118.1455000 141.9495730  73.5204240 117.6270110
 142.9201480  73.8272820 118.7475930 128.8368730  69.6015900 118.7089070
 128.8387170  70.1188290 117.9034970 128.0073040  69.1246080 118.6859000
 135.2239820  79.7135210 110.2078970 134.6057090  80.1784660 109.6441690
 135.7363070  80.4062690 110.6248480 130.0871580  79.2411080 116.8862570
 129.7540960  79.8680000 117.5283640 130.2638260  79.7672960 116.1064240
 138.6005490  73.0556160 114.3538910 137.8961060  73.3441050 114.9342020
 138.9617650  73.8656270 113.9938470 128.5184060  71.3125860 116.7159520
 128.8600870  72.1567910 116.4213390 127.5799870  71.4609600 116.8324860
 129.2990680  81.2091880 118.7011750 129.9164680  81.8842960 118.4196200
 128.4383800  81.6179860 118.6099250 140.2168270  82.6731290 116.6166390
 139.5331790  83.3430400 116.6083060 140.7562560  82.8711940 115.8511250
 141.6692410  72.5010950 114.7448120 140.7217320  72.5349930 114.8763550
 141.9942400  73.3149900 115.1297480 132.2011950  68.8008130 113.0404110
 132.5086930  68.2455020 112.3239610 131.2712650  68.9352590 112.8577100
 137.7527010  84.5175420 115.3311570 137.7654170  84.1137710 114.4633830
 137.2002230  85.2922710 115.2273000 139.0472430  81.2391640 110.4201740
 138.9368760  80.2965970 110.5451160 139.0440680  81.6007280 111.3064500
 137.1512450  79.4205260 116.6594180 137.5681240  79.2065370 115.8247640
 137.8752270  79.6778050 117.2302800 134.5761790  73.1373960 106.7731390
 133.6365460  73.2987920 106.8583850 134.8945050  73.8559640 106.2267380
 141.0974550  77.8192480 116.7510420 140.2693180  77.8885570 116.2760550
 141.6925030  78.4046790 116.2826250 138.6190000  78.4277260 110.2799480
 138.0002420  78.0896810 109.6325780 138.6014450  77.7837020 110.9878670
 138.0616560  74.6061800 117.6965290 137.6487740  75.4315510 117.9505280
 137.3292510  74.0206840 117.5041650 130.1949350  77.3921700 112.5583960
 129.7906350  76.6798950 112.0629860 130.2812470  77.0474940 113.4472000
 130.6631050  81.0789260 114.7223170 130.3659340  80.4734730 114.0430950
 131.6130870  81.1166570 114.6112530 128.9077970  74.1664910 116.3383000
 129.4592560  74.2760250 115.5636250 129.4221480  74.5402510 117.0538230
 138.7516660  84.6521130 118.3846270 138.2747220  85.4593320 118.1918880
 138.0678450  83.9999460 118.5372480 129.7549480  80.8170950 121.3730970
 128.8578010  81.0410920 121.6204370 129.7802350  80.9405890 120.4242370
 136.7954700  77.6664070 107.2872230 137.2347980  76.8286500 107.1410050
 137.5083120  78.2993470 107.3736370 128.5820700  77.6884270 119.9488340
 128.4428470  78.5607070 120.3175740 127.7002060  77.3457080 119.8036280
 134.9050080  82.6060140 111.2553470 135.3445990  83.3484470 110.8408860
 134.8436970  82.8486710 112.1792430 130.3801050  83.6305970 122.1573490
 130.3516480  84.0348920 121.2901920 130.2166020  82.7016330 121.9945090
 140.3771840  68.9206880 105.6013270 140.0644500  69.0133710 106.5012340
 141.1384310  69.4987910 105.5510700 142.3315870  84.4133070 123.4537660
 142.8075590  84.8915960 124.1326740 142.9523030  84.3450560 122.7283160
 141.7349120  81.6045920 120.6137670 141.8612180  81.3657800 119.6954850
 141.7770500  80.7730460 121.0859750 135.5965860  85.3073920 119.1832480
 136.1110530  85.2181930 119.9854910 134.7534940  85.6533620 119.4760390
 137.5720260  85.5929260 108.6116480 137.4121400  85.3032200 109.5098310
 137.4066970  84.8169390 108.0761710 130.0508640  85.3727790 110.3888100
 129.8751120  84.4563330 110.1755900 129.1964380  85.7315080 110.6285900
 137.2746390  83.1016820 107.1714480 136.5811550  83.0994110 106.5116760
 138.0169250  82.6776140 106.7408650 136.8396320  84.7279530 111.2462970
 137.2953270  83.9468910 111.5601590 137.1788840  85.4386350 111.7904150
 141.5873130  73.6578380 121.5787410 140.9717400  74.1658050 121.0502870
 141.2669550  72.7576710 121.5213350 124.5898870  80.4995990 118.4053710
 124.7529910  80.0301350 117.5873080 125.0551320  79.9919550 119.0702550
 129.3617640  69.6301750 113.4414280 128.9185790  70.4111290 113.1098800
 129.9202630  69.9531640 114.1485220 133.6487450  72.4970270 119.0449600
 133.1866820  72.7053290 119.8569540 133.2465560  71.6829620 118.7420270
 138.6491960  73.7179220 120.1746260 137.7985550  73.4184970 120.4955330
 138.4893750  73.9621230 119.2630080 135.7441670  75.2180970 122.2745050
 136.0695080  74.3844720 121.9347280 136.5322000  75.7409490 122.4223380
 132.4776460  69.2512450 108.3220110 131.8530640  69.2472320 109.0473420
 132.3906580  68.3843410 107.9256080 131.3993540  70.1749080 115.3003880
 131.6965870  71.0811910 115.2195900 131.9479100  69.6867860 114.6863450
 136.3829620  74.7598690 109.7686180 135.7838510  75.4834490 109.5849800
 136.9309230  74.6975470 108.9862630 131.5931070  75.6520900 121.8355800
 131.4974670  74.7115630 121.6856200 132.4363050  75.8735970 121.4403870
 134.9894490  73.3962230 111.7989460 135.3824060  73.7134430 110.9858150
 135.3511340  72.5174110 111.9133980 126.7241610  72.0634570 119.9889580
 126.3305000  72.9109780 120.1962360 126.0360010  71.4260940 120.1798220
 133.2986660  72.1469540 123.0586320 132.6084980  71.9541740 123.6932410
 134.0418960  72.4304180 123.5910620 124.0258660  69.9863030 114.0219660
 123.7371710  70.5565890 114.7344640 124.7704420  69.5067480 114.3850890
 135.5749630  75.9867980 115.8940240 134.8430750  76.4954790 116.2430340
 135.1773970  75.1697960 115.5929020 132.0127020  72.6622180 114.2992730
 132.0163080  72.2212130 113.4497270 132.9078140  72.9839510 114.4064550
 136.0375540  71.4401660 115.3063180 136.0548280  71.8910310 116.1505030
 135.7891120  70.5407300 115.5196620 139.4646290  68.8533840 121.1449560
 139.7892060  68.1223500 121.6707540 139.5002800  68.5347480 120.2430550
 126.1637850  79.8747420 120.5649520 125.7792640  79.2341090 121.1632480
 126.4750040  80.5783540 121.1344250 132.3134990  76.7223960 116.0458140
 132.6805120  76.2482530 116.7919480 132.1240050  77.5965530 116.3866480
 130.1034360  75.7632600 118.3642350 129.7991430  76.6424580 118.5892710
 131.0580820  75.8232390 118.3999790 139.3904130  78.9658950 114.7535590
 140.1103250  79.4614240 114.3631700 139.1885950  78.2876840 114.1089460
 134.8514070  70.3596910 108.8964980 134.0378680  69.8610080 108.8210290
 134.6576020  71.1995160 108.4801330 134.7722930  79.0368010 120.6404590
 134.7060240  78.1163680 120.3862180 134.1428070  79.1343450 121.3549230
 137.5662460  74.7316560 107.1927140 138.4542080  75.0433790 107.0178480
 137.5367550  73.8588810 106.8007720 126.1598090  76.6035340 119.5113710
 125.8013030  77.2689190 120.0987050 125.8652650  75.7718890 119.8826330
 129.3611210  77.0619580 122.3953260 129.0611350  77.2076760 121.4981080
 130.1322450  76.5024870 122.3026650 134.7039660  81.8588580 120.3908390
 134.7184200  80.9269540 120.1727300 133.9964760  81.9448340 121.0298160
 139.8376730  76.0428400 106.6607000 139.7540450  76.4742620 105.8103440
 140.5570920  76.5026750 107.0933820 140.9150870  78.4995920 119.7376970
 140.1899060  79.0924700 119.5406360 141.4426330  78.4919460 118.9390340
 140.8663980  82.8970660 109.3889130 140.2240140  82.2426280 109.6632850
 140.4794640  83.3025750 108.6129800 136.4450460  80.2256090 113.2360820
 136.7974280  79.6284220 112.5762190 135.5612790  79.9000320 113.4069070
 132.5313740  80.9853780 110.6431230 133.2184870  81.5322990 111.0238820
 131.7446160  81.5294510 110.6780840 134.1373560  83.5006150 117.4848890
 134.7815780  83.7065530 118.1622310 134.5003000  82.7394550 117.0319740
 135.4105640  81.5038500 116.2026340 136.0527870  80.8031660 116.3158510
 135.9354990  82.2836940 116.0223230 139.2561360  81.7887120 105.9265480
 139.0298940  81.0717560 106.5190120 138.8657560  81.5399560 105.0887230
 137.1843260  82.3033400 119.4062400 137.5199500  82.8900090 120.0840320
 136.2643600  82.1726110 119.6360190 125.0377390  85.8153980 106.7009940
 125.3975030  86.4143320 106.0467210 124.8969730  86.3613870 107.4744970
 124.7346660  70.0928580 120.1885810 124.0205180  70.2925500 120.7938420
 125.1541700  69.3168150 120.5600610 138.8377610  79.7059060 107.5879640
 138.5499310  80.1671750 108.3757520 139.6329780  79.2456830 107.8563860
 125.0219250  84.0808840 121.1752340 125.1310370  83.1403580 121.0347730
 124.3699810  84.3463590 120.5266070 133.0131840  82.3524730 122.5750460
 132.6928710  81.6333970 123.1196150 132.3390200  83.0279800 122.6486520
 131.0546010  83.1985180 107.5183610 131.0456110  83.9314870 106.9028120
 130.1344370  82.9516760 107.6110570 136.2285440  72.5850890 117.9387260
 136.5966260  71.7646100 118.2666830 135.3683640  72.6452780 118.3542910
 139.5947470  71.5407830 108.7474820 138.9660630  71.6453500 108.0333050
 139.0999390  71.7604610 109.5368700 134.0405610  83.2613420 106.1808800
 134.1417590  83.0577410 105.2510780 133.1407350  83.0071700 106.3856580
 133.1887430  75.2390480 118.1625230 133.6872680  75.7136300 118.8277080
 133.3310380  74.3154000 118.3695260 135.5946930  70.5444440 111.6028490
 135.4714710  70.5630570 110.6538000 136.5431490  70.5923380 111.7226890
 132.6823720  85.7799740 110.8756470 132.9365220  85.7421130 109.9535840
 131.7336200  85.6533070 110.8684720 140.3954290  71.4558440 119.0053620
 139.8927890  72.1963840 119.3447430 141.2110950  71.8442440 118.6890410
 138.6876300  76.6991620 112.4514980 137.7466440  76.7141850 112.6262670
 139.0020370  75.9127580 112.8975280 140.6901880  83.8700470 114.1269240
 140.8149300  84.6931640 114.5993050 141.5567440  83.6591200 113.7793390
 128.1619410  85.9631680 113.7986370 128.8981890  85.4147140 114.0694940
 128.5460330  86.8287690 113.6592360 127.1677690  85.1477750 122.9871950
 127.9690420  85.4689800 123.4007350 126.6529510  84.7873330 123.7091860
 131.2721720  85.1361990 105.6211940 132.0650330  85.4250820 105.1693730
 130.7526070  84.7054160 104.9424420 136.0042320  81.2557620 122.9347360
 135.3980480  81.2789220 122.1943110 135.6996430  80.5240660 123.4714610
 137.4342690  84.9837910 121.5456770 138.3864440  84.8995930 121.4957010
 137.2870910  85.6479620 122.2190560 140.3251890  84.3632120 107.0448680
 140.0393400  83.9497260 106.2302860 140.1271440  85.2919830 106.9249200
 124.8875500  77.6351210 121.9308000 125.3914520  77.0558490 122.5024230
 124.1482920  77.9191440 122.4684370 131.9413440  79.0422200 121.4643520
 131.1759110  79.6107200 121.3798190 132.1229400  78.7498410 120.5711750
 139.0836790  80.7727530 122.0218540 139.8246260  81.1103290 121.5186000
 138.3209470  80.9419590 121.4688310 126.9198580  75.7780800 122.8258070
 126.9603920  75.4794670 123.7343300 127.7744080  76.1788410 122.6665590
 128.8604390  74.3572900 120.7932560 128.3300850  73.8663850 120.1655900
 129.5292460  74.7857100 120.2590490 137.7582450  78.8242360 120.5573750
 138.1723470  78.9787440 121.4064170 136.8233450  78.9497580 120.7199530
 138.2304620  76.1638520 122.5612900 138.8125390  75.4090840 122.4733380
 138.4066390  76.6945960 121.7844380 129.3476690  71.3235270 120.8729850
 129.2533560  70.7056020 120.1480720 128.7674080  72.0501560 120.6459760
 132.1138130  69.8808510 117.9057240 131.6655430  69.9032770 117.0602790
 131.4803330  69.4827530 118.5027540 132.5197680  78.7762840 118.5269680
 132.9385790  79.6195570 118.3545920 131.6006310  78.9134880 118.2976460
 134.8561580  76.5079020 119.9107520 134.9757790  75.9120160 120.6502360
 135.7155580  76.5448710 119.4908820 137.1949480  77.0616210 118.4870030
 136.6684700  77.5858830 117.8835170 137.5380820  77.6943600 119.1179760
 129.5935870  74.4509580 104.9319740 129.3924930  73.5876940 105.2933080
 129.4227920  74.3642940 103.9941340 130.3705100  85.0815850 119.6427410
 129.8326190  85.8061910 119.3236110 130.6239060  84.6046190 118.8524750
 131.6230350  73.0500370 121.1683340 132.2130040  72.7416220 121.8561160
 130.8050590  72.5780120 121.3243240 136.4423780  72.6666180 121.4016360
 135.7539300  72.0047720 121.3366350 137.1629800  72.2204450 121.8464820
 137.0724180  69.2617810 107.4606620 137.3526470  68.4185710 107.8166040
 136.2989910  69.4940920 107.9745370 133.2267310  86.3167060 119.9014060
 133.1526010  87.2202200 120.2086430 132.3246150  85.9978960 119.8736130
 131.6103600  70.4944820 105.9053820 131.2625600  69.8168810 105.3256270
 131.8116370  70.0334330 106.7197210 133.7752640  85.4825570 107.5240420
 134.6703430  85.8210540 107.5459180 133.8070270  84.7604980 106.8964700
 125.1184810  84.5112240 115.9429310 124.6815800  84.6913040 116.7753460
 125.6862490  85.2686860 115.8011030 140.7546990  84.0129240 120.2306620
 140.1548980  84.0721800 119.4870540 140.8840890  83.0734220 120.3603470
 141.9948440  81.7547060 105.5676330 141.1641400  81.8223710 106.0383560
 142.1720270  82.6451180 105.2643190 141.4504900  78.4994540 108.0710530
 142.2123810  79.0691190 108.1770220 141.4659270  77.9321740 108.8418840
 142.4564870  79.3544640 112.9152460 142.8273700  78.5711960 112.5088430
 143.0966800  80.0433740 112.7369760 139.4398630  80.7381220 118.3282780
 138.6258470  81.1678380 118.5908570 139.8472830  81.3499630 117.7151830
 141.5024070  78.7928910 105.2283050 141.7772910  79.7007790 105.1002270
 141.3134810  78.7291440 106.1645040 137.8999680  71.8173760 106.5236680
 138.3184560  71.6304740 105.6833340 137.5935740  70.9652810 106.8339610
 141.3989410  76.7297900 110.2212480 141.0233010  75.9625830 109.7893770
 140.6692530  77.1120600 110.7087410 125.9885170  77.4085040 116.8421530
 126.3558210  77.3212440 117.7217550 125.4195990  76.6451590 116.7428390
 140.7889030  75.8769420 119.8552000 140.5575120  75.6482170 118.9549950
 141.0493580  76.7968970 119.8096890 125.5401170  74.3194130 120.7479950
 124.6457220  74.2860890 121.0873660 126.0798720  74.5180920 121.5131200
 139.2277100  71.1025850 122.6331700 140.1047280  71.1109250 123.0165700
 139.2397940  70.3656690 122.0224050 140.6740370  74.9555390 113.5219720
 141.1977850  74.4618040 112.8909890 141.2599790  75.0905750 114.2667290
 140.8530090  75.0395260 117.0439270 139.9032800  75.0058800 117.1584260
 141.0343100  75.9495370 116.8089040 140.1640340  74.2128740 109.4612130
 140.6599460  73.9799610 110.2461010 139.9656410  73.3740580 109.0449770
 126.0440880  68.5942460 115.0963170 126.6917070  68.0439840 114.6558330
 126.4642720  68.8485610 115.9178980 141.5927500  72.8489690 111.9949810
 141.4826780  72.6945730 112.9332080 142.3535090  72.3210630 111.7525220
 139.9393220  68.7883820 118.4532810 140.5765440  69.4017960 118.8192000
 140.0868110  68.8244480 117.5082040 142.4817770  70.6797610 105.2355950
 143.4067080  70.5478790 105.0274240 142.4593560  70.7590430 106.1892400
 142.5556260  71.4508270 107.8612660 141.7607760  71.3853390 108.3905570
 142.7599540  72.3858910 107.8498010 139.4974680  85.4899820 111.8551050
 140.0933750  85.1684390 111.1785470 139.7552830  85.0171640 112.6464320
 125.7972880  68.7498130 117.8388490 125.4487700  69.2061950 118.6046670
 125.4660580  67.8555260 117.9210920 127.4037250  81.9217730 122.0041680
 127.3606880  81.5510640 122.8856140 127.5348260  82.8595300 122.1443500
 131.1043280  83.4777320 117.6051400 130.8634640  83.7451880 116.7181920
 132.0445920  83.6483050 117.6602260 133.3097700  69.9410010 121.3607910
 133.2486590  70.5331840 122.1103320 134.2498080  69.8335970 121.2158170
 135.9472260  69.5980070 121.0000200 136.5612670  69.9159360 120.3381280
 136.4921820  69.1128660 121.6196060 142.3647440  85.4971700 118.4062040
 141.8705720  85.8940570 117.6889170 141.7560730  84.8720910 118.7999320
 126.4693520  68.2774330 121.1139260 127.0176510  68.0962380 120.3505370
 126.5348830  67.4868440 121.6495570 127.2425280  84.8679980 119.1239460
 126.6485600  84.7364680 119.8629500 127.2349120  84.0318120 118.6581560
 136.6880300  68.1612210 117.3269490 135.8140140  68.4947320 117.1242420
 136.5791050  67.6885390 118.1521360 137.5952280  70.3683080 118.7111210
 137.2665640  69.5534840 118.3312940 138.5434580  70.3252890 118.5876900
 140.0486890  86.1395120 115.6848780 139.5889860  86.8910930 115.3106800
 139.4199350  85.4201590 115.6263580 126.8737510  82.2338360 118.0747500
 126.1471570  81.6143650 118.0073450 126.9346660  82.6278970 117.2045580
 130.4782610  84.4483360 114.8596910 130.9947630  83.8370720 114.3345170
 131.1279990  84.9512140 115.3507920 133.2178110  85.3391850 115.6865890
 133.5055920  85.0846150 114.8098900 133.7301330  84.7869210 116.2771460
 134.4355120  69.0782050 116.2662400 133.6526910  69.5527550 116.5459160
 134.1418050  68.1736880 116.1575580 138.9876190  69.7805150 114.3111490
 139.4284280  69.7250250 113.4633090 138.7183780  70.6963160 114.3821670
 140.8514760  69.4120390 112.3220310 140.7903160  68.4681610 112.1751330
 141.6306790  69.5200480 112.8673770 125.1567510  85.5512750 111.2844260
 124.9889550  84.9183430 111.9826150 124.2902020  85.7572150 110.9338450
 132.3209340  71.4968800 111.7778430 131.5083850  71.1225690 111.4374310
 132.8250980  70.7413880 112.0799620 136.8234320  68.1611250 113.0161500
 137.4263690  68.7331460 113.4910020 136.0827310  68.7250690 112.7935400
 139.9668920  68.5632810 108.2901780 140.1619550  69.4616260 108.5569210
 139.1798790  68.3319890 108.7834730 126.7630210  84.2445980 108.7294400
 126.2377830  84.6254010 108.0256360 126.6874790  84.8696750 109.4504110
 130.3458520  69.6468720 110.3823480 129.7161260  68.9456030 110.5493610
 129.8063660  70.4072850 110.1656640 133.2850470  86.2607950 123.0534090
 134.2117780  86.0252220 123.0970050 133.2700900  87.0879950 122.5720120
 141.5195530  85.8033520 110.0508340 141.6947720  85.1171260 109.4069260
 140.8217100  86.3280570 109.6585010 130.4714080  68.9252700 122.8175970
 130.1898350  69.4286300 122.0536790 130.8533780  68.1274450 122.4518100
 129.3623180  86.1928360 107.6043650 130.0942000  85.9087640 107.0567540
 129.6216850  85.9541640 108.4943030 137.0729540  68.3406280 123.3956440
 136.9594990  68.6600890 124.2907960 137.8899280  68.7418790 123.0993720
 139.8528030  85.4877810 122.8775130 140.6453350  84.9927040 122.6701090
 140.1461180  86.1667950 123.4850740 134.1105730  78.1377770  95.6400450
 133.3347830  77.6578210  95.9299020 134.7618660  77.4583420  95.4656610
 138.1313160  82.5437960  94.4199580 137.6694690  81.7725200  94.7486750
 138.9438710  82.5704030  94.9252030 126.5363510  73.4099470  90.3018600
 125.6480210  73.7515440  90.1998480 126.8204700  73.2099790  89.4099430
 134.3576470  84.8295970  94.0403570 133.7387910  85.2853470  93.4698010
 135.2128250  84.9847430  93.6393270 133.5514720  80.8134960  95.6470610
 133.4823000  79.8724900  95.4859740 134.3134580  80.9036370  96.2193180
 125.7421390  71.4189480  97.9727230 125.5624230  70.5215230  98.2529990
 125.3401470  71.9661350  98.6474180 142.6543560  73.1322530  99.3711510
 141.9495730  73.5204240  98.8526620 142.9201480  73.8272820  99.9732440
 128.8368730  69.6015900  99.9345580 128.8387170  70.1188290  99.1291480
 128.0073040  69.1246080  99.9115510 135.2239820  79.7135210  91.4335480
 134.6057090  80.1784660  90.8698200 135.7363070  80.4062690  91.8504990
 138.6005490  73.0556160  95.5795420 137.8961060  73.3441050  96.1598530
 138.9617650  73.8656270  95.2194980 140.2168270  82.6731290  97.8422900
 139.5331790  83.3430400  97.8339570 140.7562560  82.8711940  97.0767760
 141.6692410  72.5010950  95.9704630 140.7217320  72.5349930  96.1020060
 141.9942400  73.3149900  96.3553990 137.7527010  84.5175420  96.5568080
 137.7654170  84.1137710  95.6890340 137.2002230  85.2922710  96.4529510
 139.0472430  81.2391640  91.6458250 138.9368760  80.2965970  91.7707670
 139.0440680  81.6007280  92.5321010 137.1512450  79.4205260  97.8850690
 137.5681240  79.2065370  97.0504150 137.8752270  79.6778050  98.4559310
 134.5892710  76.8656960  91.0020740 133.6621990  76.7994340  91.2309210
 134.7417530  77.8037090  90.8875980 134.5761790  73.1373960  87.9987900
 133.6365460  73.2987920  88.0840360 134.8945050  73.8559640  87.4523890
 141.0974550  77.8192480  97.9766930 140.2693180  77.8885570  97.5017060
 141.6925030  78.4046790  97.5082760 138.6190000  78.4277260  91.5055990
 138.0002420  78.0896810  90.8582290 138.6014450  77.7837020  92.2135180
 138.0616560  74.6061800  98.9221800 137.6487740  75.4315510  99.1761790
 137.3292510  74.0206840  98.7298160 130.6631050  81.0789260  95.9479680
 130.3659340  80.4734730  95.2687460 131.6130870  81.1166570  95.8369040
 138.7516660  84.6521130  99.6102780 138.2747220  85.4593320  99.4175390
 138.0678450  83.9999460  99.7628990 134.9050080  82.6060140  92.4809980
 135.3445990  83.3484470  92.0665370 134.8436970  82.8486710  93.4048940
 130.3801050  83.6305970 103.3830000 130.3516480  84.0348920 102.5158430
 130.2166020  82.7016330 103.2201600 140.3771840  68.9206880  86.8269780
 140.0644500  69.0133710  87.7268850 141.1384310  69.4987910  86.7767210
 126.8953980  76.2866680  91.2847120 126.7751580  77.0128770  90.6728390
 126.5854870  75.5169590  90.8075030 142.3315870  84.4133070 104.6794170
 142.8075590  84.8915960 105.3583250 142.9523030  84.3450560 103.9539670
 141.7349120  81.6045920 101.8394180 141.8612180  81.3657800 100.9211360
 141.7770500  80.7730460 102.3116260 135.5965860  85.3073920 100.4088990
 136.1110530  85.2181930 101.2111420 134.7534940  85.6533620 100.7016900
 137.5720260  85.5929260  89.8372990 137.4121400  85.3032200  90.7354820
 137.4066970  84.8169390  89.3018220 130.0508640  85.3727790  91.6144610
 129.8751120  84.4563330  91.4012410 129.1964380  85.7315080  91.8542410
 137.2746390  83.1016820  88.3970990 136.5811550  83.0994110  87.7373270
 138.0169250  82.6776140  87.9665160 136.8396320  84.7279530  92.4719480
 137.2953270  83.9468910  92.7858100 137.1788840  85.4386350  93.0160660
 141.5873130  73.6578380 102.8043920 140.9717400  74.1658050 102.2759380
 141.2669550  72.7576710 102.7469860 133.6487450  72.4970270 100.2706110
 133.1866820  72.7053290 101.0826050 133.2465560  71.6829620  99.9676780
 138.6491960  73.7179220 101.4002770 137.7985550  73.4184970 101.7211840
 138.4893750  73.9621230 100.4886590 135.7441670  75.2180970 103.5001560
 136.0695080  74.3844720 103.1603790 136.5322000  75.7409490 103.6479890
 131.3993540  70.1749080  96.5260390 131.6965870  71.0811910  96.4452410
 131.9479100  69.6867860  95.9119960 136.3829620  74.7598690  90.9942690
 135.7838510  75.4834490  90.8106310 136.9309230  74.6975470  90.2119140
 131.5931070  75.6520900 103.0612310 131.4974670  74.7115630 102.9112710
 132.4363050  75.8735970 102.6660380 126.7241610  72.0634570 101.2146090
 126.3305000  72.9109780 101.4218870 126.0360010  71.4260940 101.4054730
 133.2986660  72.1469540 104.2842830 132.6084980  71.9541740 104.9188920
 134.0418960  72.4304180 104.8167130 124.2128890  73.9283150  86.4578890
 124.1303560  74.8713910  86.5993880 123.8611950  73.7858060  85.5791240
 132.0747170  73.6634260  88.5156000 132.1959990  73.6220740  89.4641820
 131.6895680  74.5258410  88.3602730 136.0375540  71.4401660  96.5319690
 136.0548280  71.8910310  97.3761540 135.7891120  70.5407300  96.7453130
 131.0868670  75.9735400  87.9139300 130.5185570  75.5253650  87.2875210
 131.7957670  76.3328180  87.3804450 139.4646290  68.8533840 102.3706070
 139.7892060  68.1223500 102.8964050 139.5002800  68.5347480 101.4687060
 128.6316150  79.9693590  90.1865710 127.8578410  79.4291210  90.0264430
 129.3610780  79.4500200  89.8483470 139.3904130  78.9658950  95.9792100
 140.1103250  79.4614240  95.5888210 139.1885950  78.2876840  95.3345970
 134.7722930  79.0368010 101.8661100 134.7060240  78.1163680 101.6118690
 134.1428070  79.1343450 102.5805740 134.7039660  81.8588580 101.6164900
 134.7184200  80.9269540 101.3983810 133.9964760  81.9448340 102.2554670
 139.8376730  76.0428400  87.8863510 139.7540450  76.4742620  87.0359950
 140.5570920  76.5026750  88.3190330 140.9150870  78.4995920 100.9633480
 140.1899060  79.0924700 100.7662870 141.4426330  78.4919460 100.1646850
 140.8663980  82.8970660  90.6145640 140.2240140  82.2426280  90.8889360
 140.4794640  83.3025750  89.8386310 136.4450460  80.2256090  94.4617330
 136.7974280  79.6284220  93.8018700 135.5612790  79.9000320  94.6325580
 132.5313740  80.9853780  91.8687740 133.2184870  81.5322990  92.2495330
 131.7446160  81.5294510  91.9037350 131.8340950  77.9899810  91.4813100
 132.2903730  78.8005060  91.7073290 131.4829160  77.6722950  92.3131590
 134.1373560  83.5006150  98.7105400 134.7815780  83.7065530  99.3878820
 134.5003000  82.7394550  98.2576250 135.4105640  81.5038500  97.4282850
 136.0527870  80.8031660  97.5415020 135.9354990  82.2836940  97.2479740
 139.2561360  81.7887120  87.1521990 139.0298940  81.0717560  87.7446630
 138.8657560  81.5399560  86.3143740 137.1843260  82.3033400 100.6318910
 137.5199500  82.8900090 101.3096830 136.2643600  82.1726110 100.8616700
 124.7346660  70.0928580 101.4142320 124.0205180  70.2925500 102.0194930
 125.1541700  69.3168150 101.7857120 133.0131840  82.3524730 103.8006970
 132.6928710  81.6333970 104.3452660 132.3390200  83.0279800 103.8743030
 131.0546010  83.1985180  88.7440120 131.0456110  83.9314870  88.1284630
 130.1344370  82.9516760  88.8367080 126.6552650  78.4200070  89.4886880
 126.0480600  79.1598970  89.4982180 127.1302000  78.5099430  88.6625080
 136.2285440  72.5850890  99.1643770 136.5966260  71.7646100  99.4923340
 135.3683640  72.6452780  99.5799420 132.6823720  85.7799740  92.1012980
 132.9365220  85.7421130  91.1792350 131.7336200  85.6533070  92.0941230
 140.3954290  71.4558440 100.2310130 139.8927890  72.1963840 100.5703940
 141.2110950  71.8442440  99.9146920 138.6876300  76.6991620  93.6771490
 137.7466440  76.7141850  93.8519180 139.0020370  75.9127580  94.1231790
 127.3604700  75.8136290  87.9208340 127.4408290  74.8663800  88.0325740
 128.2524450  76.1443170  88.0269000 140.6901880  83.8700470  95.3525750
 140.8149300  84.6931640  95.8249560 141.5567440  83.6591200  95.0049900
 128.1619410  85.9631680  95.0242880 128.8981890  85.4147140  95.2951450
 128.5460330  86.8287690  94.8848870 127.1677690  85.1477750 104.2128460
 127.9690420  85.4689800 104.6263860 126.6529510  84.7873330 104.9348370
 136.0042320  81.2557620 104.1603870 135.3980480  81.2789220 103.4199620
 135.6996430  80.5240660 104.6971120 137.4342690  84.9837910 102.7713280
 138.3864440  84.8995930 102.7213520 137.2870910  85.6479620 103.4447070
 140.3251890  84.3632120  88.2705190 140.0393400  83.9497260  87.4559370
 140.1271440  85.2919830  88.1505710 139.0836790  80.7727530 103.2475050
 139.8246260  81.1103290 102.7442510 138.3209470  80.9419590 102.6944820
 130.6976970  78.3776350  89.2118090 131.1193390  78.2116220  90.0549480
 130.8227810  77.5676580  88.7173230 128.8604390  74.3572900 102.0189070
 128.3300850  73.8663850 101.3912410 129.5292460  74.7857100 101.4847000
 137.7582450  78.8242360 101.7830260 138.1723470  78.9787440 102.6320680
 136.8233450  78.9497580 101.9456040 138.2304620  76.1638520 103.7869410
 138.8125390  75.4090840 103.6989890 138.4066390  76.6945960 103.0100890
 129.3476690  71.3235270 102.0986360 129.2533560  70.7056020 101.3737230
 128.7674080  72.0501560 101.8716270 132.1138130  69.8808510  99.1313750
 131.6655430  69.9032770  98.2859300 131.4803330  69.4827530  99.7284050
 132.5197680  78.7762840  99.7526190 132.9385790  79.6195570  99.5802430
 131.6006310  78.9134880  99.5232970 134.8561580  76.5079020 101.1364030
 134.9757790  75.9120160 101.8758870 135.7155580  76.5448710 100.7165330
 137.1949480  77.0616210  99.7126540 136.6684700  77.5858830  99.1091680
 137.5380820  77.6943600 100.3436270 130.3705100  85.0815850 100.8683920
 129.8326190  85.8061910 100.5492620 130.6239060  84.6046190 100.0781260
 131.6230350  73.0500370 102.3939850 132.2130040  72.7416220 103.0817670
 130.8050590  72.5780120 102.5499750 136.4423780  72.6666180 102.6272870
 135.7539300  72.0047720 102.5622860 137.1629800  72.2204450 103.0721330
 128.3918670  71.5510200  86.1454130 128.6944570  71.5577630  85.2373280
 129.1313260  71.2008060  86.6421790 133.2267310  86.3167060 101.1270570
 133.1526010  87.2202200 101.4342940 132.3246150  85.9978960 101.0992640
 133.7752640  85.4825570  88.7496930 134.6703430  85.8210540  88.7715690
 133.8070270  84.7604980  88.1221210 127.4148800  80.8552620  86.9783930
 127.8523670  81.3982290  87.6341510 127.8996530  80.0299570  86.9880270
 129.2256520  81.9750660  92.0906160 128.9252060  81.8515630  92.9910070
 129.1194010  81.1159250  91.6821890 140.7546990  84.0129240 101.4563130
 140.1548980  84.0721800 100.7127050 140.8840890  83.0734220 101.5859980
 141.9948440  81.7547060  86.7932840 141.1641400  81.8223710  87.2640070
 142.1720270  82.6451180  86.4899700 141.4504900  78.4994540  89.2967040
 142.2123810  79.0691190  89.4026730 141.4659270  77.9321740  90.0675350
 142.4564870  79.3544640  94.1408970 142.8273700  78.5711960  93.7344940
 143.0966800  80.0433740  93.9626270 139.4398630  80.7381220  99.5539290
 138.6258470  81.1678380  99.8165080 139.8472830  81.3499630  98.9408340
 141.5024070  78.7928910  86.4539560 141.7772910  79.7007790  86.3258780
 141.3134810  78.7291440  87.3901550 137.8999680  71.8173760  87.7493190
 138.3184560  71.6304740  86.9089850 137.5935740  70.9652810  88.0596120
 141.3989410  76.7297900  91.4468990 141.0233010  75.9625830  91.0150280
 140.6692530  77.1120600  91.9343920 140.7889030  75.8769420 101.0808510
 140.5575120  75.6482170 100.1806460 141.0493580  76.7968970 101.0353400
 125.5401170  74.3194130 101.9736460 124.6457220  74.2860890 102.3130170
 126.0798720  74.5180920 102.7387710 139.2277100  71.1025850 103.8588210
 140.1047280  71.1109250 104.2422210 139.2397940  70.3656690 103.2480560
 140.6740370  74.9555390  94.7476230 141.1977850  74.4618040  94.1166400
 141.2599790  75.0905750  95.4923800 140.8530090  75.0395260  98.2695780
 139.9032800  75.0058800  98.3840770 141.0343100  75.9495370  98.0345550
 126.7074530  73.2896940  87.3794410 127.4166230  72.8680160  86.8941690
 125.9914470  73.3572170  86.7477760 126.3548690  69.3436270  86.4197060
 127.0776820  69.8845210  86.7378280 126.6273210  69.0699690  85.5438600
 140.1640340  74.2128740  90.6868640 140.6599460  73.9799610  91.4717520
 139.9656410  73.3740580  90.2706280 141.5927500  72.8489690  93.2206320
 141.4826780  72.6945730  94.1588590 142.3535090  72.3210630  92.9781730
 139.9393220  68.7883820  99.6789320 140.5765440  69.4017960 100.0448510
 140.0868110  68.8244480  98.7338550 142.4817770  70.6797610  86.4612460
 143.4067080  70.5478790  86.2530750 142.4593560  70.7590430  87.4148910
 142.5556260  71.4508270  89.0869170 141.7607760  71.3853390  89.6162080
 142.7599540  72.3858910  89.0754520 139.4974680  85.4899820  93.0807560
 140.0933750  85.1684390  92.4041980 139.7552830  85.0171640  93.8720830
 125.7972880  68.7498130  99.0645000 125.4487700  69.2061950  99.8303180
 125.4660580  67.8555260  99.1467430 131.1043280  83.4777320  98.8307910
 130.8634640  83.7451880  97.9438430 132.0445920  83.6483050  98.8858770
 133.3097700  69.9410010 102.5864420 133.2486590  70.5331840 103.3359830
 134.2498080  69.8335970 102.4414680 135.9472260  69.5980070 102.2256710
 136.5612670  69.9159360 101.5637790 136.4921820  69.1128660 102.8452570
 142.3647440  85.4971700  99.6318550 141.8705720  85.8940570  98.9145680
 141.7560730  84.8720910 100.0255830 126.4693520  68.2774330 102.3395770
 127.0176510  68.0962380 101.5761880 126.5348830  67.4868440 102.8752080
 127.2425280  84.8679980 100.3495970 126.6485600  84.7364680 101.0886010
 127.2349120  84.0318120  99.8838070 136.6880300  68.1612210  98.5526000
 135.8140140  68.4947320  98.3498930 136.5791050  67.6885390  99.3777870
 137.5952280  70.3683080  99.9367720 137.2665640  69.5534840  99.5569450
 138.5434580  70.3252890  99.8133410 140.0486890  86.1395120  96.9105290
 139.5889860  86.8910930  96.5363310 139.4199350  85.4201590  96.8520090
 130.4782610  84.4483360  96.0853420 130.9947630  83.8370720  95.5601680
 131.1279990  84.9512140  96.5764430 133.2178110  85.3391850  96.9122400
 133.5055920  85.0846150  96.0355410 133.7301330  84.7869210  97.5027970
 140.8514760  69.4120390  93.5476820 140.7903160  68.4681610  93.4007840
 141.6306790  69.5200480  94.0930280 125.7795530  69.3829530  90.0132630
 126.5374890  69.4958410  89.4396660 125.3172700  70.2198730  89.9676060
 133.2850470  86.2607950 104.2790600 134.2117780  86.0252220 104.3226560
 133.2700900  87.0879950 103.7976630 141.5195530  85.8033520  91.2764850
 141.6947720  85.1171260  90.6325770 140.8217100  86.3280570  90.8841520
 130.4714080  68.9252700 104.0432480 130.1898350  69.4286300 103.2793300
 130.8533780  68.1274450 103.6774610 128.5237970  82.3093090  88.8346490
 127.8946850  82.7778190  89.3832320 128.6385800  81.4642310  89.2692680
 137.0729540  68.3406280 104.6212950 136.9594990  68.6600890 105.5164470
 137.8899280  68.7418790 104.3250230 139.8528030  85.4877810 104.1031640
 140.6453350  84.9927040 103.8957600 140.1461180  86.1667950 104.7107250
 124.4996520  76.0105120  77.4114810 125.0712630  75.2427320  77.4118450
 124.4998060  76.3093880  76.5021420 142.6543560  73.1322530  80.5968020
 141.9495730  73.5204240  80.0783130 142.9201480  73.8272820  81.1988950
 128.8368730  69.6015900  81.1602090 128.8387170  70.1188290  80.3547990
 128.0073040  69.1246080  81.1372020 138.6005490  73.0556160  76.8051930
 137.8961060  73.3441050  77.3855040 138.9617650  73.8656270  76.4451490
 141.6692410  72.5010950  77.1961140 140.7217320  72.5349930  77.3276570
 141.9942400  73.3149900  77.5810500 134.5761790  73.1373960  69.2244410
 133.6365460  73.2987920  69.3096870 134.8945050  73.8559640  68.6780400
 141.0974550  77.8192480  79.2023440 140.2693180  77.8885570  78.7273570
 141.6925030  78.4046790  78.7339270 138.0616560  74.6061800  80.1478310
 137.6487740  75.4315510  80.4018300 137.3292510  74.0206840  79.9554670
 130.1949350  77.3921700  75.0096980 129.7906350  76.6798950  74.5142880
 130.2812470  77.0474940  75.8985020 130.6631050  81.0789260  77.1736190
 130.3659340  80.4734730  76.4943970 131.6130870  81.1166570  77.0625550
 134.9050080  82.6060140  73.7066490 135.3445990  83.3484470  73.2921880
 134.8436970  82.8486710  74.6305450 130.3801050  83.6305970  84.6086510
 130.3516480  84.0348920  83.7414940 130.2166020  82.7016330  84.4458110
 140.3771840  68.9206880  68.0526290 140.0644500  69.0133710  68.9525360
 141.1384310  69.4987910  68.0023720 126.8953980  76.2866680  72.5103630
 126.7751580  77.0128770  71.8984900 126.5854870  75.5169590  72.0331540
 142.3315870  84.4133070  85.9050680 142.8075590  84.8915960  86.5839760
 142.9523030  84.3450560  85.1796180 124.5339350  79.4581820  78.3172270
 124.6119770  79.5930590  77.3727990 125.1481030  78.7497710  78.5100390
 125.7786980  81.1582010  74.7278450 125.3715060  81.2996600  73.8732050
 126.6699990  80.8742170  74.5249660 141.7349120  81.6045920  83.0650690
 141.8612180  81.3657800  82.1467870 141.7770500  80.7730460  83.5372770
 137.5720260  85.5929260  71.0629500 137.4121400  85.3032200  71.9611330
 137.4066970  84.8169390  70.5274730 137.2746390  83.1016820  69.6227500
 136.5811550  83.0994110  68.9629780 138.0169250  82.6776140  69.1921670
 136.8396320  84.7279530  73.6975990 137.2953270  83.9468910  74.0114610
 137.1788840  85.4386350  74.2417170 141.5873130  73.6578380  84.0300430
 140.9717400  74.1658050  83.5015890 141.2669550  72.7576710  83.9726370
 124.5898870  80.4995990  80.8566730 124.7529910  80.0301350  80.0386100
 125.0551320  79.9919550  81.5215570 133.6487450  72.4970270  81.4962620
 133.1866820  72.7053290  82.3082560 133.2465560  71.6829620  81.1933290
 138.6491960  73.7179220  82.6259280 137.7985550  73.4184970  82.9468350
 138.4893750  73.9621230  81.7143100 126.7241610  72.0634570  82.4402600
 126.3305000  72.9109780  82.6475380 126.0360010  71.4260940  82.6311240
 133.2986660  72.1469540  85.5099340 132.6084980  71.9541740  86.1445430
 134.0418960  72.4304180  86.0423640 124.2128890  73.9283150  67.6835400
 124.1303560  74.8713910  67.8250390 123.8611950  73.7858060  66.8047750
 132.0747170  73.6634260  69.7412510 132.1959990  73.6220740  70.6898330
 131.6895680  74.5258410  69.5859240 136.0375540  71.4401660  77.7576200
 136.0548280  71.8910310  78.6018050 135.7891120  70.5407300  77.9709640
 131.0868670  75.9735400  69.1395810 130.5185570  75.5253650  68.5131720
 131.7957670  76.3328180  68.6060960 132.3134990  76.7223960  78.4971160
 132.6805120  76.2482530  79.2432500 132.1240050  77.5965530  78.8379500
 128.6316150  79.9693590  71.4122220 127.8578410  79.4291210  71.2520940
 129.3610780  79.4500200  71.0739980 137.5662460  74.7316560  69.6440160
 138.4542080  75.0433790  69.4691500 137.5367550  73.8588810  69.2520740
 128.6753550  79.6373970  75.0501030 129.1932220  78.8342230  74.9957920
 128.2237570  79.5753110  75.8917860 133.5623050  80.9040250  70.3228330
 133.9038750  81.6482480  69.8271650 132.7335760  81.2171370  70.6853160
 134.7039660  81.8588580  82.8421410 134.7184200  80.9269540  82.6240320
 133.9964760  81.9448340  83.4811180 139.8376730  76.0428400  69.1120020
 139.7540450  76.4742620  68.2616460 140.5570920  76.5026750  69.5446840
 140.9150870  78.4995920  82.1889990 140.1899060  79.0924700  81.9919380
 141.4426330  78.4919460  81.3903360 140.8663980  82.8970660  71.8402150
 140.2240140  82.2426280  72.1145870 140.4794640  83.3025750  71.0642820
 132.5313740  80.9853780  73.0944250 133.2184870  81.5322990  73.4751840
 131.7446160  81.5294510  73.1293860 124.6706140  76.6026600  68.5861330
 125.5400990  76.8851400  68.8697250 124.1796460  77.4162470  68.4710140
 131.8340950  77.9899810  72.7069610 132.2903730  78.8005060  72.9329800
 131.4829160  77.6722950  73.5388100 139.2561360  81.7887120  68.3778500
 139.0298940  81.0717560  68.9703140 138.8657560  81.5399560  67.5400250
 138.8377610  79.7059060  70.0392660 138.5499310  80.1671750  70.8270540
 139.6329780  79.2456830  70.3076880 126.6552650  78.4200070  70.7143390
 126.0480600  79.1598970  70.7238690 127.1302000  78.5099430  69.8881590
 136.2285440  72.5850890  80.3900280 136.5966260  71.7646100  80.7179850
 135.3683640  72.6452780  80.8055930 139.5947470  71.5407830  71.1987840
 138.9660630  71.6453500  70.4846070 139.0999390  71.7604610  71.9881720
 131.5631500  73.8193780  72.6145720 130.8547650  74.2880120  73.0559330
 131.8475980  73.1615790  73.2490910 133.1887430  75.2390480  80.6138250
 133.6872680  75.7136300  81.2790100 133.3310380  74.3154000  80.8208280
 140.3954290  71.4558440  81.4566640 139.8927890  72.1963840  81.7960450
 141.2110950  71.8442440  81.1403430 128.6657940  78.3811220  68.4631960
 129.4321210  78.2692580  69.0257390 128.7432630  77.6849190  67.8108730
 127.3604700  75.8136290  69.1464850 127.4408290  74.8663800  69.2582250
 128.2524450  76.1443170  69.2525510 137.4342690  84.9837910  83.9969790
 138.3864440  84.8995930  83.9470030 137.2870910  85.6479620  84.6703580
 140.3251890  84.3632120  69.4961700 140.0393400  83.9497260  68.6815880
 140.1271440  85.2919830  69.3762220 131.7899120  80.3565400  67.9367310
 131.6849760  79.7417750  68.6628690 131.6223340  79.8331290  67.1530320
 135.0301850  79.4185430  68.5409300 134.4811950  79.8654730  69.1852040
 135.6521110  78.9134680  69.0646970 139.0836790  80.7727530  84.4731560
 139.8246260  81.1103290  83.9699020 138.3209470  80.9419590  83.9201330
 130.6976970  78.3776350  70.4374600 131.1193390  78.2116220  71.2805990
 130.8227810  77.5676580  69.9429740 133.2104610  77.4013960  67.6851700
 133.7310270  76.6862980  67.3192850 133.8573010  78.0399830  67.9852210
 129.3476690  71.3235270  83.3242870 129.2533560  70.7056020  82.5993740
 128.7674080  72.0501560  83.0972780 132.1138130  69.8808510  80.3570260
 131.6655430  69.9032770  79.5115810 131.4803330  69.4827530  80.9540560
 132.5197680  78.7762840  80.9782700 132.9385790  79.6195570  80.8058940
 131.6006310  78.9134880  80.7489480 134.8561580  76.5079020  82.3620540
 134.9757790  75.9120160  83.1015380 135.7155580  76.5448710  81.9421840
 129.5935870  74.4509580  67.3832760 129.3924930  73.5876940  67.7446100
 129.4227920  74.3642940  66.4454360 131.6230350  73.0500370  83.6196360
 132.2130040  72.7416220  84.3074180 130.8050590  72.5780120  83.7756260
 136.4423780  72.6666180  83.8529380 135.7539300  72.0047720  83.7879370
 137.1629800  72.2204450  84.2977840 128.3918670  71.5510200  67.3710640
 128.6944570  71.5577630  66.4629790 129.1313260  71.2008060  67.8678300
 131.6103600  70.4944820  68.3566840 131.2625600  69.8168810  67.7769290
 131.8116370  70.0334330  69.1710230 127.4148800  80.8552620  68.2040440
 127.8523670  81.3982290  68.8598020 127.8996530  80.0299570  68.2136780
 141.9948440  81.7547060  68.0189350 141.1641400  81.8223710  68.4896580
 142.1720270  82.6451180  67.7156210 141.4504900  78.4994540  70.5223550
 142.2123810  79.0691190  70.6283240 141.4659270  77.9321740  71.2931860
 124.9509240  77.0232470  74.7531210 124.2958080  76.7544110  74.1090910
 125.7887190  76.9136950  74.3033190 142.4564870  79.3544640  75.3665480
 142.8273700  78.5711960  74.9601450 143.0966800  80.0433740  75.1882780
 141.5024070  78.7928910  67.6796070 141.7772910  79.7007790  67.5515290
 141.3134810  78.7291440  68.6158060 137.8999680  71.8173760  68.9749700
 138.3184560  71.6304740  68.1346360 137.5935740  70.9652810  69.2852630
 140.7889030  75.8769420  82.3065020 140.5575120  75.6482170  81.4062970
 141.0493580  76.7968970  82.2609910 139.2277100  71.1025850  85.0844720
 140.1047280  71.1109250  85.4678720 139.2397940  70.3656690  84.4737070
 124.1647320  74.2331400  70.6956540 123.2611400  74.4961600  70.5208200
 124.6487940  74.5042570  69.9156500 140.8530090  75.0395260  79.4952290
 139.9032800  75.0058800  79.6097280 141.0343100  75.9495370  79.2602060
 126.7074530  73.2896940  68.6050920 127.4166230  72.8680160  68.1198200
 125.9914470  73.3572170  67.9734270 126.3548690  69.3436270  67.6453570
 127.0776820  69.8845210  67.9634790 126.6273210  69.0699690  66.7695110
 140.1640340  74.2128740  71.9125150 140.6599460  73.9799610  72.6974030
 139.9656410  73.3740580  71.4962790 141.5927500  72.8489690  74.4462830
 141.4826780  72.6945730  75.3845100 142.3535090  72.3210630  74.2038240
 142.4817770  70.6797610  67.6868970 143.4067080  70.5478790  67.4787260
 142.4593560  70.7590430  68.6405420 142.5556260  71.4508270  70.3125680
 141.7607760  71.3853390  70.8418590 142.7599540  72.3858910  70.3011030
 133.3097700  69.9410010  83.8120930 133.2486590  70.5331840  84.5616340
 134.2498080  69.8335970  83.6671190 126.4693520  68.2774330  83.5652280
 127.0176510  68.0962380  82.8018390 126.5348830  67.4868440  84.1008590
 136.6880300  68.1612210  79.7782510 135.8140140  68.4947320  79.5755440
 136.5791050  67.6885390  80.6034380 126.8737510  82.2338360  80.5260520
 126.1471570  81.6143650  80.4586470 126.9346660  82.6278970  79.6558600
 134.4355120  69.0782050  78.7175420 133.6526910  69.5527550  78.9972180
 134.1418050  68.1736880  78.6088600 133.2850470  86.2607950  85.5047110
 134.2117780  86.0252220  85.5483070 133.2700900  87.0879950  85.0233140
 141.5195530  85.8033520  72.5021360 141.6947720  85.1171260  71.8582280
 140.8217100  86.3280570  72.1098030 139.8528030  85.4877810  85.3288150
 140.6453350  84.9927040  85.1214110 140.1461180  86.1667950  85.9363760
 135.9787690  76.3598750  56.2104200 135.8981740  75.4453360  55.9395910
 135.5652110  76.8565820  55.5043910 134.1105730  78.1377770  58.0913470
 133.3347830  77.6578210  58.3812040 134.7618660  77.4583420  57.9169630
 138.1313160  82.5437960  56.8712600 137.6694690  81.7725200  57.1999770
 138.9438710  82.5704030  57.3765050 128.1072820  82.4837670  59.1647250
 128.4100860  81.5935410  58.9857470 128.8516410  83.0407890  58.9369500
 124.4996520  76.0105120  58.6371320 125.0712630  75.2427320  58.6374960
 124.4998060  76.3093880  57.7277930 134.3576470  84.8295970  56.4916590
 133.7387910  85.2853470  55.9211030 135.2128250  84.9847430  56.0906290
 133.5514720  80.8134960  58.0983630 133.4823000  79.8724900  57.9372760
 134.3134580  80.9036370  58.6706200 125.7421390  71.4189480  60.4240250
 125.5624230  70.5215230  60.7043010 125.3401470  71.9661350  61.0987200
 142.6543560  73.1322530  61.8224530 141.9495730  73.5204240  61.3039640
 142.9201480  73.8272820  62.4245460 128.8368730  69.6015900  62.3858600
 128.8387170  70.1188290  61.5804500 128.0073040  69.1246080  62.3628530
 130.0871580  79.2411080  60.5632100 129.7540960  79.8680000  61.2053170
 130.2638260  79.7672960  59.7833770 138.6005490  73.0556160  58.0308440
 137.8961060  73.3441050  58.6111550 138.9617650  73.8656270  57.6708000
 128.5184060  71.3125860  60.3929050 128.8600870  72.1567910  60.0982920
 127.5799870  71.4609600  60.5094390 129.2990680  81.2091880  62.3781280
 129.9164680  81.8842960  62.0965730 128.4383800  81.6179860  62.2868780
 140.2168270  82.6731290  60.2935920 139.5331790  83.3430400  60.2852590
 140.7562560  82.8711940  59.5280780 141.6692410  72.5010950  58.4217650
 140.7217320  72.5349930  58.5533080 141.9942400  73.3149900  58.8067010
 137.7527010  84.5175420  59.0081100 137.7654170  84.1137710  58.1403360
 137.2002230  85.2922710  58.9042530 139.0472430  81.2391640  54.0971270
 138.9368760  80.2965970  54.2220690 139.0440680  81.6007280  54.9834030
 137.1512450  79.4205260  60.3363710 137.5681240  79.2065370  59.5017170
 137.8752270  79.6778050  60.9072330 134.5761790  73.1373960  50.4500920
 133.6365460  73.2987920  50.5353380 134.8945050  73.8559640  49.9036910
 141.0974550  77.8192480  60.4279950 140.2693180  77.8885570  59.9530080
 141.6925030  78.4046790  59.9595780 138.6190000  78.4277260  53.9569010
 138.0002420  78.0896810  53.3095310 138.6014450  77.7837020  54.6648200
 138.0616560  74.6061800  61.3734820 137.6487740  75.4315510  61.6274810
 137.3292510  74.0206840  61.1811180 130.6631050  81.0789260  58.3992700
 130.3659340  80.4734730  57.7200480 131.6130870  81.1166570  58.2882060
 138.7516660  84.6521130  62.0615800 138.2747220  85.4593320  61.8688410
 138.0678450  83.9999460  62.2142010 129.7549480  80.8170950  65.0500500
 128.8578010  81.0410920  65.2973900 129.7802350  80.9405890  64.1011900
 128.5820700  77.6884270  63.6257870 128.4428470  78.5607070  63.9945270
 127.7002060  77.3457080  63.4805810 134.9050080  82.6060140  54.9323000
 135.3445990  83.3484470  54.5178390 134.8436970  82.8486710  55.8561960
 130.3801050  83.6305970  65.8343020 130.3516480  84.0348920  64.9671450
 130.2166020  82.7016330  65.6714620 140.3771840  68.9206880  49.2782800
 140.0644500  69.0133710  50.1781870 141.1384310  69.4987910  49.2280230
 142.3315870  84.4133070  67.1307190 142.8075590  84.8915960  67.8096270
 142.9523030  84.3450560  66.4052690 124.5339350  79.4581820  59.5428780
 124.6119770  79.5930590  58.5984500 125.1481030  78.7497710  59.7356900
 141.7349120  81.6045920  64.2907200 141.8612180  81.3657800  63.3724380
 141.7770500  80.7730460  64.7629280 135.5965860  85.3073920  62.8602010
 136.1110530  85.2181930  63.6624440 134.7534940  85.6533620  63.1529920
 137.5720260  85.5929260  52.2886010 137.4121400  85.3032200  53.1867840
 137.4066970  84.8169390  51.7531240 130.0508640  85.3727790  54.0657630
 129.8751120  84.4563330  53.8525430 129.1964380  85.7315080  54.3055430
 137.2746390  83.1016820  50.8484010 136.5811550  83.0994110  50.1886290
 138.0169250  82.6776140  50.4178180 136.8396320  84.7279530  54.9232500
 137.2953270  83.9468910  55.2371120 137.1788840  85.4386350  55.4673680
 141.5873130  73.6578380  65.2556940 140.9717400  74.1658050  64.7272400
 141.2669550  72.7576710  65.1982880 124.5898870  80.4995990  62.0823240
 124.7529910  80.0301350  61.2642610 125.0551320  79.9919550  62.7472080
 129.3617640  69.6301750  57.1183810 128.9185790  70.4111290  56.7868330
 129.9202630  69.9531640  57.8254750 133.6487450  72.4970270  62.7219130
 133.1866820  72.7053290  63.5339070 133.2465560  71.6829620  62.4189800
 138.6491960  73.7179220  63.8515790 137.7985550  73.4184970  64.1724860
 138.4893750  73.9621230  62.9399610 135.7441670  75.2180970  65.9514580
 136.0695080  74.3844720  65.6116810 136.5322000  75.7409490  66.0992910
 131.3993540  70.1749080  58.9773410 131.6965870  71.0811910  58.8965430
 131.9479100  69.6867860  58.3632980 136.3829620  74.7598690  53.4455710
 135.7838510  75.4834490  53.2619330 136.9309230  74.6975470  52.6632160
 131.5931070  75.6520900  65.5125330 131.4974670  74.7115630  65.3625730
 132.4363050  75.8735970  65.1173400 126.7241610  72.0634570  63.6659110
 126.3305000  72.9109780  63.8731890 126.0360010  71.4260940  63.8567750
 133.2986660  72.1469540  66.7355850 132.6084980  71.9541740  67.3701940
 134.0418960  72.4304180  67.2680150 124.0258660  69.9863030  57.6989190
 123.7371710  70.5565890  58.4114170 124.7704420  69.5067480  58.0620420
 124.2128890  73.9283150  48.9091910 124.1303560  74.8713910  49.0506900
 123.8611950  73.7858060  48.0304260 135.5749630  75.9867980  59.5709770
 134.8430750  76.4954790  59.9199870 135.1773970  75.1697960  59.2698550
 139.4646290  68.8533840  64.8219090 139.7892060  68.1223500  65.3477070
 139.5002800  68.5347480  63.9200080 126.1637850  79.8747420  64.2419050
 125.7792640  79.2341090  64.8402010 126.4750040  80.5783540  64.8113780
 132.3134990  76.7223960  59.7227670 132.6805120  76.2482530  60.4689010
 132.1240050  77.5965530  60.0636010 125.1775480  71.4667650  55.8521140
 124.8922400  71.1023320  56.6899760 125.1154340  70.7348110  55.2384280
 130.1034360  75.7632600  62.0411880 129.7991430  76.6424580  62.2662240
 131.0580820  75.8232390  62.0769320 128.6316150  79.9693590  52.6378730
 127.8578410  79.4291210  52.4777450 129.3610780  79.4500200  52.2996490
 139.3904130  78.9658950  58.4305120 140.1103250  79.4614240  58.0401230
 139.1885950  78.2876840  57.7858990 134.7722930  79.0368010  64.3174120
 134.7060240  78.1163680  64.0631710 134.1428070  79.1343450  65.0318760
 137.5662460  74.7316560  50.8696670 138.4542080  75.0433790  50.6948010
 137.5367550  73.8588810  50.4777250 128.6753550  79.6373970  56.2757540
 129.1932220  78.8342230  56.2214430 128.2237570  79.5753110  57.1174370
 133.5623050  80.9040250  51.5484840 133.9038750  81.6482480  51.0528160
 132.7335760  81.2171370  51.9109670 126.1598090  76.6035340  63.1883240
 125.8013030  77.2689190  63.7756580 125.8652650  75.7718890  63.5595860
 129.3611210  77.0619580  66.0722790 129.0611350  77.2076760  65.1750610
 130.1322450  76.5024870  65.9796180 134.7039660  81.8588580  64.0677920
 134.7184200  80.9269540  63.8496830 133.9964760  81.9448340  64.7067690
 139.8376730  76.0428400  50.3376530 139.7540450  76.4742620  49.4872970
 140.5570920  76.5026750  50.7703350 140.9150870  78.4995920  63.4146500
 140.1899060  79.0924700  63.2175890 141.4426330  78.4919460  62.6159870
 140.8663980  82.8970660  53.0658660 140.2240140  82.2426280  53.3402380
 140.4794640  83.3025750  52.2899330 136.4450460  80.2256090  56.9130350
 136.7974280  79.6284220  56.2531720 135.5612790  79.9000320  57.0838600
 132.5313740  80.9853780  54.3200760 133.2184870  81.5322990  54.7008350
 131.7446160  81.5294510  54.3550370 124.6706140  76.6026600  49.8117840
 125.5400990  76.8851400  50.0953760 124.1796460  77.4162470  49.6966650
 134.1373560  83.5006150  61.1618420 134.7815780  83.7065530  61.8391840
 134.5003000  82.7394550  60.7089270 135.4105640  81.5038500  59.8795870
 136.0527870  80.8031660  59.9928040 135.9354990  82.2836940  59.6992760
 139.2561360  81.7887120  49.6035010 139.0298940  81.0717560  50.1959650
 138.8657560  81.5399560  48.7656760 137.1843260  82.3033400  63.0831930
 137.5199500  82.8900090  63.7609850 136.2643600  82.1726110  63.3129720
 125.0377390  85.8153980  50.3779470 125.3975030  86.4143320  49.7236740
 124.8969730  86.3613870  51.1514500 124.7346660  70.0928580  63.8655340
 124.0205180  70.2925500  64.4707950 125.1541700  69.3168150  64.2370140
 138.8377610  79.7059060  51.2649170 138.5499310  80.1671750  52.0527050
 139.6329780  79.2456830  51.5333390 133.0131840  82.3524730  66.2519990
 132.6928710  81.6333970  66.7965680 132.3390200  83.0279800  66.3256050
 131.0546010  83.1985180  51.1953140 131.0456110  83.9314870  50.5797650
 130.1344370  82.9516760  51.2880100 126.6552650  78.4200070  51.9399900
 126.0480600  79.1598970  51.9495200 127.1302000  78.5099430  51.1138100
 139.5947470  71.5407830  52.4244350 138.9660630  71.6453500  51.7102580
 139.0999390  71.7604610  53.2138230 134.0405610  83.2613420  49.8578330
 134.1417590  83.0577410  48.9280310 133.1407350  83.0071700  50.0626110
 133.1887430  75.2390480  61.8394760 133.6872680  75.7136300  62.5046610
 133.3310380  74.3154000  62.0464790 132.6823720  85.7799740  54.5526000
 132.9365220  85.7421130  53.6305370 131.7336200  85.6533070  54.5454250
 140.3954290  71.4558440  62.6823150 139.8927890  72.1963840  63.0216960
 141.2110950  71.8442440  62.3659940 138.6876300  76.6991620  56.1284510
 137.7466440  76.7141850  56.3032200 139.0020370  75.9127580  56.5744810
 140.6901880  83.8700470  57.8038770 140.8149300  84.6931640  58.2762580
 141.5567440  83.6591200  57.4562920 125.0464890  82.0305250  53.3497410
 124.1204670  82.2726390  53.3402820 125.5121320  82.8579510  53.2282160
 131.2721720  85.1361990  49.2981470 132.0650330  85.4250820  48.8463260
 130.7526070  84.7054160  48.6193950 136.0042320  81.2557620  66.6116890
 135.3980480  81.2789220  65.8712640 135.6996430  80.5240660  67.1484140
 137.4342690  84.9837910  65.2226300 138.3864440  84.8995930  65.1726540
 137.2870910  85.6479620  65.8960090 140.3251890  84.3632120  50.7218210
 140.0393400  83.9497260  49.9072390 140.1271440  85.2919830  50.6018730
 124.8875500  77.6351210  65.6077530 125.3914520  77.0558490  66.1793760
 124.1482920  77.9191440  66.1453900 131.7899120  80.3565400  49.1623820
 131.6849760  79.7417750  49.8885200 131.6223340  79.8331290  48.3786830
 131.9413440  79.0422200  65.1413050 131.1759110  79.6107200  65.0567720
 132.1229400  78.7498410  64.2481280 139.0836790  80.7727530  65.6988070
 139.8246260  81.1103290  65.1955530 138.3209470  80.9419590  65.1457840
 126.9198580  75.7780800  66.5027600 126.9603920  75.4794670  67.4112830
 127.7744080  76.1788410  66.3435120 128.8604390  74.3572900  64.4702090
 128.3300850  73.8663850  63.8425430 129.5292460  74.7857100  63.9360020
 137.7582450  78.8242360  64.2343280 138.1723470  78.9787440  65.0833700
 136.8233450  78.9497580  64.3969060 138.2304620  76.1638520  66.2382430
 138.8125390  75.4090840  66.1502910 138.4066390  76.6945960  65.4613910
 129.3476690  71.3235270  64.5499380 129.2533560  70.7056020  63.8250250
 128.7674080  72.0501560  64.3229290 132.1138130  69.8808510  61.5826770
 131.6655430  69.9032770  60.7372320 131.4803330  69.4827530  62.1797070
 132.5197680  78.7762840  62.2039210 132.9385790  79.6195570  62.0315450
 131.6006310  78.9134880  61.9745990 134.8561580  76.5079020  63.5877050
 134.9757790  75.9120160  64.3271890 135.7155580  76.5448710  63.1678350
 137.1949480  77.0616210  62.1639560 136.6684700  77.5858830  61.5604700
 137.5380820  77.6943600  62.7949290 130.3705100  85.0815850  63.3196940
 129.8326190  85.8061910  63.0005640 130.6239060  84.6046190  62.5294280
 131.6230350  73.0500370  64.8452870 132.2130040  72.7416220  65.5330690
 130.8050590  72.5780120  65.0012770 136.4423780  72.6666180  65.0785890
 135.7539300  72.0047720  65.0135880 137.1629800  72.2204450  65.5234350
 137.0724180  69.2617810  51.1376150 137.3526470  68.4185710  51.4935570
 136.2989910  69.4940920  51.6514900 128.3918670  71.5510200  48.5967150
 128.6944570  71.5577630  47.6886300 129.1313260  71.2008060  49.0934810
 133.2267310  86.3167060  63.5783590 133.1526010  87.2202200  63.8855960
 132.3246150  85.9978960  63.5505660 131.6103600  70.4944820  49.5823350
 131.2625600  69.8168810  49.0025800 131.8116370  70.0334330  50.3966740
 133.7752640  85.4825570  51.2009950 134.6703430  85.8210540  51.2228710
 133.8070270  84.7604980  50.5734230 129.2256520  81.9750660  54.5419180
 128.9252060  81.8515630  55.4423090 129.1194010  81.1159250  54.1334910
 140.7546990  84.0129240  63.9076150 140.1548980  84.0721800  63.1640070
 140.8840890  83.0734220  64.0373000 141.9948440  81.7547060  49.2445860
 141.1641400  81.8223710  49.7153090 142.1720270  82.6451180  48.9412720
 141.4504900  78.4994540  51.7480060 142.2123810  79.0691190  51.8539750
 141.4659270  77.9321740  52.5188370 142.4564870  79.3544640  56.5921990
 142.8273700  78.5711960  56.1857960 143.0966800  80.0433740  56.4139290
 139.4398630  80.7381220  62.0052310 138.6258470  81.1678380  62.2678100
 139.8472830  81.3499630  61.3921360 141.5024070  78.7928910  48.9052580
 141.7772910  79.7007790  48.7771800 141.3134810  78.7291440  49.8414570
 137.8999680  71.8173760  50.2006210 138.3184560  71.6304740  49.3602870
 137.5935740  70.9652810  50.5109140 141.3989410  76.7297900  53.8982010
 141.0233010  75.9625830  53.4663300 140.6692530  77.1120600  54.3856940
 125.9885170  77.4085040  60.5191060 126.3558210  77.3212440  61.3987080
 125.4195990  76.6451590  60.4197920 140.7889030  75.8769420  63.5321530
 140.5575120  75.6482170  62.6319480 141.0493580  76.7968970  63.4866420
 125.5401170  74.3194130  64.4249480 124.6457220  74.2860890  64.7643190
 126.0798720  74.5180920  65.1900730 139.2277100  71.1025850  66.3101230
 140.1047280  71.1109250  66.6935230 139.2397940  70.3656690  65.6993580
 124.1647320  74.2331400  51.9213050 123.2611400  74.4961600  51.7464710
 124.6487940  74.5042570  51.1413010 140.6740370  74.9555390  57.1989250
 141.1977850  74.4618040  56.5679420 141.2599790  75.0905750  57.9436820
 140.8530090  75.0395260  60.7208800 139.9032800  75.0058800  60.8353790
 141.0343100  75.9495370  60.4858570 126.7074530  73.2896940  49.8307430
 127.4166230  72.8680160  49.3454710 125.9914470  73.3572170  49.1990780
 140.1640340  74.2128740  53.1381660 140.6599460  73.9799610  53.9230540
 139.9656410  73.3740580  52.7219300 126.0440880  68.5942460  58.7732700
 126.6917070  68.0439840  58.3327860 126.4642720  68.8485610  59.5948510
 141.5927500  72.8489690  55.6719340 141.4826780  72.6945730  56.6101610
 142.3535090  72.3210630  55.4294750 139.9393220  68.7883820  62.1302340
 140.5765440  69.4017960  62.4961530 140.0868110  68.8244480  61.1851570
 142.4817770  70.6797610  48.9125480 143.4067080  70.5478790  48.7043770
 142.4593560  70.7590430  49.8661930 142.5556260  71.4508270  51.5382190
 141.7607760  71.3853390  52.0675100 142.7599540  72.3858910  51.5267540
 139.4974680  85.4899820  55.5320580 140.0933750  85.1684390  54.8555000
 139.7552830  85.0171640  56.3233850 125.7972880  68.7498130  61.5158020
 125.4487700  69.2061950  62.2816200 125.4660580  67.8555260  61.5980450
 127.4037250  81.9217730  65.6811210 127.3606880  81.5510640  66.5625670
 127.5348260  82.8595300  65.8213030 131.1043280  83.4777320  61.2820930
 130.8634640  83.7451880  60.3951450 132.0445920  83.6483050  61.3371790
 133.3097700  69.9410010  65.0377440 133.2486590  70.5331840  65.7872850
 134.2498080  69.8335970  64.8927700 135.9472260  69.5980070  64.6769730
 136.5612670  69.9159360  64.0150810 136.4921820  69.1128660  65.2965590
 142.3647440  85.4971700  62.0831570 141.8705720  85.8940570  61.3658700
 141.7560730  84.8720910  62.4768850 126.4693520  68.2774330  64.7908790
 127.0176510  68.0962380  64.0274900 126.5348830  67.4868440  65.3265100
 137.5952280  70.3683080  62.3880740 137.2665640  69.5534840  62.0082470
 138.5434580  70.3252890  62.2646430 140.0486890  86.1395120  59.3618310
 139.5889860  86.8910930  58.9876330 139.4199350  85.4201590  59.3033110
 126.8737510  82.2338360  61.7517030 126.1471570  81.6143650  61.6842980
 126.9346660  82.6278970  60.8815110 130.4782610  84.4483360  58.5366440
 130.9947630  83.8370720  58.0114700 131.1279990  84.9512140  59.0277450
 133.2178110  85.3391850  59.3635420 133.5055920  85.0846150  58.4868430
 133.7301330  84.7869210  59.9540990 140.8514760  69.4120390  55.9989840
 140.7903160  68.4681610  55.8520860 141.6306790  69.5200480  56.5443300
 139.9668920  68.5632810  51.9671310 140.1619550  69.4616260  52.2338740
 139.1798790  68.3319890  52.4604260 126.7630210  84.2445980  52.4063930
 126.2377830  84.6254010  51.7025890 126.6874790  84.8696750  53.1273640
 128.1520680  69.9093580  51.0047620 128.6813440  69.1223380  50.8755570
 128.7849000  70.5884770  51.2383150 130.3458520  69.6468720  54.0593010
 129.7161260  68.9456030  54.2263140 129.8063660  70.4072850  53.8426170
 141.5195530  85.8033520  53.7277870 141.6947720  85.1171260  53.0838790
 140.8217100  86.3280570  53.3354540 130.4714080  68.9252700  66.4945500
 130.1898350  69.4286300  65.7306320 130.8533780  68.1274450  66.1287630
 129.3623180  86.1928360  51.2813180 130.0942000  85.9087640  50.7337070
 129.6216850  85.9541640  52.1712560 137.0729540  68.3406280  67.0725970
 136.9594990  68.6600890  67.9677490 137.8899280  68.7418790  66.7763250
 139.8528030  85.4877810  66.5544660 140.6453350  84.9927040  66.3470620
 140.1461180  86.1667950  67.1620270 135.9787690  76.3598750  37.4360710
 135.8981740  75.4453360  37.1652420 135.5652110  76.8565820  36.7300420
 134.1105730  78.1377770  39.3169980 133.3347830  77.6578210  39.6068550
 134.7618660  77.4583420  39.1426140 128.1271560  78.4497580  40.1945740
 127.2956440  78.1946290  40.5942250 128.7352540  78.5208350  40.9303660
 138.1313160  82.5437960  38.0969110 137.6694690  81.7725200  38.4256280
 138.9438710  82.5704030  38.6021560 128.1072820  82.4837670  40.3903760
 128.4100860  81.5935410  40.2113980 128.8516410  83.0407890  40.1626010
 126.5363510  73.4099470  33.9788130 125.6480210  73.7515440  33.8768010
 126.8204700  73.2099790  33.0868960 124.4996520  76.0105120  39.8627830
 125.0712630  75.2427320  39.8631470 124.4998060  76.3093880  38.9534440
 134.3576470  84.8295970  37.7173100 133.7387910  85.2853470  37.1467540
 135.2128250  84.9847430  37.3162800 133.5514720  80.8134960  39.3240140
 133.4823000  79.8724900  39.1629270 134.3134580  80.9036370  39.8962710
 125.7421390  71.4189480  41.6496760 125.5624230  70.5215230  41.9299520
 125.3401470  71.9661350  42.3243710 134.5819890  73.6205340  39.5509070
 134.9584710  72.7477220  39.4382740 134.4839400  73.9564040  38.6599510
 128.7124900  71.9930970  35.0126510 128.8191650  72.8934700  35.3195270
 127.8017260  71.9448940  34.7221160 138.3644010  71.1155780  36.4837410
 139.1853630  70.6252350  36.5262890 138.3978090  71.7053440  37.2369250
 126.3608060  73.9149980  40.2579100 127.0418170  74.1788350  40.8766500
 126.0456110  73.0750850  40.5917110 130.5532630  74.9617340  39.3451690
 131.0610850  75.4598310  39.9856710 131.0845870  74.1852540  39.1691050
 142.6543560  73.1322530  43.0481040 141.9495730  73.5204240  42.5296150
 142.9201480  73.8272820  43.6501970 128.8368730  69.6015900  43.6115110
 128.8387170  70.1188290  42.8061010 128.0073040  69.1246080  43.5885040
 135.2239820  79.7135210  35.1105010 134.6057090  80.1784660  34.5467730
 135.7363070  80.4062690  35.5274520 130.0871580  79.2411080  41.7888610
 129.7540960  79.8680000  42.4309680 130.2638260  79.7672960  41.0090280
 138.6005490  73.0556160  39.2564950 137.8961060  73.3441050  39.8368060
 138.9617650  73.8656270  38.8964510 128.5184060  71.3125860  41.6185560
 128.8600870  72.1567910  41.3239430 127.5799870  71.4609600  41.7350900
 124.5923020  80.3991740  32.4844640 124.2151000  80.8878840  31.7529540
 124.8496090  81.0717020  33.1151170 140.2168270  82.6731290  41.5192430
 139.5331790  83.3430400  41.5109100 140.7562560  82.8711940  40.7537290
 141.6692410  72.5010950  39.6474160 140.7217320  72.5349930  39.7789590
 141.9942400  73.3149900  40.0323520 132.2011950  68.8008130  37.9430150
 132.5086930  68.2455020  37.2265650 131.2712650  68.9352590  37.7603140
 137.7527010  84.5175420  40.2337610 137.7654170  84.1137710  39.3659870
 137.2002230  85.2922710  40.1299040 139.0472430  81.2391640  35.3227780
 138.9368760  80.2965970  35.4477200 139.0440680  81.6007280  36.2090540
 137.1512450  79.4205260  41.5620220 137.5681240  79.2065370  40.7273680
 137.8752270  79.6778050  42.1328840 134.5892710  76.8656960  34.6790270
 133.6621990  76.7994340  34.9078740 134.7417530  77.8037090  34.5645510
 134.5761790  73.1373960  31.6757430 133.6365460  73.2987920  31.7609890
 134.8945050  73.8559640  31.1293420 141.0974550  77.8192480  41.6536460
 140.2693180  77.8885570  41.1786590 141.6925030  78.4046790  41.1852290
 138.6190000  78.4277260  35.1825520 138.0002420  78.0896810  34.5351820
 138.6014450  77.7837020  35.8904710 138.0616560  74.6061800  42.5991330
 137.6487740  75.4315510  42.8531320 137.3292510  74.0206840  42.4067690
 130.1949350  77.3921700  37.4610000 129.7906350  76.6798950  36.9655900
 130.2812470  77.0474940  38.3498040 130.6631050  81.0789260  39.6249210
 130.3659340  80.4734730  38.9456990 131.6130870  81.1166570  39.5138570
 128.9077970  74.1664910  41.2409040 129.4592560  74.2760250  40.4662290
 129.4221480  74.5402510  41.9564270 138.7516660  84.6521130  43.2872310
 138.2747220  85.4593320  43.0944920 138.0678450  83.9999460  43.4398520
 136.7954700  77.6664070  32.1898270 137.2347980  76.8286500  32.0436090
 137.5083120  78.2993470  32.2762410 128.5820700  77.6884270  44.8514380
 128.4428470  78.5607070  45.2201780 127.7002060  77.3457080  44.7062320
 134.9050080  82.6060140  36.1579510 135.3445990  83.3484470  35.7434900
 134.8436970  82.8486710  37.0818470 140.3771840  68.9206880  30.5039310
 140.0644500  69.0133710  31.4038380 141.1384310  69.4987910  30.4536740
 126.8953980  76.2866680  34.9616650 126.7751580  77.0128770  34.3497920
 126.5854870  75.5169590  34.4844560 142.3315870  84.4133070  48.3563700
 142.8075590  84.8915960  49.0352780 142.9523030  84.3450560  47.6309200
 124.5339350  79.4581820  40.7685290 124.6119770  79.5930590  39.8241010
 125.1481030  78.7497710  40.9613410 125.7786980  81.1582010  37.1791470
 125.3715060  81.2996600  36.3245070 126.6699990  80.8742170  36.9762680
 141.7349120  81.6045920  45.5163710 141.8612180  81.3657800  44.5980890
 141.7770500  80.7730460  45.9885790 135.5965860  85.3073920  44.0858520
 136.1110530  85.2181930  44.8880950 134.7534940  85.6533620  44.3786430
 137.5720260  85.5929260  33.5142520 137.4121400  85.3032200  34.4124350
 137.4066970  84.8169390  32.9787750 130.0508640  85.3727790  35.2914140
 129.8751120  84.4563330  35.0781940 129.1964380  85.7315080  35.5311940
 137.2746390  83.1016820  32.0740520 136.5811550  83.0994110  31.4142800
 138.0169250  82.6776140  31.6434690 136.8396320  84.7279530  36.1489010
 137.2953270  83.9468910  36.4627630 137.1788840  85.4386350  36.6930190
 141.5873130  73.6578380  46.4813450 140.9717400  74.1658050  45.9528910
 141.2669550  72.7576710  46.4239390 129.3617640  69.6301750  38.3440320
 128.9185790  70.4111290  38.0124840 129.9202630  69.9531640  39.0511260
 133.6487450  72.4970270  43.9475640 133.1866820  72.7053290  44.7595580
 133.2465560  71.6829620  43.6446310 138.6491960  73.7179220  45.0772300
 137.7985550  73.4184970  45.3981370 138.4893750  73.9621230  44.1656120
 135.7441670  75.2180970  47.1771090 136.0695080  74.3844720  46.8373320
 136.5322000  75.7409490  47.3249420 132.4776460  69.2512450  33.2246150
 131.8530640  69.2472320  33.9499460 132.3906580  68.3843410  32.8282120
 131.3993540  70.1749080  40.2029920 131.6965870  71.0811910  40.1221940
 131.9479100  69.6867860  39.5889490 129.1531860  74.7535320  36.0721570
 128.9272780  74.5372490  36.9768190 128.3724390  75.1863780  35.7267540
 136.3829620  74.7598690  34.6712220 135.7838510  75.4834490  34.4875840
 136.9309230  74.6975470  33.8888670 131.5931070  75.6520900  46.7381840
 131.4974670  74.7115630  46.5882240 132.4363050  75.8735970  46.3429910
 134.9894490  73.3962230  36.7015500 135.3824060  73.7134430  35.8884190
 135.3511340  72.5174110  36.8160020 126.7241610  72.0634570  44.8915620
 126.3305000  72.9109780  45.0988400 126.0360010  71.4260940  45.0824260
 133.2986660  72.1469540  47.9612360 132.6084980  71.9541740  48.5958450
 134.0418960  72.4304180  48.4936660 124.2128890  73.9283150  30.1348420
 124.1303560  74.8713910  30.2763410 123.8611950  73.7858060  29.2560770
 135.5749630  75.9867980  40.7966280 134.8430750  76.4954790  41.1456380
 135.1773970  75.1697960  40.4955060 132.0127020  72.6622180  39.2018770
 132.0163080  72.2212130  38.3523310 132.9078140  72.9839510  39.3090590
 127.8629400  72.5448670  38.1612980 127.5229450  73.0223900  38.9180030
 127.1006720  72.0913790  37.8014080 132.0747170  73.6634260  32.1925530
 132.1959990  73.6220740  33.1411350 131.6895680  74.5258410  32.0372260
 136.0375540  71.4401660  40.2089220 136.0548280  71.8910310  41.0531070
 135.7891120  70.5407300  40.4222660 131.0868670  75.9735400  31.5908830
 130.5185570  75.5253650  30.9644740 131.7957670  76.3328180  31.0573980
 139.4646290  68.8533840  46.0475600 139.7892060  68.1223500  46.5733580
 139.5002800  68.5347480  45.1456590 132.3134990  76.7223960  40.9484180
 132.6805120  76.2482530  41.6945520 132.1240050  77.5965530  41.2892520
 125.1775480  71.4667650  37.0777650 124.8922400  71.1023320  37.9156270
 125.1154340  70.7348110  36.4640790 130.1034360  75.7632600  43.2668390
 129.7991430  76.6424580  43.4918750 131.0580820  75.8232390  43.3025830
 128.6316150  79.9693590  33.8635240 127.8578410  79.4291210  33.7033960
 129.3610780  79.4500200  33.5253000 139.3904130  78.9658950  39.6561630
 140.1103250  79.4614240  39.2657740 139.1885950  78.2876840  39.0115500
 134.8514070  70.3596910  33.7991020 134.0378680  69.8610080  33.7236330
 134.6576020  71.1995160  33.3827370 134.7722930  79.0368010  45.5430630
 134.7060240  78.1163680  45.2888220 134.1428070  79.1343450  46.2575270
 137.5662460  74.7316560  32.0953180 138.4542080  75.0433790  31.9204520
 137.5367550  73.8588810  31.7033760 128.6753550  79.6373970  37.5014050
 129.1932220  78.8342230  37.4470940 128.2237570  79.5753110  38.3430880
 133.5623050  80.9040250  32.7741350 133.9038750  81.6482480  32.2784670
 132.7335760  81.2171370  33.1366180 126.1598090  76.6035340  44.4139750
 125.8013030  77.2689190  45.0013090 125.8652650  75.7718890  44.7852370
 134.7039660  81.8588580  45.2934430 134.7184200  80.9269540  45.0753340
 133.9964760  81.9448340  45.9324200 139.8376730  76.0428400  31.5633040
 139.7540450  76.4742620  30.7129480 140.5570920  76.5026750  31.9959860
 140.9150870  78.4995920  44.6403010 140.1899060  79.0924700  44.4432400
 141.4426330  78.4919460  43.8416380 140.8663980  82.8970660  34.2915170
 140.2240140  82.2426280  34.5658890 140.4794640  83.3025750  33.5155840
 136.4450460  80.2256090  38.1386860 136.7974280  79.6284220  37.4788230
 135.5612790  79.9000320  38.3095110 132.5313740  80.9853780  35.5457270
 133.2184870  81.5322990  35.9264860 131.7446160  81.5294510  35.5806880
 124.6706140  76.6026600  31.0374350 125.5400990  76.8851400  31.3210270
 124.1796460  77.4162470  30.9223160 131.8340950  77.9899810  35.1582630
 132.2903730  78.8005060  35.3842820 131.4829160  77.6722950  35.9901120
 134.1373560  83.5006150  42.3874930 134.7815780  83.7065530  43.0648350
 134.5003000  82.7394550  41.9345780 135.4105640  81.5038500  41.1052380
 136.0527870  80.8031660  41.2184550 135.9354990  82.2836940  40.9249270
 139.2561360  81.7887120  30.8291520 139.0298940  81.0717560  31.4216160
 138.8657560  81.5399560  29.9913270 137.1843260  82.3033400  44.3088440
 137.5199500  82.8900090  44.9866360 136.2643600  82.1726110  44.5386230
 125.0377390  85.8153980  31.6035980 125.3975030  86.4143320  30.9493250
 124.8969730  86.3613870  32.3771010 138.8377610  79.7059060  32.4905680
 138.5499310  80.1671750  33.2783560 139.6329780  79.2456830  32.7589900
 133.0131840  82.3524730  47.4776500 132.6928710  81.6333970  48.0222190
 132.3390200  83.0279800  47.5512560 131.0546010  83.1985180  32.4209650
 131.0456110  83.9314870  31.8054160 130.1344370  82.9516760  32.5136610
 126.6552650  78.4200070  33.1656410 126.0480600  79.1598970  33.1751710
 127.1302000  78.5099430  32.3394610 136.2285440  72.5850890  42.8413300
 136.5966260  71.7646100  43.1692870 135.3683640  72.6452780  43.2568950
 139.5947470  71.5407830  33.6500860 138.9660630  71.6453500  32.9359090
 139.0999390  71.7604610  34.4394740 134.0405610  83.2613420  31.0834840
 134.1417590  83.0577410  30.1536820 133.1407350  83.0071700  31.2882620
 131.5631500  73.8193780  35.0658740 130.8547650  74.2880120  35.5072350
 131.8475980  73.1615790  35.7003930 133.1887430  75.2390480  43.0651270
 133.6872680  75.7136300  43.7303120 133.3310380  74.3154000  43.2721300
 135.5946930  70.5444440  36.5054530 135.4714710  70.5630570  35.5564040
 136.5431490  70.5923380  36.6252930 132.6823720  85.7799740  35.7782510
 132.9365220  85.7421130  34.8561880 131.7336200  85.6533070  35.7710760
 129.7666520  72.1278860  32.4409450 130.6157050  72.5649010  32.3749640
 129.3997790  72.4399120  33.2681510 140.3954290  71.4558440  43.9079660
 139.8927890  72.1963840  44.2473470 141.2110950  71.8442440  43.5916450
 138.6876300  76.6991620  37.3541020 137.7466440  76.7141850  37.5288710
 139.0020370  75.9127580  37.8001320 128.6657940  78.3811220  30.9144980
 129.4321210  78.2692580  31.4770410 128.7432630  77.6849190  30.2621750
 127.3604700  75.8136290  31.5977870 127.4408290  74.8663800  31.7095270
 128.2524450  76.1443170  31.7038530 140.6901880  83.8700470  39.0295280
 140.8149300  84.6931640  39.5019090 141.5567440  83.6591200  38.6819430
 128.1619410  85.9631680  38.7012410 128.8981890  85.4147140  38.9720980
 128.5460330  86.8287690  38.5618400 125.0464890  82.0305250  34.5753920
 124.1204670  82.2726390  34.5659330 125.5121320  82.8579510  34.4538670
 131.2721720  85.1361990  30.5237980 132.0650330  85.4250820  30.0719770
 130.7526070  84.7054160  29.8450460 136.0042320  81.2557620  47.8373400
 135.3980480  81.2789220  47.0969150 135.6996430  80.5240660  48.3740650
 137.4342690  84.9837910  46.4482810 138.3864440  84.8995930  46.3983050
 137.2870910  85.6479620  47.1216600 140.3251890  84.3632120  31.9474720
 140.0393400  83.9497260  31.1328900 140.1271440  85.2919830  31.8275240
 124.8875500  77.6351210  46.8334040 125.3914520  77.0558490  47.4050270
 124.1482920  77.9191440  47.3710410 131.7899120  80.3565400  30.3880330
 131.6849760  79.7417750  31.1141710 131.6223340  79.8331290  29.6043340
 131.9413440  79.0422200  46.3669560 131.1759110  79.6107200  46.2824230
 132.1229400  78.7498410  45.4737790 135.0301850  79.4185430  30.9922320
 134.4811950  79.8654730  31.6365060 135.6521110  78.9134680  31.5159990
 139.0836790  80.7727530  46.9244580 139.8246260  81.1103290  46.4212040
 138.3209470  80.9419590  46.3714350 126.9198580  75.7780800  47.7284110
 126.9603920  75.4794670  48.6369340 127.7744080  76.1788410  47.5691630
 130.6976970  78.3776350  32.8887620 131.1193390  78.2116220  33.7319010
 130.8227810  77.5676580  32.3942760 128.8604390  74.3572900  45.6958600
 128.3300850  73.8663850  45.0681940 129.5292460  74.7857100  45.1616530
 133.2104610  77.4013960  30.1364720 133.7310270  76.6862980  29.7705870
 133.8573010  78.0399830  30.4365230 137.7582450  78.8242360  45.4599790
 138.1723470  78.9787440  46.3090210 136.8233450  78.9497580  45.6225570
 138.2304620  76.1638520  47.4638940 138.8125390  75.4090840  47.3759420
 138.4066390  76.6945960  46.6870420 129.3476690  71.3235270  45.7755890
 129.2533560  70.7056020  45.0506760 128.7674080  72.0501560  45.5485800
 132.1138130  69.8808510  42.8083280 131.6655430  69.9032770  41.9628830
 131.4803330  69.4827530  43.4053580 132.5197680  78.7762840  43.4295720
 132.9385790  79.6195570  43.2571960 131.6006310  78.9134880  43.2002500
 134.8561580  76.5079020  44.8133560 134.9757790  75.9120160  45.5528400
 135.7155580  76.5448710  44.3934860 137.1949480  77.0616210  43.3896070
 136.6684700  77.5858830  42.7861210 137.5380820  77.6943600  44.0205800
 129.5935870  74.4509580  29.8345780 129.3924930  73.5876940  30.1959120
 129.4227920  74.3642940  28.8967380 130.3705100  85.0815850  44.5453450
 129.8326190  85.8061910  44.2262150 130.6239060  84.6046190  43.7550790
 131.6230350  73.0500370  46.0709380 132.2130040  72.7416220  46.7587200
 130.8050590  72.5780120  46.2269280 136.4423780  72.6666180  46.3042400
 135.7539300  72.0047720  46.2392390 137.1629800  72.2204450  46.7490860
 137.0724180  69.2617810  32.3632660 137.3526470  68.4185710  32.7192080
 136.2989910  69.4940920  32.8771410 128.3918670  71.5510200  29.8223660
 128.6944570  71.5577630  28.9142810 129.1313260  71.2008060  30.3191320
 133.2267310  86.3167060  44.8040100 133.1526010  87.2202200  45.1112470
 132.3246150  85.9978960  44.7762170 131.6103600  70.4944820  30.8079860
 131.2625600  69.8168810  30.2282310 131.8116370  70.0334330  31.6223250
 133.7752640  85.4825570  32.4266460 134.6703430  85.8210540  32.4485220
 133.8070270  84.7604980  31.7990740 127.4148800  80.8552620  30.6553460
 127.8523670  81.3982290  31.3111040 127.8996530  80.0299570  30.6649800
 124.6294600  83.6441650  38.1073720 124.9597610  82.7762710  37.8752360
 125.0585600  83.8500170  38.9378680 129.2256520  81.9750660  35.7675690
 128.9252060  81.8515630  36.6679600 129.1194010  81.1159250  35.3591420
 125.1184810  84.5112240  40.8455350 124.6815800  84.6913040  41.6779500
 125.6862490  85.2686860  40.7037070 140.7546990  84.0129240  45.1332660
 140.1548980  84.0721800  44.3896580 140.8840890  83.0734220  45.2629510
 141.9948440  81.7547060  30.4702370 141.1641400  81.8223710  30.9409600
 142.1720270  82.6451180  30.1669230 141.4504900  78.4994540  32.9736570
 142.2123810  79.0691190  33.0796260 141.4659270  77.9321740  33.7444880
 124.9509240  77.0232470  37.2044230 124.2958080  76.7544110  36.5603930
 125.7887190  76.9136950  36.7546210 142.4564870  79.3544640  37.8178500
 142.8273700  78.5711960  37.4114470 143.0966800  80.0433740  37.6395800
 139.4398630  80.7381220  43.2308820 138.6258470  81.1678380  43.4934610
 139.8472830  81.3499630  42.6177870 141.5024070  78.7928910  30.1309090
 141.7772910  79.7007790  30.0028310 141.3134810  78.7291440  31.0671080
 137.8999680  71.8173760  31.4262720 138.3184560  71.6304740  30.5859380
 137.5935740  70.9652810  31.7365650 141.3989410  76.7297900  35.1238520
 141.0233010  75.9625830  34.6919810 140.6692530  77.1120600  35.6113450
 125.9885170  77.4085040  41.7447570 126.3558210  77.3212440  42.6243590
 125.4195990  76.6451590  41.6454430 140.7889030  75.8769420  44.7578040
 140.5575120  75.6482170  43.8575990 141.0493580  76.7968970  44.7122930
 125.5401170  74.3194130  45.6505990 124.6457220  74.2860890  45.9899700
 126.0798720  74.5180920  46.4157240 139.2277100  71.1025850  47.5357740
 140.1047280  71.1109250  47.9191740 139.2397940  70.3656690  46.9250090
 124.1647320  74.2331400  33.1469560 123.2611400  74.4961600  32.9721220
 124.6487940  74.5042570  32.3669520 140.6740370  74.9555390  38.4245760
 141.1977850  74.4618040  37.7935930 141.2599790  75.0905750  39.1693330
 140.8530090  75.0395260  41.9465310 139.9032800  75.0058800  42.0610300
 141.0343100  75.9495370  41.7115080 126.7074530  73.2896940  31.0563940
 127.4166230  72.8680160  30.5711220 125.9914470  73.3572170  30.4247290
 126.3548690  69.3436270  30.0966590 127.0776820  69.8845210  30.4147810
 126.6273210  69.0699690  29.2208130 140.1640340  74.2128740  34.3638170
 140.6599460  73.9799610  35.1487050 139.9656410  73.3740580  33.9475810
 141.5927500  72.8489690  36.8975850 141.4826780  72.6945730  37.8358120
 142.3535090  72.3210630  36.6551260 139.9393220  68.7883820  43.3558850
 140.5765440  69.4017960  43.7218040 140.0868110  68.8244480  42.4108080
 142.4817770  70.6797610  30.1381990 143.4067080  70.5478790  29.9300280
 142.4593560  70.7590430  31.0918440 142.5556260  71.4508270  32.7638700
 141.7607760  71.3853390  33.2931610 142.7599540  72.3858910  32.7524050
 139.4974680  85.4899820  36.7577090 140.0933750  85.1684390  36.0811510
 139.7552830  85.0171640  37.5490360 131.1043280  83.4777320  42.5077440
 130.8634640  83.7451880  41.6207960 132.0445920  83.6483050  42.5628300
 133.3097700  69.9410010  46.2633950 133.2486590  70.5331840  47.0129360
 134.2498080  69.8335970  46.1184210 135.9472260  69.5980070  45.9026240
 136.5612670  69.9159360  45.2407320 136.4921820  69.1128660  46.5222100
 142.3647440  85.4971700  43.3088080 141.8705720  85.8940570  42.5915210
 141.7560730  84.8720910  43.7025360 127.2425280  84.8679980  44.0265500
 126.6485600  84.7364680  44.7655540 127.2349120  84.0318120  43.5607600
 136.6880300  68.1612210  42.2295530 135.8140140  68.4947320  42.0268460
 136.5791050  67.6885390  43.0547400 137.5952280  70.3683080  43.6137250
 137.2665640  69.5534840  43.2338980 138.5434580  70.3252890  43.4902940
 140.0486890  86.1395120  40.5874820 139.5889860  86.8910930  40.2132840
 139.4199350  85.4201590  40.5289620 130.4782610  84.4483360  39.7622950
 130.9947630  83.8370720  39.2371210 131.1279990  84.9512140  40.2533960
 133.2178110  85.3391850  40.5891930 133.5055920  85.0846150  39.7124940
 133.7301330  84.7869210  41.1797500 134.4355120  69.0782050  41.1688440
 133.6526910  69.5527550  41.4485200 134.1418050  68.1736880  41.0601620
 138.9876190  69.7805150  39.2137530 139.4284280  69.7250250  38.3659130
 138.7183780  70.6963160  39.2847710 140.8514760  69.4120390  37.2246350
 140.7903160  68.4681610  37.0777370 141.6306790  69.5200480  37.7699810
 125.1567510  85.5512750  36.1870300 124.9889550  84.9183430  36.8852190
 124.2902020  85.7572150  35.8364490 125.7795530  69.3829530  33.6902160
 126.5374890  69.4958410  33.1166190 125.3172700  70.2198730  33.6445590
 132.3209340  71.4968800  36.6804470 131.5083850  71.1225690  36.3400350
 132.8250980  70.7413880  36.9825660 136.8234320  68.1611250  37.9187540
 137.4263690  68.7331460  38.3936060 136.0827310  68.7250690  37.6961440
 139.9668920  68.5632810  33.1927820 140.1619550  69.4616260  33.4595250
 139.1798790  68.3319890  33.6860770 126.7630210  84.2445980  33.6320440
 126.2377830  84.6254010  32.9282400 126.6874790  84.8696750  34.3530150
 128.1520680  69.9093580  32.2304130 128.6813440  69.1223380  32.1012080
 128.7849000  70.5884770  32.4639660 130.3458520  69.6468720  35.2849520
 129.7161260  68.9456030  35.4519650 129.8063660  70.4072850  35.0682680
 133.2850470  86.2607950  47.9560130 134.2117780  86.0252220  47.9996090
 133.2700900  87.0879950  47.4746160 141.5195530  85.8033520  34.9534380
 141.6947720  85.1171260  34.3095300 140.8217100  86.3280570  34.5611050
 130.4714080  68.9252700  47.7202010 130.1898350  69.4286300  46.9562830
 130.8533780  68.1274450  47.3544140 129.3623180  86.1928360  32.5069690
 130.0942000  85.9087640  31.9593580 129.6216850  85.9541640  33.3969070
 128.5237970  82.3093090  32.5116020 127.8946850  82.7778190  33.0601850
 128.6385800  81.4642310  32.9462210 137.0729540  68.3406280  48.2982480
 136.9594990  68.6600890  49.1934000 137.8899280  68.7418790  48.0019760
 139.8528030  85.4877810  47.7801170 140.6453350  84.9927040  47.5727130
 140.1461180  86.1667950  48.3876780 135.9787690  76.3598750  18.6617220
 135.8981740  75.4453360  18.3908930 135.5652110  76.8565820  17.9556930
 134.1105730  78.1377770  20.5426490 133.3347830  77.6578210  20.8325060
 134.7618660  77.4583420  20.3682650 128.1271560  78.4497580  21.4202250
 127.2956440  78.1946290  21.8198760 128.7352540  78.5208350  22.1560170
 138.1313160  82.5437960  19.3225620 137.6694690  81.7725200  19.6512790
 138.9438710  82.5704030  19.8278070 128.1072820  82.4837670  21.6160270
 128.4100860  81.5935410  21.4370490 128.8516410  83.0407890  21.3882520
 126.5363510  73.4099470  15.2044640 125.6480210  73.7515440  15.1024520
 126.8204700  73.2099790  14.3125470 124.4996520  76.0105120  21.0884340
 125.0712630  75.2427320  21.0887980 124.4998060  76.3093880  20.1790950
 134.3576470  84.8295970  18.9429610 133.7387910  85.2853470  18.3724050
 135.2128250  84.9847430  18.5419310 133.5514720  80.8134960  20.5496650
 133.4823000  79.8724900  20.3885780 134.3134580  80.9036370  21.1219220
 125.7421390  71.4189480  22.8753270 125.5624230  70.5215230  23.1556030
 125.3401470  71.9661350  23.5500220 134.5819890  73.6205340  20.7765580
 134.9584710  72.7477220  20.6639250 134.4839400  73.9564040  19.8856020
 128.7124900  71.9930970  16.2383020 128.8191650  72.8934700  16.5451780
 127.8017260  71.9448940  15.9477670 138.3644010  71.1155780  17.7093920
 139.1853630  70.6252350  17.7519400 138.3978090  71.7053440  18.4625760
 126.3608060  73.9149980  21.4835610 127.0418170  74.1788350  22.1023010
 126.0456110  73.0750850  21.8173620 130.5532630  74.9617340  20.5708200
 131.0610850  75.4598310  21.2113220 131.0845870  74.1852540  20.3947560
 142.6543560  73.1322530  24.2737550 141.9495730  73.5204240  23.7552660
 142.9201480  73.8272820  24.8758480 128.8368730  69.6015900  24.8371620
 128.8387170  70.1188290  24.0317520 128.0073040  69.1246080  24.8141550
 135.2239820  79.7135210  16.3361520 134.6057090  80.1784660  15.7724240
 135.7363070  80.4062690  16.7531030 130.0871580  79.2411080  23.0145120
 129.7540960  79.8680000  23.6566190 130.2638260  79.7672960  22.2346790
 138.6005490  73.0556160  20.4821460 137.8961060  73.3441050  21.0624570
 138.9617650  73.8656270  20.1221020 128.5184060  71.3125860  22.8442070
 128.8600870  72.1567910  22.5495940 127.5799870  71.4609600  22.9607410
 129.2990680  81.2091880  24.8294300 129.9164680  81.8842960  24.5478750
 128.4383800  81.6179860  24.7381800 124.5923020  80.3991740  13.7101150
 124.2151000  80.8878840  12.9786050 124.8496090  81.0717020  14.3407680
 140.2168270  82.6731290  22.7448940 139.5331790  83.3430400  22.7365610
 140.7562560  82.8711940  21.9793800 141.6692410  72.5010950  20.8730670
 140.7217320  72.5349930  21.0046100 141.9942400  73.3149900  21.2580030
 132.2011950  68.8008130  19.1686660 132.5086930  68.2455020  18.4522160
 131.2712650  68.9352590  18.9859650 137.7527010  84.5175420  21.4594120
 137.7654170  84.1137710  20.5916380 137.2002230  85.2922710  21.3555550
 139.0472430  81.2391640  16.5484290 138.9368760  80.2965970  16.6733710
 139.0440680  81.6007280  17.4347050 137.1512450  79.4205260  22.7876730
 137.5681240  79.2065370  21.9530190 137.8752270  79.6778050  23.3585350
 134.5892710  76.8656960  15.9046780 133.6621990  76.7994340  16.1335250
 134.7417530  77.8037090  15.7902020 134.5761790  73.1373960  12.9013940
 133.6365460  73.2987920  12.9866400 134.8945050  73.8559640  12.3549930
 141.0974550  77.8192480  22.8792970 140.2693180  77.8885570  22.4043100
 141.6925030  78.4046790  22.4108800 138.6190000  78.4277260  16.4082030
 138.0002420  78.0896810  15.7608330 138.6014450  77.7837020  17.1161220
 138.0616560  74.6061800  23.8247840 137.6487740  75.4315510  24.0787830
 137.3292510  74.0206840  23.6324200 130.1949350  77.3921700  18.6866510
 129.7906350  76.6798950  18.1912410 130.2812470  77.0474940  19.5754550
 130.6631050  81.0789260  20.8505720 130.3659340  80.4734730  20.1713500
 131.6130870  81.1166570  20.7395080 128.9077970  74.1664910  22.4665550
 129.4592560  74.2760250  21.6918800 129.4221480  74.5402510  23.1820780
 138.7516660  84.6521130  24.5128820 138.2747220  85.4593320  24.3201430
 138.0678450  83.9999460  24.6655030 129.7549480  80.8170950  27.5013520
 128.8578010  81.0410920  27.7486920 129.7802350  80.9405890  26.5524920
 136.7954700  77.6664070  13.4154780 137.2347980  76.8286500  13.2692600
 137.5083120  78.2993470  13.5018920 128.5820700  77.6884270  26.0770890
 128.4428470  78.5607070  26.4458290 127.7002060  77.3457080  25.9318830
 134.9050080  82.6060140  17.3836020 135.3445990  83.3484470  16.9691410
 134.8436970  82.8486710  18.3074980 130.3801050  83.6305970  28.2856040
 130.3516480  84.0348920  27.4184470 130.2166020  82.7016330  28.1227640
 140.3771840  68.9206880  11.7295820 140.0644500  69.0133710  12.6294890
 141.1384310  69.4987910  11.6793250 126.8953980  76.2866680  16.1873160
 126.7751580  77.0128770  15.5754430 126.5854870  75.5169590  15.7101070
 142.3315870  84.4133070  29.5820210 142.8075590  84.8915960  30.2609290
 142.9523030  84.3450560  28.8565710 124.5339350  79.4581820  21.9941800
 124.6119770  79.5930590  21.0497520 125.1481030  78.7497710  22.1869920
 125.7786980  81.1582010  18.4047980 125.3715060  81.2996600  17.5501580
 126.6699990  80.8742170  18.2019190 141.7349120  81.6045920  26.7420220
 141.8612180  81.3657800  25.8237400 141.7770500  80.7730460  27.2142300
 135.5965860  85.3073920  25.3115030 136.1110530  85.2181930  26.1137460
 134.7534940  85.6533620  25.6042940 137.5720260  85.5929260  14.7399030
 137.4121400  85.3032200  15.6380860 137.4066970  84.8169390  14.2044260
 130.0508640  85.3727790  16.5170650 129.8751120  84.4563330  16.3038450
 129.1964380  85.7315080  16.7568450 137.2746390  83.1016820  13.2997030
 136.5811550  83.0994110  12.6399310 138.0169250  82.6776140  12.8691200
 136.8396320  84.7279530  17.3745520 137.2953270  83.9468910  17.6884140
 137.1788840  85.4386350  17.9186700 141.5873130  73.6578380  27.7069960
 140.9717400  74.1658050  27.1785420 141.2669550  72.7576710  27.6495900
 124.5898870  80.4995990  24.5336260 124.7529910  80.0301350  23.7155630
 125.0551320  79.9919550  25.1985100 129.3617640  69.6301750  19.5696830
 128.9185790  70.4111290  19.2381350 129.9202630  69.9531640  20.2767770
 133.6487450  72.4970270  25.1732150 133.1866820  72.7053290  25.9852090
 133.2465560  71.6829620  24.8702820 138.6491960  73.7179220  26.3028810
 137.7985550  73.4184970  26.6237880 138.4893750  73.9621230  25.3912630
 135.7441670  75.2180970  28.4027600 136.0695080  74.3844720  28.0629830
 136.5322000  75.7409490  28.5505930 132.4776460  69.2512450  14.4502660
 131.8530640  69.2472320  15.1755970 132.3906580  68.3843410  14.0538630
 131.3993540  70.1749080  21.4286430 131.6965870  71.0811910  21.3478450
 131.9479100  69.6867860  20.8146000 129.1531860  74.7535320  17.2978080
 128.9272780  74.5372490  18.2024700 128.3724390  75.1863780  16.9524050
 136.3829620  74.7598690  15.8968730 135.7838510  75.4834490  15.7132350
 136.9309230  74.6975470  15.1145180 131.5931070  75.6520900  27.9638350
 131.4974670  74.7115630  27.8138750 132.4363050  75.8735970  27.5686420
 134.9894490  73.3962230  17.9272010 135.3824060  73.7134430  17.1140700
 135.3511340  72.5174110  18.0416530 126.7241610  72.0634570  26.1172130
 126.3305000  72.9109780  26.3244910 126.0360010  71.4260940  26.3080770
 133.2986660  72.1469540  29.1868870 132.6084980  71.9541740  29.8214960
 134.0418960  72.4304180  29.7193170 124.0258660  69.9863030  20.1502210
 123.7371710  70.5565890  20.8627190 124.7704420  69.5067480  20.5133440
 124.2128890  73.9283150  11.3604930 124.1303560  74.8713910  11.5019920
 123.8611950  73.7858060  10.4817280 135.5749630  75.9867980  22.0222790
 134.8430750  76.4954790  22.3712890 135.1773970  75.1697960  21.7211570
 132.0127020  72.6622180  20.4275280 132.0163080  72.2212130  19.5779820
 132.9078140  72.9839510  20.5347100 127.8629400  72.5448670  19.3869490
 127.5229450  73.0223900  20.1436540 127.1006720  72.0913790  19.0270590
 132.0747170  73.6634260  13.4182040 132.1959990  73.6220740  14.3667860
 131.6895680  74.5258410  13.2628770 136.0375540  71.4401660  21.4345730
 136.0548280  71.8910310  22.2787580 135.7891120  70.5407300  21.6479170
 131.0868670  75.9735400  12.8165340 130.5185570  75.5253650  12.1901250
 131.7957670  76.3328180  12.2830490 139.4646290  68.8533840  27.2732110
 139.7892060  68.1223500  27.7990090 139.5002800  68.5347480  26.3713100
 126.1637850  79.8747420  26.6932070 125.7792640  79.2341090  27.2915030
 126.4750040  80.5783540  27.2626800 132.3134990  76.7223960  22.1740690
 132.6805120  76.2482530  22.9202030 132.1240050  77.5965530  22.5149030
 125.1775480  71.4667650  18.3034160 124.8922400  71.1023320  19.1412780
 125.1154340  70.7348110  17.6897300 130.1034360  75.7632600  24.4924900
 129.7991430  76.6424580  24.7175260 131.0580820  75.8232390  24.5282340
 128.6316150  79.9693590  15.0891750 127.8578410  79.4291210  14.9290470
 129.3610780  79.4500200  14.7509510 139.3904130  78.9658950  20.8818140
 140.1103250  79.4614240  20.4914250 139.1885950  78.2876840  20.2372010
 134.8514070  70.3596910  15.0247530 134.0378680  69.8610080  14.9492840
 134.6576020  71.1995160  14.6083880 134.7722930  79.0368010  26.7687140
 134.7060240  78.1163680  26.5144730 134.1428070  79.1343450  27.4831780
 137.5662460  74.7316560  13.3209690 138.4542080  75.0433790  13.1461030
 137.5367550  73.8588810  12.9290270 128.6753550  79.6373970  18.7270560
 129.1932220  78.8342230  18.6727450 128.2237570  79.5753110  19.5687390
 133.5623050  80.9040250  13.9997860 133.9038750  81.6482480  13.5041180
 132.7335760  81.2171370  14.3622690 126.1598090  76.6035340  25.6396260
 125.8013030  77.2689190  26.2269600 125.8652650  75.7718890  26.0108880
 129.3611210  77.0619580  28.5235810 129.0611350  77.2076760  27.6263630
 130.1322450  76.5024870  28.4309200 134.7039660  81.8588580  26.5190940
 134.7184200  80.9269540  26.3009850 133.9964760  81.9448340  27.1580710
 139.8376730  76.0428400  12.7889550 139.7540450  76.4742620  11.9385990
 140.5570920  76.5026750  13.2216370 140.9150870  78.4995920  25.8659520
 140.1899060  79.0924700  25.6688910 141.4426330  78.4919460  25.0672890
 140.8663980  82.8970660  15.5171680 140.2240140  82.2426280  15.7915400
 140.4794640  83.3025750  14.7412350 136.4450460  80.2256090  19.3643370
 136.7974280  79.6284220  18.7044740 135.5612790  79.9000320  19.5351620
 132.5313740  80.9853780  16.7713780 133.2184870  81.5322990  17.1521370
 131.7446160  81.5294510  16.8063390 124.6706140  76.6026600  12.2630860
 125.5400990  76.8851400  12.5466780 124.1796460  77.4162470  12.1479670
 131.8340950  77.9899810  16.3839140 132.2903730  78.8005060  16.6099330
 131.4829160  77.6722950  17.2157630 134.1373560  83.5006150  23.6131440
 134.7815780  83.7065530  24.2904860 134.5003000  82.7394550  23.1602290
 127.7352730  68.3337460  16.8561660 127.6067360  68.3255360  17.8046580
 126.9114750  68.6720550  16.5052670 135.4105640  81.5038500  22.3308890
 136.0527870  80.8031660  22.4441060 135.9354990  82.2836940  22.1505780
 139.2561360  81.7887120  12.0548030 139.0298940  81.0717560  12.6472670
 138.8657560  81.5399560  11.2169780 137.1843260  82.3033400  25.5344950
 137.5199500  82.8900090  26.2122870 136.2643600  82.1726110  25.7642740
 125.0377390  85.8153980  12.8292490 125.3975030  86.4143320  12.1749760
 124.8969730  86.3613870  13.6027520 124.7346660  70.0928580  26.3168360
 124.0205180  70.2925500  26.9220970 125.1541700  69.3168150  26.6883160
 138.8377610  79.7059060  13.7162190 138.5499310  80.1671750  14.5040070
 139.6329780  79.2456830  13.9846410 125.0219250  84.0808840  27.3034890
 125.1310370  83.1403580  27.1630280 124.3699810  84.3463590  26.6548620
 133.0131840  82.3524730  28.7033010 132.6928710  81.6333970  29.2478700
 132.3390200  83.0279800  28.7769070 131.0546010  83.1985180  13.6466160
 131.0456110  83.9314870  13.0310670 130.1344370  82.9516760  13.7393120
 126.6552650  78.4200070  14.3912920 126.0480600  79.1598970  14.4008220
 127.1302000  78.5099430  13.5651120 136.2285440  72.5850890  24.0669810
 136.5966260  71.7646100  24.3949380 135.3683640  72.6452780  24.4825460
 139.5947470  71.5407830  14.8757370 138.9660630  71.6453500  14.1615600
 139.0999390  71.7604610  15.6651250 134.0405610  83.2613420  12.3091350
 134.1417590  83.0577410  11.3793330 133.1407350  83.0071700  12.5139130
 131.5631500  73.8193780  16.2915250 130.8547650  74.2880120  16.7328860
 131.8475980  73.1615790  16.9260440 133.1887430  75.2390480  24.2907780
 133.6872680  75.7136300  24.9559630 133.3310380  74.3154000  24.4977810
 135.5946930  70.5444440  17.7311040 135.4714710  70.5630570  16.7820550
 136.5431490  70.5923380  17.8509440 132.6823720  85.7799740  17.0039020
 132.9365220  85.7421130  16.0818390 131.7336200  85.6533070  16.9967270
 129.7666520  72.1278860  13.6665960 130.6157050  72.5649010  13.6006150
 129.3997790  72.4399120  14.4938020 140.3954290  71.4558440  25.1336170
 139.8927890  72.1963840  25.4729980 141.2110950  71.8442440  24.8172960
 138.6876300  76.6991620  18.5797530 137.7466440  76.7141850  18.7545220
 139.0020370  75.9127580  19.0257830 128.6657940  78.3811220  12.1401490
 129.4321210  78.2692580  12.7026920 128.7432630  77.6849190  11.4878260
 127.3604700  75.8136290  12.8234380 127.4408290  74.8663800  12.9351780
 128.2524450  76.1443170  12.9295040 140.6901880  83.8700470  20.2551790
 140.8149300  84.6931640  20.7275600 141.5567440  83.6591200  19.9075940
 128.1619410  85.9631680  19.9268920 128.8981890  85.4147140  20.1977490
 128.5460330  86.8287690  19.7874910 125.0464890  82.0305250  15.8010430
 124.1204670  82.2726390  15.7915840 125.5121320  82.8579510  15.6795180
 127.1677690  85.1477750  29.1154500 127.9690420  85.4689800  29.5289900
 126.6529510  84.7873330  29.8374410 131.2721720  85.1361990  11.7494490
 132.0650330  85.4250820  11.2976280 130.7526070  84.7054160  11.0706970
 136.0042320  81.2557620  29.0629910 135.3980480  81.2789220  28.3225660
 135.6996430  80.5240660  29.5997160 137.4342690  84.9837910  27.6739320
 138.3864440  84.8995930  27.6239560 137.2870910  85.6479620  28.3473110
 140.3251890  84.3632120  13.1731230 140.0393400  83.9497260  12.3585410
 140.1271440  85.2919830  13.0531750 124.8875500  77.6351210  28.0590550
 125.3914520  77.0558490  28.6306780 124.1482920  77.9191440  28.5966920
 131.7899120  80.3565400  11.6136840 131.6849760  79.7417750  12.3398220
 131.6223340  79.8331290  10.8299850 131.9413440  79.0422200  27.5926070
 131.1759110  79.6107200  27.5080740 132.1229400  78.7498410  26.6994300
 135.0301850  79.4185430  12.2178830 134.4811950  79.8654730  12.8621570
 135.6521110  78.9134680  12.7416500 139.0836790  80.7727530  28.1501090
 139.8246260  81.1103290  27.6468550 138.3209470  80.9419590  27.5970860
 126.9198580  75.7780800  28.9540620 126.9603920  75.4794670  29.8625850
 127.7744080  76.1788410  28.7948140 130.6976970  78.3776350  14.1144130
 131.1193390  78.2116220  14.9575520 130.8227810  77.5676580  13.6199270
 128.8604390  74.3572900  26.9215110 128.3300850  73.8663850  26.2938450
 129.5292460  74.7857100  26.3873040 133.2104610  77.4013960  11.3621230
 133.7310270  76.6862980  10.9962380 133.8573010  78.0399830  11.6621740
 137.7582450  78.8242360  26.6856300 138.1723470  78.9787440  27.5346720
 136.8233450  78.9497580  26.8482080 138.2304620  76.1638520  28.6895450
 138.8125390  75.4090840  28.6015930 138.4066390  76.6945960  27.9126930
 129.3476690  71.3235270  27.0012400 129.2533560  70.7056020  26.2763270
 128.7674080  72.0501560  26.7742310 132.1138130  69.8808510  24.0339790
 131.6655430  69.9032770  23.1885340 131.4803330  69.4827530  24.6310090
 132.5197680  78.7762840  24.6552230 132.9385790  79.6195570  24.4828470
 131.6006310  78.9134880  24.4259010 134.8561580  76.5079020  26.0390070
 134.9757790  75.9120160  26.7784910 135.7155580  76.5448710  25.6191370
 137.1949480  77.0616210  24.6152580 136.6684700  77.5858830  24.0117720
 137.5380820  77.6943600  25.2462310 129.5935870  74.4509580  11.0602290
 129.3924930  73.5876940  11.4215630 129.4227920  74.3642940  10.1223890
 130.3705100  85.0815850  25.7709960 129.8326190  85.8061910  25.4518660
 130.6239060  84.6046190  24.9807300 131.6230350  73.0500370  27.2965890
 132.2130040  72.7416220  27.9843710 130.8050590  72.5780120  27.4525790
 136.4423780  72.6666180  27.5298910 135.7539300  72.0047720  27.4648900
 137.1629800  72.2204450  27.9747370 137.0724180  69.2617810  13.5889170
 137.3526470  68.4185710  13.9448590 136.2989910  69.4940920  14.1027920
 128.3918670  71.5510200  11.0480170 128.6944570  71.5577630  10.1399320
 129.1313260  71.2008060  11.5447830 133.2267310  86.3167060  26.0296610
 133.1526010  87.2202200  26.3368980 132.3246150  85.9978960  26.0018680
 131.6103600  70.4944820  12.0336370 131.2625600  69.8168810  11.4538820
 131.8116370  70.0334330  12.8479760 133.7752640  85.4825570  13.6522970
 134.6703430  85.8210540  13.6741730 133.8070270  84.7604980  13.0247250
 127.4148800  80.8552620  11.8809970 127.8523670  81.3982290  12.5367550
 127.8996530  80.0299570  11.8906310 124.6294600  83.6441650  19.3330230
 124.9597610  82.7762710  19.1008870 125.0585600  83.8500170  20.1635190
 129.2256520  81.9750660  16.9932200 128.9252060  81.8515630  17.8936110
 129.1194010  81.1159250  16.5847930 125.1184810  84.5112240  22.0711860
 124.6815800  84.6913040  22.9036010 125.6862490  85.2686860  21.9293580
 140.7546990  84.0129240  26.3589170 140.1548980  84.0721800  25.6153090
 140.8840890  83.0734220  26.4886020 141.9948440  81.7547060  11.6958880
 141.1641400  81.8223710  12.1666110 142.1720270  82.6451180  11.3925740
 141.4504900  78.4994540  14.1993080 142.2123810  79.0691190  14.3052770
 141.4659270  77.9321740  14.9701390 124.9509240  77.0232470  18.4300740
 124.2958080  76.7544110  17.7860440 125.7887190  76.9136950  17.9802720
 142.4564870  79.3544640  19.0435010 142.8273700  78.5711960  18.6370980
 143.0966800  80.0433740  18.8652310 139.4398630  80.7381220  24.4565330
 138.6258470  81.1678380  24.7191120 139.8472830  81.3499630  23.8434380
 141.5024070  78.7928910  11.3565600 141.7772910  79.7007790  11.2284820
 141.3134810  78.7291440  12.2927590 137.8999680  71.8173760  12.6519230
 138.3184560  71.6304740  11.8115890 137.5935740  70.9652810  12.9622160
 141.3989410  76.7297900  16.3495030 141.0233010  75.9625830  15.9176320
 140.6692530  77.1120600  16.8369960 125.9885170  77.4085040  22.9704080
 126.3558210  77.3212440  23.8500100 125.4195990  76.6451590  22.8710940
 140.7889030  75.8769420  25.9834550 140.5575120  75.6482170  25.0832500
 141.0493580  76.7968970  25.9379440 125.5401170  74.3194130  26.8762500
 124.6457220  74.2860890  27.2156210 126.0798720  74.5180920  27.6413750
 139.2277100  71.1025850  28.7614250 140.1047280  71.1109250  29.1448250
 139.2397940  70.3656690  28.1506600 124.1647320  74.2331400  14.3726070
 123.2611400  74.4961600  14.1977730 124.6487940  74.5042570  13.5926030
 140.6740370  74.9555390  19.6502270 141.1977850  74.4618040  19.0192440
 141.2599790  75.0905750  20.3949840 140.8530090  75.0395260  23.1721820
 139.9032800  75.0058800  23.2866810 141.0343100  75.9495370  22.9371590
 126.7074530  73.2896940  12.2820450 127.4166230  72.8680160  11.7967730
 125.9914470  73.3572170  11.6503800 126.3548690  69.3436270  11.3223100
 127.0776820  69.8845210  11.6404320 126.6273210  69.0699690  10.4464640
 140.1640340  74.2128740  15.5894680 140.6599460  73.9799610  16.3743560
 139.9656410  73.3740580  15.1732320 126.0440880  68.5942460  21.2245720
 126.6917070  68.0439840  20.7840880 126.4642720  68.8485610  22.0461530
 141.5927500  72.8489690  18.1232360 141.4826780  72.6945730  19.0614630
 142.3535090  72.3210630  17.8807770 139.9393220  68.7883820  24.5815360
 140.5765440  69.4017960  24.9474550 140.0868110  68.8244480  23.6364590
 142.4817770  70.6797610  11.3638500 143.4067080  70.5478790  11.1556790
 142.4593560  70.7590430  12.3174950 142.5556260  71.4508270  13.9895210
 141.7607760  71.3853390  14.5188120 142.7599540  72.3858910  13.9780560
 139.4974680  85.4899820  17.9833600 140.0933750  85.1684390  17.3068020
 139.7552830  85.0171640  18.7746870 125.7972880  68.7498130  23.9671040
 125.4487700  69.2061950  24.7329220 125.4660580  67.8555260  24.0493470
 127.4037250  81.9217730  28.1324230 127.3606880  81.5510640  29.0138690
 127.5348260  82.8595300  28.2726050 131.1043280  83.4777320  23.7333950
 130.8634640  83.7451880  22.8464470 132.0445920  83.6483050  23.7884810
 133.3097700  69.9410010  27.4890460 133.2486590  70.5331840  28.2385870
 134.2498080  69.8335970  27.3440720 135.9472260  69.5980070  27.1282750
 136.5612670  69.9159360  26.4663830 136.4921820  69.1128660  27.7478610
 142.3647440  85.4971700  24.5344590 141.8705720  85.8940570  23.8171720
 141.7560730  84.8720910  24.9281870 126.4693520  68.2774330  27.2421810
 127.0176510  68.0962380  26.4787920 126.5348830  67.4868440  27.7778120
 127.2425280  84.8679980  25.2522010 126.6485600  84.7364680  25.9912050
 127.2349120  84.0318120  24.7864110 136.6880300  68.1612210  23.4552040
 135.8140140  68.4947320  23.2524970 136.5791050  67.6885390  24.2803910
 137.5952280  70.3683080  24.8393760 137.2665640  69.5534840  24.4595490
 138.5434580  70.3252890  24.7159450 140.0486890  86.1395120  21.8131330
 139.5889860  86.8910930  21.4389350 139.4199350  85.4201590  21.7546130
 126.8737510  82.2338360  24.2030050 126.1471570  81.6143650  24.1356000
 126.9346660  82.6278970  23.3328130 130.4782610  84.4483360  20.9879460
 130.9947630  83.8370720  20.4627720 131.1279990  84.9512140  21.4790470
 133.2178110  85.3391850  21.8148440 133.5055920  85.0846150  20.9381450
 133.7301330  84.7869210  22.4054010 134.4355120  69.0782050  22.3944950
 133.6526910  69.5527550  22.6741710 134.1418050  68.1736880  22.2858130
 138.9876190  69.7805150  20.4394040 139.4284280  69.7250250  19.5915640
 138.7183780  70.6963160  20.5104220 140.8514760  69.4120390  18.4502860
 140.7903160  68.4681610  18.3033880 141.6306790  69.5200480  18.9956320
 125.1567510  85.5512750  17.4126810 124.9889550  84.9183430  18.1108700
 124.2902020  85.7572150  17.0621000 125.7795530  69.3829530  14.9158670
 126.5374890  69.4958410  14.3422700 125.3172700  70.2198730  14.8702100
 132.3209340  71.4968800  17.9060980 131.5083850  71.1225690  17.5656860
 132.8250980  70.7413880  18.2082170 136.8234320  68.1611250  19.1444050
 137.4263690  68.7331460  19.6192570 136.0827310  68.7250690  18.9217950
 139.9668920  68.5632810  14.4184330 140.1619550  69.4616260  14.6851760
 139.1798790  68.3319890  14.9117280 126.7630210  84.2445980  14.8576950
 126.2377830  84.6254010  14.1538910 126.6874790  84.8696750  15.5786660
 128.1520680  69.9093580  13.4560640 128.6813440  69.1223380  13.3268590
 128.7849000  70.5884770  13.6896170 130.3458520  69.6468720  16.5106030
 129.7161260  68.9456030  16.6776160 129.8063660  70.4072850  16.2939190
 133.2850470  86.2607950  29.1816640 134.2117780  86.0252220  29.2252600
 133.2700900  87.0879950  28.7002670 141.5195530  85.8033520  16.1790890
 141.6947720  85.1171260  15.5351810 140.8217100  86.3280570  15.7867560
 130.4714080  68.9252700  28.9458520 130.1898350  69.4286300  28.1819340
 130.8533780  68.1274450  28.5800650 129.3623180  86.1928360  13.7326200
 130.0942000  85.9087640  13.1850090 129.6216850  85.9541640  14.6225580
 128.5237970  82.3093090  13.7372530 127.8946850  82.7778190  14.2858360
 128.6385800  81.4642310  14.1718720 137.0729540  68.3406280  29.5238990
 136.9594990  68.6600890  30.4190510 137.8899280  68.7418790  29.2276270
 139.8528030  85.4877810  29.0057680 140.6453350  84.9927040  28.7983640
 140.1461180  86.1667950  29.6133290 134.1105730  78.1377770   1.7683000
 133.3347830  77.6578210   2.0581570 134.7618660  77.4583420   1.5939160
 128.1271560  78.4497580   2.6458760 127.2956440  78.1946290   3.0455270
 128.7352540  78.5208350   3.3816680 128.1072820  82.4837670   2.8416780
 128.4100860  81.5935410   2.6627000 128.8516410  83.0407890   2.6139030
 133.5514720  80.8134960   1.7753160 133.4823000  79.8724900   1.6142290
 134.3134580  80.9036370   2.3475730 125.7421390  71.4189480   4.1009780
 125.5624230  70.5215230   4.3812540 125.3401470  71.9661350   4.7756730
 126.3608060  73.9149980   2.7092120 127.0418170  74.1788350   3.3279520
 126.0456110  73.0750850   3.0430130 130.5532630  74.9617340   1.7964710
 131.0610850  75.4598310   2.4369730 131.0845870  74.1852540   1.6204070
 142.6543560  73.1322530   5.4994060 141.9495730  73.5204240   4.9809170
 142.9201480  73.8272820   6.1014990 128.8368730  69.6015900   6.0628130
 128.8387170  70.1188290   5.2574030 128.0073040  69.1246080   6.0398060
 130.0871580  79.2411080   4.2401630 129.7540960  79.8680000   4.8822700
 130.2638260  79.7672960   3.4603300 128.5184060  71.3125860   4.0698580
 128.8600870  72.1567910   3.7752450 127.5799870  71.4609600   4.1863920
 129.2990680  81.2091880   6.0550810 129.9164680  81.8842960   5.7735260
 128.4383800  81.6179860   5.9638310 140.2168270  82.6731290   3.9705450
 139.5331790  83.3430400   3.9622120 140.7562560  82.8711940   3.2050310
 141.6692410  72.5010950   2.0987180 140.7217320  72.5349930   2.2302610
 141.9942400  73.3149900   2.4836540 137.7527010  84.5175420   2.6850630
 137.7654170  84.1137710   1.8172890 137.2002230  85.2922710   2.5812060
 137.1512450  79.4205260   4.0133240 137.5681240  79.2065370   3.1786700
 137.8752270  79.6778050   4.5841860 141.0974550  77.8192480   4.1049480
 140.2693180  77.8885570   3.6299610 141.6925030  78.4046790   3.6365310
 138.0616560  74.6061800   5.0504350 137.6487740  75.4315510   5.3044340
 137.3292510  74.0206840   4.8580710 128.9077970  74.1664910   3.6922060
 129.4592560  74.2760250   2.9175310 129.4221480  74.5402510   4.4077290
 138.7516660  84.6521130   5.7385330 138.2747220  85.4593320   5.5457940
 138.0678450  83.9999460   5.8911540 129.7549480  80.8170950   8.7270030
 128.8578010  81.0410920   8.9743430 129.7802350  80.9405890   7.7781430
 128.5820700  77.6884270   7.3027400 128.4428470  78.5607070   7.6714800
 127.7002060  77.3457080   7.1575340 130.3801050  83.6305970   9.5112550
 130.3516480  84.0348920   8.6440980 130.2166020  82.7016330   9.3484150
 142.3315870  84.4133070  10.8076720 142.8075590  84.8915960  11.4865800
 142.9523030  84.3450560  10.0822220 124.5339350  79.4581820   3.2198310
 124.6119770  79.5930590   2.2754030 125.1481030  78.7497710   3.4126430
 141.7349120  81.6045920   7.9676730 141.8612180  81.3657800   7.0493910
 141.7770500  80.7730460   8.4398810 135.5965860  85.3073920   6.5371540
 136.1110530  85.2181930   7.3393970 134.7534940  85.6533620   6.8299450
 141.5873130  73.6578380   8.9326470 140.9717400  74.1658050   8.4041930
 141.2669550  72.7576710   8.8752410 124.5898870  80.4995990   5.7592770
 124.7529910  80.0301350   4.9412140 125.0551320  79.9919550   6.4241610
 133.6487450  72.4970270   6.3988660 133.1866820  72.7053290   7.2108600
 133.2465560  71.6829620   6.0959330 138.6491960  73.7179220   7.5285320
 137.7985550  73.4184970   7.8494390 138.4893750  73.9621230   6.6169140
 135.7441670  75.2180970   9.6284110 136.0695080  74.3844720   9.2886340
 136.5322000  75.7409490   9.7762440 131.3993540  70.1749080   2.6542940
 131.6965870  71.0811910   2.5734960 131.9479100  69.6867860   2.0402510
 131.5931070  75.6520900   9.1894860 131.4974670  74.7115630   9.0395260
 132.4363050  75.8735970   8.7942930 126.7241610  72.0634570   7.3428640
 126.3305000  72.9109780   7.5501420 126.0360010  71.4260940   7.5337280
 133.2986660  72.1469540  10.4125380 132.6084980  71.9541740  11.0471470
 134.0418960  72.4304180  10.9449680 135.5749630  75.9867980   3.2479300
 134.8430750  76.4954790   3.5969400 135.1773970  75.1697960   2.9468080
 136.0375540  71.4401660   2.6602240 136.0548280  71.8910310   3.5044090
 135.7891120  70.5407300   2.8735680 139.4646290  68.8533840   8.4988620
 139.7892060  68.1223500   9.0246600 139.5002800  68.5347480   7.5969610
 126.1637850  79.8747420   7.9188580 125.7792640  79.2341090   8.5171540
 126.4750040  80.5783540   8.4883310 132.3134990  76.7223960   3.3997200
 132.6805120  76.2482530   4.1458540 132.1240050  77.5965530   3.7405540
 130.1034360  75.7632600   5.7181410 129.7991430  76.6424580   5.9431770
 131.0580820  75.8232390   5.7538850 139.3904130  78.9658950   2.1074650
 140.1103250  79.4614240   1.7170760 139.1885950  78.2876840   1.4628520
 134.7722930  79.0368010   7.9943650 134.7060240  78.1163680   7.7401240
 134.1428070  79.1343450   8.7088290 126.1598090  76.6035340   6.8652770
 125.8013030  77.2689190   7.4526110 125.8652650  75.7718890   7.2365390
 129.3611210  77.0619580   9.7492320 129.0611350  77.2076760   8.8520140
 130.1322450  76.5024870   9.6565710 134.7039660  81.8588580   7.7447450
 134.7184200  80.9269540   7.5266360 133.9964760  81.9448340   8.3837220
 140.9150870  78.4995920   7.0916030 140.1899060  79.0924700   6.8945420
 141.4426330  78.4919460   6.2929400 134.1373560  83.5006150   4.8387950
 134.7815780  83.7065530   5.5161370 134.5003000  82.7394550   4.3858800
 135.4105640  81.5038500   3.5565400 136.0527870  80.8031660   3.6697570
 135.9354990  82.2836940   3.3762290 137.1843260  82.3033400   6.7601460
 137.5199500  82.8900090   7.4379380 136.2643600  82.1726110   6.9899250
 124.7346660  70.0928580   7.5424870 124.0205180  70.2925500   8.1477480
 125.1541700  69.3168150   7.9139670 125.0219250  84.0808840   8.5291400
 125.1310370  83.1403580   8.3886790 124.3699810  84.3463590   7.8805130
 133.0131840  82.3524730   9.9289520 132.6928710  81.6333970  10.4735210
 132.3390200  83.0279800  10.0025580 136.2285440  72.5850890   5.2926320
 136.5966260  71.7646100   5.6205890 135.3683640  72.6452780   5.7081970
 133.1887430  75.2390480   5.5164290 133.6872680  75.7136300   6.1816140
 133.3310380  74.3154000   5.7234320 140.3954290  71.4558440   6.3592680
 139.8927890  72.1963840   6.6986490 141.2110950  71.8442440   6.0429470
 127.1677690  85.1477750  10.3411010 127.9690420  85.4689800  10.7546410
 126.6529510  84.7873330  11.0630920 136.0042320  81.2557620  10.2886420
 135.3980480  81.2789220   9.5482170 135.6996430  80.5240660  10.8253670
 137.4342690  84.9837910   8.8995830 138.3864440  84.8995930   8.8496070
 137.2870910  85.6479620   9.5729620 124.8875500  77.6351210   9.2847060
 125.3914520  77.0558490   9.8563290 124.1482920  77.9191440   9.8223430
 131.9413440  79.0422200   8.8182580 131.1759110  79.6107200   8.7337250
 132.1229400  78.7498410   7.9250810 139.0836790  80.7727530   9.3757600
 139.8246260  81.1103290   8.8725060 138.3209470  80.9419590   8.8227370
 126.9198580  75.7780800  10.1797130 126.9603920  75.4794670  11.0882360
 127.7744080  76.1788410  10.0204650 128.8604390  74.3572900   8.1471620
 128.3300850  73.8663850   7.5194960 129.5292460  74.7857100   7.6129550
 137.7582450  78.8242360   7.9112810 138.1723470  78.9787440   8.7603230
 136.8233450  78.9497580   8.0738590 138.2304620  76.1638520   9.9151960
 138.8125390  75.4090840   9.8272440 138.4066390  76.6945960   9.1383440
 129.3476690  71.3235270   8.2268910 129.2533560  70.7056020   7.5019780
 128.7674080  72.0501560   7.9998820 132.1138130  69.8808510   5.2596300
 131.6655430  69.9032770   4.4141850 131.4803330  69.4827530   5.8566600
 132.5197680  78.7762840   5.8808740 132.9385790  79.6195570   5.7084980
 131.6006310  78.9134880   5.6515520 134.8561580  76.5079020   7.2646580
 134.9757790  75.9120160   8.0041420 135.7155580  76.5448710   6.8447880
 137.1949480  77.0616210   5.8409090 136.6684700  77.5858830   5.2374230
 137.5380820  77.6943600   6.4718820 130.3705100  85.0815850   6.9966470
 129.8326190  85.8061910   6.6775170 130.6239060  84.6046190   6.2063810
 131.6230350  73.0500370   8.5222400 132.2130040  72.7416220   9.2100220
 130.8050590  72.5780120   8.6782300 136.4423780  72.6666180   8.7555420
 135.7539300  72.0047720   8.6905410 137.1629800  72.2204450   9.2003880
 133.2267310  86.3167060   7.2553120 133.1526010  87.2202200   7.5625490
 132.3246150  85.9978960   7.2275190 125.1184810  84.5112240   3.2968370
 124.6815800  84.6913040   4.1292520 125.6862490  85.2686860   3.1550090
 140.7546990  84.0129240   7.5845680 140.1548980  84.0721800   6.8409600
 140.8840890  83.0734220   7.7142530 139.4398630  80.7381220   5.6821840
 138.6258470  81.1678380   5.9447630 139.8472830  81.3499630   5.0690890
 125.9885170  77.4085040   4.1960590 126.3558210  77.3212440   5.0756610
 125.4195990  76.6451590   4.0967450 140.7889030  75.8769420   7.2091060
 140.5575120  75.6482170   6.3089010 141.0493580  76.7968970   7.1635950
 125.5401170  74.3194130   8.1019010 124.6457220  74.2860890   8.4412720
 126.0798720  74.5180920   8.8670260 139.2277100  71.1025850   9.9870760
 140.1047280  71.1109250  10.3704760 139.2397940  70.3656690   9.3763110
 140.8530090  75.0395260   4.3978330 139.9032800  75.0058800   4.5123320
 141.0343100  75.9495370   4.1628100 126.0440880  68.5942460   2.4502230
 126.6917070  68.0439840   2.0097390 126.4642720  68.8485610   3.2718040
 139.9393220  68.7883820   5.8071870 140.5765440  69.4017960   6.1731060
 140.0868110  68.8244480   4.8621100 125.7972880  68.7498130   5.1927550
 125.4487700  69.2061950   5.9585730 125.4660580  67.8555260   5.2749980
 127.4037250  81.9217730   9.3580740 127.3606880  81.5510640  10.2395200
 127.5348260  82.8595300   9.4982560 131.1043280  83.4777320   4.9590460
 130.8634640  83.7451880   4.0720980 132.0445920  83.6483050   5.0141320
 133.3097700  69.9410010   8.7146970 133.2486590  70.5331840   9.4642380
 134.2498080  69.8335970   8.5697230 135.9472260  69.5980070   8.3539260
 136.5612670  69.9159360   7.6920340 136.4921820  69.1128660   8.9735120
 142.3647440  85.4971700   5.7601100 141.8705720  85.8940570   5.0428230
 141.7560730  84.8720910   6.1538380 126.4693520  68.2774330   8.4678320
 127.0176510  68.0962380   7.7044430 126.5348830  67.4868440   9.0034630
 127.2425280  84.8679980   6.4778520 126.6485600  84.7364680   7.2168560
 127.2349120  84.0318120   6.0120620 136.6880300  68.1612210   4.6808550
 135.8140140  68.4947320   4.4781480 136.5791050  67.6885390   5.5060420
 137.5952280  70.3683080   6.0650270 137.2665640  69.5534840   5.6852000
 138.5434580  70.3252890   5.9415960 140.0486890  86.1395120   3.0387840
 139.5889860  86.8910930   2.6645860 139.4199350  85.4201590   2.9802640
 126.8737510  82.2338360   5.4286560 126.1471570  81.6143650   5.3612510
 126.9346660  82.6278970   4.5584640 130.4782610  84.4483360   2.2135970
 130.9947630  83.8370720   1.6884230 131.1279990  84.9512140   2.7046980
 133.2178110  85.3391850   3.0404950 133.5055920  85.0846150   2.1637960
 133.7301330  84.7869210   3.6310520 134.4355120  69.0782050   3.6201460
 133.6526910  69.5527550   3.8998220 134.1418050  68.1736880   3.5114640
 133.2850470  86.2607950  10.4073150 134.2117780  86.0252220  10.4509110
 133.2700900  87.0879950   9.9259180 130.4714080  68.9252700  10.1715030
 130.1898350  69.4286300   9.4075850 130.8533780  68.1274450   9.8057160
 137.0729540  68.3406280  10.7495500 136.9594990  68.6600890  11.6447020
 137.8899280  68.7418790  10.4532780 139.8528030  85.4877810  10.2314190
 140.6453350  84.9927040  10.0240150 140.1461180  86.1667950  10.8389800
 135.9787690  57.5855260 150.0821650 135.8981740  56.6709870 149.8113360
 135.5652110  58.0822330 149.3761360 138.1313160  63.7694470 150.7430050
 137.6694690  62.9981710 151.0717220 138.9438710  63.7960540 151.2482500
 126.5363510  54.6355980 146.6249070 125.6480210  54.9771950 146.5228950
 126.8204700  54.4356300 145.7329900 134.3576470  66.0552480 150.3634040
 133.7387910  66.5109980 149.7928480 135.2128250  66.2103940 149.9623740
 128.7124900  53.2187480 147.6587450 128.8191650  54.1191210 147.9656210
 127.8017260  53.1705450 147.3682100 138.3644010  52.3412290 149.1298350
 139.1853630  51.8508860 149.1723830 138.3978090  52.9309950 149.8830190
 135.2239820  60.9391720 147.7565950 134.6057090  61.4041170 147.1928670
 135.7363070  61.6319200 148.1735460 124.5923020  61.6248250 145.1305580
 124.2151000  62.1135350 144.3990480 124.8496090  62.2973530 145.7612110
 132.2011950  50.0264640 150.5891090 132.5086930  49.4711530 149.8726590
 131.2712650  50.1609100 150.4064080 139.0472430  62.4648150 147.9688720
 138.9368760  61.5222480 148.0938140 139.0440680  62.8263790 148.8551480
 134.5892710  58.0913470 147.3251210 133.6621990  58.0250850 147.5539680
 134.7417530  59.0293600 147.2106450 134.5761790  54.3630470 144.3218370
 133.6365460  54.5244430 144.4070830 134.8945050  55.0816150 143.7754360
 138.6190000  59.6533770 147.8286460 138.0002420  59.3153320 147.1812760
 138.6014450  59.0093530 148.5365650 130.1949350  58.6178210 150.1070940
 129.7906350  57.9055460 149.6116840 130.2812470  58.2731450 150.9958980
 136.7954700  58.8920580 144.8359210 137.2347980  58.0543010 144.6897030
 137.5083120  59.5249980 144.9223350 134.9050080  63.8316650 148.8040450
 135.3445990  64.5740980 148.3895840 134.8436970  64.0743220 149.7279410
 140.3771840  50.1463390 143.1500250 140.0644500  50.2390220 144.0499320
 141.1384310  50.7244420 143.0997680 126.8953980  57.5123190 147.6077590
 126.7751580  58.2385280 146.9958860 126.5854870  56.7426100 147.1305500
 125.7786980  62.3838520 149.8252410 125.3715060  62.5253110 148.9706010
 126.6699990  62.0998680 149.6223620 137.5720260  66.8185770 146.1603460
 137.4121400  66.5288710 147.0585290 137.4066970  66.0425900 145.6248690
 130.0508640  66.5984300 147.9375080 129.8751120  65.6819840 147.7242880
 129.1964380  66.9571590 148.1772880 137.2746390  64.3273330 144.7201460
 136.5811550  64.3250620 144.0603740 138.0169250  63.9032650 144.2895630
 136.8396320  65.9536040 148.7949950 137.2953270  65.1725420 149.1088570
 137.1788840  66.6642860 149.3391130 129.3617640  50.8558260 150.9901260
 128.9185790  51.6367800 150.6585780 129.9202630  51.1788150 151.6972200
 132.4776460  50.4768960 145.8707090 131.8530640  50.4728830 146.5960400
 132.3906580  49.6099920 145.4743060 129.1531860  55.9791830 148.7182510
 128.9272780  55.7629000 149.6229130 128.3724390  56.4120290 148.3728480
 136.3829620  55.9855200 147.3173160 135.7838510  56.7091000 147.1336780
 136.9309230  55.9231980 146.5349610 134.9894490  54.6218740 149.3476440
 135.3824060  54.9390940 148.5345130 135.3511340  53.7430620 149.4620960
 124.2128890  55.1539660 142.7809360 124.1303560  56.0970420 142.9224350
 123.8611950  55.0114570 141.9021710 127.8629400  53.7705180 150.8073920
 127.5229450  54.2480410 151.5640970 127.1006720  53.3170300 150.4475020
 132.0747170  54.8890770 144.8386470 132.1959990  54.8477250 145.7872290
 131.6895680  55.7514920 144.6833200 131.0868670  57.1991910 144.2369770
 130.5185570  56.7510160 143.6105680 131.7957670  57.5584690 143.7034920
 125.1775480  52.6924160 149.7238590 124.8922400  52.3279830 150.5617210
 125.1154340  51.9604620 149.1101730 128.6316150  61.1950100 146.5096180
 127.8578410  60.6547720 146.3494900 129.3610780  60.6756710 146.1713940
 134.8514070  51.5853420 146.4451960 134.0378680  51.0866590 146.3697270
 134.6576020  52.4251670 146.0288310 137.5662460  55.9573070 144.7414120
 138.4542080  56.2690300 144.5665460 137.5367550  55.0845320 144.3494700
 128.6753550  60.8630480 150.1474990 129.1932220  60.0598740 150.0931880
 128.2237570  60.8009620 150.9891820 133.5623050  62.1296760 145.4202290
 133.9038750  62.8738990 144.9245610 132.7335760  62.4427880 145.7827120
 139.8376730  57.2684910 144.2093980 139.7540450  57.6999130 143.3590420
 140.5570920  57.7283260 144.6420800 140.8663980  64.1227170 146.9376110
 140.2240140  63.4682790 147.2119830 140.4794640  64.5282260 146.1616780
 136.4450460  61.4512600 150.7847800 136.7974280  60.8540730 150.1249170
 135.5612790  61.1256830 150.9556050 132.5313740  62.2110290 148.1918210
 133.2184870  62.7579500 148.5725800 131.7446160  62.7551020 148.2267820
 124.6706140  57.8283110 143.6835290 125.5400990  58.1107910 143.9671210
 124.1796460  58.6418980 143.5684100 131.8340950  59.2156320 147.8043570
 132.2903730  60.0261570 148.0303760 131.4829160  58.8979460 148.6362060
 127.7352730  49.5593970 148.2766090 127.6067360  49.5511870 149.2251010
 126.9114750  49.8977060 147.9257100 139.2561360  63.0143630 143.4752460
 139.0298940  62.2974070 144.0677100 138.8657560  62.7656070 142.6374210
 125.0377390  67.0410490 144.2496920 125.3975030  67.6399830 143.5954190
 124.8969730  67.5870380 145.0231950 138.8377610  60.9315570 145.1366620
 138.5499310  61.3928260 145.9244500 139.6329780  60.4713340 145.4050840
 131.0546010  64.4241690 145.0670590 131.0456110  65.1571380 144.4515100
 130.1344370  64.1773270 145.1597550 126.6552650  59.6456580 145.8117350
 126.0480600  60.3855480 145.8212650 127.1302000  59.7355940 144.9855550
 139.5947470  52.7664340 146.2961800 138.9660630  52.8710010 145.5820030
 139.0999390  52.9861120 147.0855680 134.0405610  64.4869930 143.7295780
 134.1417590  64.2833920 142.7997760 133.1407350  64.2328210 143.9343560
 131.5631500  55.0450290 147.7119680 130.8547650  55.5136630 148.1533290
 131.8475980  54.3872300 148.3464870 135.5946930  51.7700950 149.1515470
 135.4714710  51.7887080 148.2024980 136.5431490  51.8179890 149.2713870
 132.6823720  67.0056250 148.4243450 132.9365220  66.9677640 147.5022820
 131.7336200  66.8789580 148.4171700 129.7666520  53.3535370 145.0870390
 130.6157050  53.7905520 145.0210580 129.3997790  53.6655630 145.9142450
 138.6876300  57.9248130 150.0001960 137.7466440  57.9398360 150.1749650
 139.0020370  57.1384090 150.4462260 128.6657940  59.6067730 143.5605920
 129.4321210  59.4949090 144.1231350 128.7432630  58.9105700 142.9082690
 127.3604700  57.0392800 144.2438810 127.4408290  56.0920310 144.3556210
 128.2524450  57.3699680 144.3499470 128.1619410  67.1888190 151.3473350
 128.8981890  66.6403650 151.6181920 128.5460330  68.0544200 151.2079340
 125.0464890  63.2561760 147.2214860 124.1204670  63.4982900 147.2120270
 125.5121320  64.0836020 147.0999610 131.2721720  66.3618500 143.1698920
 132.0650330  66.6507330 142.7180710 130.7526070  65.9310670 142.4911400
 140.3251890  65.5888630 144.5935660 140.0393400  65.1753770 143.7789840
 140.1271440  66.5176340 144.4736180 131.7899120  61.5821910 143.0341270
 131.6849760  60.9674260 143.7602650 131.6223340  61.0587800 142.2504280
 135.0301850  60.6441940 143.6383260 134.4811950  61.0911240 144.2826000
 135.6521110  60.1391190 144.1620930 130.6976970  59.6032860 145.5348560
 131.1193390  59.4372730 146.3779950 130.8227810  58.7933090 145.0403700
 133.2104610  58.6270470 142.7825660 133.7310270  57.9119490 142.4166810
 133.8573010  59.2656340 143.0826170 129.5935870  55.6766090 142.4806720
 129.3924930  54.8133450 142.8420060 129.4227920  55.5899450 141.5428320
 137.0724180  50.4874320 145.0093600 137.3526470  49.6442220 145.3653020
 136.2989910  50.7197430 145.5232350 128.3918670  52.7766710 142.4684600
 128.6944570  52.7834140 141.5603750 129.1313260  52.4264570 142.9652260
 131.6103600  51.7201330 143.4540800 131.2625600  51.0425320 142.8743250
 131.8116370  51.2590840 144.2684190 133.7752640  66.7082080 145.0727400
 134.6703430  67.0467050 145.0946160 133.8070270  65.9861490 144.4451680
 127.4148800  62.0809130 143.3014400 127.8523670  62.6238800 143.9571980
 127.8996530  61.2556080 143.3110740 124.6294600  64.8698160 150.7534660
 124.9597610  64.0019220 150.5213300 125.0585600  65.0756680 151.5839620
 129.2256520  63.2007170 148.4136630 128.9252060  63.0772140 149.3140540
 129.1194010  62.3415760 148.0052360 141.9948440  62.9803570 143.1163310
 141.1641400  63.0480220 143.5870540 142.1720270  63.8707690 142.8130170
 141.4504900  59.7251050 145.6197510 142.2123810  60.2947700 145.7257200
 141.4659270  59.1578250 146.3905820 124.9509240  58.2488980 149.8505170
 124.2958080  57.9800620 149.2064870 125.7887190  58.1393460 149.4007150
 142.4564870  60.5801150 150.4639440 142.8273700  59.7968470 150.0575410
 143.0966800  61.2690250 150.2856740 141.5024070  60.0185420 142.7770030
 141.7772910  60.9264300 142.6489250 141.3134810  59.9547950 143.7132020
 137.8999680  53.0430270 144.0723660 138.3184560  52.8561250 143.2320320
 137.5935740  52.1909320 144.3826590 141.3989410  57.9554410 147.7699460
 141.0233010  57.1882340 147.3380750 140.6692530  58.3377110 148.2574390
 124.1647320  55.4587910 145.7930500 123.2611400  55.7218110 145.6182160
 124.6487940  55.7299080 145.0130460 126.7074530  54.5153450 143.7024880
 127.4166230  54.0936670 143.2172160 125.9914470  54.5828680 143.0708230
 126.3548690  50.5692780 142.7427530 127.0776820  51.1101720 143.0608750
 126.6273210  50.2956200 141.8669070 140.1640340  55.4385250 147.0099110
 140.6599460  55.2056120 147.7947990 139.9656410  54.5997090 146.5936750
 141.5927500  54.0746200 149.5436790 141.4826780  53.9202240 150.4819060
 142.3535090  53.5467140 149.3012200 142.4817770  51.9054120 142.7842930
 143.4067080  51.7735300 142.5761220 142.4593560  51.9846940 143.7379380
 142.5556260  52.6764780 145.4099640 141.7607760  52.6109900 145.9392550
 142.7599540  53.6115420 145.3984990 139.4974680  66.7156330 149.4038030
 140.0933750  66.3940900 148.7272450 139.7552830  66.2428150 150.1951300
 140.8514760  50.6376900 149.8707290 140.7903160  49.6938120 149.7238310
 141.6306790  50.7456990 150.4160750 125.1567510  66.7769260 148.8331240
 124.9889550  66.1439940 149.5313130 124.2902020  66.9828660 148.4825430
 125.7795530  50.6086040 146.3363100 126.5374890  50.7214920 145.7627130
 125.3172700  51.4455240 146.2906530 132.3209340  52.7225310 149.3265410
 131.5083850  52.3482200 148.9861290 132.8250980  51.9670390 149.6286600
 136.8234320  49.3867760 150.5648480 137.4263690  49.9587970 151.0397000
 136.0827310  49.9507200 150.3422380 139.9668920  49.7889320 145.8388760
 140.1619550  50.6872770 146.1056190 139.1798790  49.5576400 146.3321710
 126.7630210  65.4702490 146.2781380 126.2377830  65.8510520 145.5743340
 126.6874790  66.0953260 146.9991090 128.1520680  51.1350090 144.8765070
 128.6813440  50.3479890 144.7473020 128.7849000  51.8141280 145.1100600
 130.3458520  50.8725230 147.9310460 129.7161260  50.1712540 148.0980590
 129.8063660  51.6329360 147.7143620 141.5195530  67.0290030 147.5995320
 141.6947720  66.3427770 146.9556240 140.8217100  67.5537080 147.2071990
 129.3623180  67.4184870 145.1530630 130.0942000  67.1344150 144.6054520
 129.6216850  67.1798150 146.0430010 128.5237970  63.5349600 145.1576960
 127.8946850  64.0034700 145.7062790 128.6385800  62.6898820 145.5923150
 135.9787690  57.5855260 131.3078160 135.8981740  56.6709870 131.0369870
 135.5652110  58.0822330 130.6017870 134.1105730  59.3634280 133.1887430
 133.3347830  58.8834720 133.4786000 134.7618660  58.6839930 133.0143590
 128.1271560  59.6754090 134.0663190 127.2956440  59.4202800 134.4659700
 128.7352540  59.7464860 134.8021110 138.1313160  63.7694470 131.9686560
 137.6694690  62.9981710 132.2973730 138.9438710  63.7960540 132.4739010
 128.1072820  63.7094180 134.2621210 128.4100860  62.8191920 134.0831430
 128.8516410  64.2664400 134.0343460 126.5363510  54.6355980 127.8505580
 125.6480210  54.9771950 127.7485460 126.8204700  54.4356300 126.9586410
 124.4996520  57.2361630 133.7345280 125.0712630  56.4683830 133.7348920
 124.4998060  57.5350390 132.8251890 134.3576470  66.0552480 131.5890550
 133.7387910  66.5109980 131.0184990 135.2128250  66.2103940 131.1880250
 133.5514720  62.0391470 133.1957590 133.4823000  61.0981410 133.0346720
 134.3134580  62.1292880 133.7680160 125.7421390  52.6445990 135.5214210
 125.5624230  51.7471740 135.8016970 125.3401470  53.1917860 136.1961160
 134.5819890  54.8461850 133.4226520 134.9584710  53.9733730 133.3100190
 134.4839400  55.1820550 132.5316960 128.7124900  53.2187480 128.8843960
 128.8191650  54.1191210 129.1912720 127.8017260  53.1705450 128.5938610
 138.3644010  52.3412290 130.3554860 139.1853630  51.8508860 130.3980340
 138.3978090  52.9309950 131.1086700 126.3608060  55.1406490 134.1296550
 127.0418170  55.4044860 134.7483950 126.0456110  54.3007360 134.4634560
 130.5532630  56.1873850 133.2169140 131.0610850  56.6854820 133.8574160
 131.0845870  55.4109050 133.0408500 142.6543560  54.3579040 136.9198490
 141.9495730  54.7460750 136.4013600 142.9201480  55.0529330 137.5219420
 128.8368730  50.8272410 137.4832560 128.8387170  51.3444800 136.6778460
 128.0073040  50.3502590 137.4602490 135.2239820  60.9391720 128.9822460
 134.6057090  61.4041170 128.4185180 135.7363070  61.6319200 129.3991970
 130.0871580  60.4667590 135.6606060 129.7540960  61.0936510 136.3027130
 130.2638260  60.9929470 134.8807730 138.6005490  54.2812670 133.1282400
 137.8961060  54.5697560 133.7085510 138.9617650  55.0912780 132.7681960
 128.5184060  52.5382370 135.4903010 128.8600870  53.3824420 135.1956880
 127.5799870  52.6866110 135.6068350 129.2990680  62.4348390 137.4755240
 129.9164680  63.1099470 137.1939690 128.4383800  62.8436370 137.3842740
 124.5923020  61.6248250 126.3562090 124.2151000  62.1135350 125.6246990
 124.8496090  62.2973530 126.9868620 140.2168270  63.8987800 135.3909880
 139.5331790  64.5686910 135.3826550 140.7562560  64.0968450 134.6254740
 141.6692410  53.7267460 133.5191610 140.7217320  53.7606440 133.6507040
 141.9942400  54.5406410 133.9040970 132.2011950  50.0264640 131.8147600
 132.5086930  49.4711530 131.0983100 131.2712650  50.1609100 131.6320590
 137.7527010  65.7431930 134.1055060 137.7654170  65.3394220 133.2377320
 137.2002230  66.5179220 134.0016490 139.0472430  62.4648150 129.1945230
 138.9368760  61.5222480 129.3194650 139.0440680  62.8263790 130.0807990
 137.1512450  60.6461770 135.4337670 137.5681240  60.4321880 134.5991130
 137.8752270  60.9034560 136.0046290 134.5892710  58.0913470 128.5507720
 133.6621990  58.0250850 128.7796190 134.7417530  59.0293600 128.4362960
 134.5761790  54.3630470 125.5474880 133.6365460  54.5244430 125.6327340
 134.8945050  55.0816150 125.0010870 141.0974550  59.0448990 135.5253910
 140.2693180  59.1142080 135.0504040 141.6925030  59.6303300 135.0569740
 138.6190000  59.6533770 129.0542970 138.0002420  59.3153320 128.4069270
 138.6014450  59.0093530 129.7622160 138.0616560  55.8318310 136.4708780
 137.6487740  56.6572020 136.7248770 137.3292510  55.2463350 136.2785140
 130.1949350  58.6178210 131.3327450 129.7906350  57.9055460 130.8373350
 130.2812470  58.2731450 132.2215490 130.6631050  62.3045770 133.4966660
 130.3659340  61.6991240 132.8174440 131.6130870  62.3423080 133.3856020
 128.9077970  55.3921420 135.1126490 129.4592560  55.5016760 134.3379740
 129.4221480  55.7659020 135.8281720 138.7516660  65.8777640 137.1589760
 138.2747220  66.6849830 136.9662370 138.0678450  65.2255970 137.3115970
 129.7549480  62.0427460 140.1474460 128.8578010  62.2667430 140.3947860
 129.7802350  62.1662400 139.1985860 136.7954700  58.8920580 126.0615720
 137.2347980  58.0543010 125.9153540 137.5083120  59.5249980 126.1479860
 128.5820700  58.9140780 138.7231830 128.4428470  59.7863580 139.0919230
 127.7002060  58.5713590 138.5779770 134.9050080  63.8316650 130.0296960
 135.3445990  64.5740980 129.6152350 134.8436970  64.0743220 130.9535920
 130.3801050  64.8562480 140.9316980 130.3516480  65.2605430 140.0645410
 130.2166020  63.9272840 140.7688580 140.3771840  50.1463390 124.3756760
 140.0644500  50.2390220 125.2755830 141.1384310  50.7244420 124.3254190
 126.8953980  57.5123190 128.8334100 126.7751580  58.2385280 128.2215370
 126.5854870  56.7426100 128.3562010 142.3315870  65.6389580 142.2281150
 142.8075590  66.1172470 142.9070230 142.9523030  65.5707070 141.5026650
 124.5339350  60.6838330 134.6402740 124.6119770  60.8187100 133.6958460
 125.1481030  59.9754220 134.8330860 125.7786980  62.3838520 131.0508920
 125.3715060  62.5253110 130.1962520 126.6699990  62.0998680 130.8480130
 141.7349120  62.8302430 139.3881160 141.8612180  62.5914310 138.4698340
 141.7770500  61.9986970 139.8603240 135.5965860  66.5330430 137.9575970
 136.1110530  66.4438440 138.7598400 134.7534940  66.8790130 138.2503880
 137.5720260  66.8185770 127.3859970 137.4121400  66.5288710 128.2841800
 137.4066970  66.0425900 126.8505200 130.0508640  66.5984300 129.1631590
 129.8751120  65.6819840 128.9499390 129.1964380  66.9571590 129.4029390
 137.2746390  64.3273330 125.9457970 136.5811550  64.3250620 125.2860250
 138.0169250  63.9032650 125.5152140 136.8396320  65.9536040 130.0206460
 137.2953270  65.1725420 130.3345080 137.1788840  66.6642860 130.5647640
 141.5873130  54.8834890 140.3530900 140.9717400  55.3914560 139.8246360
 141.2669550  53.9833220 140.2956840 124.5898870  61.7252500 137.1797200
 124.7529910  61.2557860 136.3616570 125.0551320  61.2176060 137.8446040
 129.3617640  50.8558260 132.2157770 128.9185790  51.6367800 131.8842290
 129.9202630  51.1788150 132.9228710 133.6487450  53.7226780 137.8193090
 133.1866820  53.9309800 138.6313030 133.2465560  52.9086130 137.5163760
 138.6491960  54.9435730 138.9489750 137.7985550  54.6441480 139.2698820
 138.4893750  55.1877740 138.0373570 135.7441670  56.4437480 141.0488540
 136.0695080  55.6101230 140.7090770 136.5322000  56.9666000 141.1966870
 132.4776460  50.4768960 127.0963600 131.8530640  50.4728830 127.8216910
 132.3906580  49.6099920 126.6999570 131.3993540  51.4005590 134.0747370
 131.6965870  52.3068420 133.9939390 131.9479100  50.9124370 133.4606940
 129.1531860  55.9791830 129.9439020 128.9272780  55.7629000 130.8485640
 128.3724390  56.4120290 129.5984990 136.3829620  55.9855200 128.5429670
 135.7838510  56.7091000 128.3593290 136.9309230  55.9231980 127.7606120
 131.5931070  56.8777410 140.6099290 131.4974670  55.9372140 140.4599690
 132.4363050  57.0992480 140.2147360 134.9894490  54.6218740 130.5732950
 135.3824060  54.9390940 129.7601640 135.3511340  53.7430620 130.6877470
 126.7241610  53.2891080 138.7633070 126.3305000  54.1366290 138.9705850
 126.0360010  52.6517450 138.9541710 133.2986660  53.3726050 141.8329810
 132.6084980  53.1798250 142.4675900 134.0418960  53.6560690 142.3654110
 124.0258660  51.2119540 132.7963150 123.7371710  51.7822400 133.5088130
 124.7704420  50.7323990 133.1594380 124.2128890  55.1539660 124.0065870
 124.1303560  56.0970420 124.1480860 123.8611950  55.0114570 123.1278220
 135.5749630  57.2124490 134.6683730 134.8430750  57.7211300 135.0173830
 135.1773970  56.3954470 134.3672510 132.0127020  53.8878690 133.0736220
 132.0163080  53.4468640 132.2240760 132.9078140  54.2096020 133.1808040
 127.8629400  53.7705180 132.0330430 127.5229450  54.2480410 132.7897480
 127.1006720  53.3170300 131.6731530 132.0747170  54.8890770 126.0642980
 132.1959990  54.8477250 127.0128800 131.6895680  55.7514920 125.9089710
 136.0375540  52.6658170 134.0806670 136.0548280  53.1166820 134.9248520
 135.7891120  51.7663810 134.2940110 131.0868670  57.1991910 125.4626280
 130.5185570  56.7510160 124.8362190 131.7957670  57.5584690 124.9291430
 139.4646290  50.0790350 139.9193050 139.7892060  49.3480010 140.4451030
 139.5002800  49.7603990 139.0174040 126.1637850  61.1003930 139.3393010
 125.7792640  60.4597600 139.9375970 126.4750040  61.8040050 139.9087740
 132.3134990  57.9480470 134.8201630 132.6805120  57.4739040 135.5662970
 132.1240050  58.8222040 135.1609970 125.1775480  52.6924160 130.9495100
 124.8922400  52.3279830 131.7873720 125.1154340  51.9604620 130.3358240
 130.1034360  56.9889110 137.1385840 129.7991430  57.8681090 137.3636200
 131.0580820  57.0488900 137.1743280 128.6316150  61.1950100 127.7352690
 127.8578410  60.6547720 127.5751410 129.3610780  60.6756710 127.3970450
 139.3904130  60.1915460 133.5279080 140.1103250  60.6870750 133.1375190
 139.1885950  59.5133350 132.8832950 134.8514070  51.5853420 127.6708470
 134.0378680  51.0866590 127.5953780 134.6576020  52.4251670 127.2544820
 134.7722930  60.2624520 139.4148080 134.7060240  59.3420190 139.1605670
 134.1428070  60.3599960 140.1292720 137.5662460  55.9573070 125.9670630
 138.4542080  56.2690300 125.7921970 137.5367550  55.0845320 125.5751210
 128.6753550  60.8630480 131.3731500 129.1932220  60.0598740 131.3188390
 128.2237570  60.8009620 132.2148330 133.5623050  62.1296760 126.6458800
 133.9038750  62.8738990 126.1502120 132.7335760  62.4427880 127.0083630
 126.1598090  57.8291850 138.2857200 125.8013030  58.4945700 138.8730540
 125.8652650  56.9975400 138.6569820 129.3611210  58.2876090 141.1696750
 129.0611350  58.4333270 140.2724570 130.1322450  57.7281380 141.0770140
 134.7039660  63.0845090 139.1651880 134.7184200  62.1526050 138.9470790
 133.9964760  63.1704850 139.8041650 139.8376730  57.2684910 125.4350490
 139.7540450  57.6999130 124.5846930 140.5570920  57.7283260 125.8677310
 140.9150870  59.7252430 138.5120460 140.1899060  60.3181210 138.3149850
 141.4426330  59.7175970 137.7133830 140.8663980  64.1227170 128.1632620
 140.2240140  63.4682790 128.4376340 140.4794640  64.5282260 127.3873290
 136.4450460  61.4512600 132.0104310 136.7974280  60.8540730 131.3505680
 135.5612790  61.1256830 132.1812560 132.5313740  62.2110290 129.4174720
 133.2184870  62.7579500 129.7982310 131.7446160  62.7551020 129.4524330
 124.6706140  57.8283110 124.9091800 125.5400990  58.1107910 125.1927720
 124.1796460  58.6418980 124.7940610 131.8340950  59.2156320 129.0300080
 132.2903730  60.0261570 129.2560270 131.4829160  58.8979460 129.8618570
 134.1373560  64.7262660 136.2592380 134.7815780  64.9322040 136.9365800
 134.5003000  63.9651060 135.8063230 127.7352730  49.5593970 129.5022600
 127.6067360  49.5511870 130.4507520 126.9114750  49.8977060 129.1513610
 135.4105640  62.7295010 134.9769830 136.0527870  62.0288170 135.0902000
 135.9354990  63.5093450 134.7966720 139.2561360  63.0143630 124.7008970
 139.0298940  62.2974070 125.2933610 138.8657560  62.7656070 123.8630720
 137.1843260  63.5289910 138.1805890 137.5199500  64.1156600 138.8583810
 136.2643600  63.3982620 138.4103680 125.0377390  67.0410490 125.4753430
 125.3975030  67.6399830 124.8210700 124.8969730  67.5870380 126.2488460
 124.7346660  51.3185090 138.9629300 124.0205180  51.5182010 139.5681910
 125.1541700  50.5424660 139.3344100 138.8377610  60.9315570 126.3623130
 138.5499310  61.3928260 127.1501010 139.6329780  60.4713340 126.6307350
 125.0219250  65.3065350 139.9495830 125.1310370  64.3660090 139.8091220
 124.3699810  65.5720100 139.3009560 133.0131840  63.5781240 141.3493950
 132.6928710  62.8590480 141.8939640 132.3390200  64.2536310 141.4230010
 131.0546010  64.4241690 126.2927100 131.0456110  65.1571380 125.6771610
 130.1344370  64.1773270 126.3854060 126.6552650  59.6456580 127.0373860
 126.0480600  60.3855480 127.0469160 127.1302000  59.7355940 126.2112060
 136.2285440  53.8107400 136.7130750 136.5966260  52.9902610 137.0410320
 135.3683640  53.8709290 137.1286400 139.5947470  52.7664340 127.5218310
 138.9660630  52.8710010 126.8076540 139.0999390  52.9861120 128.3112190
 134.0405610  64.4869930 124.9552290 134.1417590  64.2833920 124.0254270
 133.1407350  64.2328210 125.1600070 131.5631500  55.0450290 128.9376190
 130.8547650  55.5136630 129.3789800 131.8475980  54.3872300 129.5721380
 133.1887430  56.4646990 136.9368720 133.6872680  56.9392810 137.6020570
 133.3310380  55.5410510 137.1438750 135.5946930  51.7700950 130.3771980
 135.4714710  51.7887080 129.4281490 136.5431490  51.8179890 130.4970380
 132.6823720  67.0056250 129.6499960 132.9365220  66.9677640 128.7279330
 131.7336200  66.8789580 129.6428210 129.7666520  53.3535370 126.3126900
 130.6157050  53.7905520 126.2467090 129.3997790  53.6655630 127.1398960
 140.3954290  52.6814950 137.7797110 139.8927890  53.4220350 138.1190920
 141.2110950  53.0698950 137.4633900 138.6876300  57.9248130 131.2258470
 137.7466440  57.9398360 131.4006160 139.0020370  57.1384090 131.6718770
 128.6657940  59.6067730 124.7862430 129.4321210  59.4949090 125.3487860
 128.7432630  58.9105700 124.1339200 127.3604700  57.0392800 125.4695320
 127.4408290  56.0920310 125.5812720 128.2524450  57.3699680 125.5755980
 140.6901880  65.0956980 132.9012730 140.8149300  65.9188150 133.3736540
 141.5567440  64.8847710 132.5536880 128.1619410  67.1888190 132.5729860
 128.8981890  66.6403650 132.8438430 128.5460330  68.0544200 132.4335850
 125.0464890  63.2561760 128.4471370 124.1204670  63.4982900 128.4376780
 125.5121320  64.0836020 128.3256120 127.1677690  66.3734260 141.7615440
 127.9690420  66.6946310 142.1750840 126.6529510  66.0129840 142.4835350
 131.2721720  66.3618500 124.3955430 132.0650330  66.6507330 123.9437220
 130.7526070  65.9310670 123.7167910 136.0042320  62.4814130 141.7090850
 135.3980480  62.5045730 140.9686600 135.6996430  61.7497170 142.2458100
 137.4342690  66.2094420 140.3200260 138.3864440  66.1252440 140.2700500
 137.2870910  66.8736130 140.9934050 140.3251890  65.5888630 125.8192170
 140.0393400  65.1753770 125.0046350 140.1271440  66.5176340 125.6992690
 124.8875500  58.8607720 140.7051490 125.3914520  58.2815000 141.2767720
 124.1482920  59.1447950 141.2427860 131.7899120  61.5821910 124.2597780
 131.6849760  60.9674260 124.9859160 131.6223340  61.0587800 123.4760790
 131.9413440  60.2678710 140.2387010 131.1759110  60.8363710 140.1541680
 132.1229400  59.9754920 139.3455240 135.0301850  60.6441940 124.8639770
 134.4811950  61.0911240 125.5082510 135.6521110  60.1391190 125.3877440
 139.0836790  61.9984040 140.7962030 139.8246260  62.3359800 140.2929490
 138.3209470  62.1676100 140.2431800 126.9198580  57.0037310 141.6001560
 126.9603920  56.7051180 142.5086790 127.7744080  57.4044920 141.4409080
 130.6976970  59.6032860 126.7605070 131.1193390  59.4372730 127.6036460
 130.8227810  58.7933090 126.2660210 128.8604390  55.5829410 139.5676050
 128.3300850  55.0920360 138.9399390 129.5292460  56.0113610 139.0333980
 133.2104610  58.6270470 124.0082170 133.7310270  57.9119490 123.6423320
 133.8573010  59.2656340 124.3082680 137.7582450  60.0498870 139.3317240
 138.1723470  60.2043950 140.1807660 136.8233450  60.1754090 139.4943020
 138.2304620  57.3895030 141.3356390 138.8125390  56.6347350 141.2476870
 138.4066390  57.9202470 140.5587870 129.3476690  52.5491780 139.6473340
 129.2533560  51.9312530 138.9224210 128.7674080  53.2758070 139.4203250
 132.1138130  51.1065020 136.6800730 131.6655430  51.1289280 135.8346280
 131.4803330  50.7084040 137.2771030 132.5197680  60.0019350 137.3013170
 132.9385790  60.8452080 137.1289410 131.6006310  60.1391390 137.0719950
 134.8561580  57.7335530 138.6851010 134.9757790  57.1376670 139.4245850
 135.7155580  57.7705220 138.2652310 137.1949480  58.2872720 137.2613520
 136.6684700  58.8115340 136.6578660 137.5380820  58.9200110 137.8923250
 129.5935870  55.6766090 123.7063230 129.3924930  54.8133450 124.0676570
 129.4227920  55.5899450 122.7684830 130.3705100  66.3072360 138.4170900
 129.8326190  67.0318420 138.0979600 130.6239060  65.8302700 137.6268240
 131.6230350  54.2756880 139.9426830 132.2130040  53.9672730 140.6304650
 130.8050590  53.8036630 140.0986730 136.4423780  53.8922690 140.1759850
 135.7539300  53.2304230 140.1109840 137.1629800  53.4460960 140.6208310
 137.0724180  50.4874320 126.2350110 137.3526470  49.6442220 126.5909530
 136.2989910  50.7197430 126.7488860 128.3918670  52.7766710 123.6941110
 128.6944570  52.7834140 122.7860260 129.1313260  52.4264570 124.1908770
 133.2267310  67.5423570 138.6757550 133.1526010  68.4458710 138.9829920
 132.3246150  67.2235470 138.6479620 131.6103600  51.7201330 124.6797310
 131.2625600  51.0425320 124.0999760 131.8116370  51.2590840 125.4940700
 133.7752640  66.7082080 126.2983910 134.6703430  67.0467050 126.3202670
 133.8070270  65.9861490 125.6708190 127.4148800  62.0809130 124.5270910
 127.8523670  62.6238800 125.1828490 127.8996530  61.2556080 124.5367250
 124.6294600  64.8698160 131.9791170 124.9597610  64.0019220 131.7469810
 125.0585600  65.0756680 132.8096130 129.2256520  63.2007170 129.6393140
 128.9252060  63.0772140 130.5397050 129.1194010  62.3415760 129.2308870
 125.1184810  65.7368750 134.7172800 124.6815800  65.9169550 135.5496950
 125.6862490  66.4943370 134.5754520 140.7546990  65.2385750 139.0050110
 140.1548980  65.2978310 138.2614030 140.8840890  64.2990730 139.1346960
 141.9948440  62.9803570 124.3419820 141.1641400  63.0480220 124.8127050
 142.1720270  63.8707690 124.0386680 141.4504900  59.7251050 126.8454020
 142.2123810  60.2947700 126.9513710 141.4659270  59.1578250 127.6162330
 124.9509240  58.2488980 131.0761680 124.2958080  57.9800620 130.4321380
 125.7887190  58.1393460 130.6263660 142.4564870  60.5801150 131.6895950
 142.8273700  59.7968470 131.2831920 143.0966800  61.2690250 131.5113250
 139.4398630  61.9637730 137.1026270 138.6258470  62.3934890 137.3652060
 139.8472830  62.5756140 136.4895320 141.5024070  60.0185420 124.0026540
 141.7772910  60.9264300 123.8745760 141.3134810  59.9547950 124.9388530
 137.8999680  53.0430270 125.2980170 138.3184560  52.8561250 124.4576830
 137.5935740  52.1909320 125.6083100 141.3989410  57.9554410 128.9955970
 141.0233010  57.1882340 128.5637260 140.6692530  58.3377110 129.4830900
 125.9885170  58.6341550 135.6165020 126.3558210  58.5468950 136.4961040
 125.4195990  57.8708100 135.5171880 140.7889030  57.1025930 138.6295490
 140.5575120  56.8738680 137.7293440 141.0493580  58.0225480 138.5840380
 125.5401170  55.5450640 139.5223440 124.6457220  55.5117400 139.8617150
 126.0798720  55.7437430 140.2874690 139.2277100  52.3282360 141.4075190
 140.1047280  52.3365760 141.7909190 139.2397940  51.5913200 140.7967540
 124.1647320  55.4587910 127.0187010 123.2611400  55.7218110 126.8438670
 124.6487940  55.7299080 126.2386970 140.6740370  56.1811900 132.2963210
 141.1977850  55.6874550 131.6653380 141.2599790  56.3162260 133.0410780
 140.8530090  56.2651770 135.8182760 139.9032800  56.2315310 135.9327750
 141.0343100  57.1751880 135.5832530 126.7074530  54.5153450 124.9281390
 127.4166230  54.0936670 124.4428670 125.9914470  54.5828680 124.2964740
 126.3548690  50.5692780 123.9684040 127.0776820  51.1101720 124.2865260
 126.6273210  50.2956200 123.0925580 140.1640340  55.4385250 128.2355620
 140.6599460  55.2056120 129.0204500 139.9656410  54.5997090 127.8193260
 126.0440880  49.8198970 133.8706660 126.6917070  49.2696350 133.4301820
 126.4642720  50.0742120 134.6922470 141.5927500  54.0746200 130.7693300
 141.4826780  53.9202240 131.7075570 142.3535090  53.5467140 130.5268710
 139.9393220  50.0140330 137.2276300 140.5765440  50.6274470 137.5935490
 140.0868110  50.0500990 136.2825530 142.4817770  51.9054120 124.0099440
 143.4067080  51.7735300 123.8017730 142.4593560  51.9846940 124.9635890
 142.5556260  52.6764780 126.6356150 141.7607760  52.6109900 127.1649060
 142.7599540  53.6115420 126.6241500 139.4974680  66.7156330 130.6294540
 140.0933750  66.3940900 129.9528960 139.7552830  66.2428150 131.4207810
 125.7972880  49.9754640 136.6131980 125.4487700  50.4318460 137.3790160
 125.4660580  49.0811770 136.6954410 127.4037250  63.1474240 140.7785170
 127.3606880  62.7767150 141.6599630 127.5348260  64.0851810 140.9186990
 131.1043280  64.7033830 136.3794890 130.8634640  64.9708390 135.4925410
 132.0445920  64.8739560 136.4345750 133.3097700  51.1666520 140.1351400
 133.2486590  51.7588350 140.8846810 134.2498080  51.0592480 139.9901660
 135.9472260  50.8236580 139.7743690 136.5612670  51.1415870 139.1124770
 136.4921820  50.3385170 140.3939550 142.3647440  66.7228210 137.1805530
 141.8705720  67.1197080 136.4632660 141.7560730  66.0977420 137.5742810
 126.4693520  49.5030840 139.8882750 127.0176510  49.3218890 139.1248860
 126.5348830  48.7124950 140.4239060 127.2425280  66.0936490 137.8982950
 126.6485600  65.9621190 138.6372990 127.2349120  65.2574630 137.4325050
 136.6880300  49.3868720 136.1012980 135.8140140  49.7203830 135.8985910
 136.5791050  48.9141900 136.9264850 137.5952280  51.5939590 137.4854700
 137.2665640  50.7791350 137.1056430 138.5434580  51.5509400 137.3620390
 140.0486890  67.3651630 134.4592270 139.5889860  68.1167440 134.0850290
 139.4199350  66.6458100 134.4007070 126.8737510  63.4594870 136.8490990
 126.1471570  62.8400160 136.7816940 126.9346660  63.8535480 135.9789070
 130.4782610  65.6739870 133.6340400 130.9947630  65.0627230 133.1088660
 131.1279990  66.1768650 134.1251410 133.2178110  66.5648360 134.4609380
 133.5055920  66.3102660 133.5842390 133.7301330  66.0125720 135.0514950
 134.4355120  50.3038560 135.0405890 133.6526910  50.7784060 135.3202650
 134.1418050  49.3993390 134.9319070 138.9876190  51.0061660 133.0854980
 139.4284280  50.9506760 132.2376580 138.7183780  51.9219670 133.1565160
 140.8514760  50.6376900 131.0963800 140.7903160  49.6938120 130.9494820
 141.6306790  50.7456990 131.6417260 125.1567510  66.7769260 130.0587750
 124.9889550  66.1439940 130.7569640 124.2902020  66.9828660 129.7081940
 125.7795530  50.6086040 127.5619610 126.5374890  50.7214920 126.9883640
 125.3172700  51.4455240 127.5163040 132.3209340  52.7225310 130.5521920
 131.5083850  52.3482200 130.2117800 132.8250980  51.9670390 130.8543110
 136.8234320  49.3867760 131.7904990 137.4263690  49.9587970 132.2653510
 136.0827310  49.9507200 131.5678890 139.9668920  49.7889320 127.0645270
 140.1619550  50.6872770 127.3312700 139.1798790  49.5576400 127.5578220
 126.7630210  65.4702490 127.5037890 126.2377830  65.8510520 126.7999850
 126.6874790  66.0953260 128.2247600 128.1520680  51.1350090 126.1021580
 128.6813440  50.3479890 125.9729530 128.7849000  51.8141280 126.3357110
 130.3458520  50.8725230 129.1566970 129.7161260  50.1712540 129.3237100
 129.8063660  51.6329360 128.9400130 133.2850470  67.4864460 141.8277580
 134.2117780  67.2508730 141.8713540 133.2700900  68.3136460 141.3463610
 141.5195530  67.0290030 128.8251830 141.6947720  66.3427770 128.1812750
 140.8217100  67.5537080 128.4328500 130.4714080  50.1509210 141.5919460
 130.1898350  50.6542810 140.8280280 130.8533780  49.3530960 141.2261590
 129.3623180  67.4184870 126.3787140 130.0942000  67.1344150 125.8311030
 129.6216850  67.1798150 127.2686520 128.5237970  63.5349600 126.3833470
 127.8946850  64.0034700 126.9319300 128.6385800  62.6898820 126.8179660
 137.0729540  49.5662790 142.1699930 136.9594990  49.8857400 143.0651450
 137.8899280  49.9675300 141.8737210 139.8528030  66.7134320 141.6518620
 140.6453350  66.2183550 141.4444580 140.1461180  67.3924460 142.2594230
 135.9787690  57.5855260 112.5334670 135.8981740  56.6709870 112.2626380
 135.5652110  58.0822330 111.8274380 134.1105730  59.3634280 114.4143940
 133.3347830  58.8834720 114.7042510 134.7618660  58.6839930 114.2400100
 128.1271560  59.6754090 115.2919700 127.2956440  59.4202800 115.6916210
 128.7352540  59.7464860 116.0277620 138.1313160  63.7694470 113.1943070
 137.6694690  62.9981710 113.5230240 138.9438710  63.7960540 113.6995520
 128.1072820  63.7094180 115.4877720 128.4100860  62.8191920 115.3087940
 128.8516410  64.2664400 115.2599970 126.5363510  54.6355980 109.0762090
 125.6480210  54.9771950 108.9741970 126.8204700  54.4356300 108.1842920
 134.3576470  66.0552480 112.8147060 133.7387910  66.5109980 112.2441500
 135.2128250  66.2103940 112.4136760 133.5514720  62.0391470 114.4214100
 133.4823000  61.0981410 114.2603230 134.3134580  62.1292880 114.9936670
 134.5819890  54.8461850 114.6483030 134.9584710  53.9733730 114.5356700
 134.4839400  55.1820550 113.7573470 128.7124900  53.2187480 110.1100470
 128.8191650  54.1191210 110.4169230 127.8017260  53.1705450 109.8195120
 138.3644010  52.3412290 111.5811370 139.1853630  51.8508860 111.6236850
 138.3978090  52.9309950 112.3343210 130.5532630  56.1873850 114.4425650
 131.0610850  56.6854820 115.0830670 131.0845870  55.4109050 114.2665010
 142.6543560  54.3579040 118.1455000 141.9495730  54.7460750 117.6270110
 142.9201480  55.0529330 118.7475930 128.8368730  50.8272410 118.7089070
 128.8387170  51.3444800 117.9034970 128.0073040  50.3502590 118.6859000
 135.2239820  60.9391720 110.2078970 134.6057090  61.4041170 109.6441690
 135.7363070  61.6319200 110.6248480 130.0871580  60.4667590 116.8862570
 129.7540960  61.0936510 117.5283640 130.2638260  60.9929470 116.1064240
 138.6005490  54.2812670 114.3538910 137.8961060  54.5697560 114.9342020
 138.9617650  55.0912780 113.9938470 128.5184060  52.5382370 116.7159520
 128.8600870  53.3824420 116.4213390 127.5799870  52.6866110 116.8324860
 129.2990680  62.4348390 118.7011750 129.9164680  63.1099470 118.4196200
 128.4383800  62.8436370 118.6099250 124.5923020  61.6248250 107.5818600
 124.2151000  62.1135350 106.8503500 124.8496090  62.2973530 108.2125130
 140.2168270  63.8987800 116.6166390 139.5331790  64.5686910 116.6083060
 140.7562560  64.0968450 115.8511250 141.6692410  53.7267460 114.7448120
 140.7217320  53.7606440 114.8763550 141.9942400  54.5406410 115.1297480
 132.2011950  50.0264640 113.0404110 132.5086930  49.4711530 112.3239610
 131.2712650  50.1609100 112.8577100 137.7527010  65.7431930 115.3311570
 137.7654170  65.3394220 114.4633830 137.2002230  66.5179220 115.2273000
 139.0472430  62.4648150 110.4201740 138.9368760  61.5222480 110.5451160
 139.0440680  62.8263790 111.3064500 137.1512450  60.6461770 116.6594180
 137.5681240  60.4321880 115.8247640 137.8752270  60.9034560 117.2302800
 134.5892710  58.0913470 109.7764230 133.6621990  58.0250850 110.0052700
 134.7417530  59.0293600 109.6619470 134.5761790  54.3630470 106.7731390
 133.6365460  54.5244430 106.8583850 134.8945050  55.0816150 106.2267380
 141.0974550  59.0448990 116.7510420 140.2693180  59.1142080 116.2760550
 141.6925030  59.6303300 116.2826250 138.6190000  59.6533770 110.2799480
 138.0002420  59.3153320 109.6325780 138.6014450  59.0093530 110.9878670
 138.0616560  55.8318310 117.6965290 137.6487740  56.6572020 117.9505280
 137.3292510  55.2463350 117.5041650 130.1949350  58.6178210 112.5583960
 129.7906350  57.9055460 112.0629860 130.2812470  58.2731450 113.4472000
 130.6631050  62.3045770 114.7223170 130.3659340  61.6991240 114.0430950
 131.6130870  62.3423080 114.6112530 128.9077970  55.3921420 116.3383000
 129.4592560  55.5016760 115.5636250 129.4221480  55.7659020 117.0538230
 138.7516660  65.8777640 118.3846270 138.2747220  66.6849830 118.1918880
 138.0678450  65.2255970 118.5372480 129.7549480  62.0427460 121.3730970
 128.8578010  62.2667430 121.6204370 129.7802350  62.1662400 120.4242370
 136.7954700  58.8920580 107.2872230 137.2347980  58.0543010 107.1410050
 137.5083120  59.5249980 107.3736370 128.5820700  58.9140780 119.9488340
 128.4428470  59.7863580 120.3175740 127.7002060  58.5713590 119.8036280
 134.9050080  63.8316650 111.2553470 135.3445990  64.5740980 110.8408860
 134.8436970  64.0743220 112.1792430 130.3801050  64.8562480 122.1573490
 130.3516480  65.2605430 121.2901920 130.2166020  63.9272840 121.9945090
 140.3771840  50.1463390 105.6013270 140.0644500  50.2390220 106.5012340
 141.1384310  50.7244420 105.5510700 126.8953980  57.5123190 110.0590610
 126.7751580  58.2385280 109.4471880 126.5854870  56.7426100 109.5818520
 142.3315870  65.6389580 123.4537660 142.8075590  66.1172470 124.1326740
 142.9523030  65.5707070 122.7283160 124.5339350  60.6838330 115.8659250
 124.6119770  60.8187100 114.9214970 125.1481030  59.9754220 116.0587370
 125.7786980  62.3838520 112.2765430 125.3715060  62.5253110 111.4219030
 126.6699990  62.0998680 112.0736640 141.7349120  62.8302430 120.6137670
 141.8612180  62.5914310 119.6954850 141.7770500  61.9986970 121.0859750
 135.5965860  66.5330430 119.1832480 136.1110530  66.4438440 119.9854910
 134.7534940  66.8790130 119.4760390 137.5720260  66.8185770 108.6116480
 137.4121400  66.5288710 109.5098310 137.4066970  66.0425900 108.0761710
 130.0508640  66.5984300 110.3888100 129.8751120  65.6819840 110.1755900
 129.1964380  66.9571590 110.6285900 137.2746390  64.3273330 107.1714480
 136.5811550  64.3250620 106.5116760 138.0169250  63.9032650 106.7408650
 136.8396320  65.9536040 111.2462970 137.2953270  65.1725420 111.5601590
 137.1788840  66.6642860 111.7904150 141.5873130  54.8834890 121.5787410
 140.9717400  55.3914560 121.0502870 141.2669550  53.9833220 121.5213350
 124.5898870  61.7252500 118.4053710 124.7529910  61.2557860 117.5873080
 125.0551320  61.2176060 119.0702550 129.3617640  50.8558260 113.4414280
 128.9185790  51.6367800 113.1098800 129.9202630  51.1788150 114.1485220
 133.6487450  53.7226780 119.0449600 133.1866820  53.9309800 119.8569540
 133.2465560  52.9086130 118.7420270 138.6491960  54.9435730 120.1746260
 137.7985550  54.6441480 120.4955330 138.4893750  55.1877740 119.2630080
 135.7441670  56.4437480 122.2745050 136.0695080  55.6101230 121.9347280
 136.5322000  56.9666000 122.4223380 132.4776460  50.4768960 108.3220110
 131.8530640  50.4728830 109.0473420 132.3906580  49.6099920 107.9256080
 131.3993540  51.4005590 115.3003880 131.6965870  52.3068420 115.2195900
 131.9479100  50.9124370 114.6863450 129.1531860  55.9791830 111.1695530
 128.9272780  55.7629000 112.0742150 128.3724390  56.4120290 110.8241500
 136.3829620  55.9855200 109.7686180 135.7838510  56.7091000 109.5849800
 136.9309230  55.9231980 108.9862630 131.5931070  56.8777410 121.8355800
 131.4974670  55.9372140 121.6856200 132.4363050  57.0992480 121.4403870
 134.9894490  54.6218740 111.7989460 135.3824060  54.9390940 110.9858150
 135.3511340  53.7430620 111.9133980 126.7241610  53.2891080 119.9889580
 126.3305000  54.1366290 120.1962360 126.0360010  52.6517450 120.1798220
 133.2986660  53.3726050 123.0586320 132.6084980  53.1798250 123.6932410
 134.0418960  53.6560690 123.5910620 135.5749630  57.2124490 115.8940240
 134.8430750  57.7211300 116.2430340 135.1773970  56.3954470 115.5929020
 132.0127020  53.8878690 114.2992730 132.0163080  53.4468640 113.4497270
 132.9078140  54.2096020 114.4064550 127.8629400  53.7705180 113.2586940
 127.5229450  54.2480410 114.0153990 127.1006720  53.3170300 112.8988040
 132.0747170  54.8890770 107.2899490 132.1959990  54.8477250 108.2385310
 131.6895680  55.7514920 107.1346220 136.0375540  52.6658170 115.3063180
 136.0548280  53.1166820 116.1505030 135.7891120  51.7663810 115.5196620
 131.0868670  57.1991910 106.6882790 130.5185570  56.7510160 106.0618700
 131.7957670  57.5584690 106.1547940 139.4646290  50.0790350 121.1449560
 139.7892060  49.3480010 121.6707540 139.5002800  49.7603990 120.2430550
 126.1637850  61.1003930 120.5649520 125.7792640  60.4597600 121.1632480
 126.4750040  61.8040050 121.1344250 132.3134990  57.9480470 116.0458140
 132.6805120  57.4739040 116.7919480 132.1240050  58.8222040 116.3866480
 130.1034360  56.9889110 118.3642350 129.7991430  57.8681090 118.5892710
 131.0580820  57.0488900 118.3999790 128.6316150  61.1950100 108.9609200
 127.8578410  60.6547720 108.8007920 129.3610780  60.6756710 108.6226960
 139.3904130  60.1915460 114.7535590 140.1103250  60.6870750 114.3631700
 139.1885950  59.5133350 114.1089460 134.8514070  51.5853420 108.8964980
 134.0378680  51.0866590 108.8210290 134.6576020  52.4251670 108.4801330
 134.7722930  60.2624520 120.6404590 134.7060240  59.3420190 120.3862180
 134.1428070  60.3599960 121.3549230 137.5662460  55.9573070 107.1927140
 138.4542080  56.2690300 107.0178480 137.5367550  55.0845320 106.8007720
 128.6753550  60.8630480 112.5988010 129.1932220  60.0598740 112.5444900
 128.2237570  60.8009620 113.4404840 133.5623050  62.1296760 107.8715310
 133.9038750  62.8738990 107.3758630 132.7335760  62.4427880 108.2340140
 126.1598090  57.8291850 119.5113710 125.8013030  58.4945700 120.0987050
 125.8652650  56.9975400 119.8826330 129.3611210  58.2876090 122.3953260
 129.0611350  58.4333270 121.4981080 130.1322450  57.7281380 122.3026650
 134.7039660  63.0845090 120.3908390 134.7184200  62.1526050 120.1727300
 133.9964760  63.1704850 121.0298160 139.8376730  57.2684910 106.6607000
 139.7540450  57.6999130 105.8103440 140.5570920  57.7283260 107.0933820
 140.9150870  59.7252430 119.7376970 140.1899060  60.3181210 119.5406360
 141.4426330  59.7175970 118.9390340 140.8663980  64.1227170 109.3889130
 140.2240140  63.4682790 109.6632850 140.4794640  64.5282260 108.6129800
 136.4450460  61.4512600 113.2360820 136.7974280  60.8540730 112.5762190
 135.5612790  61.1256830 113.4069070 132.5313740  62.2110290 110.6431230
 133.2184870  62.7579500 111.0238820 131.7446160  62.7551020 110.6780840
 131.8340950  59.2156320 110.2556590 132.2903730  60.0261570 110.4816780
 131.4829160  58.8979460 111.0875080 134.1373560  64.7262660 117.4848890
 134.7815780  64.9322040 118.1622310 134.5003000  63.9651060 117.0319740
 127.7352730  49.5593970 110.7279110 127.6067360  49.5511870 111.6764030
 126.9114750  49.8977060 110.3770120 135.4105640  62.7295010 116.2026340
 136.0527870  62.0288170 116.3158510 135.9354990  63.5093450 116.0223230
 139.2561360  63.0143630 105.9265480 139.0298940  62.2974070 106.5190120
 138.8657560  62.7656070 105.0887230 137.1843260  63.5289910 119.4062400
 137.5199500  64.1156600 120.0840320 136.2643600  63.3982620 119.6360190
 124.7346660  51.3185090 120.1885810 124.0205180  51.5182010 120.7938420
 125.1541700  50.5424660 120.5600610 138.8377610  60.9315570 107.5879640
 138.5499310  61.3928260 108.3757520 139.6329780  60.4713340 107.8563860
 125.0219250  65.3065350 121.1752340 125.1310370  64.3660090 121.0347730
 124.3699810  65.5720100 120.5266070 133.0131840  63.5781240 122.5750460
 132.6928710  62.8590480 123.1196150 132.3390200  64.2536310 122.6486520
 131.0546010  64.4241690 107.5183610 131.0456110  65.1571380 106.9028120
 130.1344370  64.1773270 107.6110570 126.6552650  59.6456580 108.2630370
 126.0480600  60.3855480 108.2725670 127.1302000  59.7355940 107.4368570
 136.2285440  53.8107400 117.9387260 136.5966260  52.9902610 118.2666830
 135.3683640  53.8709290 118.3542910 139.5947470  52.7664340 108.7474820
 138.9660630  52.8710010 108.0333050 139.0999390  52.9861120 109.5368700
 134.0405610  64.4869930 106.1808800 134.1417590  64.2833920 105.2510780
 133.1407350  64.2328210 106.3856580 131.5631500  55.0450290 110.1632700
 130.8547650  55.5136630 110.6046310 131.8475980  54.3872300 110.7977890
 133.1887430  56.4646990 118.1625230 133.6872680  56.9392810 118.8277080
 133.3310380  55.5410510 118.3695260 135.5946930  51.7700950 111.6028490
 135.4714710  51.7887080 110.6538000 136.5431490  51.8179890 111.7226890
 132.6823720  67.0056250 110.8756470 132.9365220  66.9677640 109.9535840
 131.7336200  66.8789580 110.8684720 129.7666520  53.3535370 107.5383410
 130.6157050  53.7905520 107.4723600 129.3997790  53.6655630 108.3655470
 140.3954290  52.6814950 119.0053620 139.8927890  53.4220350 119.3447430
 141.2110950  53.0698950 118.6890410 138.6876300  57.9248130 112.4514980
 137.7466440  57.9398360 112.6262670 139.0020370  57.1384090 112.8975280
 128.6657940  59.6067730 106.0118940 129.4321210  59.4949090 106.5744370
 128.7432630  58.9105700 105.3595710 140.6901880  65.0956980 114.1269240
 140.8149300  65.9188150 114.5993050 141.5567440  64.8847710 113.7793390
 128.1619410  67.1888190 113.7986370 128.8981890  66.6403650 114.0694940
 128.5460330  68.0544200 113.6592360 125.0464890  63.2561760 109.6727880
 124.1204670  63.4982900 109.6633290 125.5121320  64.0836020 109.5512630
 127.1677690  66.3734260 122.9871950 127.9690420  66.6946310 123.4007350
 126.6529510  66.0129840 123.7091860 131.2721720  66.3618500 105.6211940
 132.0650330  66.6507330 105.1693730 130.7526070  65.9310670 104.9424420
 136.0042320  62.4814130 122.9347360 135.3980480  62.5045730 122.1943110
 135.6996430  61.7497170 123.4714610 137.4342690  66.2094420 121.5456770
 138.3864440  66.1252440 121.4957010 137.2870910  66.8736130 122.2190560
 140.3251890  65.5888630 107.0448680 140.0393400  65.1753770 106.2302860
 140.1271440  66.5176340 106.9249200 124.8875500  58.8607720 121.9308000
 125.3914520  58.2815000 122.5024230 124.1482920  59.1447950 122.4684370
 131.7899120  61.5821910 105.4854290 131.6849760  60.9674260 106.2115670
 131.6223340  61.0587800 104.7017300 131.9413440  60.2678710 121.4643520
 131.1759110  60.8363710 121.3798190 132.1229400  59.9754920 120.5711750
 135.0301850  60.6441940 106.0896280 134.4811950  61.0911240 106.7339020
 135.6521110  60.1391190 106.6133950 139.0836790  61.9984040 122.0218540
 139.8246260  62.3359800 121.5186000 138.3209470  62.1676100 121.4688310
 126.9198580  57.0037310 122.8258070 126.9603920  56.7051180 123.7343300
 127.7744080  57.4044920 122.6665590 130.6976970  59.6032860 107.9861580
 131.1193390  59.4372730 108.8292970 130.8227810  58.7933090 107.4916720
 128.8604390  55.5829410 120.7932560 128.3300850  55.0920360 120.1655900
 129.5292460  56.0113610 120.2590490 133.2104610  58.6270470 105.2338680
 133.7310270  57.9119490 104.8679830 133.8573010  59.2656340 105.5339190
 137.7582450  60.0498870 120.5573750 138.1723470  60.2043950 121.4064170
 136.8233450  60.1754090 120.7199530 138.2304620  57.3895030 122.5612900
 138.8125390  56.6347350 122.4733380 138.4066390  57.9202470 121.7844380
 129.3476690  52.5491780 120.8729850 129.2533560  51.9312530 120.1480720
 128.7674080  53.2758070 120.6459760 132.1138130  51.1065020 117.9057240
 131.6655430  51.1289280 117.0602790 131.4803330  50.7084040 118.5027540
 132.5197680  60.0019350 118.5269680 132.9385790  60.8452080 118.3545920
 131.6006310  60.1391390 118.2976460 134.8561580  57.7335530 119.9107520
 134.9757790  57.1376670 120.6502360 135.7155580  57.7705220 119.4908820
 137.1949480  58.2872720 118.4870030 136.6684700  58.8115340 117.8835170
 137.5380820  58.9200110 119.1179760 130.3705100  66.3072360 119.6427410
 129.8326190  67.0318420 119.3236110 130.6239060  65.8302700 118.8524750
 131.6230350  54.2756880 121.1683340 132.2130040  53.9672730 121.8561160
 130.8050590  53.8036630 121.3243240 136.4423780  53.8922690 121.4016360
 135.7539300  53.2304230 121.3366350 137.1629800  53.4460960 121.8464820
 137.0724180  50.4874320 107.4606620 137.3526470  49.6442220 107.8166040
 136.2989910  50.7197430 107.9745370 133.2267310  67.5423570 119.9014060
 133.1526010  68.4458710 120.2086430 132.3246150  67.2235470 119.8736130
 133.7752640  66.7082080 107.5240420 134.6703430  67.0467050 107.5459180
 133.8070270  65.9861490 106.8964700 127.4148800  62.0809130 105.7527420
 127.8523670  62.6238800 106.4085000 127.8996530  61.2556080 105.7623760
 124.6294600  64.8698160 113.2047680 124.9597610  64.0019220 112.9726320
 125.0585600  65.0756680 114.0352640 129.2256520  63.2007170 110.8649650
 128.9252060  63.0772140 111.7653560 129.1194010  62.3415760 110.4565380
 125.1184810  65.7368750 115.9429310 124.6815800  65.9169550 116.7753460
 125.6862490  66.4943370 115.8011030 140.7546990  65.2385750 120.2306620
 140.1548980  65.2978310 119.4870540 140.8840890  64.2990730 120.3603470
 141.9948440  62.9803570 105.5676330 141.1641400  63.0480220 106.0383560
 142.1720270  63.8707690 105.2643190 141.4504900  59.7251050 108.0710530
 142.2123810  60.2947700 108.1770220 141.4659270  59.1578250 108.8418840
 124.9509240  58.2488980 112.3018190 124.2958080  57.9800620 111.6577890
 125.7887190  58.1393460 111.8520170 142.4564870  60.5801150 112.9152460
 142.8273700  59.7968470 112.5088430 143.0966800  61.2690250 112.7369760
 139.4398630  61.9637730 118.3282780 138.6258470  62.3934890 118.5908570
 139.8472830  62.5756140 117.7151830 141.5024070  60.0185420 105.2283050
 141.7772910  60.9264300 105.1002270 141.3134810  59.9547950 106.1645040
 137.8999680  53.0430270 106.5236680 138.3184560  52.8561250 105.6833340
 137.5935740  52.1909320 106.8339610 141.3989410  57.9554410 110.2212480
 141.0233010  57.1882340 109.7893770 140.6692530  58.3377110 110.7087410
 125.9885170  58.6341550 116.8421530 126.3558210  58.5468950 117.7217550
 125.4195990  57.8708100 116.7428390 140.7889030  57.1025930 119.8552000
 140.5575120  56.8738680 118.9549950 141.0493580  58.0225480 119.8096890
 125.5401170  55.5450640 120.7479950 124.6457220  55.5117400 121.0873660
 126.0798720  55.7437430 121.5131200 139.2277100  52.3282360 122.6331700
 140.1047280  52.3365760 123.0165700 139.2397940  51.5913200 122.0224050
 124.1647320  55.4587910 108.2443520 123.2611400  55.7218110 108.0695180
 124.6487940  55.7299080 107.4643480 140.6740370  56.1811900 113.5219720
 141.1977850  55.6874550 112.8909890 141.2599790  56.3162260 114.2667290
 140.8530090  56.2651770 117.0439270 139.9032800  56.2315310 117.1584260
 141.0343100  57.1751880 116.8089040 126.3548690  50.5692780 105.1940550
 127.0776820  51.1101720 105.5121770 126.6273210  50.2956200 104.3182090
 140.1640340  55.4385250 109.4612130 140.6599460  55.2056120 110.2461010
 139.9656410  54.5997090 109.0449770 126.0440880  49.8198970 115.0963170
 126.6917070  49.2696350 114.6558330 126.4642720  50.0742120 115.9178980
 141.5927500  54.0746200 111.9949810 141.4826780  53.9202240 112.9332080
 142.3535090  53.5467140 111.7525220 139.9393220  50.0140330 118.4532810
 140.5765440  50.6274470 118.8192000 140.0868110  50.0500990 117.5082040
 142.4817770  51.9054120 105.2355950 143.4067080  51.7735300 105.0274240
 142.4593560  51.9846940 106.1892400 142.5556260  52.6764780 107.8612660
 141.7607760  52.6109900 108.3905570 142.7599540  53.6115420 107.8498010
 139.4974680  66.7156330 111.8551050 140.0933750  66.3940900 111.1785470
 139.7552830  66.2428150 112.6464320 125.7972880  49.9754640 117.8388490
 125.4487700  50.4318460 118.6046670 125.4660580  49.0811770 117.9210920
 127.4037250  63.1474240 122.0041680 127.3606880  62.7767150 122.8856140
 127.5348260  64.0851810 122.1443500 131.1043280  64.7033830 117.6051400
 130.8634640  64.9708390 116.7181920 132.0445920  64.8739560 117.6602260
 133.3097700  51.1666520 121.3607910 133.2486590  51.7588350 122.1103320
 134.2498080  51.0592480 121.2158170 135.9472260  50.8236580 121.0000200
 136.5612670  51.1415870 120.3381280 136.4921820  50.3385170 121.6196060
 142.3647440  66.7228210 118.4062040 141.8705720  67.1197080 117.6889170
 141.7560730  66.0977420 118.7999320 126.4693520  49.5030840 121.1139260
 127.0176510  49.3218890 120.3505370 126.5348830  48.7124950 121.6495570
 127.2425280  66.0936490 119.1239460 126.6485600  65.9621190 119.8629500
 127.2349120  65.2574630 118.6581560 136.6880300  49.3868720 117.3269490
 135.8140140  49.7203830 117.1242420 136.5791050  48.9141900 118.1521360
 137.5952280  51.5939590 118.7111210 137.2665640  50.7791350 118.3312940
 138.5434580  51.5509400 118.5876900 140.0486890  67.3651630 115.6848780
 139.5889860  68.1167440 115.3106800 139.4199350  66.6458100 115.6263580
 126.8737510  63.4594870 118.0747500 126.1471570  62.8400160 118.0073450
 126.9346660  63.8535480 117.2045580 130.4782610  65.6739870 114.8596910
 130.9947630  65.0627230 114.3345170 131.1279990  66.1768650 115.3507920
 133.2178110  66.5648360 115.6865890 133.5055920  66.3102660 114.8098900
 133.7301330  66.0125720 116.2771460 134.4355120  50.3038560 116.2662400
 133.6526910  50.7784060 116.5459160 134.1418050  49.3993390 116.1575580
 138.9876190  51.0061660 114.3111490 139.4284280  50.9506760 113.4633090
 138.7183780  51.9219670 114.3821670 140.8514760  50.6376900 112.3220310
 140.7903160  49.6938120 112.1751330 141.6306790  50.7456990 112.8673770
 125.1567510  66.7769260 111.2844260 124.9889550  66.1439940 111.9826150
 124.2902020  66.9828660 110.9338450 125.7795530  50.6086040 108.7876120
 126.5374890  50.7214920 108.2140150 125.3172700  51.4455240 108.7419550
 132.3209340  52.7225310 111.7778430 131.5083850  52.3482200 111.4374310
 132.8250980  51.9670390 112.0799620 136.8234320  49.3867760 113.0161500
 137.4263690  49.9587970 113.4910020 136.0827310  49.9507200 112.7935400
 139.9668920  49.7889320 108.2901780 140.1619550  50.6872770 108.5569210
 139.1798790  49.5576400 108.7834730 126.7630210  65.4702490 108.7294400
 126.2377830  65.8510520 108.0256360 126.6874790  66.0953260 109.4504110
 128.1520680  51.1350090 107.3278090 128.6813440  50.3479890 107.1986040
 128.7849000  51.8141280 107.5613620 130.3458520  50.8725230 110.3823480
 129.7161260  50.1712540 110.5493610 129.8063660  51.6329360 110.1656640
 133.2850470  67.4864460 123.0534090 134.2117780  67.2508730 123.0970050
 133.2700900  68.3136460 122.5720120 141.5195530  67.0290030 110.0508340
 141.6947720  66.3427770 109.4069260 140.8217100  67.5537080 109.6585010
 130.4714080  50.1509210 122.8175970 130.1898350  50.6542810 122.0536790
 130.8533780  49.3530960 122.4518100 129.3623180  67.4184870 107.6043650
 130.0942000  67.1344150 107.0567540 129.6216850  67.1798150 108.4943030
 128.5237970  63.5349600 107.6089980 127.8946850  64.0034700 108.1575810
 128.6385800  62.6898820 108.0436170 137.0729540  49.5662790 123.3956440
 136.9594990  49.8857400 124.2907960 137.8899280  49.9675300 123.0993720
 139.8528030  66.7134320 122.8775130 140.6453350  66.2183550 122.6701090
 140.1461180  67.3924460 123.4850740 138.1313160  63.7694470  94.4199580
 137.6694690  62.9981710  94.7486750 138.9438710  63.7960540  94.9252030
 126.5363510  54.6355980  90.3018600 125.6480210  54.9771950  90.1998480
 126.8204700  54.4356300  89.4099430 134.5819890  54.8461850  95.8739540
 134.9584710  53.9733730  95.7613210 134.4839400  55.1820550  94.9829980
 138.3644010  52.3412290  92.8067880 139.1853630  51.8508860  92.8493360
 138.3978090  52.9309950  93.5599720 142.6543560  54.3579040  99.3711510
 141.9495730  54.7460750  98.8526620 142.9201480  55.0529330  99.9732440
 138.6005490  54.2812670  95.5795420 137.8961060  54.5697560  96.1598530
 138.9617650  55.0912780  95.2194980 140.2168270  63.8987800  97.8422900
 139.5331790  64.5686910  97.8339570 140.7562560  64.0968450  97.0767760
 141.6692410  53.7267460  95.9704630 140.7217320  53.7606440  96.1020060
 141.9942400  54.5406410  96.3553990 137.7527010  65.7431930  96.5568080
 137.7654170  65.3394220  95.6890340 137.2002230  66.5179220  96.4529510
 139.0472430  62.4648150  91.6458250 138.9368760  61.5222480  91.7707670
 139.0440680  62.8263790  92.5321010 137.1512450  60.6461770  97.8850690
 137.5681240  60.4321880  97.0504150 137.8752270  60.9034560  98.4559310
 134.5761790  54.3630470  87.9987900 133.6365460  54.5244430  88.0840360
 134.8945050  55.0816150  87.4523890 141.0974550  59.0448990  97.9766930
 140.2693180  59.1142080  97.5017060 141.6925030  59.6303300  97.5082760
 138.6190000  59.6533770  91.5055990 138.0002420  59.3153320  90.8582290
 138.6014450  59.0093530  92.2135180 138.0616560  55.8318310  98.9221800
 137.6487740  56.6572020  99.1761790 137.3292510  55.2463350  98.7298160
 128.9077970  55.3921420  97.5639510 129.4592560  55.5016760  96.7892760
 129.4221480  55.7659020  98.2794740 138.7516660  65.8777640  99.6102780
 138.2747220  66.6849830  99.4175390 138.0678450  65.2255970  99.7628990
 129.7549480  62.0427460 102.5987480 128.8578010  62.2667430 102.8460880
 129.7802350  62.1662400 101.6498880 136.7954700  58.8920580  88.5128740
 137.2347980  58.0543010  88.3666560 137.5083120  59.5249980  88.5992880
 134.9050080  63.8316650  92.4809980 135.3445990  64.5740980  92.0665370
 134.8436970  64.0743220  93.4048940 130.3801050  64.8562480 103.3830000
 130.3516480  65.2605430 102.5158430 130.2166020  63.9272840 103.2201600
 140.3771840  50.1463390  86.8269780 140.0644500  50.2390220  87.7268850
 141.1384310  50.7244420  86.7767210 142.3315870  65.6389580 104.6794170
 142.8075590  66.1172470 105.3583250 142.9523030  65.5707070 103.9539670
 141.7349120  62.8302430 101.8394180 141.8612180  62.5914310 100.9211360
 141.7770500  61.9986970 102.3116260 135.5965860  66.5330430 100.4088990
 136.1110530  66.4438440 101.2111420 134.7534940  66.8790130 100.7016900
 141.5873130  54.8834890 102.8043920 140.9717400  55.3914560 102.2759380
 141.2669550  53.9833220 102.7469860 138.6491960  54.9435730 101.4002770
 137.7985550  54.6441480 101.7211840 138.4893750  55.1877740 100.4886590
 135.7441670  56.4437480 103.5001560 136.0695080  55.6101230 103.1603790
 136.5322000  56.9666000 103.6479890 131.5931070  56.8777410 103.0612310
 131.4974670  55.9372140 102.9112710 132.4363050  57.0992480 102.6660380
 134.9894490  54.6218740  93.0245970 135.3824060  54.9390940  92.2114660
 135.3511340  53.7430620  93.1390490 135.5749630  57.2124490  97.1196750
 134.8430750  57.7211300  97.4686850 135.1773970  56.3954470  96.8185530
 136.0375540  52.6658170  96.5319690 136.0548280  53.1166820  97.3761540
 135.7891120  51.7663810  96.7453130 139.4646290  50.0790350 102.3706070
 139.7892060  49.3480010 102.8964050 139.5002800  49.7603990 101.4687060
 130.1034360  56.9889110  99.5898860 129.7991430  57.8681090  99.8149220
 131.0580820  57.0488900  99.6256300 139.3904130  60.1915460  95.9792100
 140.1103250  60.6870750  95.5888210 139.1885950  59.5133350  95.3345970
 134.8514070  51.5853420  90.1221490 134.0378680  51.0866590  90.0466800
 134.6576020  52.4251670  89.7057840 134.7722930  60.2624520 101.8661100
 134.7060240  59.3420190 101.6118690 134.1428070  60.3599960 102.5805740
 137.5662460  55.9573070  88.4183650 138.4542080  56.2690300  88.2434990
 137.5367550  55.0845320  88.0264230 133.5623050  62.1296760  89.0971820
 133.9038750  62.8738990  88.6015140 132.7335760  62.4427880  89.4596650
 134.7039660  63.0845090 101.6164900 134.7184200  62.1526050 101.3983810
 133.9964760  63.1704850 102.2554670 139.8376730  57.2684910  87.8863510
 139.7540450  57.6999130  87.0359950 140.5570920  57.7283260  88.3190330
 140.9150870  59.7252430 100.9633480 140.1899060  60.3181210 100.7662870
 141.4426330  59.7175970 100.1646850 140.8663980  64.1227170  90.6145640
 140.2240140  63.4682790  90.8889360 140.4794640  64.5282260  89.8386310
 124.6706140  57.8283110  87.3604820 125.5400990  58.1107910  87.6440740
 124.1796460  58.6418980  87.2453630 134.1373560  64.7262660  98.7105400
 134.7815780  64.9322040  99.3878820 134.5003000  63.9651060  98.2576250
 127.7352730  49.5593970  91.9535620 127.6067360  49.5511870  92.9020540
 126.9114750  49.8977060  91.6026630 135.4105640  62.7295010  97.4282850
 136.0527870  62.0288170  97.5415020 135.9354990  63.5093450  97.2479740
 137.1843260  63.5289910 100.6318910 137.5199500  64.1156600 101.3096830
 136.2643600  63.3982620 100.8616700 125.0377390  67.0410490  87.9266450
 125.3975030  67.6399830  87.2723720 124.8969730  67.5870380  88.7001480
 138.8377610  60.9315570  88.8136150 138.5499310  61.3928260  89.6014030
 139.6329780  60.4713340  89.0820370 125.0219250  65.3065350 102.4008850
 125.1310370  64.3660090 102.2604240 124.3699810  65.5720100 101.7522580
 133.0131840  63.5781240 103.8006970 132.6928710  62.8590480 104.3452660
 132.3390200  64.2536310 103.8743030 136.2285440  53.8107400  99.1643770
 136.5966260  52.9902610  99.4923340 135.3683640  53.8709290  99.5799420
 139.5947470  52.7664340  89.9731330 138.9660630  52.8710010  89.2589560
 139.0999390  52.9861120  90.7625210 133.1887430  56.4646990  99.3881740
 133.6872680  56.9392810 100.0533590 133.3310380  55.5410510  99.5951770
 135.5946930  51.7700950  92.8285000 135.4714710  51.7887080  91.8794510
 136.5431490  51.8179890  92.9483400 129.7666520  53.3535370  88.7639920
 130.6157050  53.7905520  88.6980110 129.3997790  53.6655630  89.5911980
 140.3954290  52.6814950 100.2310130 139.8927890  53.4220350 100.5703940
 141.2110950  53.0698950  99.9146920 138.6876300  57.9248130  93.6771490
 137.7466440  57.9398360  93.8519180 139.0020370  57.1384090  94.1231790
 128.6657940  59.6067730  87.2375450 129.4321210  59.4949090  87.8000880
 128.7432630  58.9105700  86.5852220 127.3604700  57.0392800  87.9208340
 127.4408290  56.0920310  88.0325740 128.2524450  57.3699680  88.0269000
 140.6901880  65.0956980  95.3525750 140.8149300  65.9188150  95.8249560
 141.5567440  64.8847710  95.0049900 127.1677690  66.3734260 104.2128460
 127.9690420  66.6946310 104.6263860 126.6529510  66.0129840 104.9348370
 136.0042320  62.4814130 104.1603870 135.3980480  62.5045730 103.4199620
 135.6996430  61.7497170 104.6971120 137.4342690  66.2094420 102.7713280
 138.3864440  66.1252440 102.7213520 137.2870910  66.8736130 103.4447070
 131.7899120  61.5821910  86.7110800 131.6849760  60.9674260  87.4372180
 131.6223340  61.0587800  85.9273810 131.9413440  60.2678710 102.6900030
 131.1759110  60.8363710 102.6054700 132.1229400  59.9754920 101.7968260
 135.0301850  60.6441940  87.3152790 134.4811950  61.0911240  87.9595530
 135.6521110  60.1391190  87.8390460 139.0836790  61.9984040 103.2475050
 139.8246260  62.3359800 102.7442510 138.3209470  62.1676100 102.6944820
 133.2104610  58.6270470  86.4595190 133.7310270  57.9119490  86.0936340
 133.8573010  59.2656340  86.7595700 137.7582450  60.0498870 101.7830260
 138.1723470  60.2043950 102.6320680 136.8233450  60.1754090 101.9456040
 138.2304620  57.3895030 103.7869410 138.8125390  56.6347350 103.6989890
 138.4066390  57.9202470 103.0100890 132.5197680  60.0019350  99.7526190
 132.9385790  60.8452080  99.5802430 131.6006310  60.1391390  99.5232970
 134.8561580  57.7335530 101.1364030 134.9757790  57.1376670 101.8758870
 135.7155580  57.7705220 100.7165330 137.1949480  58.2872720  99.7126540
 136.6684700  58.8115340  99.1091680 137.5380820  58.9200110 100.3436270
 129.5935870  55.6766090  86.1576250 129.3924930  54.8133450  86.5189590
 129.4227920  55.5899450  85.2197850 130.3705100  66.3072360 100.8683920
 129.8326190  67.0318420 100.5492620 130.6239060  65.8302700 100.0781260
 136.4423780  53.8922690 102.6272870 135.7539300  53.2304230 102.5622860
 137.1629800  53.4460960 103.0721330 137.0724180  50.4874320  88.6863130
 137.3526470  49.6442220  89.0422550 136.2989910  50.7197430  89.2001880
 128.3918670  52.7766710  86.1454130 128.6944570  52.7834140  85.2373280
 129.1313260  52.4264570  86.6421790 133.2267310  67.5423570 101.1270570
 133.1526010  68.4458710 101.4342940 132.3246150  67.2235470 101.0992640
 131.6103600  51.7201330  87.1310330 131.2625600  51.0425320  86.5512780
 131.8116370  51.2590840  87.9453720 127.4148800  62.0809130  86.9783930
 127.8523670  62.6238800  87.6341510 127.8996530  61.2556080  86.9880270
 140.7546990  65.2385750 101.4563130 140.1548980  65.2978310 100.7127050
 140.8840890  64.2990730 101.5859980 141.9948440  62.9803570  86.7932840
 141.1641400  63.0480220  87.2640070 142.1720270  63.8707690  86.4899700
 141.4504900  59.7251050  89.2967040 142.2123810  60.2947700  89.4026730
 141.4659270  59.1578250  90.0675350 142.4564870  60.5801150  94.1408970
 142.8273700  59.7968470  93.7344940 143.0966800  61.2690250  93.9626270
 139.4398630  61.9637730  99.5539290 138.6258470  62.3934890  99.8165080
 139.8472830  62.5756140  98.9408340 141.5024070  60.0185420  86.4539560
 141.7772910  60.9264300  86.3258780 141.3134810  59.9547950  87.3901550
 137.8999680  53.0430270  87.7493190 138.3184560  52.8561250  86.9089850
 137.5935740  52.1909320  88.0596120 141.3989410  57.9554410  91.4468990
 141.0233010  57.1882340  91.0150280 140.6692530  58.3377110  91.9343920
 140.7889030  57.1025930 101.0808510 140.5575120  56.8738680 100.1806460
 141.0493580  58.0225480 101.0353400 139.2277100  52.3282360 103.8588210
 140.1047280  52.3365760 104.2422210 139.2397940  51.5913200 103.2480560
 124.1647320  55.4587910  89.4700030 123.2611400  55.7218110  89.2951690
 124.6487940  55.7299080  88.6899990 140.6740370  56.1811900  94.7476230
 141.1977850  55.6874550  94.1166400 141.2599790  56.3162260  95.4923800
 140.8530090  56.2651770  98.2695780 139.9032800  56.2315310  98.3840770
 141.0343100  57.1751880  98.0345550 126.7074530  54.5153450  87.3794410
 127.4166230  54.0936670  86.8941690 125.9914470  54.5828680  86.7477760
 126.3548690  50.5692780  86.4197060 127.0776820  51.1101720  86.7378280
 126.6273210  50.2956200  85.5438600 140.1640340  55.4385250  90.6868640
 140.6599460  55.2056120  91.4717520 139.9656410  54.5997090  90.2706280
 141.5927500  54.0746200  93.2206320 141.4826780  53.9202240  94.1588590
 142.3535090  53.5467140  92.9781730 139.9393220  50.0140330  99.6789320
 140.5765440  50.6274470 100.0448510 140.0868110  50.0500990  98.7338550
 142.4817770  51.9054120  86.4612460 143.4067080  51.7735300  86.2530750
 142.4593560  51.9846940  87.4148910 142.5556260  52.6764780  89.0869170
 141.7607760  52.6109900  89.6162080 142.7599540  53.6115420  89.0754520
 127.4037250  63.1474240 103.2298190 127.3606880  62.7767150 104.1112650
 127.5348260  64.0851810 103.3700010 135.9472260  50.8236580 102.2256710
 136.5612670  51.1415870 101.5637790 136.4921820  50.3385170 102.8452570
 142.3647440  66.7228210  99.6318550 141.8705720  67.1197080  98.9145680
 141.7560730  66.0977420 100.0255830 127.2425280  66.0936490 100.3495970
 126.6485600  65.9621190 101.0886010 127.2349120  65.2574630  99.8838070
 136.6880300  49.3868720  98.5526000 135.8140140  49.7203830  98.3498930
 136.5791050  48.9141900  99.3777870 137.5952280  51.5939590  99.9367720
 137.2665640  50.7791350  99.5569450 138.5434580  51.5509400  99.8133410
 140.0486890  67.3651630  96.9105290 139.5889860  68.1167440  96.5363310
 139.4199350  66.6458100  96.8520090 133.2178110  66.5648360  96.9122400
 133.5055920  66.3102660  96.0355410 133.7301330  66.0125720  97.5027970
 138.9876190  51.0061660  95.5368000 139.4284280  50.9506760  94.6889600
 138.7183780  51.9219670  95.6078180 140.8514760  50.6376900  93.5476820
 140.7903160  49.6938120  93.4007840 141.6306790  50.7456990  94.0930280
 125.1567510  66.7769260  92.5100770 124.9889550  66.1439940  93.2082660
 124.2902020  66.9828660  92.1594960 125.7795530  50.6086040  90.0132630
 126.5374890  50.7214920  89.4396660 125.3172700  51.4455240  89.9676060
 136.8234320  49.3867760  94.2418010 137.4263690  49.9587970  94.7166530
 136.0827310  49.9507200  94.0191910 139.9668920  49.7889320  89.5158290
 140.1619550  50.6872770  89.7825720 139.1798790  49.5576400  90.0091240
 128.1520680  51.1350090  88.5534600 128.6813440  50.3479890  88.4242550
 128.7849000  51.8141280  88.7870130 133.2850470  67.4864460 104.2790600
 134.2117780  67.2508730 104.3226560 133.2700900  68.3136460 103.7976630
 141.5195530  67.0290030  91.2764850 141.6947720  66.3427770  90.6325770
 140.8217100  67.5537080  90.8841520 128.5237970  63.5349600  88.8346490
 127.8946850  64.0034700  89.3832320 128.6385800  62.6898820  89.2692680
 137.0729540  49.5662790 104.6212950 136.9594990  49.8857400 105.5164470
 137.8899280  49.9675300 104.3250230 139.8528030  66.7134320 104.1031640
 140.6453350  66.2183550 103.8957600 140.1461180  67.3924460 104.7107250
 126.5363510  54.6355980  71.5275110 125.6480210  54.9771950  71.4254990
 126.8204700  54.4356300  70.6355940 134.5819890  54.8461850  77.0996050
 134.9584710  53.9733730  76.9869720 134.4839400  55.1820550  76.2086490
 128.7124900  53.2187480  72.5613490 128.8191650  54.1191210  72.8682250
 127.8017260  53.1705450  72.2708140 138.3644010  52.3412290  74.0324390
 139.1853630  51.8508860  74.0749870 138.3978090  52.9309950  74.7856230
 126.3608060  55.1406490  77.8066080 127.0418170  55.4044860  78.4253480
 126.0456110  54.3007360  78.1404090 130.5532630  56.1873850  76.8938670
 131.0610850  56.6854820  77.5343690 131.0845870  55.4109050  76.7178030
 142.6543560  54.3579040  80.5968020 141.9495730  54.7460750  80.0783130
 142.9201480  55.0529330  81.1988950 130.0871580  60.4667590  79.3375590
 129.7540960  61.0936510  79.9796660 130.2638260  60.9929470  78.5577260
 138.6005490  54.2812670  76.8051930 137.8961060  54.5697560  77.3855040
 138.9617650  55.0912780  76.4451490 124.5923020  61.6248250  70.0331620
 124.2151000  62.1135350  69.3016520 124.8496090  62.2973530  70.6638150
 140.2168270  63.8987800  79.0679410 139.5331790  64.5686910  79.0596080
 140.7562560  64.0968450  78.3024270 141.6692410  53.7267460  77.1961140
 140.7217320  53.7606440  77.3276570 141.9942400  54.5406410  77.5810500
 132.2011950  50.0264640  75.4917130 132.5086930  49.4711530  74.7752630
 131.2712650  50.1609100  75.3090120 137.7527010  65.7431930  77.7824590
 137.7654170  65.3394220  76.9146850 137.2002230  66.5179220  77.6786020
 134.5761790  54.3630470  69.2244410 133.6365460  54.5244430  69.3096870
 134.8945050  55.0816150  68.6780400 141.0974550  59.0448990  79.2023440
 140.2693180  59.1142080  78.7273570 141.6925030  59.6303300  78.7339270
 138.0616560  55.8318310  80.1478310 137.6487740  56.6572020  80.4018300
 137.3292510  55.2463350  79.9554670 130.1949350  58.6178210  75.0096980
 129.7906350  57.9055460  74.5142880 130.2812470  58.2731450  75.8985020
 128.9077970  55.3921420  78.7896020 129.4592560  55.5016760  78.0149270
 129.4221480  55.7659020  79.5051250 129.7549480  62.0427460  83.8243990
 128.8578010  62.2667430  84.0717390 129.7802350  62.1662400  82.8755390
 128.5820700  58.9140780  82.4001360 128.4428470  59.7863580  82.7688760
 127.7002060  58.5713590  82.2549300 130.3801050  64.8562480  84.6086510
 130.3516480  65.2605430  83.7414940 130.2166020  63.9272840  84.4458110
 140.3771840  50.1463390  68.0526290 140.0644500  50.2390220  68.9525360
 141.1384310  50.7244420  68.0023720 126.8953980  57.5123190  72.5103630
 126.7751580  58.2385280  71.8984900 126.5854870  56.7426100  72.0331540
 141.7349120  62.8302430  83.0650690 141.8612180  62.5914310  82.1467870
 141.7770500  61.9986970  83.5372770 141.5873130  54.8834890  84.0300430
 140.9717400  55.3914560  83.5015890 141.2669550  53.9833220  83.9726370
 129.3617640  50.8558260  75.8927300 128.9185790  51.6367800  75.5611820
 129.9202630  51.1788150  76.5998240 133.6487450  53.7226780  81.4962620
 133.1866820  53.9309800  82.3082560 133.2465560  52.9086130  81.1933290
 138.6491960  54.9435730  82.6259280 137.7985550  54.6441480  82.9468350
 138.4893750  55.1877740  81.7143100 135.7441670  56.4437480  84.7258070
 136.0695080  55.6101230  84.3860300 136.5322000  56.9666000  84.8736400
 132.4776460  50.4768960  70.7733130 131.8530640  50.4728830  71.4986440
 132.3906580  49.6099920  70.3769100 131.3993540  51.4005590  77.7516900
 131.6965870  52.3068420  77.6708920 131.9479100  50.9124370  77.1376470
 129.1531860  55.9791830  73.6208550 128.9272780  55.7629000  74.5255170
 128.3724390  56.4120290  73.2754520 131.5931070  56.8777410  84.2868820
 131.4974670  55.9372140  84.1369220 132.4363050  57.0992480  83.8916890
 134.9894490  54.6218740  74.2502480 135.3824060  54.9390940  73.4371170
 135.3511340  53.7430620  74.3647000 133.2986660  53.3726050  85.5099340
 132.6084980  53.1798250  86.1445430 134.0418960  53.6560690  86.0423640
 124.0258660  51.2119540  76.4732680 123.7371710  51.7822400  77.1857660
 124.7704420  50.7323990  76.8363910 124.2128890  55.1539660  67.6835400
 124.1303560  56.0970420  67.8250390 123.8611950  55.0114570  66.8047750
 135.5749630  57.2124490  78.3453260 134.8430750  57.7211300  78.6943360
 135.1773970  56.3954470  78.0442040 132.0127020  53.8878690  76.7505750
 132.0163080  53.4468640  75.9010290 132.9078140  54.2096020  76.8577570
 127.8629400  53.7705180  75.7099960 127.5229450  54.2480410  76.4667010
 127.1006720  53.3170300  75.3501060 132.0747170  54.8890770  69.7412510
 132.1959990  54.8477250  70.6898330 131.6895680  55.7514920  69.5859240
 136.0375540  52.6658170  77.7576200 136.0548280  53.1166820  78.6018050
 135.7891120  51.7663810  77.9709640 131.0868670  57.1991910  69.1395810
 130.5185570  56.7510160  68.5131720 131.7957670  57.5584690  68.6060960
 139.4646290  50.0790350  83.5962580 139.7892060  49.3480010  84.1220560
 139.5002800  49.7603990  82.6943570 126.1637850  61.1003930  83.0162540
 125.7792640  60.4597600  83.6145500 126.4750040  61.8040050  83.5857270
 132.3134990  57.9480470  78.4971160 132.6805120  57.4739040  79.2432500
 132.1240050  58.8222040  78.8379500 125.1775480  52.6924160  74.6264630
 124.8922400  52.3279830  75.4643250 125.1154340  51.9604620  74.0127770
 130.1034360  56.9889110  80.8155370 129.7991430  57.8681090  81.0405730
 131.0580820  57.0488900  80.8512810 128.6316150  61.1950100  71.4122220
 127.8578410  60.6547720  71.2520940 129.3610780  60.6756710  71.0739980
 134.8514070  51.5853420  71.3478000 134.0378680  51.0866590  71.2723310
 134.6576020  52.4251670  70.9314350 134.7722930  60.2624520  83.0917610
 134.7060240  59.3420190  82.8375200 134.1428070  60.3599960  83.8062250
 137.5662460  55.9573070  69.6440160 138.4542080  56.2690300  69.4691500
 137.5367550  55.0845320  69.2520740 129.3611210  58.2876090  84.8466280
 129.0611350  58.4333270  83.9494100 130.1322450  57.7281380  84.7539670
 134.7039660  63.0845090  82.8421410 134.7184200  62.1526050  82.6240320
 133.9964760  63.1704850  83.4811180 139.8376730  57.2684910  69.1120020
 139.7540450  57.6999130  68.2616460 140.5570920  57.7283260  69.5446840
 140.9150870  59.7252430  82.1889990 140.1899060  60.3181210  81.9919380
 141.4426330  59.7175970  81.3903360 140.8663980  64.1227170  71.8402150
 140.2240140  63.4682790  72.1145870 140.4794640  64.5282260  71.0642820
 124.6706140  57.8283110  68.5861330 125.5400990  58.1107910  68.8697250
 124.1796460  58.6418980  68.4710140 131.8340950  59.2156320  72.7069610
 132.2903730  60.0261570  72.9329800 131.4829160  58.8979460  73.5388100
 134.1373560  64.7262660  79.9361910 134.7815780  64.9322040  80.6135330
 134.5003000  63.9651060  79.4832760 127.7352730  49.5593970  73.1792130
 127.6067360  49.5511870  74.1277050 126.9114750  49.8977060  72.8283140
 139.2561360  63.0143630  68.3778500 139.0298940  62.2974070  68.9703140
 138.8657560  62.7656070  67.5400250 137.1843260  63.5289910  81.8575420
 137.5199500  64.1156600  82.5353340 136.2643600  63.3982620  82.0873210
 125.0377390  67.0410490  69.1522960 125.3975030  67.6399830  68.4980230
 124.8969730  67.5870380  69.9257990 125.0219250  65.3065350  83.6265360
 125.1310370  64.3660090  83.4860750 124.3699810  65.5720100  82.9779090
 133.0131840  63.5781240  85.0263480 132.6928710  62.8590480  85.5709170
 132.3390200  64.2536310  85.0999540 126.6552650  59.6456580  70.7143390
 126.0480600  60.3855480  70.7238690 127.1302000  59.7355940  69.8881590
 136.2285440  53.8107400  80.3900280 136.5966260  52.9902610  80.7179850
 135.3683640  53.8709290  80.8055930 139.5947470  52.7664340  71.1987840
 138.9660630  52.8710010  70.4846070 139.0999390  52.9861120  71.9881720
 131.5631500  55.0450290  72.6145720 130.8547650  55.5136630  73.0559330
 131.8475980  54.3872300  73.2490910 133.1887430  56.4646990  80.6138250
 133.6872680  56.9392810  81.2790100 133.3310380  55.5410510  80.8208280
 135.5946930  51.7700950  74.0541510 135.4714710  51.7887080  73.1051020
 136.5431490  51.8179890  74.1739910 129.7666520  53.3535370  69.9896430
 130.6157050  53.7905520  69.9236620 129.3997790  53.6655630  70.8168490
 140.3954290  52.6814950  81.4566640 139.8927890  53.4220350  81.7960450
 141.2110950  53.0698950  81.1403430 128.6657940  59.6067730  68.4631960
 129.4321210  59.4949090  69.0257390 128.7432630  58.9105700  67.8108730
 127.3604700  57.0392800  69.1464850 127.4408290  56.0920310  69.2582250
 128.2524450  57.3699680  69.2525510 140.6901880  65.0956980  76.5782260
 140.8149300  65.9188150  77.0506070 141.5567440  64.8847710  76.2306410
 131.2721720  66.3618500  68.0724960 132.0650330  66.6507330  67.6206750
 130.7526070  65.9310670  67.3937440 140.3251890  65.5888630  69.4961700
 140.0393400  65.1753770  68.6815880 140.1271440  66.5176340  69.3762220
 124.8875500  58.8607720  84.3821020 125.3914520  58.2815000  84.9537250
 124.1482920  59.1447950  84.9197390 131.9413440  60.2678710  83.9156540
 131.1759110  60.8363710  83.8311210 132.1229400  59.9754920  83.0224770
 126.9198580  57.0037310  85.2771090 126.9603920  56.7051180  86.1856320
 127.7744080  57.4044920  85.1178610 130.6976970  59.6032860  70.4374600
 131.1193390  59.4372730  71.2805990 130.8227810  58.7933090  69.9429740
 137.7582450  60.0498870  83.0086770 138.1723470  60.2043950  83.8577190
 136.8233450  60.1754090  83.1712550 138.2304620  57.3895030  85.0125920
 138.8125390  56.6347350  84.9246400 138.4066390  57.9202470  84.2357400
 132.1138130  51.1065020  80.3570260 131.6655430  51.1289280  79.5115810
 131.4803330  50.7084040  80.9540560 132.5197680  60.0019350  80.9782700
 132.9385790  60.8452080  80.8058940 131.6006310  60.1391390  80.7489480
 134.8561580  57.7335530  82.3620540 134.9757790  57.1376670  83.1015380
 135.7155580  57.7705220  81.9421840 137.1949480  58.2872720  80.9383050
 136.6684700  58.8115340  80.3348190 137.5380820  58.9200110  81.5692780
 129.5935870  55.6766090  67.3832760 129.3924930  54.8133450  67.7446100
 129.4227920  55.5899450  66.4454360 130.3705100  66.3072360  82.0940430
 129.8326190  67.0318420  81.7749130 130.6239060  65.8302700  81.3037770
 131.6230350  54.2756880  83.6196360 132.2130040  53.9672730  84.3074180
 130.8050590  53.8036630  83.7756260 136.4423780  53.8922690  83.8529380
 135.7539300  53.2304230  83.7879370 137.1629800  53.4460960  84.2977840
 137.0724180  50.4874320  69.9119640 137.3526470  49.6442220  70.2679060
 136.2989910  50.7197430  70.4258390 128.3918670  52.7766710  67.3710640
 128.6944570  52.7834140  66.4629790 129.1313260  52.4264570  67.8678300
 133.2267310  67.5423570  82.3527080 133.1526010  68.4458710  82.6599450
 132.3246150  67.2235470  82.3249150 131.6103600  51.7201330  68.3566840
 131.2625600  51.0425320  67.7769290 131.8116370  51.2590840  69.1710230
 127.4148800  62.0809130  68.2040440 127.8523670  62.6238800  68.8598020
 127.8996530  61.2556080  68.2136780 141.9948440  62.9803570  68.0189350
 141.1641400  63.0480220  68.4896580 142.1720270  63.8707690  67.7156210
 141.4504900  59.7251050  70.5223550 142.2123810  60.2947700  70.6283240
 141.4659270  59.1578250  71.2931860 124.9509240  58.2488980  74.7531210
 124.2958080  57.9800620  74.1090910 125.7887190  58.1393460  74.3033190
 142.4564870  60.5801150  75.3665480 142.8273700  59.7968470  74.9601450
 143.0966800  61.2690250  75.1882780 139.4398630  61.9637730  80.7795800
 138.6258470  62.3934890  81.0421590 139.8472830  62.5756140  80.1664850
 141.5024070  60.0185420  67.6796070 141.7772910  60.9264300  67.5515290
 141.3134810  59.9547950  68.6158060 137.8999680  53.0430270  68.9749700
 138.3184560  52.8561250  68.1346360 137.5935740  52.1909320  69.2852630
 141.3989410  57.9554410  72.6725500 141.0233010  57.1882340  72.2406790
 140.6692530  58.3377110  73.1600430 140.7889030  57.1025930  82.3065020
 140.5575120  56.8738680  81.4062970 141.0493580  58.0225480  82.2609910
 139.2277100  52.3282360  85.0844720 140.1047280  52.3365760  85.4678720
 139.2397940  51.5913200  84.4737070 124.1647320  55.4587910  70.6956540
 123.2611400  55.7218110  70.5208200 124.6487940  55.7299080  69.9156500
 140.6740370  56.1811900  75.9732740 141.1977850  55.6874550  75.3422910
 141.2599790  56.3162260  76.7180310 140.8530090  56.2651770  79.4952290
 139.9032800  56.2315310  79.6097280 141.0343100  57.1751880  79.2602060
 126.7074530  54.5153450  68.6050920 127.4166230  54.0936670  68.1198200
 125.9914470  54.5828680  67.9734270 126.3548690  50.5692780  67.6453570
 127.0776820  51.1101720  67.9634790 126.6273210  50.2956200  66.7695110
 140.1640340  55.4385250  71.9125150 140.6599460  55.2056120  72.6974030
 139.9656410  54.5997090  71.4962790 126.0440880  49.8198970  77.5476190
 126.6917070  49.2696350  77.1071350 126.4642720  50.0742120  78.3692000
 141.5927500  54.0746200  74.4462830 141.4826780  53.9202240  75.3845100
 142.3535090  53.5467140  74.2038240 139.9393220  50.0140330  80.9045830
 140.5765440  50.6274470  81.2705020 140.0868110  50.0500990  79.9595060
 142.4817770  51.9054120  67.6868970 143.4067080  51.7735300  67.4787260
 142.4593560  51.9846940  68.6405420 142.5556260  52.6764780  70.3125680
 141.7607760  52.6109900  70.8418590 142.7599540  53.6115420  70.3011030
 127.4037250  63.1474240  84.4554700 127.3606880  62.7767150  85.3369160
 127.5348260  64.0851810  84.5956520 133.3097700  51.1666520  83.8120930
 133.2486590  51.7588350  84.5616340 134.2498080  51.0592480  83.6671190
 135.9472260  50.8236580  83.4513220 136.5612670  51.1415870  82.7894300
 136.4921820  50.3385170  84.0709080 142.3647440  66.7228210  80.8575060
 141.8705720  67.1197080  80.1402190 141.7560730  66.0977420  81.2512340
 136.6880300  49.3868720  79.7782510 135.8140140  49.7203830  79.5755440
 136.5791050  48.9141900  80.6034380 137.5952280  51.5939590  81.1624230
 137.2665640  50.7791350  80.7825960 138.5434580  51.5509400  81.0389920
 133.2178110  66.5648360  78.1378910 133.5055920  66.3102660  77.2611920
 133.7301330  66.0125720  78.7284480 134.4355120  50.3038560  78.7175420
 133.6526910  50.7784060  78.9972180 134.1418050  49.3993390  78.6088600
 138.9876190  51.0061660  76.7624510 139.4284280  50.9506760  75.9146110
 138.7183780  51.9219670  76.8334690 140.8514760  50.6376900  74.7733330
 140.7903160  49.6938120  74.6264350 141.6306790  50.7456990  75.3186790
 125.7795530  50.6086040  71.2389140 126.5374890  50.7214920  70.6653170
 125.3172700  51.4455240  71.1932570 132.3209340  52.7225310  74.2291450
 131.5083850  52.3482200  73.8887330 132.8250980  51.9670390  74.5312640
 136.8234320  49.3867760  75.4674520 137.4263690  49.9587970  75.9423040
 136.0827310  49.9507200  75.2448420 139.9668920  49.7889320  70.7414800
 140.1619550  50.6872770  71.0082230 139.1798790  49.5576400  71.2347750
 128.1520680  51.1350090  69.7791110 128.6813440  50.3479890  69.6499060
 128.7849000  51.8141280  70.0126640 130.3458520  50.8725230  72.8336500
 129.7161260  50.1712540  73.0006630 129.8063660  51.6329360  72.6169660
 130.4714080  50.1509210  85.2688990 130.1898350  50.6542810  84.5049810
 130.8533780  49.3530960  84.9031120 129.3623180  67.4184870  70.0556670
 130.0942000  67.1344150  69.5080560 129.6216850  67.1798150  70.9456050
 128.5237970  63.5349600  70.0603000 127.8946850  64.0034700  70.6088830
 128.6385800  62.6898820  70.4949190 137.0729540  49.5662790  85.8469460
 136.9594990  49.8857400  86.7420980 137.8899280  49.9675300  85.5506740
 135.9787690  57.5855260  56.2104200 135.8981740  56.6709870  55.9395910
 135.5652110  58.0822330  55.5043910 134.1105730  59.3634280  58.0913470
 133.3347830  58.8834720  58.3812040 134.7618660  58.6839930  57.9169630
 128.1271560  59.6754090  58.9689230 127.2956440  59.4202800  59.3685740
 128.7352540  59.7464860  59.7047150 138.1313160  63.7694470  56.8712600
 137.6694690  62.9981710  57.1999770 138.9438710  63.7960540  57.3765050
 128.1072820  63.7094180  59.1647250 128.4100860  62.8191920  58.9857470
 128.8516410  64.2664400  58.9369500 124.4996520  57.2361630  58.6371320
 125.0712630  56.4683830  58.6374960 124.4998060  57.5350390  57.7277930
 133.5514720  62.0391470  58.0983630 133.4823000  61.0981410  57.9372760
 134.3134580  62.1292880  58.6706200 125.7421390  52.6445990  60.4240250
 125.5624230  51.7471740  60.7043010 125.3401470  53.1917860  61.0987200
 134.5819890  54.8461850  58.3252560 134.9584710  53.9733730  58.2126230
 134.4839400  55.1820550  57.4343000 128.7124900  53.2187480  53.7870000
 128.8191650  54.1191210  54.0938760 127.8017260  53.1705450  53.4964650
 138.3644010  52.3412290  55.2580900 139.1853630  51.8508860  55.3006380
 138.3978090  52.9309950  56.0112740 126.3608060  55.1406490  59.0322590
 127.0418170  55.4044860  59.6509990 126.0456110  54.3007360  59.3660600
 130.5532630  56.1873850  58.1195180 131.0610850  56.6854820  58.7600200
 131.0845870  55.4109050  57.9434540 142.6543560  54.3579040  61.8224530
 141.9495730  54.7460750  61.3039640 142.9201480  55.0529330  62.4245460
 128.8368730  50.8272410  62.3858600 128.8387170  51.3444800  61.5804500
 128.0073040  50.3502590  62.3628530 135.2239820  60.9391720  53.8848500
 134.6057090  61.4041170  53.3211220 135.7363070  61.6319200  54.3018010
 130.0871580  60.4667590  60.5632100 129.7540960  61.0936510  61.2053170
 130.2638260  60.9929470  59.7833770 138.6005490  54.2812670  58.0308440
 137.8961060  54.5697560  58.6111550 138.9617650  55.0912780  57.6708000
 128.5184060  52.5382370  60.3929050 128.8600870  53.3824420  60.0982920
 127.5799870  52.6866110  60.5094390 129.2990680  62.4348390  62.3781280
 129.9164680  63.1099470  62.0965730 128.4383800  62.8436370  62.2868780
 124.5923020  61.6248250  51.2588130 124.2151000  62.1135350  50.5273030
 124.8496090  62.2973530  51.8894660 140.2168270  63.8987800  60.2935920
 139.5331790  64.5686910  60.2852590 140.7562560  64.0968450  59.5280780
 141.6692410  53.7267460  58.4217650 140.7217320  53.7606440  58.5533080
 141.9942400  54.5406410  58.8067010 132.2011950  50.0264640  56.7173640
 132.5086930  49.4711530  56.0009140 131.2712650  50.1609100  56.5346630
 139.0472430  62.4648150  54.0971270 138.9368760  61.5222480  54.2220690
 139.0440680  62.8263790  54.9834030 137.1512450  60.6461770  60.3363710
 137.5681240  60.4321880  59.5017170 137.8752270  60.9034560  60.9072330
 134.5892710  58.0913470  53.4533760 133.6621990  58.0250850  53.6822230
 134.7417530  59.0293600  53.3389000 134.5761790  54.3630470  50.4500920
 133.6365460  54.5244430  50.5353380 134.8945050  55.0816150  49.9036910
 141.0974550  59.0448990  60.4279950 140.2693180  59.1142080  59.9530080
 141.6925030  59.6303300  59.9595780 138.6190000  59.6533770  53.9569010
 138.0002420  59.3153320  53.3095310 138.6014450  59.0093530  54.6648200
 138.0616560  55.8318310  61.3734820 137.6487740  56.6572020  61.6274810
 137.3292510  55.2463350  61.1811180 130.1949350  58.6178210  56.2353490
 129.7906350  57.9055460  55.7399390 130.2812470  58.2731450  57.1241530
 130.6631050  62.3045770  58.3992700 130.3659340  61.6991240  57.7200480
 131.6130870  62.3423080  58.2882060 128.9077970  55.3921420  60.0152530
 129.4592560  55.5016760  59.2405780 129.4221480  55.7659020  60.7307760
 138.7516660  65.8777640  62.0615800 138.2747220  66.6849830  61.8688410
 138.0678450  65.2255970  62.2142010 129.7549480  62.0427460  65.0500500
 128.8578010  62.2667430  65.2973900 129.7802350  62.1662400  64.1011900
 136.7954700  58.8920580  50.9641760 137.2347980  58.0543010  50.8179580
 137.5083120  59.5249980  51.0505900 128.5820700  58.9140780  63.6257870
 128.4428470  59.7863580  63.9945270 127.7002060  58.5713590  63.4805810
 134.9050080  63.8316650  54.9323000 135.3445990  64.5740980  54.5178390
 134.8436970  64.0743220  55.8561960 130.3801050  64.8562480  65.8343020
 130.3516480  65.2605430  64.9671450 130.2166020  63.9272840  65.6714620
 140.3771840  50.1463390  49.2782800 140.0644500  50.2390220  50.1781870
 141.1384310  50.7244420  49.2280230 142.3315870  65.6389580  67.1307190
 142.8075590  66.1172470  67.8096270 142.9523030  65.5707070  66.4052690
 124.5339350  60.6838330  59.5428780 124.6119770  60.8187100  58.5984500
 125.1481030  59.9754220  59.7356900 141.7349120  62.8302430  64.2907200
 141.8612180  62.5914310  63.3724380 141.7770500  61.9986970  64.7629280
 135.5965860  66.5330430  62.8602010 136.1110530  66.4438440  63.6624440
 134.7534940  66.8790130  63.1529920 137.5720260  66.8185770  52.2886010
 137.4121400  66.5288710  53.1867840 137.4066970  66.0425900  51.7531240
 137.2746390  64.3273330  50.8484010 136.5811550  64.3250620  50.1886290
 138.0169250  63.9032650  50.4178180 141.5873130  54.8834890  65.2556940
 140.9717400  55.3914560  64.7272400 141.2669550  53.9833220  65.1982880
 124.5898870  61.7252500  62.0823240 124.7529910  61.2557860  61.2642610
 125.0551320  61.2176060  62.7472080 129.3617640  50.8558260  57.1183810
 128.9185790  51.6367800  56.7868330 129.9202630  51.1788150  57.8254750
 133.6487450  53.7226780  62.7219130 133.1866820  53.9309800  63.5339070
 133.2465560  52.9086130  62.4189800 138.6491960  54.9435730  63.8515790
 137.7985550  54.6441480  64.1724860 138.4893750  55.1877740  62.9399610
 135.7441670  56.4437480  65.9514580 136.0695080  55.6101230  65.6116810
 136.5322000  56.9666000  66.0992910 132.4776460  50.4768960  51.9989640
 131.8530640  50.4728830  52.7242950 132.3906580  49.6099920  51.6025610
 131.3993540  51.4005590  58.9773410 131.6965870  52.3068420  58.8965430
 131.9479100  50.9124370  58.3632980 129.1531860  55.9791830  54.8465060
 128.9272780  55.7629000  55.7511680 128.3724390  56.4120290  54.5011030
 136.3829620  55.9855200  53.4455710 135.7838510  56.7091000  53.2619330
 136.9309230  55.9231980  52.6632160 131.5931070  56.8777410  65.5125330
 131.4974670  55.9372140  65.3625730 132.4363050  57.0992480  65.1173400
 134.9894490  54.6218740  55.4758990 135.3824060  54.9390940  54.6627680
 135.3511340  53.7430620  55.5903510 126.7241610  53.2891080  63.6659110
 126.3305000  54.1366290  63.8731890 126.0360010  52.6517450  63.8567750
 133.2986660  53.3726050  66.7355850 132.6084980  53.1798250  67.3701940
 134.0418960  53.6560690  67.2680150 124.0258660  51.2119540  57.6989190
 123.7371710  51.7822400  58.4114170 124.7704420  50.7323990  58.0620420
 135.5749630  57.2124490  59.5709770 134.8430750  57.7211300  59.9199870
 135.1773970  56.3954470  59.2698550 132.0127020  53.8878690  57.9762260
 132.0163080  53.4468640  57.1266800 132.9078140  54.2096020  58.0834080
 127.8629400  53.7705180  56.9356470 127.5229450  54.2480410  57.6923520
 127.1006720  53.3170300  56.5757570 132.0747170  54.8890770  50.9669020
 132.1959990  54.8477250  51.9154840 131.6895680  55.7514920  50.8115750
 136.0375540  52.6658170  58.9832710 136.0548280  53.1166820  59.8274560
 135.7891120  51.7663810  59.1966150 131.0868670  57.1991910  50.3652320
 130.5185570  56.7510160  49.7388230 131.7957670  57.5584690  49.8317470
 139.4646290  50.0790350  64.8219090 139.7892060  49.3480010  65.3477070
 139.5002800  49.7603990  63.9200080 126.1637850  61.1003930  64.2419050
 125.7792640  60.4597600  64.8402010 126.4750040  61.8040050  64.8113780
 132.3134990  57.9480470  59.7227670 132.6805120  57.4739040  60.4689010
 132.1240050  58.8222040  60.0636010 125.1775480  52.6924160  55.8521140
 124.8922400  52.3279830  56.6899760 125.1154340  51.9604620  55.2384280
 130.1034360  56.9889110  62.0411880 129.7991430  57.8681090  62.2662240
 131.0580820  57.0488900  62.0769320 139.3904130  60.1915460  58.4305120
 140.1103250  60.6870750  58.0401230 139.1885950  59.5133350  57.7858990
 134.8514070  51.5853420  52.5734510 134.0378680  51.0866590  52.4979820
 134.6576020  52.4251670  52.1570860 137.5662460  55.9573070  50.8696670
 138.4542080  56.2690300  50.6948010 137.5367550  55.0845320  50.4777250
 128.6753550  60.8630480  56.2757540 129.1932220  60.0598740  56.2214430
 128.2237570  60.8009620  57.1174370 126.1598090  57.8291850  63.1883240
 125.8013030  58.4945700  63.7756580 125.8652650  56.9975400  63.5595860
 129.3611210  58.2876090  66.0722790 129.0611350  58.4333270  65.1750610
 130.1322450  57.7281380  65.9796180 139.8376730  57.2684910  50.3376530
 139.7540450  57.6999130  49.4872970 140.5570920  57.7283260  50.7703350
 140.9150870  59.7252430  63.4146500 140.1899060  60.3181210  63.2175890
 141.4426330  59.7175970  62.6159870 140.8663980  64.1227170  53.0658660
 140.2240140  63.4682790  53.3402380 140.4794640  64.5282260  52.2899330
 136.4450460  61.4512600  56.9130350 136.7974280  60.8540730  56.2531720
 135.5612790  61.1256830  57.0838600 131.8340950  59.2156320  53.9326120
 132.2903730  60.0261570  54.1586310 131.4829160  58.8979460  54.7644610
 134.1373560  64.7262660  61.1618420 134.7815780  64.9322040  61.8391840
 134.5003000  63.9651060  60.7089270 127.7352730  49.5593970  54.4048640
 127.6067360  49.5511870  55.3533560 126.9114750  49.8977060  54.0539650
 135.4105640  62.7295010  59.8795870 136.0527870  62.0288170  59.9928040
 135.9354990  63.5093450  59.6992760 139.2561360  63.0143630  49.6035010
 139.0298940  62.2974070  50.1959650 138.8657560  62.7656070  48.7656760
 137.1843260  63.5289910  63.0831930 137.5199500  64.1156600  63.7609850
 136.2643600  63.3982620  63.3129720 124.7346660  51.3185090  63.8655340
 124.0205180  51.5182010  64.4707950 125.1541700  50.5424660  64.2370140
 138.8377610  60.9315570  51.2649170 138.5499310  61.3928260  52.0527050
 139.6329780  60.4713340  51.5333390 125.0219250  65.3065350  64.8521870
 125.1310370  64.3660090  64.7117260 124.3699810  65.5720100  64.2035600
 136.2285440  53.8107400  61.6156790 136.5966260  52.9902610  61.9436360
 135.3683640  53.8709290  62.0312440 139.5947470  52.7664340  52.4244350
 138.9660630  52.8710010  51.7102580 139.0999390  52.9861120  53.2138230
 131.5631500  55.0450290  53.8402230 130.8547650  55.5136630  54.2815840
 131.8475980  54.3872300  54.4747420 133.1887430  56.4646990  61.8394760
 133.6872680  56.9392810  62.5046610 133.3310380  55.5410510  62.0464790
 135.5946930  51.7700950  55.2798020 135.4714710  51.7887080  54.3307530
 136.5431490  51.8179890  55.3996420 132.6823720  67.0056250  54.5526000
 132.9365220  66.9677640  53.6305370 131.7336200  66.8789580  54.5454250
 129.7666520  53.3535370  51.2152940 130.6157050  53.7905520  51.1493130
 129.3997790  53.6655630  52.0425000 140.3954290  52.6814950  62.6823150
 139.8927890  53.4220350  63.0216960 141.2110950  53.0698950  62.3659940
 138.6876300  57.9248130  56.1284510 137.7466440  57.9398360  56.3032200
 139.0020370  57.1384090  56.5744810 140.6901880  65.0956980  57.8038770
 140.8149300  65.9188150  58.2762580 141.5567440  64.8847710  57.4562920
 128.1619410  67.1888190  57.4755900 128.8981890  66.6403650  57.7464470
 128.5460330  68.0544200  57.3361890 127.1677690  66.3734260  66.6641480
 127.9690420  66.6946310  67.0776880 126.6529510  66.0129840  67.3861390
 137.4342690  66.2094420  65.2226300 138.3864440  66.1252440  65.1726540
 137.2870910  66.8736130  65.8960090 140.3251890  65.5888630  50.7218210
 140.0393400  65.1753770  49.9072390 140.1271440  66.5176340  50.6018730
 135.0301850  60.6441940  49.7665810 134.4811950  61.0911240  50.4108550
 135.6521110  60.1391190  50.2903480 139.0836790  61.9984040  65.6988070
 139.8246260  62.3359800  65.1955530 138.3209470  62.1676100  65.1457840
 126.9198580  57.0037310  66.5027600 126.9603920  56.7051180  67.4112830
 127.7744080  57.4044920  66.3435120 128.8604390  55.5829410  64.4702090
 128.3300850  55.0920360  63.8425430 129.5292460  56.0113610  63.9360020
 133.2104610  58.6270470  48.9108210 133.7310270  57.9119490  48.5449360
 133.8573010  59.2656340  49.2108720 138.2304620  57.3895030  66.2382430
 138.8125390  56.6347350  66.1502910 138.4066390  57.9202470  65.4613910
 129.3476690  52.5491780  64.5499380 129.2533560  51.9312530  63.8250250
 128.7674080  53.2758070  64.3229290 132.1138130  51.1065020  61.5826770
 131.6655430  51.1289280  60.7372320 131.4803330  50.7084040  62.1797070
 132.5197680  60.0019350  62.2039210 132.9385790  60.8452080  62.0315450
 131.6006310  60.1391390  61.9745990 137.1949480  58.2872720  62.1639560
 136.6684700  58.8115340  61.5604700 137.5380820  58.9200110  62.7949290
 130.3705100  66.3072360  63.3196940 129.8326190  67.0318420  63.0005640
 130.6239060  65.8302700  62.5294280 131.6230350  54.2756880  64.8452870
 132.2130040  53.9672730  65.5330690 130.8050590  53.8036630  65.0012770
 136.4423780  53.8922690  65.0785890 135.7539300  53.2304230  65.0135880
 137.1629800  53.4460960  65.5234350 137.0724180  50.4874320  51.1376150
 137.3526470  49.6442220  51.4935570 136.2989910  50.7197430  51.6514900
 133.2267310  67.5423570  63.5783590 133.1526010  68.4458710  63.8855960
 132.3246150  67.2235470  63.5505660 131.6103600  51.7201330  49.5823350
 131.2625600  51.0425320  49.0025800 131.8116370  51.2590840  50.3966740
 127.4148800  62.0809130  49.4296950 127.8523670  62.6238800  50.0854530
 127.8996530  61.2556080  49.4393290 125.1184810  65.7368750  59.6198840
 124.6815800  65.9169550  60.4522990 125.6862490  66.4943370  59.4780560
 140.7546990  65.2385750  63.9076150 140.1548980  65.2978310  63.1640070
 140.8840890  64.2990730  64.0373000 141.9948440  62.9803570  49.2445860
 141.1641400  63.0480220  49.7153090 142.1720270  63.8707690  48.9412720
 141.4504900  59.7251050  51.7480060 142.2123810  60.2947700  51.8539750
 141.4659270  59.1578250  52.5188370 124.9509240  58.2488980  55.9787720
 124.2958080  57.9800620  55.3347420 125.7887190  58.1393460  55.5289700
 142.4564870  60.5801150  56.5921990 142.8273700  59.7968470  56.1857960
 143.0966800  61.2690250  56.4139290 139.4398630  61.9637730  62.0052310
 138.6258470  62.3934890  62.2678100 139.8472830  62.5756140  61.3921360
 141.5024070  60.0185420  48.9052580 141.7772910  60.9264300  48.7771800
 141.3134810  59.9547950  49.8414570 137.8999680  53.0430270  50.2006210
 138.3184560  52.8561250  49.3602870 137.5935740  52.1909320  50.5109140
 141.3989410  57.9554410  53.8982010 141.0233010  57.1882340  53.4663300
 140.6692530  58.3377110  54.3856940 125.9885170  58.6341550  60.5191060
 126.3558210  58.5468950  61.3987080 125.4195990  57.8708100  60.4197920
 140.7889030  57.1025930  63.5321530 140.5575120  56.8738680  62.6319480
 141.0493580  58.0225480  63.4866420 125.5401170  55.5450640  64.4249480
 124.6457220  55.5117400  64.7643190 126.0798720  55.7437430  65.1900730
 139.2277100  52.3282360  66.3101230 140.1047280  52.3365760  66.6935230
 139.2397940  51.5913200  65.6993580 140.6740370  56.1811900  57.1989250
 141.1977850  55.6874550  56.5679420 141.2599790  56.3162260  57.9436820
 140.8530090  56.2651770  60.7208800 139.9032800  56.2315310  60.8353790
 141.0343100  57.1751880  60.4858570 126.3548690  50.5692780  48.8710080
 127.0776820  51.1101720  49.1891300 126.6273210  50.2956200  47.9951620
 140.1640340  55.4385250  53.1381660 140.6599460  55.2056120  53.9230540
 139.9656410  54.5997090  52.7219300 126.0440880  49.8198970  58.7732700
 126.6917070  49.2696350  58.3327860 126.4642720  50.0742120  59.5948510
 141.5927500  54.0746200  55.6719340 141.4826780  53.9202240  56.6101610
 142.3535090  53.5467140  55.4294750 139.9393220  50.0140330  62.1302340
 140.5765440  50.6274470  62.4961530 140.0868110  50.0500990  61.1851570
 142.4817770  51.9054120  48.9125480 143.4067080  51.7735300  48.7043770
 142.4593560  51.9846940  49.8661930 142.5556260  52.6764780  51.5382190
 141.7607760  52.6109900  52.0675100 142.7599540  53.6115420  51.5267540
 139.4974680  66.7156330  55.5320580 140.0933750  66.3940900  54.8555000
 139.7552830  66.2428150  56.3233850 125.7972880  49.9754640  61.5158020
 125.4487700  50.4318460  62.2816200 125.4660580  49.0811770  61.5980450
 127.4037250  63.1474240  65.6811210 127.3606880  62.7767150  66.5625670
 127.5348260  64.0851810  65.8213030 131.1043280  64.7033830  61.2820930
 130.8634640  64.9708390  60.3951450 132.0445920  64.8739560  61.3371790
 133.3097700  51.1666520  65.0377440 133.2486590  51.7588350  65.7872850
 134.2498080  51.0592480  64.8927700 135.9472260  50.8236580  64.6769730
 136.5612670  51.1415870  64.0150810 136.4921820  50.3385170  65.2965590
 142.3647440  66.7228210  62.0831570 141.8705720  67.1197080  61.3658700
 141.7560730  66.0977420  62.4768850 126.4693520  49.5030840  64.7908790
 127.0176510  49.3218890  64.0274900 126.5348830  48.7124950  65.3265100
 127.2425280  66.0936490  62.8008990 126.6485600  65.9621190  63.5399030
 127.2349120  65.2574630  62.3351090 136.6880300  49.3868720  61.0039020
 135.8140140  49.7203830  60.8011950 136.5791050  48.9141900  61.8290890
 137.5952280  51.5939590  62.3880740 137.2665640  50.7791350  62.0082470
 138.5434580  51.5509400  62.2646430 140.0486890  67.3651630  59.3618310
 139.5889860  68.1167440  58.9876330 139.4199350  66.6458100  59.3033110
 126.8737510  63.4594870  61.7517030 126.1471570  62.8400160  61.6842980
 126.9346660  63.8535480  60.8815110 130.4782610  65.6739870  58.5366440
 130.9947630  65.0627230  58.0114700 131.1279990  66.1768650  59.0277450
 133.2178110  66.5648360  59.3635420 133.5055920  66.3102660  58.4868430
 133.7301330  66.0125720  59.9540990 134.4355120  50.3038560  59.9431930
 133.6526910  50.7784060  60.2228690 134.1418050  49.3993390  59.8345110
 138.9876190  51.0061660  57.9881020 139.4284280  50.9506760  57.1402620
 138.7183780  51.9219670  58.0591200 140.8514760  50.6376900  55.9989840
 140.7903160  49.6938120  55.8520860 141.6306790  50.7456990  56.5443300
 125.7795530  50.6086040  52.4645650 126.5374890  50.7214920  51.8909680
 125.3172700  51.4455240  52.4189080 132.3209340  52.7225310  55.4547960
 131.5083850  52.3482200  55.1143840 132.8250980  51.9670390  55.7569150
 136.8234320  49.3867760  56.6931030 137.4263690  49.9587970  57.1679550
 136.0827310  49.9507200  56.4704930 139.9668920  49.7889320  51.9671310
 140.1619550  50.6872770  52.2338740 139.1798790  49.5576400  52.4604260
 128.1520680  51.1350090  51.0047620 128.6813440  50.3479890  50.8755570
 128.7849000  51.8141280  51.2383150 130.3458520  50.8725230  54.0593010
 129.7161260  50.1712540  54.2263140 129.8063660  51.6329360  53.8426170
 133.2850470  67.4864460  66.7303620 134.2117780  67.2508730  66.7739580
 133.2700900  68.3136460  66.2489650 141.5195530  67.0290030  53.7277870
 141.6947720  66.3427770  53.0838790 140.8217100  67.5537080  53.3354540
 130.4714080  50.1509210  66.4945500 130.1898350  50.6542810  65.7306320
 130.8533780  49.3530960  66.1287630 137.0729540  49.5662790  67.0725970
 136.9594990  49.8857400  67.9677490 137.8899280  49.9675300  66.7763250
 139.8528030  66.7134320  66.5544660 140.6453350  66.2183550  66.3470620
 140.1461180  67.3924460  67.1620270 135.9787690  57.5855260  37.4360710
 135.8981740  56.6709870  37.1652420 135.5652110  58.0822330  36.7300420
 134.1105730  59.3634280  39.3169980 133.3347830  58.8834720  39.6068550
 134.7618660  58.6839930  39.1426140 128.1271560  59.6754090  40.1945740
 127.2956440  59.4202800  40.5942250 128.7352540  59.7464860  40.9303660
 138.1313160  63.7694470  38.0969110 137.6694690  62.9981710  38.4256280
 138.9438710  63.7960540  38.6021560 126.5363510  54.6355980  33.9788130
 125.6480210  54.9771950  33.8768010 126.8204700  54.4356300  33.0868960
 124.4996520  57.2361630  39.8627830 125.0712630  56.4683830  39.8631470
 124.4998060  57.5350390  38.9534440 134.3576470  66.0552480  37.7173100
 133.7387910  66.5109980  37.1467540 135.2128250  66.2103940  37.3162800
 133.5514720  62.0391470  39.3240140 133.4823000  61.0981410  39.1629270
 134.3134580  62.1292880  39.8962710 125.7421390  52.6445990  41.6496760
 125.5624230  51.7471740  41.9299520 125.3401470  53.1917860  42.3243710
 134.5819890  54.8461850  39.5509070 134.9584710  53.9733730  39.4382740
 134.4839400  55.1820550  38.6599510 128.7124900  53.2187480  35.0126510
 128.8191650  54.1191210  35.3195270 127.8017260  53.1705450  34.7221160
 138.3644010  52.3412290  36.4837410 139.1853630  51.8508860  36.5262890
 138.3978090  52.9309950  37.2369250 126.3608060  55.1406490  40.2579100
 127.0418170  55.4044860  40.8766500 126.0456110  54.3007360  40.5917110
 130.5532630  56.1873850  39.3451690 131.0610850  56.6854820  39.9856710
 131.0845870  55.4109050  39.1691050 142.6543560  54.3579040  43.0481040
 141.9495730  54.7460750  42.5296150 142.9201480  55.0529330  43.6501970
 128.8368730  50.8272410  43.6115110 128.8387170  51.3444800  42.8061010
 128.0073040  50.3502590  43.5885040 135.2239820  60.9391720  35.1105010
 134.6057090  61.4041170  34.5467730 135.7363070  61.6319200  35.5274520
 130.0871580  60.4667590  41.7888610 129.7540960  61.0936510  42.4309680
 130.2638260  60.9929470  41.0090280 138.6005490  54.2812670  39.2564950
 137.8961060  54.5697560  39.8368060 138.9617650  55.0912780  38.8964510
 128.5184060  52.5382370  41.6185560 128.8600870  53.3824420  41.3239430
 127.5799870  52.6866110  41.7350900 129.2990680  62.4348390  43.6037790
 129.9164680  63.1099470  43.3222240 128.4383800  62.8436370  43.5125290
 124.5923020  61.6248250  32.4844640 124.2151000  62.1135350  31.7529540
 124.8496090  62.2973530  33.1151170 140.2168270  63.8987800  41.5192430
 139.5331790  64.5686910  41.5109100 140.7562560  64.0968450  40.7537290
 141.6692410  53.7267460  39.6474160 140.7217320  53.7606440  39.7789590
 141.9942400  54.5406410  40.0323520 132.2011950  50.0264640  37.9430150
 132.5086930  49.4711530  37.2265650 131.2712650  50.1609100  37.7603140
 137.7527010  65.7431930  40.2337610 137.7654170  65.3394220  39.3659870
 137.2002230  66.5179220  40.1299040 139.0472430  62.4648150  35.3227780
 138.9368760  61.5222480  35.4477200 139.0440680  62.8263790  36.2090540
 137.1512450  60.6461770  41.5620220 137.5681240  60.4321880  40.7273680
 137.8752270  60.9034560  42.1328840 134.5892710  58.0913470  34.6790270
 133.6621990  58.0250850  34.9078740 134.7417530  59.0293600  34.5645510
 134.5761790  54.3630470  31.6757430 133.6365460  54.5244430  31.7609890
 134.8945050  55.0816150  31.1293420 141.0974550  59.0448990  41.6536460
 140.2693180  59.1142080  41.1786590 141.6925030  59.6303300  41.1852290
 138.6190000  59.6533770  35.1825520 138.0002420  59.3153320  34.5351820
 138.6014450  59.0093530  35.8904710 138.0616560  55.8318310  42.5991330
 137.6487740  56.6572020  42.8531320 137.3292510  55.2463350  42.4067690
 130.1949350  58.6178210  37.4610000 129.7906350  57.9055460  36.9655900
 130.2812470  58.2731450  38.3498040 130.6631050  62.3045770  39.6249210
 130.3659340  61.6991240  38.9456990 131.6130870  62.3423080  39.5138570
 128.9077970  55.3921420  41.2409040 129.4592560  55.5016760  40.4662290
 129.4221480  55.7659020  41.9564270 138.7516660  65.8777640  43.2872310
 138.2747220  66.6849830  43.0944920 138.0678450  65.2255970  43.4398520
 129.7549480  62.0427460  46.2757010 128.8578010  62.2667430  46.5230410
 129.7802350  62.1662400  45.3268410 136.7954700  58.8920580  32.1898270
 137.2347980  58.0543010  32.0436090 137.5083120  59.5249980  32.2762410
 134.9050080  63.8316650  36.1579510 135.3445990  64.5740980  35.7434900
 134.8436970  64.0743220  37.0818470 130.3801050  64.8562480  47.0599530
 130.3516480  65.2605430  46.1927960 130.2166020  63.9272840  46.8971130
 140.3771840  50.1463390  30.5039310 140.0644500  50.2390220  31.4038380
 141.1384310  50.7244420  30.4536740 126.8953980  57.5123190  34.9616650
 126.7751580  58.2385280  34.3497920 126.5854870  56.7426100  34.4844560
 142.3315870  65.6389580  48.3563700 142.8075590  66.1172470  49.0352780
 142.9523030  65.5707070  47.6309200 124.5339350  60.6838330  40.7685290
 124.6119770  60.8187100  39.8241010 125.1481030  59.9754220  40.9613410
 141.7349120  62.8302430  45.5163710 141.8612180  62.5914310  44.5980890
 141.7770500  61.9986970  45.9885790 135.5965860  66.5330430  44.0858520
 136.1110530  66.4438440  44.8880950 134.7534940  66.8790130  44.3786430
 137.5720260  66.8185770  33.5142520 137.4121400  66.5288710  34.4124350
 137.4066970  66.0425900  32.9787750 130.0508640  66.5984300  35.2914140
 129.8751120  65.6819840  35.0781940 129.1964380  66.9571590  35.5311940
 137.2746390  64.3273330  32.0740520 136.5811550  64.3250620  31.4142800
 138.0169250  63.9032650  31.6434690 136.8396320  65.9536040  36.1489010
 137.2953270  65.1725420  36.4627630 137.1788840  66.6642860  36.6930190
 141.5873130  54.8834890  46.4813450 140.9717400  55.3914560  45.9528910
 141.2669550  53.9833220  46.4239390 124.5898870  61.7252500  43.3079750
 124.7529910  61.2557860  42.4899120 125.0551320  61.2176060  43.9728590
 129.3617640  50.8558260  38.3440320 128.9185790  51.6367800  38.0124840
 129.9202630  51.1788150  39.0511260 133.6487450  53.7226780  43.9475640
 133.1866820  53.9309800  44.7595580 133.2465560  52.9086130  43.6446310
 138.6491960  54.9435730  45.0772300 137.7985550  54.6441480  45.3981370
 138.4893750  55.1877740  44.1656120 135.7441670  56.4437480  47.1771090
 136.0695080  55.6101230  46.8373320 136.5322000  56.9666000  47.3249420
 132.4776460  50.4768960  33.2246150 131.8530640  50.4728830  33.9499460
 132.3906580  49.6099920  32.8282120 131.3993540  51.4005590  40.2029920
 131.6965870  52.3068420  40.1221940 131.9479100  50.9124370  39.5889490
 129.1531860  55.9791830  36.0721570 128.9272780  55.7629000  36.9768190
 128.3724390  56.4120290  35.7267540 136.3829620  55.9855200  34.6712220
 135.7838510  56.7091000  34.4875840 136.9309230  55.9231980  33.8888670
 131.5931070  56.8777410  46.7381840 131.4974670  55.9372140  46.5882240
 132.4363050  57.0992480  46.3429910 134.9894490  54.6218740  36.7015500
 135.3824060  54.9390940  35.8884190 135.3511340  53.7430620  36.8160020
 133.2986660  53.3726050  47.9612360 132.6084980  53.1798250  48.5958450
 134.0418960  53.6560690  48.4936660 124.0258660  51.2119540  38.9245700
 123.7371710  51.7822400  39.6370680 124.7704420  50.7323990  39.2876930
 124.2128890  55.1539660  30.1348420 124.1303560  56.0970420  30.2763410
 123.8611950  55.0114570  29.2560770 135.5749630  57.2124490  40.7966280
 134.8430750  57.7211300  41.1456380 135.1773970  56.3954470  40.4955060
 132.0127020  53.8878690  39.2018770 132.0163080  53.4468640  38.3523310
 132.9078140  54.2096020  39.3090590 127.8629400  53.7705180  38.1612980
 127.5229450  54.2480410  38.9180030 127.1006720  53.3170300  37.8014080
 132.0747170  54.8890770  32.1925530 132.1959990  54.8477250  33.1411350
 131.6895680  55.7514920  32.0372260 136.0375540  52.6658170  40.2089220
 136.0548280  53.1166820  41.0531070 135.7891120  51.7663810  40.4222660
 131.0868670  57.1991910  31.5908830 130.5185570  56.7510160  30.9644740
 131.7957670  57.5584690  31.0573980 139.4646290  50.0790350  46.0475600
 139.7892060  49.3480010  46.5733580 139.5002800  49.7603990  45.1456590
 132.3134990  57.9480470  40.9484180 132.6805120  57.4739040  41.6945520
 132.1240050  58.8222040  41.2892520 125.1775480  52.6924160  37.0777650
 124.8922400  52.3279830  37.9156270 125.1154340  51.9604620  36.4640790
 130.1034360  56.9889110  43.2668390 129.7991430  57.8681090  43.4918750
 131.0580820  57.0488900  43.3025830 128.6316150  61.1950100  33.8635240
 127.8578410  60.6547720  33.7033960 129.3610780  60.6756710  33.5253000
 139.3904130  60.1915460  39.6561630 140.1103250  60.6870750  39.2657740
 139.1885950  59.5133350  39.0115500 134.8514070  51.5853420  33.7991020
 134.0378680  51.0866590  33.7236330 134.6576020  52.4251670  33.3827370
 134.7722930  60.2624520  45.5430630 134.7060240  59.3420190  45.2888220
 134.1428070  60.3599960  46.2575270 137.5662460  55.9573070  32.0953180
 138.4542080  56.2690300  31.9204520 137.5367550  55.0845320  31.7033760
 128.6753550  60.8630480  37.5014050 129.1932220  60.0598740  37.4470940
 128.2237570  60.8009620  38.3430880 133.5623050  62.1296760  32.7741350
 133.9038750  62.8738990  32.2784670 132.7335760  62.4427880  33.1366180
 134.7039660  63.0845090  45.2934430 134.7184200  62.1526050  45.0753340
 133.9964760  63.1704850  45.9324200 139.8376730  57.2684910  31.5633040
 139.7540450  57.6999130  30.7129480 140.5570920  57.7283260  31.9959860
 140.9150870  59.7252430  44.6403010 140.1899060  60.3181210  44.4432400
 141.4426330  59.7175970  43.8416380 140.8663980  64.1227170  34.2915170
 140.2240140  63.4682790  34.5658890 140.4794640  64.5282260  33.5155840
 136.4450460  61.4512600  38.1386860 136.7974280  60.8540730  37.4788230
 135.5612790  61.1256830  38.3095110 132.5313740  62.2110290  35.5457270
 133.2184870  62.7579500  35.9264860 131.7446160  62.7551020  35.5806880
 124.6706140  57.8283110  31.0374350 125.5400990  58.1107910  31.3210270
 124.1796460  58.6418980  30.9223160 131.8340950  59.2156320  35.1582630
 132.2903730  60.0261570  35.3842820 131.4829160  58.8979460  35.9901120
 134.1373560  64.7262660  42.3874930 134.7815780  64.9322040  43.0648350
 134.5003000  63.9651060  41.9345780 127.7352730  49.5593970  35.6305150
 127.6067360  49.5511870  36.5790070 126.9114750  49.8977060  35.2796160
 135.4105640  62.7295010  41.1052380 136.0527870  62.0288170  41.2184550
 135.9354990  63.5093450  40.9249270 139.2561360  63.0143630  30.8291520
 139.0298940  62.2974070  31.4216160 138.8657560  62.7656070  29.9913270
 137.1843260  63.5289910  44.3088440 137.5199500  64.1156600  44.9866360
 136.2643600  63.3982620  44.5386230 125.0377390  67.0410490  31.6035980
 125.3975030  67.6399830  30.9493250 124.8969730  67.5870380  32.3771010
 124.7346660  51.3185090  45.0911850 124.0205180  51.5182010  45.6964460
 125.1541700  50.5424660  45.4626650 138.8377610  60.9315570  32.4905680
 138.5499310  61.3928260  33.2783560 139.6329780  60.4713340  32.7589900
 133.0131840  63.5781240  47.4776500 132.6928710  62.8590480  48.0222190
 132.3390200  64.2536310  47.5512560 131.0546010  64.4241690  32.4209650
 131.0456110  65.1571380  31.8054160 130.1344370  64.1773270  32.5136610
 126.6552650  59.6456580  33.1656410 126.0480600  60.3855480  33.1751710
 127.1302000  59.7355940  32.3394610 136.2285440  53.8107400  42.8413300
 136.5966260  52.9902610  43.1692870 135.3683640  53.8709290  43.2568950
 139.5947470  52.7664340  33.6500860 138.9660630  52.8710010  32.9359090
 139.0999390  52.9861120  34.4394740 134.0405610  64.4869930  31.0834840
 134.1417590  64.2833920  30.1536820 133.1407350  64.2328210  31.2882620
 131.5631500  55.0450290  35.0658740 130.8547650  55.5136630  35.5072350
 131.8475980  54.3872300  35.7003930 133.1887430  56.4646990  43.0651270
 133.6872680  56.9392810  43.7303120 133.3310380  55.5410510  43.2721300
 135.5946930  51.7700950  36.5054530 135.4714710  51.7887080  35.5564040
 136.5431490  51.8179890  36.6252930 132.6823720  67.0056250  35.7782510
 132.9365220  66.9677640  34.8561880 131.7336200  66.8789580  35.7710760
 129.7666520  53.3535370  32.4409450 130.6157050  53.7905520  32.3749640
 129.3997790  53.6655630  33.2681510 140.3954290  52.6814950  43.9079660
 139.8927890  53.4220350  44.2473470 141.2110950  53.0698950  43.5916450
 138.6876300  57.9248130  37.3541020 137.7466440  57.9398360  37.5288710
 139.0020370  57.1384090  37.8001320 128.6657940  59.6067730  30.9144980
 129.4321210  59.4949090  31.4770410 128.7432630  58.9105700  30.2621750
 127.3604700  57.0392800  31.5977870 127.4408290  56.0920310  31.7095270
 128.2524450  57.3699680  31.7038530 140.6901880  65.0956980  39.0295280
 140.8149300  65.9188150  39.5019090 141.5567440  64.8847710  38.6819430
 131.2721720  66.3618500  30.5237980 132.0650330  66.6507330  30.0719770
 130.7526070  65.9310670  29.8450460 136.0042320  62.4814130  47.8373400
 135.3980480  62.5045730  47.0969150 135.6996430  61.7497170  48.3740650
 137.4342690  66.2094420  46.4482810 138.3864440  66.1252440  46.3983050
 137.2870910  66.8736130  47.1216600 140.3251890  65.5888630  31.9474720
 140.0393400  65.1753770  31.1328900 140.1271440  66.5176340  31.8275240
 131.7899120  61.5821910  30.3880330 131.6849760  60.9674260  31.1141710
 131.6223340  61.0587800  29.6043340 131.9413440  60.2678710  46.3669560
 131.1759110  60.8363710  46.2824230 132.1229400  59.9754920  45.4737790
 135.0301850  60.6441940  30.9922320 134.4811950  61.0911240  31.6365060
 135.6521110  60.1391190  31.5159990 139.0836790  61.9984040  46.9244580
 139.8246260  62.3359800  46.4212040 138.3209470  62.1676100  46.3714350
 130.6976970  59.6032860  32.8887620 131.1193390  59.4372730  33.7319010
 130.8227810  58.7933090  32.3942760 133.2104610  58.6270470  30.1364720
 133.7310270  57.9119490  29.7705870 133.8573010  59.2656340  30.4365230
 137.7582450  60.0498870  45.4599790 138.1723470  60.2043950  46.3090210
 136.8233450  60.1754090  45.6225570 138.2304620  57.3895030  47.4638940
 138.8125390  56.6347350  47.3759420 138.4066390  57.9202470  46.6870420
 129.3476690  52.5491780  45.7755890 129.2533560  51.9312530  45.0506760
 128.7674080  53.2758070  45.5485800 132.1138130  51.1065020  42.8083280
 131.6655430  51.1289280  41.9628830 131.4803330  50.7084040  43.4053580
 132.5197680  60.0019350  43.4295720 132.9385790  60.8452080  43.2571960
 131.6006310  60.1391390  43.2002500 134.8561580  57.7335530  44.8133560
 134.9757790  57.1376670  45.5528400 135.7155580  57.7705220  44.3934860
 137.1949480  58.2872720  43.3896070 136.6684700  58.8115340  42.7861210
 137.5380820  58.9200110  44.0205800 129.5935870  55.6766090  29.8345780
 129.3924930  54.8133450  30.1959120 129.4227920  55.5899450  28.8967380
 130.3705100  66.3072360  44.5453450 129.8326190  67.0318420  44.2262150
 130.6239060  65.8302700  43.7550790 131.6230350  54.2756880  46.0709380
 132.2130040  53.9672730  46.7587200 130.8050590  53.8036630  46.2269280
 136.4423780  53.8922690  46.3042400 135.7539300  53.2304230  46.2392390
 137.1629800  53.4460960  46.7490860 137.0724180  50.4874320  32.3632660
 137.3526470  49.6442220  32.7192080 136.2989910  50.7197430  32.8771410
 128.3918670  52.7766710  29.8223660 128.6944570  52.7834140  28.9142810
 129.1313260  52.4264570  30.3191320 133.2267310  67.5423570  44.8040100
 133.1526010  68.4458710  45.1112470 132.3246150  67.2235470  44.7762170
 131.6103600  51.7201330  30.8079860 131.2625600  51.0425320  30.2282310
 131.8116370  51.2590840  31.6223250 133.7752640  66.7082080  32.4266460
 134.6703430  67.0467050  32.4485220 133.8070270  65.9861490  31.7990740
 127.4148800  62.0809130  30.6553460 127.8523670  62.6238800  31.3111040
 127.8996530  61.2556080  30.6649800 129.2256520  63.2007170  35.7675690
 128.9252060  63.0772140  36.6679600 129.1194010  62.3415760  35.3591420
 140.7546990  65.2385750  45.1332660 140.1548980  65.2978310  44.3896580
 140.8840890  64.2990730  45.2629510 141.9948440  62.9803570  30.4702370
 141.1641400  63.0480220  30.9409600 142.1720270  63.8707690  30.1669230
 141.4504900  59.7251050  32.9736570 142.2123810  60.2947700  33.0796260
 141.4659270  59.1578250  33.7444880 142.4564870  60.5801150  37.8178500
 142.8273700  59.7968470  37.4114470 143.0966800  61.2690250  37.6395800
 139.4398630  61.9637730  43.2308820 138.6258470  62.3934890  43.4934610
 139.8472830  62.5756140  42.6177870 141.5024070  60.0185420  30.1309090
 141.7772910  60.9264300  30.0028310 141.3134810  59.9547950  31.0671080
 137.8999680  53.0430270  31.4262720 138.3184560  52.8561250  30.5859380
 137.5935740  52.1909320  31.7365650 141.3989410  57.9554410  35.1238520
 141.0233010  57.1882340  34.6919810 140.6692530  58.3377110  35.6113450
 125.9885170  58.6341550  41.7447570 126.3558210  58.5468950  42.6243590
 125.4195990  57.8708100  41.6454430 140.7889030  57.1025930  44.7578040
 140.5575120  56.8738680  43.8575990 141.0493580  58.0225480  44.7122930
 139.2277100  52.3282360  47.5357740 140.1047280  52.3365760  47.9191740
 139.2397940  51.5913200  46.9250090 124.1647320  55.4587910  33.1469560
 123.2611400  55.7218110  32.9721220 124.6487940  55.7299080  32.3669520
 140.6740370  56.1811900  38.4245760 141.1977850  55.6874550  37.7935930
 141.2599790  56.3162260  39.1693330 140.8530090  56.2651770  41.9465310
 139.9032800  56.2315310  42.0610300 141.0343100  57.1751880  41.7115080
 126.7074530  54.5153450  31.0563940 127.4166230  54.0936670  30.5711220
 125.9914470  54.5828680  30.4247290 126.3548690  50.5692780  30.0966590
 127.0776820  51.1101720  30.4147810 126.6273210  50.2956200  29.2208130
 140.1640340  55.4385250  34.3638170 140.6599460  55.2056120  35.1487050
 139.9656410  54.5997090  33.9475810 126.0440880  49.8198970  39.9989210
 126.6917070  49.2696350  39.5584370 126.4642720  50.0742120  40.8205020
 141.5927500  54.0746200  36.8975850 141.4826780  53.9202240  37.8358120
 142.3535090  53.5467140  36.6551260 139.9393220  50.0140330  43.3558850
 140.5765440  50.6274470  43.7218040 140.0868110  50.0500990  42.4108080
 142.4817770  51.9054120  30.1381990 143.4067080  51.7735300  29.9300280
 142.4593560  51.9846940  31.0918440 142.5556260  52.6764780  32.7638700
 141.7607760  52.6109900  33.2931610 142.7599540  53.6115420  32.7524050
 139.4974680  66.7156330  36.7577090 140.0933750  66.3940900  36.0811510
 139.7552830  66.2428150  37.5490360 125.7972880  49.9754640  42.7414530
 125.4487700  50.4318460  43.5072710 125.4660580  49.0811770  42.8236960
 131.1043280  64.7033830  42.5077440 130.8634640  64.9708390  41.6207960
 132.0445920  64.8739560  42.5628300 133.3097700  51.1666520  46.2633950
 133.2486590  51.7588350  47.0129360 134.2498080  51.0592480  46.1184210
 135.9472260  50.8236580  45.9026240 136.5612670  51.1415870  45.2407320
 136.4921820  50.3385170  46.5222100 142.3647440  66.7228210  43.3088080
 141.8705720  67.1197080  42.5915210 141.7560730  66.0977420  43.7025360
 126.4693520  49.5030840  46.0165300 127.0176510  49.3218890  45.2531410
 126.5348830  48.7124950  46.5521610 136.6880300  49.3868720  42.2295530
 135.8140140  49.7203830  42.0268460 136.5791050  48.9141900  43.0547400
 137.5952280  51.5939590  43.6137250 137.2665640  50.7791350  43.2338980
 138.5434580  51.5509400  43.4902940 140.0486890  67.3651630  40.5874820
 139.5889860  68.1167440  40.2132840 139.4199350  66.6458100  40.5289620
 130.4782610  65.6739870  39.7622950 130.9947630  65.0627230  39.2371210
 131.1279990  66.1768650  40.2533960 133.2178110  66.5648360  40.5891930
 133.5055920  66.3102660  39.7124940 133.7301330  66.0125720  41.1797500
 134.4355120  50.3038560  41.1688440 133.6526910  50.7784060  41.4485200
 134.1418050  49.3993390  41.0601620 138.9876190  51.0061660  39.2137530
 139.4284280  50.9506760  38.3659130 138.7183780  51.9219670  39.2847710
 140.8514760  50.6376900  37.2246350 140.7903160  49.6938120  37.0777370
 141.6306790  50.7456990  37.7699810 125.7795530  50.6086040  33.6902160
 126.5374890  50.7214920  33.1166190 125.3172700  51.4455240  33.6445590
 132.3209340  52.7225310  36.6804470 131.5083850  52.3482200  36.3400350
 132.8250980  51.9670390  36.9825660 136.8234320  49.3867760  37.9187540
 137.4263690  49.9587970  38.3936060 136.0827310  49.9507200  37.6961440
 139.9668920  49.7889320  33.1927820 140.1619550  50.6872770  33.4595250
 139.1798790  49.5576400  33.6860770 126.7630210  65.4702490  33.6320440
 126.2377830  65.8510520  32.9282400 126.6874790  66.0953260  34.3530150
 128.1520680  51.1350090  32.2304130 128.6813440  50.3479890  32.1012080
 128.7849000  51.8141280  32.4639660 130.3458520  50.8725230  35.2849520
 129.7161260  50.1712540  35.4519650 129.8063660  51.6329360  35.0682680
 133.2850470  67.4864460  47.9560130 134.2117780  67.2508730  47.9996090
 133.2700900  68.3136460  47.4746160 141.5195530  67.0290030  34.9534380
 141.6947720  66.3427770  34.3095300 140.8217100  67.5537080  34.5611050
 130.4714080  50.1509210  47.7202010 130.1898350  50.6542810  46.9562830
 130.8533780  49.3530960  47.3544140 129.3623180  67.4184870  32.5069690
 130.0942000  67.1344150  31.9593580 129.6216850  67.1798150  33.3969070
 128.5237970  63.5349600  32.5116020 127.8946850  64.0034700  33.0601850
 128.6385800  62.6898820  32.9462210 137.0729540  49.5662790  48.2982480
 136.9594990  49.8857400  49.1934000 137.8899280  49.9675300  48.0019760
 139.8528030  66.7134320  47.7801170 140.6453350  66.2183550  47.5727130
 140.1461180  67.3924460  48.3876780 135.9787690  57.5855260  18.6617220
 135.8981740  56.6709870  18.3908930 135.5652110  58.0822330  17.9556930
 134.1105730  59.3634280  20.5426490 133.3347830  58.8834720  20.8325060
 134.7618660  58.6839930  20.3682650 128.1271560  59.6754090  21.4202250
 127.2956440  59.4202800  21.8198760 128.7352540  59.7464860  22.1560170
 138.1313160  63.7694470  19.3225620 137.6694690  62.9981710  19.6512790
 138.9438710  63.7960540  19.8278070 128.1072820  63.7094180  21.6160270
 128.4100860  62.8191920  21.4370490 128.8516410  64.2664400  21.3882520
 126.5363510  54.6355980  15.2044640 125.6480210  54.9771950  15.1024520
 126.8204700  54.4356300  14.3125470 124.4996520  57.2361630  21.0884340
 125.0712630  56.4683830  21.0887980 124.4998060  57.5350390  20.1790950
 134.3576470  66.0552480  18.9429610 133.7387910  66.5109980  18.3724050
 135.2128250  66.2103940  18.5419310 133.5514720  62.0391470  20.5496650
 133.4823000  61.0981410  20.3885780 134.3134580  62.1292880  21.1219220
 125.7421390  52.6445990  22.8753270 125.5624230  51.7471740  23.1556030
 125.3401470  53.1917860  23.5500220 134.5819890  54.8461850  20.7765580
 134.9584710  53.9733730  20.6639250 134.4839400  55.1820550  19.8856020
 128.7124900  53.2187480  16.2383020 128.8191650  54.1191210  16.5451780
 127.8017260  53.1705450  15.9477670 138.3644010  52.3412290  17.7093920
 139.1853630  51.8508860  17.7519400 138.3978090  52.9309950  18.4625760
 126.3608060  55.1406490  21.4835610 127.0418170  55.4044860  22.1023010
 126.0456110  54.3007360  21.8173620 130.5532630  56.1873850  20.5708200
 131.0610850  56.6854820  21.2113220 131.0845870  55.4109050  20.3947560
 142.6543560  54.3579040  24.2737550 141.9495730  54.7460750  23.7552660
 142.9201480  55.0529330  24.8758480 128.8368730  50.8272410  24.8371620
 128.8387170  51.3444800  24.0317520 128.0073040  50.3502590  24.8141550
 135.2239820  60.9391720  16.3361520 134.6057090  61.4041170  15.7724240
 135.7363070  61.6319200  16.7531030 130.0871580  60.4667590  23.0145120
 129.7540960  61.0936510  23.6566190 130.2638260  60.9929470  22.2346790
 138.6005490  54.2812670  20.4821460 137.8961060  54.5697560  21.0624570
 138.9617650  55.0912780  20.1221020 128.5184060  52.5382370  22.8442070
 128.8600870  53.3824420  22.5495940 127.5799870  52.6866110  22.9607410
 129.2990680  62.4348390  24.8294300 129.9164680  63.1099470  24.5478750
 128.4383800  62.8436370  24.7381800 124.5923020  61.6248250  13.7101150
 124.2151000  62.1135350  12.9786050 124.8496090  62.2973530  14.3407680
 140.2168270  63.8987800  22.7448940 139.5331790  64.5686910  22.7365610
 140.7562560  64.0968450  21.9793800 141.6692410  53.7267460  20.8730670
 140.7217320  53.7606440  21.0046100 141.9942400  54.5406410  21.2580030
 132.2011950  50.0264640  19.1686660 132.5086930  49.4711530  18.4522160
 131.2712650  50.1609100  18.9859650 137.7527010  65.7431930  21.4594120
 137.7654170  65.3394220  20.5916380 137.2002230  66.5179220  21.3555550
 139.0472430  62.4648150  16.5484290 138.9368760  61.5222480  16.6733710
 139.0440680  62.8263790  17.4347050 137.1512450  60.6461770  22.7876730
 137.5681240  60.4321880  21.9530190 137.8752270  60.9034560  23.3585350
 134.5892710  58.0913470  15.9046780 133.6621990  58.0250850  16.1335250
 134.7417530  59.0293600  15.7902020 134.5761790  54.3630470  12.9013940
 133.6365460  54.5244430  12.9866400 134.8945050  55.0816150  12.3549930
 141.0974550  59.0448990  22.8792970 140.2693180  59.1142080  22.4043100
 141.6925030  59.6303300  22.4108800 138.6190000  59.6533770  16.4082030
 138.0002420  59.3153320  15.7608330 138.6014450  59.0093530  17.1161220
 138.0616560  55.8318310  23.8247840 137.6487740  56.6572020  24.0787830
 137.3292510  55.2463350  23.6324200 130.1949350  58.6178210  18.6866510
 129.7906350  57.9055460  18.1912410 130.2812470  58.2731450  19.5754550
 130.6631050  62.3045770  20.8505720 130.3659340  61.6991240  20.1713500
 131.6130870  62.3423080  20.7395080 128.9077970  55.3921420  22.4665550
 129.4592560  55.5016760  21.6918800 129.4221480  55.7659020  23.1820780
 138.7516660  65.8777640  24.5128820 138.2747220  66.6849830  24.3201430
 138.0678450  65.2255970  24.6655030 129.7549480  62.0427460  27.5013520
 128.8578010  62.2667430  27.7486920 129.7802350  62.1662400  26.5524920
 136.7954700  58.8920580  13.4154780 137.2347980  58.0543010  13.2692600
 137.5083120  59.5249980  13.5018920 128.5820700  58.9140780  26.0770890
 128.4428470  59.7863580  26.4458290 127.7002060  58.5713590  25.9318830
 134.9050080  63.8316650  17.3836020 135.3445990  64.5740980  16.9691410
 134.8436970  64.0743220  18.3074980 130.3801050  64.8562480  28.2856040
 130.3516480  65.2605430  27.4184470 130.2166020  63.9272840  28.1227640
 140.3771840  50.1463390  11.7295820 140.0644500  50.2390220  12.6294890
 141.1384310  50.7244420  11.6793250 126.8953980  57.5123190  16.1873160
 126.7751580  58.2385280  15.5754430 126.5854870  56.7426100  15.7101070
 142.3315870  65.6389580  29.5820210 142.8075590  66.1172470  30.2609290
 142.9523030  65.5707070  28.8565710 124.5339350  60.6838330  21.9941800
 124.6119770  60.8187100  21.0497520 125.1481030  59.9754220  22.1869920
 125.7786980  62.3838520  18.4047980 125.3715060  62.5253110  17.5501580
 126.6699990  62.0998680  18.2019190 141.7349120  62.8302430  26.7420220
 141.8612180  62.5914310  25.8237400 141.7770500  61.9986970  27.2142300
 135.5965860  66.5330430  25.3115030 136.1110530  66.4438440  26.1137460
 134.7534940  66.8790130  25.6042940 137.5720260  66.8185770  14.7399030
 137.4121400  66.5288710  15.6380860 137.4066970  66.0425900  14.2044260
 130.0508640  66.5984300  16.5170650 129.8751120  65.6819840  16.3038450
 129.1964380  66.9571590  16.7568450 137.2746390  64.3273330  13.2997030
 136.5811550  64.3250620  12.6399310 138.0169250  63.9032650  12.8691200
 136.8396320  65.9536040  17.3745520 137.2953270  65.1725420  17.6884140
 137.1788840  66.6642860  17.9186700 141.5873130  54.8834890  27.7069960
 140.9717400  55.3914560  27.1785420 141.2669550  53.9833220  27.6495900
 124.5898870  61.7252500  24.5336260 124.7529910  61.2557860  23.7155630
 125.0551320  61.2176060  25.1985100 129.3617640  50.8558260  19.5696830
 128.9185790  51.6367800  19.2381350 129.9202630  51.1788150  20.2767770
 133.6487450  53.7226780  25.1732150 133.1866820  53.9309800  25.9852090
 133.2465560  52.9086130  24.8702820 138.6491960  54.9435730  26.3028810
 137.7985550  54.6441480  26.6237880 138.4893750  55.1877740  25.3912630
 135.7441670  56.4437480  28.4027600 136.0695080  55.6101230  28.0629830
 136.5322000  56.9666000  28.5505930 132.4776460  50.4768960  14.4502660
 131.8530640  50.4728830  15.1755970 132.3906580  49.6099920  14.0538630
 131.3993540  51.4005590  21.4286430 131.6965870  52.3068420  21.3478450
 131.9479100  50.9124370  20.8146000 129.1531860  55.9791830  17.2978080
 128.9272780  55.7629000  18.2024700 128.3724390  56.4120290  16.9524050
 136.3829620  55.9855200  15.8968730 135.7838510  56.7091000  15.7132350
 136.9309230  55.9231980  15.1145180 131.5931070  56.8777410  27.9638350
 131.4974670  55.9372140  27.8138750 132.4363050  57.0992480  27.5686420
 134.9894490  54.6218740  17.9272010 135.3824060  54.9390940  17.1140700
 135.3511340  53.7430620  18.0416530 126.7241610  53.2891080  26.1172130
 126.3305000  54.1366290  26.3244910 126.0360010  52.6517450  26.3080770
 133.2986660  53.3726050  29.1868870 132.6084980  53.1798250  29.8214960
 134.0418960  53.6560690  29.7193170 124.0258660  51.2119540  20.1502210
 123.7371710  51.7822400  20.8627190 124.7704420  50.7323990  20.5133440
 124.2128890  55.1539660  11.3604930 124.1303560  56.0970420  11.5019920
 123.8611950  55.0114570  10.4817280 135.5749630  57.2124490  22.0222790
 134.8430750  57.7211300  22.3712890 135.1773970  56.3954470  21.7211570
 132.0127020  53.8878690  20.4275280 132.0163080  53.4468640  19.5779820
 132.9078140  54.2096020  20.5347100 127.8629400  53.7705180  19.3869490
 127.5229450  54.2480410  20.1436540 127.1006720  53.3170300  19.0270590
 132.0747170  54.8890770  13.4182040 132.1959990  54.8477250  14.3667860
 131.6895680  55.7514920  13.2628770 136.0375540  52.6658170  21.4345730
 136.0548280  53.1166820  22.2787580 135.7891120  51.7663810  21.6479170
 131.0868670  57.1991910  12.8165340 130.5185570  56.7510160  12.1901250
 131.7957670  57.5584690  12.2830490 139.4646290  50.0790350  27.2732110
 139.7892060  49.3480010  27.7990090 139.5002800  49.7603990  26.3713100
 126.1637850  61.1003930  26.6932070 125.7792640  60.4597600  27.2915030
 126.4750040  61.8040050  27.2626800 132.3134990  57.9480470  22.1740690
 132.6805120  57.4739040  22.9202030 132.1240050  58.8222040  22.5149030
 125.1775480  52.6924160  18.3034160 124.8922400  52.3279830  19.1412780
 125.1154340  51.9604620  17.6897300 130.1034360  56.9889110  24.4924900
 129.7991430  57.8681090  24.7175260 131.0580820  57.0488900  24.5282340
 128.6316150  61.1950100  15.0891750 127.8578410  60.6547720  14.9290470
 129.3610780  60.6756710  14.7509510 139.3904130  60.1915460  20.8818140
 140.1103250  60.6870750  20.4914250 139.1885950  59.5133350  20.2372010
 134.8514070  51.5853420  15.0247530 134.0378680  51.0866590  14.9492840
 134.6576020  52.4251670  14.6083880 134.7722930  60.2624520  26.7687140
 134.7060240  59.3420190  26.5144730 134.1428070  60.3599960  27.4831780
 137.5662460  55.9573070  13.3209690 138.4542080  56.2690300  13.1461030
 137.5367550  55.0845320  12.9290270 128.6753550  60.8630480  18.7270560
 129.1932220  60.0598740  18.6727450 128.2237570  60.8009620  19.5687390
 133.5623050  62.1296760  13.9997860 133.9038750  62.8738990  13.5041180
 132.7335760  62.4427880  14.3622690 126.1598090  57.8291850  25.6396260
 125.8013030  58.4945700  26.2269600 125.8652650  56.9975400  26.0108880
 129.3611210  58.2876090  28.5235810 129.0611350  58.4333270  27.6263630
 130.1322450  57.7281380  28.4309200 134.7039660  63.0845090  26.5190940
 134.7184200  62.1526050  26.3009850 133.9964760  63.1704850  27.1580710
 139.8376730  57.2684910  12.7889550 139.7540450  57.6999130  11.9385990
 140.5570920  57.7283260  13.2216370 140.9150870  59.7252430  25.8659520
 140.1899060  60.3181210  25.6688910 141.4426330  59.7175970  25.0672890
 140.8663980  64.1227170  15.5171680 140.2240140  63.4682790  15.7915400
 140.4794640  64.5282260  14.7412350 136.4450460  61.4512600  19.3643370
 136.7974280  60.8540730  18.7044740 135.5612790  61.1256830  19.5351620
 132.5313740  62.2110290  16.7713780 133.2184870  62.7579500  17.1521370
 131.7446160  62.7551020  16.8063390 124.6706140  57.8283110  12.2630860
 125.5400990  58.1107910  12.5466780 124.1796460  58.6418980  12.1479670
 131.8340950  59.2156320  16.3839140 132.2903730  60.0261570  16.6099330
 131.4829160  58.8979460  17.2157630 134.1373560  64.7262660  23.6131440
 134.7815780  64.9322040  24.2904860 134.5003000  63.9651060  23.1602290
 127.7352730  49.5593970  16.8561660 127.6067360  49.5511870  17.8046580
 126.9114750  49.8977060  16.5052670 135.4105640  62.7295010  22.3308890
 136.0527870  62.0288170  22.4441060 135.9354990  63.5093450  22.1505780
 139.2561360  63.0143630  12.0548030 139.0298940  62.2974070  12.6472670
 138.8657560  62.7656070  11.2169780 137.1843260  63.5289910  25.5344950
 137.5199500  64.1156600  26.2122870 136.2643600  63.3982620  25.7642740
 125.0377390  67.0410490  12.8292490 125.3975030  67.6399830  12.1749760
 124.8969730  67.5870380  13.6027520 124.7346660  51.3185090  26.3168360
 124.0205180  51.5182010  26.9220970 125.1541700  50.5424660  26.6883160
 138.8377610  60.9315570  13.7162190 138.5499310  61.3928260  14.5040070
 139.6329780  60.4713340  13.9846410 125.0219250  65.3065350  27.3034890
 125.1310370  64.3660090  27.1630280 124.3699810  65.5720100  26.6548620
 133.0131840  63.5781240  28.7033010 132.6928710  62.8590480  29.2478700
 132.3390200  64.2536310  28.7769070 131.0546010  64.4241690  13.6466160
 131.0456110  65.1571380  13.0310670 130.1344370  64.1773270  13.7393120
 126.6552650  59.6456580  14.3912920 126.0480600  60.3855480  14.4008220
 127.1302000  59.7355940  13.5651120 136.2285440  53.8107400  24.0669810
 136.5966260  52.9902610  24.3949380 135.3683640  53.8709290  24.4825460
 139.5947470  52.7664340  14.8757370 138.9660630  52.8710010  14.1615600
 139.0999390  52.9861120  15.6651250 134.0405610  64.4869930  12.3091350
 134.1417590  64.2833920  11.3793330 133.1407350  64.2328210  12.5139130
 131.5631500  55.0450290  16.2915250 130.8547650  55.5136630  16.7328860
 131.8475980  54.3872300  16.9260440 133.1887430  56.4646990  24.2907780
 133.6872680  56.9392810  24.9559630 133.3310380  55.5410510  24.4977810
 135.5946930  51.7700950  17.7311040 135.4714710  51.7887080  16.7820550
 136.5431490  51.8179890  17.8509440 132.6823720  67.0056250  17.0039020
 132.9365220  66.9677640  16.0818390 131.7336200  66.8789580  16.9967270
 129.7666520  53.3535370  13.6665960 130.6157050  53.7905520  13.6006150
 129.3997790  53.6655630  14.4938020 140.3954290  52.6814950  25.1336170
 139.8927890  53.4220350  25.4729980 141.2110950  53.0698950  24.8172960
 138.6876300  57.9248130  18.5797530 137.7466440  57.9398360  18.7545220
 139.0020370  57.1384090  19.0257830 128.6657940  59.6067730  12.1401490
 129.4321210  59.4949090  12.7026920 128.7432630  58.9105700  11.4878260
 127.3604700  57.0392800  12.8234380 127.4408290  56.0920310  12.9351780
 128.2524450  57.3699680  12.9295040 140.6901880  65.0956980  20.2551790
 140.8149300  65.9188150  20.7275600 141.5567440  64.8847710  19.9075940
 128.1619410  67.1888190  19.9268920 128.8981890  66.6403650  20.1977490
 128.5460330  68.0544200  19.7874910 125.0464890  63.2561760  15.8010430
 124.1204670  63.4982900  15.7915840 125.5121320  64.0836020  15.6795180
 127.1677690  66.3734260  29.1154500 127.9690420  66.6946310  29.5289900
 126.6529510  66.0129840  29.8374410 131.2721720  66.3618500  11.7494490
 132.0650330  66.6507330  11.2976280 130.7526070  65.9310670  11.0706970
 136.0042320  62.4814130  29.0629910 135.3980480  62.5045730  28.3225660
 135.6996430  61.7497170  29.5997160 137.4342690  66.2094420  27.6739320
 138.3864440  66.1252440  27.6239560 137.2870910  66.8736130  28.3473110
 140.3251890  65.5888630  13.1731230 140.0393400  65.1753770  12.3585410
 140.1271440  66.5176340  13.0531750 124.8875500  58.8607720  28.0590550
 125.3914520  58.2815000  28.6306780 124.1482920  59.1447950  28.5966920
 131.7899120  61.5821910  11.6136840 131.6849760  60.9674260  12.3398220
 131.6223340  61.0587800  10.8299850 131.9413440  60.2678710  27.5926070
 131.1759110  60.8363710  27.5080740 132.1229400  59.9754920  26.6994300
 135.0301850  60.6441940  12.2178830 134.4811950  61.0911240  12.8621570
 135.6521110  60.1391190  12.7416500 139.0836790  61.9984040  28.1501090
 139.8246260  62.3359800  27.6468550 138.3209470  62.1676100  27.5970860
 126.9198580  57.0037310  28.9540620 126.9603920  56.7051180  29.8625850
 127.7744080  57.4044920  28.7948140 130.6976970  59.6032860  14.1144130
 131.1193390  59.4372730  14.9575520 130.8227810  58.7933090  13.6199270
 128.8604390  55.5829410  26.9215110 128.3300850  55.0920360  26.2938450
 129.5292460  56.0113610  26.3873040 133.2104610  58.6270470  11.3621230
 133.7310270  57.9119490  10.9962380 133.8573010  59.2656340  11.6621740
 137.7582450  60.0498870  26.6856300 138.1723470  60.2043950  27.5346720
 136.8233450  60.1754090  26.8482080 138.2304620  57.3895030  28.6895450
 138.8125390  56.6347350  28.6015930 138.4066390  57.9202470  27.9126930
 129.3476690  52.5491780  27.0012400 129.2533560  51.9312530  26.2763270
 128.7674080  53.2758070  26.7742310 132.1138130  51.1065020  24.0339790
 131.6655430  51.1289280  23.1885340 131.4803330  50.7084040  24.6310090
 132.5197680  60.0019350  24.6552230 132.9385790  60.8452080  24.4828470
 131.6006310  60.1391390  24.4259010 134.8561580  57.7335530  26.0390070
 134.9757790  57.1376670  26.7784910 135.7155580  57.7705220  25.6191370
 137.1949480  58.2872720  24.6152580 136.6684700  58.8115340  24.0117720
 137.5380820  58.9200110  25.2462310 129.5935870  55.6766090  11.0602290
 129.3924930  54.8133450  11.4215630 129.4227920  55.5899450  10.1223890
 130.3705100  66.3072360  25.7709960 129.8326190  67.0318420  25.4518660
 130.6239060  65.8302700  24.9807300 131.6230350  54.2756880  27.2965890
 132.2130040  53.9672730  27.9843710 130.8050590  53.8036630  27.4525790
 136.4423780  53.8922690  27.5298910 135.7539300  53.2304230  27.4648900
 137.1629800  53.4460960  27.9747370 137.0724180  50.4874320  13.5889170
 137.3526470  49.6442220  13.9448590 136.2989910  50.7197430  14.1027920
 128.3918670  52.7766710  11.0480170 128.6944570  52.7834140  10.1399320
 129.1313260  52.4264570  11.5447830 133.2267310  67.5423570  26.0296610
 133.1526010  68.4458710  26.3368980 132.3246150  67.2235470  26.0018680
 131.6103600  51.7201330  12.0336370 131.2625600  51.0425320  11.4538820
 131.8116370  51.2590840  12.8479760 133.7752640  66.7082080  13.6522970
 134.6703430  67.0467050  13.6741730 133.8070270  65.9861490  13.0247250
 127.4148800  62.0809130  11.8809970 127.8523670  62.6238800  12.5367550
 127.8996530  61.2556080  11.8906310 124.6294600  64.8698160  19.3330230
 124.9597610  64.0019220  19.1008870 125.0585600  65.0756680  20.1635190
 129.2256520  63.2007170  16.9932200 128.9252060  63.0772140  17.8936110
 129.1194010  62.3415760  16.5847930 125.1184810  65.7368750  22.0711860
 124.6815800  65.9169550  22.9036010 125.6862490  66.4943370  21.9293580
 140.7546990  65.2385750  26.3589170 140.1548980  65.2978310  25.6153090
 140.8840890  64.2990730  26.4886020 141.9948440  62.9803570  11.6958880
 141.1641400  63.0480220  12.1666110 142.1720270  63.8707690  11.3925740
 141.4504900  59.7251050  14.1993080 142.2123810  60.2947700  14.3052770
 141.4659270  59.1578250  14.9701390 124.9509240  58.2488980  18.4300740
 124.2958080  57.9800620  17.7860440 125.7887190  58.1393460  17.9802720
 142.4564870  60.5801150  19.0435010 142.8273700  59.7968470  18.6370980
 143.0966800  61.2690250  18.8652310 139.4398630  61.9637730  24.4565330
 138.6258470  62.3934890  24.7191120 139.8472830  62.5756140  23.8434380
 141.5024070  60.0185420  11.3565600 141.7772910  60.9264300  11.2284820
 141.3134810  59.9547950  12.2927590 137.8999680  53.0430270  12.6519230
 138.3184560  52.8561250  11.8115890 137.5935740  52.1909320  12.9622160
 141.3989410  57.9554410  16.3495030 141.0233010  57.1882340  15.9176320
 140.6692530  58.3377110  16.8369960 125.9885170  58.6341550  22.9704080
 126.3558210  58.5468950  23.8500100 125.4195990  57.8708100  22.8710940
 140.7889030  57.1025930  25.9834550 140.5575120  56.8738680  25.0832500
 141.0493580  58.0225480  25.9379440 125.5401170  55.5450640  26.8762500
 124.6457220  55.5117400  27.2156210 126.0798720  55.7437430  27.6413750
 139.2277100  52.3282360  28.7614250 140.1047280  52.3365760  29.1448250
 139.2397940  51.5913200  28.1506600 124.1647320  55.4587910  14.3726070
 123.2611400  55.7218110  14.1977730 124.6487940  55.7299080  13.5926030
 140.6740370  56.1811900  19.6502270 141.1977850  55.6874550  19.0192440
 141.2599790  56.3162260  20.3949840 140.8530090  56.2651770  23.1721820
 139.9032800  56.2315310  23.2866810 141.0343100  57.1751880  22.9371590
 126.7074530  54.5153450  12.2820450 127.4166230  54.0936670  11.7967730
 125.9914470  54.5828680  11.6503800 126.3548690  50.5692780  11.3223100
 127.0776820  51.1101720  11.6404320 126.6273210  50.2956200  10.4464640
 140.1640340  55.4385250  15.5894680 140.6599460  55.2056120  16.3743560
 139.9656410  54.5997090  15.1732320 126.0440880  49.8198970  21.2245720
 126.6917070  49.2696350  20.7840880 126.4642720  50.0742120  22.0461530
 141.5927500  54.0746200  18.1232360 141.4826780  53.9202240  19.0614630
 142.3535090  53.5467140  17.8807770 139.9393220  50.0140330  24.5815360
 140.5765440  50.6274470  24.9474550 140.0868110  50.0500990  23.6364590
 142.4817770  51.9054120  11.3638500 143.4067080  51.7735300  11.1556790
 142.4593560  51.9846940  12.3174950 142.5556260  52.6764780  13.9895210
 141.7607760  52.6109900  14.5188120 142.7599540  53.6115420  13.9780560
 139.4974680  66.7156330  17.9833600 140.0933750  66.3940900  17.3068020
 139.7552830  66.2428150  18.7746870 125.7972880  49.9754640  23.9671040
 125.4487700  50.4318460  24.7329220 125.4660580  49.0811770  24.0493470
 127.4037250  63.1474240  28.1324230 127.3606880  62.7767150  29.0138690
 127.5348260  64.0851810  28.2726050 131.1043280  64.7033830  23.7333950
 130.8634640  64.9708390  22.8464470 132.0445920  64.8739560  23.7884810
 133.3097700  51.1666520  27.4890460 133.2486590  51.7588350  28.2385870
 134.2498080  51.0592480  27.3440720 135.9472260  50.8236580  27.1282750
 136.5612670  51.1415870  26.4663830 136.4921820  50.3385170  27.7478610
 142.3647440  66.7228210  24.5344590 141.8705720  67.1197080  23.8171720
 141.7560730  66.0977420  24.9281870 126.4693520  49.5030840  27.2421810
 127.0176510  49.3218890  26.4787920 126.5348830  48.7124950  27.7778120
 127.2425280  66.0936490  25.2522010 126.6485600  65.9621190  25.9912050
 127.2349120  65.2574630  24.7864110 136.6880300  49.3868720  23.4552040
 135.8140140  49.7203830  23.2524970 136.5791050  48.9141900  24.2803910
 137.5952280  51.5939590  24.8393760 137.2665640  50.7791350  24.4595490
 138.5434580  51.5509400  24.7159450 140.0486890  67.3651630  21.8131330
 139.5889860  68.1167440  21.4389350 139.4199350  66.6458100  21.7546130
 126.8737510  63.4594870  24.2030050 126.1471570  62.8400160  24.1356000
 126.9346660  63.8535480  23.3328130 130.4782610  65.6739870  20.9879460
 130.9947630  65.0627230  20.4627720 131.1279990  66.1768650  21.4790470
 133.2178110  66.5648360  21.8148440 133.5055920  66.3102660  20.9381450
 133.7301330  66.0125720  22.4054010 134.4355120  50.3038560  22.3944950
 133.6526910  50.7784060  22.6741710 134.1418050  49.3993390  22.2858130
 138.9876190  51.0061660  20.4394040 139.4284280  50.9506760  19.5915640
 138.7183780  51.9219670  20.5104220 140.8514760  50.6376900  18.4502860
 140.7903160  49.6938120  18.3033880 141.6306790  50.7456990  18.9956320
 125.1567510  66.7769260  17.4126810 124.9889550  66.1439940  18.1108700
 124.2902020  66.9828660  17.0621000 125.7795530  50.6086040  14.9158670
 126.5374890  50.7214920  14.3422700 125.3172700  51.4455240  14.8702100
 132.3209340  52.7225310  17.9060980 131.5083850  52.3482200  17.5656860
 132.8250980  51.9670390  18.2082170 136.8234320  49.3867760  19.1444050
 137.4263690  49.9587970  19.6192570 136.0827310  49.9507200  18.9217950
 139.9668920  49.7889320  14.4184330 140.1619550  50.6872770  14.6851760
 139.1798790  49.5576400  14.9117280 126.7630210  65.4702490  14.8576950
 126.2377830  65.8510520  14.1538910 126.6874790  66.0953260  15.5786660
 128.1520680  51.1350090  13.4560640 128.6813440  50.3479890  13.3268590
 128.7849000  51.8141280  13.6896170 130.3458520  50.8725230  16.5106030
 129.7161260  50.1712540  16.6776160 129.8063660  51.6329360  16.2939190
 133.2850470  67.4864460  29.1816640 134.2117780  67.2508730  29.2252600
 133.2700900  68.3136460  28.7002670 141.5195530  67.0290030  16.1790890
 141.6947720  66.3427770  15.5351810 140.8217100  67.5537080  15.7867560
 130.4714080  50.1509210  28.9458520 130.1898350  50.6542810  28.1819340
 130.8533780  49.3530960  28.5800650 129.3623180  67.4184870  13.7326200
 130.0942000  67.1344150  13.1850090 129.6216850  67.1798150  14.6225580
 128.5237970  63.5349600  13.7372530 127.8946850  64.0034700  14.2858360
 128.6385800  62.6898820  14.1718720 137.0729540  49.5662790  29.5238990
 136.9594990  49.8857400  30.4190510 137.8899280  49.9675300  29.2276270
 139.8528030  66.7134320  29.0057680 140.6453350  66.2183550  28.7983640
 140.1461180  67.3924460  29.6133290 134.1105730  59.3634280   1.7683000
 133.3347830  58.8834720   2.0581570 134.7618660  58.6839930   1.5939160
 128.1271560  59.6754090   2.6458760 127.2956440  59.4202800   3.0455270
 128.7352540  59.7464860   3.3816680 128.1072820  63.7094180   2.8416780
 128.4100860  62.8191920   2.6627000 128.8516410  64.2664400   2.6139030
 133.5514720  62.0391470   1.7753160 133.4823000  61.0981410   1.6142290
 134.3134580  62.1292880   2.3475730 125.7421390  52.6445990   4.1009780
 125.5624230  51.7471740   4.3812540 125.3401470  53.1917860   4.7756730
 126.3608060  55.1406490   2.7092120 127.0418170  55.4044860   3.3279520
 126.0456110  54.3007360   3.0430130 130.5532630  56.1873850   1.7964710
 131.0610850  56.6854820   2.4369730 131.0845870  55.4109050   1.6204070
 142.6543560  54.3579040   5.4994060 141.9495730  54.7460750   4.9809170
 142.9201480  55.0529330   6.1014990 128.8368730  50.8272410   6.0628130
 128.8387170  51.3444800   5.2574030 128.0073040  50.3502590   6.0398060
 130.0871580  60.4667590   4.2401630 129.7540960  61.0936510   4.8822700
 130.2638260  60.9929470   3.4603300 128.5184060  52.5382370   4.0698580
 128.8600870  53.3824420   3.7752450 127.5799870  52.6866110   4.1863920
 129.2990680  62.4348390   6.0550810 129.9164680  63.1099470   5.7735260
 128.4383800  62.8436370   5.9638310 140.2168270  63.8987800   3.9705450
 139.5331790  64.5686910   3.9622120 140.7562560  64.0968450   3.2050310
 141.6692410  53.7267460   2.0987180 140.7217320  53.7606440   2.2302610
 141.9942400  54.5406410   2.4836540 137.7527010  65.7431930   2.6850630
 137.7654170  65.3394220   1.8172890 137.2002230  66.5179220   2.5812060
 137.1512450  60.6461770   4.0133240 137.5681240  60.4321880   3.1786700
 137.8752270  60.9034560   4.5841860 141.0974550  59.0448990   4.1049480
 140.2693180  59.1142080   3.6299610 141.6925030  59.6303300   3.6365310
 138.0616560  55.8318310   5.0504350 137.6487740  56.6572020   5.3044340
 137.3292510  55.2463350   4.8580710 128.9077970  55.3921420   3.6922060
 129.4592560  55.5016760   2.9175310 129.4221480  55.7659020   4.4077290
 138.7516660  65.8777640   5.7385330 138.2747220  66.6849830   5.5457940
 138.0678450  65.2255970   5.8911540 129.7549480  62.0427460   8.7270030
 128.8578010  62.2667430   8.9743430 129.7802350  62.1662400   7.7781430
 128.5820700  58.9140780   7.3027400 128.4428470  59.7863580   7.6714800
 127.7002060  58.5713590   7.1575340 130.3801050  64.8562480   9.5112550
 130.3516480  65.2605430   8.6440980 130.2166020  63.9272840   9.3484150
 142.3315870  65.6389580  10.8076720 142.8075590  66.1172470  11.4865800
 142.9523030  65.5707070  10.0822220 124.5339350  60.6838330   3.2198310
 124.6119770  60.8187100   2.2754030 125.1481030  59.9754220   3.4126430
 141.7349120  62.8302430   7.9676730 141.8612180  62.5914310   7.0493910
 141.7770500  61.9986970   8.4398810 135.5965860  66.5330430   6.5371540
 136.1110530  66.4438440   7.3393970 134.7534940  66.8790130   6.8299450
 141.5873130  54.8834890   8.9326470 140.9717400  55.3914560   8.4041930
 141.2669550  53.9833220   8.8752410 124.5898870  61.7252500   5.7592770
 124.7529910  61.2557860   4.9412140 125.0551320  61.2176060   6.4241610
 133.6487450  53.7226780   6.3988660 133.1866820  53.9309800   7.2108600
 133.2465560  52.9086130   6.0959330 138.6491960  54.9435730   7.5285320
 137.7985550  54.6441480   7.8494390 138.4893750  55.1877740   6.6169140
 135.7441670  56.4437480   9.6284110 136.0695080  55.6101230   9.2886340
 136.5322000  56.9666000   9.7762440 131.3993540  51.4005590   2.6542940
 131.6965870  52.3068420   2.5734960 131.9479100  50.9124370   2.0402510
 131.5931070  56.8777410   9.1894860 131.4974670  55.9372140   9.0395260
 132.4363050  57.0992480   8.7942930 126.7241610  53.2891080   7.3428640
 126.3305000  54.1366290   7.5501420 126.0360010  52.6517450   7.5337280
 133.2986660  53.3726050  10.4125380 132.6084980  53.1798250  11.0471470
 134.0418960  53.6560690  10.9449680 135.5749630  57.2124490   3.2479300
 134.8430750  57.7211300   3.5969400 135.1773970  56.3954470   2.9468080
 136.0375540  52.6658170   2.6602240 136.0548280  53.1166820   3.5044090
 135.7891120  51.7663810   2.8735680 139.4646290  50.0790350   8.4988620
 139.7892060  49.3480010   9.0246600 139.5002800  49.7603990   7.5969610
 126.1637850  61.1003930   7.9188580 125.7792640  60.4597600   8.5171540
 126.4750040  61.8040050   8.4883310 132.3134990  57.9480470   3.3997200
 132.6805120  57.4739040   4.1458540 132.1240050  58.8222040   3.7405540
 130.1034360  56.9889110   5.7181410 129.7991430  57.8681090   5.9431770
 131.0580820  57.0488900   5.7538850 139.3904130  60.1915460   2.1074650
 140.1103250  60.6870750   1.7170760 139.1885950  59.5133350   1.4628520
 134.7722930  60.2624520   7.9943650 134.7060240  59.3420190   7.7401240
 134.1428070  60.3599960   8.7088290 126.1598090  57.8291850   6.8652770
 125.8013030  58.4945700   7.4526110 125.8652650  56.9975400   7.2365390
 129.3611210  58.2876090   9.7492320 129.0611350  58.4333270   8.8520140
 130.1322450  57.7281380   9.6565710 134.7039660  63.0845090   7.7447450
 134.7184200  62.1526050   7.5266360 133.9964760  63.1704850   8.3837220
 140.9150870  59.7252430   7.0916030 140.1899060  60.3181210   6.8945420
 141.4426330  59.7175970   6.2929400 134.1373560  64.7262660   4.8387950
 134.7815780  64.9322040   5.5161370 134.5003000  63.9651060   4.3858800
 135.4105640  62.7295010   3.5565400 136.0527870  62.0288170   3.6697570
 135.9354990  63.5093450   3.3762290 137.1843260  63.5289910   6.7601460
 137.5199500  64.1156600   7.4379380 136.2643600  63.3982620   6.9899250
 124.7346660  51.3185090   7.5424870 124.0205180  51.5182010   8.1477480
 125.1541700  50.5424660   7.9139670 125.0219250  65.3065350   8.5291400
 125.1310370  64.3660090   8.3886790 124.3699810  65.5720100   7.8805130
 133.0131840  63.5781240   9.9289520 132.6928710  62.8590480  10.4735210
 132.3390200  64.2536310  10.0025580 136.2285440  53.8107400   5.2926320
 136.5966260  52.9902610   5.6205890 135.3683640  53.8709290   5.7081970
 133.1887430  56.4646990   5.5164290 133.6872680  56.9392810   6.1816140
 133.3310380  55.5410510   5.7234320 140.3954290  52.6814950   6.3592680
 139.8927890  53.4220350   6.6986490 141.2110950  53.0698950   6.0429470
 127.1677690  66.3734260  10.3411010 127.9690420  66.6946310  10.7546410
 126.6529510  66.0129840  11.0630920 136.0042320  62.4814130  10.2886420
 135.3980480  62.5045730   9.5482170 135.6996430  61.7497170  10.8253670
 137.4342690  66.2094420   8.8995830 138.3864440  66.1252440   8.8496070
 137.2870910  66.8736130   9.5729620 124.8875500  58.8607720   9.2847060
 125.3914520  58.2815000   9.8563290 124.1482920  59.1447950   9.8223430
 131.9413440  60.2678710   8.8182580 131.1759110  60.8363710   8.7337250
 132.1229400  59.9754920   7.9250810 139.0836790  61.9984040   9.3757600
 139.8246260  62.3359800   8.8725060 138.3209470  62.1676100   8.8227370
 126.9198580  57.0037310  10.1797130 126.9603920  56.7051180  11.0882360
 127.7744080  57.4044920  10.0204650 128.8604390  55.5829410   8.1471620
 128.3300850  55.0920360   7.5194960 129.5292460  56.0113610   7.6129550
 137.7582450  60.0498870   7.9112810 138.1723470  60.2043950   8.7603230
 136.8233450  60.1754090   8.0738590 138.2304620  57.3895030   9.9151960
 138.8125390  56.6347350   9.8272440 138.4066390  57.9202470   9.1383440
 129.3476690  52.5491780   8.2268910 129.2533560  51.9312530   7.5019780
 128.7674080  53.2758070   7.9998820 132.1138130  51.1065020   5.2596300
 131.6655430  51.1289280   4.4141850 131.4803330  50.7084040   5.8566600
 132.5197680  60.0019350   5.8808740 132.9385790  60.8452080   5.7084980
 131.6006310  60.1391390   5.6515520 134.8561580  57.7335530   7.2646580
 134.9757790  57.1376670   8.0041420 135.7155580  57.7705220   6.8447880
 137.1949480  58.2872720   5.8409090 136.6684700  58.8115340   5.2374230
 137.5380820  58.9200110   6.4718820 130.3705100  66.3072360   6.9966470
 129.8326190  67.0318420   6.6775170 130.6239060  65.8302700   6.2063810
 131.6230350  54.2756880   8.5222400 132.2130040  53.9672730   9.2100220
 130.8050590  53.8036630   8.6782300 136.4423780  53.8922690   8.7555420
 135.7539300  53.2304230   8.6905410 137.1629800  53.4460960   9.2003880
 133.2267310  67.5423570   7.2553120 133.1526010  68.4458710   7.5625490
 132.3246150  67.2235470   7.2275190 125.1184810  65.7368750   3.2968370
 124.6815800  65.9169550   4.1292520 125.6862490  66.4943370   3.1550090
 140.7546990  65.2385750   7.5845680 140.1548980  65.2978310   6.8409600
 140.8840890  64.2990730   7.7142530 139.4398630  61.9637730   5.6821840
 138.6258470  62.3934890   5.9447630 139.8472830  62.5756140   5.0690890
 125.9885170  58.6341550   4.1960590 126.3558210  58.5468950   5.0756610
 125.4195990  57.8708100   4.0967450 140.7889030  57.1025930   7.2091060
 140.5575120  56.8738680   6.3089010 141.0493580  58.0225480   7.1635950
 125.5401170  55.5450640   8.1019010 124.6457220  55.5117400   8.4412720
 126.0798720  55.7437430   8.8670260 139.2277100  52.3282360   9.9870760
 140.1047280  52.3365760  10.3704760 139.2397940  51.5913200   9.3763110
 140.8530090  56.2651770   4.3978330 139.9032800  56.2315310   4.5123320
 141.0343100  57.1751880   4.1628100 126.0440880  49.8198970   2.4502230
 126.6917070  49.2696350   2.0097390 126.4642720  50.0742120   3.2718040
 139.9393220  50.0140330   5.8071870 140.5765440  50.6274470   6.1731060
 140.0868110  50.0500990   4.8621100 125.7972880  49.9754640   5.1927550
 125.4487700  50.4318460   5.9585730 125.4660580  49.0811770   5.2749980
 127.4037250  63.1474240   9.3580740 127.3606880  62.7767150  10.2395200
 127.5348260  64.0851810   9.4982560 131.1043280  64.7033830   4.9590460
 130.8634640  64.9708390   4.0720980 132.0445920  64.8739560   5.0141320
 133.3097700  51.1666520   8.7146970 133.2486590  51.7588350   9.4642380
 134.2498080  51.0592480   8.5697230 135.9472260  50.8236580   8.3539260
 136.5612670  51.1415870   7.6920340 136.4921820  50.3385170   8.9735120
 142.3647440  66.7228210   5.7601100 141.8705720  67.1197080   5.0428230
 141.7560730  66.0977420   6.1538380 126.4693520  49.5030840   8.4678320
 127.0176510  49.3218890   7.7044430 126.5348830  48.7124950   9.0034630
 127.2425280  66.0936490   6.4778520 126.6485600  65.9621190   7.2168560
 127.2349120  65.2574630   6.0120620 136.6880300  49.3868720   4.6808550
 135.8140140  49.7203830   4.4781480 136.5791050  48.9141900   5.5060420
 137.5952280  51.5939590   6.0650270 137.2665640  50.7791350   5.6852000
 138.5434580  51.5509400   5.9415960 140.0486890  67.3651630   3.0387840
 139.5889860  68.1167440   2.6645860 139.4199350  66.6458100   2.9802640
 126.8737510  63.4594870   5.4286560 126.1471570  62.8400160   5.3612510
 126.9346660  63.8535480   4.5584640 130.4782610  65.6739870   2.2135970
 130.9947630  65.0627230   1.6884230 131.1279990  66.1768650   2.7046980
 133.2178110  66.5648360   3.0404950 133.5055920  66.3102660   2.1637960
 133.7301330  66.0125720   3.6310520 134.4355120  50.3038560   3.6201460
 133.6526910  50.7784060   3.8998220 134.1418050  49.3993390   3.5114640
 133.2850470  67.4864460  10.4073150 134.2117780  67.2508730  10.4509110
 133.2700900  68.3136460   9.9259180 130.4714080  50.1509210  10.1715030
 130.1898350  50.6542810   9.4075850 130.8533780  49.3530960   9.8057160
 137.0729540  49.5662790  10.7495500 136.9594990  49.8857400  11.6447020
 137.8899280  49.9675300  10.4532780 139.8528030  66.7134320  10.2314190
 140.6453350  66.2183550  10.0240150 140.1461180  67.3924460  10.8389800
 135.9787690  38.8111770 150.0821650 135.8981740  37.8966380 149.8113360
 135.5652110  39.3078840 149.3761360 138.1313160  44.9950980 150.7430050
 137.6694690  44.2238220 151.0717220 138.9438710  45.0217050 151.2482500
 126.5363510  35.8612490 146.6249070 125.6480210  36.2028460 146.5228950
 126.8204700  35.6612810 145.7329900 134.3576470  47.2808990 150.3634040
 133.7387910  47.7366490 149.7928480 135.2128250  47.4360450 149.9623740
 128.7124900  34.4443990 147.6587450 128.8191650  35.3447720 147.9656210
 127.8017260  34.3961960 147.3682100 138.3644010  33.5668800 149.1298350
 139.1853630  33.0765370 149.1723830 138.3978090  34.1566460 149.8830190
 135.2239820  42.1648230 147.7565950 134.6057090  42.6297680 147.1928670
 135.7363070  42.8575710 148.1735460 124.5923020  42.8504760 145.1305580
 124.2151000  43.3391860 144.3990480 124.8496090  43.5230040 145.7612110
 132.2011950  31.2521150 150.5891090 132.5086930  30.6968040 149.8726590
 131.2712650  31.3865610 150.4064080 139.0472430  43.6904660 147.9688720
 138.9368760  42.7478990 148.0938140 139.0440680  44.0520300 148.8551480
 134.5892710  39.3169980 147.3251210 133.6621990  39.2507360 147.5539680
 134.7417530  40.2550110 147.2106450 134.5761790  35.5886980 144.3218370
 133.6365460  35.7500940 144.4070830 134.8945050  36.3072660 143.7754360
 138.6190000  40.8790280 147.8286460 138.0002420  40.5409830 147.1812760
 138.6014450  40.2350040 148.5365650 130.1949350  39.8434720 150.1070940
 129.7906350  39.1311970 149.6116840 130.2812470  39.4987960 150.9958980
 136.7954700  40.1177090 144.8359210 137.2347980  39.2799520 144.6897030
 137.5083120  40.7506490 144.9223350 134.9050080  45.0573160 148.8040450
 135.3445990  45.7997490 148.3895840 134.8436970  45.2999730 149.7279410
 140.3771840  31.3719900 143.1500250 140.0644500  31.4646730 144.0499320
 141.1384310  31.9500930 143.0997680 126.8953980  38.7379700 147.6077590
 126.7751580  39.4641790 146.9958860 126.5854870  37.9682610 147.1305500
 125.7786980  43.6095030 149.8252410 125.3715060  43.7509620 148.9706010
 126.6699990  43.3255190 149.6223620 137.5720260  48.0442280 146.1603460
 137.4121400  47.7545220 147.0585290 137.4066970  47.2682410 145.6248690
 130.0508640  47.8240810 147.9375080 129.8751120  46.9076350 147.7242880
 129.1964380  48.1828100 148.1772880 137.2746390  45.5529840 144.7201460
 136.5811550  45.5507130 144.0603740 138.0169250  45.1289160 144.2895630
 136.8396320  47.1792550 148.7949950 137.2953270  46.3981930 149.1088570
 137.1788840  47.8899370 149.3391130 129.3617640  32.0814770 150.9901260
 128.9185790  32.8624310 150.6585780 129.9202630  32.4044660 151.6972200
 132.4776460  31.7025470 145.8707090 131.8530640  31.6985340 146.5960400
 132.3906580  30.8356430 145.4743060 129.1531860  37.2048340 148.7182510
 128.9272780  36.9885510 149.6229130 128.3724390  37.6376800 148.3728480
 136.3829620  37.2111710 147.3173160 135.7838510  37.9347510 147.1336780
 136.9309230  37.1488490 146.5349610 134.9894490  35.8475250 149.3476440
 135.3824060  36.1647450 148.5345130 135.3511340  34.9687130 149.4620960
 124.2128890  36.3796170 142.7809360 124.1303560  37.3226930 142.9224350
 123.8611950  36.2371080 141.9021710 127.8629400  34.9961690 150.8073920
 127.5229450  35.4736920 151.5640970 127.1006720  34.5426810 150.4475020
 132.0747170  36.1147280 144.8386470 132.1959990  36.0733760 145.7872290
 131.6895680  36.9771430 144.6833200 131.0868670  38.4248420 144.2369770
 130.5185570  37.9766670 143.6105680 131.7957670  38.7841200 143.7034920
 125.1775480  33.9180670 149.7238590 124.8922400  33.5536340 150.5617210
 125.1154340  33.1861130 149.1101730 128.6316150  42.4206610 146.5096180
 127.8578410  41.8804230 146.3494900 129.3610780  41.9013220 146.1713940
 134.8514070  32.8109930 146.4451960 134.0378680  32.3123100 146.3697270
 134.6576020  33.6508180 146.0288310 137.5662460  37.1829580 144.7414120
 138.4542080  37.4946810 144.5665460 137.5367550  36.3101830 144.3494700
 128.6753550  42.0886990 150.1474990 129.1932220  41.2855250 150.0931880
 128.2237570  42.0266130 150.9891820 133.5623050  43.3553270 145.4202290
 133.9038750  44.0995500 144.9245610 132.7335760  43.6684390 145.7827120
 139.8376730  38.4941420 144.2093980 139.7540450  38.9255640 143.3590420
 140.5570920  38.9539770 144.6420800 140.8663980  45.3483680 146.9376110
 140.2240140  44.6939300 147.2119830 140.4794640  45.7538770 146.1616780
 136.4450460  42.6769110 150.7847800 136.7974280  42.0797240 150.1249170
 135.5612790  42.3513340 150.9556050 132.5313740  43.4366800 148.1918210
 133.2184870  43.9836010 148.5725800 131.7446160  43.9807530 148.2267820
 124.6706140  39.0539620 143.6835290 125.5400990  39.3364420 143.9671210
 124.1796460  39.8675490 143.5684100 131.8340950  40.4412830 147.8043570
 132.2903730  41.2518080 148.0303760 131.4829160  40.1235970 148.6362060
 127.7352730  30.7850480 148.2766090 127.6067360  30.7768380 149.2251010
 126.9114750  31.1233570 147.9257100 139.2561360  44.2400140 143.4752460
 139.0298940  43.5230580 144.0677100 138.8657560  43.9912580 142.6374210
 125.0377390  48.2667000 144.2496920 125.3975030  48.8656340 143.5954190
 124.8969730  48.8126890 145.0231950 138.8377610  42.1572080 145.1366620
 138.5499310  42.6184770 145.9244500 139.6329780  41.6969850 145.4050840
 131.0546010  45.6498200 145.0670590 131.0456110  46.3827890 144.4515100
 130.1344370  45.4029780 145.1597550 126.6552650  40.8713090 145.8117350
 126.0480600  41.6111990 145.8212650 127.1302000  40.9612450 144.9855550
 139.5947470  33.9920850 146.2961800 138.9660630  34.0966520 145.5820030
 139.0999390  34.2117630 147.0855680 134.0405610  45.7126440 143.7295780
 134.1417590  45.5090430 142.7997760 133.1407350  45.4584720 143.9343560
 131.5631500  36.2706800 147.7119680 130.8547650  36.7393140 148.1533290
 131.8475980  35.6128810 148.3464870 135.5946930  32.9957460 149.1515470
 135.4714710  33.0143590 148.2024980 136.5431490  33.0436400 149.2713870
 132.6823720  48.2312760 148.4243450 132.9365220  48.1934150 147.5022820
 131.7336200  48.1046090 148.4171700 129.7666520  34.5791880 145.0870390
 130.6157050  35.0162030 145.0210580 129.3997790  34.8912140 145.9142450
 138.6876300  39.1504640 150.0001960 137.7466440  39.1654870 150.1749650
 139.0020370  38.3640600 150.4462260 128.6657940  40.8324240 143.5605920
 129.4321210  40.7205600 144.1231350 128.7432630  40.1362210 142.9082690
 127.3604700  38.2649310 144.2438810 127.4408290  37.3176820 144.3556210
 128.2524450  38.5956190 144.3499470 128.1619410  48.4144700 151.3473350
 128.8981890  47.8660160 151.6181920 128.5460330  49.2800710 151.2079340
 125.0464890  44.4818270 147.2214860 124.1204670  44.7239410 147.2120270
 125.5121320  45.3092530 147.0999610 131.2721720  47.5875010 143.1698920
 132.0650330  47.8763840 142.7180710 130.7526070  47.1567180 142.4911400
 140.3251890  46.8145140 144.5935660 140.0393400  46.4010280 143.7789840
 140.1271440  47.7432850 144.4736180 131.7899120  42.8078420 143.0341270
 131.6849760  42.1930770 143.7602650 131.6223340  42.2844310 142.2504280
 135.0301850  41.8698450 143.6383260 134.4811950  42.3167750 144.2826000
 135.6521110  41.3647700 144.1620930 130.6976970  40.8289370 145.5348560
 131.1193390  40.6629240 146.3779950 130.8227810  40.0189600 145.0403700
 133.2104610  39.8526980 142.7825660 133.7310270  39.1376000 142.4166810
 133.8573010  40.4912850 143.0826170 129.5935870  36.9022600 142.4806720
 129.3924930  36.0389960 142.8420060 129.4227920  36.8155960 141.5428320
 137.0724180  31.7130830 145.0093600 137.3526470  30.8698730 145.3653020
 136.2989910  31.9453940 145.5232350 128.3918670  34.0023220 142.4684600
 128.6944570  34.0090650 141.5603750 129.1313260  33.6521080 142.9652260
 131.6103600  32.9457840 143.4540800 131.2625600  32.2681830 142.8743250
 131.8116370  32.4847350 144.2684190 133.7752640  47.9338590 145.0727400
 134.6703430  48.2723560 145.0946160 133.8070270  47.2118000 144.4451680
 127.4148800  43.3065640 143.3014400 127.8523670  43.8495310 143.9571980
 127.8996530  42.4812590 143.3110740 124.6294600  46.0954670 150.7534660
 124.9597610  45.2275730 150.5213300 125.0585600  46.3013190 151.5839620
 129.2256520  44.4263680 148.4136630 128.9252060  44.3028650 149.3140540
 129.1194010  43.5672270 148.0052360 141.9948440  44.2060080 143.1163310
 141.1641400  44.2736730 143.5870540 142.1720270  45.0964200 142.8130170
 141.4504900  40.9507560 145.6197510 142.2123810  41.5204210 145.7257200
 141.4659270  40.3834760 146.3905820 124.9509240  39.4745490 149.8505170
 124.2958080  39.2057130 149.2064870 125.7887190  39.3649970 149.4007150
 142.4564870  41.8057660 150.4639440 142.8273700  41.0224980 150.0575410
 143.0966800  42.4946760 150.2856740 141.5024070  41.2441930 142.7770030
 141.7772910  42.1520810 142.6489250 141.3134810  41.1804460 143.7132020
 137.8999680  34.2686780 144.0723660 138.3184560  34.0817760 143.2320320
 137.5935740  33.4165830 144.3826590 141.3989410  39.1810920 147.7699460
 141.0233010  38.4138850 147.3380750 140.6692530  39.5633620 148.2574390
 124.1647320  36.6844420 145.7930500 123.2611400  36.9474620 145.6182160
 124.6487940  36.9555590 145.0130460 126.7074530  35.7409960 143.7024880
 127.4166230  35.3193180 143.2172160 125.9914470  35.8085190 143.0708230
 126.3548690  31.7949290 142.7427530 127.0776820  32.3358230 143.0608750
 126.6273210  31.5212710 141.8669070 140.1640340  36.6641760 147.0099110
 140.6599460  36.4312630 147.7947990 139.9656410  35.8253600 146.5936750
 141.5927500  35.3002710 149.5436790 141.4826780  35.1458750 150.4819060
 142.3535090  34.7723650 149.3012200 142.4817770  33.1310630 142.7842930
 143.4067080  32.9991810 142.5761220 142.4593560  33.2103450 143.7379380
 142.5556260  33.9021290 145.4099640 141.7607760  33.8366410 145.9392550
 142.7599540  34.8371930 145.3984990 139.4974680  47.9412840 149.4038030
 140.0933750  47.6197410 148.7272450 139.7552830  47.4684660 150.1951300
 140.8514760  31.8633410 149.8707290 140.7903160  30.9194630 149.7238310
 141.6306790  31.9713500 150.4160750 125.1567510  48.0025770 148.8331240
 124.9889550  47.3696450 149.5313130 124.2902020  48.2085170 148.4825430
 125.7795530  31.8342550 146.3363100 126.5374890  31.9471430 145.7627130
 125.3172700  32.6711750 146.2906530 132.3209340  33.9481820 149.3265410
 131.5083850  33.5738710 148.9861290 132.8250980  33.1926900 149.6286600
 136.8234320  30.6124270 150.5648480 137.4263690  31.1844480 151.0397000
 136.0827310  31.1763710 150.3422380 139.9668920  31.0145830 145.8388760
 140.1619550  31.9129280 146.1056190 139.1798790  30.7832910 146.3321710
 126.7630210  46.6959000 146.2781380 126.2377830  47.0767030 145.5743340
 126.6874790  47.3209770 146.9991090 128.1520680  32.3606600 144.8765070
 128.6813440  31.5736400 144.7473020 128.7849000  33.0397790 145.1100600
 130.3458520  32.0981740 147.9310460 129.7161260  31.3969050 148.0980590
 129.8063660  32.8585870 147.7143620 141.5195530  48.2546540 147.5995320
 141.6947720  47.5684280 146.9556240 140.8217100  48.7793590 147.2071990
 129.3623180  48.6441380 145.1530630 130.0942000  48.3600660 144.6054520
 129.6216850  48.4054660 146.0430010 128.5237970  44.7606110 145.1576960
 127.8946850  45.2291210 145.7062790 128.6385800  43.9155330 145.5923150
 135.9787690  38.8111770 131.3078160 135.8981740  37.8966380 131.0369870
 135.5652110  39.3078840 130.6017870 134.1105730  40.5890790 133.1887430
 133.3347830  40.1091230 133.4786000 134.7618660  39.9096440 133.0143590
 128.1271560  40.9010600 134.0663190 127.2956440  40.6459310 134.4659700
 128.7352540  40.9721370 134.8021110 138.1313160  44.9950980 131.9686560
 137.6694690  44.2238220 132.2973730 138.9438710  45.0217050 132.4739010
 128.1072820  44.9350690 134.2621210 128.4100860  44.0448430 134.0831430
 128.8516410  45.4920910 134.0343460 126.5363510  35.8612490 127.8505580
 125.6480210  36.2028460 127.7485460 126.8204700  35.6612810 126.9586410
 124.4996520  38.4618140 133.7345280 125.0712630  37.6940340 133.7348920
 124.4998060  38.7606900 132.8251890 134.3576470  47.2808990 131.5890550
 133.7387910  47.7366490 131.0184990 135.2128250  47.4360450 131.1880250
 133.5514720  43.2647980 133.1957590 133.4823000  42.3237920 133.0346720
 134.3134580  43.3549390 133.7680160 125.7421390  33.8702500 135.5214210
 125.5624230  32.9728250 135.8016970 125.3401470  34.4174370 136.1961160
 134.5819890  36.0718360 133.4226520 134.9584710  35.1990240 133.3100190
 134.4839400  36.4077060 132.5316960 128.7124900  34.4443990 128.8843960
 128.8191650  35.3447720 129.1912720 127.8017260  34.3961960 128.5938610
 138.3644010  33.5668800 130.3554860 139.1853630  33.0765370 130.3980340
 138.3978090  34.1566460 131.1086700 126.3608060  36.3663000 134.1296550
 127.0418170  36.6301370 134.7483950 126.0456110  35.5263870 134.4634560
 130.5532630  37.4130360 133.2169140 131.0610850  37.9111330 133.8574160
 131.0845870  36.6365560 133.0408500 142.6543560  35.5835550 136.9198490
 141.9495730  35.9717260 136.4013600 142.9201480  36.2785840 137.5219420
 128.8368730  32.0528920 137.4832560 128.8387170  32.5701310 136.6778460
 128.0073040  31.5759100 137.4602490 135.2239820  42.1648230 128.9822460
 134.6057090  42.6297680 128.4185180 135.7363070  42.8575710 129.3991970
 130.0871580  41.6924100 135.6606060 129.7540960  42.3193020 136.3027130
 130.2638260  42.2185980 134.8807730 138.6005490  35.5069180 133.1282400
 137.8961060  35.7954070 133.7085510 138.9617650  36.3169290 132.7681960
 128.5184060  33.7638880 135.4903010 128.8600870  34.6080930 135.1956880
 127.5799870  33.9122620 135.6068350 129.2990680  43.6604900 137.4755240
 129.9164680  44.3355980 137.1939690 128.4383800  44.0692880 137.3842740
 124.5923020  42.8504760 126.3562090 124.2151000  43.3391860 125.6246990
 124.8496090  43.5230040 126.9868620 140.2168270  45.1244310 135.3909880
 139.5331790  45.7943420 135.3826550 140.7562560  45.3224960 134.6254740
 141.6692410  34.9523970 133.5191610 140.7217320  34.9862950 133.6507040
 141.9942400  35.7662920 133.9040970 132.2011950  31.2521150 131.8147600
 132.5086930  30.6968040 131.0983100 131.2712650  31.3865610 131.6320590
 137.7527010  46.9688440 134.1055060 137.7654170  46.5650730 133.2377320
 137.2002230  47.7435730 134.0016490 139.0472430  43.6904660 129.1945230
 138.9368760  42.7478990 129.3194650 139.0440680  44.0520300 130.0807990
 137.1512450  41.8718280 135.4337670 137.5681240  41.6578390 134.5991130
 137.8752270  42.1291070 136.0046290 134.5892710  39.3169980 128.5507720
 133.6621990  39.2507360 128.7796190 134.7417530  40.2550110 128.4362960
 134.5761790  35.5886980 125.5474880 133.6365460  35.7500940 125.6327340
 134.8945050  36.3072660 125.0010870 141.0974550  40.2705500 135.5253910
 140.2693180  40.3398590 135.0504040 141.6925030  40.8559810 135.0569740
 138.6190000  40.8790280 129.0542970 138.0002420  40.5409830 128.4069270
 138.6014450  40.2350040 129.7622160 138.0616560  37.0574820 136.4708780
 137.6487740  37.8828530 136.7248770 137.3292510  36.4719860 136.2785140
 130.1949350  39.8434720 131.3327450 129.7906350  39.1311970 130.8373350
 130.2812470  39.4987960 132.2215490 130.6631050  43.5302280 133.4966660
 130.3659340  42.9247750 132.8174440 131.6130870  43.5679590 133.3856020
 128.9077970  36.6177930 135.1126490 129.4592560  36.7273270 134.3379740
 129.4221480  36.9915530 135.8281720 138.7516660  47.1034150 137.1589760
 138.2747220  47.9106340 136.9662370 138.0678450  46.4512480 137.3115970
 129.7549480  43.2683970 140.1474460 128.8578010  43.4923940 140.3947860
 129.7802350  43.3918910 139.1985860 136.7954700  40.1177090 126.0615720
 137.2347980  39.2799520 125.9153540 137.5083120  40.7506490 126.1479860
 128.5820700  40.1397290 138.7231830 128.4428470  41.0120090 139.0919230
 127.7002060  39.7970100 138.5779770 134.9050080  45.0573160 130.0296960
 135.3445990  45.7997490 129.6152350 134.8436970  45.2999730 130.9535920
 130.3801050  46.0818990 140.9316980 130.3516480  46.4861940 140.0645410
 130.2166020  45.1529350 140.7688580 140.3771840  31.3719900 124.3756760
 140.0644500  31.4646730 125.2755830 141.1384310  31.9500930 124.3254190
 126.8953980  38.7379700 128.8334100 126.7751580  39.4641790 128.2215370
 126.5854870  37.9682610 128.3562010 142.3315870  46.8646090 142.2281150
 142.8075590  47.3428980 142.9070230 142.9523030  46.7963580 141.5026650
 124.5339350  41.9094840 134.6402740 124.6119770  42.0443610 133.6958460
 125.1481030  41.2010730 134.8330860 125.7786980  43.6095030 131.0508920
 125.3715060  43.7509620 130.1962520 126.6699990  43.3255190 130.8480130
 141.7349120  44.0558940 139.3881160 141.8612180  43.8170820 138.4698340
 141.7770500  43.2243480 139.8603240 135.5965860  47.7586940 137.9575970
 136.1110530  47.6694950 138.7598400 134.7534940  48.1046640 138.2503880
 137.5720260  48.0442280 127.3859970 137.4121400  47.7545220 128.2841800
 137.4066970  47.2682410 126.8505200 130.0508640  47.8240810 129.1631590
 129.8751120  46.9076350 128.9499390 129.1964380  48.1828100 129.4029390
 137.2746390  45.5529840 125.9457970 136.5811550  45.5507130 125.2860250
 138.0169250  45.1289160 125.5152140 136.8396320  47.1792550 130.0206460
 137.2953270  46.3981930 130.3345080 137.1788840  47.8899370 130.5647640
 141.5873130  36.1091400 140.3530900 140.9717400  36.6171070 139.8246360
 141.2669550  35.2089730 140.2956840 124.5898870  42.9509010 137.1797200
 124.7529910  42.4814370 136.3616570 125.0551320  42.4432570 137.8446040
 129.3617640  32.0814770 132.2157770 128.9185790  32.8624310 131.8842290
 129.9202630  32.4044660 132.9228710 133.6487450  34.9483290 137.8193090
 133.1866820  35.1566310 138.6313030 133.2465560  34.1342640 137.5163760
 138.6491960  36.1692240 138.9489750 137.7985550  35.8697990 139.2698820
 138.4893750  36.4134250 138.0373570 135.7441670  37.6693990 141.0488540
 136.0695080  36.8357740 140.7090770 136.5322000  38.1922510 141.1966870
 132.4776460  31.7025470 127.0963600 131.8530640  31.6985340 127.8216910
 132.3906580  30.8356430 126.6999570 131.3993540  32.6262100 134.0747370
 131.6965870  33.5324930 133.9939390 131.9479100  32.1380880 133.4606940
 129.1531860  37.2048340 129.9439020 128.9272780  36.9885510 130.8485640
 128.3724390  37.6376800 129.5984990 136.3829620  37.2111710 128.5429670
 135.7838510  37.9347510 128.3593290 136.9309230  37.1488490 127.7606120
 131.5931070  38.1033920 140.6099290 131.4974670  37.1628650 140.4599690
 132.4363050  38.3248990 140.2147360 134.9894490  35.8475250 130.5732950
 135.3824060  36.1647450 129.7601640 135.3511340  34.9687130 130.6877470
 126.7241610  34.5147590 138.7633070 126.3305000  35.3622800 138.9705850
 126.0360010  33.8773960 138.9541710 133.2986660  34.5982560 141.8329810
 132.6084980  34.4054760 142.4675900 134.0418960  34.8817200 142.3654110
 124.0258660  32.4376050 132.7963150 123.7371710  33.0078910 133.5088130
 124.7704420  31.9580500 133.1594380 124.2128890  36.3796170 124.0065870
 124.1303560  37.3226930 124.1480860 123.8611950  36.2371080 123.1278220
 135.5749630  38.4381000 134.6683730 134.8430750  38.9467810 135.0173830
 135.1773970  37.6210980 134.3672510 132.0127020  35.1135200 133.0736220
 132.0163080  34.6725150 132.2240760 132.9078140  35.4352530 133.1808040
 127.8629400  34.9961690 132.0330430 127.5229450  35.4736920 132.7897480
 127.1006720  34.5426810 131.6731530 132.0747170  36.1147280 126.0642980
 132.1959990  36.0733760 127.0128800 131.6895680  36.9771430 125.9089710
 136.0375540  33.8914680 134.0806670 136.0548280  34.3423330 134.9248520
 135.7891120  32.9920320 134.2940110 131.0868670  38.4248420 125.4626280
 130.5185570  37.9766670 124.8362190 131.7957670  38.7841200 124.9291430
 139.4646290  31.3046860 139.9193050 139.7892060  30.5736520 140.4451030
 139.5002800  30.9860500 139.0174040 126.1637850  42.3260440 139.3393010
 125.7792640  41.6854110 139.9375970 126.4750040  43.0296560 139.9087740
 132.3134990  39.1736980 134.8201630 132.6805120  38.6995550 135.5662970
 132.1240050  40.0478550 135.1609970 125.1775480  33.9180670 130.9495100
 124.8922400  33.5536340 131.7873720 125.1154340  33.1861130 130.3358240
 130.1034360  38.2145620 137.1385840 129.7991430  39.0937600 137.3636200
 131.0580820  38.2745410 137.1743280 128.6316150  42.4206610 127.7352690
 127.8578410  41.8804230 127.5751410 129.3610780  41.9013220 127.3970450
 139.3904130  41.4171970 133.5279080 140.1103250  41.9127260 133.1375190
 139.1885950  40.7389860 132.8832950 134.8514070  32.8109930 127.6708470
 134.0378680  32.3123100 127.5953780 134.6576020  33.6508180 127.2544820
 134.7722930  41.4881030 139.4148080 134.7060240  40.5676700 139.1605670
 134.1428070  41.5856470 140.1292720 137.5662460  37.1829580 125.9670630
 138.4542080  37.4946810 125.7921970 137.5367550  36.3101830 125.5751210
 128.6753550  42.0886990 131.3731500 129.1932220  41.2855250 131.3188390
 128.2237570  42.0266130 132.2148330 133.5623050  43.3553270 126.6458800
 133.9038750  44.0995500 126.1502120 132.7335760  43.6684390 127.0083630
 126.1598090  39.0548360 138.2857200 125.8013030  39.7202210 138.8730540
 125.8652650  38.2231910 138.6569820 129.3611210  39.5132600 141.1696750
 129.0611350  39.6589780 140.2724570 130.1322450  38.9537890 141.0770140
 134.7039660  44.3101600 139.1651880 134.7184200  43.3782560 138.9470790
 133.9964760  44.3961360 139.8041650 139.8376730  38.4941420 125.4350490
 139.7540450  38.9255640 124.5846930 140.5570920  38.9539770 125.8677310
 140.9150870  40.9508940 138.5120460 140.1899060  41.5437720 138.3149850
 141.4426330  40.9432480 137.7133830 140.8663980  45.3483680 128.1632620
 140.2240140  44.6939300 128.4376340 140.4794640  45.7538770 127.3873290
 136.4450460  42.6769110 132.0104310 136.7974280  42.0797240 131.3505680
 135.5612790  42.3513340 132.1812560 132.5313740  43.4366800 129.4174720
 133.2184870  43.9836010 129.7982310 131.7446160  43.9807530 129.4524330
 124.6706140  39.0539620 124.9091800 125.5400990  39.3364420 125.1927720
 124.1796460  39.8675490 124.7940610 131.8340950  40.4412830 129.0300080
 132.2903730  41.2518080 129.2560270 131.4829160  40.1235970 129.8618570
 134.1373560  45.9519170 136.2592380 134.7815780  46.1578550 136.9365800
 134.5003000  45.1907570 135.8063230 127.7352730  30.7850480 129.5022600
 127.6067360  30.7768380 130.4507520 126.9114750  31.1233570 129.1513610
 135.4105640  43.9551520 134.9769830 136.0527870  43.2544680 135.0902000
 135.9354990  44.7349960 134.7966720 139.2561360  44.2400140 124.7008970
 139.0298940  43.5230580 125.2933610 138.8657560  43.9912580 123.8630720
 137.1843260  44.7546420 138.1805890 137.5199500  45.3413110 138.8583810
 136.2643600  44.6239130 138.4103680 125.0377390  48.2667000 125.4753430
 125.3975030  48.8656340 124.8210700 124.8969730  48.8126890 126.2488460
 124.7346660  32.5441600 138.9629300 124.0205180  32.7438520 139.5681910
 125.1541700  31.7681170 139.3344100 138.8377610  42.1572080 126.3623130
 138.5499310  42.6184770 127.1501010 139.6329780  41.6969850 126.6307350
 125.0219250  46.5321860 139.9495830 125.1310370  45.5916600 139.8091220
 124.3699810  46.7976610 139.3009560 133.0131840  44.8037750 141.3493950
 132.6928710  44.0846990 141.8939640 132.3390200  45.4792820 141.4230010
 131.0546010  45.6498200 126.2927100 131.0456110  46.3827890 125.6771610
 130.1344370  45.4029780 126.3854060 126.6552650  40.8713090 127.0373860
 126.0480600  41.6111990 127.0469160 127.1302000  40.9612450 126.2112060
 136.2285440  35.0363910 136.7130750 136.5966260  34.2159120 137.0410320
 135.3683640  35.0965800 137.1286400 139.5947470  33.9920850 127.5218310
 138.9660630  34.0966520 126.8076540 139.0999390  34.2117630 128.3112190
 134.0405610  45.7126440 124.9552290 134.1417590  45.5090430 124.0254270
 133.1407350  45.4584720 125.1600070 131.5631500  36.2706800 128.9376190
 130.8547650  36.7393140 129.3789800 131.8475980  35.6128810 129.5721380
 133.1887430  37.6903500 136.9368720 133.6872680  38.1649320 137.6020570
 133.3310380  36.7667020 137.1438750 135.5946930  32.9957460 130.3771980
 135.4714710  33.0143590 129.4281490 136.5431490  33.0436400 130.4970380
 132.6823720  48.2312760 129.6499960 132.9365220  48.1934150 128.7279330
 131.7336200  48.1046090 129.6428210 129.7666520  34.5791880 126.3126900
 130.6157050  35.0162030 126.2467090 129.3997790  34.8912140 127.1398960
 140.3954290  33.9071460 137.7797110 139.8927890  34.6476860 138.1190920
 141.2110950  34.2955460 137.4633900 138.6876300  39.1504640 131.2258470
 137.7466440  39.1654870 131.4006160 139.0020370  38.3640600 131.6718770
 128.6657940  40.8324240 124.7862430 129.4321210  40.7205600 125.3487860
 128.7432630  40.1362210 124.1339200 127.3604700  38.2649310 125.4695320
 127.4408290  37.3176820 125.5812720 128.2524450  38.5956190 125.5755980
 140.6901880  46.3213490 132.9012730 140.8149300  47.1444660 133.3736540
 141.5567440  46.1104220 132.5536880 128.1619410  48.4144700 132.5729860
 128.8981890  47.8660160 132.8438430 128.5460330  49.2800710 132.4335850
 125.0464890  44.4818270 128.4471370 124.1204670  44.7239410 128.4376780
 125.5121320  45.3092530 128.3256120 127.1677690  47.5990770 141.7615440
 127.9690420  47.9202820 142.1750840 126.6529510  47.2386350 142.4835350
 131.2721720  47.5875010 124.3955430 132.0650330  47.8763840 123.9437220
 130.7526070  47.1567180 123.7167910 136.0042320  43.7070640 141.7090850
 135.3980480  43.7302240 140.9686600 135.6996430  42.9753680 142.2458100
 137.4342690  47.4350930 140.3200260 138.3864440  47.3508950 140.2700500
 137.2870910  48.0992640 140.9934050 140.3251890  46.8145140 125.8192170
 140.0393400  46.4010280 125.0046350 140.1271440  47.7432850 125.6992690
 124.8875500  40.0864230 140.7051490 125.3914520  39.5071510 141.2767720
 124.1482920  40.3704460 141.2427860 131.7899120  42.8078420 124.2597780
 131.6849760  42.1930770 124.9859160 131.6223340  42.2844310 123.4760790
 131.9413440  41.4935220 140.2387010 131.1759110  42.0620220 140.1541680
 132.1229400  41.2011430 139.3455240 135.0301850  41.8698450 124.8639770
 134.4811950  42.3167750 125.5082510 135.6521110  41.3647700 125.3877440
 139.0836790  43.2240550 140.7962030 139.8246260  43.5616310 140.2929490
 138.3209470  43.3932610 140.2431800 126.9198580  38.2293820 141.6001560
 126.9603920  37.9307690 142.5086790 127.7744080  38.6301430 141.4409080
 130.6976970  40.8289370 126.7605070 131.1193390  40.6629240 127.6036460
 130.8227810  40.0189600 126.2660210 128.8604390  36.8085920 139.5676050
 128.3300850  36.3176870 138.9399390 129.5292460  37.2370120 139.0333980
 133.2104610  39.8526980 124.0082170 133.7310270  39.1376000 123.6423320
 133.8573010  40.4912850 124.3082680 137.7582450  41.2755380 139.3317240
 138.1723470  41.4300460 140.1807660 136.8233450  41.4010600 139.4943020
 138.2304620  38.6151540 141.3356390 138.8125390  37.8603860 141.2476870
 138.4066390  39.1458980 140.5587870 129.3476690  33.7748290 139.6473340
 129.2533560  33.1569040 138.9224210 128.7674080  34.5014580 139.4203250
 132.1138130  32.3321530 136.6800730 131.6655430  32.3545790 135.8346280
 131.4803330  31.9340550 137.2771030 132.5197680  41.2275860 137.3013170
 132.9385790  42.0708590 137.1289410 131.6006310  41.3647900 137.0719950
 134.8561580  38.9592040 138.6851010 134.9757790  38.3633180 139.4245850
 135.7155580  38.9961730 138.2652310 137.1949480  39.5129230 137.2613520
 136.6684700  40.0371850 136.6578660 137.5380820  40.1456620 137.8923250
 129.5935870  36.9022600 123.7063230 129.3924930  36.0389960 124.0676570
 129.4227920  36.8155960 122.7684830 130.3705100  47.5328870 138.4170900
 129.8326190  48.2574930 138.0979600 130.6239060  47.0559210 137.6268240
 131.6230350  35.5013390 139.9426830 132.2130040  35.1929240 140.6304650
 130.8050590  35.0293140 140.0986730 136.4423780  35.1179200 140.1759850
 135.7539300  34.4560740 140.1109840 137.1629800  34.6717470 140.6208310
 137.0724180  31.7130830 126.2350110 137.3526470  30.8698730 126.5909530
 136.2989910  31.9453940 126.7488860 128.3918670  34.0023220 123.6941110
 128.6944570  34.0090650 122.7860260 129.1313260  33.6521080 124.1908770
 133.2267310  48.7680080 138.6757550 133.1526010  49.6715220 138.9829920
 132.3246150  48.4491980 138.6479620 131.6103600  32.9457840 124.6797310
 131.2625600  32.2681830 124.0999760 131.8116370  32.4847350 125.4940700
 133.7752640  47.9338590 126.2983910 134.6703430  48.2723560 126.3202670
 133.8070270  47.2118000 125.6708190 127.4148800  43.3065640 124.5270910
 127.8523670  43.8495310 125.1828490 127.8996530  42.4812590 124.5367250
 124.6294600  46.0954670 131.9791170 124.9597610  45.2275730 131.7469810
 125.0585600  46.3013190 132.8096130 129.2256520  44.4263680 129.6393140
 128.9252060  44.3028650 130.5397050 129.1194010  43.5672270 129.2308870
 125.1184810  46.9625260 134.7172800 124.6815800  47.1426060 135.5496950
 125.6862490  47.7199880 134.5754520 140.7546990  46.4642260 139.0050110
 140.1548980  46.5234820 138.2614030 140.8840890  45.5247240 139.1346960
 141.9948440  44.2060080 124.3419820 141.1641400  44.2736730 124.8127050
 142.1720270  45.0964200 124.0386680 141.4504900  40.9507560 126.8454020
 142.2123810  41.5204210 126.9513710 141.4659270  40.3834760 127.6162330
 124.9509240  39.4745490 131.0761680 124.2958080  39.2057130 130.4321380
 125.7887190  39.3649970 130.6263660 142.4564870  41.8057660 131.6895950
 142.8273700  41.0224980 131.2831920 143.0966800  42.4946760 131.5113250
 139.4398630  43.1894240 137.1026270 138.6258470  43.6191400 137.3652060
 139.8472830  43.8012650 136.4895320 141.5024070  41.2441930 124.0026540
 141.7772910  42.1520810 123.8745760 141.3134810  41.1804460 124.9388530
 137.8999680  34.2686780 125.2980170 138.3184560  34.0817760 124.4576830
 137.5935740  33.4165830 125.6083100 141.3989410  39.1810920 128.9955970
 141.0233010  38.4138850 128.5637260 140.6692530  39.5633620 129.4830900
 125.9885170  39.8598060 135.6165020 126.3558210  39.7725460 136.4961040
 125.4195990  39.0964610 135.5171880 140.7889030  38.3282440 138.6295490
 140.5575120  38.0995190 137.7293440 141.0493580  39.2481990 138.5840380
 125.5401170  36.7707150 139.5223440 124.6457220  36.7373910 139.8617150
 126.0798720  36.9693940 140.2874690 139.2277100  33.5538870 141.4075190
 140.1047280  33.5622270 141.7909190 139.2397940  32.8169710 140.7967540
 124.1647320  36.6844420 127.0187010 123.2611400  36.9474620 126.8438670
 124.6487940  36.9555590 126.2386970 140.6740370  37.4068410 132.2963210
 141.1977850  36.9131060 131.6653380 141.2599790  37.5418770 133.0410780
 140.8530090  37.4908280 135.8182760 139.9032800  37.4571820 135.9327750
 141.0343100  38.4008390 135.5832530 126.7074530  35.7409960 124.9281390
 127.4166230  35.3193180 124.4428670 125.9914470  35.8085190 124.2964740
 126.3548690  31.7949290 123.9684040 127.0776820  32.3358230 124.2865260
 126.6273210  31.5212710 123.0925580 140.1640340  36.6641760 128.2355620
 140.6599460  36.4312630 129.0204500 139.9656410  35.8253600 127.8193260
 126.0440880  31.0455480 133.8706660 126.6917070  30.4952860 133.4301820
 126.4642720  31.2998630 134.6922470 141.5927500  35.3002710 130.7693300
 141.4826780  35.1458750 131.7075570 142.3535090  34.7723650 130.5268710
 139.9393220  31.2396840 137.2276300 140.5765440  31.8530980 137.5935490
 140.0868110  31.2757500 136.2825530 142.4817770  33.1310630 124.0099440
 143.4067080  32.9991810 123.8017730 142.4593560  33.2103450 124.9635890
 142.5556260  33.9021290 126.6356150 141.7607760  33.8366410 127.1649060
 142.7599540  34.8371930 126.6241500 139.4974680  47.9412840 130.6294540
 140.0933750  47.6197410 129.9528960 139.7552830  47.4684660 131.4207810
 125.7972880  31.2011150 136.6131980 125.4487700  31.6574970 137.3790160
 125.4660580  30.3068280 136.6954410 127.4037250  44.3730750 140.7785170
 127.3606880  44.0023660 141.6599630 127.5348260  45.3108320 140.9186990
 131.1043280  45.9290340 136.3794890 130.8634640  46.1964900 135.4925410
 132.0445920  46.0996070 136.4345750 133.3097700  32.3923030 140.1351400
 133.2486590  32.9844860 140.8846810 134.2498080  32.2848990 139.9901660
 135.9472260  32.0493090 139.7743690 136.5612670  32.3672380 139.1124770
 136.4921820  31.5641680 140.3939550 142.3647440  47.9484720 137.1805530
 141.8705720  48.3453590 136.4632660 141.7560730  47.3233930 137.5742810
 126.4693520  30.7287350 139.8882750 127.0176510  30.5475400 139.1248860
 126.5348830  29.9381460 140.4239060 127.2425280  47.3193000 137.8982950
 126.6485600  47.1877700 138.6372990 127.2349120  46.4831140 137.4325050
 136.6880300  30.6125230 136.1012980 135.8140140  30.9460340 135.8985910
 136.5791050  30.1398410 136.9264850 137.5952280  32.8196100 137.4854700
 137.2665640  32.0047860 137.1056430 138.5434580  32.7765910 137.3620390
 140.0486890  48.5908140 134.4592270 139.5889860  49.3423950 134.0850290
 139.4199350  47.8714610 134.4007070 126.8737510  44.6851380 136.8490990
 126.1471570  44.0656670 136.7816940 126.9346660  45.0791990 135.9789070
 130.4782610  46.8996380 133.6340400 130.9947630  46.2883740 133.1088660
 131.1279990  47.4025160 134.1251410 133.2178110  47.7904870 134.4609380
 133.5055920  47.5359170 133.5842390 133.7301330  47.2382230 135.0514950
 134.4355120  31.5295070 135.0405890 133.6526910  32.0040570 135.3202650
 134.1418050  30.6249900 134.9319070 138.9876190  32.2318170 133.0854980
 139.4284280  32.1763270 132.2376580 138.7183780  33.1476180 133.1565160
 140.8514760  31.8633410 131.0963800 140.7903160  30.9194630 130.9494820
 141.6306790  31.9713500 131.6417260 125.1567510  48.0025770 130.0587750
 124.9889550  47.3696450 130.7569640 124.2902020  48.2085170 129.7081940
 125.7795530  31.8342550 127.5619610 126.5374890  31.9471430 126.9883640
 125.3172700  32.6711750 127.5163040 132.3209340  33.9481820 130.5521920
 131.5083850  33.5738710 130.2117800 132.8250980  33.1926900 130.8543110
 136.8234320  30.6124270 131.7904990 137.4263690  31.1844480 132.2653510
 136.0827310  31.1763710 131.5678890 139.9668920  31.0145830 127.0645270
 140.1619550  31.9129280 127.3312700 139.1798790  30.7832910 127.5578220
 126.7630210  46.6959000 127.5037890 126.2377830  47.0767030 126.7999850
 126.6874790  47.3209770 128.2247600 128.1520680  32.3606600 126.1021580
 128.6813440  31.5736400 125.9729530 128.7849000  33.0397790 126.3357110
 130.3458520  32.0981740 129.1566970 129.7161260  31.3969050 129.3237100
 129.8063660  32.8585870 128.9400130 133.2850470  48.7120970 141.8277580
 134.2117780  48.4765240 141.8713540 133.2700900  49.5392970 141.3463610
 141.5195530  48.2546540 128.8251830 141.6947720  47.5684280 128.1812750
 140.8217100  48.7793590 128.4328500 130.4714080  31.3765720 141.5919460
 130.1898350  31.8799320 140.8280280 130.8533780  30.5787470 141.2261590
 129.3623180  48.6441380 126.3787140 130.0942000  48.3600660 125.8311030
 129.6216850  48.4054660 127.2686520 128.5237970  44.7606110 126.3833470
 127.8946850  45.2291210 126.9319300 128.6385800  43.9155330 126.8179660
 137.0729540  30.7919300 142.1699930 136.9594990  31.1113910 143.0651450
 137.8899280  31.1931810 141.8737210 139.8528030  47.9390830 141.6518620
 140.6453350  47.4440060 141.4444580 140.1461180  48.6180970 142.2594230
 135.9787690  38.8111770 112.5334670 135.8981740  37.8966380 112.2626380
 135.5652110  39.3078840 111.8274380 134.1105730  40.5890790 114.4143940
 133.3347830  40.1091230 114.7042510 134.7618660  39.9096440 114.2400100
 128.1271560  40.9010600 115.2919700 127.2956440  40.6459310 115.6916210
 128.7352540  40.9721370 116.0277620 138.1313160  44.9950980 113.1943070
 137.6694690  44.2238220 113.5230240 138.9438710  45.0217050 113.6995520
 128.1072820  44.9350690 115.4877720 128.4100860  44.0448430 115.3087940
 128.8516410  45.4920910 115.2599970 126.5363510  35.8612490 109.0762090
 125.6480210  36.2028460 108.9741970 126.8204700  35.6612810 108.1842920
 124.4996520  38.4618140 114.9601790 125.0712630  37.6940340 114.9605430
 124.4998060  38.7606900 114.0508400 134.3576470  47.2808990 112.8147060
 133.7387910  47.7366490 112.2441500 135.2128250  47.4360450 112.4136760
 133.5514720  43.2647980 114.4214100 133.4823000  42.3237920 114.2603230
 134.3134580  43.3549390 114.9936670 125.7421390  33.8702500 116.7470720
 125.5624230  32.9728250 117.0273480 125.3401470  34.4174370 117.4217670
 134.5819890  36.0718360 114.6483030 134.9584710  35.1990240 114.5356700
 134.4839400  36.4077060 113.7573470 128.7124900  34.4443990 110.1100470
 128.8191650  35.3447720 110.4169230 127.8017260  34.3961960 109.8195120
 138.3644010  33.5668800 111.5811370 139.1853630  33.0765370 111.6236850
 138.3978090  34.1566460 112.3343210 126.3608060  36.3663000 115.3553060
 127.0418170  36.6301370 115.9740460 126.0456110  35.5263870 115.6891070
 130.5532630  37.4130360 114.4425650 131.0610850  37.9111330 115.0830670
 131.0845870  36.6365560 114.2665010 142.6543560  35.5835550 118.1455000
 141.9495730  35.9717260 117.6270110 142.9201480  36.2785840 118.7475930
 128.8368730  32.0528920 118.7089070 128.8387170  32.5701310 117.9034970
 128.0073040  31.5759100 118.6859000 135.2239820  42.1648230 110.2078970
 134.6057090  42.6297680 109.6441690 135.7363070  42.8575710 110.6248480
 130.0871580  41.6924100 116.8862570 129.7540960  42.3193020 117.5283640
 130.2638260  42.2185980 116.1064240 138.6005490  35.5069180 114.3538910
 137.8961060  35.7954070 114.9342020 138.9617650  36.3169290 113.9938470
 128.5184060  33.7638880 116.7159520 128.8600870  34.6080930 116.4213390
 127.5799870  33.9122620 116.8324860 129.2990680  43.6604900 118.7011750
 129.9164680  44.3355980 118.4196200 128.4383800  44.0692880 118.6099250
 140.2168270  45.1244310 116.6166390 139.5331790  45.7943420 116.6083060
 140.7562560  45.3224960 115.8511250 141.6692410  34.9523970 114.7448120
 140.7217320  34.9862950 114.8763550 141.9942400  35.7662920 115.1297480
 132.2011950  31.2521150 113.0404110 132.5086930  30.6968040 112.3239610
 131.2712650  31.3865610 112.8577100 137.7527010  46.9688440 115.3311570
 137.7654170  46.5650730 114.4633830 137.2002230  47.7435730 115.2273000
 139.0472430  43.6904660 110.4201740 138.9368760  42.7478990 110.5451160
 139.0440680  44.0520300 111.3064500 137.1512450  41.8718280 116.6594180
 137.5681240  41.6578390 115.8247640 137.8752270  42.1291070 117.2302800
 134.5892710  39.3169980 109.7764230 133.6621990  39.2507360 110.0052700
 134.7417530  40.2550110 109.6619470 134.5761790  35.5886980 106.7731390
 133.6365460  35.7500940 106.8583850 134.8945050  36.3072660 106.2267380
 141.0974550  40.2705500 116.7510420 140.2693180  40.3398590 116.2760550
 141.6925030  40.8559810 116.2826250 138.6190000  40.8790280 110.2799480
 138.0002420  40.5409830 109.6325780 138.6014450  40.2350040 110.9878670
 138.0616560  37.0574820 117.6965290 137.6487740  37.8828530 117.9505280
 137.3292510  36.4719860 117.5041650 130.1949350  39.8434720 112.5583960
 129.7906350  39.1311970 112.0629860 130.2812470  39.4987960 113.4472000
 130.6631050  43.5302280 114.7223170 130.3659340  42.9247750 114.0430950
 131.6130870  43.5679590 114.6112530 128.9077970  36.6177930 116.3383000
 129.4592560  36.7273270 115.5636250 129.4221480  36.9915530 117.0538230
 138.7516660  47.1034150 118.3846270 138.2747220  47.9106340 118.1918880
 138.0678450  46.4512480 118.5372480 129.7549480  43.2683970 121.3730970
 128.8578010  43.4923940 121.6204370 129.7802350  43.3918910 120.4242370
 136.7954700  40.1177090 107.2872230 137.2347980  39.2799520 107.1410050
 137.5083120  40.7506490 107.3736370 128.5820700  40.1397290 119.9488340
 128.4428470  41.0120090 120.3175740 127.7002060  39.7970100 119.8036280
 134.9050080  45.0573160 111.2553470 135.3445990  45.7997490 110.8408860
 134.8436970  45.2999730 112.1792430 130.3801050  46.0818990 122.1573490
 130.3516480  46.4861940 121.2901920 130.2166020  45.1529350 121.9945090
 140.3771840  31.3719900 105.6013270 140.0644500  31.4646730 106.5012340
 141.1384310  31.9500930 105.5510700 126.8953980  38.7379700 110.0590610
 126.7751580  39.4641790 109.4471880 126.5854870  37.9682610 109.5818520
 142.3315870  46.8646090 123.4537660 142.8075590  47.3428980 124.1326740
 142.9523030  46.7963580 122.7283160 124.5339350  41.9094840 115.8659250
 124.6119770  42.0443610 114.9214970 125.1481030  41.2010730 116.0587370
 125.7786980  43.6095030 112.2765430 125.3715060  43.7509620 111.4219030
 126.6699990  43.3255190 112.0736640 141.7349120  44.0558940 120.6137670
 141.8612180  43.8170820 119.6954850 141.7770500  43.2243480 121.0859750
 135.5965860  47.7586940 119.1832480 136.1110530  47.6694950 119.9854910
 134.7534940  48.1046640 119.4760390 137.5720260  48.0442280 108.6116480
 137.4121400  47.7545220 109.5098310 137.4066970  47.2682410 108.0761710
 130.0508640  47.8240810 110.3888100 129.8751120  46.9076350 110.1755900
 129.1964380  48.1828100 110.6285900 137.2746390  45.5529840 107.1714480
 136.5811550  45.5507130 106.5116760 138.0169250  45.1289160 106.7408650
 136.8396320  47.1792550 111.2462970 137.2953270  46.3981930 111.5601590
 137.1788840  47.8899370 111.7904150 141.5873130  36.1091400 121.5787410
 140.9717400  36.6171070 121.0502870 141.2669550  35.2089730 121.5213350
 124.5898870  42.9509010 118.4053710 124.7529910  42.4814370 117.5873080
 125.0551320  42.4432570 119.0702550 129.3617640  32.0814770 113.4414280
 128.9185790  32.8624310 113.1098800 129.9202630  32.4044660 114.1485220
 133.6487450  34.9483290 119.0449600 133.1866820  35.1566310 119.8569540
 133.2465560  34.1342640 118.7420270 138.6491960  36.1692240 120.1746260
 137.7985550  35.8697990 120.4955330 138.4893750  36.4134250 119.2630080
 135.7441670  37.6693990 122.2745050 136.0695080  36.8357740 121.9347280
 136.5322000  38.1922510 122.4223380 132.4776460  31.7025470 108.3220110
 131.8530640  31.6985340 109.0473420 132.3906580  30.8356430 107.9256080
 131.3993540  32.6262100 115.3003880 131.6965870  33.5324930 115.2195900
 131.9479100  32.1380880 114.6863450 129.1531860  37.2048340 111.1695530
 128.9272780  36.9885510 112.0742150 128.3724390  37.6376800 110.8241500
 136.3829620  37.2111710 109.7686180 135.7838510  37.9347510 109.5849800
 136.9309230  37.1488490 108.9862630 131.5931070  38.1033920 121.8355800
 131.4974670  37.1628650 121.6856200 132.4363050  38.3248990 121.4403870
 134.9894490  35.8475250 111.7989460 135.3824060  36.1647450 110.9858150
 135.3511340  34.9687130 111.9133980 126.7241610  34.5147590 119.9889580
 126.3305000  35.3622800 120.1962360 126.0360010  33.8773960 120.1798220
 133.2986660  34.5982560 123.0586320 132.6084980  34.4054760 123.6932410
 134.0418960  34.8817200 123.5910620 124.0258660  32.4376050 114.0219660
 123.7371710  33.0078910 114.7344640 124.7704420  31.9580500 114.3850890
 124.2128890  36.3796170 105.2322380 124.1303560  37.3226930 105.3737370
 123.8611950  36.2371080 104.3534730 135.5749630  38.4381000 115.8940240
 134.8430750  38.9467810 116.2430340 135.1773970  37.6210980 115.5929020
 132.0127020  35.1135200 114.2992730 132.0163080  34.6725150 113.4497270
 132.9078140  35.4352530 114.4064550 127.8629400  34.9961690 113.2586940
 127.5229450  35.4736920 114.0153990 127.1006720  34.5426810 112.8988040
 132.0747170  36.1147280 107.2899490 132.1959990  36.0733760 108.2385310
 131.6895680  36.9771430 107.1346220 136.0375540  33.8914680 115.3063180
 136.0548280  34.3423330 116.1505030 135.7891120  32.9920320 115.5196620
 131.0868670  38.4248420 106.6882790 130.5185570  37.9766670 106.0618700
 131.7957670  38.7841200 106.1547940 139.4646290  31.3046860 121.1449560
 139.7892060  30.5736520 121.6707540 139.5002800  30.9860500 120.2430550
 126.1637850  42.3260440 120.5649520 125.7792640  41.6854110 121.1632480
 126.4750040  43.0296560 121.1344250 132.3134990  39.1736980 116.0458140
 132.6805120  38.6995550 116.7919480 132.1240050  40.0478550 116.3866480
 125.1775480  33.9180670 112.1751610 124.8922400  33.5536340 113.0130230
 125.1154340  33.1861130 111.5614750 130.1034360  38.2145620 118.3642350
 129.7991430  39.0937600 118.5892710 131.0580820  38.2745410 118.3999790
 128.6316150  42.4206610 108.9609200 127.8578410  41.8804230 108.8007920
 129.3610780  41.9013220 108.6226960 139.3904130  41.4171970 114.7535590
 140.1103250  41.9127260 114.3631700 139.1885950  40.7389860 114.1089460
 134.8514070  32.8109930 108.8964980 134.0378680  32.3123100 108.8210290
 134.6576020  33.6508180 108.4801330 134.7722930  41.4881030 120.6404590
 134.7060240  40.5676700 120.3862180 134.1428070  41.5856470 121.3549230
 137.5662460  37.1829580 107.1927140 138.4542080  37.4946810 107.0178480
 137.5367550  36.3101830 106.8007720 128.6753550  42.0886990 112.5988010
 129.1932220  41.2855250 112.5444900 128.2237570  42.0266130 113.4404840
 133.5623050  43.3553270 107.8715310 133.9038750  44.0995500 107.3758630
 132.7335760  43.6684390 108.2340140 126.1598090  39.0548360 119.5113710
 125.8013030  39.7202210 120.0987050 125.8652650  38.2231910 119.8826330
 129.3611210  39.5132600 122.3953260 129.0611350  39.6589780 121.4981080
 130.1322450  38.9537890 122.3026650 134.7039660  44.3101600 120.3908390
 134.7184200  43.3782560 120.1727300 133.9964760  44.3961360 121.0298160
 139.8376730  38.4941420 106.6607000 139.7540450  38.9255640 105.8103440
 140.5570920  38.9539770 107.0933820 140.9150870  40.9508940 119.7376970
 140.1899060  41.5437720 119.5406360 141.4426330  40.9432480 118.9390340
 140.8663980  45.3483680 109.3889130 140.2240140  44.6939300 109.6632850
 140.4794640  45.7538770 108.6129800 136.4450460  42.6769110 113.2360820
 136.7974280  42.0797240 112.5762190 135.5612790  42.3513340 113.4069070
 132.5313740  43.4366800 110.6431230 133.2184870  43.9836010 111.0238820
 131.7446160  43.9807530 110.6780840 124.6706140  39.0539620 106.1348310
 125.5400990  39.3364420 106.4184230 124.1796460  39.8675490 106.0197120
 131.8340950  40.4412830 110.2556590 132.2903730  41.2518080 110.4816780
 131.4829160  40.1235970 111.0875080 134.1373560  45.9519170 117.4848890
 134.7815780  46.1578550 118.1622310 134.5003000  45.1907570 117.0319740
 127.7352730  30.7850480 110.7279110 127.6067360  30.7768380 111.6764030
 126.9114750  31.1233570 110.3770120 135.4105640  43.9551520 116.2026340
 136.0527870  43.2544680 116.3158510 135.9354990  44.7349960 116.0223230
 139.2561360  44.2400140 105.9265480 139.0298940  43.5230580 106.5190120
 138.8657560  43.9912580 105.0887230 137.1843260  44.7546420 119.4062400
 137.5199500  45.3413110 120.0840320 136.2643600  44.6239130 119.6360190
 125.0377390  48.2667000 106.7009940 125.3975030  48.8656340 106.0467210
 124.8969730  48.8126890 107.4744970 124.7346660  32.5441600 120.1885810
 124.0205180  32.7438520 120.7938420 125.1541700  31.7681170 120.5600610
 138.8377610  42.1572080 107.5879640 138.5499310  42.6184770 108.3757520
 139.6329780  41.6969850 107.8563860 125.0219250  46.5321860 121.1752340
 125.1310370  45.5916600 121.0347730 124.3699810  46.7976610 120.5266070
 133.0131840  44.8037750 122.5750460 132.6928710  44.0846990 123.1196150
 132.3390200  45.4792820 122.6486520 131.0546010  45.6498200 107.5183610
 131.0456110  46.3827890 106.9028120 130.1344370  45.4029780 107.6110570
 126.6552650  40.8713090 108.2630370 126.0480600  41.6111990 108.2725670
 127.1302000  40.9612450 107.4368570 136.2285440  35.0363910 117.9387260
 136.5966260  34.2159120 118.2666830 135.3683640  35.0965800 118.3542910
 139.5947470  33.9920850 108.7474820 138.9660630  34.0966520 108.0333050
 139.0999390  34.2117630 109.5368700 134.0405610  45.7126440 106.1808800
 134.1417590  45.5090430 105.2510780 133.1407350  45.4584720 106.3856580
 131.5631500  36.2706800 110.1632700 130.8547650  36.7393140 110.6046310
 131.8475980  35.6128810 110.7977890 133.1887430  37.6903500 118.1625230
 133.6872680  38.1649320 118.8277080 133.3310380  36.7667020 118.3695260
 135.5946930  32.9957460 111.6028490 135.4714710  33.0143590 110.6538000
 136.5431490  33.0436400 111.7226890 132.6823720  48.2312760 110.8756470
 132.9365220  48.1934150 109.9535840 131.7336200  48.1046090 110.8684720
 129.7666520  34.5791880 107.5383410 130.6157050  35.0162030 107.4723600
 129.3997790  34.8912140 108.3655470 140.3954290  33.9071460 119.0053620
 139.8927890  34.6476860 119.3447430 141.2110950  34.2955460 118.6890410
 138.6876300  39.1504640 112.4514980 137.7466440  39.1654870 112.6262670
 139.0020370  38.3640600 112.8975280 128.6657940  40.8324240 106.0118940
 129.4321210  40.7205600 106.5744370 128.7432630  40.1362210 105.3595710
 127.3604700  38.2649310 106.6951830 127.4408290  37.3176820 106.8069230
 128.2524450  38.5956190 106.8012490 140.6901880  46.3213490 114.1269240
 140.8149300  47.1444660 114.5993050 141.5567440  46.1104220 113.7793390
 128.1619410  48.4144700 113.7986370 128.8981890  47.8660160 114.0694940
 128.5460330  49.2800710 113.6592360 127.1677690  47.5990770 122.9871950
 127.9690420  47.9202820 123.4007350 126.6529510  47.2386350 123.7091860
 131.2721720  47.5875010 105.6211940 132.0650330  47.8763840 105.1693730
 130.7526070  47.1567180 104.9424420 136.0042320  43.7070640 122.9347360
 135.3980480  43.7302240 122.1943110 135.6996430  42.9753680 123.4714610
 137.4342690  47.4350930 121.5456770 138.3864440  47.3508950 121.4957010
 137.2870910  48.0992640 122.2190560 140.3251890  46.8145140 107.0448680
 140.0393400  46.4010280 106.2302860 140.1271440  47.7432850 106.9249200
 124.8875500  40.0864230 121.9308000 125.3914520  39.5071510 122.5024230
 124.1482920  40.3704460 122.4684370 131.7899120  42.8078420 105.4854290
 131.6849760  42.1930770 106.2115670 131.6223340  42.2844310 104.7017300
 131.9413440  41.4935220 121.4643520 131.1759110  42.0620220 121.3798190
 132.1229400  41.2011430 120.5711750 135.0301850  41.8698450 106.0896280
 134.4811950  42.3167750 106.7339020 135.6521110  41.3647700 106.6133950
 139.0836790  43.2240550 122.0218540 139.8246260  43.5616310 121.5186000
 138.3209470  43.3932610 121.4688310 126.9198580  38.2293820 122.8258070
 126.9603920  37.9307690 123.7343300 127.7744080  38.6301430 122.6665590
 130.6976970  40.8289370 107.9861580 131.1193390  40.6629240 108.8292970
 130.8227810  40.0189600 107.4916720 128.8604390  36.8085920 120.7932560
 128.3300850  36.3176870 120.1655900 129.5292460  37.2370120 120.2590490
 133.2104610  39.8526980 105.2338680 133.7310270  39.1376000 104.8679830
 133.8573010  40.4912850 105.5339190 137.7582450  41.2755380 120.5573750
 138.1723470  41.4300460 121.4064170 136.8233450  41.4010600 120.7199530
 138.2304620  38.6151540 122.5612900 138.8125390  37.8603860 122.4733380
 138.4066390  39.1458980 121.7844380 129.3476690  33.7748290 120.8729850
 129.2533560  33.1569040 120.1480720 128.7674080  34.5014580 120.6459760
 132.1138130  32.3321530 117.9057240 131.6655430  32.3545790 117.0602790
 131.4803330  31.9340550 118.5027540 132.5197680  41.2275860 118.5269680
 132.9385790  42.0708590 118.3545920 131.6006310  41.3647900 118.2976460
 134.8561580  38.9592040 119.9107520 134.9757790  38.3633180 120.6502360
 135.7155580  38.9961730 119.4908820 137.1949480  39.5129230 118.4870030
 136.6684700  40.0371850 117.8835170 137.5380820  40.1456620 119.1179760
 129.5935870  36.9022600 104.9319740 129.3924930  36.0389960 105.2933080
 129.4227920  36.8155960 103.9941340 130.3705100  47.5328870 119.6427410
 129.8326190  48.2574930 119.3236110 130.6239060  47.0559210 118.8524750
 131.6230350  35.5013390 121.1683340 132.2130040  35.1929240 121.8561160
 130.8050590  35.0293140 121.3243240 136.4423780  35.1179200 121.4016360
 135.7539300  34.4560740 121.3366350 137.1629800  34.6717470 121.8464820
 137.0724180  31.7130830 107.4606620 137.3526470  30.8698730 107.8166040
 136.2989910  31.9453940 107.9745370 128.3918670  34.0023220 104.9197620
 128.6944570  34.0090650 104.0116770 129.1313260  33.6521080 105.4165280
 133.2267310  48.7680080 119.9014060 133.1526010  49.6715220 120.2086430
 132.3246150  48.4491980 119.8736130 131.6103600  32.9457840 105.9053820
 131.2625600  32.2681830 105.3256270 131.8116370  32.4847350 106.7197210
 133.7752640  47.9338590 107.5240420 134.6703430  48.2723560 107.5459180
 133.8070270  47.2118000 106.8964700 127.4148800  43.3065640 105.7527420
 127.8523670  43.8495310 106.4085000 127.8996530  42.4812590 105.7623760
 124.6294600  46.0954670 113.2047680 124.9597610  45.2275730 112.9726320
 125.0585600  46.3013190 114.0352640 129.2256520  44.4263680 110.8649650
 128.9252060  44.3028650 111.7653560 129.1194010  43.5672270 110.4565380
 125.1184810  46.9625260 115.9429310 124.6815800  47.1426060 116.7753460
 125.6862490  47.7199880 115.8011030 140.7546990  46.4642260 120.2306620
 140.1548980  46.5234820 119.4870540 140.8840890  45.5247240 120.3603470
 141.9948440  44.2060080 105.5676330 141.1641400  44.2736730 106.0383560
 142.1720270  45.0964200 105.2643190 141.4504900  40.9507560 108.0710530
 142.2123810  41.5204210 108.1770220 141.4659270  40.3834760 108.8418840
 124.9509240  39.4745490 112.3018190 124.2958080  39.2057130 111.6577890
 125.7887190  39.3649970 111.8520170 142.4564870  41.8057660 112.9152460
 142.8273700  41.0224980 112.5088430 143.0966800  42.4946760 112.7369760
 139.4398630  43.1894240 118.3282780 138.6258470  43.6191400 118.5908570
 139.8472830  43.8012650 117.7151830 141.5024070  41.2441930 105.2283050
 141.7772910  42.1520810 105.1002270 141.3134810  41.1804460 106.1645040
 137.8999680  34.2686780 106.5236680 138.3184560  34.0817760 105.6833340
 137.5935740  33.4165830 106.8339610 141.3989410  39.1810920 110.2212480
 141.0233010  38.4138850 109.7893770 140.6692530  39.5633620 110.7087410
 125.9885170  39.8598060 116.8421530 126.3558210  39.7725460 117.7217550
 125.4195990  39.0964610 116.7428390 140.7889030  38.3282440 119.8552000
 140.5575120  38.0995190 118.9549950 141.0493580  39.2481990 119.8096890
 125.5401170  36.7707150 120.7479950 124.6457220  36.7373910 121.0873660
 126.0798720  36.9693940 121.5131200 139.2277100  33.5538870 122.6331700
 140.1047280  33.5622270 123.0165700 139.2397940  32.8169710 122.0224050
 124.1647320  36.6844420 108.2443520 123.2611400  36.9474620 108.0695180
 124.6487940  36.9555590 107.4643480 140.6740370  37.4068410 113.5219720
 141.1977850  36.9131060 112.8909890 141.2599790  37.5418770 114.2667290
 140.8530090  37.4908280 117.0439270 139.9032800  37.4571820 117.1584260
 141.0343100  38.4008390 116.8089040 126.7074530  35.7409960 106.1537900
 127.4166230  35.3193180 105.6685180 125.9914470  35.8085190 105.5221250
 126.3548690  31.7949290 105.1940550 127.0776820  32.3358230 105.5121770
 126.6273210  31.5212710 104.3182090 140.1640340  36.6641760 109.4612130
 140.6599460  36.4312630 110.2461010 139.9656410  35.8253600 109.0449770
 126.0440880  31.0455480 115.0963170 126.6917070  30.4952860 114.6558330
 126.4642720  31.2998630 115.9178980 141.5927500  35.3002710 111.9949810
 141.4826780  35.1458750 112.9332080 142.3535090  34.7723650 111.7525220
 139.9393220  31.2396840 118.4532810 140.5765440  31.8530980 118.8192000
 140.0868110  31.2757500 117.5082040 142.4817770  33.1310630 105.2355950
 143.4067080  32.9991810 105.0274240 142.4593560  33.2103450 106.1892400
 142.5556260  33.9021290 107.8612660 141.7607760  33.8366410 108.3905570
 142.7599540  34.8371930 107.8498010 139.4974680  47.9412840 111.8551050
 140.0933750  47.6197410 111.1785470 139.7552830  47.4684660 112.6464320
 125.7972880  31.2011150 117.8388490 125.4487700  31.6574970 118.6046670
 125.4660580  30.3068280 117.9210920 127.4037250  44.3730750 122.0041680
 127.3606880  44.0023660 122.8856140 127.5348260  45.3108320 122.1443500
 131.1043280  45.9290340 117.6051400 130.8634640  46.1964900 116.7181920
 132.0445920  46.0996070 117.6602260 133.3097700  32.3923030 121.3607910
 133.2486590  32.9844860 122.1103320 134.2498080  32.2848990 121.2158170
 135.9472260  32.0493090 121.0000200 136.5612670  32.3672380 120.3381280
 136.4921820  31.5641680 121.6196060 142.3647440  47.9484720 118.4062040
 141.8705720  48.3453590 117.6889170 141.7560730  47.3233930 118.7999320
 126.4693520  30.7287350 121.1139260 127.0176510  30.5475400 120.3505370
 126.5348830  29.9381460 121.6495570 127.2425280  47.3193000 119.1239460
 126.6485600  47.1877700 119.8629500 127.2349120  46.4831140 118.6581560
 136.6880300  30.6125230 117.3269490 135.8140140  30.9460340 117.1242420
 136.5791050  30.1398410 118.1521360 137.5952280  32.8196100 118.7111210
 137.2665640  32.0047860 118.3312940 138.5434580  32.7765910 118.5876900
 140.0486890  48.5908140 115.6848780 139.5889860  49.3423950 115.3106800
 139.4199350  47.8714610 115.6263580 126.8737510  44.6851380 118.0747500
 126.1471570  44.0656670 118.0073450 126.9346660  45.0791990 117.2045580
 130.4782610  46.8996380 114.8596910 130.9947630  46.2883740 114.3345170
 131.1279990  47.4025160 115.3507920 133.2178110  47.7904870 115.6865890
 133.5055920  47.5359170 114.8098900 133.7301330  47.2382230 116.2771460
 134.4355120  31.5295070 116.2662400 133.6526910  32.0040570 116.5459160
 134.1418050  30.6249900 116.1575580 138.9876190  32.2318170 114.3111490
 139.4284280  32.1763270 113.4633090 138.7183780  33.1476180 114.3821670
 140.8514760  31.8633410 112.3220310 140.7903160  30.9194630 112.1751330
 141.6306790  31.9713500 112.8673770 125.1567510  48.0025770 111.2844260
 124.9889550  47.3696450 111.9826150 124.2902020  48.2085170 110.9338450
 125.7795530  31.8342550 108.7876120 126.5374890  31.9471430 108.2140150
 125.3172700  32.6711750 108.7419550 132.3209340  33.9481820 111.7778430
 131.5083850  33.5738710 111.4374310 132.8250980  33.1926900 112.0799620
 136.8234320  30.6124270 113.0161500 137.4263690  31.1844480 113.4910020
 136.0827310  31.1763710 112.7935400 139.9668920  31.0145830 108.2901780
 140.1619550  31.9129280 108.5569210 139.1798790  30.7832910 108.7834730
 126.7630210  46.6959000 108.7294400 126.2377830  47.0767030 108.0256360
 126.6874790  47.3209770 109.4504110 128.1520680  32.3606600 107.3278090
 128.6813440  31.5736400 107.1986040 128.7849000  33.0397790 107.5613620
 130.3458520  32.0981740 110.3823480 129.7161260  31.3969050 110.5493610
 129.8063660  32.8585870 110.1656640 133.2850470  48.7120970 123.0534090
 134.2117780  48.4765240 123.0970050 133.2700900  49.5392970 122.5720120
 141.5195530  48.2546540 110.0508340 141.6947720  47.5684280 109.4069260
 140.8217100  48.7793590 109.6585010 130.4714080  31.3765720 122.8175970
 130.1898350  31.8799320 122.0536790 130.8533780  30.5787470 122.4518100
 129.3623180  48.6441380 107.6043650 130.0942000  48.3600660 107.0567540
 129.6216850  48.4054660 108.4943030 128.5237970  44.7606110 107.6089980
 127.8946850  45.2291210 108.1575810 128.6385800  43.9155330 108.0436170
 137.0729540  30.7919300 123.3956440 136.9594990  31.1113910 124.2907960
 137.8899280  31.1931810 123.0993720 139.8528030  47.9390830 122.8775130
 140.6453350  47.4440060 122.6701090 140.1461180  48.6180970 123.4850740
 135.9787690  38.8111770  93.7591180 135.8981740  37.8966380  93.4882890
 135.5652110  39.3078840  93.0530890 134.1105730  40.5890790  95.6400450
 133.3347830  40.1091230  95.9299020 134.7618660  39.9096440  95.4656610
 138.1313160  44.9950980  94.4199580 137.6694690  44.2238220  94.7486750
 138.9438710  45.0217050  94.9252030 126.5363510  35.8612490  90.3018600
 125.6480210  36.2028460  90.1998480 126.8204700  35.6612810  89.4099430
 124.4996520  38.4618140  96.1858300 125.0712630  37.6940340  96.1861940
 124.4998060  38.7606900  95.2764910 134.3576470  47.2808990  94.0403570
 133.7387910  47.7366490  93.4698010 135.2128250  47.4360450  93.6393270
 133.5514720  43.2647980  95.6470610 133.4823000  42.3237920  95.4859740
 134.3134580  43.3549390  96.2193180 125.7421390  33.8702500  97.9727230
 125.5624230  32.9728250  98.2529990 125.3401470  34.4174370  98.6474180
 134.5819890  36.0718360  95.8739540 134.9584710  35.1990240  95.7613210
 134.4839400  36.4077060  94.9829980 128.7124900  34.4443990  91.3356980
 128.8191650  35.3447720  91.6425740 127.8017260  34.3961960  91.0451630
 138.3644010  33.5668800  92.8067880 139.1853630  33.0765370  92.8493360
 138.3978090  34.1566460  93.5599720 126.3608060  36.3663000  96.5809570
 127.0418170  36.6301370  97.1996970 126.0456110  35.5263870  96.9147580
 130.5532630  37.4130360  95.6682160 131.0610850  37.9111330  96.3087180
 131.0845870  36.6365560  95.4921520 142.6543560  35.5835550  99.3711510
 141.9495730  35.9717260  98.8526620 142.9201480  36.2785840  99.9732440
 128.8368730  32.0528920  99.9345580 128.8387170  32.5701310  99.1291480
 128.0073040  31.5759100  99.9115510 135.2239820  42.1648230  91.4335480
 134.6057090  42.6297680  90.8698200 135.7363070  42.8575710  91.8504990
 138.6005490  35.5069180  95.5795420 137.8961060  35.7954070  96.1598530
 138.9617650  36.3169290  95.2194980 128.5184060  33.7638880  97.9416030
 128.8600870  34.6080930  97.6469900 127.5799870  33.9122620  98.0581370
 124.5923020  42.8504760  88.8075110 124.2151000  43.3391860  88.0760010
 124.8496090  43.5230040  89.4381640 140.2168270  45.1244310  97.8422900
 139.5331790  45.7943420  97.8339570 140.7562560  45.3224960  97.0767760
 141.6692410  34.9523970  95.9704630 140.7217320  34.9862950  96.1020060
 141.9942400  35.7662920  96.3553990 132.2011950  31.2521150  94.2660620
 132.5086930  30.6968040  93.5496120 131.2712650  31.3865610  94.0833610
 137.7527010  46.9688440  96.5568080 137.7654170  46.5650730  95.6890340
 137.2002230  47.7435730  96.4529510 139.0472430  43.6904660  91.6458250
 138.9368760  42.7478990  91.7707670 139.0440680  44.0520300  92.5321010
 137.1512450  41.8718280  97.8850690 137.5681240  41.6578390  97.0504150
 137.8752270  42.1291070  98.4559310 134.5892710  39.3169980  91.0020740
 133.6621990  39.2507360  91.2309210 134.7417530  40.2550110  90.8875980
 134.5761790  35.5886980  87.9987900 133.6365460  35.7500940  88.0840360
 134.8945050  36.3072660  87.4523890 141.0974550  40.2705500  97.9766930
 140.2693180  40.3398590  97.5017060 141.6925030  40.8559810  97.5082760
 138.6190000  40.8790280  91.5055990 138.0002420  40.5409830  90.8582290
 138.6014450  40.2350040  92.2135180 138.0616560  37.0574820  98.9221800
 137.6487740  37.8828530  99.1761790 137.3292510  36.4719860  98.7298160
 130.1949350  39.8434720  93.7840470 129.7906350  39.1311970  93.2886370
 130.2812470  39.4987960  94.6728510 128.9077970  36.6177930  97.5639510
 129.4592560  36.7273270  96.7892760 129.4221480  36.9915530  98.2794740
 138.7516660  47.1034150  99.6102780 138.2747220  47.9106340  99.4175390
 138.0678450  46.4512480  99.7628990 136.7954700  40.1177090  88.5128740
 137.2347980  39.2799520  88.3666560 137.5083120  40.7506490  88.5992880
 134.9050080  45.0573160  92.4809980 135.3445990  45.7997490  92.0665370
 134.8436970  45.2999730  93.4048940 130.3801050  46.0818990 103.3830000
 130.3516480  46.4861940 102.5158430 130.2166020  45.1529350 103.2201600
 140.3771840  31.3719900  86.8269780 140.0644500  31.4646730  87.7268850
 141.1384310  31.9500930  86.7767210 126.8953980  38.7379700  91.2847120
 126.7751580  39.4641790  90.6728390 126.5854870  37.9682610  90.8075030
 142.3315870  46.8646090 104.6794170 142.8075590  47.3428980 105.3583250
 142.9523030  46.7963580 103.9539670 125.7786980  43.6095030  93.5021940
 125.3715060  43.7509620  92.6475540 126.6699990  43.3255190  93.2993150
 141.7349120  44.0558940 101.8394180 141.8612180  43.8170820 100.9211360
 141.7770500  43.2243480 102.3116260 135.5965860  47.7586940 100.4088990
 136.1110530  47.6694950 101.2111420 134.7534940  48.1046640 100.7016900
 137.5720260  48.0442280  89.8372990 137.4121400  47.7545220  90.7354820
 137.4066970  47.2682410  89.3018220 130.0508640  47.8240810  91.6144610
 129.8751120  46.9076350  91.4012410 129.1964380  48.1828100  91.8542410
 137.2746390  45.5529840  88.3970990 136.5811550  45.5507130  87.7373270
 138.0169250  45.1289160  87.9665160 136.8396320  47.1792550  92.4719480
 137.2953270  46.3981930  92.7858100 137.1788840  47.8899370  93.0160660
 141.5873130  36.1091400 102.8043920 140.9717400  36.6171070 102.2759380
 141.2669550  35.2089730 102.7469860 129.3617640  32.0814770  94.6670790
 128.9185790  32.8624310  94.3355310 129.9202630  32.4044660  95.3741730
 133.6487450  34.9483290 100.2706110 133.1866820  35.1566310 101.0826050
 133.2465560  34.1342640  99.9676780 138.6491960  36.1692240 101.4002770
 137.7985550  35.8697990 101.7211840 138.4893750  36.4134250 100.4886590
 135.7441670  37.6693990 103.5001560 136.0695080  36.8357740 103.1603790
 136.5322000  38.1922510 103.6479890 132.4776460  31.7025470  89.5476620
 131.8530640  31.6985340  90.2729930 132.3906580  30.8356430  89.1512590
 131.3993540  32.6262100  96.5260390 131.6965870  33.5324930  96.4452410
 131.9479100  32.1380880  95.9119960 129.1531860  37.2048340  92.3952040
 128.9272780  36.9885510  93.2998660 128.3724390  37.6376800  92.0498010
 136.3829620  37.2111710  90.9942690 135.7838510  37.9347510  90.8106310
 136.9309230  37.1488490  90.2119140 131.5931070  38.1033920 103.0612310
 131.4974670  37.1628650 102.9112710 132.4363050  38.3248990 102.6660380
 134.9894490  35.8475250  93.0245970 135.3824060  36.1647450  92.2114660
 135.3511340  34.9687130  93.1390490 126.7241610  34.5147590 101.2146090
 126.3305000  35.3622800 101.4218870 126.0360010  33.8773960 101.4054730
 133.2986660  34.5982560 104.2842830 132.6084980  34.4054760 104.9188920
 134.0418960  34.8817200 104.8167130 124.0258660  32.4376050  95.2476170
 123.7371710  33.0078910  95.9601150 124.7704420  31.9580500  95.6107400
 135.5749630  38.4381000  97.1196750 134.8430750  38.9467810  97.4686850
 135.1773970  37.6210980  96.8185530 132.0127020  35.1135200  95.5249240
 132.0163080  34.6725150  94.6753780 132.9078140  35.4352530  95.6321060
 127.8629400  34.9961690  94.4843450 127.5229450  35.4736920  95.2410500
 127.1006720  34.5426810  94.1244550 132.0747170  36.1147280  88.5156000
 132.1959990  36.0733760  89.4641820 131.6895680  36.9771430  88.3602730
 136.0375540  33.8914680  96.5319690 136.0548280  34.3423330  97.3761540
 135.7891120  32.9920320  96.7453130 131.0868670  38.4248420  87.9139300
 130.5185570  37.9766670  87.2875210 131.7957670  38.7841200  87.3804450
 139.4646290  31.3046860 102.3706070 139.7892060  30.5736520 102.8964050
 139.5002800  30.9860500 101.4687060 132.3134990  39.1736980  97.2714650
 132.6805120  38.6995550  98.0175990 132.1240050  40.0478550  97.6122990
 125.1775480  33.9180670  93.4008120 124.8922400  33.5536340  94.2386740
 125.1154340  33.1861130  92.7871260 130.1034360  38.2145620  99.5898860
 129.7991430  39.0937600  99.8149220 131.0580820  38.2745410  99.6256300
 128.6316150  42.4206610  90.1865710 127.8578410  41.8804230  90.0264430
 129.3610780  41.9013220  89.8483470 139.3904130  41.4171970  95.9792100
 140.1103250  41.9127260  95.5888210 139.1885950  40.7389860  95.3345970
 134.8514070  32.8109930  90.1221490 134.0378680  32.3123100  90.0466800
 134.6576020  33.6508180  89.7057840 134.7722930  41.4881030 101.8661100
 134.7060240  40.5676700 101.6118690 134.1428070  41.5856470 102.5805740
 137.5662460  37.1829580  88.4183650 138.4542080  37.4946810  88.2434990
 137.5367550  36.3101830  88.0264230 128.6753550  42.0886990  93.8244520
 129.1932220  41.2855250  93.7701410 128.2237570  42.0266130  94.6661350
 133.5623050  43.3553270  89.0971820 133.9038750  44.0995500  88.6015140
 132.7335760  43.6684390  89.4596650 129.3611210  39.5132600 103.6209770
 129.0611350  39.6589780 102.7237590 130.1322450  38.9537890 103.5283160
 134.7039660  44.3101600 101.6164900 134.7184200  43.3782560 101.3983810
 133.9964760  44.3961360 102.2554670 139.8376730  38.4941420  87.8863510
 139.7540450  38.9255640  87.0359950 140.5570920  38.9539770  88.3190330
 140.9150870  40.9508940 100.9633480 140.1899060  41.5437720 100.7662870
 141.4426330  40.9432480 100.1646850 140.8663980  45.3483680  90.6145640
 140.2240140  44.6939300  90.8889360 140.4794640  45.7538770  89.8386310
 136.4450460  42.6769110  94.4617330 136.7974280  42.0797240  93.8018700
 135.5612790  42.3513340  94.6325580 132.5313740  43.4366800  91.8687740
 133.2184870  43.9836010  92.2495330 131.7446160  43.9807530  91.9037350
 124.6706140  39.0539620  87.3604820 125.5400990  39.3364420  87.6440740
 124.1796460  39.8675490  87.2453630 131.8340950  40.4412830  91.4813100
 132.2903730  41.2518080  91.7073290 131.4829160  40.1235970  92.3131590
 134.1373560  45.9519170  98.7105400 134.7815780  46.1578550  99.3878820
 134.5003000  45.1907570  98.2576250 127.7352730  30.7850480  91.9535620
 127.6067360  30.7768380  92.9020540 126.9114750  31.1233570  91.6026630
 135.4105640  43.9551520  97.4282850 136.0527870  43.2544680  97.5415020
 135.9354990  44.7349960  97.2479740 139.2561360  44.2400140  87.1521990
 139.0298940  43.5230580  87.7446630 138.8657560  43.9912580  86.3143740
 137.1843260  44.7546420 100.6318910 137.5199500  45.3413110 101.3096830
 136.2643600  44.6239130 100.8616700 125.0377390  48.2667000  87.9266450
 125.3975030  48.8656340  87.2723720 124.8969730  48.8126890  88.7001480
 124.7346660  32.5441600 101.4142320 124.0205180  32.7438520 102.0194930
 125.1541700  31.7681170 101.7857120 138.8377610  42.1572080  88.8136150
 138.5499310  42.6184770  89.6014030 139.6329780  41.6969850  89.0820370
 125.0219250  46.5321860 102.4008850 125.1310370  45.5916600 102.2604240
 124.3699810  46.7976610 101.7522580 133.0131840  44.8037750 103.8006970
 132.6928710  44.0846990 104.3452660 132.3390200  45.4792820 103.8743030
 131.0546010  45.6498200  88.7440120 131.0456110  46.3827890  88.1284630
 130.1344370  45.4029780  88.8367080 126.6552650  40.8713090  89.4886880
 126.0480600  41.6111990  89.4982180 127.1302000  40.9612450  88.6625080
 136.2285440  35.0363910  99.1643770 136.5966260  34.2159120  99.4923340
 135.3683640  35.0965800  99.5799420 139.5947470  33.9920850  89.9731330
 138.9660630  34.0966520  89.2589560 139.0999390  34.2117630  90.7625210
 134.0405610  45.7126440  87.4065310 134.1417590  45.5090430  86.4767290
 133.1407350  45.4584720  87.6113090 131.5631500  36.2706800  91.3889210
 130.8547650  36.7393140  91.8302820 131.8475980  35.6128810  92.0234400
 133.1887430  37.6903500  99.3881740 133.6872680  38.1649320 100.0533590
 133.3310380  36.7667020  99.5951770 135.5946930  32.9957460  92.8285000
 135.4714710  33.0143590  91.8794510 136.5431490  33.0436400  92.9483400
 129.7666520  34.5791880  88.7639920 130.6157050  35.0162030  88.6980110
 129.3997790  34.8912140  89.5911980 140.3954290  33.9071460 100.2310130
 139.8927890  34.6476860 100.5703940 141.2110950  34.2955460  99.9146920
 138.6876300  39.1504640  93.6771490 137.7466440  39.1654870  93.8519180
 139.0020370  38.3640600  94.1231790 128.6657940  40.8324240  87.2375450
 129.4321210  40.7205600  87.8000880 128.7432630  40.1362210  86.5852220
 127.3604700  38.2649310  87.9208340 127.4408290  37.3176820  88.0325740
 128.2524450  38.5956190  88.0269000 140.6901880  46.3213490  95.3525750
 140.8149300  47.1444660  95.8249560 141.5567440  46.1104220  95.0049900
 125.0464890  44.4818270  90.8984390 124.1204670  44.7239410  90.8889800
 125.5121320  45.3092530  90.7769140 127.1677690  47.5990770 104.2128460
 127.9690420  47.9202820 104.6263860 126.6529510  47.2386350 104.9348370
 131.2721720  47.5875010  86.8468450 132.0650330  47.8763840  86.3950240
 130.7526070  47.1567180  86.1680930 136.0042320  43.7070640 104.1603870
 135.3980480  43.7302240 103.4199620 135.6996430  42.9753680 104.6971120
 137.4342690  47.4350930 102.7713280 138.3864440  47.3508950 102.7213520
 137.2870910  48.0992640 103.4447070 140.3251890  46.8145140  88.2705190
 140.0393400  46.4010280  87.4559370 140.1271440  47.7432850  88.1505710
 124.8875500  40.0864230 103.1564510 125.3914520  39.5071510 103.7280740
 124.1482920  40.3704460 103.6940880 131.7899120  42.8078420  86.7110800
 131.6849760  42.1930770  87.4372180 131.6223340  42.2844310  85.9273810
 131.9413440  41.4935220 102.6900030 131.1759110  42.0620220 102.6054700
 132.1229400  41.2011430 101.7968260 135.0301850  41.8698450  87.3152790
 134.4811950  42.3167750  87.9595530 135.6521110  41.3647700  87.8390460
 139.0836790  43.2240550 103.2475050 139.8246260  43.5616310 102.7442510
 138.3209470  43.3932610 102.6944820 126.9198580  38.2293820 104.0514580
 126.9603920  37.9307690 104.9599810 127.7744080  38.6301430 103.8922100
 130.6976970  40.8289370  89.2118090 131.1193390  40.6629240  90.0549480
 130.8227810  40.0189600  88.7173230 128.8604390  36.8085920 102.0189070
 128.3300850  36.3176870 101.3912410 129.5292460  37.2370120 101.4847000
 133.2104610  39.8526980  86.4595190 133.7310270  39.1376000  86.0936340
 133.8573010  40.4912850  86.7595700 137.7582450  41.2755380 101.7830260
 138.1723470  41.4300460 102.6320680 136.8233450  41.4010600 101.9456040
 138.2304620  38.6151540 103.7869410 138.8125390  37.8603860 103.6989890
 138.4066390  39.1458980 103.0100890 129.3476690  33.7748290 102.0986360
 129.2533560  33.1569040 101.3737230 128.7674080  34.5014580 101.8716270
 132.1138130  32.3321530  99.1313750 131.6655430  32.3545790  98.2859300
 131.4803330  31.9340550  99.7284050 132.5197680  41.2275860  99.7526190
 132.9385790  42.0708590  99.5802430 131.6006310  41.3647900  99.5232970
 134.8561580  38.9592040 101.1364030 134.9757790  38.3633180 101.8758870
 135.7155580  38.9961730 100.7165330 137.1949480  39.5129230  99.7126540
 136.6684700  40.0371850  99.1091680 137.5380820  40.1456620 100.3436270
 129.5935870  36.9022600  86.1576250 129.3924930  36.0389960  86.5189590
 129.4227920  36.8155960  85.2197850 131.6230350  35.5013390 102.3939850
 132.2130040  35.1929240 103.0817670 130.8050590  35.0293140 102.5499750
 136.4423780  35.1179200 102.6272870 135.7539300  34.4560740 102.5622860
 137.1629800  34.6717470 103.0721330 137.0724180  31.7130830  88.6863130
 137.3526470  30.8698730  89.0422550 136.2989910  31.9453940  89.2001880
 128.3918670  34.0023220  86.1454130 128.6944570  34.0090650  85.2373280
 129.1313260  33.6521080  86.6421790 133.2267310  48.7680080 101.1270570
 133.1526010  49.6715220 101.4342940 132.3246150  48.4491980 101.0992640
 131.6103600  32.9457840  87.1310330 131.2625600  32.2681830  86.5512780
 131.8116370  32.4847350  87.9453720 133.7752640  47.9338590  88.7496930
 134.6703430  48.2723560  88.7715690 133.8070270  47.2118000  88.1221210
 127.4148800  43.3065640  86.9783930 127.8523670  43.8495310  87.6341510
 127.8996530  42.4812590  86.9880270 124.6294600  46.0954670  94.4304190
 124.9597610  45.2275730  94.1982830 125.0585600  46.3013190  95.2609150
 129.2256520  44.4263680  92.0906160 128.9252060  44.3028650  92.9910070
 129.1194010  43.5672270  91.6821890 140.7546990  46.4642260 101.4563130
 140.1548980  46.5234820 100.7127050 140.8840890  45.5247240 101.5859980
 141.9948440  44.2060080  86.7932840 141.1641400  44.2736730  87.2640070
 142.1720270  45.0964200  86.4899700 141.4504900  40.9507560  89.2967040
 142.2123810  41.5204210  89.4026730 141.4659270  40.3834760  90.0675350
 124.9509240  39.4745490  93.5274700 124.2958080  39.2057130  92.8834400
 125.7887190  39.3649970  93.0776680 142.4564870  41.8057660  94.1408970
 142.8273700  41.0224980  93.7344940 143.0966800  42.4946760  93.9626270
 139.4398630  43.1894240  99.5539290 138.6258470  43.6191400  99.8165080
 139.8472830  43.8012650  98.9408340 141.5024070  41.2441930  86.4539560
 141.7772910  42.1520810  86.3258780 141.3134810  41.1804460  87.3901550
 137.8999680  34.2686780  87.7493190 138.3184560  34.0817760  86.9089850
 137.5935740  33.4165830  88.0596120 141.3989410  39.1810920  91.4468990
 141.0233010  38.4138850  91.0150280 140.6692530  39.5633620  91.9343920
 140.7889030  38.3282440 101.0808510 140.5575120  38.0995190 100.1806460
 141.0493580  39.2481990 101.0353400 125.5401170  36.7707150 101.9736460
 124.6457220  36.7373910 102.3130170 126.0798720  36.9693940 102.7387710
 139.2277100  33.5538870 103.8588210 140.1047280  33.5622270 104.2422210
 139.2397940  32.8169710 103.2480560 124.1647320  36.6844420  89.4700030
 123.2611400  36.9474620  89.2951690 124.6487940  36.9555590  88.6899990
 140.6740370  37.4068410  94.7476230 141.1977850  36.9131060  94.1166400
 141.2599790  37.5418770  95.4923800 140.8530090  37.4908280  98.2695780
 139.9032800  37.4571820  98.3840770 141.0343100  38.4008390  98.0345550
 126.7074530  35.7409960  87.3794410 127.4166230  35.3193180  86.8941690
 125.9914470  35.8085190  86.7477760 126.3548690  31.7949290  86.4197060
 127.0776820  32.3358230  86.7378280 126.6273210  31.5212710  85.5438600
 140.1640340  36.6641760  90.6868640 140.6599460  36.4312630  91.4717520
 139.9656410  35.8253600  90.2706280 126.0440880  31.0455480  96.3219680
 126.6917070  30.4952860  95.8814840 126.4642720  31.2998630  97.1435490
 141.5927500  35.3002710  93.2206320 141.4826780  35.1458750  94.1588590
 142.3535090  34.7723650  92.9781730 139.9393220  31.2396840  99.6789320
 140.5765440  31.8530980 100.0448510 140.0868110  31.2757500  98.7338550
 142.4817770  33.1310630  86.4612460 143.4067080  32.9991810  86.2530750
 142.4593560  33.2103450  87.4148910 142.5556260  33.9021290  89.0869170
 141.7607760  33.8366410  89.6162080 142.7599540  34.8371930  89.0754520
 139.4974680  47.9412840  93.0807560 140.0933750  47.6197410  92.4041980
 139.7552830  47.4684660  93.8720830 125.7972880  31.2011150  99.0645000
 125.4487700  31.6574970  99.8303180 125.4660580  30.3068280  99.1467430
 133.3097700  32.3923030 102.5864420 133.2486590  32.9844860 103.3359830
 134.2498080  32.2848990 102.4414680 135.9472260  32.0493090 102.2256710
 136.5612670  32.3672380 101.5637790 136.4921820  31.5641680 102.8452570
 142.3647440  47.9484720  99.6318550 141.8705720  48.3453590  98.9145680
 141.7560730  47.3233930 100.0255830 126.4693520  30.7287350 102.3395770
 127.0176510  30.5475400 101.5761880 126.5348830  29.9381460 102.8752080
 136.6880300  30.6125230  98.5526000 135.8140140  30.9460340  98.3498930
 136.5791050  30.1398410  99.3777870 137.5952280  32.8196100  99.9367720
 137.2665640  32.0047860  99.5569450 138.5434580  32.7765910  99.8133410
 140.0486890  48.5908140  96.9105290 139.5889860  49.3423950  96.5363310
 139.4199350  47.8714610  96.8520090 134.4355120  31.5295070  97.4918910
 133.6526910  32.0040570  97.7715670 134.1418050  30.6249900  97.3832090
 138.9876190  32.2318170  95.5368000 139.4284280  32.1763270  94.6889600
 138.7183780  33.1476180  95.6078180 140.8514760  31.8633410  93.5476820
 140.7903160  30.9194630  93.4007840 141.6306790  31.9713500  94.0930280
 125.1567510  48.0025770  92.5100770 124.9889550  47.3696450  93.2082660
 124.2902020  48.2085170  92.1594960 125.7795530  31.8342550  90.0132630
 126.5374890  31.9471430  89.4396660 125.3172700  32.6711750  89.9676060
 132.3209340  33.9481820  93.0034940 131.5083850  33.5738710  92.6630820
 132.8250980  33.1926900  93.3056130 136.8234320  30.6124270  94.2418010
 137.4263690  31.1844480  94.7166530 136.0827310  31.1763710  94.0191910
 139.9668920  31.0145830  89.5158290 140.1619550  31.9129280  89.7825720
 139.1798790  30.7832910  90.0091240 126.7630210  46.6959000  89.9550910
 126.2377830  47.0767030  89.2512870 126.6874790  47.3209770  90.6760620
 128.1520680  32.3606600  88.5534600 128.6813440  31.5736400  88.4242550
 128.7849000  33.0397790  88.7870130 130.3458520  32.0981740  91.6079990
 129.7161260  31.3969050  91.7750120 129.8063660  32.8585870  91.3913150
 133.2850470  48.7120970 104.2790600 134.2117780  48.4765240 104.3226560
 133.2700900  49.5392970 103.7976630 141.5195530  48.2546540  91.2764850
 141.6947720  47.5684280  90.6325770 140.8217100  48.7793590  90.8841520
 130.4714080  31.3765720 104.0432480 130.1898350  31.8799320 103.2793300
 130.8533780  30.5787470 103.6774610 129.3623180  48.6441380  88.8300160
 130.0942000  48.3600660  88.2824050 129.6216850  48.4054660  89.7199540
 128.5237970  44.7606110  88.8346490 127.8946850  45.2291210  89.3832320
 128.6385800  43.9155330  89.2692680 137.0729540  30.7919300 104.6212950
 136.9594990  31.1113910 105.5164470 137.8899280  31.1931810 104.3250230
 139.8528030  47.9390830 104.1031640 140.6453350  47.4440060 103.8957600
 140.1461180  48.6180970 104.7107250 135.9787690  38.8111770  74.9847690
 135.8981740  37.8966380  74.7139400 135.5652110  39.3078840  74.2787400
 134.1105730  40.5890790  76.8656960 133.3347830  40.1091230  77.1555530
 134.7618660  39.9096440  76.6913120 128.1271560  40.9010600  77.7432720
 127.2956440  40.6459310  78.1429230 128.7352540  40.9721370  78.4790640
 138.1313160  44.9950980  75.6456090 137.6694690  44.2238220  75.9743260
 138.9438710  45.0217050  76.1508540 128.1072820  44.9350690  77.9390740
 128.4100860  44.0448430  77.7600960 128.8516410  45.4920910  77.7112990
 126.5363510  35.8612490  71.5275110 125.6480210  36.2028460  71.4254990
 126.8204700  35.6612810  70.6355940 134.3576470  47.2808990  75.2660080
 133.7387910  47.7366490  74.6954520 135.2128250  47.4360450  74.8649780
 133.5514720  43.2647980  76.8727120 133.4823000  42.3237920  76.7116250
 134.3134580  43.3549390  77.4449690 125.7421390  33.8702500  79.1983740
 125.5624230  32.9728250  79.4786500 125.3401470  34.4174370  79.8730690
 134.5819890  36.0718360  77.0996050 134.9584710  35.1990240  76.9869720
 134.4839400  36.4077060  76.2086490 128.7124900  34.4443990  72.5613490
 128.8191650  35.3447720  72.8682250 127.8017260  34.3961960  72.2708140
 138.3644010  33.5668800  74.0324390 139.1853630  33.0765370  74.0749870
 138.3978090  34.1566460  74.7856230 126.3608060  36.3663000  77.8066080
 127.0418170  36.6301370  78.4253480 126.0456110  35.5263870  78.1404090
 130.5532630  37.4130360  76.8938670 131.0610850  37.9111330  77.5343690
 131.0845870  36.6365560  76.7178030 142.6543560  35.5835550  80.5968020
 141.9495730  35.9717260  80.0783130 142.9201480  36.2785840  81.1988950
 128.8368730  32.0528920  81.1602090 128.8387170  32.5701310  80.3547990
 128.0073040  31.5759100  81.1372020 135.2239820  42.1648230  72.6591990
 134.6057090  42.6297680  72.0954710 135.7363070  42.8575710  73.0761500
 130.0871580  41.6924100  79.3375590 129.7540960  42.3193020  79.9796660
 130.2638260  42.2185980  78.5577260 138.6005490  35.5069180  76.8051930
 137.8961060  35.7954070  77.3855040 138.9617650  36.3169290  76.4451490
 128.5184060  33.7638880  79.1672540 128.8600870  34.6080930  78.8726410
 127.5799870  33.9122620  79.2837880 129.2990680  43.6604900  81.1524770
 129.9164680  44.3355980  80.8709220 128.4383800  44.0692880  81.0612270
 140.2168270  45.1244310  79.0679410 139.5331790  45.7943420  79.0596080
 140.7562560  45.3224960  78.3024270 141.6692410  34.9523970  77.1961140
 140.7217320  34.9862950  77.3276570 141.9942400  35.7662920  77.5810500
 132.2011950  31.2521150  75.4917130 132.5086930  30.6968040  74.7752630
 131.2712650  31.3865610  75.3090120 137.7527010  46.9688440  77.7824590
 137.7654170  46.5650730  76.9146850 137.2002230  47.7435730  77.6786020
 139.0472430  43.6904660  72.8714760 138.9368760  42.7478990  72.9964180
 139.0440680  44.0520300  73.7577520 137.1512450  41.8718280  79.1107200
 137.5681240  41.6578390  78.2760660 137.8752270  42.1291070  79.6815820
 134.5892710  39.3169980  72.2277250 133.6621990  39.2507360  72.4565720
 134.7417530  40.2550110  72.1132490 134.5761790  35.5886980  69.2244410
 133.6365460  35.7500940  69.3096870 134.8945050  36.3072660  68.6780400
 141.0974550  40.2705500  79.2023440 140.2693180  40.3398590  78.7273570
 141.6925030  40.8559810  78.7339270 138.6190000  40.8790280  72.7312500
 138.0002420  40.5409830  72.0838800 138.6014450  40.2350040  73.4391690
 138.0616560  37.0574820  80.1478310 137.6487740  37.8828530  80.4018300
 137.3292510  36.4719860  79.9554670 130.1949350  39.8434720  75.0096980
 129.7906350  39.1311970  74.5142880 130.2812470  39.4987960  75.8985020
 130.6631050  43.5302280  77.1736190 130.3659340  42.9247750  76.4943970
 131.6130870  43.5679590  77.0625550 128.9077970  36.6177930  78.7896020
 129.4592560  36.7273270  78.0149270 129.4221480  36.9915530  79.5051250
 138.7516660  47.1034150  80.8359290 138.2747220  47.9106340  80.6431900
 138.0678450  46.4512480  80.9885500 129.7549480  43.2683970  83.8243990
 128.8578010  43.4923940  84.0717390 129.7802350  43.3918910  82.8755390
 136.7954700  40.1177090  69.7385250 137.2347980  39.2799520  69.5923070
 137.5083120  40.7506490  69.8249390 128.5820700  40.1397290  82.4001360
 128.4428470  41.0120090  82.7688760 127.7002060  39.7970100  82.2549300
 134.9050080  45.0573160  73.7066490 135.3445990  45.7997490  73.2921880
 134.8436970  45.2999730  74.6305450 130.3801050  46.0818990  84.6086510
 130.3516480  46.4861940  83.7414940 130.2166020  45.1529350  84.4458110
 140.3771840  31.3719900  68.0526290 140.0644500  31.4646730  68.9525360
 141.1384310  31.9500930  68.0023720 126.8953980  38.7379700  72.5103630
 126.7751580  39.4641790  71.8984900 126.5854870  37.9682610  72.0331540
 142.3315870  46.8646090  85.9050680 142.8075590  47.3428980  86.5839760
 142.9523030  46.7963580  85.1796180 124.5339350  41.9094840  78.3172270
 124.6119770  42.0443610  77.3727990 125.1481030  41.2010730  78.5100390
 125.7786980  43.6095030  74.7278450 125.3715060  43.7509620  73.8732050
 126.6699990  43.3255190  74.5249660 141.7349120  44.0558940  83.0650690
 141.8612180  43.8170820  82.1467870 141.7770500  43.2243480  83.5372770
 135.5965860  47.7586940  81.6345500 136.1110530  47.6694950  82.4367930
 134.7534940  48.1046640  81.9273410 137.5720260  48.0442280  71.0629500
 137.4121400  47.7545220  71.9611330 137.4066970  47.2682410  70.5274730
 130.0508640  47.8240810  72.8401120 129.8751120  46.9076350  72.6268920
 129.1964380  48.1828100  73.0798920 137.2746390  45.5529840  69.6227500
 136.5811550  45.5507130  68.9629780 138.0169250  45.1289160  69.1921670
 136.8396320  47.1792550  73.6975990 137.2953270  46.3981930  74.0114610
 137.1788840  47.8899370  74.2417170 141.5873130  36.1091400  84.0300430
 140.9717400  36.6171070  83.5015890 141.2669550  35.2089730  83.9726370
 124.5898870  42.9509010  80.8566730 124.7529910  42.4814370  80.0386100
 125.0551320  42.4432570  81.5215570 129.3617640  32.0814770  75.8927300
 128.9185790  32.8624310  75.5611820 129.9202630  32.4044660  76.5998240
 133.6487450  34.9483290  81.4962620 133.1866820  35.1566310  82.3082560
 133.2465560  34.1342640  81.1933290 138.6491960  36.1692240  82.6259280
 137.7985550  35.8697990  82.9468350 138.4893750  36.4134250  81.7143100
 135.7441670  37.6693990  84.7258070 136.0695080  36.8357740  84.3860300
 136.5322000  38.1922510  84.8736400 132.4776460  31.7025470  70.7733130
 131.8530640  31.6985340  71.4986440 132.3906580  30.8356430  70.3769100
 131.3993540  32.6262100  77.7516900 131.6965870  33.5324930  77.6708920
 131.9479100  32.1380880  77.1376470 129.1531860  37.2048340  73.6208550
 128.9272780  36.9885510  74.5255170 128.3724390  37.6376800  73.2754520
 136.3829620  37.2111710  72.2199200 135.7838510  37.9347510  72.0362820
 136.9309230  37.1488490  71.4375650 131.5931070  38.1033920  84.2868820
 131.4974670  37.1628650  84.1369220 132.4363050  38.3248990  83.8916890
 134.9894490  35.8475250  74.2502480 135.3824060  36.1647450  73.4371170
 135.3511340  34.9687130  74.3647000 126.7241610  34.5147590  82.4402600
 126.3305000  35.3622800  82.6475380 126.0360010  33.8773960  82.6311240
 133.2986660  34.5982560  85.5099340 132.6084980  34.4054760  86.1445430
 134.0418960  34.8817200  86.0423640 124.0258660  32.4376050  76.4732680
 123.7371710  33.0078910  77.1857660 124.7704420  31.9580500  76.8363910
 124.2128890  36.3796170  67.6835400 124.1303560  37.3226930  67.8250390
 123.8611950  36.2371080  66.8047750 135.5749630  38.4381000  78.3453260
 134.8430750  38.9467810  78.6943360 135.1773970  37.6210980  78.0442040
 132.0127020  35.1135200  76.7505750 132.0163080  34.6725150  75.9010290
 132.9078140  35.4352530  76.8577570 127.8629400  34.9961690  75.7099960
 127.5229450  35.4736920  76.4667010 127.1006720  34.5426810  75.3501060
 132.0747170  36.1147280  69.7412510 132.1959990  36.0733760  70.6898330
 131.6895680  36.9771430  69.5859240 136.0375540  33.8914680  77.7576200
 136.0548280  34.3423330  78.6018050 135.7891120  32.9920320  77.9709640
 131.0868670  38.4248420  69.1395810 130.5185570  37.9766670  68.5131720
 131.7957670  38.7841200  68.6060960 139.4646290  31.3046860  83.5962580
 139.7892060  30.5736520  84.1220560 139.5002800  30.9860500  82.6943570
 126.1637850  42.3260440  83.0162540 125.7792640  41.6854110  83.6145500
 126.4750040  43.0296560  83.5857270 132.3134990  39.1736980  78.4971160
 132.6805120  38.6995550  79.2432500 132.1240050  40.0478550  78.8379500
 125.1775480  33.9180670  74.6264630 124.8922400  33.5536340  75.4643250
 125.1154340  33.1861130  74.0127770 130.1034360  38.2145620  80.8155370
 129.7991430  39.0937600  81.0405730 131.0580820  38.2745410  80.8512810
 139.3904130  41.4171970  77.2048610 140.1103250  41.9127260  76.8144720
 139.1885950  40.7389860  76.5602480 134.8514070  32.8109930  71.3478000
 134.0378680  32.3123100  71.2723310 134.6576020  33.6508180  70.9314350
 134.7722930  41.4881030  83.0917610 134.7060240  40.5676700  82.8375200
 134.1428070  41.5856470  83.8062250 137.5662460  37.1829580  69.6440160
 138.4542080  37.4946810  69.4691500 137.5367550  36.3101830  69.2520740
 128.6753550  42.0886990  75.0501030 129.1932220  41.2855250  74.9957920
 128.2237570  42.0266130  75.8917860 129.3611210  39.5132600  84.8466280
 129.0611350  39.6589780  83.9494100 130.1322450  38.9537890  84.7539670
 134.7039660  44.3101600  82.8421410 134.7184200  43.3782560  82.6240320
 133.9964760  44.3961360  83.4811180 139.8376730  38.4941420  69.1120020
 139.7540450  38.9255640  68.2616460 140.5570920  38.9539770  69.5446840
 140.9150870  40.9508940  82.1889990 140.1899060  41.5437720  81.9919380
 141.4426330  40.9432480  81.3903360 140.8663980  45.3483680  71.8402150
 140.2240140  44.6939300  72.1145870 140.4794640  45.7538770  71.0642820
 136.4450460  42.6769110  75.6873840 136.7974280  42.0797240  75.0275210
 135.5612790  42.3513340  75.8582090 124.6706140  39.0539620  68.5861330
 125.5400990  39.3364420  68.8697250 124.1796460  39.8675490  68.4710140
 131.8340950  40.4412830  72.7069610 132.2903730  41.2518080  72.9329800
 131.4829160  40.1235970  73.5388100 134.1373560  45.9519170  79.9361910
 134.7815780  46.1578550  80.6135330 134.5003000  45.1907570  79.4832760
 127.7352730  30.7850480  73.1792130 127.6067360  30.7768380  74.1277050
 126.9114750  31.1233570  72.8283140 135.4105640  43.9551520  78.6539360
 136.0527870  43.2544680  78.7671530 135.9354990  44.7349960  78.4736250
 139.2561360  44.2400140  68.3778500 139.0298940  43.5230580  68.9703140
 138.8657560  43.9912580  67.5400250 137.1843260  44.7546420  81.8575420
 137.5199500  45.3413110  82.5353340 136.2643600  44.6239130  82.0873210
 125.0377390  48.2667000  69.1522960 125.3975030  48.8656340  68.4980230
 124.8969730  48.8126890  69.9257990 124.7346660  32.5441600  82.6398830
 124.0205180  32.7438520  83.2451440 125.1541700  31.7681170  83.0113630
 138.8377610  42.1572080  70.0392660 138.5499310  42.6184770  70.8270540
 139.6329780  41.6969850  70.3076880 125.0219250  46.5321860  83.6265360
 125.1310370  45.5916600  83.4860750 124.3699810  46.7976610  82.9779090
 133.0131840  44.8037750  85.0263480 132.6928710  44.0846990  85.5709170
 132.3390200  45.4792820  85.0999540 136.2285440  35.0363910  80.3900280
 136.5966260  34.2159120  80.7179850 135.3683640  35.0965800  80.8055930
 139.5947470  33.9920850  71.1987840 138.9660630  34.0966520  70.4846070
 139.0999390  34.2117630  71.9881720 131.5631500  36.2706800  72.6145720
 130.8547650  36.7393140  73.0559330 131.8475980  35.6128810  73.2490910
 133.1887430  37.6903500  80.6138250 133.6872680  38.1649320  81.2790100
 133.3310380  36.7667020  80.8208280 135.5946930  32.9957460  74.0541510
 135.4714710  33.0143590  73.1051020 136.5431490  33.0436400  74.1739910
 132.6823720  48.2312760  73.3269490 132.9365220  48.1934150  72.4048860
 131.7336200  48.1046090  73.3197740 129.7666520  34.5791880  69.9896430
 130.6157050  35.0162030  69.9236620 129.3997790  34.8912140  70.8168490
 140.3954290  33.9071460  81.4566640 139.8927890  34.6476860  81.7960450
 141.2110950  34.2955460  81.1403430 138.6876300  39.1504640  74.9028000
 137.7466440  39.1654870  75.0775690 139.0020370  38.3640600  75.3488300
 127.3604700  38.2649310  69.1464850 127.4408290  37.3176820  69.2582250
 128.2524450  38.5956190  69.2525510 140.6901880  46.3213490  76.5782260
 140.8149300  47.1444660  77.0506070 141.5567440  46.1104220  76.2306410
 128.1619410  48.4144700  76.2499390 128.8981890  47.8660160  76.5207960
 128.5460330  49.2800710  76.1105380 125.0464890  44.4818270  72.1240900
 124.1204670  44.7239410  72.1146310 125.5121320  45.3092530  72.0025650
 127.1677690  47.5990770  85.4384970 127.9690420  47.9202820  85.8520370
 126.6529510  47.2386350  86.1604880 136.0042320  43.7070640  85.3860380
 135.3980480  43.7302240  84.6456130 135.6996430  42.9753680  85.9227630
 137.4342690  47.4350930  83.9969790 138.3864440  47.3508950  83.9470030
 137.2870910  48.0992640  84.6703580 140.3251890  46.8145140  69.4961700
 140.0393400  46.4010280  68.6815880 140.1271440  47.7432850  69.3762220
 131.9413440  41.4935220  83.9156540 131.1759110  42.0620220  83.8311210
 132.1229400  41.2011430  83.0224770 135.0301850  41.8698450  68.5409300
 134.4811950  42.3167750  69.1852040 135.6521110  41.3647700  69.0646970
 139.0836790  43.2240550  84.4731560 139.8246260  43.5616310  83.9699020
 138.3209470  43.3932610  83.9201330 126.9198580  38.2293820  85.2771090
 126.9603920  37.9307690  86.1856320 127.7744080  38.6301430  85.1178610
 128.8604390  36.8085920  83.2445580 128.3300850  36.3176870  82.6168920
 129.5292460  37.2370120  82.7103510 133.2104610  39.8526980  67.6851700
 133.7310270  39.1376000  67.3192850 133.8573010  40.4912850  67.9852210
 137.7582450  41.2755380  83.0086770 138.1723470  41.4300460  83.8577190
 136.8233450  41.4010600  83.1712550 138.2304620  38.6151540  85.0125920
 138.8125390  37.8603860  84.9246400 138.4066390  39.1458980  84.2357400
 129.3476690  33.7748290  83.3242870 129.2533560  33.1569040  82.5993740
 128.7674080  34.5014580  83.0972780 132.1138130  32.3321530  80.3570260
 131.6655430  32.3545790  79.5115810 131.4803330  31.9340550  80.9540560
 132.5197680  41.2275860  80.9782700 132.9385790  42.0708590  80.8058940
 131.6006310  41.3647900  80.7489480 134.8561580  38.9592040  82.3620540
 134.9757790  38.3633180  83.1015380 135.7155580  38.9961730  81.9421840
 137.1949480  39.5129230  80.9383050 136.6684700  40.0371850  80.3348190
 137.5380820  40.1456620  81.5692780 129.5935870  36.9022600  67.3832760
 129.3924930  36.0389960  67.7446100 129.4227920  36.8155960  66.4454360
 130.3705100  47.5328870  82.0940430 129.8326190  48.2574930  81.7749130
 130.6239060  47.0559210  81.3037770 131.6230350  35.5013390  83.6196360
 132.2130040  35.1929240  84.3074180 130.8050590  35.0293140  83.7756260
 136.4423780  35.1179200  83.8529380 135.7539300  34.4560740  83.7879370
 137.1629800  34.6717470  84.2977840 137.0724180  31.7130830  69.9119640
 137.3526470  30.8698730  70.2679060 136.2989910  31.9453940  70.4258390
 128.3918670  34.0023220  67.3710640 128.6944570  34.0090650  66.4629790
 129.1313260  33.6521080  67.8678300 133.2267310  48.7680080  82.3527080
 133.1526010  49.6715220  82.6599450 132.3246150  48.4491980  82.3249150
 131.6103600  32.9457840  68.3566840 131.2625600  32.2681830  67.7769290
 131.8116370  32.4847350  69.1710230 133.7752640  47.9338590  69.9753440
 134.6703430  48.2723560  69.9972200 133.8070270  47.2118000  69.3477720
 124.6294600  46.0954670  75.6560700 124.9597610  45.2275730  75.4239340
 125.0585600  46.3013190  76.4865660 125.1184810  46.9625260  78.3942330
 124.6815800  47.1426060  79.2266480 125.6862490  47.7199880  78.2524050
 140.7546990  46.4642260  82.6819640 140.1548980  46.5234820  81.9383560
 140.8840890  45.5247240  82.8116490 141.9948440  44.2060080  68.0189350
 141.1641400  44.2736730  68.4896580 142.1720270  45.0964200  67.7156210
 141.4504900  40.9507560  70.5223550 142.2123810  41.5204210  70.6283240
 141.4659270  40.3834760  71.2931860 124.9509240  39.4745490  74.7531210
 124.2958080  39.2057130  74.1090910 125.7887190  39.3649970  74.3033190
 142.4564870  41.8057660  75.3665480 142.8273700  41.0224980  74.9601450
 143.0966800  42.4946760  75.1882780 139.4398630  43.1894240  80.7795800
 138.6258470  43.6191400  81.0421590 139.8472830  43.8012650  80.1664850
 141.5024070  41.2441930  67.6796070 141.7772910  42.1520810  67.5515290
 141.3134810  41.1804460  68.6158060 137.8999680  34.2686780  68.9749700
 138.3184560  34.0817760  68.1346360 137.5935740  33.4165830  69.2852630
 141.3989410  39.1810920  72.6725500 141.0233010  38.4138850  72.2406790
 140.6692530  39.5633620  73.1600430 140.7889030  38.3282440  82.3065020
 140.5575120  38.0995190  81.4062970 141.0493580  39.2481990  82.2609910
 139.2277100  33.5538870  85.0844720 140.1047280  33.5622270  85.4678720
 139.2397940  32.8169710  84.4737070 124.1647320  36.6844420  70.6956540
 123.2611400  36.9474620  70.5208200 124.6487940  36.9555590  69.9156500
 140.6740370  37.4068410  75.9732740 141.1977850  36.9131060  75.3422910
 141.2599790  37.5418770  76.7180310 140.8530090  37.4908280  79.4952290
 139.9032800  37.4571820  79.6097280 141.0343100  38.4008390  79.2602060
 126.7074530  35.7409960  68.6050920 127.4166230  35.3193180  68.1198200
 125.9914470  35.8085190  67.9734270 126.3548690  31.7949290  67.6453570
 127.0776820  32.3358230  67.9634790 126.6273210  31.5212710  66.7695110
 140.1640340  36.6641760  71.9125150 140.6599460  36.4312630  72.6974030
 139.9656410  35.8253600  71.4962790 126.0440880  31.0455480  77.5476190
 126.6917070  30.4952860  77.1071350 126.4642720  31.2998630  78.3692000
 141.5927500  35.3002710  74.4462830 141.4826780  35.1458750  75.3845100
 142.3535090  34.7723650  74.2038240 139.9393220  31.2396840  80.9045830
 140.5765440  31.8530980  81.2705020 140.0868110  31.2757500  79.9595060
 142.4817770  33.1310630  67.6868970 143.4067080  32.9991810  67.4787260
 142.4593560  33.2103450  68.6405420 142.5556260  33.9021290  70.3125680
 141.7607760  33.8366410  70.8418590 142.7599540  34.8371930  70.3011030
 139.4974680  47.9412840  74.3064070 140.0933750  47.6197410  73.6298490
 139.7552830  47.4684660  75.0977340 125.7972880  31.2011150  80.2901510
 125.4487700  31.6574970  81.0559690 125.4660580  30.3068280  80.3723940
 127.4037250  44.3730750  84.4554700 127.3606880  44.0023660  85.3369160
 127.5348260  45.3108320  84.5956520 131.1043280  45.9290340  80.0564420
 130.8634640  46.1964900  79.1694940 132.0445920  46.0996070  80.1115280
 133.3097700  32.3923030  83.8120930 133.2486590  32.9844860  84.5616340
 134.2498080  32.2848990  83.6671190 135.9472260  32.0493090  83.4513220
 136.5612670  32.3672380  82.7894300 136.4921820  31.5641680  84.0709080
 142.3647440  47.9484720  80.8575060 141.8705720  48.3453590  80.1402190
 141.7560730  47.3233930  81.2512340 126.4693520  30.7287350  83.5652280
 127.0176510  30.5475400  82.8018390 126.5348830  29.9381460  84.1008590
 127.2425280  47.3193000  81.5752480 126.6485600  47.1877700  82.3142520
 127.2349120  46.4831140  81.1094580 136.6880300  30.6125230  79.7782510
 135.8140140  30.9460340  79.5755440 136.5791050  30.1398410  80.6034380
 137.5952280  32.8196100  81.1624230 137.2665640  32.0047860  80.7825960
 138.5434580  32.7765910  81.0389920 140.0486890  48.5908140  78.1361800
 139.5889860  49.3423950  77.7619820 139.4199350  47.8714610  78.0776600
 126.8737510  44.6851380  80.5260520 126.1471570  44.0656670  80.4586470
 126.9346660  45.0791990  79.6558600 130.4782610  46.8996380  77.3109930
 130.9947630  46.2883740  76.7858190 131.1279990  47.4025160  77.8020940
 133.2178110  47.7904870  78.1378910 133.5055920  47.5359170  77.2611920
 133.7301330  47.2382230  78.7284480 134.4355120  31.5295070  78.7175420
 133.6526910  32.0040570  78.9972180 134.1418050  30.6249900  78.6088600
 138.9876190  32.2318170  76.7624510 139.4284280  32.1763270  75.9146110
 138.7183780  33.1476180  76.8334690 140.8514760  31.8633410  74.7733330
 140.7903160  30.9194630  74.6264350 141.6306790  31.9713500  75.3186790
 125.1567510  48.0025770  73.7357280 124.9889550  47.3696450  74.4339170
 124.2902020  48.2085170  73.3851470 125.7795530  31.8342550  71.2389140
 126.5374890  31.9471430  70.6653170 125.3172700  32.6711750  71.1932570
 132.3209340  33.9481820  74.2291450 131.5083850  33.5738710  73.8887330
 132.8250980  33.1926900  74.5312640 136.8234320  30.6124270  75.4674520
 137.4263690  31.1844480  75.9423040 136.0827310  31.1763710  75.2448420
 139.9668920  31.0145830  70.7414800 140.1619550  31.9129280  71.0082230
 139.1798790  30.7832910  71.2347750 126.7630210  46.6959000  71.1807420
 126.2377830  47.0767030  70.4769380 126.6874790  47.3209770  71.9017130
 128.1520680  32.3606600  69.7791110 128.6813440  31.5736400  69.6499060
 128.7849000  33.0397790  70.0126640 130.3458520  32.0981740  72.8336500
 129.7161260  31.3969050  73.0006630 129.8063660  32.8585870  72.6169660
 133.2850470  48.7120970  85.5047110 134.2117780  48.4765240  85.5483070
 133.2700900  49.5392970  85.0233140 141.5195530  48.2546540  72.5021360
 141.6947720  47.5684280  71.8582280 140.8217100  48.7793590  72.1098030
 130.4714080  31.3765720  85.2688990 130.1898350  31.8799320  84.5049810
 130.8533780  30.5787470  84.9031120 129.3623180  48.6441380  70.0556670
 130.0942000  48.3600660  69.5080560 129.6216850  48.4054660  70.9456050
 137.0729540  30.7919300  85.8469460 136.9594990  31.1113910  86.7420980
 137.8899280  31.1931810  85.5506740 139.8528030  47.9390830  85.3288150
 140.6453350  47.4440060  85.1214110 140.1461180  48.6180970  85.9363760
 135.9787690  38.8111770  56.2104200 135.8981740  37.8966380  55.9395910
 135.5652110  39.3078840  55.5043910 134.1105730  40.5890790  58.0913470
 133.3347830  40.1091230  58.3812040 134.7618660  39.9096440  57.9169630
 128.1271560  40.9010600  58.9689230 127.2956440  40.6459310  59.3685740
 128.7352540  40.9721370  59.7047150 138.1313160  44.9950980  56.8712600
 137.6694690  44.2238220  57.1999770 138.9438710  45.0217050  57.3765050
 128.1072820  44.9350690  59.1647250 128.4100860  44.0448430  58.9857470
 128.8516410  45.4920910  58.9369500 126.5363510  35.8612490  52.7531620
 125.6480210  36.2028460  52.6511500 126.8204700  35.6612810  51.8612450
 124.4996520  38.4618140  58.6371320 125.0712630  37.6940340  58.6374960
 124.4998060  38.7606900  57.7277930 134.3576470  47.2808990  56.4916590
 133.7387910  47.7366490  55.9211030 135.2128250  47.4360450  56.0906290
 133.5514720  43.2647980  58.0983630 133.4823000  42.3237920  57.9372760
 134.3134580  43.3549390  58.6706200 125.7421390  33.8702500  60.4240250
 125.5624230  32.9728250  60.7043010 125.3401470  34.4174370  61.0987200
 134.5819890  36.0718360  58.3252560 134.9584710  35.1990240  58.2126230
 134.4839400  36.4077060  57.4343000 128.7124900  34.4443990  53.7870000
 128.8191650  35.3447720  54.0938760 127.8017260  34.3961960  53.4964650
 138.3644010  33.5668800  55.2580900 139.1853630  33.0765370  55.3006380
 138.3978090  34.1566460  56.0112740 126.3608060  36.3663000  59.0322590
 127.0418170  36.6301370  59.6509990 126.0456110  35.5263870  59.3660600
 130.5532630  37.4130360  58.1195180 131.0610850  37.9111330  58.7600200
 131.0845870  36.6365560  57.9434540 142.6543560  35.5835550  61.8224530
 141.9495730  35.9717260  61.3039640 142.9201480  36.2785840  62.4245460
 128.8368730  32.0528920  62.3858600 128.8387170  32.5701310  61.5804500
 128.0073040  31.5759100  62.3628530 135.2239820  42.1648230  53.8848500
 134.6057090  42.6297680  53.3211220 135.7363070  42.8575710  54.3018010
 130.0871580  41.6924100  60.5632100 129.7540960  42.3193020  61.2053170
 130.2638260  42.2185980  59.7833770 138.6005490  35.5069180  58.0308440
 137.8961060  35.7954070  58.6111550 138.9617650  36.3169290  57.6708000
 128.5184060  33.7638880  60.3929050 128.8600870  34.6080930  60.0982920
 127.5799870  33.9122620  60.5094390 129.2990680  43.6604900  62.3781280
 129.9164680  44.3355980  62.0965730 128.4383800  44.0692880  62.2868780
 124.5923020  42.8504760  51.2588130 124.2151000  43.3391860  50.5273030
 124.8496090  43.5230040  51.8894660 140.2168270  45.1244310  60.2935920
 139.5331790  45.7943420  60.2852590 140.7562560  45.3224960  59.5280780
 141.6692410  34.9523970  58.4217650 140.7217320  34.9862950  58.5533080
 141.9942400  35.7662920  58.8067010 132.2011950  31.2521150  56.7173640
 132.5086930  30.6968040  56.0009140 131.2712650  31.3865610  56.5346630
 137.7527010  46.9688440  59.0081100 137.7654170  46.5650730  58.1403360
 137.2002230  47.7435730  58.9042530 139.0472430  43.6904660  54.0971270
 138.9368760  42.7478990  54.2220690 139.0440680  44.0520300  54.9834030
 137.1512450  41.8718280  60.3363710 137.5681240  41.6578390  59.5017170
 137.8752270  42.1291070  60.9072330 134.5892710  39.3169980  53.4533760
 133.6621990  39.2507360  53.6822230 134.7417530  40.2550110  53.3389000
 134.5761790  35.5886980  50.4500920 133.6365460  35.7500940  50.5353380
 134.8945050  36.3072660  49.9036910 141.0974550  40.2705500  60.4279950
 140.2693180  40.3398590  59.9530080 141.6925030  40.8559810  59.9595780
 138.6190000  40.8790280  53.9569010 138.0002420  40.5409830  53.3095310
 138.6014450  40.2350040  54.6648200 138.0616560  37.0574820  61.3734820
 137.6487740  37.8828530  61.6274810 137.3292510  36.4719860  61.1811180
 130.1949350  39.8434720  56.2353490 129.7906350  39.1311970  55.7399390
 130.2812470  39.4987960  57.1241530 130.6631050  43.5302280  58.3992700
 130.3659340  42.9247750  57.7200480 131.6130870  43.5679590  58.2882060
 128.9077970  36.6177930  60.0152530 129.4592560  36.7273270  59.2405780
 129.4221480  36.9915530  60.7307760 138.7516660  47.1034150  62.0615800
 138.2747220  47.9106340  61.8688410 138.0678450  46.4512480  62.2142010
 136.7954700  40.1177090  50.9641760 137.2347980  39.2799520  50.8179580
 137.5083120  40.7506490  51.0505900 128.5820700  40.1397290  63.6257870
 128.4428470  41.0120090  63.9945270 127.7002060  39.7970100  63.4805810
 134.9050080  45.0573160  54.9323000 135.3445990  45.7997490  54.5178390
 134.8436970  45.2999730  55.8561960 130.3801050  46.0818990  65.8343020
 130.3516480  46.4861940  64.9671450 130.2166020  45.1529350  65.6714620
 140.3771840  31.3719900  49.2782800 140.0644500  31.4646730  50.1781870
 141.1384310  31.9500930  49.2280230 126.8953980  38.7379700  53.7360140
 126.7751580  39.4641790  53.1241410 126.5854870  37.9682610  53.2588050
 142.3315870  46.8646090  67.1307190 142.8075590  47.3428980  67.8096270
 142.9523030  46.7963580  66.4052690 124.5339350  41.9094840  59.5428780
 124.6119770  42.0443610  58.5984500 125.1481030  41.2010730  59.7356900
 125.7786980  43.6095030  55.9534960 125.3715060  43.7509620  55.0988560
 126.6699990  43.3255190  55.7506170 141.7349120  44.0558940  64.2907200
 141.8612180  43.8170820  63.3724380 141.7770500  43.2243480  64.7629280
 135.5965860  47.7586940  62.8602010 136.1110530  47.6694950  63.6624440
 134.7534940  48.1046640  63.1529920 137.5720260  48.0442280  52.2886010
 137.4121400  47.7545220  53.1867840 137.4066970  47.2682410  51.7531240
 130.0508640  47.8240810  54.0657630 129.8751120  46.9076350  53.8525430
 129.1964380  48.1828100  54.3055430 137.2746390  45.5529840  50.8484010
 136.5811550  45.5507130  50.1886290 138.0169250  45.1289160  50.4178180
 136.8396320  47.1792550  54.9232500 137.2953270  46.3981930  55.2371120
 137.1788840  47.8899370  55.4673680 141.5873130  36.1091400  65.2556940
 140.9717400  36.6171070  64.7272400 141.2669550  35.2089730  65.1982880
 129.3617640  32.0814770  57.1183810 128.9185790  32.8624310  56.7868330
 129.9202630  32.4044660  57.8254750 133.6487450  34.9483290  62.7219130
 133.1866820  35.1566310  63.5339070 133.2465560  34.1342640  62.4189800
 138.6491960  36.1692240  63.8515790 137.7985550  35.8697990  64.1724860
 138.4893750  36.4134250  62.9399610 135.7441670  37.6693990  65.9514580
 136.0695080  36.8357740  65.6116810 136.5322000  38.1922510  66.0992910
 132.4776460  31.7025470  51.9989640 131.8530640  31.6985340  52.7242950
 132.3906580  30.8356430  51.6025610 131.3993540  32.6262100  58.9773410
 131.6965870  33.5324930  58.8965430 131.9479100  32.1380880  58.3632980
 129.1531860  37.2048340  54.8465060 128.9272780  36.9885510  55.7511680
 128.3724390  37.6376800  54.5011030 136.3829620  37.2111710  53.4455710
 135.7838510  37.9347510  53.2619330 136.9309230  37.1488490  52.6632160
 131.5931070  38.1033920  65.5125330 131.4974670  37.1628650  65.3625730
 132.4363050  38.3248990  65.1173400 134.9894490  35.8475250  55.4758990
 135.3824060  36.1647450  54.6627680 135.3511340  34.9687130  55.5903510
 126.7241610  34.5147590  63.6659110 126.3305000  35.3622800  63.8731890
 126.0360010  33.8773960  63.8567750 133.2986660  34.5982560  66.7355850
 132.6084980  34.4054760  67.3701940 134.0418960  34.8817200  67.2680150
 124.0258660  32.4376050  57.6989190 123.7371710  33.0078910  58.4114170
 124.7704420  31.9580500  58.0620420 124.2128890  36.3796170  48.9091910
 124.1303560  37.3226930  49.0506900 123.8611950  36.2371080  48.0304260
 135.5749630  38.4381000  59.5709770 134.8430750  38.9467810  59.9199870
 135.1773970  37.6210980  59.2698550 132.0127020  35.1135200  57.9762260
 132.0163080  34.6725150  57.1266800 132.9078140  35.4352530  58.0834080
 127.8629400  34.9961690  56.9356470 127.5229450  35.4736920  57.6923520
 127.1006720  34.5426810  56.5757570 132.0747170  36.1147280  50.9669020
 132.1959990  36.0733760  51.9154840 131.6895680  36.9771430  50.8115750
 136.0375540  33.8914680  58.9832710 136.0548280  34.3423330  59.8274560
 135.7891120  32.9920320  59.1966150 131.0868670  38.4248420  50.3652320
 130.5185570  37.9766670  49.7388230 131.7957670  38.7841200  49.8317470
 139.4646290  31.3046860  64.8219090 139.7892060  30.5736520  65.3477070
 139.5002800  30.9860500  63.9200080 126.1637850  42.3260440  64.2419050
 125.7792640  41.6854110  64.8402010 126.4750040  43.0296560  64.8113780
 132.3134990  39.1736980  59.7227670 132.6805120  38.6995550  60.4689010
 132.1240050  40.0478550  60.0636010 125.1775480  33.9180670  55.8521140
 124.8922400  33.5536340  56.6899760 125.1154340  33.1861130  55.2384280
 130.1034360  38.2145620  62.0411880 129.7991430  39.0937600  62.2662240
 131.0580820  38.2745410  62.0769320 128.6316150  42.4206610  52.6378730
 127.8578410  41.8804230  52.4777450 129.3610780  41.9013220  52.2996490
 139.3904130  41.4171970  58.4305120 140.1103250  41.9127260  58.0401230
 139.1885950  40.7389860  57.7858990 134.8514070  32.8109930  52.5734510
 134.0378680  32.3123100  52.4979820 134.6576020  33.6508180  52.1570860
 134.7722930  41.4881030  64.3174120 134.7060240  40.5676700  64.0631710
 134.1428070  41.5856470  65.0318760 137.5662460  37.1829580  50.8696670
 138.4542080  37.4946810  50.6948010 137.5367550  36.3101830  50.4777250
 128.6753550  42.0886990  56.2757540 129.1932220  41.2855250  56.2214430
 128.2237570  42.0266130  57.1174370 133.5623050  43.3553270  51.5484840
 133.9038750  44.0995500  51.0528160 132.7335760  43.6684390  51.9109670
 126.1598090  39.0548360  63.1883240 125.8013030  39.7202210  63.7756580
 125.8652650  38.2231910  63.5595860 129.3611210  39.5132600  66.0722790
 129.0611350  39.6589780  65.1750610 130.1322450  38.9537890  65.9796180
 134.7039660  44.3101600  64.0677920 134.7184200  43.3782560  63.8496830
 133.9964760  44.3961360  64.7067690 139.8376730  38.4941420  50.3376530
 139.7540450  38.9255640  49.4872970 140.5570920  38.9539770  50.7703350
 140.9150870  40.9508940  63.4146500 140.1899060  41.5437720  63.2175890
 141.4426330  40.9432480  62.6159870 140.8663980  45.3483680  53.0658660
 140.2240140  44.6939300  53.3402380 140.4794640  45.7538770  52.2899330
 136.4450460  42.6769110  56.9130350 136.7974280  42.0797240  56.2531720
 135.5612790  42.3513340  57.0838600 132.5313740  43.4366800  54.3200760
 133.2184870  43.9836010  54.7008350 131.7446160  43.9807530  54.3550370
 124.6706140  39.0539620  49.8117840 125.5400990  39.3364420  50.0953760
 124.1796460  39.8675490  49.6966650 131.8340950  40.4412830  53.9326120
 132.2903730  41.2518080  54.1586310 131.4829160  40.1235970  54.7644610
 134.1373560  45.9519170  61.1618420 134.7815780  46.1578550  61.8391840
 134.5003000  45.1907570  60.7089270 127.7352730  30.7850480  54.4048640
 127.6067360  30.7768380  55.3533560 126.9114750  31.1233570  54.0539650
 135.4105640  43.9551520  59.8795870 136.0527870  43.2544680  59.9928040
 135.9354990  44.7349960  59.6992760 139.2561360  44.2400140  49.6035010
 139.0298940  43.5230580  50.1959650 138.8657560  43.9912580  48.7656760
 137.1843260  44.7546420  63.0831930 137.5199500  45.3413110  63.7609850
 136.2643600  44.6239130  63.3129720 125.0377390  48.2667000  50.3779470
 125.3975030  48.8656340  49.7236740 124.8969730  48.8126890  51.1514500
 124.7346660  32.5441600  63.8655340 124.0205180  32.7438520  64.4707950
 125.1541700  31.7681170  64.2370140 138.8377610  42.1572080  51.2649170
 138.5499310  42.6184770  52.0527050 139.6329780  41.6969850  51.5333390
 131.0546010  45.6498200  51.1953140 131.0456110  46.3827890  50.5797650
 130.1344370  45.4029780  51.2880100 126.6552650  40.8713090  51.9399900
 126.0480600  41.6111990  51.9495200 127.1302000  40.9612450  51.1138100
 136.2285440  35.0363910  61.6156790 136.5966260  34.2159120  61.9436360
 135.3683640  35.0965800  62.0312440 139.5947470  33.9920850  52.4244350
 138.9660630  34.0966520  51.7102580 139.0999390  34.2117630  53.2138230
 134.0405610  45.7126440  49.8578330 134.1417590  45.5090430  48.9280310
 133.1407350  45.4584720  50.0626110 131.5631500  36.2706800  53.8402230
 130.8547650  36.7393140  54.2815840 131.8475980  35.6128810  54.4747420
 133.1887430  37.6903500  61.8394760 133.6872680  38.1649320  62.5046610
 133.3310380  36.7667020  62.0464790 135.5946930  32.9957460  55.2798020
 135.4714710  33.0143590  54.3307530 136.5431490  33.0436400  55.3996420
 132.6823720  48.2312760  54.5526000 132.9365220  48.1934150  53.6305370
 131.7336200  48.1046090  54.5454250 129.7666520  34.5791880  51.2152940
 130.6157050  35.0162030  51.1493130 129.3997790  34.8912140  52.0425000
 140.3954290  33.9071460  62.6823150 139.8927890  34.6476860  63.0216960
 141.2110950  34.2955460  62.3659940 138.6876300  39.1504640  56.1284510
 137.7466440  39.1654870  56.3032200 139.0020370  38.3640600  56.5744810
 128.6657940  40.8324240  49.6888470 129.4321210  40.7205600  50.2513900
 128.7432630  40.1362210  49.0365240 127.3604700  38.2649310  50.3721360
 127.4408290  37.3176820  50.4838760 128.2524450  38.5956190  50.4782020
 140.6901880  46.3213490  57.8038770 140.8149300  47.1444660  58.2762580
 141.5567440  46.1104220  57.4562920 128.1619410  48.4144700  57.4755900
 128.8981890  47.8660160  57.7464470 128.5460330  49.2800710  57.3361890
 125.0464890  44.4818270  53.3497410 124.1204670  44.7239410  53.3402820
 125.5121320  45.3092530  53.2282160 127.1677690  47.5990770  66.6641480
 127.9690420  47.9202820  67.0776880 126.6529510  47.2386350  67.3861390
 131.2721720  47.5875010  49.2981470 132.0650330  47.8763840  48.8463260
 130.7526070  47.1567180  48.6193950 136.0042320  43.7070640  66.6116890
 135.3980480  43.7302240  65.8712640 135.6996430  42.9753680  67.1484140
 137.4342690  47.4350930  65.2226300 138.3864440  47.3508950  65.1726540
 137.2870910  48.0992640  65.8960090 140.3251890  46.8145140  50.7218210
 140.0393400  46.4010280  49.9072390 140.1271440  47.7432850  50.6018730
 124.8875500  40.0864230  65.6077530 125.3914520  39.5071510  66.1793760
 124.1482920  40.3704460  66.1453900 131.7899120  42.8078420  49.1623820
 131.6849760  42.1930770  49.8885200 131.6223340  42.2844310  48.3786830
 131.9413440  41.4935220  65.1413050 131.1759110  42.0620220  65.0567720
 132.1229400  41.2011430  64.2481280 135.0301850  41.8698450  49.7665810
 134.4811950  42.3167750  50.4108550 135.6521110  41.3647700  50.2903480
 139.0836790  43.2240550  65.6988070 139.8246260  43.5616310  65.1955530
 138.3209470  43.3932610  65.1457840 126.9198580  38.2293820  66.5027600
 126.9603920  37.9307690  67.4112830 127.7744080  38.6301430  66.3435120
 130.6976970  40.8289370  51.6631110 131.1193390  40.6629240  52.5062500
 130.8227810  40.0189600  51.1686250 128.8604390  36.8085920  64.4702090
 128.3300850  36.3176870  63.8425430 129.5292460  37.2370120  63.9360020
 133.2104610  39.8526980  48.9108210 133.7310270  39.1376000  48.5449360
 133.8573010  40.4912850  49.2108720 137.7582450  41.2755380  64.2343280
 138.1723470  41.4300460  65.0833700 136.8233450  41.4010600  64.3969060
 138.2304620  38.6151540  66.2382430 138.8125390  37.8603860  66.1502910
 138.4066390  39.1458980  65.4613910 129.3476690  33.7748290  64.5499380
 129.2533560  33.1569040  63.8250250 128.7674080  34.5014580  64.3229290
 132.1138130  32.3321530  61.5826770 131.6655430  32.3545790  60.7372320
 131.4803330  31.9340550  62.1797070 132.5197680  41.2275860  62.2039210
 132.9385790  42.0708590  62.0315450 131.6006310  41.3647900  61.9745990
 134.8561580  38.9592040  63.5877050 134.9757790  38.3633180  64.3271890
 135.7155580  38.9961730  63.1678350 137.1949480  39.5129230  62.1639560
 136.6684700  40.0371850  61.5604700 137.5380820  40.1456620  62.7949290
 129.5935870  36.9022600  48.6089270 129.3924930  36.0389960  48.9702610
 129.4227920  36.8155960  47.6710870 130.3705100  47.5328870  63.3196940
 129.8326190  48.2574930  63.0005640 130.6239060  47.0559210  62.5294280
 131.6230350  35.5013390  64.8452870 132.2130040  35.1929240  65.5330690
 130.8050590  35.0293140  65.0012770 136.4423780  35.1179200  65.0785890
 135.7539300  34.4560740  65.0135880 137.1629800  34.6717470  65.5234350
 137.0724180  31.7130830  51.1376150 137.3526470  30.8698730  51.4935570
 136.2989910  31.9453940  51.6514900 128.3918670  34.0023220  48.5967150
 128.6944570  34.0090650  47.6886300 129.1313260  33.6521080  49.0934810
 133.2267310  48.7680080  63.5783590 133.1526010  49.6715220  63.8855960
 132.3246150  48.4491980  63.5505660 131.6103600  32.9457840  49.5823350
 131.2625600  32.2681830  49.0025800 131.8116370  32.4847350  50.3966740
 133.7752640  47.9338590  51.2009950 134.6703430  48.2723560  51.2228710
 133.8070270  47.2118000  50.5734230 127.4148800  43.3065640  49.4296950
 127.8523670  43.8495310  50.0854530 127.8996530  42.4812590  49.4393290
 124.6294600  46.0954670  56.8817210 124.9597610  45.2275730  56.6495850
 125.0585600  46.3013190  57.7122170 129.2256520  44.4263680  54.5419180
 128.9252060  44.3028650  55.4423090 129.1194010  43.5672270  54.1334910
 140.7546990  46.4642260  63.9076150 140.1548980  46.5234820  63.1640070
 140.8840890  45.5247240  64.0373000 141.9948440  44.2060080  49.2445860
 141.1641400  44.2736730  49.7153090 142.1720270  45.0964200  48.9412720
 141.4504900  40.9507560  51.7480060 142.2123810  41.5204210  51.8539750
 141.4659270  40.3834760  52.5188370 124.9509240  39.4745490  55.9787720
 124.2958080  39.2057130  55.3347420 125.7887190  39.3649970  55.5289700
 142.4564870  41.8057660  56.5921990 142.8273700  41.0224980  56.1857960
 143.0966800  42.4946760  56.4139290 139.4398630  43.1894240  62.0052310
 138.6258470  43.6191400  62.2678100 139.8472830  43.8012650  61.3921360
 141.5024070  41.2441930  48.9052580 141.7772910  42.1520810  48.7771800
 141.3134810  41.1804460  49.8414570 137.8999680  34.2686780  50.2006210
 138.3184560  34.0817760  49.3602870 137.5935740  33.4165830  50.5109140
 141.3989410  39.1810920  53.8982010 141.0233010  38.4138850  53.4663300
 140.6692530  39.5633620  54.3856940 125.9885170  39.8598060  60.5191060
 126.3558210  39.7725460  61.3987080 125.4195990  39.0964610  60.4197920
 140.7889030  38.3282440  63.5321530 140.5575120  38.0995190  62.6319480
 141.0493580  39.2481990  63.4866420 125.5401170  36.7707150  64.4249480
 124.6457220  36.7373910  64.7643190 126.0798720  36.9693940  65.1900730
 139.2277100  33.5538870  66.3101230 140.1047280  33.5622270  66.6935230
 139.2397940  32.8169710  65.6993580 124.1647320  36.6844420  51.9213050
 123.2611400  36.9474620  51.7464710 124.6487940  36.9555590  51.1413010
 140.6740370  37.4068410  57.1989250 141.1977850  36.9131060  56.5679420
 141.2599790  37.5418770  57.9436820 140.8530090  37.4908280  60.7208800
 139.9032800  37.4571820  60.8353790 141.0343100  38.4008390  60.4858570
 126.7074530  35.7409960  49.8307430 127.4166230  35.3193180  49.3454710
 125.9914470  35.8085190  49.1990780 126.3548690  31.7949290  48.8710080
 127.0776820  32.3358230  49.1891300 126.6273210  31.5212710  47.9951620
 140.1640340  36.6641760  53.1381660 140.6599460  36.4312630  53.9230540
 139.9656410  35.8253600  52.7219300 126.0440880  31.0455480  58.7732700
 126.6917070  30.4952860  58.3327860 126.4642720  31.2998630  59.5948510
 141.5927500  35.3002710  55.6719340 141.4826780  35.1458750  56.6101610
 142.3535090  34.7723650  55.4294750 139.9393220  31.2396840  62.1302340
 140.5765440  31.8530980  62.4961530 140.0868110  31.2757500  61.1851570
 142.4817770  33.1310630  48.9125480 143.4067080  32.9991810  48.7043770
 142.4593560  33.2103450  49.8661930 142.5556260  33.9021290  51.5382190
 141.7607760  33.8366410  52.0675100 142.7599540  34.8371930  51.5267540
 139.4974680  47.9412840  55.5320580 140.0933750  47.6197410  54.8555000
 139.7552830  47.4684660  56.3233850 125.7972880  31.2011150  61.5158020
 125.4487700  31.6574970  62.2816200 125.4660580  30.3068280  61.5980450
 127.4037250  44.3730750  65.6811210 127.3606880  44.0023660  66.5625670
 127.5348260  45.3108320  65.8213030 131.1043280  45.9290340  61.2820930
 130.8634640  46.1964900  60.3951450 132.0445920  46.0996070  61.3371790
 133.3097700  32.3923030  65.0377440 133.2486590  32.9844860  65.7872850
 134.2498080  32.2848990  64.8927700 135.9472260  32.0493090  64.6769730
 136.5612670  32.3672380  64.0150810 136.4921820  31.5641680  65.2965590
 142.3647440  47.9484720  62.0831570 141.8705720  48.3453590  61.3658700
 141.7560730  47.3233930  62.4768850 126.4693520  30.7287350  64.7908790
 127.0176510  30.5475400  64.0274900 126.5348830  29.9381460  65.3265100
 127.2425280  47.3193000  62.8008990 126.6485600  47.1877700  63.5399030
 127.2349120  46.4831140  62.3351090 136.6880300  30.6125230  61.0039020
 135.8140140  30.9460340  60.8011950 136.5791050  30.1398410  61.8290890
 137.5952280  32.8196100  62.3880740 137.2665640  32.0047860  62.0082470
 138.5434580  32.7765910  62.2646430 140.0486890  48.5908140  59.3618310
 139.5889860  49.3423950  58.9876330 139.4199350  47.8714610  59.3033110
 126.8737510  44.6851380  61.7517030 126.1471570  44.0656670  61.6842980
 126.9346660  45.0791990  60.8815110 130.4782610  46.8996380  58.5366440
 130.9947630  46.2883740  58.0114700 131.1279990  47.4025160  59.0277450
 133.2178110  47.7904870  59.3635420 133.5055920  47.5359170  58.4868430
 133.7301330  47.2382230  59.9540990 134.4355120  31.5295070  59.9431930
 133.6526910  32.0040570  60.2228690 134.1418050  30.6249900  59.8345110
 138.9876190  32.2318170  57.9881020 139.4284280  32.1763270  57.1402620
 138.7183780  33.1476180  58.0591200 140.8514760  31.8633410  55.9989840
 140.7903160  30.9194630  55.8520860 141.6306790  31.9713500  56.5443300
 125.1567510  48.0025770  54.9613790 124.9889550  47.3696450  55.6595680
 124.2902020  48.2085170  54.6107980 125.7795530  31.8342550  52.4645650
 126.5374890  31.9471430  51.8909680 125.3172700  32.6711750  52.4189080
 132.3209340  33.9481820  55.4547960 131.5083850  33.5738710  55.1143840
 132.8250980  33.1926900  55.7569150 136.8234320  30.6124270  56.6931030
 137.4263690  31.1844480  57.1679550 136.0827310  31.1763710  56.4704930
 139.9668920  31.0145830  51.9671310 140.1619550  31.9129280  52.2338740
 139.1798790  30.7832910  52.4604260 126.7630210  46.6959000  52.4063930
 126.2377830  47.0767030  51.7025890 126.6874790  47.3209770  53.1273640
 128.1520680  32.3606600  51.0047620 128.6813440  31.5736400  50.8755570
 128.7849000  33.0397790  51.2383150 130.3458520  32.0981740  54.0593010
 129.7161260  31.3969050  54.2263140 129.8063660  32.8585870  53.8426170
 133.2850470  48.7120970  66.7303620 134.2117780  48.4765240  66.7739580
 133.2700900  49.5392970  66.2489650 141.5195530  48.2546540  53.7277870
 141.6947720  47.5684280  53.0838790 140.8217100  48.7793590  53.3354540
 130.4714080  31.3765720  66.4945500 130.1898350  31.8799320  65.7306320
 130.8533780  30.5787470  66.1287630 129.3623180  48.6441380  51.2813180
 130.0942000  48.3600660  50.7337070 129.6216850  48.4054660  52.1712560
 128.5237970  44.7606110  51.2859510 127.8946850  45.2291210  51.8345340
 128.6385800  43.9155330  51.7205700 137.0729540  30.7919300  67.0725970
 136.9594990  31.1113910  67.9677490 137.8899280  31.1931810  66.7763250
 139.8528030  47.9390830  66.5544660 140.6453350  47.4440060  66.3470620
 140.1461180  48.6180970  67.1620270 135.9787690  38.8111770  37.4360710
 135.8981740  37.8966380  37.1652420 135.5652110  39.3078840  36.7300420
 134.1105730  40.5890790  39.3169980 133.3347830  40.1091230  39.6068550
 134.7618660  39.9096440  39.1426140 128.1271560  40.9010600  40.1945740
 127.2956440  40.6459310  40.5942250 128.7352540  40.9721370  40.9303660
 138.1313160  44.9950980  38.0969110 137.6694690  44.2238220  38.4256280
 138.9438710  45.0217050  38.6021560 128.1072820  44.9350690  40.3903760
 128.4100860  44.0448430  40.2113980 128.8516410  45.4920910  40.1626010
 126.5363510  35.8612490  33.9788130 125.6480210  36.2028460  33.8768010
 126.8204700  35.6612810  33.0868960 124.4996520  38.4618140  39.8627830
 125.0712630  37.6940340  39.8631470 124.4998060  38.7606900  38.9534440
 134.3576470  47.2808990  37.7173100 133.7387910  47.7366490  37.1467540
 135.2128250  47.4360450  37.3162800 133.5514720  43.2647980  39.3240140
 133.4823000  42.3237920  39.1629270 134.3134580  43.3549390  39.8962710
 125.7421390  33.8702500  41.6496760 125.5624230  32.9728250  41.9299520
 125.3401470  34.4174370  42.3243710 134.5819890  36.0718360  39.5509070
 134.9584710  35.1990240  39.4382740 134.4839400  36.4077060  38.6599510
 128.7124900  34.4443990  35.0126510 128.8191650  35.3447720  35.3195270
 127.8017260  34.3961960  34.7221160 138.3644010  33.5668800  36.4837410
 139.1853630  33.0765370  36.5262890 138.3978090  34.1566460  37.2369250
 126.3608060  36.3663000  40.2579100 127.0418170  36.6301370  40.8766500
 126.0456110  35.5263870  40.5917110 130.5532630  37.4130360  39.3451690
 131.0610850  37.9111330  39.9856710 131.0845870  36.6365560  39.1691050
 142.6543560  35.5835550  43.0481040 141.9495730  35.9717260  42.5296150
 142.9201480  36.2785840  43.6501970 128.8368730  32.0528920  43.6115110
 128.8387170  32.5701310  42.8061010 128.0073040  31.5759100  43.5885040
 135.2239820  42.1648230  35.1105010 134.6057090  42.6297680  34.5467730
 135.7363070  42.8575710  35.5274520 130.0871580  41.6924100  41.7888610
 129.7540960  42.3193020  42.4309680 130.2638260  42.2185980  41.0090280
 138.6005490  35.5069180  39.2564950 137.8961060  35.7954070  39.8368060
 138.9617650  36.3169290  38.8964510 128.5184060  33.7638880  41.6185560
 128.8600870  34.6080930  41.3239430 127.5799870  33.9122620  41.7350900
 129.2990680  43.6604900  43.6037790 129.9164680  44.3355980  43.3222240
 128.4383800  44.0692880  43.5125290 124.5923020  42.8504760  32.4844640
 124.2151000  43.3391860  31.7529540 124.8496090  43.5230040  33.1151170
 140.2168270  45.1244310  41.5192430 139.5331790  45.7943420  41.5109100
 140.7562560  45.3224960  40.7537290 141.6692410  34.9523970  39.6474160
 140.7217320  34.9862950  39.7789590 141.9942400  35.7662920  40.0323520
 132.2011950  31.2521150  37.9430150 132.5086930  30.6968040  37.2265650
 131.2712650  31.3865610  37.7603140 137.7527010  46.9688440  40.2337610
 137.7654170  46.5650730  39.3659870 137.2002230  47.7435730  40.1299040
 139.0472430  43.6904660  35.3227780 138.9368760  42.7478990  35.4477200
 139.0440680  44.0520300  36.2090540 137.1512450  41.8718280  41.5620220
 137.5681240  41.6578390  40.7273680 137.8752270  42.1291070  42.1328840
 134.5892710  39.3169980  34.6790270 133.6621990  39.2507360  34.9078740
 134.7417530  40.2550110  34.5645510 134.5761790  35.5886980  31.6757430
 133.6365460  35.7500940  31.7609890 134.8945050  36.3072660  31.1293420
 141.0974550  40.2705500  41.6536460 140.2693180  40.3398590  41.1786590
 141.6925030  40.8559810  41.1852290 138.6190000  40.8790280  35.1825520
 138.0002420  40.5409830  34.5351820 138.6014450  40.2350040  35.8904710
 138.0616560  37.0574820  42.5991330 137.6487740  37.8828530  42.8531320
 137.3292510  36.4719860  42.4067690 130.1949350  39.8434720  37.4610000
 129.7906350  39.1311970  36.9655900 130.2812470  39.4987960  38.3498040
 130.6631050  43.5302280  39.6249210 130.3659340  42.9247750  38.9456990
 131.6130870  43.5679590  39.5138570 128.9077970  36.6177930  41.2409040
 129.4592560  36.7273270  40.4662290 129.4221480  36.9915530  41.9564270
 138.7516660  47.1034150  43.2872310 138.2747220  47.9106340  43.0944920
 138.0678450  46.4512480  43.4398520 129.7549480  43.2683970  46.2757010
 128.8578010  43.4923940  46.5230410 129.7802350  43.3918910  45.3268410
 136.7954700  40.1177090  32.1898270 137.2347980  39.2799520  32.0436090
 137.5083120  40.7506490  32.2762410 128.5820700  40.1397290  44.8514380
 128.4428470  41.0120090  45.2201780 127.7002060  39.7970100  44.7062320
 134.9050080  45.0573160  36.1579510 135.3445990  45.7997490  35.7434900
 134.8436970  45.2999730  37.0818470 130.3801050  46.0818990  47.0599530
 130.3516480  46.4861940  46.1927960 130.2166020  45.1529350  46.8971130
 140.3771840  31.3719900  30.5039310 140.0644500  31.4646730  31.4038380
 141.1384310  31.9500930  30.4536740 126.8953980  38.7379700  34.9616650
 126.7751580  39.4641790  34.3497920 126.5854870  37.9682610  34.4844560
 142.3315870  46.8646090  48.3563700 142.8075590  47.3428980  49.0352780
 142.9523030  46.7963580  47.6309200 124.5339350  41.9094840  40.7685290
 124.6119770  42.0443610  39.8241010 125.1481030  41.2010730  40.9613410
 125.7786980  43.6095030  37.1791470 125.3715060  43.7509620  36.3245070
 126.6699990  43.3255190  36.9762680 141.7349120  44.0558940  45.5163710
 141.8612180  43.8170820  44.5980890 141.7770500  43.2243480  45.9885790
 135.5965860  47.7586940  44.0858520 136.1110530  47.6694950  44.8880950
 134.7534940  48.1046640  44.3786430 137.5720260  48.0442280  33.5142520
 137.4121400  47.7545220  34.4124350 137.4066970  47.2682410  32.9787750
 130.0508640  47.8240810  35.2914140 129.8751120  46.9076350  35.0781940
 129.1964380  48.1828100  35.5311940 137.2746390  45.5529840  32.0740520
 136.5811550  45.5507130  31.4142800 138.0169250  45.1289160  31.6434690
 136.8396320  47.1792550  36.1489010 137.2953270  46.3981930  36.4627630
 137.1788840  47.8899370  36.6930190 141.5873130  36.1091400  46.4813450
 140.9717400  36.6171070  45.9528910 141.2669550  35.2089730  46.4239390
 124.5898870  42.9509010  43.3079750 124.7529910  42.4814370  42.4899120
 125.0551320  42.4432570  43.9728590 129.3617640  32.0814770  38.3440320
 128.9185790  32.8624310  38.0124840 129.9202630  32.4044660  39.0511260
 133.6487450  34.9483290  43.9475640 133.1866820  35.1566310  44.7595580
 133.2465560  34.1342640  43.6446310 138.6491960  36.1692240  45.0772300
 137.7985550  35.8697990  45.3981370 138.4893750  36.4134250  44.1656120
 135.7441670  37.6693990  47.1771090 136.0695080  36.8357740  46.8373320
 136.5322000  38.1922510  47.3249420 132.4776460  31.7025470  33.2246150
 131.8530640  31.6985340  33.9499460 132.3906580  30.8356430  32.8282120
 131.3993540  32.6262100  40.2029920 131.6965870  33.5324930  40.1221940
 131.9479100  32.1380880  39.5889490 129.1531860  37.2048340  36.0721570
 128.9272780  36.9885510  36.9768190 128.3724390  37.6376800  35.7267540
 136.3829620  37.2111710  34.6712220 135.7838510  37.9347510  34.4875840
 136.9309230  37.1488490  33.8888670 131.5931070  38.1033920  46.7381840
 131.4974670  37.1628650  46.5882240 132.4363050  38.3248990  46.3429910
 134.9894490  35.8475250  36.7015500 135.3824060  36.1647450  35.8884190
 135.3511340  34.9687130  36.8160020 126.7241610  34.5147590  44.8915620
 126.3305000  35.3622800  45.0988400 126.0360010  33.8773960  45.0824260
 133.2986660  34.5982560  47.9612360 132.6084980  34.4054760  48.5958450
 134.0418960  34.8817200  48.4936660 124.0258660  32.4376050  38.9245700
 123.7371710  33.0078910  39.6370680 124.7704420  31.9580500  39.2876930
 124.2128890  36.3796170  30.1348420 124.1303560  37.3226930  30.2763410
 123.8611950  36.2371080  29.2560770 135.5749630  38.4381000  40.7966280
 134.8430750  38.9467810  41.1456380 135.1773970  37.6210980  40.4955060
 132.0127020  35.1135200  39.2018770 132.0163080  34.6725150  38.3523310
 132.9078140  35.4352530  39.3090590 127.8629400  34.9961690  38.1612980
 127.5229450  35.4736920  38.9180030 127.1006720  34.5426810  37.8014080
 132.0747170  36.1147280  32.1925530 132.1959990  36.0733760  33.1411350
 131.6895680  36.9771430  32.0372260 136.0375540  33.8914680  40.2089220
 136.0548280  34.3423330  41.0531070 135.7891120  32.9920320  40.4222660
 131.0868670  38.4248420  31.5908830 130.5185570  37.9766670  30.9644740
 131.7957670  38.7841200  31.0573980 139.4646290  31.3046860  46.0475600
 139.7892060  30.5736520  46.5733580 139.5002800  30.9860500  45.1456590
 126.1637850  42.3260440  45.4675560 125.7792640  41.6854110  46.0658520
 126.4750040  43.0296560  46.0370290 132.3134990  39.1736980  40.9484180
 132.6805120  38.6995550  41.6945520 132.1240050  40.0478550  41.2892520
 125.1775480  33.9180670  37.0777650 124.8922400  33.5536340  37.9156270
 125.1154340  33.1861130  36.4640790 130.1034360  38.2145620  43.2668390
 129.7991430  39.0937600  43.4918750 131.0580820  38.2745410  43.3025830
 128.6316150  42.4206610  33.8635240 127.8578410  41.8804230  33.7033960
 129.3610780  41.9013220  33.5253000 139.3904130  41.4171970  39.6561630
 140.1103250  41.9127260  39.2657740 139.1885950  40.7389860  39.0115500
 134.8514070  32.8109930  33.7991020 134.0378680  32.3123100  33.7236330
 134.6576020  33.6508180  33.3827370 134.7722930  41.4881030  45.5430630
 134.7060240  40.5676700  45.2888220 134.1428070  41.5856470  46.2575270
 137.5662460  37.1829580  32.0953180 138.4542080  37.4946810  31.9204520
 137.5367550  36.3101830  31.7033760 128.6753550  42.0886990  37.5014050
 129.1932220  41.2855250  37.4470940 128.2237570  42.0266130  38.3430880
 133.5623050  43.3553270  32.7741350 133.9038750  44.0995500  32.2784670
 132.7335760  43.6684390  33.1366180 126.1598090  39.0548360  44.4139750
 125.8013030  39.7202210  45.0013090 125.8652650  38.2231910  44.7852370
 129.3611210  39.5132600  47.2979300 129.0611350  39.6589780  46.4007120
 130.1322450  38.9537890  47.2052690 134.7039660  44.3101600  45.2934430
 134.7184200  43.3782560  45.0753340 133.9964760  44.3961360  45.9324200
 139.8376730  38.4941420  31.5633040 139.7540450  38.9255640  30.7129480
 140.5570920  38.9539770  31.9959860 140.9150870  40.9508940  44.6403010
 140.1899060  41.5437720  44.4432400 141.4426330  40.9432480  43.8416380
 140.8663980  45.3483680  34.2915170 140.2240140  44.6939300  34.5658890
 140.4794640  45.7538770  33.5155840 136.4450460  42.6769110  38.1386860
 136.7974280  42.0797240  37.4788230 135.5612790  42.3513340  38.3095110
 132.5313740  43.4366800  35.5457270 133.2184870  43.9836010  35.9264860
 131.7446160  43.9807530  35.5806880 124.6706140  39.0539620  31.0374350
 125.5400990  39.3364420  31.3210270 124.1796460  39.8675490  30.9223160
 131.8340950  40.4412830  35.1582630 132.2903730  41.2518080  35.3842820
 131.4829160  40.1235970  35.9901120 134.1373560  45.9519170  42.3874930
 134.7815780  46.1578550  43.0648350 134.5003000  45.1907570  41.9345780
 127.7352730  30.7850480  35.6305150 127.6067360  30.7768380  36.5790070
 126.9114750  31.1233570  35.2796160 135.4105640  43.9551520  41.1052380
 136.0527870  43.2544680  41.2184550 135.9354990  44.7349960  40.9249270
 139.2561360  44.2400140  30.8291520 139.0298940  43.5230580  31.4216160
 138.8657560  43.9912580  29.9913270 137.1843260  44.7546420  44.3088440
 137.5199500  45.3413110  44.9866360 136.2643600  44.6239130  44.5386230
 125.0377390  48.2667000  31.6035980 125.3975030  48.8656340  30.9493250
 124.8969730  48.8126890  32.3771010 124.7346660  32.5441600  45.0911850
 124.0205180  32.7438520  45.6964460 125.1541700  31.7681170  45.4626650
 138.8377610  42.1572080  32.4905680 138.5499310  42.6184770  33.2783560
 139.6329780  41.6969850  32.7589900 125.0219250  46.5321860  46.0778380
 125.1310370  45.5916600  45.9373770 124.3699810  46.7976610  45.4292110
 133.0131840  44.8037750  47.4776500 132.6928710  44.0846990  48.0222190
 132.3390200  45.4792820  47.5512560 131.0546010  45.6498200  32.4209650
 131.0456110  46.3827890  31.8054160 130.1344370  45.4029780  32.5136610
 126.6552650  40.8713090  33.1656410 126.0480600  41.6111990  33.1751710
 127.1302000  40.9612450  32.3394610 136.2285440  35.0363910  42.8413300
 136.5966260  34.2159120  43.1692870 135.3683640  35.0965800  43.2568950
 139.5947470  33.9920850  33.6500860 138.9660630  34.0966520  32.9359090
 139.0999390  34.2117630  34.4394740 134.0405610  45.7126440  31.0834840
 134.1417590  45.5090430  30.1536820 133.1407350  45.4584720  31.2882620
 131.5631500  36.2706800  35.0658740 130.8547650  36.7393140  35.5072350
 131.8475980  35.6128810  35.7003930 133.1887430  37.6903500  43.0651270
 133.6872680  38.1649320  43.7303120 133.3310380  36.7667020  43.2721300
 135.5946930  32.9957460  36.5054530 135.4714710  33.0143590  35.5564040
 136.5431490  33.0436400  36.6252930 132.6823720  48.2312760  35.7782510
 132.9365220  48.1934150  34.8561880 131.7336200  48.1046090  35.7710760
 129.7666520  34.5791880  32.4409450 130.6157050  35.0162030  32.3749640
 129.3997790  34.8912140  33.2681510 140.3954290  33.9071460  43.9079660
 139.8927890  34.6476860  44.2473470 141.2110950  34.2955460  43.5916450
 138.6876300  39.1504640  37.3541020 137.7466440  39.1654870  37.5288710
 139.0020370  38.3640600  37.8001320 128.6657940  40.8324240  30.9144980
 129.4321210  40.7205600  31.4770410 128.7432630  40.1362210  30.2621750
 127.3604700  38.2649310  31.5977870 127.4408290  37.3176820  31.7095270
 128.2524450  38.5956190  31.7038530 140.6901880  46.3213490  39.0295280
 140.8149300  47.1444660  39.5019090 141.5567440  46.1104220  38.6819430
 128.1619410  48.4144700  38.7012410 128.8981890  47.8660160  38.9720980
 128.5460330  49.2800710  38.5618400 125.0464890  44.4818270  34.5753920
 124.1204670  44.7239410  34.5659330 125.5121320  45.3092530  34.4538670
 127.1677690  47.5990770  47.8897990 127.9690420  47.9202820  48.3033390
 126.6529510  47.2386350  48.6117900 131.2721720  47.5875010  30.5237980
 132.0650330  47.8763840  30.0719770 130.7526070  47.1567180  29.8450460
 136.0042320  43.7070640  47.8373400 135.3980480  43.7302240  47.0969150
 135.6996430  42.9753680  48.3740650 137.4342690  47.4350930  46.4482810
 138.3864440  47.3508950  46.3983050 137.2870910  48.0992640  47.1216600
 140.3251890  46.8145140  31.9474720 140.0393400  46.4010280  31.1328900
 140.1271440  47.7432850  31.8275240 124.8875500  40.0864230  46.8334040
 125.3914520  39.5071510  47.4050270 124.1482920  40.3704460  47.3710410
 131.7899120  42.8078420  30.3880330 131.6849760  42.1930770  31.1141710
 131.6223340  42.2844310  29.6043340 131.9413440  41.4935220  46.3669560
 131.1759110  42.0620220  46.2824230 132.1229400  41.2011430  45.4737790
 135.0301850  41.8698450  30.9922320 134.4811950  42.3167750  31.6365060
 135.6521110  41.3647700  31.5159990 139.0836790  43.2240550  46.9244580
 139.8246260  43.5616310  46.4212040 138.3209470  43.3932610  46.3714350
 126.9198580  38.2293820  47.7284110 126.9603920  37.9307690  48.6369340
 127.7744080  38.6301430  47.5691630 130.6976970  40.8289370  32.8887620
 131.1193390  40.6629240  33.7319010 130.8227810  40.0189600  32.3942760
 128.8604390  36.8085920  45.6958600 128.3300850  36.3176870  45.0681940
 129.5292460  37.2370120  45.1616530 133.2104610  39.8526980  30.1364720
 133.7310270  39.1376000  29.7705870 133.8573010  40.4912850  30.4365230
 137.7582450  41.2755380  45.4599790 138.1723470  41.4300460  46.3090210
 136.8233450  41.4010600  45.6225570 138.2304620  38.6151540  47.4638940
 138.8125390  37.8603860  47.3759420 138.4066390  39.1458980  46.6870420
 129.3476690  33.7748290  45.7755890 129.2533560  33.1569040  45.0506760
 128.7674080  34.5014580  45.5485800 132.1138130  32.3321530  42.8083280
 131.6655430  32.3545790  41.9628830 131.4803330  31.9340550  43.4053580
 132.5197680  41.2275860  43.4295720 132.9385790  42.0708590  43.2571960
 131.6006310  41.3647900  43.2002500 134.8561580  38.9592040  44.8133560
 134.9757790  38.3633180  45.5528400 135.7155580  38.9961730  44.3934860
 137.1949480  39.5129230  43.3896070 136.6684700  40.0371850  42.7861210
 137.5380820  40.1456620  44.0205800 129.5935870  36.9022600  29.8345780
 129.3924930  36.0389960  30.1959120 129.4227920  36.8155960  28.8967380
 130.3705100  47.5328870  44.5453450 129.8326190  48.2574930  44.2262150
 130.6239060  47.0559210  43.7550790 131.6230350  35.5013390  46.0709380
 132.2130040  35.1929240  46.7587200 130.8050590  35.0293140  46.2269280
 136.4423780  35.1179200  46.3042400 135.7539300  34.4560740  46.2392390
 137.1629800  34.6717470  46.7490860 137.0724180  31.7130830  32.3632660
 137.3526470  30.8698730  32.7192080 136.2989910  31.9453940  32.8771410
 128.3918670  34.0023220  29.8223660 128.6944570  34.0090650  28.9142810
 129.1313260  33.6521080  30.3191320 133.2267310  48.7680080  44.8040100
 133.1526010  49.6715220  45.1112470 132.3246150  48.4491980  44.7762170
 131.6103600  32.9457840  30.8079860 131.2625600  32.2681830  30.2282310
 131.8116370  32.4847350  31.6223250 133.7752640  47.9338590  32.4266460
 134.6703430  48.2723560  32.4485220 133.8070270  47.2118000  31.7990740
 127.4148800  43.3065640  30.6553460 127.8523670  43.8495310  31.3111040
 127.8996530  42.4812590  30.6649800 124.6294600  46.0954670  38.1073720
 124.9597610  45.2275730  37.8752360 125.0585600  46.3013190  38.9378680
 129.2256520  44.4263680  35.7675690 128.9252060  44.3028650  36.6679600
 129.1194010  43.5672270  35.3591420 125.1184810  46.9625260  40.8455350
 124.6815800  47.1426060  41.6779500 125.6862490  47.7199880  40.7037070
 140.7546990  46.4642260  45.1332660 140.1548980  46.5234820  44.3896580
 140.8840890  45.5247240  45.2629510 141.9948440  44.2060080  30.4702370
 141.1641400  44.2736730  30.9409600 142.1720270  45.0964200  30.1669230
 141.4504900  40.9507560  32.9736570 142.2123810  41.5204210  33.0796260
 141.4659270  40.3834760  33.7444880 124.9509240  39.4745490  37.2044230
 124.2958080  39.2057130  36.5603930 125.7887190  39.3649970  36.7546210
 142.4564870  41.8057660  37.8178500 142.8273700  41.0224980  37.4114470
 143.0966800  42.4946760  37.6395800 139.4398630  43.1894240  43.2308820
 138.6258470  43.6191400  43.4934610 139.8472830  43.8012650  42.6177870
 141.5024070  41.2441930  30.1309090 141.7772910  42.1520810  30.0028310
 141.3134810  41.1804460  31.0671080 137.8999680  34.2686780  31.4262720
 138.3184560  34.0817760  30.5859380 137.5935740  33.4165830  31.7365650
 141.3989410  39.1810920  35.1238520 141.0233010  38.4138850  34.6919810
 140.6692530  39.5633620  35.6113450 125.9885170  39.8598060  41.7447570
 126.3558210  39.7725460  42.6243590 125.4195990  39.0964610  41.6454430
 140.7889030  38.3282440  44.7578040 140.5575120  38.0995190  43.8575990
 141.0493580  39.2481990  44.7122930 125.5401170  36.7707150  45.6505990
 124.6457220  36.7373910  45.9899700 126.0798720  36.9693940  46.4157240
 139.2277100  33.5538870  47.5357740 140.1047280  33.5622270  47.9191740
 139.2397940  32.8169710  46.9250090 124.1647320  36.6844420  33.1469560
 123.2611400  36.9474620  32.9721220 124.6487940  36.9555590  32.3669520
 140.6740370  37.4068410  38.4245760 141.1977850  36.9131060  37.7935930
 141.2599790  37.5418770  39.1693330 140.8530090  37.4908280  41.9465310
 139.9032800  37.4571820  42.0610300 141.0343100  38.4008390  41.7115080
 126.7074530  35.7409960  31.0563940 127.4166230  35.3193180  30.5711220
 125.9914470  35.8085190  30.4247290 126.3548690  31.7949290  30.0966590
 127.0776820  32.3358230  30.4147810 126.6273210  31.5212710  29.2208130
 140.1640340  36.6641760  34.3638170 140.6599460  36.4312630  35.1487050
 139.9656410  35.8253600  33.9475810 126.0440880  31.0455480  39.9989210
 126.6917070  30.4952860  39.5584370 126.4642720  31.2998630  40.8205020
 141.5927500  35.3002710  36.8975850 141.4826780  35.1458750  37.8358120
 142.3535090  34.7723650  36.6551260 139.9393220  31.2396840  43.3558850
 140.5765440  31.8530980  43.7218040 140.0868110  31.2757500  42.4108080
 142.4817770  33.1310630  30.1381990 143.4067080  32.9991810  29.9300280
 142.4593560  33.2103450  31.0918440 142.5556260  33.9021290  32.7638700
 141.7607760  33.8366410  33.2931610 142.7599540  34.8371930  32.7524050
 139.4974680  47.9412840  36.7577090 140.0933750  47.6197410  36.0811510
 139.7552830  47.4684660  37.5490360 125.7972880  31.2011150  42.7414530
 125.4487700  31.6574970  43.5072710 125.4660580  30.3068280  42.8236960
 127.4037250  44.3730750  46.9067720 127.3606880  44.0023660  47.7882180
 127.5348260  45.3108320  47.0469540 131.1043280  45.9290340  42.5077440
 130.8634640  46.1964900  41.6207960 132.0445920  46.0996070  42.5628300
 133.3097700  32.3923030  46.2633950 133.2486590  32.9844860  47.0129360
 134.2498080  32.2848990  46.1184210 135.9472260  32.0493090  45.9026240
 136.5612670  32.3672380  45.2407320 136.4921820  31.5641680  46.5222100
 142.3647440  47.9484720  43.3088080 141.8705720  48.3453590  42.5915210
 141.7560730  47.3233930  43.7025360 126.4693520  30.7287350  46.0165300
 127.0176510  30.5475400  45.2531410 126.5348830  29.9381460  46.5521610
 127.2425280  47.3193000  44.0265500 126.6485600  47.1877700  44.7655540
 127.2349120  46.4831140  43.5607600 136.6880300  30.6125230  42.2295530
 135.8140140  30.9460340  42.0268460 136.5791050  30.1398410  43.0547400
 137.5952280  32.8196100  43.6137250 137.2665640  32.0047860  43.2338980
 138.5434580  32.7765910  43.4902940 140.0486890  48.5908140  40.5874820
 139.5889860  49.3423950  40.2132840 139.4199350  47.8714610  40.5289620
 126.8737510  44.6851380  42.9773540 126.1471570  44.0656670  42.9099490
 126.9346660  45.0791990  42.1071620 130.4782610  46.8996380  39.7622950
 130.9947630  46.2883740  39.2371210 131.1279990  47.4025160  40.2533960
 133.2178110  47.7904870  40.5891930 133.5055920  47.5359170  39.7124940
 133.7301330  47.2382230  41.1797500 134.4355120  31.5295070  41.1688440
 133.6526910  32.0040570  41.4485200 134.1418050  30.6249900  41.0601620
 138.9876190  32.2318170  39.2137530 139.4284280  32.1763270  38.3659130
 138.7183780  33.1476180  39.2847710 140.8514760  31.8633410  37.2246350
 140.7903160  30.9194630  37.0777370 141.6306790  31.9713500  37.7699810
 125.1567510  48.0025770  36.1870300 124.9889550  47.3696450  36.8852190
 124.2902020  48.2085170  35.8364490 125.7795530  31.8342550  33.6902160
 126.5374890  31.9471430  33.1166190 125.3172700  32.6711750  33.6445590
 132.3209340  33.9481820  36.6804470 131.5083850  33.5738710  36.3400350
 132.8250980  33.1926900  36.9825660 136.8234320  30.6124270  37.9187540
 137.4263690  31.1844480  38.3936060 136.0827310  31.1763710  37.6961440
 139.9668920  31.0145830  33.1927820 140.1619550  31.9129280  33.4595250
 139.1798790  30.7832910  33.6860770 126.7630210  46.6959000  33.6320440
 126.2377830  47.0767030  32.9282400 126.6874790  47.3209770  34.3530150
 128.1520680  32.3606600  32.2304130 128.6813440  31.5736400  32.1012080
 128.7849000  33.0397790  32.4639660 130.3458520  32.0981740  35.2849520
 129.7161260  31.3969050  35.4519650 129.8063660  32.8585870  35.0682680
 133.2850470  48.7120970  47.9560130 134.2117780  48.4765240  47.9996090
 133.2700900  49.5392970  47.4746160 141.5195530  48.2546540  34.9534380
 141.6947720  47.5684280  34.3095300 140.8217100  48.7793590  34.5611050
 130.4714080  31.3765720  47.7202010 130.1898350  31.8799320  46.9562830
 130.8533780  30.5787470  47.3544140 129.3623180  48.6441380  32.5069690
 130.0942000  48.3600660  31.9593580 129.6216850  48.4054660  33.3969070
 128.5237970  44.7606110  32.5116020 127.8946850  45.2291210  33.0601850
 128.6385800  43.9155330  32.9462210 137.0729540  30.7919300  48.2982480
 136.9594990  31.1113910  49.1934000 137.8899280  31.1931810  48.0019760
 139.8528030  47.9390830  47.7801170 140.6453350  47.4440060  47.5727130
 140.1461180  48.6180970  48.3876780 135.9787690  38.8111770  18.6617220
 135.8981740  37.8966380  18.3908930 135.5652110  39.3078840  17.9556930
 134.1105730  40.5890790  20.5426490 133.3347830  40.1091230  20.8325060
 134.7618660  39.9096440  20.3682650 128.1271560  40.9010600  21.4202250
 127.2956440  40.6459310  21.8198760 128.7352540  40.9721370  22.1560170
 138.1313160  44.9950980  19.3225620 137.6694690  44.2238220  19.6512790
 138.9438710  45.0217050  19.8278070 128.1072820  44.9350690  21.6160270
 128.4100860  44.0448430  21.4370490 128.8516410  45.4920910  21.3882520
 126.5363510  35.8612490  15.2044640 125.6480210  36.2028460  15.1024520
 126.8204700  35.6612810  14.3125470 124.4996520  38.4618140  21.0884340
 125.0712630  37.6940340  21.0887980 124.4998060  38.7606900  20.1790950
 134.3576470  47.2808990  18.9429610 133.7387910  47.7366490  18.3724050
 135.2128250  47.4360450  18.5419310 133.5514720  43.2647980  20.5496650
 133.4823000  42.3237920  20.3885780 134.3134580  43.3549390  21.1219220
 125.7421390  33.8702500  22.8753270 125.5624230  32.9728250  23.1556030
 125.3401470  34.4174370  23.5500220 134.5819890  36.0718360  20.7765580
 134.9584710  35.1990240  20.6639250 134.4839400  36.4077060  19.8856020
 128.7124900  34.4443990  16.2383020 128.8191650  35.3447720  16.5451780
 127.8017260  34.3961960  15.9477670 138.3644010  33.5668800  17.7093920
 139.1853630  33.0765370  17.7519400 138.3978090  34.1566460  18.4625760
 126.3608060  36.3663000  21.4835610 127.0418170  36.6301370  22.1023010
 126.0456110  35.5263870  21.8173620 130.5532630  37.4130360  20.5708200
 131.0610850  37.9111330  21.2113220 131.0845870  36.6365560  20.3947560
 142.6543560  35.5835550  24.2737550 141.9495730  35.9717260  23.7552660
 142.9201480  36.2785840  24.8758480 128.8368730  32.0528920  24.8371620
 128.8387170  32.5701310  24.0317520 128.0073040  31.5759100  24.8141550
 135.2239820  42.1648230  16.3361520 134.6057090  42.6297680  15.7724240
 135.7363070  42.8575710  16.7531030 130.0871580  41.6924100  23.0145120
 129.7540960  42.3193020  23.6566190 130.2638260  42.2185980  22.2346790
 138.6005490  35.5069180  20.4821460 137.8961060  35.7954070  21.0624570
 138.9617650  36.3169290  20.1221020 128.5184060  33.7638880  22.8442070
 128.8600870  34.6080930  22.5495940 127.5799870  33.9122620  22.9607410
 129.2990680  43.6604900  24.8294300 129.9164680  44.3355980  24.5478750
 128.4383800  44.0692880  24.7381800 124.5923020  42.8504760  13.7101150
 124.2151000  43.3391860  12.9786050 124.8496090  43.5230040  14.3407680
 140.2168270  45.1244310  22.7448940 139.5331790  45.7943420  22.7365610
 140.7562560  45.3224960  21.9793800 141.6692410  34.9523970  20.8730670
 140.7217320  34.9862950  21.0046100 141.9942400  35.7662920  21.2580030
 132.2011950  31.2521150  19.1686660 132.5086930  30.6968040  18.4522160
 131.2712650  31.3865610  18.9859650 137.7527010  46.9688440  21.4594120
 137.7654170  46.5650730  20.5916380 137.2002230  47.7435730  21.3555550
 139.0472430  43.6904660  16.5484290 138.9368760  42.7478990  16.6733710
 139.0440680  44.0520300  17.4347050 137.1512450  41.8718280  22.7876730
 137.5681240  41.6578390  21.9530190 137.8752270  42.1291070  23.3585350
 134.5892710  39.3169980  15.9046780 133.6621990  39.2507360  16.1335250
 134.7417530  40.2550110  15.7902020 134.5761790  35.5886980  12.9013940
 133.6365460  35.7500940  12.9866400 134.8945050  36.3072660  12.3549930
 141.0974550  40.2705500  22.8792970 140.2693180  40.3398590  22.4043100
 141.6925030  40.8559810  22.4108800 138.6190000  40.8790280  16.4082030
 138.0002420  40.5409830  15.7608330 138.6014450  40.2350040  17.1161220
 138.0616560  37.0574820  23.8247840 137.6487740  37.8828530  24.0787830
 137.3292510  36.4719860  23.6324200 130.1949350  39.8434720  18.6866510
 129.7906350  39.1311970  18.1912410 130.2812470  39.4987960  19.5754550
 130.6631050  43.5302280  20.8505720 130.3659340  42.9247750  20.1713500
 131.6130870  43.5679590  20.7395080 128.9077970  36.6177930  22.4665550
 129.4592560  36.7273270  21.6918800 129.4221480  36.9915530  23.1820780
 138.7516660  47.1034150  24.5128820 138.2747220  47.9106340  24.3201430
 138.0678450  46.4512480  24.6655030 129.7549480  43.2683970  27.5013520
 128.8578010  43.4923940  27.7486920 129.7802350  43.3918910  26.5524920
 136.7954700  40.1177090  13.4154780 137.2347980  39.2799520  13.2692600
 137.5083120  40.7506490  13.5018920 128.5820700  40.1397290  26.0770890
 128.4428470  41.0120090  26.4458290 127.7002060  39.7970100  25.9318830
 134.9050080  45.0573160  17.3836020 135.3445990  45.7997490  16.9691410
 134.8436970  45.2999730  18.3074980 130.3801050  46.0818990  28.2856040
 130.3516480  46.4861940  27.4184470 130.2166020  45.1529350  28.1227640
 140.3771840  31.3719900  11.7295820 140.0644500  31.4646730  12.6294890
 141.1384310  31.9500930  11.6793250 126.8953980  38.7379700  16.1873160
 126.7751580  39.4641790  15.5754430 126.5854870  37.9682610  15.7101070
 142.3315870  46.8646090  29.5820210 142.8075590  47.3428980  30.2609290
 142.9523030  46.7963580  28.8565710 124.5339350  41.9094840  21.9941800
 124.6119770  42.0443610  21.0497520 125.1481030  41.2010730  22.1869920
 125.7786980  43.6095030  18.4047980 125.3715060  43.7509620  17.5501580
 126.6699990  43.3255190  18.2019190 141.7349120  44.0558940  26.7420220
 141.8612180  43.8170820  25.8237400 141.7770500  43.2243480  27.2142300
 135.5965860  47.7586940  25.3115030 136.1110530  47.6694950  26.1137460
 134.7534940  48.1046640  25.6042940 137.5720260  48.0442280  14.7399030
 137.4121400  47.7545220  15.6380860 137.4066970  47.2682410  14.2044260
 130.0508640  47.8240810  16.5170650 129.8751120  46.9076350  16.3038450
 129.1964380  48.1828100  16.7568450 137.2746390  45.5529840  13.2997030
 136.5811550  45.5507130  12.6399310 138.0169250  45.1289160  12.8691200
 136.8396320  47.1792550  17.3745520 137.2953270  46.3981930  17.6884140
 137.1788840  47.8899370  17.9186700 141.5873130  36.1091400  27.7069960
 140.9717400  36.6171070  27.1785420 141.2669550  35.2089730  27.6495900
 124.5898870  42.9509010  24.5336260 124.7529910  42.4814370  23.7155630
 125.0551320  42.4432570  25.1985100 129.3617640  32.0814770  19.5696830
 128.9185790  32.8624310  19.2381350 129.9202630  32.4044660  20.2767770
 133.6487450  34.9483290  25.1732150 133.1866820  35.1566310  25.9852090
 133.2465560  34.1342640  24.8702820 138.6491960  36.1692240  26.3028810
 137.7985550  35.8697990  26.6237880 138.4893750  36.4134250  25.3912630
 135.7441670  37.6693990  28.4027600 136.0695080  36.8357740  28.0629830
 136.5322000  38.1922510  28.5505930 132.4776460  31.7025470  14.4502660
 131.8530640  31.6985340  15.1755970 132.3906580  30.8356430  14.0538630
 131.3993540  32.6262100  21.4286430 131.6965870  33.5324930  21.3478450
 131.9479100  32.1380880  20.8146000 129.1531860  37.2048340  17.2978080
 128.9272780  36.9885510  18.2024700 128.3724390  37.6376800  16.9524050
 136.3829620  37.2111710  15.8968730 135.7838510  37.9347510  15.7132350
 136.9309230  37.1488490  15.1145180 131.5931070  38.1033920  27.9638350
 131.4974670  37.1628650  27.8138750 132.4363050  38.3248990  27.5686420
 134.9894490  35.8475250  17.9272010 135.3824060  36.1647450  17.1140700
 135.3511340  34.9687130  18.0416530 126.7241610  34.5147590  26.1172130
 126.3305000  35.3622800  26.3244910 126.0360010  33.8773960  26.3080770
 133.2986660  34.5982560  29.1868870 132.6084980  34.4054760  29.8214960
 134.0418960  34.8817200  29.7193170 124.0258660  32.4376050  20.1502210
 123.7371710  33.0078910  20.8627190 124.7704420  31.9580500  20.5133440
 124.2128890  36.3796170  11.3604930 124.1303560  37.3226930  11.5019920
 123.8611950  36.2371080  10.4817280 135.5749630  38.4381000  22.0222790
 134.8430750  38.9467810  22.3712890 135.1773970  37.6210980  21.7211570
 132.0127020  35.1135200  20.4275280 132.0163080  34.6725150  19.5779820
 132.9078140  35.4352530  20.5347100 127.8629400  34.9961690  19.3869490
 127.5229450  35.4736920  20.1436540 127.1006720  34.5426810  19.0270590
 132.0747170  36.1147280  13.4182040 132.1959990  36.0733760  14.3667860
 131.6895680  36.9771430  13.2628770 136.0375540  33.8914680  21.4345730
 136.0548280  34.3423330  22.2787580 135.7891120  32.9920320  21.6479170
 131.0868670  38.4248420  12.8165340 130.5185570  37.9766670  12.1901250
 131.7957670  38.7841200  12.2830490 139.4646290  31.3046860  27.2732110
 139.7892060  30.5736520  27.7990090 139.5002800  30.9860500  26.3713100
 126.1637850  42.3260440  26.6932070 125.7792640  41.6854110  27.2915030
 126.4750040  43.0296560  27.2626800 132.3134990  39.1736980  22.1740690
 132.6805120  38.6995550  22.9202030 132.1240050  40.0478550  22.5149030
 125.1775480  33.9180670  18.3034160 124.8922400  33.5536340  19.1412780
 125.1154340  33.1861130  17.6897300 130.1034360  38.2145620  24.4924900
 129.7991430  39.0937600  24.7175260 131.0580820  38.2745410  24.5282340
 128.6316150  42.4206610  15.0891750 127.8578410  41.8804230  14.9290470
 129.3610780  41.9013220  14.7509510 139.3904130  41.4171970  20.8818140
 140.1103250  41.9127260  20.4914250 139.1885950  40.7389860  20.2372010
 134.8514070  32.8109930  15.0247530 134.0378680  32.3123100  14.9492840
 134.6576020  33.6508180  14.6083880 134.7722930  41.4881030  26.7687140
 134.7060240  40.5676700  26.5144730 134.1428070  41.5856470  27.4831780
 137.5662460  37.1829580  13.3209690 138.4542080  37.4946810  13.1461030
 137.5367550  36.3101830  12.9290270 128.6753550  42.0886990  18.7270560
 129.1932220  41.2855250  18.6727450 128.2237570  42.0266130  19.5687390
 133.5623050  43.3553270  13.9997860 133.9038750  44.0995500  13.5041180
 132.7335760  43.6684390  14.3622690 126.1598090  39.0548360  25.6396260
 125.8013030  39.7202210  26.2269600 125.8652650  38.2231910  26.0108880
 129.3611210  39.5132600  28.5235810 129.0611350  39.6589780  27.6263630
 130.1322450  38.9537890  28.4309200 134.7039660  44.3101600  26.5190940
 134.7184200  43.3782560  26.3009850 133.9964760  44.3961360  27.1580710
 139.8376730  38.4941420  12.7889550 139.7540450  38.9255640  11.9385990
 140.5570920  38.9539770  13.2216370 140.9150870  40.9508940  25.8659520
 140.1899060  41.5437720  25.6688910 141.4426330  40.9432480  25.0672890
 140.8663980  45.3483680  15.5171680 140.2240140  44.6939300  15.7915400
 140.4794640  45.7538770  14.7412350 136.4450460  42.6769110  19.3643370
 136.7974280  42.0797240  18.7044740 135.5612790  42.3513340  19.5351620
 132.5313740  43.4366800  16.7713780 133.2184870  43.9836010  17.1521370
 131.7446160  43.9807530  16.8063390 124.6706140  39.0539620  12.2630860
 125.5400990  39.3364420  12.5466780 124.1796460  39.8675490  12.1479670
 131.8340950  40.4412830  16.3839140 132.2903730  41.2518080  16.6099330
 131.4829160  40.1235970  17.2157630 134.1373560  45.9519170  23.6131440
 134.7815780  46.1578550  24.2904860 134.5003000  45.1907570  23.1602290
 127.7352730  30.7850480  16.8561660 127.6067360  30.7768380  17.8046580
 126.9114750  31.1233570  16.5052670 135.4105640  43.9551520  22.3308890
 136.0527870  43.2544680  22.4441060 135.9354990  44.7349960  22.1505780
 139.2561360  44.2400140  12.0548030 139.0298940  43.5230580  12.6472670
 138.8657560  43.9912580  11.2169780 137.1843260  44.7546420  25.5344950
 137.5199500  45.3413110  26.2122870 136.2643600  44.6239130  25.7642740
 125.0377390  48.2667000  12.8292490 125.3975030  48.8656340  12.1749760
 124.8969730  48.8126890  13.6027520 124.7346660  32.5441600  26.3168360
 124.0205180  32.7438520  26.9220970 125.1541700  31.7681170  26.6883160
 138.8377610  42.1572080  13.7162190 138.5499310  42.6184770  14.5040070
 139.6329780  41.6969850  13.9846410 125.0219250  46.5321860  27.3034890
 125.1310370  45.5916600  27.1630280 124.3699810  46.7976610  26.6548620
 133.0131840  44.8037750  28.7033010 132.6928710  44.0846990  29.2478700
 132.3390200  45.4792820  28.7769070 131.0546010  45.6498200  13.6466160
 131.0456110  46.3827890  13.0310670 130.1344370  45.4029780  13.7393120
 126.6552650  40.8713090  14.3912920 126.0480600  41.6111990  14.4008220
 127.1302000  40.9612450  13.5651120 136.2285440  35.0363910  24.0669810
 136.5966260  34.2159120  24.3949380 135.3683640  35.0965800  24.4825460
 139.5947470  33.9920850  14.8757370 138.9660630  34.0966520  14.1615600
 139.0999390  34.2117630  15.6651250 134.0405610  45.7126440  12.3091350
 134.1417590  45.5090430  11.3793330 133.1407350  45.4584720  12.5139130
 131.5631500  36.2706800  16.2915250 130.8547650  36.7393140  16.7328860
 131.8475980  35.6128810  16.9260440 133.1887430  37.6903500  24.2907780
 133.6872680  38.1649320  24.9559630 133.3310380  36.7667020  24.4977810
 135.5946930  32.9957460  17.7311040 135.4714710  33.0143590  16.7820550
 136.5431490  33.0436400  17.8509440 132.6823720  48.2312760  17.0039020
 132.9365220  48.1934150  16.0818390 131.7336200  48.1046090  16.9967270
 129.7666520  34.5791880  13.6665960 130.6157050  35.0162030  13.6006150
 129.3997790  34.8912140  14.4938020 140.3954290  33.9071460  25.1336170
 139.8927890  34.6476860  25.4729980 141.2110950  34.2955460  24.8172960
 138.6876300  39.1504640  18.5797530 137.7466440  39.1654870  18.7545220
 139.0020370  38.3640600  19.0257830 128.6657940  40.8324240  12.1401490
 129.4321210  40.7205600  12.7026920 128.7432630  40.1362210  11.4878260
 127.3604700  38.2649310  12.8234380 127.4408290  37.3176820  12.9351780
 128.2524450  38.5956190  12.9295040 140.6901880  46.3213490  20.2551790
 140.8149300  47.1444660  20.7275600 141.5567440  46.1104220  19.9075940
 128.1619410  48.4144700  19.9268920 128.8981890  47.8660160  20.1977490
 128.5460330  49.2800710  19.7874910 125.0464890  44.4818270  15.8010430
 124.1204670  44.7239410  15.7915840 125.5121320  45.3092530  15.6795180
 127.1677690  47.5990770  29.1154500 127.9690420  47.9202820  29.5289900
 126.6529510  47.2386350  29.8374410 131.2721720  47.5875010  11.7494490
 132.0650330  47.8763840  11.2976280 130.7526070  47.1567180  11.0706970
 136.0042320  43.7070640  29.0629910 135.3980480  43.7302240  28.3225660
 135.6996430  42.9753680  29.5997160 137.4342690  47.4350930  27.6739320
 138.3864440  47.3508950  27.6239560 137.2870910  48.0992640  28.3473110
 140.3251890  46.8145140  13.1731230 140.0393400  46.4010280  12.3585410
 140.1271440  47.7432850  13.0531750 124.8875500  40.0864230  28.0590550
 125.3914520  39.5071510  28.6306780 124.1482920  40.3704460  28.5966920
 131.7899120  42.8078420  11.6136840 131.6849760  42.1930770  12.3398220
 131.6223340  42.2844310  10.8299850 131.9413440  41.4935220  27.5926070
 131.1759110  42.0620220  27.5080740 132.1229400  41.2011430  26.6994300
 135.0301850  41.8698450  12.2178830 134.4811950  42.3167750  12.8621570
 135.6521110  41.3647700  12.7416500 139.0836790  43.2240550  28.1501090
 139.8246260  43.5616310  27.6468550 138.3209470  43.3932610  27.5970860
 126.9198580  38.2293820  28.9540620 126.9603920  37.9307690  29.8625850
 127.7744080  38.6301430  28.7948140 130.6976970  40.8289370  14.1144130
 131.1193390  40.6629240  14.9575520 130.8227810  40.0189600  13.6199270
 128.8604390  36.8085920  26.9215110 128.3300850  36.3176870  26.2938450
 129.5292460  37.2370120  26.3873040 133.2104610  39.8526980  11.3621230
 133.7310270  39.1376000  10.9962380 133.8573010  40.4912850  11.6621740
 137.7582450  41.2755380  26.6856300 138.1723470  41.4300460  27.5346720
 136.8233450  41.4010600  26.8482080 138.2304620  38.6151540  28.6895450
 138.8125390  37.8603860  28.6015930 138.4066390  39.1458980  27.9126930
 129.3476690  33.7748290  27.0012400 129.2533560  33.1569040  26.2763270
 128.7674080  34.5014580  26.7742310 132.1138130  32.3321530  24.0339790
 131.6655430  32.3545790  23.1885340 131.4803330  31.9340550  24.6310090
 132.5197680  41.2275860  24.6552230 132.9385790  42.0708590  24.4828470
 131.6006310  41.3647900  24.4259010 134.8561580  38.9592040  26.0390070
 134.9757790  38.3633180  26.7784910 135.7155580  38.9961730  25.6191370
 137.1949480  39.5129230  24.6152580 136.6684700  40.0371850  24.0117720
 137.5380820  40.1456620  25.2462310 129.5935870  36.9022600  11.0602290
 129.3924930  36.0389960  11.4215630 129.4227920  36.8155960  10.1223890
 130.3705100  47.5328870  25.7709960 129.8326190  48.2574930  25.4518660
 130.6239060  47.0559210  24.9807300 131.6230350  35.5013390  27.2965890
 132.2130040  35.1929240  27.9843710 130.8050590  35.0293140  27.4525790
 136.4423780  35.1179200  27.5298910 135.7539300  34.4560740  27.4648900
 137.1629800  34.6717470  27.9747370 137.0724180  31.7130830  13.5889170
 137.3526470  30.8698730  13.9448590 136.2989910  31.9453940  14.1027920
 128.3918670  34.0023220  11.0480170 128.6944570  34.0090650  10.1399320
 129.1313260  33.6521080  11.5447830 133.2267310  48.7680080  26.0296610
 133.1526010  49.6715220  26.3368980 132.3246150  48.4491980  26.0018680
 131.6103600  32.9457840  12.0336370 131.2625600  32.2681830  11.4538820
 131.8116370  32.4847350  12.8479760 133.7752640  47.9338590  13.6522970
 134.6703430  48.2723560  13.6741730 133.8070270  47.2118000  13.0247250
 127.4148800  43.3065640  11.8809970 127.8523670  43.8495310  12.5367550
 127.8996530  42.4812590  11.8906310 124.6294600  46.0954670  19.3330230
 124.9597610  45.2275730  19.1008870 125.0585600  46.3013190  20.1635190
 129.2256520  44.4263680  16.9932200 128.9252060  44.3028650  17.8936110
 129.1194010  43.5672270  16.5847930 125.1184810  46.9625260  22.0711860
 124.6815800  47.1426060  22.9036010 125.6862490  47.7199880  21.9293580
 140.7546990  46.4642260  26.3589170 140.1548980  46.5234820  25.6153090
 140.8840890  45.5247240  26.4886020 141.9948440  44.2060080  11.6958880
 141.1641400  44.2736730  12.1666110 142.1720270  45.0964200  11.3925740
 141.4504900  40.9507560  14.1993080 142.2123810  41.5204210  14.3052770
 141.4659270  40.3834760  14.9701390 124.9509240  39.4745490  18.4300740
 124.2958080  39.2057130  17.7860440 125.7887190  39.3649970  17.9802720
 142.4564870  41.8057660  19.0435010 142.8273700  41.0224980  18.6370980
 143.0966800  42.4946760  18.8652310 139.4398630  43.1894240  24.4565330
 138.6258470  43.6191400  24.7191120 139.8472830  43.8012650  23.8434380
 141.5024070  41.2441930  11.3565600 141.7772910  42.1520810  11.2284820
 141.3134810  41.1804460  12.2927590 137.8999680  34.2686780  12.6519230
 138.3184560  34.0817760  11.8115890 137.5935740  33.4165830  12.9622160
 141.3989410  39.1810920  16.3495030 141.0233010  38.4138850  15.9176320
 140.6692530  39.5633620  16.8369960 125.9885170  39.8598060  22.9704080
 126.3558210  39.7725460  23.8500100 125.4195990  39.0964610  22.8710940
 140.7889030  38.3282440  25.9834550 140.5575120  38.0995190  25.0832500
 141.0493580  39.2481990  25.9379440 125.5401170  36.7707150  26.8762500
 124.6457220  36.7373910  27.2156210 126.0798720  36.9693940  27.6413750
 139.2277100  33.5538870  28.7614250 140.1047280  33.5622270  29.1448250
 139.2397940  32.8169710  28.1506600 124.1647320  36.6844420  14.3726070
 123.2611400  36.9474620  14.1977730 124.6487940  36.9555590  13.5926030
 140.6740370  37.4068410  19.6502270 141.1977850  36.9131060  19.0192440
 141.2599790  37.5418770  20.3949840 140.8530090  37.4908280  23.1721820
 139.9032800  37.4571820  23.2866810 141.0343100  38.4008390  22.9371590
 126.7074530  35.7409960  12.2820450 127.4166230  35.3193180  11.7967730
 125.9914470  35.8085190  11.6503800 126.3548690  31.7949290  11.3223100
 127.0776820  32.3358230  11.6404320 126.6273210  31.5212710  10.4464640
 140.1640340  36.6641760  15.5894680 140.6599460  36.4312630  16.3743560
 139.9656410  35.8253600  15.1732320 126.0440880  31.0455480  21.2245720
 126.6917070  30.4952860  20.7840880 126.4642720  31.2998630  22.0461530
 141.5927500  35.3002710  18.1232360 141.4826780  35.1458750  19.0614630
 142.3535090  34.7723650  17.8807770 139.9393220  31.2396840  24.5815360
 140.5765440  31.8530980  24.9474550 140.0868110  31.2757500  23.6364590
 142.4817770  33.1310630  11.3638500 143.4067080  32.9991810  11.1556790
 142.4593560  33.2103450  12.3174950 142.5556260  33.9021290  13.9895210
 141.7607760  33.8366410  14.5188120 142.7599540  34.8371930  13.9780560
 139.4974680  47.9412840  17.9833600 140.0933750  47.6197410  17.3068020
 139.7552830  47.4684660  18.7746870 125.7972880  31.2011150  23.9671040
 125.4487700  31.6574970  24.7329220 125.4660580  30.3068280  24.0493470
 127.4037250  44.3730750  28.1324230 127.3606880  44.0023660  29.0138690
 127.5348260  45.3108320  28.2726050 131.1043280  45.9290340  23.7333950
 130.8634640  46.1964900  22.8464470 132.0445920  46.0996070  23.7884810
 133.3097700  32.3923030  27.4890460 133.2486590  32.9844860  28.2385870
 134.2498080  32.2848990  27.3440720 135.9472260  32.0493090  27.1282750
 136.5612670  32.3672380  26.4663830 136.4921820  31.5641680  27.7478610
 142.3647440  47.9484720  24.5344590 141.8705720  48.3453590  23.8171720
 141.7560730  47.3233930  24.9281870 126.4693520  30.7287350  27.2421810
 127.0176510  30.5475400  26.4787920 126.5348830  29.9381460  27.7778120
 127.2425280  47.3193000  25.2522010 126.6485600  47.1877700  25.9912050
 127.2349120  46.4831140  24.7864110 136.6880300  30.6125230  23.4552040
 135.8140140  30.9460340  23.2524970 136.5791050  30.1398410  24.2803910
 137.5952280  32.8196100  24.8393760 137.2665640  32.0047860  24.4595490
 138.5434580  32.7765910  24.7159450 140.0486890  48.5908140  21.8131330
 139.5889860  49.3423950  21.4389350 139.4199350  47.8714610  21.7546130
 126.8737510  44.6851380  24.2030050 126.1471570  44.0656670  24.1356000
 126.9346660  45.0791990  23.3328130 130.4782610  46.8996380  20.9879460
 130.9947630  46.2883740  20.4627720 131.1279990  47.4025160  21.4790470
 133.2178110  47.7904870  21.8148440 133.5055920  47.5359170  20.9381450
 133.7301330  47.2382230  22.4054010 134.4355120  31.5295070  22.3944950
 133.6526910  32.0040570  22.6741710 134.1418050  30.6249900  22.2858130
 138.9876190  32.2318170  20.4394040 139.4284280  32.1763270  19.5915640
 138.7183780  33.1476180  20.5104220 140.8514760  31.8633410  18.4502860
 140.7903160  30.9194630  18.3033880 141.6306790  31.9713500  18.9956320
 125.1567510  48.0025770  17.4126810 124.9889550  47.3696450  18.1108700
 124.2902020  48.2085170  17.0621000 125.7795530  31.8342550  14.9158670
 126.5374890  31.9471430  14.3422700 125.3172700  32.6711750  14.8702100
 132.3209340  33.9481820  17.9060980 131.5083850  33.5738710  17.5656860
 132.8250980  33.1926900  18.2082170 136.8234320  30.6124270  19.1444050
 137.4263690  31.1844480  19.6192570 136.0827310  31.1763710  18.9217950
 139.9668920  31.0145830  14.4184330 140.1619550  31.9129280  14.6851760
 139.1798790  30.7832910  14.9117280 126.7630210  46.6959000  14.8576950
 126.2377830  47.0767030  14.1538910 126.6874790  47.3209770  15.5786660
 128.1520680  32.3606600  13.4560640 128.6813440  31.5736400  13.3268590
 128.7849000  33.0397790  13.6896170 130.3458520  32.0981740  16.5106030
 129.7161260  31.3969050  16.6776160 129.8063660  32.8585870  16.2939190
 133.2850470  48.7120970  29.1816640 134.2117780  48.4765240  29.2252600
 133.2700900  49.5392970  28.7002670 141.5195530  48.2546540  16.1790890
 141.6947720  47.5684280  15.5351810 140.8217100  48.7793590  15.7867560
 130.4714080  31.3765720  28.9458520 130.1898350  31.8799320  28.1819340
 130.8533780  30.5787470  28.5800650 129.3623180  48.6441380  13.7326200
 130.0942000  48.3600660  13.1850090 129.6216850  48.4054660  14.6225580
 128.5237970  44.7606110  13.7372530 127.8946850  45.2291210  14.2858360
 128.6385800  43.9155330  14.1718720 137.0729540  30.7919300  29.5238990
 136.9594990  31.1113910  30.4190510 137.8899280  31.1931810  29.2276270
 139.8528030  47.9390830  29.0057680 140.6453350  47.4440060  28.7983640
 140.1461180  48.6180970  29.6133290 134.1105730  40.5890790   1.7683000
 133.3347830  40.1091230   2.0581570 134.7618660  39.9096440   1.5939160
 128.1271560  40.9010600   2.6458760 127.2956440  40.6459310   3.0455270
 128.7352540  40.9721370   3.3816680 128.1072820  44.9350690   2.8416780
 128.4100860  44.0448430   2.6627000 128.8516410  45.4920910   2.6139030
 133.5514720  43.2647980   1.7753160 133.4823000  42.3237920   1.6142290
 134.3134580  43.3549390   2.3475730 125.7421390  33.8702500   4.1009780
 125.5624230  32.9728250   4.3812540 125.3401470  34.4174370   4.7756730
 126.3608060  36.3663000   2.7092120 127.0418170  36.6301370   3.3279520
 126.0456110  35.5263870   3.0430130 130.5532630  37.4130360   1.7964710
 131.0610850  37.9111330   2.4369730 131.0845870  36.6365560   1.6204070
 142.6543560  35.5835550   5.4994060 141.9495730  35.9717260   4.9809170
 142.9201480  36.2785840   6.1014990 128.8368730  32.0528920   6.0628130
 128.8387170  32.5701310   5.2574030 128.0073040  31.5759100   6.0398060
 130.0871580  41.6924100   4.2401630 129.7540960  42.3193020   4.8822700
 130.2638260  42.2185980   3.4603300 128.5184060  33.7638880   4.0698580
 128.8600870  34.6080930   3.7752450 127.5799870  33.9122620   4.1863920
 129.2990680  43.6604900   6.0550810 129.9164680  44.3355980   5.7735260
 128.4383800  44.0692880   5.9638310 140.2168270  45.1244310   3.9705450
 139.5331790  45.7943420   3.9622120 140.7562560  45.3224960   3.2050310
 141.6692410  34.9523970   2.0987180 140.7217320  34.9862950   2.2302610
 141.9942400  35.7662920   2.4836540 137.7527010  46.9688440   2.6850630
 137.7654170  46.5650730   1.8172890 137.2002230  47.7435730   2.5812060
 137.1512450  41.8718280   4.0133240 137.5681240  41.6578390   3.1786700
 137.8752270  42.1291070   4.5841860 141.0974550  40.2705500   4.1049480
 140.2693180  40.3398590   3.6299610 141.6925030  40.8559810   3.6365310
 138.0616560  37.0574820   5.0504350 137.6487740  37.8828530   5.3044340
 137.3292510  36.4719860   4.8580710 128.9077970  36.6177930   3.6922060
 129.4592560  36.7273270   2.9175310 129.4221480  36.9915530   4.4077290
 138.7516660  47.1034150   5.7385330 138.2747220  47.9106340   5.5457940
 138.0678450  46.4512480   5.8911540 129.7549480  43.2683970   8.7270030
 128.8578010  43.4923940   8.9743430 129.7802350  43.3918910   7.7781430
 128.5820700  40.1397290   7.3027400 128.4428470  41.0120090   7.6714800
 127.7002060  39.7970100   7.1575340 130.3801050  46.0818990   9.5112550
 130.3516480  46.4861940   8.6440980 130.2166020  45.1529350   9.3484150
 142.3315870  46.8646090  10.8076720 142.8075590  47.3428980  11.4865800
 142.9523030  46.7963580  10.0822220 124.5339350  41.9094840   3.2198310
 124.6119770  42.0443610   2.2754030 125.1481030  41.2010730   3.4126430
 141.7349120  44.0558940   7.9676730 141.8612180  43.8170820   7.0493910
 141.7770500  43.2243480   8.4398810 135.5965860  47.7586940   6.5371540
 136.1110530  47.6694950   7.3393970 134.7534940  48.1046640   6.8299450
 141.5873130  36.1091400   8.9326470 140.9717400  36.6171070   8.4041930
 141.2669550  35.2089730   8.8752410 124.5898870  42.9509010   5.7592770
 124.7529910  42.4814370   4.9412140 125.0551320  42.4432570   6.4241610
 133.6487450  34.9483290   6.3988660 133.1866820  35.1566310   7.2108600
 133.2465560  34.1342640   6.0959330 138.6491960  36.1692240   7.5285320
 137.7985550  35.8697990   7.8494390 138.4893750  36.4134250   6.6169140
 135.7441670  37.6693990   9.6284110 136.0695080  36.8357740   9.2886340
 136.5322000  38.1922510   9.7762440 131.3993540  32.6262100   2.6542940
 131.6965870  33.5324930   2.5734960 131.9479100  32.1380880   2.0402510
 131.5931070  38.1033920   9.1894860 131.4974670  37.1628650   9.0395260
 132.4363050  38.3248990   8.7942930 126.7241610  34.5147590   7.3428640
 126.3305000  35.3622800   7.5501420 126.0360010  33.8773960   7.5337280
 133.2986660  34.5982560  10.4125380 132.6084980  34.4054760  11.0471470
 134.0418960  34.8817200  10.9449680 135.5749630  38.4381000   3.2479300
 134.8430750  38.9467810   3.5969400 135.1773970  37.6210980   2.9468080
 136.0375540  33.8914680   2.6602240 136.0548280  34.3423330   3.5044090
 135.7891120  32.9920320   2.8735680 139.4646290  31.3046860   8.4988620
 139.7892060  30.5736520   9.0246600 139.5002800  30.9860500   7.5969610
 126.1637850  42.3260440   7.9188580 125.7792640  41.6854110   8.5171540
 126.4750040  43.0296560   8.4883310 132.3134990  39.1736980   3.3997200
 132.6805120  38.6995550   4.1458540 132.1240050  40.0478550   3.7405540
 130.1034360  38.2145620   5.7181410 129.7991430  39.0937600   5.9431770
 131.0580820  38.2745410   5.7538850 139.3904130  41.4171970   2.1074650
 140.1103250  41.9127260   1.7170760 139.1885950  40.7389860   1.4628520
 134.7722930  41.4881030   7.9943650 134.7060240  40.5676700   7.7401240
 134.1428070  41.5856470   8.7088290 126.1598090  39.0548360   6.8652770
 125.8013030  39.7202210   7.4526110 125.8652650  38.2231910   7.2365390
 129.3611210  39.5132600   9.7492320 129.0611350  39.6589780   8.8520140
 130.1322450  38.9537890   9.6565710 134.7039660  44.3101600   7.7447450
 134.7184200  43.3782560   7.5266360 133.9964760  44.3961360   8.3837220
 140.9150870  40.9508940   7.0916030 140.1899060  41.5437720   6.8945420
 141.4426330  40.9432480   6.2929400 134.1373560  45.9519170   4.8387950
 134.7815780  46.1578550   5.5161370 134.5003000  45.1907570   4.3858800
 135.4105640  43.9551520   3.5565400 136.0527870  43.2544680   3.6697570
 135.9354990  44.7349960   3.3762290 137.1843260  44.7546420   6.7601460
 137.5199500  45.3413110   7.4379380 136.2643600  44.6239130   6.9899250
 124.7346660  32.5441600   7.5424870 124.0205180  32.7438520   8.1477480
 125.1541700  31.7681170   7.9139670 125.0219250  46.5321860   8.5291400
 125.1310370  45.5916600   8.3886790 124.3699810  46.7976610   7.8805130
 133.0131840  44.8037750   9.9289520 132.6928710  44.0846990  10.4735210
 132.3390200  45.4792820  10.0025580 136.2285440  35.0363910   5.2926320
 136.5966260  34.2159120   5.6205890 135.3683640  35.0965800   5.7081970
 133.1887430  37.6903500   5.5164290 133.6872680  38.1649320   6.1816140
 133.3310380  36.7667020   5.7234320 140.3954290  33.9071460   6.3592680
 139.8927890  34.6476860   6.6986490 141.2110950  34.2955460   6.0429470
 127.1677690  47.5990770  10.3411010 127.9690420  47.9202820  10.7546410
 126.6529510  47.2386350  11.0630920 136.0042320  43.7070640  10.2886420
 135.3980480  43.7302240   9.5482170 135.6996430  42.9753680  10.8253670
 137.4342690  47.4350930   8.8995830 138.3864440  47.3508950   8.8496070
 137.2870910  48.0992640   9.5729620 124.8875500  40.0864230   9.2847060
 125.3914520  39.5071510   9.8563290 124.1482920  40.3704460   9.8223430
 131.9413440  41.4935220   8.8182580 131.1759110  42.0620220   8.7337250
 132.1229400  41.2011430   7.9250810 139.0836790  43.2240550   9.3757600
 139.8246260  43.5616310   8.8725060 138.3209470  43.3932610   8.8227370
 126.9198580  38.2293820  10.1797130 126.9603920  37.9307690  11.0882360
 127.7744080  38.6301430  10.0204650 128.8604390  36.8085920   8.1471620
 128.3300850  36.3176870   7.5194960 129.5292460  37.2370120   7.6129550
 137.7582450  41.2755380   7.9112810 138.1723470  41.4300460   8.7603230
 136.8233450  41.4010600   8.0738590 138.2304620  38.6151540   9.9151960
 138.8125390  37.8603860   9.8272440 138.4066390  39.1458980   9.1383440
 129.3476690  33.7748290   8.2268910 129.2533560  33.1569040   7.5019780
 128.7674080  34.5014580   7.9998820 132.1138130  32.3321530   5.2596300
 131.6655430  32.3545790   4.4141850 131.4803330  31.9340550   5.8566600
 132.5197680  41.2275860   5.8808740 132.9385790  42.0708590   5.7084980
 131.6006310  41.3647900   5.6515520 134.8561580  38.9592040   7.2646580
 134.9757790  38.3633180   8.0041420 135.7155580  38.9961730   6.8447880
 137.1949480  39.5129230   5.8409090 136.6684700  40.0371850   5.2374230
 137.5380820  40.1456620   6.4718820 130.3705100  47.5328870   6.9966470
 129.8326190  48.2574930   6.6775170 130.6239060  47.0559210   6.2063810
 131.6230350  35.5013390   8.5222400 132.2130040  35.1929240   9.2100220
 130.8050590  35.0293140   8.6782300 136.4423780  35.1179200   8.7555420
 135.7539300  34.4560740   8.6905410 137.1629800  34.6717470   9.2003880
 133.2267310  48.7680080   7.2553120 133.1526010  49.6715220   7.5625490
 132.3246150  48.4491980   7.2275190 125.1184810  46.9625260   3.2968370
 124.6815800  47.1426060   4.1292520 125.6862490  47.7199880   3.1550090
 140.7546990  46.4642260   7.5845680 140.1548980  46.5234820   6.8409600
 140.8840890  45.5247240   7.7142530 139.4398630  43.1894240   5.6821840
 138.6258470  43.6191400   5.9447630 139.8472830  43.8012650   5.0690890
 125.9885170  39.8598060   4.1960590 126.3558210  39.7725460   5.0756610
 125.4195990  39.0964610   4.0967450 140.7889030  38.3282440   7.2091060
 140.5575120  38.0995190   6.3089010 141.0493580  39.2481990   7.1635950
 125.5401170  36.7707150   8.1019010 124.6457220  36.7373910   8.4412720
 126.0798720  36.9693940   8.8670260 139.2277100  33.5538870   9.9870760
 140.1047280  33.5622270  10.3704760 139.2397940  32.8169710   9.3763110
 140.8530090  37.4908280   4.3978330 139.9032800  37.4571820   4.5123320
 141.0343100  38.4008390   4.1628100 126.0440880  31.0455480   2.4502230
 126.6917070  30.4952860   2.0097390 126.4642720  31.2998630   3.2718040
 139.9393220  31.2396840   5.8071870 140.5765440  31.8530980   6.1731060
 140.0868110  31.2757500   4.8621100 125.7972880  31.2011150   5.1927550
 125.4487700  31.6574970   5.9585730 125.4660580  30.3068280   5.2749980
 127.4037250  44.3730750   9.3580740 127.3606880  44.0023660  10.2395200
 127.5348260  45.3108320   9.4982560 131.1043280  45.9290340   4.9590460
 130.8634640  46.1964900   4.0720980 132.0445920  46.0996070   5.0141320
 133.3097700  32.3923030   8.7146970 133.2486590  32.9844860   9.4642380
 134.2498080  32.2848990   8.5697230 135.9472260  32.0493090   8.3539260
 136.5612670  32.3672380   7.6920340 136.4921820  31.5641680   8.9735120
 142.3647440  47.9484720   5.7601100 141.8705720  48.3453590   5.0428230
 141.7560730  47.3233930   6.1538380 126.4693520  30.7287350   8.4678320
 127.0176510  30.5475400   7.7044430 126.5348830  29.9381460   9.0034630
 127.2425280  47.3193000   6.4778520 126.6485600  47.1877700   7.2168560
 127.2349120  46.4831140   6.0120620 136.6880300  30.6125230   4.6808550
 135.8140140  30.9460340   4.4781480 136.5791050  30.1398410   5.5060420
 137.5952280  32.8196100   6.0650270 137.2665640  32.0047860   5.6852000
 138.5434580  32.7765910   5.9415960 140.0486890  48.5908140   3.0387840
 139.5889860  49.3423950   2.6645860 139.4199350  47.8714610   2.9802640
 126.8737510  44.6851380   5.4286560 126.1471570  44.0656670   5.3612510
 126.9346660  45.0791990   4.5584640 130.4782610  46.8996380   2.2135970
 130.9947630  46.2883740   1.6884230 131.1279990  47.4025160   2.7046980
 133.2178110  47.7904870   3.0404950 133.5055920  47.5359170   2.1637960
 133.7301330  47.2382230   3.6310520 134.4355120  31.5295070   3.6201460
 133.6526910  32.0040570   3.8998220 134.1418050  30.6249900   3.5114640
 133.2850470  48.7120970  10.4073150 134.2117780  48.4765240  10.4509110
 133.2700900  49.5392970   9.9259180 130.4714080  31.3765720  10.1715030
 130.1898350  31.8799320   9.4075850 130.8533780  30.5787470   9.8057160
 137.0729540  30.7919300  10.7495500 136.9594990  31.1113910  11.6447020
 137.8899280  31.1931810  10.4532780 139.8528030  47.9390830  10.2314190
 140.6453350  47.4440060  10.0240150 140.1461180  48.6180970  10.8389800
 135.9787690  20.0368280 150.0821650 135.8981740  19.1222890 149.8113360
 135.5652110  20.5335350 149.3761360 138.1313160  26.2207490 150.7430050
 137.6694690  25.4494730 151.0717220 138.9438710  26.2473560 151.2482500
 126.5363510  17.0869000 146.6249070 125.6480210  17.4284970 146.5228950
 126.8204700  16.8869320 145.7329900 134.3576470  28.5065500 150.3634040
 133.7387910  28.9623000 149.7928480 135.2128250  28.6616960 149.9623740
 128.7124900  15.6700500 147.6587450 128.8191650  16.5704230 147.9656210
 127.8017260  15.6218470 147.3682100 138.3644010  14.7925310 149.1298350
 139.1853630  14.3021880 149.1723830 138.3978090  15.3822970 149.8830190
 135.2239820  23.3904740 147.7565950 134.6057090  23.8554190 147.1928670
 135.7363070  24.0832220 148.1735460 124.5923020  24.0761270 145.1305580
 124.2151000  24.5648370 144.3990480 124.8496090  24.7486550 145.7612110
 132.2011950  12.4777660 150.5891090 132.5086930  11.9224550 149.8726590
 131.2712650  12.6122120 150.4064080 139.0472430  24.9161170 147.9688720
 138.9368760  23.9735500 148.0938140 139.0440680  25.2776810 148.8551480
 134.5892710  20.5426490 147.3251210 133.6621990  20.4763870 147.5539680
 134.7417530  21.4806620 147.2106450 134.5761790  16.8143490 144.3218370
 133.6365460  16.9757450 144.4070830 134.8945050  17.5329170 143.7754360
 138.6190000  22.1046790 147.8286460 138.0002420  21.7666340 147.1812760
 138.6014450  21.4606550 148.5365650 130.1949350  21.0691230 150.1070940
 129.7906350  20.3568480 149.6116840 130.2812470  20.7244470 150.9958980
 136.7954700  21.3433600 144.8359210 137.2347980  20.5056030 144.6897030
 137.5083120  21.9763000 144.9223350 134.9050080  26.2829670 148.8040450
 135.3445990  27.0254000 148.3895840 134.8436970  26.5256240 149.7279410
 140.3771840  12.5976410 143.1500250 140.0644500  12.6903240 144.0499320
 141.1384310  13.1757440 143.0997680 126.8953980  19.9636210 147.6077590
 126.7751580  20.6898300 146.9958860 126.5854870  19.1939120 147.1305500
 125.7786980  24.8351540 149.8252410 125.3715060  24.9766130 148.9706010
 126.6699990  24.5511700 149.6223620 137.5720260  29.2698790 146.1603460
 137.4121400  28.9801730 147.0585290 137.4066970  28.4938920 145.6248690
 130.0508640  29.0497320 147.9375080 129.8751120  28.1332860 147.7242880
 129.1964380  29.4084610 148.1772880 137.2746390  26.7786350 144.7201460
 136.5811550  26.7763640 144.0603740 138.0169250  26.3545670 144.2895630
 136.8396320  28.4049060 148.7949950 137.2953270  27.6238440 149.1088570
 137.1788840  29.1155880 149.3391130 129.3617640  13.3071280 150.9901260
 128.9185790  14.0880820 150.6585780 129.9202630  13.6301170 151.6972200
 132.4776460  12.9281980 145.8707090 131.8530640  12.9241850 146.5960400
 132.3906580  12.0612940 145.4743060 129.1531860  18.4304850 148.7182510
 128.9272780  18.2142020 149.6229130 128.3724390  18.8633310 148.3728480
 136.3829620  18.4368220 147.3173160 135.7838510  19.1604020 147.1336780
 136.9309230  18.3745000 146.5349610 134.9894490  17.0731760 149.3476440
 135.3824060  17.3903960 148.5345130 135.3511340  16.1943640 149.4620960
 124.2128890  17.6052680 142.7809360 124.1303560  18.5483440 142.9224350
 123.8611950  17.4627590 141.9021710 127.8629400  16.2218200 150.8073920
 127.5229450  16.6993430 151.5640970 127.1006720  15.7683320 150.4475020
 132.0747170  17.3403790 144.8386470 132.1959990  17.2990270 145.7872290
 131.6895680  18.2027940 144.6833200 131.0868670  19.6504930 144.2369770
 130.5185570  19.2023180 143.6105680 131.7957670  20.0097710 143.7034920
 125.1775480  15.1437180 149.7238590 124.8922400  14.7792850 150.5617210
 125.1154340  14.4117640 149.1101730 128.6316150  23.6463120 146.5096180
 127.8578410  23.1060740 146.3494900 129.3610780  23.1269730 146.1713940
 134.8514070  14.0366440 146.4451960 134.0378680  13.5379610 146.3697270
 134.6576020  14.8764690 146.0288310 137.5662460  18.4086090 144.7414120
 138.4542080  18.7203320 144.5665460 137.5367550  17.5358340 144.3494700
 128.6753550  23.3143500 150.1474990 129.1932220  22.5111760 150.0931880
 128.2237570  23.2522640 150.9891820 133.5623050  24.5809780 145.4202290
 133.9038750  25.3252010 144.9245610 132.7335760  24.8940900 145.7827120
 139.8376730  19.7197930 144.2093980 139.7540450  20.1512150 143.3590420
 140.5570920  20.1796280 144.6420800 140.8663980  26.5740190 146.9376110
 140.2240140  25.9195810 147.2119830 140.4794640  26.9795280 146.1616780
 136.4450460  23.9025620 150.7847800 136.7974280  23.3053750 150.1249170
 135.5612790  23.5769850 150.9556050 132.5313740  24.6623310 148.1918210
 133.2184870  25.2092520 148.5725800 131.7446160  25.2064040 148.2267820
 124.6706140  20.2796130 143.6835290 125.5400990  20.5620930 143.9671210
 124.1796460  21.0932000 143.5684100 131.8340950  21.6669340 147.8043570
 132.2903730  22.4774590 148.0303760 131.4829160  21.3492480 148.6362060
 127.7352730  12.0106990 148.2766090 127.6067360  12.0024890 149.2251010
 126.9114750  12.3490080 147.9257100 139.2561360  25.4656650 143.4752460
 139.0298940  24.7487090 144.0677100 138.8657560  25.2169090 142.6374210
 125.0377390  29.4923510 144.2496920 125.3975030  30.0912850 143.5954190
 124.8969730  30.0383400 145.0231950 138.8377610  23.3828590 145.1366620
 138.5499310  23.8441280 145.9244500 139.6329780  22.9226360 145.4050840
 131.0546010  26.8754710 145.0670590 131.0456110  27.6084400 144.4515100
 130.1344370  26.6286290 145.1597550 126.6552650  22.0969600 145.8117350
 126.0480600  22.8368500 145.8212650 127.1302000  22.1868960 144.9855550
 139.5947470  15.2177360 146.2961800 138.9660630  15.3223030 145.5820030
 139.0999390  15.4374140 147.0855680 134.0405610  26.9382950 143.7295780
 134.1417590  26.7346940 142.7997760 133.1407350  26.6841230 143.9343560
 131.5631500  17.4963310 147.7119680 130.8547650  17.9649650 148.1533290
 131.8475980  16.8385320 148.3464870 135.5946930  14.2213970 149.1515470
 135.4714710  14.2400100 148.2024980 136.5431490  14.2692910 149.2713870
 132.6823720  29.4569270 148.4243450 132.9365220  29.4190660 147.5022820
 131.7336200  29.3302600 148.4171700 129.7666520  15.8048390 145.0870390
 130.6157050  16.2418540 145.0210580 129.3997790  16.1168650 145.9142450
 138.6876300  20.3761150 150.0001960 137.7466440  20.3911380 150.1749650
 139.0020370  19.5897110 150.4462260 128.6657940  22.0580750 143.5605920
 129.4321210  21.9462110 144.1231350 128.7432630  21.3618720 142.9082690
 127.3604700  19.4905820 144.2438810 127.4408290  18.5433330 144.3556210
 128.2524450  19.8212700 144.3499470 128.1619410  29.6401210 151.3473350
 128.8981890  29.0916670 151.6181920 128.5460330  30.5057220 151.2079340
 125.0464890  25.7074780 147.2214860 124.1204670  25.9495920 147.2120270
 125.5121320  26.5349040 147.0999610 131.2721720  28.8131520 143.1698920
 132.0650330  29.1020350 142.7180710 130.7526070  28.3823690 142.4911400
 140.3251890  28.0401650 144.5935660 140.0393400  27.6266790 143.7789840
 140.1271440  28.9689360 144.4736180 131.7899120  24.0334930 143.0341270
 131.6849760  23.4187280 143.7602650 131.6223340  23.5100820 142.2504280
 135.0301850  23.0954960 143.6383260 134.4811950  23.5424260 144.2826000
 135.6521110  22.5904210 144.1620930 130.6976970  22.0545880 145.5348560
 131.1193390  21.8885750 146.3779950 130.8227810  21.2446110 145.0403700
 133.2104610  21.0783490 142.7825660 133.7310270  20.3632510 142.4166810
 133.8573010  21.7169360 143.0826170 129.5935870  18.1279110 142.4806720
 129.3924930  17.2646470 142.8420060 129.4227920  18.0412470 141.5428320
 137.0724180  12.9387340 145.0093600 137.3526470  12.0955240 145.3653020
 136.2989910  13.1710450 145.5232350 128.3918670  15.2279730 142.4684600
 128.6944570  15.2347160 141.5603750 129.1313260  14.8777590 142.9652260
 131.6103600  14.1714350 143.4540800 131.2625600  13.4938340 142.8743250
 131.8116370  13.7103860 144.2684190 133.7752640  29.1595100 145.0727400
 134.6703430  29.4980070 145.0946160 133.8070270  28.4374510 144.4451680
 127.4148800  24.5322150 143.3014400 127.8523670  25.0751820 143.9571980
 127.8996530  23.7069100 143.3110740 124.6294600  27.3211180 150.7534660
 124.9597610  26.4532240 150.5213300 125.0585600  27.5269700 151.5839620
 129.2256520  25.6520190 148.4136630 128.9252060  25.5285160 149.3140540
 129.1194010  24.7928780 148.0052360 141.9948440  25.4316590 143.1163310
 141.1641400  25.4993240 143.5870540 142.1720270  26.3220710 142.8130170
 141.4504900  22.1764070 145.6197510 142.2123810  22.7460720 145.7257200
 141.4659270  21.6091270 146.3905820 124.9509240  20.7002000 149.8505170
 124.2958080  20.4313640 149.2064870 125.7887190  20.5906480 149.4007150
 142.4564870  23.0314170 150.4639440 142.8273700  22.2481490 150.0575410
 143.0966800  23.7203270 150.2856740 141.5024070  22.4698440 142.7770030
 141.7772910  23.3777320 142.6489250 141.3134810  22.4060970 143.7132020
 137.8999680  15.4943290 144.0723660 138.3184560  15.3074270 143.2320320
 137.5935740  14.6422340 144.3826590 141.3989410  20.4067430 147.7699460
 141.0233010  19.6395360 147.3380750 140.6692530  20.7890130 148.2574390
 124.1647320  17.9100930 145.7930500 123.2611400  18.1731130 145.6182160
 124.6487940  18.1812100 145.0130460 126.7074530  16.9666470 143.7024880
 127.4166230  16.5449690 143.2172160 125.9914470  17.0341700 143.0708230
 126.3548690  13.0205800 142.7427530 127.0776820  13.5614740 143.0608750
 126.6273210  12.7469220 141.8669070 140.1640340  17.8898270 147.0099110
 140.6599460  17.6569140 147.7947990 139.9656410  17.0510110 146.5936750
 141.5927500  16.5259220 149.5436790 141.4826780  16.3715260 150.4819060
 142.3535090  15.9980160 149.3012200 142.4817770  14.3567140 142.7842930
 143.4067080  14.2248320 142.5761220 142.4593560  14.4359960 143.7379380
 142.5556260  15.1277800 145.4099640 141.7607760  15.0622920 145.9392550
 142.7599540  16.0628440 145.3984990 139.4974680  29.1669350 149.4038030
 140.0933750  28.8453920 148.7272450 139.7552830  28.6941170 150.1951300
 140.8514760  13.0889920 149.8707290 140.7903160  12.1451140 149.7238310
 141.6306790  13.1970010 150.4160750 125.1567510  29.2282280 148.8331240
 124.9889550  28.5952960 149.5313130 124.2902020  29.4341680 148.4825430
 125.7795530  13.0599060 146.3363100 126.5374890  13.1727940 145.7627130
 125.3172700  13.8968260 146.2906530 132.3209340  15.1738330 149.3265410
 131.5083850  14.7995220 148.9861290 132.8250980  14.4183410 149.6286600
 136.8234320  11.8380780 150.5648480 137.4263690  12.4100990 151.0397000
 136.0827310  12.4020220 150.3422380 139.9668920  12.2402340 145.8388760
 140.1619550  13.1385790 146.1056190 139.1798790  12.0089420 146.3321710
 126.7630210  27.9215510 146.2781380 126.2377830  28.3023540 145.5743340
 126.6874790  28.5466280 146.9991090 128.1520680  13.5863110 144.8765070
 128.6813440  12.7992910 144.7473020 128.7849000  14.2654300 145.1100600
 130.3458520  13.3238250 147.9310460 129.7161260  12.6225560 148.0980590
 129.8063660  14.0842380 147.7143620 141.5195530  29.4803050 147.5995320
 141.6947720  28.7940790 146.9556240 140.8217100  30.0050100 147.2071990
 129.3623180  29.8697890 145.1530630 130.0942000  29.5857170 144.6054520
 129.6216850  29.6311170 146.0430010 128.5237970  25.9862620 145.1576960
 127.8946850  26.4547720 145.7062790 128.6385800  25.1411840 145.5923150
 135.9787690  20.0368280 131.3078160 135.8981740  19.1222890 131.0369870
 135.5652110  20.5335350 130.6017870 134.1105730  21.8147300 133.1887430
 133.3347830  21.3347740 133.4786000 134.7618660  21.1352950 133.0143590
 128.1271560  22.1267110 134.0663190 127.2956440  21.8715820 134.4659700
 128.7352540  22.1977880 134.8021110 138.1313160  26.2207490 131.9686560
 137.6694690  25.4494730 132.2973730 138.9438710  26.2473560 132.4739010
 128.1072820  26.1607200 134.2621210 128.4100860  25.2704940 134.0831430
 128.8516410  26.7177420 134.0343460 126.5363510  17.0869000 127.8505580
 125.6480210  17.4284970 127.7485460 126.8204700  16.8869320 126.9586410
 124.4996520  19.6874650 133.7345280 125.0712630  18.9196850 133.7348920
 124.4998060  19.9863410 132.8251890 134.3576470  28.5065500 131.5890550
 133.7387910  28.9623000 131.0184990 135.2128250  28.6616960 131.1880250
 133.5514720  24.4904490 133.1957590 133.4823000  23.5494430 133.0346720
 134.3134580  24.5805900 133.7680160 125.7421390  15.0959010 135.5214210
 125.5624230  14.1984760 135.8016970 125.3401470  15.6430880 136.1961160
 134.5819890  17.2974870 133.4226520 134.9584710  16.4246750 133.3100190
 134.4839400  17.6333570 132.5316960 128.7124900  15.6700500 128.8843960
 128.8191650  16.5704230 129.1912720 127.8017260  15.6218470 128.5938610
 138.3644010  14.7925310 130.3554860 139.1853630  14.3021880 130.3980340
 138.3978090  15.3822970 131.1086700 126.3608060  17.5919510 134.1296550
 127.0418170  17.8557880 134.7483950 126.0456110  16.7520380 134.4634560
 130.5532630  18.6386870 133.2169140 131.0610850  19.1367840 133.8574160
 131.0845870  17.8622070 133.0408500 142.6543560  16.8092060 136.9198490
 141.9495730  17.1973770 136.4013600 142.9201480  17.5042350 137.5219420
 128.8368730  13.2785430 137.4832560 128.8387170  13.7957820 136.6778460
 128.0073040  12.8015610 137.4602490 135.2239820  23.3904740 128.9822460
 134.6057090  23.8554190 128.4185180 135.7363070  24.0832220 129.3991970
 130.0871580  22.9180610 135.6606060 129.7540960  23.5449530 136.3027130
 130.2638260  23.4442490 134.8807730 138.6005490  16.7325690 133.1282400
 137.8961060  17.0210580 133.7085510 138.9617650  17.5425800 132.7681960
 128.5184060  14.9895390 135.4903010 128.8600870  15.8337440 135.1956880
 127.5799870  15.1379130 135.6068350 129.2990680  24.8861410 137.4755240
 129.9164680  25.5612490 137.1939690 128.4383800  25.2949390 137.3842740
 124.5923020  24.0761270 126.3562090 124.2151000  24.5648370 125.6246990
 124.8496090  24.7486550 126.9868620 140.2168270  26.3500820 135.3909880
 139.5331790  27.0199930 135.3826550 140.7562560  26.5481470 134.6254740
 141.6692410  16.1780480 133.5191610 140.7217320  16.2119460 133.6507040
 141.9942400  16.9919430 133.9040970 132.2011950  12.4777660 131.8147600
 132.5086930  11.9224550 131.0983100 131.2712650  12.6122120 131.6320590
 137.7527010  28.1944950 134.1055060 137.7654170  27.7907240 133.2377320
 137.2002230  28.9692240 134.0016490 139.0472430  24.9161170 129.1945230
 138.9368760  23.9735500 129.3194650 139.0440680  25.2776810 130.0807990
 137.1512450  23.0974790 135.4337670 137.5681240  22.8834900 134.5991130
 137.8752270  23.3547580 136.0046290 134.5892710  20.5426490 128.5507720
 133.6621990  20.4763870 128.7796190 134.7417530  21.4806620 128.4362960
 134.5761790  16.8143490 125.5474880 133.6365460  16.9757450 125.6327340
 134.8945050  17.5329170 125.0010870 141.0974550  21.4962010 135.5253910
 140.2693180  21.5655100 135.0504040 141.6925030  22.0816320 135.0569740
 138.6190000  22.1046790 129.0542970 138.0002420  21.7666340 128.4069270
 138.6014450  21.4606550 129.7622160 138.0616560  18.2831330 136.4708780
 137.6487740  19.1085040 136.7248770 137.3292510  17.6976370 136.2785140
 130.1949350  21.0691230 131.3327450 129.7906350  20.3568480 130.8373350
 130.2812470  20.7244470 132.2215490 130.6631050  24.7558790 133.4966660
 130.3659340  24.1504260 132.8174440 131.6130870  24.7936100 133.3856020
 128.9077970  17.8434440 135.1126490 129.4592560  17.9529780 134.3379740
 129.4221480  18.2172040 135.8281720 138.7516660  28.3290660 137.1589760
 138.2747220  29.1362850 136.9662370 138.0678450  27.6768990 137.3115970
 129.7549480  24.4940480 140.1474460 128.8578010  24.7180450 140.3947860
 129.7802350  24.6175420 139.1985860 136.7954700  21.3433600 126.0615720
 137.2347980  20.5056030 125.9153540 137.5083120  21.9763000 126.1479860
 128.5820700  21.3653800 138.7231830 128.4428470  22.2376600 139.0919230
 127.7002060  21.0226610 138.5779770 134.9050080  26.2829670 130.0296960
 135.3445990  27.0254000 129.6152350 134.8436970  26.5256240 130.9535920
 130.3801050  27.3075500 140.9316980 130.3516480  27.7118450 140.0645410
 130.2166020  26.3785860 140.7688580 140.3771840  12.5976410 124.3756760
 140.0644500  12.6903240 125.2755830 141.1384310  13.1757440 124.3254190
 126.8953980  19.9636210 128.8334100 126.7751580  20.6898300 128.2215370
 126.5854870  19.1939120 128.3562010 142.3315870  28.0902600 142.2281150
 142.8075590  28.5685490 142.9070230 142.9523030  28.0220090 141.5026650
 124.5339350  23.1351350 134.6402740 124.6119770  23.2700120 133.6958460
 125.1481030  22.4267240 134.8330860 125.7786980  24.8351540 131.0508920
 125.3715060  24.9766130 130.1962520 126.6699990  24.5511700 130.8480130
 141.7349120  25.2815450 139.3881160 141.8612180  25.0427330 138.4698340
 141.7770500  24.4499990 139.8603240 135.5965860  28.9843450 137.9575970
 136.1110530  28.8951460 138.7598400 134.7534940  29.3303150 138.2503880
 137.5720260  29.2698790 127.3859970 137.4121400  28.9801730 128.2841800
 137.4066970  28.4938920 126.8505200 130.0508640  29.0497320 129.1631590
 129.8751120  28.1332860 128.9499390 129.1964380  29.4084610 129.4029390
 137.2746390  26.7786350 125.9457970 136.5811550  26.7763640 125.2860250
 138.0169250  26.3545670 125.5152140 136.8396320  28.4049060 130.0206460
 137.2953270  27.6238440 130.3345080 137.1788840  29.1155880 130.5647640
 141.5873130  17.3347910 140.3530900 140.9717400  17.8427580 139.8246360
 141.2669550  16.4346240 140.2956840 124.5898870  24.1765520 137.1797200
 124.7529910  23.7070880 136.3616570 125.0551320  23.6689080 137.8446040
 129.3617640  13.3071280 132.2157770 128.9185790  14.0880820 131.8842290
 129.9202630  13.6301170 132.9228710 133.6487450  16.1739800 137.8193090
 133.1866820  16.3822820 138.6313030 133.2465560  15.3599150 137.5163760
 138.6491960  17.3948750 138.9489750 137.7985550  17.0954500 139.2698820
 138.4893750  17.6390760 138.0373570 135.7441670  18.8950500 141.0488540
 136.0695080  18.0614250 140.7090770 136.5322000  19.4179020 141.1966870
 132.4776460  12.9281980 127.0963600 131.8530640  12.9241850 127.8216910
 132.3906580  12.0612940 126.6999570 131.3993540  13.8518610 134.0747370
 131.6965870  14.7581440 133.9939390 131.9479100  13.3637390 133.4606940
 129.1531860  18.4304850 129.9439020 128.9272780  18.2142020 130.8485640
 128.3724390  18.8633310 129.5984990 136.3829620  18.4368220 128.5429670
 135.7838510  19.1604020 128.3593290 136.9309230  18.3745000 127.7606120
 131.5931070  19.3290430 140.6099290 131.4974670  18.3885160 140.4599690
 132.4363050  19.5505500 140.2147360 134.9894490  17.0731760 130.5732950
 135.3824060  17.3903960 129.7601640 135.3511340  16.1943640 130.6877470
 126.7241610  15.7404100 138.7633070 126.3305000  16.5879310 138.9705850
 126.0360010  15.1030470 138.9541710 133.2986660  15.8239070 141.8329810
 132.6084980  15.6311270 142.4675900 134.0418960  16.1073710 142.3654110
 124.0258660  13.6632560 132.7963150 123.7371710  14.2335420 133.5088130
 124.7704420  13.1837010 133.1594380 124.2128890  17.6052680 124.0065870
 124.1303560  18.5483440 124.1480860 123.8611950  17.4627590 123.1278220
 135.5749630  19.6637510 134.6683730 134.8430750  20.1724320 135.0173830
 135.1773970  18.8467490 134.3672510 132.0127020  16.3391710 133.0736220
 132.0163080  15.8981660 132.2240760 132.9078140  16.6609040 133.1808040
 127.8629400  16.2218200 132.0330430 127.5229450  16.6993430 132.7897480
 127.1006720  15.7683320 131.6731530 132.0747170  17.3403790 126.0642980
 132.1959990  17.2990270 127.0128800 131.6895680  18.2027940 125.9089710
 136.0375540  15.1171190 134.0806670 136.0548280  15.5679840 134.9248520
 135.7891120  14.2176830 134.2940110 131.0868670  19.6504930 125.4626280
 130.5185570  19.2023180 124.8362190 131.7957670  20.0097710 124.9291430
 139.4646290  12.5303370 139.9193050 139.7892060  11.7993030 140.4451030
 139.5002800  12.2117010 139.0174040 126.1637850  23.5516950 139.3393010
 125.7792640  22.9110620 139.9375970 126.4750040  24.2553070 139.9087740
 132.3134990  20.3993490 134.8201630 132.6805120  19.9252060 135.5662970
 132.1240050  21.2735060 135.1609970 125.1775480  15.1437180 130.9495100
 124.8922400  14.7792850 131.7873720 125.1154340  14.4117640 130.3358240
 130.1034360  19.4402130 137.1385840 129.7991430  20.3194110 137.3636200
 131.0580820  19.5001920 137.1743280 128.6316150  23.6463120 127.7352690
 127.8578410  23.1060740 127.5751410 129.3610780  23.1269730 127.3970450
 139.3904130  22.6428480 133.5279080 140.1103250  23.1383770 133.1375190
 139.1885950  21.9646370 132.8832950 134.8514070  14.0366440 127.6708470
 134.0378680  13.5379610 127.5953780 134.6576020  14.8764690 127.2544820
 134.7722930  22.7137540 139.4148080 134.7060240  21.7933210 139.1605670
 134.1428070  22.8112980 140.1292720 137.5662460  18.4086090 125.9670630
 138.4542080  18.7203320 125.7921970 137.5367550  17.5358340 125.5751210
 128.6753550  23.3143500 131.3731500 129.1932220  22.5111760 131.3188390
 128.2237570  23.2522640 132.2148330 133.5623050  24.5809780 126.6458800
 133.9038750  25.3252010 126.1502120 132.7335760  24.8940900 127.0083630
 126.1598090  20.2804870 138.2857200 125.8013030  20.9458720 138.8730540
 125.8652650  19.4488420 138.6569820 129.3611210  20.7389110 141.1696750
 129.0611350  20.8846290 140.2724570 130.1322450  20.1794400 141.0770140
 134.7039660  25.5358110 139.1651880 134.7184200  24.6039070 138.9470790
 133.9964760  25.6217870 139.8041650 139.8376730  19.7197930 125.4350490
 139.7540450  20.1512150 124.5846930 140.5570920  20.1796280 125.8677310
 140.9150870  22.1765450 138.5120460 140.1899060  22.7694230 138.3149850
 141.4426330  22.1688990 137.7133830 140.8663980  26.5740190 128.1632620
 140.2240140  25.9195810 128.4376340 140.4794640  26.9795280 127.3873290
 136.4450460  23.9025620 132.0104310 136.7974280  23.3053750 131.3505680
 135.5612790  23.5769850 132.1812560 132.5313740  24.6623310 129.4174720
 133.2184870  25.2092520 129.7982310 131.7446160  25.2064040 129.4524330
 124.6706140  20.2796130 124.9091800 125.5400990  20.5620930 125.1927720
 124.1796460  21.0932000 124.7940610 131.8340950  21.6669340 129.0300080
 132.2903730  22.4774590 129.2560270 131.4829160  21.3492480 129.8618570
 134.1373560  27.1775680 136.2592380 134.7815780  27.3835060 136.9365800
 134.5003000  26.4164080 135.8063230 127.7352730  12.0106990 129.5022600
 127.6067360  12.0024890 130.4507520 126.9114750  12.3490080 129.1513610
 135.4105640  25.1808030 134.9769830 136.0527870  24.4801190 135.0902000
 135.9354990  25.9606470 134.7966720 139.2561360  25.4656650 124.7008970
 139.0298940  24.7487090 125.2933610 138.8657560  25.2169090 123.8630720
 137.1843260  25.9802930 138.1805890 137.5199500  26.5669620 138.8583810
 136.2643600  25.8495640 138.4103680 125.0377390  29.4923510 125.4753430
 125.3975030  30.0912850 124.8210700 124.8969730  30.0383400 126.2488460
 124.7346660  13.7698110 138.9629300 124.0205180  13.9695030 139.5681910
 125.1541700  12.9937680 139.3344100 138.8377610  23.3828590 126.3623130
 138.5499310  23.8441280 127.1501010 139.6329780  22.9226360 126.6307350
 125.0219250  27.7578370 139.9495830 125.1310370  26.8173110 139.8091220
 124.3699810  28.0233120 139.3009560 133.0131840  26.0294260 141.3493950
 132.6928710  25.3103500 141.8939640 132.3390200  26.7049330 141.4230010
 131.0546010  26.8754710 126.2927100 131.0456110  27.6084400 125.6771610
 130.1344370  26.6286290 126.3854060 126.6552650  22.0969600 127.0373860
 126.0480600  22.8368500 127.0469160 127.1302000  22.1868960 126.2112060
 136.2285440  16.2620420 136.7130750 136.5966260  15.4415630 137.0410320
 135.3683640  16.3222310 137.1286400 139.5947470  15.2177360 127.5218310
 138.9660630  15.3223030 126.8076540 139.0999390  15.4374140 128.3112190
 134.0405610  26.9382950 124.9552290 134.1417590  26.7346940 124.0254270
 133.1407350  26.6841230 125.1600070 131.5631500  17.4963310 128.9376190
 130.8547650  17.9649650 129.3789800 131.8475980  16.8385320 129.5721380
 133.1887430  18.9160010 136.9368720 133.6872680  19.3905830 137.6020570
 133.3310380  17.9923530 137.1438750 135.5946930  14.2213970 130.3771980
 135.4714710  14.2400100 129.4281490 136.5431490  14.2692910 130.4970380
 132.6823720  29.4569270 129.6499960 132.9365220  29.4190660 128.7279330
 131.7336200  29.3302600 129.6428210 129.7666520  15.8048390 126.3126900
 130.6157050  16.2418540 126.2467090 129.3997790  16.1168650 127.1398960
 140.3954290  15.1327970 137.7797110 139.8927890  15.8733370 138.1190920
 141.2110950  15.5211970 137.4633900 138.6876300  20.3761150 131.2258470
 137.7466440  20.3911380 131.4006160 139.0020370  19.5897110 131.6718770
 128.6657940  22.0580750 124.7862430 129.4321210  21.9462110 125.3487860
 128.7432630  21.3618720 124.1339200 127.3604700  19.4905820 125.4695320
 127.4408290  18.5433330 125.5812720 128.2524450  19.8212700 125.5755980
 140.6901880  27.5470000 132.9012730 140.8149300  28.3701170 133.3736540
 141.5567440  27.3360730 132.5536880 128.1619410  29.6401210 132.5729860
 128.8981890  29.0916670 132.8438430 128.5460330  30.5057220 132.4335850
 125.0464890  25.7074780 128.4471370 124.1204670  25.9495920 128.4376780
 125.5121320  26.5349040 128.3256120 127.1677690  28.8247280 141.7615440
 127.9690420  29.1459330 142.1750840 126.6529510  28.4642860 142.4835350
 131.2721720  28.8131520 124.3955430 132.0650330  29.1020350 123.9437220
 130.7526070  28.3823690 123.7167910 136.0042320  24.9327150 141.7090850
 135.3980480  24.9558750 140.9686600 135.6996430  24.2010190 142.2458100
 137.4342690  28.6607440 140.3200260 138.3864440  28.5765460 140.2700500
 137.2870910  29.3249150 140.9934050 140.3251890  28.0401650 125.8192170
 140.0393400  27.6266790 125.0046350 140.1271440  28.9689360 125.6992690
 124.8875500  21.3120740 140.7051490 125.3914520  20.7328020 141.2767720
 124.1482920  21.5960970 141.2427860 131.7899120  24.0334930 124.2597780
 131.6849760  23.4187280 124.9859160 131.6223340  23.5100820 123.4760790
 131.9413440  22.7191730 140.2387010 131.1759110  23.2876730 140.1541680
 132.1229400  22.4267940 139.3455240 135.0301850  23.0954960 124.8639770
 134.4811950  23.5424260 125.5082510 135.6521110  22.5904210 125.3877440
 139.0836790  24.4497060 140.7962030 139.8246260  24.7872820 140.2929490
 138.3209470  24.6189120 140.2431800 126.9198580  19.4550330 141.6001560
 126.9603920  19.1564200 142.5086790 127.7744080  19.8557940 141.4409080
 130.6976970  22.0545880 126.7605070 131.1193390  21.8885750 127.6036460
 130.8227810  21.2446110 126.2660210 128.8604390  18.0342430 139.5676050
 128.3300850  17.5433380 138.9399390 129.5292460  18.4626630 139.0333980
 133.2104610  21.0783490 124.0082170 133.7310270  20.3632510 123.6423320
 133.8573010  21.7169360 124.3082680 137.7582450  22.5011890 139.3317240
 138.1723470  22.6556970 140.1807660 136.8233450  22.6267110 139.4943020
 138.2304620  19.8408050 141.3356390 138.8125390  19.0860370 141.2476870
 138.4066390  20.3715490 140.5587870 129.3476690  15.0004800 139.6473340
 129.2533560  14.3825550 138.9224210 128.7674080  15.7271090 139.4203250
 132.1138130  13.5578040 136.6800730 131.6655430  13.5802300 135.8346280
 131.4803330  13.1597060 137.2771030 132.5197680  22.4532370 137.3013170
 132.9385790  23.2965100 137.1289410 131.6006310  22.5904410 137.0719950
 134.8561580  20.1848550 138.6851010 134.9757790  19.5889690 139.4245850
 135.7155580  20.2218240 138.2652310 137.1949480  20.7385740 137.2613520
 136.6684700  21.2628360 136.6578660 137.5380820  21.3713130 137.8923250
 129.5935870  18.1279110 123.7063230 129.3924930  17.2646470 124.0676570
 129.4227920  18.0412470 122.7684830 130.3705100  28.7585380 138.4170900
 129.8326190  29.4831440 138.0979600 130.6239060  28.2815720 137.6268240
 131.6230350  16.7269900 139.9426830 132.2130040  16.4185750 140.6304650
 130.8050590  16.2549650 140.0986730 136.4423780  16.3435710 140.1759850
 135.7539300  15.6817250 140.1109840 137.1629800  15.8973980 140.6208310
 137.0724180  12.9387340 126.2350110 137.3526470  12.0955240 126.5909530
 136.2989910  13.1710450 126.7488860 128.3918670  15.2279730 123.6941110
 128.6944570  15.2347160 122.7860260 129.1313260  14.8777590 124.1908770
 133.2267310  29.9936590 138.6757550 133.1526010  30.8971730 138.9829920
 132.3246150  29.6748490 138.6479620 131.6103600  14.1714350 124.6797310
 131.2625600  13.4938340 124.0999760 131.8116370  13.7103860 125.4940700
 133.7752640  29.1595100 126.2983910 134.6703430  29.4980070 126.3202670
 133.8070270  28.4374510 125.6708190 127.4148800  24.5322150 124.5270910
 127.8523670  25.0751820 125.1828490 127.8996530  23.7069100 124.5367250
 124.6294600  27.3211180 131.9791170 124.9597610  26.4532240 131.7469810
 125.0585600  27.5269700 132.8096130 129.2256520  25.6520190 129.6393140
 128.9252060  25.5285160 130.5397050 129.1194010  24.7928780 129.2308870
 125.1184810  28.1881770 134.7172800 124.6815800  28.3682570 135.5496950
 125.6862490  28.9456390 134.5754520 140.7546990  27.6898770 139.0050110
 140.1548980  27.7491330 138.2614030 140.8840890  26.7503750 139.1346960
 141.9948440  25.4316590 124.3419820 141.1641400  25.4993240 124.8127050
 142.1720270  26.3220710 124.0386680 141.4504900  22.1764070 126.8454020
 142.2123810  22.7460720 126.9513710 141.4659270  21.6091270 127.6162330
 124.9509240  20.7002000 131.0761680 124.2958080  20.4313640 130.4321380
 125.7887190  20.5906480 130.6263660 142.4564870  23.0314170 131.6895950
 142.8273700  22.2481490 131.2831920 143.0966800  23.7203270 131.5113250
 139.4398630  24.4150750 137.1026270 138.6258470  24.8447910 137.3652060
 139.8472830  25.0269160 136.4895320 141.5024070  22.4698440 124.0026540
 141.7772910  23.3777320 123.8745760 141.3134810  22.4060970 124.9388530
 137.8999680  15.4943290 125.2980170 138.3184560  15.3074270 124.4576830
 137.5935740  14.6422340 125.6083100 141.3989410  20.4067430 128.9955970
 141.0233010  19.6395360 128.5637260 140.6692530  20.7890130 129.4830900
 125.9885170  21.0854570 135.6165020 126.3558210  20.9981970 136.4961040
 125.4195990  20.3221120 135.5171880 140.7889030  19.5538950 138.6295490
 140.5575120  19.3251700 137.7293440 141.0493580  20.4738500 138.5840380
 125.5401170  17.9963660 139.5223440 124.6457220  17.9630420 139.8617150
 126.0798720  18.1950450 140.2874690 139.2277100  14.7795380 141.4075190
 140.1047280  14.7878780 141.7909190 139.2397940  14.0426220 140.7967540
 124.1647320  17.9100930 127.0187010 123.2611400  18.1731130 126.8438670
 124.6487940  18.1812100 126.2386970 140.6740370  18.6324920 132.2963210
 141.1977850  18.1387570 131.6653380 141.2599790  18.7675280 133.0410780
 140.8530090  18.7164790 135.8182760 139.9032800  18.6828330 135.9327750
 141.0343100  19.6264900 135.5832530 126.7074530  16.9666470 124.9281390
 127.4166230  16.5449690 124.4428670 125.9914470  17.0341700 124.2964740
 126.3548690  13.0205800 123.9684040 127.0776820  13.5614740 124.2865260
 126.6273210  12.7469220 123.0925580 140.1640340  17.8898270 128.2355620
 140.6599460  17.6569140 129.0204500 139.9656410  17.0510110 127.8193260
 126.0440880  12.2711990 133.8706660 126.6917070  11.7209370 133.4301820
 126.4642720  12.5255140 134.6922470 141.5927500  16.5259220 130.7693300
 141.4826780  16.3715260 131.7075570 142.3535090  15.9980160 130.5268710
 139.9393220  12.4653350 137.2276300 140.5765440  13.0787490 137.5935490
 140.0868110  12.5014010 136.2825530 142.4817770  14.3567140 124.0099440
 143.4067080  14.2248320 123.8017730 142.4593560  14.4359960 124.9635890
 142.5556260  15.1277800 126.6356150 141.7607760  15.0622920 127.1649060
 142.7599540  16.0628440 126.6241500 139.4974680  29.1669350 130.6294540
 140.0933750  28.8453920 129.9528960 139.7552830  28.6941170 131.4207810
 125.7972880  12.4267660 136.6131980 125.4487700  12.8831480 137.3790160
 125.4660580  11.5324790 136.6954410 127.4037250  25.5987260 140.7785170
 127.3606880  25.2280170 141.6599630 127.5348260  26.5364830 140.9186990
 131.1043280  27.1546850 136.3794890 130.8634640  27.4221410 135.4925410
 132.0445920  27.3252580 136.4345750 133.3097700  13.6179540 140.1351400
 133.2486590  14.2101370 140.8846810 134.2498080  13.5105500 139.9901660
 135.9472260  13.2749600 139.7743690 136.5612670  13.5928890 139.1124770
 136.4921820  12.7898190 140.3939550 142.3647440  29.1741230 137.1805530
 141.8705720  29.5710100 136.4632660 141.7560730  28.5490440 137.5742810
 126.4693520  11.9543860 139.8882750 127.0176510  11.7731910 139.1248860
 126.5348830  11.1637970 140.4239060 127.2425280  28.5449510 137.8982950
 126.6485600  28.4134210 138.6372990 127.2349120  27.7087650 137.4325050
 136.6880300  11.8381740 136.1012980 135.8140140  12.1716850 135.8985910
 136.5791050  11.3654920 136.9264850 137.5952280  14.0452610 137.4854700
 137.2665640  13.2304370 137.1056430 138.5434580  14.0022420 137.3620390
 140.0486890  29.8164650 134.4592270 139.5889860  30.5680460 134.0850290
 139.4199350  29.0971120 134.4007070 126.8737510  25.9107890 136.8490990
 126.1471570  25.2913180 136.7816940 126.9346660  26.3048500 135.9789070
 130.4782610  28.1252890 133.6340400 130.9947630  27.5140250 133.1088660
 131.1279990  28.6281670 134.1251410 133.2178110  29.0161380 134.4609380
 133.5055920  28.7615680 133.5842390 133.7301330  28.4638740 135.0514950
 134.4355120  12.7551580 135.0405890 133.6526910  13.2297080 135.3202650
 134.1418050  11.8506410 134.9319070 138.9876190  13.4574680 133.0854980
 139.4284280  13.4019780 132.2376580 138.7183780  14.3732690 133.1565160
 140.8514760  13.0889920 131.0963800 140.7903160  12.1451140 130.9494820
 141.6306790  13.1970010 131.6417260 125.1567510  29.2282280 130.0587750
 124.9889550  28.5952960 130.7569640 124.2902020  29.4341680 129.7081940
 125.7795530  13.0599060 127.5619610 126.5374890  13.1727940 126.9883640
 125.3172700  13.8968260 127.5163040 132.3209340  15.1738330 130.5521920
 131.5083850  14.7995220 130.2117800 132.8250980  14.4183410 130.8543110
 136.8234320  11.8380780 131.7904990 137.4263690  12.4100990 132.2653510
 136.0827310  12.4020220 131.5678890 139.9668920  12.2402340 127.0645270
 140.1619550  13.1385790 127.3312700 139.1798790  12.0089420 127.5578220
 126.7630210  27.9215510 127.5037890 126.2377830  28.3023540 126.7999850
 126.6874790  28.5466280 128.2247600 128.1520680  13.5863110 126.1021580
 128.6813440  12.7992910 125.9729530 128.7849000  14.2654300 126.3357110
 130.3458520  13.3238250 129.1566970 129.7161260  12.6225560 129.3237100
 129.8063660  14.0842380 128.9400130 133.2850470  29.9377480 141.8277580
 134.2117780  29.7021750 141.8713540 133.2700900  30.7649480 141.3463610
 141.5195530  29.4803050 128.8251830 141.6947720  28.7940790 128.1812750
 140.8217100  30.0050100 128.4328500 130.4714080  12.6022230 141.5919460
 130.1898350  13.1055830 140.8280280 130.8533780  11.8043980 141.2261590
 129.3623180  29.8697890 126.3787140 130.0942000  29.5857170 125.8311030
 129.6216850  29.6311170 127.2686520 128.5237970  25.9862620 126.3833470
 127.8946850  26.4547720 126.9319300 128.6385800  25.1411840 126.8179660
 137.0729540  12.0175810 142.1699930 136.9594990  12.3370420 143.0651450
 137.8899280  12.4188320 141.8737210 139.8528030  29.1647340 141.6518620
 140.6453350  28.6696570 141.4444580 140.1461180  29.8437480 142.2594230
 135.9787690  20.0368280 112.5334670 135.8981740  19.1222890 112.2626380
 135.5652110  20.5335350 111.8274380 134.1105730  21.8147300 114.4143940
 133.3347830  21.3347740 114.7042510 134.7618660  21.1352950 114.2400100
 128.1271560  22.1267110 115.2919700 127.2956440  21.8715820 115.6916210
 128.7352540  22.1977880 116.0277620 138.1313160  26.2207490 113.1943070
 137.6694690  25.4494730 113.5230240 138.9438710  26.2473560 113.6995520
 128.1072820  26.1607200 115.4877720 128.4100860  25.2704940 115.3087940
 128.8516410  26.7177420 115.2599970 126.5363510  17.0869000 109.0762090
 125.6480210  17.4284970 108.9741970 126.8204700  16.8869320 108.1842920
 124.4996520  19.6874650 114.9601790 125.0712630  18.9196850 114.9605430
 124.4998060  19.9863410 114.0508400 134.3576470  28.5065500 112.8147060
 133.7387910  28.9623000 112.2441500 135.2128250  28.6616960 112.4136760
 133.5514720  24.4904490 114.4214100 133.4823000  23.5494430 114.2603230
 134.3134580  24.5805900 114.9936670 125.7421390  15.0959010 116.7470720
 125.5624230  14.1984760 117.0273480 125.3401470  15.6430880 117.4217670
 134.5819890  17.2974870 114.6483030 134.9584710  16.4246750 114.5356700
 134.4839400  17.6333570 113.7573470 128.7124900  15.6700500 110.1100470
 128.8191650  16.5704230 110.4169230 127.8017260  15.6218470 109.8195120
 138.3644010  14.7925310 111.5811370 139.1853630  14.3021880 111.6236850
 138.3978090  15.3822970 112.3343210 126.3608060  17.5919510 115.3553060
 127.0418170  17.8557880 115.9740460 126.0456110  16.7520380 115.6891070
 130.5532630  18.6386870 114.4425650 131.0610850  19.1367840 115.0830670
 131.0845870  17.8622070 114.2665010 142.6543560  16.8092060 118.1455000
 141.9495730  17.1973770 117.6270110 142.9201480  17.5042350 118.7475930
 128.8368730  13.2785430 118.7089070 128.8387170  13.7957820 117.9034970
 128.0073040  12.8015610 118.6859000 135.2239820  23.3904740 110.2078970
 134.6057090  23.8554190 109.6441690 135.7363070  24.0832220 110.6248480
 130.0871580  22.9180610 116.8862570 129.7540960  23.5449530 117.5283640
 130.2638260  23.4442490 116.1064240 138.6005490  16.7325690 114.3538910
 137.8961060  17.0210580 114.9342020 138.9617650  17.5425800 113.9938470
 128.5184060  14.9895390 116.7159520 128.8600870  15.8337440 116.4213390
 127.5799870  15.1379130 116.8324860 129.2990680  24.8861410 118.7011750
 129.9164680  25.5612490 118.4196200 128.4383800  25.2949390 118.6099250
 124.5923020  24.0761270 107.5818600 124.2151000  24.5648370 106.8503500
 124.8496090  24.7486550 108.2125130 140.2168270  26.3500820 116.6166390
 139.5331790  27.0199930 116.6083060 140.7562560  26.5481470 115.8511250
 141.6692410  16.1780480 114.7448120 140.7217320  16.2119460 114.8763550
 141.9942400  16.9919430 115.1297480 132.2011950  12.4777660 113.0404110
 132.5086930  11.9224550 112.3239610 131.2712650  12.6122120 112.8577100
 137.7527010  28.1944950 115.3311570 137.7654170  27.7907240 114.4633830
 137.2002230  28.9692240 115.2273000 139.0472430  24.9161170 110.4201740
 138.9368760  23.9735500 110.5451160 139.0440680  25.2776810 111.3064500
 137.1512450  23.0974790 116.6594180 137.5681240  22.8834900 115.8247640
 137.8752270  23.3547580 117.2302800 134.5892710  20.5426490 109.7764230
 133.6621990  20.4763870 110.0052700 134.7417530  21.4806620 109.6619470
 134.5761790  16.8143490 106.7731390 133.6365460  16.9757450 106.8583850
 134.8945050  17.5329170 106.2267380 141.0974550  21.4962010 116.7510420
 140.2693180  21.5655100 116.2760550 141.6925030  22.0816320 116.2826250
 138.6190000  22.1046790 110.2799480 138.0002420  21.7666340 109.6325780
 138.6014450  21.4606550 110.9878670 138.0616560  18.2831330 117.6965290
 137.6487740  19.1085040 117.9505280 137.3292510  17.6976370 117.5041650
 130.1949350  21.0691230 112.5583960 129.7906350  20.3568480 112.0629860
 130.2812470  20.7244470 113.4472000 130.6631050  24.7558790 114.7223170
 130.3659340  24.1504260 114.0430950 131.6130870  24.7936100 114.6112530
 128.9077970  17.8434440 116.3383000 129.4592560  17.9529780 115.5636250
 129.4221480  18.2172040 117.0538230 138.7516660  28.3290660 118.3846270
 138.2747220  29.1362850 118.1918880 138.0678450  27.6768990 118.5372480
 129.7549480  24.4940480 121.3730970 128.8578010  24.7180450 121.6204370
 129.7802350  24.6175420 120.4242370 136.7954700  21.3433600 107.2872230
 137.2347980  20.5056030 107.1410050 137.5083120  21.9763000 107.3736370
 128.5820700  21.3653800 119.9488340 128.4428470  22.2376600 120.3175740
 127.7002060  21.0226610 119.8036280 134.9050080  26.2829670 111.2553470
 135.3445990  27.0254000 110.8408860 134.8436970  26.5256240 112.1792430
 130.3801050  27.3075500 122.1573490 130.3516480  27.7118450 121.2901920
 130.2166020  26.3785860 121.9945090 140.3771840  12.5976410 105.6013270
 140.0644500  12.6903240 106.5012340 141.1384310  13.1757440 105.5510700
 126.8953980  19.9636210 110.0590610 126.7751580  20.6898300 109.4471880
 126.5854870  19.1939120 109.5818520 142.3315870  28.0902600 123.4537660
 142.8075590  28.5685490 124.1326740 142.9523030  28.0220090 122.7283160
 124.5339350  23.1351350 115.8659250 124.6119770  23.2700120 114.9214970
 125.1481030  22.4267240 116.0587370 125.7786980  24.8351540 112.2765430
 125.3715060  24.9766130 111.4219030 126.6699990  24.5511700 112.0736640
 141.7349120  25.2815450 120.6137670 141.8612180  25.0427330 119.6954850
 141.7770500  24.4499990 121.0859750 135.5965860  28.9843450 119.1832480
 136.1110530  28.8951460 119.9854910 134.7534940  29.3303150 119.4760390
 137.5720260  29.2698790 108.6116480 137.4121400  28.9801730 109.5098310
 137.4066970  28.4938920 108.0761710 130.0508640  29.0497320 110.3888100
 129.8751120  28.1332860 110.1755900 129.1964380  29.4084610 110.6285900
 137.2746390  26.7786350 107.1714480 136.5811550  26.7763640 106.5116760
 138.0169250  26.3545670 106.7408650 136.8396320  28.4049060 111.2462970
 137.2953270  27.6238440 111.5601590 137.1788840  29.1155880 111.7904150
 141.5873130  17.3347910 121.5787410 140.9717400  17.8427580 121.0502870
 141.2669550  16.4346240 121.5213350 124.5898870  24.1765520 118.4053710
 124.7529910  23.7070880 117.5873080 125.0551320  23.6689080 119.0702550
 129.3617640  13.3071280 113.4414280 128.9185790  14.0880820 113.1098800
 129.9202630  13.6301170 114.1485220 133.6487450  16.1739800 119.0449600
 133.1866820  16.3822820 119.8569540 133.2465560  15.3599150 118.7420270
 138.6491960  17.3948750 120.1746260 137.7985550  17.0954500 120.4955330
 138.4893750  17.6390760 119.2630080 135.7441670  18.8950500 122.2745050
 136.0695080  18.0614250 121.9347280 136.5322000  19.4179020 122.4223380
 132.4776460  12.9281980 108.3220110 131.8530640  12.9241850 109.0473420
 132.3906580  12.0612940 107.9256080 131.3993540  13.8518610 115.3003880
 131.6965870  14.7581440 115.2195900 131.9479100  13.3637390 114.6863450
 129.1531860  18.4304850 111.1695530 128.9272780  18.2142020 112.0742150
 128.3724390  18.8633310 110.8241500 136.3829620  18.4368220 109.7686180
 135.7838510  19.1604020 109.5849800 136.9309230  18.3745000 108.9862630
 131.5931070  19.3290430 121.8355800 131.4974670  18.3885160 121.6856200
 132.4363050  19.5505500 121.4403870 134.9894490  17.0731760 111.7989460
 135.3824060  17.3903960 110.9858150 135.3511340  16.1943640 111.9133980
 126.7241610  15.7404100 119.9889580 126.3305000  16.5879310 120.1962360
 126.0360010  15.1030470 120.1798220 133.2986660  15.8239070 123.0586320
 132.6084980  15.6311270 123.6932410 134.0418960  16.1073710 123.5910620
 124.0258660  13.6632560 114.0219660 123.7371710  14.2335420 114.7344640
 124.7704420  13.1837010 114.3850890 124.2128890  17.6052680 105.2322380
 124.1303560  18.5483440 105.3737370 123.8611950  17.4627590 104.3534730
 135.5749630  19.6637510 115.8940240 134.8430750  20.1724320 116.2430340
 135.1773970  18.8467490 115.5929020 132.0127020  16.3391710 114.2992730
 132.0163080  15.8981660 113.4497270 132.9078140  16.6609040 114.4064550
 127.8629400  16.2218200 113.2586940 127.5229450  16.6993430 114.0153990
 127.1006720  15.7683320 112.8988040 132.0747170  17.3403790 107.2899490
 132.1959990  17.2990270 108.2385310 131.6895680  18.2027940 107.1346220
 136.0375540  15.1171190 115.3063180 136.0548280  15.5679840 116.1505030
 135.7891120  14.2176830 115.5196620 131.0868670  19.6504930 106.6882790
 130.5185570  19.2023180 106.0618700 131.7957670  20.0097710 106.1547940
 139.4646290  12.5303370 121.1449560 139.7892060  11.7993030 121.6707540
 139.5002800  12.2117010 120.2430550 126.1637850  23.5516950 120.5649520
 125.7792640  22.9110620 121.1632480 126.4750040  24.2553070 121.1344250
 132.3134990  20.3993490 116.0458140 132.6805120  19.9252060 116.7919480
 132.1240050  21.2735060 116.3866480 125.1775480  15.1437180 112.1751610
 124.8922400  14.7792850 113.0130230 125.1154340  14.4117640 111.5614750
 130.1034360  19.4402130 118.3642350 129.7991430  20.3194110 118.5892710
 131.0580820  19.5001920 118.3999790 128.6316150  23.6463120 108.9609200
 127.8578410  23.1060740 108.8007920 129.3610780  23.1269730 108.6226960
 139.3904130  22.6428480 114.7535590 140.1103250  23.1383770 114.3631700
 139.1885950  21.9646370 114.1089460 134.8514070  14.0366440 108.8964980
 134.0378680  13.5379610 108.8210290 134.6576020  14.8764690 108.4801330
 134.7722930  22.7137540 120.6404590 134.7060240  21.7933210 120.3862180
 134.1428070  22.8112980 121.3549230 137.5662460  18.4086090 107.1927140
 138.4542080  18.7203320 107.0178480 137.5367550  17.5358340 106.8007720
 128.6753550  23.3143500 112.5988010 129.1932220  22.5111760 112.5444900
 128.2237570  23.2522640 113.4404840 133.5623050  24.5809780 107.8715310
 133.9038750  25.3252010 107.3758630 132.7335760  24.8940900 108.2340140
 126.1598090  20.2804870 119.5113710 125.8013030  20.9458720 120.0987050
 125.8652650  19.4488420 119.8826330 129.3611210  20.7389110 122.3953260
 129.0611350  20.8846290 121.4981080 130.1322450  20.1794400 122.3026650
 134.7039660  25.5358110 120.3908390 134.7184200  24.6039070 120.1727300
 133.9964760  25.6217870 121.0298160 139.8376730  19.7197930 106.6607000
 139.7540450  20.1512150 105.8103440 140.5570920  20.1796280 107.0933820
 140.9150870  22.1765450 119.7376970 140.1899060  22.7694230 119.5406360
 141.4426330  22.1688990 118.9390340 140.8663980  26.5740190 109.3889130
 140.2240140  25.9195810 109.6632850 140.4794640  26.9795280 108.6129800
 136.4450460  23.9025620 113.2360820 136.7974280  23.3053750 112.5762190
 135.5612790  23.5769850 113.4069070 132.5313740  24.6623310 110.6431230
 133.2184870  25.2092520 111.0238820 131.7446160  25.2064040 110.6780840
 124.6706140  20.2796130 106.1348310 125.5400990  20.5620930 106.4184230
 124.1796460  21.0932000 106.0197120 131.8340950  21.6669340 110.2556590
 132.2903730  22.4774590 110.4816780 131.4829160  21.3492480 111.0875080
 134.1373560  27.1775680 117.4848890 134.7815780  27.3835060 118.1622310
 134.5003000  26.4164080 117.0319740 127.7352730  12.0106990 110.7279110
 127.6067360  12.0024890 111.6764030 126.9114750  12.3490080 110.3770120
 135.4105640  25.1808030 116.2026340 136.0527870  24.4801190 116.3158510
 135.9354990  25.9606470 116.0223230 139.2561360  25.4656650 105.9265480
 139.0298940  24.7487090 106.5190120 138.8657560  25.2169090 105.0887230
 137.1843260  25.9802930 119.4062400 137.5199500  26.5669620 120.0840320
 136.2643600  25.8495640 119.6360190 125.0377390  29.4923510 106.7009940
 125.3975030  30.0912850 106.0467210 124.8969730  30.0383400 107.4744970
 124.7346660  13.7698110 120.1885810 124.0205180  13.9695030 120.7938420
 125.1541700  12.9937680 120.5600610 138.8377610  23.3828590 107.5879640
 138.5499310  23.8441280 108.3757520 139.6329780  22.9226360 107.8563860
 125.0219250  27.7578370 121.1752340 125.1310370  26.8173110 121.0347730
 124.3699810  28.0233120 120.5266070 133.0131840  26.0294260 122.5750460
 132.6928710  25.3103500 123.1196150 132.3390200  26.7049330 122.6486520
 131.0546010  26.8754710 107.5183610 131.0456110  27.6084400 106.9028120
 130.1344370  26.6286290 107.6110570 126.6552650  22.0969600 108.2630370
 126.0480600  22.8368500 108.2725670 127.1302000  22.1868960 107.4368570
 136.2285440  16.2620420 117.9387260 136.5966260  15.4415630 118.2666830
 135.3683640  16.3222310 118.3542910 139.5947470  15.2177360 108.7474820
 138.9660630  15.3223030 108.0333050 139.0999390  15.4374140 109.5368700
 134.0405610  26.9382950 106.1808800 134.1417590  26.7346940 105.2510780
 133.1407350  26.6841230 106.3856580 131.5631500  17.4963310 110.1632700
 130.8547650  17.9649650 110.6046310 131.8475980  16.8385320 110.7977890
 133.1887430  18.9160010 118.1625230 133.6872680  19.3905830 118.8277080
 133.3310380  17.9923530 118.3695260 135.5946930  14.2213970 111.6028490
 135.4714710  14.2400100 110.6538000 136.5431490  14.2692910 111.7226890
 132.6823720  29.4569270 110.8756470 132.9365220  29.4190660 109.9535840
 131.7336200  29.3302600 110.8684720 129.7666520  15.8048390 107.5383410
 130.6157050  16.2418540 107.4723600 129.3997790  16.1168650 108.3655470
 140.3954290  15.1327970 119.0053620 139.8927890  15.8733370 119.3447430
 141.2110950  15.5211970 118.6890410 138.6876300  20.3761150 112.4514980
 137.7466440  20.3911380 112.6262670 139.0020370  19.5897110 112.8975280
 128.6657940  22.0580750 106.0118940 129.4321210  21.9462110 106.5744370
 128.7432630  21.3618720 105.3595710 127.3604700  19.4905820 106.6951830
 127.4408290  18.5433330 106.8069230 128.2524450  19.8212700 106.8012490
 140.6901880  27.5470000 114.1269240 140.8149300  28.3701170 114.5993050
 141.5567440  27.3360730 113.7793390 128.1619410  29.6401210 113.7986370
 128.8981890  29.0916670 114.0694940 128.5460330  30.5057220 113.6592360
 125.0464890  25.7074780 109.6727880 124.1204670  25.9495920 109.6633290
 125.5121320  26.5349040 109.5512630 127.1677690  28.8247280 122.9871950
 127.9690420  29.1459330 123.4007350 126.6529510  28.4642860 123.7091860
 131.2721720  28.8131520 105.6211940 132.0650330  29.1020350 105.1693730
 130.7526070  28.3823690 104.9424420 136.0042320  24.9327150 122.9347360
 135.3980480  24.9558750 122.1943110 135.6996430  24.2010190 123.4714610
 137.4342690  28.6607440 121.5456770 138.3864440  28.5765460 121.4957010
 137.2870910  29.3249150 122.2190560 140.3251890  28.0401650 107.0448680
 140.0393400  27.6266790 106.2302860 140.1271440  28.9689360 106.9249200
 124.8875500  21.3120740 121.9308000 125.3914520  20.7328020 122.5024230
 124.1482920  21.5960970 122.4684370 131.7899120  24.0334930 105.4854290
 131.6849760  23.4187280 106.2115670 131.6223340  23.5100820 104.7017300
 131.9413440  22.7191730 121.4643520 131.1759110  23.2876730 121.3798190
 132.1229400  22.4267940 120.5711750 135.0301850  23.0954960 106.0896280
 134.4811950  23.5424260 106.7339020 135.6521110  22.5904210 106.6133950
 139.0836790  24.4497060 122.0218540 139.8246260  24.7872820 121.5186000
 138.3209470  24.6189120 121.4688310 126.9198580  19.4550330 122.8258070
 126.9603920  19.1564200 123.7343300 127.7744080  19.8557940 122.6665590
 130.6976970  22.0545880 107.9861580 131.1193390  21.8885750 108.8292970
 130.8227810  21.2446110 107.4916720 128.8604390  18.0342430 120.7932560
 128.3300850  17.5433380 120.1655900 129.5292460  18.4626630 120.2590490
 133.2104610  21.0783490 105.2338680 133.7310270  20.3632510 104.8679830
 133.8573010  21.7169360 105.5339190 137.7582450  22.5011890 120.5573750
 138.1723470  22.6556970 121.4064170 136.8233450  22.6267110 120.7199530
 138.2304620  19.8408050 122.5612900 138.8125390  19.0860370 122.4733380
 138.4066390  20.3715490 121.7844380 129.3476690  15.0004800 120.8729850
 129.2533560  14.3825550 120.1480720 128.7674080  15.7271090 120.6459760
 132.1138130  13.5578040 117.9057240 131.6655430  13.5802300 117.0602790
 131.4803330  13.1597060 118.5027540 132.5197680  22.4532370 118.5269680
 132.9385790  23.2965100 118.3545920 131.6006310  22.5904410 118.2976460
 134.8561580  20.1848550 119.9107520 134.9757790  19.5889690 120.6502360
 135.7155580  20.2218240 119.4908820 137.1949480  20.7385740 118.4870030
 136.6684700  21.2628360 117.8835170 137.5380820  21.3713130 119.1179760
 129.5935870  18.1279110 104.9319740 129.3924930  17.2646470 105.2933080
 129.4227920  18.0412470 103.9941340 130.3705100  28.7585380 119.6427410
 129.8326190  29.4831440 119.3236110 130.6239060  28.2815720 118.8524750
 131.6230350  16.7269900 121.1683340 132.2130040  16.4185750 121.8561160
 130.8050590  16.2549650 121.3243240 136.4423780  16.3435710 121.4016360
 135.7539300  15.6817250 121.3366350 137.1629800  15.8973980 121.8464820
 137.0724180  12.9387340 107.4606620 137.3526470  12.0955240 107.8166040
 136.2989910  13.1710450 107.9745370 128.3918670  15.2279730 104.9197620
 128.6944570  15.2347160 104.0116770 129.1313260  14.8777590 105.4165280
 133.2267310  29.9936590 119.9014060 133.1526010  30.8971730 120.2086430
 132.3246150  29.6748490 119.8736130 131.6103600  14.1714350 105.9053820
 131.2625600  13.4938340 105.3256270 131.8116370  13.7103860 106.7197210
 133.7752640  29.1595100 107.5240420 134.6703430  29.4980070 107.5459180
 133.8070270  28.4374510 106.8964700 127.4148800  24.5322150 105.7527420
 127.8523670  25.0751820 106.4085000 127.8996530  23.7069100 105.7623760
 124.6294600  27.3211180 113.2047680 124.9597610  26.4532240 112.9726320
 125.0585600  27.5269700 114.0352640 129.2256520  25.6520190 110.8649650
 128.9252060  25.5285160 111.7653560 129.1194010  24.7928780 110.4565380
 125.1184810  28.1881770 115.9429310 124.6815800  28.3682570 116.7753460
 125.6862490  28.9456390 115.8011030 140.7546990  27.6898770 120.2306620
 140.1548980  27.7491330 119.4870540 140.8840890  26.7503750 120.3603470
 141.9948440  25.4316590 105.5676330 141.1641400  25.4993240 106.0383560
 142.1720270  26.3220710 105.2643190 141.4504900  22.1764070 108.0710530
 142.2123810  22.7460720 108.1770220 141.4659270  21.6091270 108.8418840
 124.9509240  20.7002000 112.3018190 124.2958080  20.4313640 111.6577890
 125.7887190  20.5906480 111.8520170 142.4564870  23.0314170 112.9152460
 142.8273700  22.2481490 112.5088430 143.0966800  23.7203270 112.7369760
 139.4398630  24.4150750 118.3282780 138.6258470  24.8447910 118.5908570
 139.8472830  25.0269160 117.7151830 141.5024070  22.4698440 105.2283050
 141.7772910  23.3777320 105.1002270 141.3134810  22.4060970 106.1645040
 137.8999680  15.4943290 106.5236680 138.3184560  15.3074270 105.6833340
 137.5935740  14.6422340 106.8339610 141.3989410  20.4067430 110.2212480
 141.0233010  19.6395360 109.7893770 140.6692530  20.7890130 110.7087410
 125.9885170  21.0854570 116.8421530 126.3558210  20.9981970 117.7217550
 125.4195990  20.3221120 116.7428390 140.7889030  19.5538950 119.8552000
 140.5575120  19.3251700 118.9549950 141.0493580  20.4738500 119.8096890
 125.5401170  17.9963660 120.7479950 124.6457220  17.9630420 121.0873660
 126.0798720  18.1950450 121.5131200 139.2277100  14.7795380 122.6331700
 140.1047280  14.7878780 123.0165700 139.2397940  14.0426220 122.0224050
 124.1647320  17.9100930 108.2443520 123.2611400  18.1731130 108.0695180
 124.6487940  18.1812100 107.4643480 140.6740370  18.6324920 113.5219720
 141.1977850  18.1387570 112.8909890 141.2599790  18.7675280 114.2667290
 140.8530090  18.7164790 117.0439270 139.9032800  18.6828330 117.1584260
 141.0343100  19.6264900 116.8089040 126.7074530  16.9666470 106.1537900
 127.4166230  16.5449690 105.6685180 125.9914470  17.0341700 105.5221250
 126.3548690  13.0205800 105.1940550 127.0776820  13.5614740 105.5121770
 126.6273210  12.7469220 104.3182090 140.1640340  17.8898270 109.4612130
 140.6599460  17.6569140 110.2461010 139.9656410  17.0510110 109.0449770
 126.0440880  12.2711990 115.0963170 126.6917070  11.7209370 114.6558330
 126.4642720  12.5255140 115.9178980 141.5927500  16.5259220 111.9949810
 141.4826780  16.3715260 112.9332080 142.3535090  15.9980160 111.7525220
 139.9393220  12.4653350 118.4532810 140.5765440  13.0787490 118.8192000
 140.0868110  12.5014010 117.5082040 142.4817770  14.3567140 105.2355950
 143.4067080  14.2248320 105.0274240 142.4593560  14.4359960 106.1892400
 142.5556260  15.1277800 107.8612660 141.7607760  15.0622920 108.3905570
 142.7599540  16.0628440 107.8498010 139.4974680  29.1669350 111.8551050
 140.0933750  28.8453920 111.1785470 139.7552830  28.6941170 112.6464320
 125.7972880  12.4267660 117.8388490 125.4487700  12.8831480 118.6046670
 125.4660580  11.5324790 117.9210920 127.4037250  25.5987260 122.0041680
 127.3606880  25.2280170 122.8856140 127.5348260  26.5364830 122.1443500
 131.1043280  27.1546850 117.6051400 130.8634640  27.4221410 116.7181920
 132.0445920  27.3252580 117.6602260 133.3097700  13.6179540 121.3607910
 133.2486590  14.2101370 122.1103320 134.2498080  13.5105500 121.2158170
 135.9472260  13.2749600 121.0000200 136.5612670  13.5928890 120.3381280
 136.4921820  12.7898190 121.6196060 142.3647440  29.1741230 118.4062040
 141.8705720  29.5710100 117.6889170 141.7560730  28.5490440 118.7999320
 126.4693520  11.9543860 121.1139260 127.0176510  11.7731910 120.3505370
 126.5348830  11.1637970 121.6495570 127.2425280  28.5449510 119.1239460
 126.6485600  28.4134210 119.8629500 127.2349120  27.7087650 118.6581560
 136.6880300  11.8381740 117.3269490 135.8140140  12.1716850 117.1242420
 136.5791050  11.3654920 118.1521360 137.5952280  14.0452610 118.7111210
 137.2665640  13.2304370 118.3312940 138.5434580  14.0022420 118.5876900
 140.0486890  29.8164650 115.6848780 139.5889860  30.5680460 115.3106800
 139.4199350  29.0971120 115.6263580 126.8737510  25.9107890 118.0747500
 126.1471570  25.2913180 118.0073450 126.9346660  26.3048500 117.2045580
 130.4782610  28.1252890 114.8596910 130.9947630  27.5140250 114.3345170
 131.1279990  28.6281670 115.3507920 133.2178110  29.0161380 115.6865890
 133.5055920  28.7615680 114.8098900 133.7301330  28.4638740 116.2771460
 134.4355120  12.7551580 116.2662400 133.6526910  13.2297080 116.5459160
 134.1418050  11.8506410 116.1575580 138.9876190  13.4574680 114.3111490
 139.4284280  13.4019780 113.4633090 138.7183780  14.3732690 114.3821670
 140.8514760  13.0889920 112.3220310 140.7903160  12.1451140 112.1751330
 141.6306790  13.1970010 112.8673770 125.1567510  29.2282280 111.2844260
 124.9889550  28.5952960 111.9826150 124.2902020  29.4341680 110.9338450
 125.7795530  13.0599060 108.7876120 126.5374890  13.1727940 108.2140150
 125.3172700  13.8968260 108.7419550 132.3209340  15.1738330 111.7778430
 131.5083850  14.7995220 111.4374310 132.8250980  14.4183410 112.0799620
 136.8234320  11.8380780 113.0161500 137.4263690  12.4100990 113.4910020
 136.0827310  12.4020220 112.7935400 139.9668920  12.2402340 108.2901780
 140.1619550  13.1385790 108.5569210 139.1798790  12.0089420 108.7834730
 126.7630210  27.9215510 108.7294400 126.2377830  28.3023540 108.0256360
 126.6874790  28.5466280 109.4504110 128.1520680  13.5863110 107.3278090
 128.6813440  12.7992910 107.1986040 128.7849000  14.2654300 107.5613620
 130.3458520  13.3238250 110.3823480 129.7161260  12.6225560 110.5493610
 129.8063660  14.0842380 110.1656640 133.2850470  29.9377480 123.0534090
 134.2117780  29.7021750 123.0970050 133.2700900  30.7649480 122.5720120
 141.5195530  29.4803050 110.0508340 141.6947720  28.7940790 109.4069260
 140.8217100  30.0050100 109.6585010 130.4714080  12.6022230 122.8175970
 130.1898350  13.1055830 122.0536790 130.8533780  11.8043980 122.4518100
 129.3623180  29.8697890 107.6043650 130.0942000  29.5857170 107.0567540
 129.6216850  29.6311170 108.4943030 128.5237970  25.9862620 107.6089980
 127.8946850  26.4547720 108.1575810 128.6385800  25.1411840 108.0436170
 137.0729540  12.0175810 123.3956440 136.9594990  12.3370420 124.2907960
 137.8899280  12.4188320 123.0993720 139.8528030  29.1647340 122.8775130
 140.6453350  28.6696570 122.6701090 140.1461180  29.8437480 123.4850740
 135.9787690  20.0368280  93.7591180 135.8981740  19.1222890  93.4882890
 135.5652110  20.5335350  93.0530890 134.1105730  21.8147300  95.6400450
 133.3347830  21.3347740  95.9299020 134.7618660  21.1352950  95.4656610
 128.1271560  22.1267110  96.5176210 127.2956440  21.8715820  96.9172720
 128.7352540  22.1977880  97.2534130 138.1313160  26.2207490  94.4199580
 137.6694690  25.4494730  94.7486750 138.9438710  26.2473560  94.9252030
 128.1072820  26.1607200  96.7134230 128.4100860  25.2704940  96.5344450
 128.8516410  26.7177420  96.4856480 126.5363510  17.0869000  90.3018600
 125.6480210  17.4284970  90.1998480 126.8204700  16.8869320  89.4099430
 124.4996520  19.6874650  96.1858300 125.0712630  18.9196850  96.1861940
 124.4998060  19.9863410  95.2764910 134.3576470  28.5065500  94.0403570
 133.7387910  28.9623000  93.4698010 135.2128250  28.6616960  93.6393270
 133.5514720  24.4904490  95.6470610 133.4823000  23.5494430  95.4859740
 134.3134580  24.5805900  96.2193180 125.7421390  15.0959010  97.9727230
 125.5624230  14.1984760  98.2529990 125.3401470  15.6430880  98.6474180
 134.5819890  17.2974870  95.8739540 134.9584710  16.4246750  95.7613210
 134.4839400  17.6333570  94.9829980 128.7124900  15.6700500  91.3356980
 128.8191650  16.5704230  91.6425740 127.8017260  15.6218470  91.0451630
 138.3644010  14.7925310  92.8067880 139.1853630  14.3021880  92.8493360
 138.3978090  15.3822970  93.5599720 126.3608060  17.5919510  96.5809570
 127.0418170  17.8557880  97.1996970 126.0456110  16.7520380  96.9147580
 130.5532630  18.6386870  95.6682160 131.0610850  19.1367840  96.3087180
 131.0845870  17.8622070  95.4921520 142.6543560  16.8092060  99.3711510
 141.9495730  17.1973770  98.8526620 142.9201480  17.5042350  99.9732440
 128.8368730  13.2785430  99.9345580 128.8387170  13.7957820  99.1291480
 128.0073040  12.8015610  99.9115510 135.2239820  23.3904740  91.4335480
 134.6057090  23.8554190  90.8698200 135.7363070  24.0832220  91.8504990
 130.0871580  22.9180610  98.1119080 129.7540960  23.5449530  98.7540150
 130.2638260  23.4442490  97.3320750 138.6005490  16.7325690  95.5795420
 137.8961060  17.0210580  96.1598530 138.9617650  17.5425800  95.2194980
 128.5184060  14.9895390  97.9416030 128.8600870  15.8337440  97.6469900
 127.5799870  15.1379130  98.0581370 129.2990680  24.8861410  99.9268260
 129.9164680  25.5612490  99.6452710 128.4383800  25.2949390  99.8355760
 124.5923020  24.0761270  88.8075110 124.2151000  24.5648370  88.0760010
 124.8496090  24.7486550  89.4381640 140.2168270  26.3500820  97.8422900
 139.5331790  27.0199930  97.8339570 140.7562560  26.5481470  97.0767760
 141.6692410  16.1780480  95.9704630 140.7217320  16.2119460  96.1020060
 141.9942400  16.9919430  96.3553990 132.2011950  12.4777660  94.2660620
 132.5086930  11.9224550  93.5496120 131.2712650  12.6122120  94.0833610
 137.7527010  28.1944950  96.5568080 137.7654170  27.7907240  95.6890340
 137.2002230  28.9692240  96.4529510 139.0472430  24.9161170  91.6458250
 138.9368760  23.9735500  91.7707670 139.0440680  25.2776810  92.5321010
 137.1512450  23.0974790  97.8850690 137.5681240  22.8834900  97.0504150
 137.8752270  23.3547580  98.4559310 134.5892710  20.5426490  91.0020740
 133.6621990  20.4763870  91.2309210 134.7417530  21.4806620  90.8875980
 134.5761790  16.8143490  87.9987900 133.6365460  16.9757450  88.0840360
 134.8945050  17.5329170  87.4523890 141.0974550  21.4962010  97.9766930
 140.2693180  21.5655100  97.5017060 141.6925030  22.0816320  97.5082760
 138.6190000  22.1046790  91.5055990 138.0002420  21.7666340  90.8582290
 138.6014450  21.4606550  92.2135180 138.0616560  18.2831330  98.9221800
 137.6487740  19.1085040  99.1761790 137.3292510  17.6976370  98.7298160
 130.1949350  21.0691230  93.7840470 129.7906350  20.3568480  93.2886370
 130.2812470  20.7244470  94.6728510 130.6631050  24.7558790  95.9479680
 130.3659340  24.1504260  95.2687460 131.6130870  24.7936100  95.8369040
 128.9077970  17.8434440  97.5639510 129.4592560  17.9529780  96.7892760
 129.4221480  18.2172040  98.2794740 138.7516660  28.3290660  99.6102780
 138.2747220  29.1362850  99.4175390 138.0678450  27.6768990  99.7628990
 129.7549480  24.4940480 102.5987480 128.8578010  24.7180450 102.8460880
 129.7802350  24.6175420 101.6498880 136.7954700  21.3433600  88.5128740
 137.2347980  20.5056030  88.3666560 137.5083120  21.9763000  88.5992880
 128.5820700  21.3653800 101.1744850 128.4428470  22.2376600 101.5432250
 127.7002060  21.0226610 101.0292790 134.9050080  26.2829670  92.4809980
 135.3445990  27.0254000  92.0665370 134.8436970  26.5256240  93.4048940
 130.3801050  27.3075500 103.3830000 130.3516480  27.7118450 102.5158430
 130.2166020  26.3785860 103.2201600 140.3771840  12.5976410  86.8269780
 140.0644500  12.6903240  87.7268850 141.1384310  13.1757440  86.7767210
 126.8953980  19.9636210  91.2847120 126.7751580  20.6898300  90.6728390
 126.5854870  19.1939120  90.8075030 142.3315870  28.0902600 104.6794170
 142.8075590  28.5685490 105.3583250 142.9523030  28.0220090 103.9539670
 124.5339350  23.1351350  97.0915760 124.6119770  23.2700120  96.1471480
 125.1481030  22.4267240  97.2843880 125.7786980  24.8351540  93.5021940
 125.3715060  24.9766130  92.6475540 126.6699990  24.5511700  93.2993150
 141.7349120  25.2815450 101.8394180 141.8612180  25.0427330 100.9211360
 141.7770500  24.4499990 102.3116260 135.5965860  28.9843450 100.4088990
 136.1110530  28.8951460 101.2111420 134.7534940  29.3303150 100.7016900
 137.5720260  29.2698790  89.8372990 137.4121400  28.9801730  90.7354820
 137.4066970  28.4938920  89.3018220 130.0508640  29.0497320  91.6144610
 129.8751120  28.1332860  91.4012410 129.1964380  29.4084610  91.8542410
 137.2746390  26.7786350  88.3970990 136.5811550  26.7763640  87.7373270
 138.0169250  26.3545670  87.9665160 136.8396320  28.4049060  92.4719480
 137.2953270  27.6238440  92.7858100 137.1788840  29.1155880  93.0160660
 141.5873130  17.3347910 102.8043920 140.9717400  17.8427580 102.2759380
 141.2669550  16.4346240 102.7469860 124.5898870  24.1765520  99.6310220
 124.7529910  23.7070880  98.8129590 125.0551320  23.6689080 100.2959060
 129.3617640  13.3071280  94.6670790 128.9185790  14.0880820  94.3355310
 129.9202630  13.6301170  95.3741730 133.6487450  16.1739800 100.2706110
 133.1866820  16.3822820 101.0826050 133.2465560  15.3599150  99.9676780
 138.6491960  17.3948750 101.4002770 137.7985550  17.0954500 101.7211840
 138.4893750  17.6390760 100.4886590 135.7441670  18.8950500 103.5001560
 136.0695080  18.0614250 103.1603790 136.5322000  19.4179020 103.6479890
 132.4776460  12.9281980  89.5476620 131.8530640  12.9241850  90.2729930
 132.3906580  12.0612940  89.1512590 131.3993540  13.8518610  96.5260390
 131.6965870  14.7581440  96.4452410 131.9479100  13.3637390  95.9119960
 129.1531860  18.4304850  92.3952040 128.9272780  18.2142020  93.2998660
 128.3724390  18.8633310  92.0498010 136.3829620  18.4368220  90.9942690
 135.7838510  19.1604020  90.8106310 136.9309230  18.3745000  90.2119140
 131.5931070  19.3290430 103.0612310 131.4974670  18.3885160 102.9112710
 132.4363050  19.5505500 102.6660380 134.9894490  17.0731760  93.0245970
 135.3824060  17.3903960  92.2114660 135.3511340  16.1943640  93.1390490
 126.7241610  15.7404100 101.2146090 126.3305000  16.5879310 101.4218870
 126.0360010  15.1030470 101.4054730 133.2986660  15.8239070 104.2842830
 132.6084980  15.6311270 104.9188920 134.0418960  16.1073710 104.8167130
 124.0258660  13.6632560  95.2476170 123.7371710  14.2335420  95.9601150
 124.7704420  13.1837010  95.6107400 124.2128890  17.6052680  86.4578890
 124.1303560  18.5483440  86.5993880 123.8611950  17.4627590  85.5791240
 135.5749630  19.6637510  97.1196750 134.8430750  20.1724320  97.4686850
 135.1773970  18.8467490  96.8185530 132.0127020  16.3391710  95.5249240
 132.0163080  15.8981660  94.6753780 132.9078140  16.6609040  95.6321060
 127.8629400  16.2218200  94.4843450 127.5229450  16.6993430  95.2410500
 127.1006720  15.7683320  94.1244550 132.0747170  17.3403790  88.5156000
 132.1959990  17.2990270  89.4641820 131.6895680  18.2027940  88.3602730
 136.0375540  15.1171190  96.5319690 136.0548280  15.5679840  97.3761540
 135.7891120  14.2176830  96.7453130 131.0868670  19.6504930  87.9139300
 130.5185570  19.2023180  87.2875210 131.7957670  20.0097710  87.3804450
 139.4646290  12.5303370 102.3706070 139.7892060  11.7993030 102.8964050
 139.5002800  12.2117010 101.4687060 126.1637850  23.5516950 101.7906030
 125.7792640  22.9110620 102.3888990 126.4750040  24.2553070 102.3600760
 132.3134990  20.3993490  97.2714650 132.6805120  19.9252060  98.0175990
 132.1240050  21.2735060  97.6122990 125.1775480  15.1437180  93.4008120
 124.8922400  14.7792850  94.2386740 125.1154340  14.4117640  92.7871260
 130.1034360  19.4402130  99.5898860 129.7991430  20.3194110  99.8149220
 131.0580820  19.5001920  99.6256300 128.6316150  23.6463120  90.1865710
 127.8578410  23.1060740  90.0264430 129.3610780  23.1269730  89.8483470
 139.3904130  22.6428480  95.9792100 140.1103250  23.1383770  95.5888210
 139.1885950  21.9646370  95.3345970 134.8514070  14.0366440  90.1221490
 134.0378680  13.5379610  90.0466800 134.6576020  14.8764690  89.7057840
 134.7722930  22.7137540 101.8661100 134.7060240  21.7933210 101.6118690
 134.1428070  22.8112980 102.5805740 137.5662460  18.4086090  88.4183650
 138.4542080  18.7203320  88.2434990 137.5367550  17.5358340  88.0264230
 128.6753550  23.3143500  93.8244520 129.1932220  22.5111760  93.7701410
 128.2237570  23.2522640  94.6661350 133.5623050  24.5809780  89.0971820
 133.9038750  25.3252010  88.6015140 132.7335760  24.8940900  89.4596650
 126.1598090  20.2804870 100.7370220 125.8013030  20.9458720 101.3243560
 125.8652650  19.4488420 101.1082840 129.3611210  20.7389110 103.6209770
 129.0611350  20.8846290 102.7237590 130.1322450  20.1794400 103.5283160
 134.7039660  25.5358110 101.6164900 134.7184200  24.6039070 101.3983810
 133.9964760  25.6217870 102.2554670 139.8376730  19.7197930  87.8863510
 139.7540450  20.1512150  87.0359950 140.5570920  20.1796280  88.3190330
 140.9150870  22.1765450 100.9633480 140.1899060  22.7694230 100.7662870
 141.4426330  22.1688990 100.1646850 140.8663980  26.5740190  90.6145640
 140.2240140  25.9195810  90.8889360 140.4794640  26.9795280  89.8386310
 136.4450460  23.9025620  94.4617330 136.7974280  23.3053750  93.8018700
 135.5612790  23.5769850  94.6325580 132.5313740  24.6623310  91.8687740
 133.2184870  25.2092520  92.2495330 131.7446160  25.2064040  91.9037350
 124.6706140  20.2796130  87.3604820 125.5400990  20.5620930  87.6440740
 124.1796460  21.0932000  87.2453630 131.8340950  21.6669340  91.4813100
 132.2903730  22.4774590  91.7073290 131.4829160  21.3492480  92.3131590
 134.1373560  27.1775680  98.7105400 134.7815780  27.3835060  99.3878820
 134.5003000  26.4164080  98.2576250 127.7352730  12.0106990  91.9535620
 127.6067360  12.0024890  92.9020540 126.9114750  12.3490080  91.6026630
 135.4105640  25.1808030  97.4282850 136.0527870  24.4801190  97.5415020
 135.9354990  25.9606470  97.2479740 139.2561360  25.4656650  87.1521990
 139.0298940  24.7487090  87.7446630 138.8657560  25.2169090  86.3143740
 137.1843260  25.9802930 100.6318910 137.5199500  26.5669620 101.3096830
 136.2643600  25.8495640 100.8616700 125.0377390  29.4923510  87.9266450
 125.3975030  30.0912850  87.2723720 124.8969730  30.0383400  88.7001480
 124.7346660  13.7698110 101.4142320 124.0205180  13.9695030 102.0194930
 125.1541700  12.9937680 101.7857120 138.8377610  23.3828590  88.8136150
 138.5499310  23.8441280  89.6014030 139.6329780  22.9226360  89.0820370
 125.0219250  27.7578370 102.4008850 125.1310370  26.8173110 102.2604240
 124.3699810  28.0233120 101.7522580 133.0131840  26.0294260 103.8006970
 132.6928710  25.3103500 104.3452660 132.3390200  26.7049330 103.8743030
 131.0546010  26.8754710  88.7440120 131.0456110  27.6084400  88.1284630
 130.1344370  26.6286290  88.8367080 126.6552650  22.0969600  89.4886880
 126.0480600  22.8368500  89.4982180 127.1302000  22.1868960  88.6625080
 136.2285440  16.2620420  99.1643770 136.5966260  15.4415630  99.4923340
 135.3683640  16.3222310  99.5799420 139.5947470  15.2177360  89.9731330
 138.9660630  15.3223030  89.2589560 139.0999390  15.4374140  90.7625210
 134.0405610  26.9382950  87.4065310 134.1417590  26.7346940  86.4767290
 133.1407350  26.6841230  87.6113090 131.5631500  17.4963310  91.3889210
 130.8547650  17.9649650  91.8302820 131.8475980  16.8385320  92.0234400
 133.1887430  18.9160010  99.3881740 133.6872680  19.3905830 100.0533590
 133.3310380  17.9923530  99.5951770 135.5946930  14.2213970  92.8285000
 135.4714710  14.2400100  91.8794510 136.5431490  14.2692910  92.9483400
 132.6823720  29.4569270  92.1012980 132.9365220  29.4190660  91.1792350
 131.7336200  29.3302600  92.0941230 129.7666520  15.8048390  88.7639920
 130.6157050  16.2418540  88.6980110 129.3997790  16.1168650  89.5911980
 140.3954290  15.1327970 100.2310130 139.8927890  15.8733370 100.5703940
 141.2110950  15.5211970  99.9146920 138.6876300  20.3761150  93.6771490
 137.7466440  20.3911380  93.8519180 139.0020370  19.5897110  94.1231790
 128.6657940  22.0580750  87.2375450 129.4321210  21.9462110  87.8000880
 128.7432630  21.3618720  86.5852220 127.3604700  19.4905820  87.9208340
 127.4408290  18.5433330  88.0325740 128.2524450  19.8212700  88.0269000
 140.6901880  27.5470000  95.3525750 140.8149300  28.3701170  95.8249560
 141.5567440  27.3360730  95.0049900 128.1619410  29.6401210  95.0242880
 128.8981890  29.0916670  95.2951450 128.5460330  30.5057220  94.8848870
 125.0464890  25.7074780  90.8984390 124.1204670  25.9495920  90.8889800
 125.5121320  26.5349040  90.7769140 127.1677690  28.8247280 104.2128460
 127.9690420  29.1459330 104.6263860 126.6529510  28.4642860 104.9348370
 131.2721720  28.8131520  86.8468450 132.0650330  29.1020350  86.3950240
 130.7526070  28.3823690  86.1680930 136.0042320  24.9327150 104.1603870
 135.3980480  24.9558750 103.4199620 135.6996430  24.2010190 104.6971120
 137.4342690  28.6607440 102.7713280 138.3864440  28.5765460 102.7213520
 137.2870910  29.3249150 103.4447070 140.3251890  28.0401650  88.2705190
 140.0393400  27.6266790  87.4559370 140.1271440  28.9689360  88.1505710
 124.8875500  21.3120740 103.1564510 125.3914520  20.7328020 103.7280740
 124.1482920  21.5960970 103.6940880 131.7899120  24.0334930  86.7110800
 131.6849760  23.4187280  87.4372180 131.6223340  23.5100820  85.9273810
 131.9413440  22.7191730 102.6900030 131.1759110  23.2876730 102.6054700
 132.1229400  22.4267940 101.7968260 135.0301850  23.0954960  87.3152790
 134.4811950  23.5424260  87.9595530 135.6521110  22.5904210  87.8390460
 139.0836790  24.4497060 103.2475050 139.8246260  24.7872820 102.7442510
 138.3209470  24.6189120 102.6944820 126.9198580  19.4550330 104.0514580
 126.9603920  19.1564200 104.9599810 127.7744080  19.8557940 103.8922100
 130.6976970  22.0545880  89.2118090 131.1193390  21.8885750  90.0549480
 130.8227810  21.2446110  88.7173230 128.8604390  18.0342430 102.0189070
 128.3300850  17.5433380 101.3912410 129.5292460  18.4626630 101.4847000
 133.2104610  21.0783490  86.4595190 133.7310270  20.3632510  86.0936340
 133.8573010  21.7169360  86.7595700 137.7582450  22.5011890 101.7830260
 138.1723470  22.6556970 102.6320680 136.8233450  22.6267110 101.9456040
 138.2304620  19.8408050 103.7869410 138.8125390  19.0860370 103.6989890
 138.4066390  20.3715490 103.0100890 129.3476690  15.0004800 102.0986360
 129.2533560  14.3825550 101.3737230 128.7674080  15.7271090 101.8716270
 132.1138130  13.5578040  99.1313750 131.6655430  13.5802300  98.2859300
 131.4803330  13.1597060  99.7284050 132.5197680  22.4532370  99.7526190
 132.9385790  23.2965100  99.5802430 131.6006310  22.5904410  99.5232970
 134.8561580  20.1848550 101.1364030 134.9757790  19.5889690 101.8758870
 135.7155580  20.2218240 100.7165330 137.1949480  20.7385740  99.7126540
 136.6684700  21.2628360  99.1091680 137.5380820  21.3713130 100.3436270
 129.5935870  18.1279110  86.1576250 129.3924930  17.2646470  86.5189590
 129.4227920  18.0412470  85.2197850 130.3705100  28.7585380 100.8683920
 129.8326190  29.4831440 100.5492620 130.6239060  28.2815720 100.0781260
 131.6230350  16.7269900 102.3939850 132.2130040  16.4185750 103.0817670
 130.8050590  16.2549650 102.5499750 136.4423780  16.3435710 102.6272870
 135.7539300  15.6817250 102.5622860 137.1629800  15.8973980 103.0721330
 137.0724180  12.9387340  88.6863130 137.3526470  12.0955240  89.0422550
 136.2989910  13.1710450  89.2001880 128.3918670  15.2279730  86.1454130
 128.6944570  15.2347160  85.2373280 129.1313260  14.8777590  86.6421790
 133.2267310  29.9936590 101.1270570 133.1526010  30.8971730 101.4342940
 132.3246150  29.6748490 101.0992640 131.6103600  14.1714350  87.1310330
 131.2625600  13.4938340  86.5512780 131.8116370  13.7103860  87.9453720
 133.7752640  29.1595100  88.7496930 134.6703430  29.4980070  88.7715690
 133.8070270  28.4374510  88.1221210 127.4148800  24.5322150  86.9783930
 127.8523670  25.0751820  87.6341510 127.8996530  23.7069100  86.9880270
 124.6294600  27.3211180  94.4304190 124.9597610  26.4532240  94.1982830
 125.0585600  27.5269700  95.2609150 129.2256520  25.6520190  92.0906160
 128.9252060  25.5285160  92.9910070 129.1194010  24.7928780  91.6821890
 125.1184810  28.1881770  97.1685820 124.6815800  28.3682570  98.0009970
 125.6862490  28.9456390  97.0267540 140.7546990  27.6898770 101.4563130
 140.1548980  27.7491330 100.7127050 140.8840890  26.7503750 101.5859980
 141.9948440  25.4316590  86.7932840 141.1641400  25.4993240  87.2640070
 142.1720270  26.3220710  86.4899700 141.4504900  22.1764070  89.2967040
 142.2123810  22.7460720  89.4026730 141.4659270  21.6091270  90.0675350
 124.9509240  20.7002000  93.5274700 124.2958080  20.4313640  92.8834400
 125.7887190  20.5906480  93.0776680 142.4564870  23.0314170  94.1408970
 142.8273700  22.2481490  93.7344940 143.0966800  23.7203270  93.9626270
 139.4398630  24.4150750  99.5539290 138.6258470  24.8447910  99.8165080
 139.8472830  25.0269160  98.9408340 141.5024070  22.4698440  86.4539560
 141.7772910  23.3777320  86.3258780 141.3134810  22.4060970  87.3901550
 137.8999680  15.4943290  87.7493190 138.3184560  15.3074270  86.9089850
 137.5935740  14.6422340  88.0596120 141.3989410  20.4067430  91.4468990
 141.0233010  19.6395360  91.0150280 140.6692530  20.7890130  91.9343920
 125.9885170  21.0854570  98.0678040 126.3558210  20.9981970  98.9474060
 125.4195990  20.3221120  97.9684900 140.7889030  19.5538950 101.0808510
 140.5575120  19.3251700 100.1806460 141.0493580  20.4738500 101.0353400
 125.5401170  17.9963660 101.9736460 124.6457220  17.9630420 102.3130170
 126.0798720  18.1950450 102.7387710 139.2277100  14.7795380 103.8588210
 140.1047280  14.7878780 104.2422210 139.2397940  14.0426220 103.2480560
 124.1647320  17.9100930  89.4700030 123.2611400  18.1731130  89.2951690
 124.6487940  18.1812100  88.6899990 140.6740370  18.6324920  94.7476230
 141.1977850  18.1387570  94.1166400 141.2599790  18.7675280  95.4923800
 140.8530090  18.7164790  98.2695780 139.9032800  18.6828330  98.3840770
 141.0343100  19.6264900  98.0345550 126.7074530  16.9666470  87.3794410
 127.4166230  16.5449690  86.8941690 125.9914470  17.0341700  86.7477760
 126.3548690  13.0205800  86.4197060 127.0776820  13.5614740  86.7378280
 126.6273210  12.7469220  85.5438600 140.1640340  17.8898270  90.6868640
 140.6599460  17.6569140  91.4717520 139.9656410  17.0510110  90.2706280
 126.0440880  12.2711990  96.3219680 126.6917070  11.7209370  95.8814840
 126.4642720  12.5255140  97.1435490 141.5927500  16.5259220  93.2206320
 141.4826780  16.3715260  94.1588590 142.3535090  15.9980160  92.9781730
 139.9393220  12.4653350  99.6789320 140.5765440  13.0787490 100.0448510
 140.0868110  12.5014010  98.7338550 142.4817770  14.3567140  86.4612460
 143.4067080  14.2248320  86.2530750 142.4593560  14.4359960  87.4148910
 142.5556260  15.1277800  89.0869170 141.7607760  15.0622920  89.6162080
 142.7599540  16.0628440  89.0754520 139.4974680  29.1669350  93.0807560
 140.0933750  28.8453920  92.4041980 139.7552830  28.6941170  93.8720830
 125.7972880  12.4267660  99.0645000 125.4487700  12.8831480  99.8303180
 125.4660580  11.5324790  99.1467430 127.4037250  25.5987260 103.2298190
 127.3606880  25.2280170 104.1112650 127.5348260  26.5364830 103.3700010
 131.1043280  27.1546850  98.8307910 130.8634640  27.4221410  97.9438430
 132.0445920  27.3252580  98.8858770 133.3097700  13.6179540 102.5864420
 133.2486590  14.2101370 103.3359830 134.2498080  13.5105500 102.4414680
 135.9472260  13.2749600 102.2256710 136.5612670  13.5928890 101.5637790
 136.4921820  12.7898190 102.8452570 142.3647440  29.1741230  99.6318550
 141.8705720  29.5710100  98.9145680 141.7560730  28.5490440 100.0255830
 126.4693520  11.9543860 102.3395770 127.0176510  11.7731910 101.5761880
 126.5348830  11.1637970 102.8752080 127.2425280  28.5449510 100.3495970
 126.6485600  28.4134210 101.0886010 127.2349120  27.7087650  99.8838070
 136.6880300  11.8381740  98.5526000 135.8140140  12.1716850  98.3498930
 136.5791050  11.3654920  99.3777870 137.5952280  14.0452610  99.9367720
 137.2665640  13.2304370  99.5569450 138.5434580  14.0022420  99.8133410
 140.0486890  29.8164650  96.9105290 139.5889860  30.5680460  96.5363310
 139.4199350  29.0971120  96.8520090 126.8737510  25.9107890  99.3004010
 126.1471570  25.2913180  99.2329960 126.9346660  26.3048500  98.4302090
 130.4782610  28.1252890  96.0853420 130.9947630  27.5140250  95.5601680
 131.1279990  28.6281670  96.5764430 133.2178110  29.0161380  96.9122400
 133.5055920  28.7615680  96.0355410 133.7301330  28.4638740  97.5027970
 134.4355120  12.7551580  97.4918910 133.6526910  13.2297080  97.7715670
 134.1418050  11.8506410  97.3832090 138.9876190  13.4574680  95.5368000
 139.4284280  13.4019780  94.6889600 138.7183780  14.3732690  95.6078180
 140.8514760  13.0889920  93.5476820 140.7903160  12.1451140  93.4007840
 141.6306790  13.1970010  94.0930280 125.1567510  29.2282280  92.5100770
 124.9889550  28.5952960  93.2082660 124.2902020  29.4341680  92.1594960
 125.7795530  13.0599060  90.0132630 126.5374890  13.1727940  89.4396660
 125.3172700  13.8968260  89.9676060 132.3209340  15.1738330  93.0034940
 131.5083850  14.7995220  92.6630820 132.8250980  14.4183410  93.3056130
 136.8234320  11.8380780  94.2418010 137.4263690  12.4100990  94.7166530
 136.0827310  12.4020220  94.0191910 139.9668920  12.2402340  89.5158290
 140.1619550  13.1385790  89.7825720 139.1798790  12.0089420  90.0091240
 126.7630210  27.9215510  89.9550910 126.2377830  28.3023540  89.2512870
 126.6874790  28.5466280  90.6760620 128.1520680  13.5863110  88.5534600
 128.6813440  12.7992910  88.4242550 128.7849000  14.2654300  88.7870130
 130.3458520  13.3238250  91.6079990 129.7161260  12.6225560  91.7750120
 129.8063660  14.0842380  91.3913150 133.2850470  29.9377480 104.2790600
 134.2117780  29.7021750 104.3226560 133.2700900  30.7649480 103.7976630
 141.5195530  29.4803050  91.2764850 141.6947720  28.7940790  90.6325770
 140.8217100  30.0050100  90.8841520 130.4714080  12.6022230 104.0432480
 130.1898350  13.1055830 103.2793300 130.8533780  11.8043980 103.6774610
 129.3623180  29.8697890  88.8300160 130.0942000  29.5857170  88.2824050
 129.6216850  29.6311170  89.7199540 128.5237970  25.9862620  88.8346490
 127.8946850  26.4547720  89.3832320 128.6385800  25.1411840  89.2692680
 137.0729540  12.0175810 104.6212950 136.9594990  12.3370420 105.5164470
 137.8899280  12.4188320 104.3250230 139.8528030  29.1647340 104.1031640
 140.6453350  28.6696570 103.8957600 140.1461180  29.8437480 104.7107250
 135.9787690  20.0368280  74.9847690 135.8981740  19.1222890  74.7139400
 135.5652110  20.5335350  74.2787400 134.1105730  21.8147300  76.8656960
 133.3347830  21.3347740  77.1555530 134.7618660  21.1352950  76.6913120
 128.1271560  22.1267110  77.7432720 127.2956440  21.8715820  78.1429230
 128.7352540  22.1977880  78.4790640 138.1313160  26.2207490  75.6456090
 137.6694690  25.4494730  75.9743260 138.9438710  26.2473560  76.1508540
 128.1072820  26.1607200  77.9390740 128.4100860  25.2704940  77.7600960
 128.8516410  26.7177420  77.7112990 126.5363510  17.0869000  71.5275110
 125.6480210  17.4284970  71.4254990 126.8204700  16.8869320  70.6355940
 124.4996520  19.6874650  77.4114810 125.0712630  18.9196850  77.4118450
 124.4998060  19.9863410  76.5021420 134.3576470  28.5065500  75.2660080
 133.7387910  28.9623000  74.6954520 135.2128250  28.6616960  74.8649780
 133.5514720  24.4904490  76.8727120 133.4823000  23.5494430  76.7116250
 134.3134580  24.5805900  77.4449690 125.7421390  15.0959010  79.1983740
 125.5624230  14.1984760  79.4786500 125.3401470  15.6430880  79.8730690
 134.5819890  17.2974870  77.0996050 134.9584710  16.4246750  76.9869720
 134.4839400  17.6333570  76.2086490 128.7124900  15.6700500  72.5613490
 128.8191650  16.5704230  72.8682250 127.8017260  15.6218470  72.2708140
 138.3644010  14.7925310  74.0324390 139.1853630  14.3021880  74.0749870
 138.3978090  15.3822970  74.7856230 126.3608060  17.5919510  77.8066080
 127.0418170  17.8557880  78.4253480 126.0456110  16.7520380  78.1404090
 130.5532630  18.6386870  76.8938670 131.0610850  19.1367840  77.5343690
 131.0845870  17.8622070  76.7178030 142.6543560  16.8092060  80.5968020
 141.9495730  17.1973770  80.0783130 142.9201480  17.5042350  81.1988950
 128.8368730  13.2785430  81.1602090 128.8387170  13.7957820  80.3547990
 128.0073040  12.8015610  81.1372020 135.2239820  23.3904740  72.6591990
 134.6057090  23.8554190  72.0954710 135.7363070  24.0832220  73.0761500
 130.0871580  22.9180610  79.3375590 129.7540960  23.5449530  79.9796660
 130.2638260  23.4442490  78.5577260 138.6005490  16.7325690  76.8051930
 137.8961060  17.0210580  77.3855040 138.9617650  17.5425800  76.4451490
 128.5184060  14.9895390  79.1672540 128.8600870  15.8337440  78.8726410
 127.5799870  15.1379130  79.2837880 129.2990680  24.8861410  81.1524770
 129.9164680  25.5612490  80.8709220 128.4383800  25.2949390  81.0612270
 124.5923020  24.0761270  70.0331620 124.2151000  24.5648370  69.3016520
 124.8496090  24.7486550  70.6638150 140.2168270  26.3500820  79.0679410
 139.5331790  27.0199930  79.0596080 140.7562560  26.5481470  78.3024270
 141.6692410  16.1780480  77.1961140 140.7217320  16.2119460  77.3276570
 141.9942400  16.9919430  77.5810500 132.2011950  12.4777660  75.4917130
 132.5086930  11.9224550  74.7752630 131.2712650  12.6122120  75.3090120
 137.7527010  28.1944950  77.7824590 137.7654170  27.7907240  76.9146850
 137.2002230  28.9692240  77.6786020 139.0472430  24.9161170  72.8714760
 138.9368760  23.9735500  72.9964180 139.0440680  25.2776810  73.7577520
 137.1512450  23.0974790  79.1107200 137.5681240  22.8834900  78.2760660
 137.8752270  23.3547580  79.6815820 134.5892710  20.5426490  72.2277250
 133.6621990  20.4763870  72.4565720 134.7417530  21.4806620  72.1132490
 134.5761790  16.8143490  69.2244410 133.6365460  16.9757450  69.3096870
 134.8945050  17.5329170  68.6780400 141.0974550  21.4962010  79.2023440
 140.2693180  21.5655100  78.7273570 141.6925030  22.0816320  78.7339270
 138.6190000  22.1046790  72.7312500 138.0002420  21.7666340  72.0838800
 138.6014450  21.4606550  73.4391690 138.0616560  18.2831330  80.1478310
 137.6487740  19.1085040  80.4018300 137.3292510  17.6976370  79.9554670
 130.1949350  21.0691230  75.0096980 129.7906350  20.3568480  74.5142880
 130.2812470  20.7244470  75.8985020 130.6631050  24.7558790  77.1736190
 130.3659340  24.1504260  76.4943970 131.6130870  24.7936100  77.0625550
 128.9077970  17.8434440  78.7896020 129.4592560  17.9529780  78.0149270
 129.4221480  18.2172040  79.5051250 138.7516660  28.3290660  80.8359290
 138.2747220  29.1362850  80.6431900 138.0678450  27.6768990  80.9885500
 129.7549480  24.4940480  83.8243990 128.8578010  24.7180450  84.0717390
 129.7802350  24.6175420  82.8755390 136.7954700  21.3433600  69.7385250
 137.2347980  20.5056030  69.5923070 137.5083120  21.9763000  69.8249390
 128.5820700  21.3653800  82.4001360 128.4428470  22.2376600  82.7688760
 127.7002060  21.0226610  82.2549300 134.9050080  26.2829670  73.7066490
 135.3445990  27.0254000  73.2921880 134.8436970  26.5256240  74.6305450
 130.3801050  27.3075500  84.6086510 130.3516480  27.7118450  83.7414940
 130.2166020  26.3785860  84.4458110 140.3771840  12.5976410  68.0526290
 140.0644500  12.6903240  68.9525360 141.1384310  13.1757440  68.0023720
 126.8953980  19.9636210  72.5103630 126.7751580  20.6898300  71.8984900
 126.5854870  19.1939120  72.0331540 142.3315870  28.0902600  85.9050680
 142.8075590  28.5685490  86.5839760 142.9523030  28.0220090  85.1796180
 124.5339350  23.1351350  78.3172270 124.6119770  23.2700120  77.3727990
 125.1481030  22.4267240  78.5100390 125.7786980  24.8351540  74.7278450
 125.3715060  24.9766130  73.8732050 126.6699990  24.5511700  74.5249660
 141.7349120  25.2815450  83.0650690 141.8612180  25.0427330  82.1467870
 141.7770500  24.4499990  83.5372770 135.5965860  28.9843450  81.6345500
 136.1110530  28.8951460  82.4367930 134.7534940  29.3303150  81.9273410
 137.5720260  29.2698790  71.0629500 137.4121400  28.9801730  71.9611330
 137.4066970  28.4938920  70.5274730 130.0508640  29.0497320  72.8401120
 129.8751120  28.1332860  72.6268920 129.1964380  29.4084610  73.0798920
 137.2746390  26.7786350  69.6227500 136.5811550  26.7763640  68.9629780
 138.0169250  26.3545670  69.1921670 136.8396320  28.4049060  73.6975990
 137.2953270  27.6238440  74.0114610 137.1788840  29.1155880  74.2417170
 141.5873130  17.3347910  84.0300430 140.9717400  17.8427580  83.5015890
 141.2669550  16.4346240  83.9726370 124.5898870  24.1765520  80.8566730
 124.7529910  23.7070880  80.0386100 125.0551320  23.6689080  81.5215570
 129.3617640  13.3071280  75.8927300 128.9185790  14.0880820  75.5611820
 129.9202630  13.6301170  76.5998240 133.6487450  16.1739800  81.4962620
 133.1866820  16.3822820  82.3082560 133.2465560  15.3599150  81.1933290
 138.6491960  17.3948750  82.6259280 137.7985550  17.0954500  82.9468350
 138.4893750  17.6390760  81.7143100 135.7441670  18.8950500  84.7258070
 136.0695080  18.0614250  84.3860300 136.5322000  19.4179020  84.8736400
 132.4776460  12.9281980  70.7733130 131.8530640  12.9241850  71.4986440
 132.3906580  12.0612940  70.3769100 131.3993540  13.8518610  77.7516900
 131.6965870  14.7581440  77.6708920 131.9479100  13.3637390  77.1376470
 129.1531860  18.4304850  73.6208550 128.9272780  18.2142020  74.5255170
 128.3724390  18.8633310  73.2754520 136.3829620  18.4368220  72.2199200
 135.7838510  19.1604020  72.0362820 136.9309230  18.3745000  71.4375650
 131.5931070  19.3290430  84.2868820 131.4974670  18.3885160  84.1369220
 132.4363050  19.5505500  83.8916890 134.9894490  17.0731760  74.2502480
 135.3824060  17.3903960  73.4371170 135.3511340  16.1943640  74.3647000
 126.7241610  15.7404100  82.4402600 126.3305000  16.5879310  82.6475380
 126.0360010  15.1030470  82.6311240 133.2986660  15.8239070  85.5099340
 132.6084980  15.6311270  86.1445430 134.0418960  16.1073710  86.0423640
 124.0258660  13.6632560  76.4732680 123.7371710  14.2335420  77.1857660
 124.7704420  13.1837010  76.8363910 124.2128890  17.6052680  67.6835400
 124.1303560  18.5483440  67.8250390 123.8611950  17.4627590  66.8047750
 135.5749630  19.6637510  78.3453260 134.8430750  20.1724320  78.6943360
 135.1773970  18.8467490  78.0442040 132.0127020  16.3391710  76.7505750
 132.0163080  15.8981660  75.9010290 132.9078140  16.6609040  76.8577570
 127.8629400  16.2218200  75.7099960 127.5229450  16.6993430  76.4667010
 127.1006720  15.7683320  75.3501060 132.0747170  17.3403790  69.7412510
 132.1959990  17.2990270  70.6898330 131.6895680  18.2027940  69.5859240
 136.0375540  15.1171190  77.7576200 136.0548280  15.5679840  78.6018050
 135.7891120  14.2176830  77.9709640 131.0868670  19.6504930  69.1395810
 130.5185570  19.2023180  68.5131720 131.7957670  20.0097710  68.6060960
 139.4646290  12.5303370  83.5962580 139.7892060  11.7993030  84.1220560
 139.5002800  12.2117010  82.6943570 126.1637850  23.5516950  83.0162540
 125.7792640  22.9110620  83.6145500 126.4750040  24.2553070  83.5857270
 132.3134990  20.3993490  78.4971160 132.6805120  19.9252060  79.2432500
 132.1240050  21.2735060  78.8379500 125.1775480  15.1437180  74.6264630
 124.8922400  14.7792850  75.4643250 125.1154340  14.4117640  74.0127770
 130.1034360  19.4402130  80.8155370 129.7991430  20.3194110  81.0405730
 131.0580820  19.5001920  80.8512810 128.6316150  23.6463120  71.4122220
 127.8578410  23.1060740  71.2520940 129.3610780  23.1269730  71.0739980
 139.3904130  22.6428480  77.2048610 140.1103250  23.1383770  76.8144720
 139.1885950  21.9646370  76.5602480 134.8514070  14.0366440  71.3478000
 134.0378680  13.5379610  71.2723310 134.6576020  14.8764690  70.9314350
 134.7722930  22.7137540  83.0917610 134.7060240  21.7933210  82.8375200
 134.1428070  22.8112980  83.8062250 137.5662460  18.4086090  69.6440160
 138.4542080  18.7203320  69.4691500 137.5367550  17.5358340  69.2520740
 128.6753550  23.3143500  75.0501030 129.1932220  22.5111760  74.9957920
 128.2237570  23.2522640  75.8917860 133.5623050  24.5809780  70.3228330
 133.9038750  25.3252010  69.8271650 132.7335760  24.8940900  70.6853160
 126.1598090  20.2804870  81.9626730 125.8013030  20.9458720  82.5500070
 125.8652650  19.4488420  82.3339350 129.3611210  20.7389110  84.8466280
 129.0611350  20.8846290  83.9494100 130.1322450  20.1794400  84.7539670
 134.7039660  25.5358110  82.8421410 134.7184200  24.6039070  82.6240320
 133.9964760  25.6217870  83.4811180 139.8376730  19.7197930  69.1120020
 139.7540450  20.1512150  68.2616460 140.5570920  20.1796280  69.5446840
 140.9150870  22.1765450  82.1889990 140.1899060  22.7694230  81.9919380
 141.4426330  22.1688990  81.3903360 140.8663980  26.5740190  71.8402150
 140.2240140  25.9195810  72.1145870 140.4794640  26.9795280  71.0642820
 136.4450460  23.9025620  75.6873840 136.7974280  23.3053750  75.0275210
 135.5612790  23.5769850  75.8582090 132.5313740  24.6623310  73.0944250
 133.2184870  25.2092520  73.4751840 131.7446160  25.2064040  73.1293860
 124.6706140  20.2796130  68.5861330 125.5400990  20.5620930  68.8697250
 124.1796460  21.0932000  68.4710140 131.8340950  21.6669340  72.7069610
 132.2903730  22.4774590  72.9329800 131.4829160  21.3492480  73.5388100
 134.1373560  27.1775680  79.9361910 134.7815780  27.3835060  80.6135330
 134.5003000  26.4164080  79.4832760 127.7352730  12.0106990  73.1792130
 127.6067360  12.0024890  74.1277050 126.9114750  12.3490080  72.8283140
 135.4105640  25.1808030  78.6539360 136.0527870  24.4801190  78.7671530
 135.9354990  25.9606470  78.4736250 139.2561360  25.4656650  68.3778500
 139.0298940  24.7487090  68.9703140 138.8657560  25.2169090  67.5400250
 137.1843260  25.9802930  81.8575420 137.5199500  26.5669620  82.5353340
 136.2643600  25.8495640  82.0873210 125.0377390  29.4923510  69.1522960
 125.3975030  30.0912850  68.4980230 124.8969730  30.0383400  69.9257990
 124.7346660  13.7698110  82.6398830 124.0205180  13.9695030  83.2451440
 125.1541700  12.9937680  83.0113630 138.8377610  23.3828590  70.0392660
 138.5499310  23.8441280  70.8270540 139.6329780  22.9226360  70.3076880
 125.0219250  27.7578370  83.6265360 125.1310370  26.8173110  83.4860750
 124.3699810  28.0233120  82.9779090 133.0131840  26.0294260  85.0263480
 132.6928710  25.3103500  85.5709170 132.3390200  26.7049330  85.0999540
 131.0546010  26.8754710  69.9696630 131.0456110  27.6084400  69.3541140
 130.1344370  26.6286290  70.0623590 126.6552650  22.0969600  70.7143390
 126.0480600  22.8368500  70.7238690 127.1302000  22.1868960  69.8881590
 136.2285440  16.2620420  80.3900280 136.5966260  15.4415630  80.7179850
 135.3683640  16.3222310  80.8055930 139.5947470  15.2177360  71.1987840
 138.9660630  15.3223030  70.4846070 139.0999390  15.4374140  71.9881720
 134.0405610  26.9382950  68.6321820 134.1417590  26.7346940  67.7023800
 133.1407350  26.6841230  68.8369600 131.5631500  17.4963310  72.6145720
 130.8547650  17.9649650  73.0559330 131.8475980  16.8385320  73.2490910
 133.1887430  18.9160010  80.6138250 133.6872680  19.3905830  81.2790100
 133.3310380  17.9923530  80.8208280 135.5946930  14.2213970  74.0541510
 135.4714710  14.2400100  73.1051020 136.5431490  14.2692910  74.1739910
 132.6823720  29.4569270  73.3269490 132.9365220  29.4190660  72.4048860
 131.7336200  29.3302600  73.3197740 129.7666520  15.8048390  69.9896430
 130.6157050  16.2418540  69.9236620 129.3997790  16.1168650  70.8168490
 140.3954290  15.1327970  81.4566640 139.8927890  15.8733370  81.7960450
 141.2110950  15.5211970  81.1403430 138.6876300  20.3761150  74.9028000
 137.7466440  20.3911380  75.0775690 139.0020370  19.5897110  75.3488300
 128.6657940  22.0580750  68.4631960 129.4321210  21.9462110  69.0257390
 128.7432630  21.3618720  67.8108730 127.3604700  19.4905820  69.1464850
 127.4408290  18.5433330  69.2582250 128.2524450  19.8212700  69.2525510
 140.6901880  27.5470000  76.5782260 140.8149300  28.3701170  77.0506070
 141.5567440  27.3360730  76.2306410 128.1619410  29.6401210  76.2499390
 128.8981890  29.0916670  76.5207960 128.5460330  30.5057220  76.1105380
 125.0464890  25.7074780  72.1240900 124.1204670  25.9495920  72.1146310
 125.5121320  26.5349040  72.0025650 127.1677690  28.8247280  85.4384970
 127.9690420  29.1459330  85.8520370 126.6529510  28.4642860  86.1604880
 131.2721720  28.8131520  68.0724960 132.0650330  29.1020350  67.6206750
 130.7526070  28.3823690  67.3937440 136.0042320  24.9327150  85.3860380
 135.3980480  24.9558750  84.6456130 135.6996430  24.2010190  85.9227630
 137.4342690  28.6607440  83.9969790 138.3864440  28.5765460  83.9470030
 137.2870910  29.3249150  84.6703580 140.3251890  28.0401650  69.4961700
 140.0393400  27.6266790  68.6815880 140.1271440  28.9689360  69.3762220
 124.8875500  21.3120740  84.3821020 125.3914520  20.7328020  84.9537250
 124.1482920  21.5960970  84.9197390 131.7899120  24.0334930  67.9367310
 131.6849760  23.4187280  68.6628690 131.6223340  23.5100820  67.1530320
 131.9413440  22.7191730  83.9156540 131.1759110  23.2876730  83.8311210
 132.1229400  22.4267940  83.0224770 135.0301850  23.0954960  68.5409300
 134.4811950  23.5424260  69.1852040 135.6521110  22.5904210  69.0646970
 139.0836790  24.4497060  84.4731560 139.8246260  24.7872820  83.9699020
 138.3209470  24.6189120  83.9201330 126.9198580  19.4550330  85.2771090
 126.9603920  19.1564200  86.1856320 127.7744080  19.8557940  85.1178610
 130.6976970  22.0545880  70.4374600 131.1193390  21.8885750  71.2805990
 130.8227810  21.2446110  69.9429740 128.8604390  18.0342430  83.2445580
 128.3300850  17.5433380  82.6168920 129.5292460  18.4626630  82.7103510
 133.2104610  21.0783490  67.6851700 133.7310270  20.3632510  67.3192850
 133.8573010  21.7169360  67.9852210 137.7582450  22.5011890  83.0086770
 138.1723470  22.6556970  83.8577190 136.8233450  22.6267110  83.1712550
 138.2304620  19.8408050  85.0125920 138.8125390  19.0860370  84.9246400
 138.4066390  20.3715490  84.2357400 129.3476690  15.0004800  83.3242870
 129.2533560  14.3825550  82.5993740 128.7674080  15.7271090  83.0972780
 132.1138130  13.5578040  80.3570260 131.6655430  13.5802300  79.5115810
 131.4803330  13.1597060  80.9540560 132.5197680  22.4532370  80.9782700
 132.9385790  23.2965100  80.8058940 131.6006310  22.5904410  80.7489480
 134.8561580  20.1848550  82.3620540 134.9757790  19.5889690  83.1015380
 135.7155580  20.2218240  81.9421840 137.1949480  20.7385740  80.9383050
 136.6684700  21.2628360  80.3348190 137.5380820  21.3713130  81.5692780
 129.5935870  18.1279110  67.3832760 129.3924930  17.2646470  67.7446100
 129.4227920  18.0412470  66.4454360 130.3705100  28.7585380  82.0940430
 129.8326190  29.4831440  81.7749130 130.6239060  28.2815720  81.3037770
 131.6230350  16.7269900  83.6196360 132.2130040  16.4185750  84.3074180
 130.8050590  16.2549650  83.7756260 136.4423780  16.3435710  83.8529380
 135.7539300  15.6817250  83.7879370 137.1629800  15.8973980  84.2977840
 137.0724180  12.9387340  69.9119640 137.3526470  12.0955240  70.2679060
 136.2989910  13.1710450  70.4258390 128.3918670  15.2279730  67.3710640
 128.6944570  15.2347160  66.4629790 129.1313260  14.8777590  67.8678300
 133.2267310  29.9936590  82.3527080 133.1526010  30.8971730  82.6599450
 132.3246150  29.6748490  82.3249150 131.6103600  14.1714350  68.3566840
 131.2625600  13.4938340  67.7769290 131.8116370  13.7103860  69.1710230
 133.7752640  29.1595100  69.9753440 134.6703430  29.4980070  69.9972200
 133.8070270  28.4374510  69.3477720 127.4148800  24.5322150  68.2040440
 127.8523670  25.0751820  68.8598020 127.8996530  23.7069100  68.2136780
 124.6294600  27.3211180  75.6560700 124.9597610  26.4532240  75.4239340
 125.0585600  27.5269700  76.4865660 129.2256520  25.6520190  73.3162670
 128.9252060  25.5285160  74.2166580 129.1194010  24.7928780  72.9078400
 125.1184810  28.1881770  78.3942330 124.6815800  28.3682570  79.2266480
 125.6862490  28.9456390  78.2524050 140.7546990  27.6898770  82.6819640
 140.1548980  27.7491330  81.9383560 140.8840890  26.7503750  82.8116490
 141.9948440  25.4316590  68.0189350 141.1641400  25.4993240  68.4896580
 142.1720270  26.3220710  67.7156210 141.4504900  22.1764070  70.5223550
 142.2123810  22.7460720  70.6283240 141.4659270  21.6091270  71.2931860
 124.9509240  20.7002000  74.7531210 124.2958080  20.4313640  74.1090910
 125.7887190  20.5906480  74.3033190 142.4564870  23.0314170  75.3665480
 142.8273700  22.2481490  74.9601450 143.0966800  23.7203270  75.1882780
 139.4398630  24.4150750  80.7795800 138.6258470  24.8447910  81.0421590
 139.8472830  25.0269160  80.1664850 141.5024070  22.4698440  67.6796070
 141.7772910  23.3777320  67.5515290 141.3134810  22.4060970  68.6158060
 137.8999680  15.4943290  68.9749700 138.3184560  15.3074270  68.1346360
 137.5935740  14.6422340  69.2852630 141.3989410  20.4067430  72.6725500
 141.0233010  19.6395360  72.2406790 140.6692530  20.7890130  73.1600430
 125.9885170  21.0854570  79.2934550 126.3558210  20.9981970  80.1730570
 125.4195990  20.3221120  79.1941410 140.7889030  19.5538950  82.3065020
 140.5575120  19.3251700  81.4062970 141.0493580  20.4738500  82.2609910
 125.5401170  17.9963660  83.1992970 124.6457220  17.9630420  83.5386680
 126.0798720  18.1950450  83.9644220 139.2277100  14.7795380  85.0844720
 140.1047280  14.7878780  85.4678720 139.2397940  14.0426220  84.4737070
 124.1647320  17.9100930  70.6956540 123.2611400  18.1731130  70.5208200
 124.6487940  18.1812100  69.9156500 140.6740370  18.6324920  75.9732740
 141.1977850  18.1387570  75.3422910 141.2599790  18.7675280  76.7180310
 140.8530090  18.7164790  79.4952290 139.9032800  18.6828330  79.6097280
 141.0343100  19.6264900  79.2602060 126.7074530  16.9666470  68.6050920
 127.4166230  16.5449690  68.1198200 125.9914470  17.0341700  67.9734270
 126.3548690  13.0205800  67.6453570 127.0776820  13.5614740  67.9634790
 126.6273210  12.7469220  66.7695110 140.1640340  17.8898270  71.9125150
 140.6599460  17.6569140  72.6974030 139.9656410  17.0510110  71.4962790
 126.0440880  12.2711990  77.5476190 126.6917070  11.7209370  77.1071350
 126.4642720  12.5255140  78.3692000 141.5927500  16.5259220  74.4462830
 141.4826780  16.3715260  75.3845100 142.3535090  15.9980160  74.2038240
 139.9393220  12.4653350  80.9045830 140.5765440  13.0787490  81.2705020
 140.0868110  12.5014010  79.9595060 142.4817770  14.3567140  67.6868970
 143.4067080  14.2248320  67.4787260 142.4593560  14.4359960  68.6405420
 142.5556260  15.1277800  70.3125680 141.7607760  15.0622920  70.8418590
 142.7599540  16.0628440  70.3011030 139.4974680  29.1669350  74.3064070
 140.0933750  28.8453920  73.6298490 139.7552830  28.6941170  75.0977340
 125.7972880  12.4267660  80.2901510 125.4487700  12.8831480  81.0559690
 125.4660580  11.5324790  80.3723940 127.4037250  25.5987260  84.4554700
 127.3606880  25.2280170  85.3369160 127.5348260  26.5364830  84.5956520
 131.1043280  27.1546850  80.0564420 130.8634640  27.4221410  79.1694940
 132.0445920  27.3252580  80.1115280 133.3097700  13.6179540  83.8120930
 133.2486590  14.2101370  84.5616340 134.2498080  13.5105500  83.6671190
 135.9472260  13.2749600  83.4513220 136.5612670  13.5928890  82.7894300
 136.4921820  12.7898190  84.0709080 142.3647440  29.1741230  80.8575060
 141.8705720  29.5710100  80.1402190 141.7560730  28.5490440  81.2512340
 126.4693520  11.9543860  83.5652280 127.0176510  11.7731910  82.8018390
 126.5348830  11.1637970  84.1008590 127.2425280  28.5449510  81.5752480
 126.6485600  28.4134210  82.3142520 127.2349120  27.7087650  81.1094580
 136.6880300  11.8381740  79.7782510 135.8140140  12.1716850  79.5755440
 136.5791050  11.3654920  80.6034380 137.5952280  14.0452610  81.1624230
 137.2665640  13.2304370  80.7825960 138.5434580  14.0022420  81.0389920
 140.0486890  29.8164650  78.1361800 139.5889860  30.5680460  77.7619820
 139.4199350  29.0971120  78.0776600 126.8737510  25.9107890  80.5260520
 126.1471570  25.2913180  80.4586470 126.9346660  26.3048500  79.6558600
 130.4782610  28.1252890  77.3109930 130.9947630  27.5140250  76.7858190
 131.1279990  28.6281670  77.8020940 133.2178110  29.0161380  78.1378910
 133.5055920  28.7615680  77.2611920 133.7301330  28.4638740  78.7284480
 134.4355120  12.7551580  78.7175420 133.6526910  13.2297080  78.9972180
 134.1418050  11.8506410  78.6088600 138.9876190  13.4574680  76.7624510
 139.4284280  13.4019780  75.9146110 138.7183780  14.3732690  76.8334690
 140.8514760  13.0889920  74.7733330 140.7903160  12.1451140  74.6264350
 141.6306790  13.1970010  75.3186790 125.1567510  29.2282280  73.7357280
 124.9889550  28.5952960  74.4339170 124.2902020  29.4341680  73.3851470
 125.7795530  13.0599060  71.2389140 126.5374890  13.1727940  70.6653170
 125.3172700  13.8968260  71.1932570 132.3209340  15.1738330  74.2291450
 131.5083850  14.7995220  73.8887330 132.8250980  14.4183410  74.5312640
 136.8234320  11.8380780  75.4674520 137.4263690  12.4100990  75.9423040
 136.0827310  12.4020220  75.2448420 139.9668920  12.2402340  70.7414800
 140.1619550  13.1385790  71.0082230 139.1798790  12.0089420  71.2347750
 126.7630210  27.9215510  71.1807420 126.2377830  28.3023540  70.4769380
 126.6874790  28.5466280  71.9017130 128.1520680  13.5863110  69.7791110
 128.6813440  12.7992910  69.6499060 128.7849000  14.2654300  70.0126640
 130.3458520  13.3238250  72.8336500 129.7161260  12.6225560  73.0006630
 129.8063660  14.0842380  72.6169660 133.2850470  29.9377480  85.5047110
 134.2117780  29.7021750  85.5483070 133.2700900  30.7649480  85.0233140
 141.5195530  29.4803050  72.5021360 141.6947720  28.7940790  71.8582280
 140.8217100  30.0050100  72.1098030 130.4714080  12.6022230  85.2688990
 130.1898350  13.1055830  84.5049810 130.8533780  11.8043980  84.9031120
 129.3623180  29.8697890  70.0556670 130.0942000  29.5857170  69.5080560
 129.6216850  29.6311170  70.9456050 128.5237970  25.9862620  70.0603000
 127.8946850  26.4547720  70.6088830 128.6385800  25.1411840  70.4949190
 137.0729540  12.0175810  85.8469460 136.9594990  12.3370420  86.7420980
 137.8899280  12.4188320  85.5506740 139.8528030  29.1647340  85.3288150
 140.6453350  28.6696570  85.1214110 140.1461180  29.8437480  85.9363760
 135.9787690  20.0368280  56.2104200 135.8981740  19.1222890  55.9395910
 135.5652110  20.5335350  55.5043910 134.1105730  21.8147300  58.0913470
 133.3347830  21.3347740  58.3812040 134.7618660  21.1352950  57.9169630
 128.1271560  22.1267110  58.9689230 127.2956440  21.8715820  59.3685740
 128.7352540  22.1977880  59.7047150 138.1313160  26.2207490  56.8712600
 137.6694690  25.4494730  57.1999770 138.9438710  26.2473560  57.3765050
 128.1072820  26.1607200  59.1647250 128.4100860  25.2704940  58.9857470
 128.8516410  26.7177420  58.9369500 126.5363510  17.0869000  52.7531620
 125.6480210  17.4284970  52.6511500 126.8204700  16.8869320  51.8612450
 124.4996520  19.6874650  58.6371320 125.0712630  18.9196850  58.6374960
 124.4998060  19.9863410  57.7277930 134.3576470  28.5065500  56.4916590
 133.7387910  28.9623000  55.9211030 135.2128250  28.6616960  56.0906290
 133.5514720  24.4904490  58.0983630 133.4823000  23.5494430  57.9372760
 134.3134580  24.5805900  58.6706200 125.7421390  15.0959010  60.4240250
 125.5624230  14.1984760  60.7043010 125.3401470  15.6430880  61.0987200
 134.5819890  17.2974870  58.3252560 134.9584710  16.4246750  58.2126230
 134.4839400  17.6333570  57.4343000 128.7124900  15.6700500  53.7870000
 128.8191650  16.5704230  54.0938760 127.8017260  15.6218470  53.4964650
 138.3644010  14.7925310  55.2580900 139.1853630  14.3021880  55.3006380
 138.3978090  15.3822970  56.0112740 126.3608060  17.5919510  59.0322590
 127.0418170  17.8557880  59.6509990 126.0456110  16.7520380  59.3660600
 130.5532630  18.6386870  58.1195180 131.0610850  19.1367840  58.7600200
 131.0845870  17.8622070  57.9434540 142.6543560  16.8092060  61.8224530
 141.9495730  17.1973770  61.3039640 142.9201480  17.5042350  62.4245460
 128.8368730  13.2785430  62.3858600 128.8387170  13.7957820  61.5804500
 128.0073040  12.8015610  62.3628530 135.2239820  23.3904740  53.8848500
 134.6057090  23.8554190  53.3211220 135.7363070  24.0832220  54.3018010
 130.0871580  22.9180610  60.5632100 129.7540960  23.5449530  61.2053170
 130.2638260  23.4442490  59.7833770 138.6005490  16.7325690  58.0308440
 137.8961060  17.0210580  58.6111550 138.9617650  17.5425800  57.6708000
 128.5184060  14.9895390  60.3929050 128.8600870  15.8337440  60.0982920
 127.5799870  15.1379130  60.5094390 129.2990680  24.8861410  62.3781280
 129.9164680  25.5612490  62.0965730 128.4383800  25.2949390  62.2868780
 124.5923020  24.0761270  51.2588130 124.2151000  24.5648370  50.5273030
 124.8496090  24.7486550  51.8894660 140.2168270  26.3500820  60.2935920
 139.5331790  27.0199930  60.2852590 140.7562560  26.5481470  59.5280780
 141.6692410  16.1780480  58.4217650 140.7217320  16.2119460  58.5533080
 141.9942400  16.9919430  58.8067010 132.2011950  12.4777660  56.7173640
 132.5086930  11.9224550  56.0009140 131.2712650  12.6122120  56.5346630
 137.7527010  28.1944950  59.0081100 137.7654170  27.7907240  58.1403360
 137.2002230  28.9692240  58.9042530 139.0472430  24.9161170  54.0971270
 138.9368760  23.9735500  54.2220690 139.0440680  25.2776810  54.9834030
 137.1512450  23.0974790  60.3363710 137.5681240  22.8834900  59.5017170
 137.8752270  23.3547580  60.9072330 134.5892710  20.5426490  53.4533760
 133.6621990  20.4763870  53.6822230 134.7417530  21.4806620  53.3389000
 134.5761790  16.8143490  50.4500920 133.6365460  16.9757450  50.5353380
 134.8945050  17.5329170  49.9036910 141.0974550  21.4962010  60.4279950
 140.2693180  21.5655100  59.9530080 141.6925030  22.0816320  59.9595780
 138.6190000  22.1046790  53.9569010 138.0002420  21.7666340  53.3095310
 138.6014450  21.4606550  54.6648200 138.0616560  18.2831330  61.3734820
 137.6487740  19.1085040  61.6274810 137.3292510  17.6976370  61.1811180
 130.1949350  21.0691230  56.2353490 129.7906350  20.3568480  55.7399390
 130.2812470  20.7244470  57.1241530 130.6631050  24.7558790  58.3992700
 130.3659340  24.1504260  57.7200480 131.6130870  24.7936100  58.2882060
 128.9077970  17.8434440  60.0152530 129.4592560  17.9529780  59.2405780
 129.4221480  18.2172040  60.7307760 138.7516660  28.3290660  62.0615800
 138.2747220  29.1362850  61.8688410 138.0678450  27.6768990  62.2142010
 129.7549480  24.4940480  65.0500500 128.8578010  24.7180450  65.2973900
 129.7802350  24.6175420  64.1011900 136.7954700  21.3433600  50.9641760
 137.2347980  20.5056030  50.8179580 137.5083120  21.9763000  51.0505900
 128.5820700  21.3653800  63.6257870 128.4428470  22.2376600  63.9945270
 127.7002060  21.0226610  63.4805810 134.9050080  26.2829670  54.9323000
 135.3445990  27.0254000  54.5178390 134.8436970  26.5256240  55.8561960
 130.3801050  27.3075500  65.8343020 130.3516480  27.7118450  64.9671450
 130.2166020  26.3785860  65.6714620 140.3771840  12.5976410  49.2782800
 140.0644500  12.6903240  50.1781870 141.1384310  13.1757440  49.2280230
 126.8953980  19.9636210  53.7360140 126.7751580  20.6898300  53.1241410
 126.5854870  19.1939120  53.2588050 142.3315870  28.0902600  67.1307190
 142.8075590  28.5685490  67.8096270 142.9523030  28.0220090  66.4052690
 124.5339350  23.1351350  59.5428780 124.6119770  23.2700120  58.5984500
 125.1481030  22.4267240  59.7356900 125.7786980  24.8351540  55.9534960
 125.3715060  24.9766130  55.0988560 126.6699990  24.5511700  55.7506170
 141.7349120  25.2815450  64.2907200 141.8612180  25.0427330  63.3724380
 141.7770500  24.4499990  64.7629280 135.5965860  28.9843450  62.8602010
 136.1110530  28.8951460  63.6624440 134.7534940  29.3303150  63.1529920
 137.5720260  29.2698790  52.2886010 137.4121400  28.9801730  53.1867840
 137.4066970  28.4938920  51.7531240 130.0508640  29.0497320  54.0657630
 129.8751120  28.1332860  53.8525430 129.1964380  29.4084610  54.3055430
 137.2746390  26.7786350  50.8484010 136.5811550  26.7763640  50.1886290
 138.0169250  26.3545670  50.4178180 136.8396320  28.4049060  54.9232500
 137.2953270  27.6238440  55.2371120 137.1788840  29.1155880  55.4673680
 141.5873130  17.3347910  65.2556940 140.9717400  17.8427580  64.7272400
 141.2669550  16.4346240  65.1982880 124.5898870  24.1765520  62.0823240
 124.7529910  23.7070880  61.2642610 125.0551320  23.6689080  62.7472080
 129.3617640  13.3071280  57.1183810 128.9185790  14.0880820  56.7868330
 129.9202630  13.6301170  57.8254750 133.6487450  16.1739800  62.7219130
 133.1866820  16.3822820  63.5339070 133.2465560  15.3599150  62.4189800
 138.6491960  17.3948750  63.8515790 137.7985550  17.0954500  64.1724860
 138.4893750  17.6390760  62.9399610 135.7441670  18.8950500  65.9514580
 136.0695080  18.0614250  65.6116810 136.5322000  19.4179020  66.0992910
 132.4776460  12.9281980  51.9989640 131.8530640  12.9241850  52.7242950
 132.3906580  12.0612940  51.6025610 131.3993540  13.8518610  58.9773410
 131.6965870  14.7581440  58.8965430 131.9479100  13.3637390  58.3632980
 129.1531860  18.4304850  54.8465060 128.9272780  18.2142020  55.7511680
 128.3724390  18.8633310  54.5011030 136.3829620  18.4368220  53.4455710
 135.7838510  19.1604020  53.2619330 136.9309230  18.3745000  52.6632160
 131.5931070  19.3290430  65.5125330 131.4974670  18.3885160  65.3625730
 132.4363050  19.5505500  65.1173400 134.9894490  17.0731760  55.4758990
 135.3824060  17.3903960  54.6627680 135.3511340  16.1943640  55.5903510
 126.7241610  15.7404100  63.6659110 126.3305000  16.5879310  63.8731890
 126.0360010  15.1030470  63.8567750 133.2986660  15.8239070  66.7355850
 132.6084980  15.6311270  67.3701940 134.0418960  16.1073710  67.2680150
 124.0258660  13.6632560  57.6989190 123.7371710  14.2335420  58.4114170
 124.7704420  13.1837010  58.0620420 124.2128890  17.6052680  48.9091910
 124.1303560  18.5483440  49.0506900 123.8611950  17.4627590  48.0304260
 135.5749630  19.6637510  59.5709770 134.8430750  20.1724320  59.9199870
 135.1773970  18.8467490  59.2698550 132.0127020  16.3391710  57.9762260
 132.0163080  15.8981660  57.1266800 132.9078140  16.6609040  58.0834080
 127.8629400  16.2218200  56.9356470 127.5229450  16.6993430  57.6923520
 127.1006720  15.7683320  56.5757570 132.0747170  17.3403790  50.9669020
 132.1959990  17.2990270  51.9154840 131.6895680  18.2027940  50.8115750
 136.0375540  15.1171190  58.9832710 136.0548280  15.5679840  59.8274560
 135.7891120  14.2176830  59.1966150 131.0868670  19.6504930  50.3652320
 130.5185570  19.2023180  49.7388230 131.7957670  20.0097710  49.8317470
 139.4646290  12.5303370  64.8219090 139.7892060  11.7993030  65.3477070
 139.5002800  12.2117010  63.9200080 126.1637850  23.5516950  64.2419050
 125.7792640  22.9110620  64.8402010 126.4750040  24.2553070  64.8113780
 132.3134990  20.3993490  59.7227670 132.6805120  19.9252060  60.4689010
 132.1240050  21.2735060  60.0636010 125.1775480  15.1437180  55.8521140
 124.8922400  14.7792850  56.6899760 125.1154340  14.4117640  55.2384280
 130.1034360  19.4402130  62.0411880 129.7991430  20.3194110  62.2662240
 131.0580820  19.5001920  62.0769320 128.6316150  23.6463120  52.6378730
 127.8578410  23.1060740  52.4777450 129.3610780  23.1269730  52.2996490
 139.3904130  22.6428480  58.4305120 140.1103250  23.1383770  58.0401230
 139.1885950  21.9646370  57.7858990 134.8514070  14.0366440  52.5734510
 134.0378680  13.5379610  52.4979820 134.6576020  14.8764690  52.1570860
 134.7722930  22.7137540  64.3174120 134.7060240  21.7933210  64.0631710
 134.1428070  22.8112980  65.0318760 137.5662460  18.4086090  50.8696670
 138.4542080  18.7203320  50.6948010 137.5367550  17.5358340  50.4777250
 128.6753550  23.3143500  56.2757540 129.1932220  22.5111760  56.2214430
 128.2237570  23.2522640  57.1174370 133.5623050  24.5809780  51.5484840
 133.9038750  25.3252010  51.0528160 132.7335760  24.8940900  51.9109670
 126.1598090  20.2804870  63.1883240 125.8013030  20.9458720  63.7756580
 125.8652650  19.4488420  63.5595860 129.3611210  20.7389110  66.0722790
 129.0611350  20.8846290  65.1750610 130.1322450  20.1794400  65.9796180
 134.7039660  25.5358110  64.0677920 134.7184200  24.6039070  63.8496830
 133.9964760  25.6217870  64.7067690 139.8376730  19.7197930  50.3376530
 139.7540450  20.1512150  49.4872970 140.5570920  20.1796280  50.7703350
 140.9150870  22.1765450  63.4146500 140.1899060  22.7694230  63.2175890
 141.4426330  22.1688990  62.6159870 140.8663980  26.5740190  53.0658660
 140.2240140  25.9195810  53.3402380 140.4794640  26.9795280  52.2899330
 136.4450460  23.9025620  56.9130350 136.7974280  23.3053750  56.2531720
 135.5612790  23.5769850  57.0838600 132.5313740  24.6623310  54.3200760
 133.2184870  25.2092520  54.7008350 131.7446160  25.2064040  54.3550370
 124.6706140  20.2796130  49.8117840 125.5400990  20.5620930  50.0953760
 124.1796460  21.0932000  49.6966650 131.8340950  21.6669340  53.9326120
 132.2903730  22.4774590  54.1586310 131.4829160  21.3492480  54.7644610
 134.1373560  27.1775680  61.1618420 134.7815780  27.3835060  61.8391840
 134.5003000  26.4164080  60.7089270 127.7352730  12.0106990  54.4048640
 127.6067360  12.0024890  55.3533560 126.9114750  12.3490080  54.0539650
 135.4105640  25.1808030  59.8795870 136.0527870  24.4801190  59.9928040
 135.9354990  25.9606470  59.6992760 139.2561360  25.4656650  49.6035010
 139.0298940  24.7487090  50.1959650 138.8657560  25.2169090  48.7656760
 137.1843260  25.9802930  63.0831930 137.5199500  26.5669620  63.7609850
 136.2643600  25.8495640  63.3129720 125.0377390  29.4923510  50.3779470
 125.3975030  30.0912850  49.7236740 124.8969730  30.0383400  51.1514500
 124.7346660  13.7698110  63.8655340 124.0205180  13.9695030  64.4707950
 125.1541700  12.9937680  64.2370140 138.8377610  23.3828590  51.2649170
 138.5499310  23.8441280  52.0527050 139.6329780  22.9226360  51.5333390
 125.0219250  27.7578370  64.8521870 125.1310370  26.8173110  64.7117260
 124.3699810  28.0233120  64.2035600 133.0131840  26.0294260  66.2519990
 132.6928710  25.3103500  66.7965680 132.3390200  26.7049330  66.3256050
 131.0546010  26.8754710  51.1953140 131.0456110  27.6084400  50.5797650
 130.1344370  26.6286290  51.2880100 126.6552650  22.0969600  51.9399900
 126.0480600  22.8368500  51.9495200 127.1302000  22.1868960  51.1138100
 136.2285440  16.2620420  61.6156790 136.5966260  15.4415630  61.9436360
 135.3683640  16.3222310  62.0312440 139.5947470  15.2177360  52.4244350
 138.9660630  15.3223030  51.7102580 139.0999390  15.4374140  53.2138230
 134.0405610  26.9382950  49.8578330 134.1417590  26.7346940  48.9280310
 133.1407350  26.6841230  50.0626110 131.5631500  17.4963310  53.8402230
 130.8547650  17.9649650  54.2815840 131.8475980  16.8385320  54.4747420
 133.1887430  18.9160010  61.8394760 133.6872680  19.3905830  62.5046610
 133.3310380  17.9923530  62.0464790 135.5946930  14.2213970  55.2798020
 135.4714710  14.2400100  54.3307530 136.5431490  14.2692910  55.3996420
 132.6823720  29.4569270  54.5526000 132.9365220  29.4190660  53.6305370
 131.7336200  29.3302600  54.5454250 129.7666520  15.8048390  51.2152940
 130.6157050  16.2418540  51.1493130 129.3997790  16.1168650  52.0425000
 140.3954290  15.1327970  62.6823150 139.8927890  15.8733370  63.0216960
 141.2110950  15.5211970  62.3659940 138.6876300  20.3761150  56.1284510
 137.7466440  20.3911380  56.3032200 139.0020370  19.5897110  56.5744810
 128.6657940  22.0580750  49.6888470 129.4321210  21.9462110  50.2513900
 128.7432630  21.3618720  49.0365240 127.3604700  19.4905820  50.3721360
 127.4408290  18.5433330  50.4838760 128.2524450  19.8212700  50.4782020
 140.6901880  27.5470000  57.8038770 140.8149300  28.3701170  58.2762580
 141.5567440  27.3360730  57.4562920 128.1619410  29.6401210  57.4755900
 128.8981890  29.0916670  57.7464470 128.5460330  30.5057220  57.3361890
 125.0464890  25.7074780  53.3497410 124.1204670  25.9495920  53.3402820
 125.5121320  26.5349040  53.2282160 127.1677690  28.8247280  66.6641480
 127.9690420  29.1459330  67.0776880 126.6529510  28.4642860  67.3861390
 131.2721720  28.8131520  49.2981470 132.0650330  29.1020350  48.8463260
 130.7526070  28.3823690  48.6193950 136.0042320  24.9327150  66.6116890
 135.3980480  24.9558750  65.8712640 135.6996430  24.2010190  67.1484140
 137.4342690  28.6607440  65.2226300 138.3864440  28.5765460  65.1726540
 137.2870910  29.3249150  65.8960090 140.3251890  28.0401650  50.7218210
 140.0393400  27.6266790  49.9072390 140.1271440  28.9689360  50.6018730
 124.8875500  21.3120740  65.6077530 125.3914520  20.7328020  66.1793760
 124.1482920  21.5960970  66.1453900 131.7899120  24.0334930  49.1623820
 131.6849760  23.4187280  49.8885200 131.6223340  23.5100820  48.3786830
 131.9413440  22.7191730  65.1413050 131.1759110  23.2876730  65.0567720
 132.1229400  22.4267940  64.2481280 135.0301850  23.0954960  49.7665810
 134.4811950  23.5424260  50.4108550 135.6521110  22.5904210  50.2903480
 139.0836790  24.4497060  65.6988070 139.8246260  24.7872820  65.1955530
 138.3209470  24.6189120  65.1457840 126.9198580  19.4550330  66.5027600
 126.9603920  19.1564200  67.4112830 127.7744080  19.8557940  66.3435120
 130.6976970  22.0545880  51.6631110 131.1193390  21.8885750  52.5062500
 130.8227810  21.2446110  51.1686250 128.8604390  18.0342430  64.4702090
 128.3300850  17.5433380  63.8425430 129.5292460  18.4626630  63.9360020
 133.2104610  21.0783490  48.9108210 133.7310270  20.3632510  48.5449360
 133.8573010  21.7169360  49.2108720 137.7582450  22.5011890  64.2343280
 138.1723470  22.6556970  65.0833700 136.8233450  22.6267110  64.3969060
 138.2304620  19.8408050  66.2382430 138.8125390  19.0860370  66.1502910
 138.4066390  20.3715490  65.4613910 129.3476690  15.0004800  64.5499380
 129.2533560  14.3825550  63.8250250 128.7674080  15.7271090  64.3229290
 132.1138130  13.5578040  61.5826770 131.6655430  13.5802300  60.7372320
 131.4803330  13.1597060  62.1797070 132.5197680  22.4532370  62.2039210
 132.9385790  23.2965100  62.0315450 131.6006310  22.5904410  61.9745990
 134.8561580  20.1848550  63.5877050 134.9757790  19.5889690  64.3271890
 135.7155580  20.2218240  63.1678350 137.1949480  20.7385740  62.1639560
 136.6684700  21.2628360  61.5604700 137.5380820  21.3713130  62.7949290
 129.5935870  18.1279110  48.6089270 129.3924930  17.2646470  48.9702610
 129.4227920  18.0412470  47.6710870 130.3705100  28.7585380  63.3196940
 129.8326190  29.4831440  63.0005640 130.6239060  28.2815720  62.5294280
 131.6230350  16.7269900  64.8452870 132.2130040  16.4185750  65.5330690
 130.8050590  16.2549650  65.0012770 136.4423780  16.3435710  65.0785890
 135.7539300  15.6817250  65.0135880 137.1629800  15.8973980  65.5234350
 137.0724180  12.9387340  51.1376150 137.3526470  12.0955240  51.4935570
 136.2989910  13.1710450  51.6514900 128.3918670  15.2279730  48.5967150
 128.6944570  15.2347160  47.6886300 129.1313260  14.8777590  49.0934810
 133.2267310  29.9936590  63.5783590 133.1526010  30.8971730  63.8855960
 132.3246150  29.6748490  63.5505660 131.6103600  14.1714350  49.5823350
 131.2625600  13.4938340  49.0025800 131.8116370  13.7103860  50.3966740
 133.7752640  29.1595100  51.2009950 134.6703430  29.4980070  51.2228710
 133.8070270  28.4374510  50.5734230 127.4148800  24.5322150  49.4296950
 127.8523670  25.0751820  50.0854530 127.8996530  23.7069100  49.4393290
 124.6294600  27.3211180  56.8817210 124.9597610  26.4532240  56.6495850
 125.0585600  27.5269700  57.7122170 129.2256520  25.6520190  54.5419180
 128.9252060  25.5285160  55.4423090 129.1194010  24.7928780  54.1334910
 125.1184810  28.1881770  59.6198840 124.6815800  28.3682570  60.4522990
 125.6862490  28.9456390  59.4780560 140.7546990  27.6898770  63.9076150
 140.1548980  27.7491330  63.1640070 140.8840890  26.7503750  64.0373000
 141.9948440  25.4316590  49.2445860 141.1641400  25.4993240  49.7153090
 142.1720270  26.3220710  48.9412720 141.4504900  22.1764070  51.7480060
 142.2123810  22.7460720  51.8539750 141.4659270  21.6091270  52.5188370
 124.9509240  20.7002000  55.9787720 124.2958080  20.4313640  55.3347420
 125.7887190  20.5906480  55.5289700 142.4564870  23.0314170  56.5921990
 142.8273700  22.2481490  56.1857960 143.0966800  23.7203270  56.4139290
 139.4398630  24.4150750  62.0052310 138.6258470  24.8447910  62.2678100
 139.8472830  25.0269160  61.3921360 141.5024070  22.4698440  48.9052580
 141.7772910  23.3777320  48.7771800 141.3134810  22.4060970  49.8414570
 137.8999680  15.4943290  50.2006210 138.3184560  15.3074270  49.3602870
 137.5935740  14.6422340  50.5109140 141.3989410  20.4067430  53.8982010
 141.0233010  19.6395360  53.4663300 140.6692530  20.7890130  54.3856940
 125.9885170  21.0854570  60.5191060 126.3558210  20.9981970  61.3987080
 125.4195990  20.3221120  60.4197920 140.7889030  19.5538950  63.5321530
 140.5575120  19.3251700  62.6319480 141.0493580  20.4738500  63.4866420
 125.5401170  17.9963660  64.4249480 124.6457220  17.9630420  64.7643190
 126.0798720  18.1950450  65.1900730 139.2277100  14.7795380  66.3101230
 140.1047280  14.7878780  66.6935230 139.2397940  14.0426220  65.6993580
 124.1647320  17.9100930  51.9213050 123.2611400  18.1731130  51.7464710
 124.6487940  18.1812100  51.1413010 140.6740370  18.6324920  57.1989250
 141.1977850  18.1387570  56.5679420 141.2599790  18.7675280  57.9436820
 140.8530090  18.7164790  60.7208800 139.9032800  18.6828330  60.8353790
 141.0343100  19.6264900  60.4858570 126.7074530  16.9666470  49.8307430
 127.4166230  16.5449690  49.3454710 125.9914470  17.0341700  49.1990780
 126.3548690  13.0205800  48.8710080 127.0776820  13.5614740  49.1891300
 126.6273210  12.7469220  47.9951620 140.1640340  17.8898270  53.1381660
 140.6599460  17.6569140  53.9230540 139.9656410  17.0510110  52.7219300
 126.0440880  12.2711990  58.7732700 126.6917070  11.7209370  58.3327860
 126.4642720  12.5255140  59.5948510 141.5927500  16.5259220  55.6719340
 141.4826780  16.3715260  56.6101610 142.3535090  15.9980160  55.4294750
 139.9393220  12.4653350  62.1302340 140.5765440  13.0787490  62.4961530
 140.0868110  12.5014010  61.1851570 142.4817770  14.3567140  48.9125480
 143.4067080  14.2248320  48.7043770 142.4593560  14.4359960  49.8661930
 142.5556260  15.1277800  51.5382190 141.7607760  15.0622920  52.0675100
 142.7599540  16.0628440  51.5267540 139.4974680  29.1669350  55.5320580
 140.0933750  28.8453920  54.8555000 139.7552830  28.6941170  56.3233850
 125.7972880  12.4267660  61.5158020 125.4487700  12.8831480  62.2816200
 125.4660580  11.5324790  61.5980450 127.4037250  25.5987260  65.6811210
 127.3606880  25.2280170  66.5625670 127.5348260  26.5364830  65.8213030
 131.1043280  27.1546850  61.2820930 130.8634640  27.4221410  60.3951450
 132.0445920  27.3252580  61.3371790 133.3097700  13.6179540  65.0377440
 133.2486590  14.2101370  65.7872850 134.2498080  13.5105500  64.8927700
 135.9472260  13.2749600  64.6769730 136.5612670  13.5928890  64.0150810
 136.4921820  12.7898190  65.2965590 142.3647440  29.1741230  62.0831570
 141.8705720  29.5710100  61.3658700 141.7560730  28.5490440  62.4768850
 126.4693520  11.9543860  64.7908790 127.0176510  11.7731910  64.0274900
 126.5348830  11.1637970  65.3265100 127.2425280  28.5449510  62.8008990
 126.6485600  28.4134210  63.5399030 127.2349120  27.7087650  62.3351090
 136.6880300  11.8381740  61.0039020 135.8140140  12.1716850  60.8011950
 136.5791050  11.3654920  61.8290890 137.5952280  14.0452610  62.3880740
 137.2665640  13.2304370  62.0082470 138.5434580  14.0022420  62.2646430
 140.0486890  29.8164650  59.3618310 139.5889860  30.5680460  58.9876330
 139.4199350  29.0971120  59.3033110 126.8737510  25.9107890  61.7517030
 126.1471570  25.2913180  61.6842980 126.9346660  26.3048500  60.8815110
 130.4782610  28.1252890  58.5366440 130.9947630  27.5140250  58.0114700
 131.1279990  28.6281670  59.0277450 133.2178110  29.0161380  59.3635420
 133.5055920  28.7615680  58.4868430 133.7301330  28.4638740  59.9540990
 134.4355120  12.7551580  59.9431930 133.6526910  13.2297080  60.2228690
 134.1418050  11.8506410  59.8345110 138.9876190  13.4574680  57.9881020
 139.4284280  13.4019780  57.1402620 138.7183780  14.3732690  58.0591200
 140.8514760  13.0889920  55.9989840 140.7903160  12.1451140  55.8520860
 141.6306790  13.1970010  56.5443300 125.1567510  29.2282280  54.9613790
 124.9889550  28.5952960  55.6595680 124.2902020  29.4341680  54.6107980
 125.7795530  13.0599060  52.4645650 126.5374890  13.1727940  51.8909680
 125.3172700  13.8968260  52.4189080 132.3209340  15.1738330  55.4547960
 131.5083850  14.7995220  55.1143840 132.8250980  14.4183410  55.7569150
 136.8234320  11.8380780  56.6931030 137.4263690  12.4100990  57.1679550
 136.0827310  12.4020220  56.4704930 139.9668920  12.2402340  51.9671310
 140.1619550  13.1385790  52.2338740 139.1798790  12.0089420  52.4604260
 126.7630210  27.9215510  52.4063930 126.2377830  28.3023540  51.7025890
 126.6874790  28.5466280  53.1273640 128.1520680  13.5863110  51.0047620
 128.6813440  12.7992910  50.8755570 128.7849000  14.2654300  51.2383150
 130.3458520  13.3238250  54.0593010 129.7161260  12.6225560  54.2263140
 129.8063660  14.0842380  53.8426170 133.2850470  29.9377480  66.7303620
 134.2117780  29.7021750  66.7739580 133.2700900  30.7649480  66.2489650
 141.5195530  29.4803050  53.7277870 141.6947720  28.7940790  53.0838790
 140.8217100  30.0050100  53.3354540 130.4714080  12.6022230  66.4945500
 130.1898350  13.1055830  65.7306320 130.8533780  11.8043980  66.1287630
 129.3623180  29.8697890  51.2813180 130.0942000  29.5857170  50.7337070
 129.6216850  29.6311170  52.1712560 128.5237970  25.9862620  51.2859510
 127.8946850  26.4547720  51.8345340 128.6385800  25.1411840  51.7205700
 137.0729540  12.0175810  67.0725970 136.9594990  12.3370420  67.9677490
 137.8899280  12.4188320  66.7763250 139.8528030  29.1647340  66.5544660
 140.6453350  28.6696570  66.3470620 140.1461180  29.8437480  67.1620270
 135.9787690  20.0368280  37.4360710 135.8981740  19.1222890  37.1652420
 135.5652110  20.5335350  36.7300420 134.1105730  21.8147300  39.3169980
 133.3347830  21.3347740  39.6068550 134.7618660  21.1352950  39.1426140
 128.1271560  22.1267110  40.1945740 127.2956440  21.8715820  40.5942250
 128.7352540  22.1977880  40.9303660 138.1313160  26.2207490  38.0969110
 137.6694690  25.4494730  38.4256280 138.9438710  26.2473560  38.6021560
 128.1072820  26.1607200  40.3903760 128.4100860  25.2704940  40.2113980
 128.8516410  26.7177420  40.1626010 126.5363510  17.0869000  33.9788130
 125.6480210  17.4284970  33.8768010 126.8204700  16.8869320  33.0868960
 124.4996520  19.6874650  39.8627830 125.0712630  18.9196850  39.8631470
 124.4998060  19.9863410  38.9534440 134.3576470  28.5065500  37.7173100
 133.7387910  28.9623000  37.1467540 135.2128250  28.6616960  37.3162800
 133.5514720  24.4904490  39.3240140 133.4823000  23.5494430  39.1629270
 134.3134580  24.5805900  39.8962710 125.7421390  15.0959010  41.6496760
 125.5624230  14.1984760  41.9299520 125.3401470  15.6430880  42.3243710
 134.5819890  17.2974870  39.5509070 134.9584710  16.4246750  39.4382740
 134.4839400  17.6333570  38.6599510 128.7124900  15.6700500  35.0126510
 128.8191650  16.5704230  35.3195270 127.8017260  15.6218470  34.7221160
 138.3644010  14.7925310  36.4837410 139.1853630  14.3021880  36.5262890
 138.3978090  15.3822970  37.2369250 126.3608060  17.5919510  40.2579100
 127.0418170  17.8557880  40.8766500 126.0456110  16.7520380  40.5917110
 130.5532630  18.6386870  39.3451690 131.0610850  19.1367840  39.9856710
 131.0845870  17.8622070  39.1691050 142.6543560  16.8092060  43.0481040
 141.9495730  17.1973770  42.5296150 142.9201480  17.5042350  43.6501970
 128.8368730  13.2785430  43.6115110 128.8387170  13.7957820  42.8061010
 128.0073040  12.8015610  43.5885040 135.2239820  23.3904740  35.1105010
 134.6057090  23.8554190  34.5467730 135.7363070  24.0832220  35.5274520
 130.0871580  22.9180610  41.7888610 129.7540960  23.5449530  42.4309680
 130.2638260  23.4442490  41.0090280 138.6005490  16.7325690  39.2564950
 137.8961060  17.0210580  39.8368060 138.9617650  17.5425800  38.8964510
 128.5184060  14.9895390  41.6185560 128.8600870  15.8337440  41.3239430
 127.5799870  15.1379130  41.7350900 129.2990680  24.8861410  43.6037790
 129.9164680  25.5612490  43.3222240 128.4383800  25.2949390  43.5125290
 124.5923020  24.0761270  32.4844640 124.2151000  24.5648370  31.7529540
 124.8496090  24.7486550  33.1151170 140.2168270  26.3500820  41.5192430
 139.5331790  27.0199930  41.5109100 140.7562560  26.5481470  40.7537290
 141.6692410  16.1780480  39.6474160 140.7217320  16.2119460  39.7789590
 141.9942400  16.9919430  40.0323520 132.2011950  12.4777660  37.9430150
 132.5086930  11.9224550  37.2265650 131.2712650  12.6122120  37.7603140
 137.7527010  28.1944950  40.2337610 137.7654170  27.7907240  39.3659870
 137.2002230  28.9692240  40.1299040 139.0472430  24.9161170  35.3227780
 138.9368760  23.9735500  35.4477200 139.0440680  25.2776810  36.2090540
 137.1512450  23.0974790  41.5620220 137.5681240  22.8834900  40.7273680
 137.8752270  23.3547580  42.1328840 134.5892710  20.5426490  34.6790270
 133.6621990  20.4763870  34.9078740 134.7417530  21.4806620  34.5645510
 134.5761790  16.8143490  31.6757430 133.6365460  16.9757450  31.7609890
 134.8945050  17.5329170  31.1293420 141.0974550  21.4962010  41.6536460
 140.2693180  21.5655100  41.1786590 141.6925030  22.0816320  41.1852290
 138.6190000  22.1046790  35.1825520 138.0002420  21.7666340  34.5351820
 138.6014450  21.4606550  35.8904710 138.0616560  18.2831330  42.5991330
 137.6487740  19.1085040  42.8531320 137.3292510  17.6976370  42.4067690
 130.1949350  21.0691230  37.4610000 129.7906350  20.3568480  36.9655900
 130.2812470  20.7244470  38.3498040 130.6631050  24.7558790  39.6249210
 130.3659340  24.1504260  38.9456990 131.6130870  24.7936100  39.5138570
 128.9077970  17.8434440  41.2409040 129.4592560  17.9529780  40.4662290
 129.4221480  18.2172040  41.9564270 138.7516660  28.3290660  43.2872310
 138.2747220  29.1362850  43.0944920 138.0678450  27.6768990  43.4398520
 129.7549480  24.4940480  46.2757010 128.8578010  24.7180450  46.5230410
 129.7802350  24.6175420  45.3268410 136.7954700  21.3433600  32.1898270
 137.2347980  20.5056030  32.0436090 137.5083120  21.9763000  32.2762410
 128.5820700  21.3653800  44.8514380 128.4428470  22.2376600  45.2201780
 127.7002060  21.0226610  44.7062320 134.9050080  26.2829670  36.1579510
 135.3445990  27.0254000  35.7434900 134.8436970  26.5256240  37.0818470
 130.3801050  27.3075500  47.0599530 130.3516480  27.7118450  46.1927960
 130.2166020  26.3785860  46.8971130 140.3771840  12.5976410  30.5039310
 140.0644500  12.6903240  31.4038380 141.1384310  13.1757440  30.4536740
 126.8953980  19.9636210  34.9616650 126.7751580  20.6898300  34.3497920
 126.5854870  19.1939120  34.4844560 142.3315870  28.0902600  48.3563700
 142.8075590  28.5685490  49.0352780 142.9523030  28.0220090  47.6309200
 124.5339350  23.1351350  40.7685290 124.6119770  23.2700120  39.8241010
 125.1481030  22.4267240  40.9613410 125.7786980  24.8351540  37.1791470
 125.3715060  24.9766130  36.3245070 126.6699990  24.5511700  36.9762680
 141.7349120  25.2815450  45.5163710 141.8612180  25.0427330  44.5980890
 141.7770500  24.4499990  45.9885790 135.5965860  28.9843450  44.0858520
 136.1110530  28.8951460  44.8880950 134.7534940  29.3303150  44.3786430
 137.5720260  29.2698790  33.5142520 137.4121400  28.9801730  34.4124350
 137.4066970  28.4938920  32.9787750 130.0508640  29.0497320  35.2914140
 129.8751120  28.1332860  35.0781940 129.1964380  29.4084610  35.5311940
 137.2746390  26.7786350  32.0740520 136.5811550  26.7763640  31.4142800
 138.0169250  26.3545670  31.6434690 136.8396320  28.4049060  36.1489010
 137.2953270  27.6238440  36.4627630 137.1788840  29.1155880  36.6930190
 141.5873130  17.3347910  46.4813450 140.9717400  17.8427580  45.9528910
 141.2669550  16.4346240  46.4239390 124.5898870  24.1765520  43.3079750
 124.7529910  23.7070880  42.4899120 125.0551320  23.6689080  43.9728590
 129.3617640  13.3071280  38.3440320 128.9185790  14.0880820  38.0124840
 129.9202630  13.6301170  39.0511260 133.6487450  16.1739800  43.9475640
 133.1866820  16.3822820  44.7595580 133.2465560  15.3599150  43.6446310
 138.6491960  17.3948750  45.0772300 137.7985550  17.0954500  45.3981370
 138.4893750  17.6390760  44.1656120 135.7441670  18.8950500  47.1771090
 136.0695080  18.0614250  46.8373320 136.5322000  19.4179020  47.3249420
 132.4776460  12.9281980  33.2246150 131.8530640  12.9241850  33.9499460
 132.3906580  12.0612940  32.8282120 131.3993540  13.8518610  40.2029920
 131.6965870  14.7581440  40.1221940 131.9479100  13.3637390  39.5889490
 129.1531860  18.4304850  36.0721570 128.9272780  18.2142020  36.9768190
 128.3724390  18.8633310  35.7267540 136.3829620  18.4368220  34.6712220
 135.7838510  19.1604020  34.4875840 136.9309230  18.3745000  33.8888670
 131.5931070  19.3290430  46.7381840 131.4974670  18.3885160  46.5882240
 132.4363050  19.5505500  46.3429910 134.9894490  17.0731760  36.7015500
 135.3824060  17.3903960  35.8884190 135.3511340  16.1943640  36.8160020
 126.7241610  15.7404100  44.8915620 126.3305000  16.5879310  45.0988400
 126.0360010  15.1030470  45.0824260 133.2986660  15.8239070  47.9612360
 132.6084980  15.6311270  48.5958450 134.0418960  16.1073710  48.4936660
 124.0258660  13.6632560  38.9245700 123.7371710  14.2335420  39.6370680
 124.7704420  13.1837010  39.2876930 124.2128890  17.6052680  30.1348420
 124.1303560  18.5483440  30.2763410 123.8611950  17.4627590  29.2560770
 135.5749630  19.6637510  40.7966280 134.8430750  20.1724320  41.1456380
 135.1773970  18.8467490  40.4955060 132.0127020  16.3391710  39.2018770
 132.0163080  15.8981660  38.3523310 132.9078140  16.6609040  39.3090590
 127.8629400  16.2218200  38.1612980 127.5229450  16.6993430  38.9180030
 127.1006720  15.7683320  37.8014080 132.0747170  17.3403790  32.1925530
 132.1959990  17.2990270  33.1411350 131.6895680  18.2027940  32.0372260
 136.0375540  15.1171190  40.2089220 136.0548280  15.5679840  41.0531070
 135.7891120  14.2176830  40.4222660 131.0868670  19.6504930  31.5908830
 130.5185570  19.2023180  30.9644740 131.7957670  20.0097710  31.0573980
 139.4646290  12.5303370  46.0475600 139.7892060  11.7993030  46.5733580
 139.5002800  12.2117010  45.1456590 126.1637850  23.5516950  45.4675560
 125.7792640  22.9110620  46.0658520 126.4750040  24.2553070  46.0370290
 132.3134990  20.3993490  40.9484180 132.6805120  19.9252060  41.6945520
 132.1240050  21.2735060  41.2892520 125.1775480  15.1437180  37.0777650
 124.8922400  14.7792850  37.9156270 125.1154340  14.4117640  36.4640790
 130.1034360  19.4402130  43.2668390 129.7991430  20.3194110  43.4918750
 131.0580820  19.5001920  43.3025830 128.6316150  23.6463120  33.8635240
 127.8578410  23.1060740  33.7033960 129.3610780  23.1269730  33.5253000
 139.3904130  22.6428480  39.6561630 140.1103250  23.1383770  39.2657740
 139.1885950  21.9646370  39.0115500 134.8514070  14.0366440  33.7991020
 134.0378680  13.5379610  33.7236330 134.6576020  14.8764690  33.3827370
 134.7722930  22.7137540  45.5430630 134.7060240  21.7933210  45.2888220
 134.1428070  22.8112980  46.2575270 137.5662460  18.4086090  32.0953180
 138.4542080  18.7203320  31.9204520 137.5367550  17.5358340  31.7033760
 128.6753550  23.3143500  37.5014050 129.1932220  22.5111760  37.4470940
 128.2237570  23.2522640  38.3430880 133.5623050  24.5809780  32.7741350
 133.9038750  25.3252010  32.2784670 132.7335760  24.8940900  33.1366180
 126.1598090  20.2804870  44.4139750 125.8013030  20.9458720  45.0013090
 125.8652650  19.4488420  44.7852370 129.3611210  20.7389110  47.2979300
 129.0611350  20.8846290  46.4007120 130.1322450  20.1794400  47.2052690
 134.7039660  25.5358110  45.2934430 134.7184200  24.6039070  45.0753340
 133.9964760  25.6217870  45.9324200 139.8376730  19.7197930  31.5633040
 139.7540450  20.1512150  30.7129480 140.5570920  20.1796280  31.9959860
 140.9150870  22.1765450  44.6403010 140.1899060  22.7694230  44.4432400
 141.4426330  22.1688990  43.8416380 140.8663980  26.5740190  34.2915170
 140.2240140  25.9195810  34.5658890 140.4794640  26.9795280  33.5155840
 136.4450460  23.9025620  38.1386860 136.7974280  23.3053750  37.4788230
 135.5612790  23.5769850  38.3095110 132.5313740  24.6623310  35.5457270
 133.2184870  25.2092520  35.9264860 131.7446160  25.2064040  35.5806880
 124.6706140  20.2796130  31.0374350 125.5400990  20.5620930  31.3210270
 124.1796460  21.0932000  30.9223160 131.8340950  21.6669340  35.1582630
 132.2903730  22.4774590  35.3842820 131.4829160  21.3492480  35.9901120
 134.1373560  27.1775680  42.3874930 134.7815780  27.3835060  43.0648350
 134.5003000  26.4164080  41.9345780 127.7352730  12.0106990  35.6305150
 127.6067360  12.0024890  36.5790070 126.9114750  12.3490080  35.2796160
 135.4105640  25.1808030  41.1052380 136.0527870  24.4801190  41.2184550
 135.9354990  25.9606470  40.9249270 139.2561360  25.4656650  30.8291520
 139.0298940  24.7487090  31.4216160 138.8657560  25.2169090  29.9913270
 137.1843260  25.9802930  44.3088440 137.5199500  26.5669620  44.9866360
 136.2643600  25.8495640  44.5386230 125.0377390  29.4923510  31.6035980
 125.3975030  30.0912850  30.9493250 124.8969730  30.0383400  32.3771010
 124.7346660  13.7698110  45.0911850 124.0205180  13.9695030  45.6964460
 125.1541700  12.9937680  45.4626650 138.8377610  23.3828590  32.4905680
 138.5499310  23.8441280  33.2783560 139.6329780  22.9226360  32.7589900
 125.0219250  27.7578370  46.0778380 125.1310370  26.8173110  45.9373770
 124.3699810  28.0233120  45.4292110 133.0131840  26.0294260  47.4776500
 132.6928710  25.3103500  48.0222190 132.3390200  26.7049330  47.5512560
 131.0546010  26.8754710  32.4209650 131.0456110  27.6084400  31.8054160
 130.1344370  26.6286290  32.5136610 126.6552650  22.0969600  33.1656410
 126.0480600  22.8368500  33.1751710 127.1302000  22.1868960  32.3394610
 136.2285440  16.2620420  42.8413300 136.5966260  15.4415630  43.1692870
 135.3683640  16.3222310  43.2568950 139.5947470  15.2177360  33.6500860
 138.9660630  15.3223030  32.9359090 139.0999390  15.4374140  34.4394740
 134.0405610  26.9382950  31.0834840 134.1417590  26.7346940  30.1536820
 133.1407350  26.6841230  31.2882620 131.5631500  17.4963310  35.0658740
 130.8547650  17.9649650  35.5072350 131.8475980  16.8385320  35.7003930
 133.1887430  18.9160010  43.0651270 133.6872680  19.3905830  43.7303120
 133.3310380  17.9923530  43.2721300 135.5946930  14.2213970  36.5054530
 135.4714710  14.2400100  35.5564040 136.5431490  14.2692910  36.6252930
 132.6823720  29.4569270  35.7782510 132.9365220  29.4190660  34.8561880
 131.7336200  29.3302600  35.7710760 129.7666520  15.8048390  32.4409450
 130.6157050  16.2418540  32.3749640 129.3997790  16.1168650  33.2681510
 140.3954290  15.1327970  43.9079660 139.8927890  15.8733370  44.2473470
 141.2110950  15.5211970  43.5916450 138.6876300  20.3761150  37.3541020
 137.7466440  20.3911380  37.5288710 139.0020370  19.5897110  37.8001320
 128.6657940  22.0580750  30.9144980 129.4321210  21.9462110  31.4770410
 128.7432630  21.3618720  30.2621750 127.3604700  19.4905820  31.5977870
 127.4408290  18.5433330  31.7095270 128.2524450  19.8212700  31.7038530
 140.6901880  27.5470000  39.0295280 140.8149300  28.3701170  39.5019090
 141.5567440  27.3360730  38.6819430 128.1619410  29.6401210  38.7012410
 128.8981890  29.0916670  38.9720980 128.5460330  30.5057220  38.5618400
 125.0464890  25.7074780  34.5753920 124.1204670  25.9495920  34.5659330
 125.5121320  26.5349040  34.4538670 127.1677690  28.8247280  47.8897990
 127.9690420  29.1459330  48.3033390 126.6529510  28.4642860  48.6117900
 131.2721720  28.8131520  30.5237980 132.0650330  29.1020350  30.0719770
 130.7526070  28.3823690  29.8450460 136.0042320  24.9327150  47.8373400
 135.3980480  24.9558750  47.0969150 135.6996430  24.2010190  48.3740650
 137.4342690  28.6607440  46.4482810 138.3864440  28.5765460  46.3983050
 137.2870910  29.3249150  47.1216600 140.3251890  28.0401650  31.9474720
 140.0393400  27.6266790  31.1328900 140.1271440  28.9689360  31.8275240
 124.8875500  21.3120740  46.8334040 125.3914520  20.7328020  47.4050270
 124.1482920  21.5960970  47.3710410 131.7899120  24.0334930  30.3880330
 131.6849760  23.4187280  31.1141710 131.6223340  23.5100820  29.6043340
 131.9413440  22.7191730  46.3669560 131.1759110  23.2876730  46.2824230
 132.1229400  22.4267940  45.4737790 135.0301850  23.0954960  30.9922320
 134.4811950  23.5424260  31.6365060 135.6521110  22.5904210  31.5159990
 139.0836790  24.4497060  46.9244580 139.8246260  24.7872820  46.4212040
 138.3209470  24.6189120  46.3714350 126.9198580  19.4550330  47.7284110
 126.9603920  19.1564200  48.6369340 127.7744080  19.8557940  47.5691630
 130.6976970  22.0545880  32.8887620 131.1193390  21.8885750  33.7319010
 130.8227810  21.2446110  32.3942760 128.8604390  18.0342430  45.6958600
 128.3300850  17.5433380  45.0681940 129.5292460  18.4626630  45.1616530
 133.2104610  21.0783490  30.1364720 133.7310270  20.3632510  29.7705870
 133.8573010  21.7169360  30.4365230 137.7582450  22.5011890  45.4599790
 138.1723470  22.6556970  46.3090210 136.8233450  22.6267110  45.6225570
 138.2304620  19.8408050  47.4638940 138.8125390  19.0860370  47.3759420
 138.4066390  20.3715490  46.6870420 129.3476690  15.0004800  45.7755890
 129.2533560  14.3825550  45.0506760 128.7674080  15.7271090  45.5485800
 132.1138130  13.5578040  42.8083280 131.6655430  13.5802300  41.9628830
 131.4803330  13.1597060  43.4053580 132.5197680  22.4532370  43.4295720
 132.9385790  23.2965100  43.2571960 131.6006310  22.5904410  43.2002500
 134.8561580  20.1848550  44.8133560 134.9757790  19.5889690  45.5528400
 135.7155580  20.2218240  44.3934860 137.1949480  20.7385740  43.3896070
 136.6684700  21.2628360  42.7861210 137.5380820  21.3713130  44.0205800
 129.5935870  18.1279110  29.8345780 129.3924930  17.2646470  30.1959120
 129.4227920  18.0412470  28.8967380 130.3705100  28.7585380  44.5453450
 129.8326190  29.4831440  44.2262150 130.6239060  28.2815720  43.7550790
 131.6230350  16.7269900  46.0709380 132.2130040  16.4185750  46.7587200
 130.8050590  16.2549650  46.2269280 136.4423780  16.3435710  46.3042400
 135.7539300  15.6817250  46.2392390 137.1629800  15.8973980  46.7490860
 137.0724180  12.9387340  32.3632660 137.3526470  12.0955240  32.7192080
 136.2989910  13.1710450  32.8771410 128.3918670  15.2279730  29.8223660
 128.6944570  15.2347160  28.9142810 129.1313260  14.8777590  30.3191320
 133.2267310  29.9936590  44.8040100 133.1526010  30.8971730  45.1112470
 132.3246150  29.6748490  44.7762170 131.6103600  14.1714350  30.8079860
 131.2625600  13.4938340  30.2282310 131.8116370  13.7103860  31.6223250
 133.7752640  29.1595100  32.4266460 134.6703430  29.4980070  32.4485220
 133.8070270  28.4374510  31.7990740 127.4148800  24.5322150  30.6553460
 127.8523670  25.0751820  31.3111040 127.8996530  23.7069100  30.6649800
 124.6294600  27.3211180  38.1073720 124.9597610  26.4532240  37.8752360
 125.0585600  27.5269700  38.9378680 129.2256520  25.6520190  35.7675690
 128.9252060  25.5285160  36.6679600 129.1194010  24.7928780  35.3591420
 125.1184810  28.1881770  40.8455350 124.6815800  28.3682570  41.6779500
 125.6862490  28.9456390  40.7037070 140.7546990  27.6898770  45.1332660
 140.1548980  27.7491330  44.3896580 140.8840890  26.7503750  45.2629510
 141.9948440  25.4316590  30.4702370 141.1641400  25.4993240  30.9409600
 142.1720270  26.3220710  30.1669230 141.4504900  22.1764070  32.9736570
 142.2123810  22.7460720  33.0796260 141.4659270  21.6091270  33.7444880
 124.9509240  20.7002000  37.2044230 124.2958080  20.4313640  36.5603930
 125.7887190  20.5906480  36.7546210 142.4564870  23.0314170  37.8178500
 142.8273700  22.2481490  37.4114470 143.0966800  23.7203270  37.6395800
 139.4398630  24.4150750  43.2308820 138.6258470  24.8447910  43.4934610
 139.8472830  25.0269160  42.6177870 141.5024070  22.4698440  30.1309090
 141.7772910  23.3777320  30.0028310 141.3134810  22.4060970  31.0671080
 137.8999680  15.4943290  31.4262720 138.3184560  15.3074270  30.5859380
 137.5935740  14.6422340  31.7365650 141.3989410  20.4067430  35.1238520
 141.0233010  19.6395360  34.6919810 140.6692530  20.7890130  35.6113450
 125.9885170  21.0854570  41.7447570 126.3558210  20.9981970  42.6243590
 125.4195990  20.3221120  41.6454430 140.7889030  19.5538950  44.7578040
 140.5575120  19.3251700  43.8575990 141.0493580  20.4738500  44.7122930
 125.5401170  17.9963660  45.6505990 124.6457220  17.9630420  45.9899700
 126.0798720  18.1950450  46.4157240 139.2277100  14.7795380  47.5357740
 140.1047280  14.7878780  47.9191740 139.2397940  14.0426220  46.9250090
 124.1647320  17.9100930  33.1469560 123.2611400  18.1731130  32.9721220
 124.6487940  18.1812100  32.3669520 140.6740370  18.6324920  38.4245760
 141.1977850  18.1387570  37.7935930 141.2599790  18.7675280  39.1693330
 140.8530090  18.7164790  41.9465310 139.9032800  18.6828330  42.0610300
 141.0343100  19.6264900  41.7115080 126.7074530  16.9666470  31.0563940
 127.4166230  16.5449690  30.5711220 125.9914470  17.0341700  30.4247290
 126.3548690  13.0205800  30.0966590 127.0776820  13.5614740  30.4147810
 126.6273210  12.7469220  29.2208130 140.1640340  17.8898270  34.3638170
 140.6599460  17.6569140  35.1487050 139.9656410  17.0510110  33.9475810
 126.0440880  12.2711990  39.9989210 126.6917070  11.7209370  39.5584370
 126.4642720  12.5255140  40.8205020 141.5927500  16.5259220  36.8975850
 141.4826780  16.3715260  37.8358120 142.3535090  15.9980160  36.6551260
 139.9393220  12.4653350  43.3558850 140.5765440  13.0787490  43.7218040
 140.0868110  12.5014010  42.4108080 142.4817770  14.3567140  30.1381990
 143.4067080  14.2248320  29.9300280 142.4593560  14.4359960  31.0918440
 142.5556260  15.1277800  32.7638700 141.7607760  15.0622920  33.2931610
 142.7599540  16.0628440  32.7524050 139.4974680  29.1669350  36.7577090
 140.0933750  28.8453920  36.0811510 139.7552830  28.6941170  37.5490360
 125.7972880  12.4267660  42.7414530 125.4487700  12.8831480  43.5072710
 125.4660580  11.5324790  42.8236960 127.4037250  25.5987260  46.9067720
 127.3606880  25.2280170  47.7882180 127.5348260  26.5364830  47.0469540
 131.1043280  27.1546850  42.5077440 130.8634640  27.4221410  41.6207960
 132.0445920  27.3252580  42.5628300 133.3097700  13.6179540  46.2633950
 133.2486590  14.2101370  47.0129360 134.2498080  13.5105500  46.1184210
 135.9472260  13.2749600  45.9026240 136.5612670  13.5928890  45.2407320
 136.4921820  12.7898190  46.5222100 142.3647440  29.1741230  43.3088080
 141.8705720  29.5710100  42.5915210 141.7560730  28.5490440  43.7025360
 126.4693520  11.9543860  46.0165300 127.0176510  11.7731910  45.2531410
 126.5348830  11.1637970  46.5521610 127.2425280  28.5449510  44.0265500
 126.6485600  28.4134210  44.7655540 127.2349120  27.7087650  43.5607600
 136.6880300  11.8381740  42.2295530 135.8140140  12.1716850  42.0268460
 136.5791050  11.3654920  43.0547400 137.5952280  14.0452610  43.6137250
 137.2665640  13.2304370  43.2338980 138.5434580  14.0022420  43.4902940
 140.0486890  29.8164650  40.5874820 139.5889860  30.5680460  40.2132840
 139.4199350  29.0971120  40.5289620 126.8737510  25.9107890  42.9773540
 126.1471570  25.2913180  42.9099490 126.9346660  26.3048500  42.1071620
 130.4782610  28.1252890  39.7622950 130.9947630  27.5140250  39.2371210
 131.1279990  28.6281670  40.2533960 133.2178110  29.0161380  40.5891930
 133.5055920  28.7615680  39.7124940 133.7301330  28.4638740  41.1797500
 134.4355120  12.7551580  41.1688440 133.6526910  13.2297080  41.4485200
 134.1418050  11.8506410  41.0601620 138.9876190  13.4574680  39.2137530
 139.4284280  13.4019780  38.3659130 138.7183780  14.3732690  39.2847710
 140.8514760  13.0889920  37.2246350 140.7903160  12.1451140  37.0777370
 141.6306790  13.1970010  37.7699810 125.1567510  29.2282280  36.1870300
 124.9889550  28.5952960  36.8852190 124.2902020  29.4341680  35.8364490
 125.7795530  13.0599060  33.6902160 126.5374890  13.1727940  33.1166190
 125.3172700  13.8968260  33.6445590 132.3209340  15.1738330  36.6804470
 131.5083850  14.7995220  36.3400350 132.8250980  14.4183410  36.9825660
 136.8234320  11.8380780  37.9187540 137.4263690  12.4100990  38.3936060
 136.0827310  12.4020220  37.6961440 139.9668920  12.2402340  33.1927820
 140.1619550  13.1385790  33.4595250 139.1798790  12.0089420  33.6860770
 126.7630210  27.9215510  33.6320440 126.2377830  28.3023540  32.9282400
 126.6874790  28.5466280  34.3530150 128.1520680  13.5863110  32.2304130
 128.6813440  12.7992910  32.1012080 128.7849000  14.2654300  32.4639660
 130.3458520  13.3238250  35.2849520 129.7161260  12.6225560  35.4519650
 129.8063660  14.0842380  35.0682680 133.2850470  29.9377480  47.9560130
 134.2117780  29.7021750  47.9996090 133.2700900  30.7649480  47.4746160
 141.5195530  29.4803050  34.9534380 141.6947720  28.7940790  34.3095300
 140.8217100  30.0050100  34.5611050 130.4714080  12.6022230  47.7202010
 130.1898350  13.1055830  46.9562830 130.8533780  11.8043980  47.3544140
 129.3623180  29.8697890  32.5069690 130.0942000  29.5857170  31.9593580
 129.6216850  29.6311170  33.3969070 128.5237970  25.9862620  32.5116020
 127.8946850  26.4547720  33.0601850 128.6385800  25.1411840  32.9462210
 137.0729540  12.0175810  48.2982480 136.9594990  12.3370420  49.1934000
 137.8899280  12.4188320  48.0019760 139.8528030  29.1647340  47.7801170
 140.6453350  28.6696570  47.5727130 140.1461180  29.8437480  48.3876780
 135.9787690  20.0368280  18.6617220 135.8981740  19.1222890  18.3908930
 135.5652110  20.5335350  17.9556930 134.1105730  21.8147300  20.5426490
 133.3347830  21.3347740  20.8325060 134.7618660  21.1352950  20.3682650
 128.1271560  22.1267110  21.4202250 127.2956440  21.8715820  21.8198760
 128.7352540  22.1977880  22.1560170 138.1313160  26.2207490  19.3225620
 137.6694690  25.4494730  19.6512790 138.9438710  26.2473560  19.8278070
 128.1072820  26.1607200  21.6160270 128.4100860  25.2704940  21.4370490
 128.8516410  26.7177420  21.3882520 126.5363510  17.0869000  15.2044640
 125.6480210  17.4284970  15.1024520 126.8204700  16.8869320  14.3125470
 124.4996520  19.6874650  21.0884340 125.0712630  18.9196850  21.0887980
 124.4998060  19.9863410  20.1790950 134.3576470  28.5065500  18.9429610
 133.7387910  28.9623000  18.3724050 135.2128250  28.6616960  18.5419310
 133.5514720  24.4904490  20.5496650 133.4823000  23.5494430  20.3885780
 134.3134580  24.5805900  21.1219220 125.7421390  15.0959010  22.8753270
 125.5624230  14.1984760  23.1556030 125.3401470  15.6430880  23.5500220
 134.5819890  17.2974870  20.7765580 134.9584710  16.4246750  20.6639250
 134.4839400  17.6333570  19.8856020 128.7124900  15.6700500  16.2383020
 128.8191650  16.5704230  16.5451780 127.8017260  15.6218470  15.9477670
 138.3644010  14.7925310  17.7093920 139.1853630  14.3021880  17.7519400
 138.3978090  15.3822970  18.4625760 126.3608060  17.5919510  21.4835610
 127.0418170  17.8557880  22.1023010 126.0456110  16.7520380  21.8173620
 130.5532630  18.6386870  20.5708200 131.0610850  19.1367840  21.2113220
 131.0845870  17.8622070  20.3947560 142.6543560  16.8092060  24.2737550
 141.9495730  17.1973770  23.7552660 142.9201480  17.5042350  24.8758480
 128.8368730  13.2785430  24.8371620 128.8387170  13.7957820  24.0317520
 128.0073040  12.8015610  24.8141550 135.2239820  23.3904740  16.3361520
 134.6057090  23.8554190  15.7724240 135.7363070  24.0832220  16.7531030
 130.0871580  22.9180610  23.0145120 129.7540960  23.5449530  23.6566190
 130.2638260  23.4442490  22.2346790 138.6005490  16.7325690  20.4821460
 137.8961060  17.0210580  21.0624570 138.9617650  17.5425800  20.1221020
 128.5184060  14.9895390  22.8442070 128.8600870  15.8337440  22.5495940
 127.5799870  15.1379130  22.9607410 129.2990680  24.8861410  24.8294300
 129.9164680  25.5612490  24.5478750 128.4383800  25.2949390  24.7381800
 124.5923020  24.0761270  13.7101150 124.2151000  24.5648370  12.9786050
 124.8496090  24.7486550  14.3407680 140.2168270  26.3500820  22.7448940
 139.5331790  27.0199930  22.7365610 140.7562560  26.5481470  21.9793800
 141.6692410  16.1780480  20.8730670 140.7217320  16.2119460  21.0046100
 141.9942400  16.9919430  21.2580030 132.2011950  12.4777660  19.1686660
 132.5086930  11.9224550  18.4522160 131.2712650  12.6122120  18.9859650
 137.7527010  28.1944950  21.4594120 137.7654170  27.7907240  20.5916380
 137.2002230  28.9692240  21.3555550 139.0472430  24.9161170  16.5484290
 138.9368760  23.9735500  16.6733710 139.0440680  25.2776810  17.4347050
 137.1512450  23.0974790  22.7876730 137.5681240  22.8834900  21.9530190
 137.8752270  23.3547580  23.3585350 134.5892710  20.5426490  15.9046780
 133.6621990  20.4763870  16.1335250 134.7417530  21.4806620  15.7902020
 134.5761790  16.8143490  12.9013940 133.6365460  16.9757450  12.9866400
 134.8945050  17.5329170  12.3549930 141.0974550  21.4962010  22.8792970
 140.2693180  21.5655100  22.4043100 141.6925030  22.0816320  22.4108800
 138.6190000  22.1046790  16.4082030 138.0002420  21.7666340  15.7608330
 138.6014450  21.4606550  17.1161220 138.0616560  18.2831330  23.8247840
 137.6487740  19.1085040  24.0787830 137.3292510  17.6976370  23.6324200
 130.1949350  21.0691230  18.6866510 129.7906350  20.3568480  18.1912410
 130.2812470  20.7244470  19.5754550 130.6631050  24.7558790  20.8505720
 130.3659340  24.1504260  20.1713500 131.6130870  24.7936100  20.7395080
 128.9077970  17.8434440  22.4665550 129.4592560  17.9529780  21.6918800
 129.4221480  18.2172040  23.1820780 138.7516660  28.3290660  24.5128820
 138.2747220  29.1362850  24.3201430 138.0678450  27.6768990  24.6655030
 129.7549480  24.4940480  27.5013520 128.8578010  24.7180450  27.7486920
 129.7802350  24.6175420  26.5524920 136.7954700  21.3433600  13.4154780
 137.2347980  20.5056030  13.2692600 137.5083120  21.9763000  13.5018920
 128.5820700  21.3653800  26.0770890 128.4428470  22.2376600  26.4458290
 127.7002060  21.0226610  25.9318830 134.9050080  26.2829670  17.3836020
 135.3445990  27.0254000  16.9691410 134.8436970  26.5256240  18.3074980
 130.3801050  27.3075500  28.2856040 130.3516480  27.7118450  27.4184470
 130.2166020  26.3785860  28.1227640 140.3771840  12.5976410  11.7295820
 140.0644500  12.6903240  12.6294890 141.1384310  13.1757440  11.6793250
 126.8953980  19.9636210  16.1873160 126.7751580  20.6898300  15.5754430
 126.5854870  19.1939120  15.7101070 142.3315870  28.0902600  29.5820210
 142.8075590  28.5685490  30.2609290 142.9523030  28.0220090  28.8565710
 124.5339350  23.1351350  21.9941800 124.6119770  23.2700120  21.0497520
 125.1481030  22.4267240  22.1869920 125.7786980  24.8351540  18.4047980
 125.3715060  24.9766130  17.5501580 126.6699990  24.5511700  18.2019190
 141.7349120  25.2815450  26.7420220 141.8612180  25.0427330  25.8237400
 141.7770500  24.4499990  27.2142300 135.5965860  28.9843450  25.3115030
 136.1110530  28.8951460  26.1137460 134.7534940  29.3303150  25.6042940
 137.5720260  29.2698790  14.7399030 137.4121400  28.9801730  15.6380860
 137.4066970  28.4938920  14.2044260 130.0508640  29.0497320  16.5170650
 129.8751120  28.1332860  16.3038450 129.1964380  29.4084610  16.7568450
 137.2746390  26.7786350  13.2997030 136.5811550  26.7763640  12.6399310
 138.0169250  26.3545670  12.8691200 136.8396320  28.4049060  17.3745520
 137.2953270  27.6238440  17.6884140 137.1788840  29.1155880  17.9186700
 141.5873130  17.3347910  27.7069960 140.9717400  17.8427580  27.1785420
 141.2669550  16.4346240  27.6495900 124.5898870  24.1765520  24.5336260
 124.7529910  23.7070880  23.7155630 125.0551320  23.6689080  25.1985100
 129.3617640  13.3071280  19.5696830 128.9185790  14.0880820  19.2381350
 129.9202630  13.6301170  20.2767770 133.6487450  16.1739800  25.1732150
 133.1866820  16.3822820  25.9852090 133.2465560  15.3599150  24.8702820
 138.6491960  17.3948750  26.3028810 137.7985550  17.0954500  26.6237880
 138.4893750  17.6390760  25.3912630 135.7441670  18.8950500  28.4027600
 136.0695080  18.0614250  28.0629830 136.5322000  19.4179020  28.5505930
 132.4776460  12.9281980  14.4502660 131.8530640  12.9241850  15.1755970
 132.3906580  12.0612940  14.0538630 131.3993540  13.8518610  21.4286430
 131.6965870  14.7581440  21.3478450 131.9479100  13.3637390  20.8146000
 129.1531860  18.4304850  17.2978080 128.9272780  18.2142020  18.2024700
 128.3724390  18.8633310  16.9524050 136.3829620  18.4368220  15.8968730
 135.7838510  19.1604020  15.7132350 136.9309230  18.3745000  15.1145180
 131.5931070  19.3290430  27.9638350 131.4974670  18.3885160  27.8138750
 132.4363050  19.5505500  27.5686420 134.9894490  17.0731760  17.9272010
 135.3824060  17.3903960  17.1140700 135.3511340  16.1943640  18.0416530
 126.7241610  15.7404100  26.1172130 126.3305000  16.5879310  26.3244910
 126.0360010  15.1030470  26.3080770 133.2986660  15.8239070  29.1868870
 132.6084980  15.6311270  29.8214960 134.0418960  16.1073710  29.7193170
 124.0258660  13.6632560  20.1502210 123.7371710  14.2335420  20.8627190
 124.7704420  13.1837010  20.5133440 124.2128890  17.6052680  11.3604930
 124.1303560  18.5483440  11.5019920 123.8611950  17.4627590  10.4817280
 135.5749630  19.6637510  22.0222790 134.8430750  20.1724320  22.3712890
 135.1773970  18.8467490  21.7211570 132.0127020  16.3391710  20.4275280
 132.0163080  15.8981660  19.5779820 132.9078140  16.6609040  20.5347100
 127.8629400  16.2218200  19.3869490 127.5229450  16.6993430  20.1436540
 127.1006720  15.7683320  19.0270590 132.0747170  17.3403790  13.4182040
 132.1959990  17.2990270  14.3667860 131.6895680  18.2027940  13.2628770
 136.0375540  15.1171190  21.4345730 136.0548280  15.5679840  22.2787580
 135.7891120  14.2176830  21.6479170 131.0868670  19.6504930  12.8165340
 130.5185570  19.2023180  12.1901250 131.7957670  20.0097710  12.2830490
 139.4646290  12.5303370  27.2732110 139.7892060  11.7993030  27.7990090
 139.5002800  12.2117010  26.3713100 126.1637850  23.5516950  26.6932070
 125.7792640  22.9110620  27.2915030 126.4750040  24.2553070  27.2626800
 132.3134990  20.3993490  22.1740690 132.6805120  19.9252060  22.9202030
 132.1240050  21.2735060  22.5149030 125.1775480  15.1437180  18.3034160
 124.8922400  14.7792850  19.1412780 125.1154340  14.4117640  17.6897300
 130.1034360  19.4402130  24.4924900 129.7991430  20.3194110  24.7175260
 131.0580820  19.5001920  24.5282340 128.6316150  23.6463120  15.0891750
 127.8578410  23.1060740  14.9290470 129.3610780  23.1269730  14.7509510
 139.3904130  22.6428480  20.8818140 140.1103250  23.1383770  20.4914250
 139.1885950  21.9646370  20.2372010 134.8514070  14.0366440  15.0247530
 134.0378680  13.5379610  14.9492840 134.6576020  14.8764690  14.6083880
 134.7722930  22.7137540  26.7687140 134.7060240  21.7933210  26.5144730
 134.1428070  22.8112980  27.4831780 137.5662460  18.4086090  13.3209690
 138.4542080  18.7203320  13.1461030 137.5367550  17.5358340  12.9290270
 128.6753550  23.3143500  18.7270560 129.1932220  22.5111760  18.6727450
 128.2237570  23.2522640  19.5687390 133.5623050  24.5809780  13.9997860
 133.9038750  25.3252010  13.5041180 132.7335760  24.8940900  14.3622690
 126.1598090  20.2804870  25.6396260 125.8013030  20.9458720  26.2269600
 125.8652650  19.4488420  26.0108880 129.3611210  20.7389110  28.5235810
 129.0611350  20.8846290  27.6263630 130.1322450  20.1794400  28.4309200
 134.7039660  25.5358110  26.5190940 134.7184200  24.6039070  26.3009850
 133.9964760  25.6217870  27.1580710 139.8376730  19.7197930  12.7889550
 139.7540450  20.1512150  11.9385990 140.5570920  20.1796280  13.2216370
 140.9150870  22.1765450  25.8659520 140.1899060  22.7694230  25.6688910
 141.4426330  22.1688990  25.0672890 140.8663980  26.5740190  15.5171680
 140.2240140  25.9195810  15.7915400 140.4794640  26.9795280  14.7412350
 136.4450460  23.9025620  19.3643370 136.7974280  23.3053750  18.7044740
 135.5612790  23.5769850  19.5351620 132.5313740  24.6623310  16.7713780
 133.2184870  25.2092520  17.1521370 131.7446160  25.2064040  16.8063390
 124.6706140  20.2796130  12.2630860 125.5400990  20.5620930  12.5466780
 124.1796460  21.0932000  12.1479670 131.8340950  21.6669340  16.3839140
 132.2903730  22.4774590  16.6099330 131.4829160  21.3492480  17.2157630
 134.1373560  27.1775680  23.6131440 134.7815780  27.3835060  24.2904860
 134.5003000  26.4164080  23.1602290 127.7352730  12.0106990  16.8561660
 127.6067360  12.0024890  17.8046580 126.9114750  12.3490080  16.5052670
 135.4105640  25.1808030  22.3308890 136.0527870  24.4801190  22.4441060
 135.9354990  25.9606470  22.1505780 139.2561360  25.4656650  12.0548030
 139.0298940  24.7487090  12.6472670 138.8657560  25.2169090  11.2169780
 137.1843260  25.9802930  25.5344950 137.5199500  26.5669620  26.2122870
 136.2643600  25.8495640  25.7642740 125.0377390  29.4923510  12.8292490
 125.3975030  30.0912850  12.1749760 124.8969730  30.0383400  13.6027520
 124.7346660  13.7698110  26.3168360 124.0205180  13.9695030  26.9220970
 125.1541700  12.9937680  26.6883160 138.8377610  23.3828590  13.7162190
 138.5499310  23.8441280  14.5040070 139.6329780  22.9226360  13.9846410
 125.0219250  27.7578370  27.3034890 125.1310370  26.8173110  27.1630280
 124.3699810  28.0233120  26.6548620 133.0131840  26.0294260  28.7033010
 132.6928710  25.3103500  29.2478700 132.3390200  26.7049330  28.7769070
 131.0546010  26.8754710  13.6466160 131.0456110  27.6084400  13.0310670
 130.1344370  26.6286290  13.7393120 126.6552650  22.0969600  14.3912920
 126.0480600  22.8368500  14.4008220 127.1302000  22.1868960  13.5651120
 136.2285440  16.2620420  24.0669810 136.5966260  15.4415630  24.3949380
 135.3683640  16.3222310  24.4825460 139.5947470  15.2177360  14.8757370
 138.9660630  15.3223030  14.1615600 139.0999390  15.4374140  15.6651250
 134.0405610  26.9382950  12.3091350 134.1417590  26.7346940  11.3793330
 133.1407350  26.6841230  12.5139130 131.5631500  17.4963310  16.2915250
 130.8547650  17.9649650  16.7328860 131.8475980  16.8385320  16.9260440
 133.1887430  18.9160010  24.2907780 133.6872680  19.3905830  24.9559630
 133.3310380  17.9923530  24.4977810 135.5946930  14.2213970  17.7311040
 135.4714710  14.2400100  16.7820550 136.5431490  14.2692910  17.8509440
 132.6823720  29.4569270  17.0039020 132.9365220  29.4190660  16.0818390
 131.7336200  29.3302600  16.9967270 129.7666520  15.8048390  13.6665960
 130.6157050  16.2418540  13.6006150 129.3997790  16.1168650  14.4938020
 140.3954290  15.1327970  25.1336170 139.8927890  15.8733370  25.4729980
 141.2110950  15.5211970  24.8172960 138.6876300  20.3761150  18.5797530
 137.7466440  20.3911380  18.7545220 139.0020370  19.5897110  19.0257830
 128.6657940  22.0580750  12.1401490 129.4321210  21.9462110  12.7026920
 128.7432630  21.3618720  11.4878260 127.3604700  19.4905820  12.8234380
 127.4408290  18.5433330  12.9351780 128.2524450  19.8212700  12.9295040
 140.6901880  27.5470000  20.2551790 140.8149300  28.3701170  20.7275600
 141.5567440  27.3360730  19.9075940 128.1619410  29.6401210  19.9268920
 128.8981890  29.0916670  20.1977490 128.5460330  30.5057220  19.7874910
 125.0464890  25.7074780  15.8010430 124.1204670  25.9495920  15.7915840
 125.5121320  26.5349040  15.6795180 127.1677690  28.8247280  29.1154500
 127.9690420  29.1459330  29.5289900 126.6529510  28.4642860  29.8374410
 131.2721720  28.8131520  11.7494490 132.0650330  29.1020350  11.2976280
 130.7526070  28.3823690  11.0706970 136.0042320  24.9327150  29.0629910
 135.3980480  24.9558750  28.3225660 135.6996430  24.2010190  29.5997160
 137.4342690  28.6607440  27.6739320 138.3864440  28.5765460  27.6239560
 137.2870910  29.3249150  28.3473110 140.3251890  28.0401650  13.1731230
 140.0393400  27.6266790  12.3585410 140.1271440  28.9689360  13.0531750
 124.8875500  21.3120740  28.0590550 125.3914520  20.7328020  28.6306780
 124.1482920  21.5960970  28.5966920 131.7899120  24.0334930  11.6136840
 131.6849760  23.4187280  12.3398220 131.6223340  23.5100820  10.8299850
 131.9413440  22.7191730  27.5926070 131.1759110  23.2876730  27.5080740
 132.1229400  22.4267940  26.6994300 135.0301850  23.0954960  12.2178830
 134.4811950  23.5424260  12.8621570 135.6521110  22.5904210  12.7416500
 139.0836790  24.4497060  28.1501090 139.8246260  24.7872820  27.6468550
 138.3209470  24.6189120  27.5970860 126.9198580  19.4550330  28.9540620
 126.9603920  19.1564200  29.8625850 127.7744080  19.8557940  28.7948140
 130.6976970  22.0545880  14.1144130 131.1193390  21.8885750  14.9575520
 130.8227810  21.2446110  13.6199270 128.8604390  18.0342430  26.9215110
 128.3300850  17.5433380  26.2938450 129.5292460  18.4626630  26.3873040
 133.2104610  21.0783490  11.3621230 133.7310270  20.3632510  10.9962380
 133.8573010  21.7169360  11.6621740 137.7582450  22.5011890  26.6856300
 138.1723470  22.6556970  27.5346720 136.8233450  22.6267110  26.8482080
 138.2304620  19.8408050  28.6895450 138.8125390  19.0860370  28.6015930
 138.4066390  20.3715490  27.9126930 129.3476690  15.0004800  27.0012400
 129.2533560  14.3825550  26.2763270 128.7674080  15.7271090  26.7742310
 132.1138130  13.5578040  24.0339790 131.6655430  13.5802300  23.1885340
 131.4803330  13.1597060  24.6310090 132.5197680  22.4532370  24.6552230
 132.9385790  23.2965100  24.4828470 131.6006310  22.5904410  24.4259010
 134.8561580  20.1848550  26.0390070 134.9757790  19.5889690  26.7784910
 135.7155580  20.2218240  25.6191370 137.1949480  20.7385740  24.6152580
 136.6684700  21.2628360  24.0117720 137.5380820  21.3713130  25.2462310
 129.5935870  18.1279110  11.0602290 129.3924930  17.2646470  11.4215630
 129.4227920  18.0412470  10.1223890 130.3705100  28.7585380  25.7709960
 129.8326190  29.4831440  25.4518660 130.6239060  28.2815720  24.9807300
 131.6230350  16.7269900  27.2965890 132.2130040  16.4185750  27.9843710
 130.8050590  16.2549650  27.4525790 136.4423780  16.3435710  27.5298910
 135.7539300  15.6817250  27.4648900 137.1629800  15.8973980  27.9747370
 137.0724180  12.9387340  13.5889170 137.3526470  12.0955240  13.9448590
 136.2989910  13.1710450  14.1027920 128.3918670  15.2279730  11.0480170
 128.6944570  15.2347160  10.1399320 129.1313260  14.8777590  11.5447830
 133.2267310  29.9936590  26.0296610 133.1526010  30.8971730  26.3368980
 132.3246150  29.6748490  26.0018680 131.6103600  14.1714350  12.0336370
 131.2625600  13.4938340  11.4538820 131.8116370  13.7103860  12.8479760
 133.7752640  29.1595100  13.6522970 134.6703430  29.4980070  13.6741730
 133.8070270  28.4374510  13.0247250 127.4148800  24.5322150  11.8809970
 127.8523670  25.0751820  12.5367550 127.8996530  23.7069100  11.8906310
 124.6294600  27.3211180  19.3330230 124.9597610  26.4532240  19.1008870
 125.0585600  27.5269700  20.1635190 129.2256520  25.6520190  16.9932200
 128.9252060  25.5285160  17.8936110 129.1194010  24.7928780  16.5847930
 125.1184810  28.1881770  22.0711860 124.6815800  28.3682570  22.9036010
 125.6862490  28.9456390  21.9293580 140.7546990  27.6898770  26.3589170
 140.1548980  27.7491330  25.6153090 140.8840890  26.7503750  26.4886020
 141.9948440  25.4316590  11.6958880 141.1641400  25.4993240  12.1666110
 142.1720270  26.3220710  11.3925740 141.4504900  22.1764070  14.1993080
 142.2123810  22.7460720  14.3052770 141.4659270  21.6091270  14.9701390
 124.9509240  20.7002000  18.4300740 124.2958080  20.4313640  17.7860440
 125.7887190  20.5906480  17.9802720 142.4564870  23.0314170  19.0435010
 142.8273700  22.2481490  18.6370980 143.0966800  23.7203270  18.8652310
 139.4398630  24.4150750  24.4565330 138.6258470  24.8447910  24.7191120
 139.8472830  25.0269160  23.8434380 141.5024070  22.4698440  11.3565600
 141.7772910  23.3777320  11.2284820 141.3134810  22.4060970  12.2927590
 137.8999680  15.4943290  12.6519230 138.3184560  15.3074270  11.8115890
 137.5935740  14.6422340  12.9622160 141.3989410  20.4067430  16.3495030
 141.0233010  19.6395360  15.9176320 140.6692530  20.7890130  16.8369960
 125.9885170  21.0854570  22.9704080 126.3558210  20.9981970  23.8500100
 125.4195990  20.3221120  22.8710940 140.7889030  19.5538950  25.9834550
 140.5575120  19.3251700  25.0832500 141.0493580  20.4738500  25.9379440
 125.5401170  17.9963660  26.8762500 124.6457220  17.9630420  27.2156210
 126.0798720  18.1950450  27.6413750 139.2277100  14.7795380  28.7614250
 140.1047280  14.7878780  29.1448250 139.2397940  14.0426220  28.1506600
 124.1647320  17.9100930  14.3726070 123.2611400  18.1731130  14.1977730
 124.6487940  18.1812100  13.5926030 140.6740370  18.6324920  19.6502270
 141.1977850  18.1387570  19.0192440 141.2599790  18.7675280  20.3949840
 140.8530090  18.7164790  23.1721820 139.9032800  18.6828330  23.2866810
 141.0343100  19.6264900  22.9371590 126.7074530  16.9666470  12.2820450
 127.4166230  16.5449690  11.7967730 125.9914470  17.0341700  11.6503800
 126.3548690  13.0205800  11.3223100 127.0776820  13.5614740  11.6404320
 126.6273210  12.7469220  10.4464640 140.1640340  17.8898270  15.5894680
 140.6599460  17.6569140  16.3743560 139.9656410  17.0510110  15.1732320
 126.0440880  12.2711990  21.2245720 126.6917070  11.7209370  20.7840880
 126.4642720  12.5255140  22.0461530 141.5927500  16.5259220  18.1232360
 141.4826780  16.3715260  19.0614630 142.3535090  15.9980160  17.8807770
 139.9393220  12.4653350  24.5815360 140.5765440  13.0787490  24.9474550
 140.0868110  12.5014010  23.6364590 142.4817770  14.3567140  11.3638500
 143.4067080  14.2248320  11.1556790 142.4593560  14.4359960  12.3174950
 142.5556260  15.1277800  13.9895210 141.7607760  15.0622920  14.5188120
 142.7599540  16.0628440  13.9780560 139.4974680  29.1669350  17.9833600
 140.0933750  28.8453920  17.3068020 139.7552830  28.6941170  18.7746870
 125.7972880  12.4267660  23.9671040 125.4487700  12.8831480  24.7329220
 125.4660580  11.5324790  24.0493470 127.4037250  25.5987260  28.1324230
 127.3606880  25.2280170  29.0138690 127.5348260  26.5364830  28.2726050
 131.1043280  27.1546850  23.7333950 130.8634640  27.4221410  22.8464470
 132.0445920  27.3252580  23.7884810 133.3097700  13.6179540  27.4890460
 133.2486590  14.2101370  28.2385870 134.2498080  13.5105500  27.3440720
 135.9472260  13.2749600  27.1282750 136.5612670  13.5928890  26.4663830
 136.4921820  12.7898190  27.7478610 142.3647440  29.1741230  24.5344590
 141.8705720  29.5710100  23.8171720 141.7560730  28.5490440  24.9281870
 126.4693520  11.9543860  27.2421810 127.0176510  11.7731910  26.4787920
 126.5348830  11.1637970  27.7778120 127.2425280  28.5449510  25.2522010
 126.6485600  28.4134210  25.9912050 127.2349120  27.7087650  24.7864110
 136.6880300  11.8381740  23.4552040 135.8140140  12.1716850  23.2524970
 136.5791050  11.3654920  24.2803910 137.5952280  14.0452610  24.8393760
 137.2665640  13.2304370  24.4595490 138.5434580  14.0022420  24.7159450
 140.0486890  29.8164650  21.8131330 139.5889860  30.5680460  21.4389350
 139.4199350  29.0971120  21.7546130 126.8737510  25.9107890  24.2030050
 126.1471570  25.2913180  24.1356000 126.9346660  26.3048500  23.3328130
 130.4782610  28.1252890  20.9879460 130.9947630  27.5140250  20.4627720
 131.1279990  28.6281670  21.4790470 133.2178110  29.0161380  21.8148440
 133.5055920  28.7615680  20.9381450 133.7301330  28.4638740  22.4054010
 134.4355120  12.7551580  22.3944950 133.6526910  13.2297080  22.6741710
 134.1418050  11.8506410  22.2858130 138.9876190  13.4574680  20.4394040
 139.4284280  13.4019780  19.5915640 138.7183780  14.3732690  20.5104220
 140.8514760  13.0889920  18.4502860 140.7903160  12.1451140  18.3033880
 141.6306790  13.1970010  18.9956320 125.1567510  29.2282280  17.4126810
 124.9889550  28.5952960  18.1108700 124.2902020  29.4341680  17.0621000
 125.7795530  13.0599060  14.9158670 126.5374890  13.1727940  14.3422700
 125.3172700  13.8968260  14.8702100 132.3209340  15.1738330  17.9060980
 131.5083850  14.7995220  17.5656860 132.8250980  14.4183410  18.2082170
 136.8234320  11.8380780  19.1444050 137.4263690  12.4100990  19.6192570
 136.0827310  12.4020220  18.9217950 139.9668920  12.2402340  14.4184330
 140.1619550  13.1385790  14.6851760 139.1798790  12.0089420  14.9117280
 126.7630210  27.9215510  14.8576950 126.2377830  28.3023540  14.1538910
 126.6874790  28.5466280  15.5786660 128.1520680  13.5863110  13.4560640
 128.6813440  12.7992910  13.3268590 128.7849000  14.2654300  13.6896170
 130.3458520  13.3238250  16.5106030 129.7161260  12.6225560  16.6776160
 129.8063660  14.0842380  16.2939190 133.2850470  29.9377480  29.1816640
 134.2117780  29.7021750  29.2252600 133.2700900  30.7649480  28.7002670
 141.5195530  29.4803050  16.1790890 141.6947720  28.7940790  15.5351810
 140.8217100  30.0050100  15.7867560 130.4714080  12.6022230  28.9458520
 130.1898350  13.1055830  28.1819340 130.8533780  11.8043980  28.5800650
 129.3623180  29.8697890  13.7326200 130.0942000  29.5857170  13.1850090
 129.6216850  29.6311170  14.6225580 128.5237970  25.9862620  13.7372530
 127.8946850  26.4547720  14.2858360 128.6385800  25.1411840  14.1718720
 137.0729540  12.0175810  29.5238990 136.9594990  12.3370420  30.4190510
 137.8899280  12.4188320  29.2276270 139.8528030  29.1647340  29.0057680
 140.6453350  28.6696570  28.7983640 140.1461180  29.8437480  29.6133290
 134.1105730  21.8147300   1.7683000 133.3347830  21.3347740   2.0581570
 134.7618660  21.1352950   1.5939160 128.1271560  22.1267110   2.6458760
 127.2956440  21.8715820   3.0455270 128.7352540  22.1977880   3.3816680
 128.1072820  26.1607200   2.8416780 128.4100860  25.2704940   2.6627000
 128.8516410  26.7177420   2.6139030 133.5514720  24.4904490   1.7753160
 133.4823000  23.5494430   1.6142290 134.3134580  24.5805900   2.3475730
 125.7421390  15.0959010   4.1009780 125.5624230  14.1984760   4.3812540
 125.3401470  15.6430880   4.7756730 126.3608060  17.5919510   2.7092120
 127.0418170  17.8557880   3.3279520 126.0456110  16.7520380   3.0430130
 130.5532630  18.6386870   1.7964710 131.0610850  19.1367840   2.4369730
 131.0845870  17.8622070   1.6204070 142.6543560  16.8092060   5.4994060
 141.9495730  17.1973770   4.9809170 142.9201480  17.5042350   6.1014990
 128.8368730  13.2785430   6.0628130 128.8387170  13.7957820   5.2574030
 128.0073040  12.8015610   6.0398060 130.0871580  22.9180610   4.2401630
 129.7540960  23.5449530   4.8822700 130.2638260  23.4442490   3.4603300
 128.5184060  14.9895390   4.0698580 128.8600870  15.8337440   3.7752450
 127.5799870  15.1379130   4.1863920 129.2990680  24.8861410   6.0550810
 129.9164680  25.5612490   5.7735260 128.4383800  25.2949390   5.9638310
 140.2168270  26.3500820   3.9705450 139.5331790  27.0199930   3.9622120
 140.7562560  26.5481470   3.2050310 141.6692410  16.1780480   2.0987180
 140.7217320  16.2119460   2.2302610 141.9942400  16.9919430   2.4836540
 137.7527010  28.1944950   2.6850630 137.7654170  27.7907240   1.8172890
 137.2002230  28.9692240   2.5812060 137.1512450  23.0974790   4.0133240
 137.5681240  22.8834900   3.1786700 137.8752270  23.3547580   4.5841860
 141.0974550  21.4962010   4.1049480 140.2693180  21.5655100   3.6299610
 141.6925030  22.0816320   3.6365310 138.0616560  18.2831330   5.0504350
 137.6487740  19.1085040   5.3044340 137.3292510  17.6976370   4.8580710
 128.9077970  17.8434440   3.6922060 129.4592560  17.9529780   2.9175310
 129.4221480  18.2172040   4.4077290 138.7516660  28.3290660   5.7385330
 138.2747220  29.1362850   5.5457940 138.0678450  27.6768990   5.8911540
 129.7549480  24.4940480   8.7270030 128.8578010  24.7180450   8.9743430
 129.7802350  24.6175420   7.7781430 128.5820700  21.3653800   7.3027400
 128.4428470  22.2376600   7.6714800 127.7002060  21.0226610   7.1575340
 130.3801050  27.3075500   9.5112550 130.3516480  27.7118450   8.6440980
 130.2166020  26.3785860   9.3484150 142.3315870  28.0902600  10.8076720
 142.8075590  28.5685490  11.4865800 142.9523030  28.0220090  10.0822220
 124.5339350  23.1351350   3.2198310 124.6119770  23.2700120   2.2754030
 125.1481030  22.4267240   3.4126430 141.7349120  25.2815450   7.9676730
 141.8612180  25.0427330   7.0493910 141.7770500  24.4499990   8.4398810
 135.5965860  28.9843450   6.5371540 136.1110530  28.8951460   7.3393970
 134.7534940  29.3303150   6.8299450 141.5873130  17.3347910   8.9326470
 140.9717400  17.8427580   8.4041930 141.2669550  16.4346240   8.8752410
 124.5898870  24.1765520   5.7592770 124.7529910  23.7070880   4.9412140
 125.0551320  23.6689080   6.4241610 133.6487450  16.1739800   6.3988660
 133.1866820  16.3822820   7.2108600 133.2465560  15.3599150   6.0959330
 138.6491960  17.3948750   7.5285320 137.7985550  17.0954500   7.8494390
 138.4893750  17.6390760   6.6169140 135.7441670  18.8950500   9.6284110
 136.0695080  18.0614250   9.2886340 136.5322000  19.4179020   9.7762440
 131.3993540  13.8518610   2.6542940 131.6965870  14.7581440   2.5734960
 131.9479100  13.3637390   2.0402510 131.5931070  19.3290430   9.1894860
 131.4974670  18.3885160   9.0395260 132.4363050  19.5505500   8.7942930
 126.7241610  15.7404100   7.3428640 126.3305000  16.5879310   7.5501420
 126.0360010  15.1030470   7.5337280 133.2986660  15.8239070  10.4125380
 132.6084980  15.6311270  11.0471470 134.0418960  16.1073710  10.9449680
 135.5749630  19.6637510   3.2479300 134.8430750  20.1724320   3.5969400
 135.1773970  18.8467490   2.9468080 136.0375540  15.1171190   2.6602240
 136.0548280  15.5679840   3.5044090 135.7891120  14.2176830   2.8735680
 139.4646290  12.5303370   8.4988620 139.7892060  11.7993030   9.0246600
 139.5002800  12.2117010   7.5969610 126.1637850  23.5516950   7.9188580
 125.7792640  22.9110620   8.5171540 126.4750040  24.2553070   8.4883310
 132.3134990  20.3993490   3.3997200 132.6805120  19.9252060   4.1458540
 132.1240050  21.2735060   3.7405540 130.1034360  19.4402130   5.7181410
 129.7991430  20.3194110   5.9431770 131.0580820  19.5001920   5.7538850
 139.3904130  22.6428480   2.1074650 140.1103250  23.1383770   1.7170760
 139.1885950  21.9646370   1.4628520 134.7722930  22.7137540   7.9943650
 134.7060240  21.7933210   7.7401240 134.1428070  22.8112980   8.7088290
 126.1598090  20.2804870   6.8652770 125.8013030  20.9458720   7.4526110
 125.8652650  19.4488420   7.2365390 129.3611210  20.7389110   9.7492320
 129.0611350  20.8846290   8.8520140 130.1322450  20.1794400   9.6565710
 134.7039660  25.5358110   7.7447450 134.7184200  24.6039070   7.5266360
 133.9964760  25.6217870   8.3837220 140.9150870  22.1765450   7.0916030
 140.1899060  22.7694230   6.8945420 141.4426330  22.1688990   6.2929400
 134.1373560  27.1775680   4.8387950 134.7815780  27.3835060   5.5161370
 134.5003000  26.4164080   4.3858800 135.4105640  25.1808030   3.5565400
 136.0527870  24.4801190   3.6697570 135.9354990  25.9606470   3.3762290
 137.1843260  25.9802930   6.7601460 137.5199500  26.5669620   7.4379380
 136.2643600  25.8495640   6.9899250 124.7346660  13.7698110   7.5424870
 124.0205180  13.9695030   8.1477480 125.1541700  12.9937680   7.9139670
 125.0219250  27.7578370   8.5291400 125.1310370  26.8173110   8.3886790
 124.3699810  28.0233120   7.8805130 133.0131840  26.0294260   9.9289520
 132.6928710  25.3103500  10.4735210 132.3390200  26.7049330  10.0025580
 136.2285440  16.2620420   5.2926320 136.5966260  15.4415630   5.6205890
 135.3683640  16.3222310   5.7081970 133.1887430  18.9160010   5.5164290
 133.6872680  19.3905830   6.1816140 133.3310380  17.9923530   5.7234320
 140.3954290  15.1327970   6.3592680 139.8927890  15.8733370   6.6986490
 141.2110950  15.5211970   6.0429470 127.1677690  28.8247280  10.3411010
 127.9690420  29.1459330  10.7546410 126.6529510  28.4642860  11.0630920
 136.0042320  24.9327150  10.2886420 135.3980480  24.9558750   9.5482170
 135.6996430  24.2010190  10.8253670 137.4342690  28.6607440   8.8995830
 138.3864440  28.5765460   8.8496070 137.2870910  29.3249150   9.5729620
 124.8875500  21.3120740   9.2847060 125.3914520  20.7328020   9.8563290
 124.1482920  21.5960970   9.8223430 131.9413440  22.7191730   8.8182580
 131.1759110  23.2876730   8.7337250 132.1229400  22.4267940   7.9250810
 139.0836790  24.4497060   9.3757600 139.8246260  24.7872820   8.8725060
 138.3209470  24.6189120   8.8227370 126.9198580  19.4550330  10.1797130
 126.9603920  19.1564200  11.0882360 127.7744080  19.8557940  10.0204650
 128.8604390  18.0342430   8.1471620 128.3300850  17.5433380   7.5194960
 129.5292460  18.4626630   7.6129550 137.7582450  22.5011890   7.9112810
 138.1723470  22.6556970   8.7603230 136.8233450  22.6267110   8.0738590
 138.2304620  19.8408050   9.9151960 138.8125390  19.0860370   9.8272440
 138.4066390  20.3715490   9.1383440 129.3476690  15.0004800   8.2268910
 129.2533560  14.3825550   7.5019780 128.7674080  15.7271090   7.9998820
 132.1138130  13.5578040   5.2596300 131.6655430  13.5802300   4.4141850
 131.4803330  13.1597060   5.8566600 132.5197680  22.4532370   5.8808740
 132.9385790  23.2965100   5.7084980 131.6006310  22.5904410   5.6515520
 134.8561580  20.1848550   7.2646580 134.9757790  19.5889690   8.0041420
 135.7155580  20.2218240   6.8447880 137.1949480  20.7385740   5.8409090
 136.6684700  21.2628360   5.2374230 137.5380820  21.3713130   6.4718820
 130.3705100  28.7585380   6.9966470 129.8326190  29.4831440   6.6775170
 130.6239060  28.2815720   6.2063810 131.6230350  16.7269900   8.5222400
 132.2130040  16.4185750   9.2100220 130.8050590  16.2549650   8.6782300
 136.4423780  16.3435710   8.7555420 135.7539300  15.6817250   8.6905410
 137.1629800  15.8973980   9.2003880 133.2267310  29.9936590   7.2553120
 133.1526010  30.8971730   7.5625490 132.3246150  29.6748490   7.2275190
 125.1184810  28.1881770   3.2968370 124.6815800  28.3682570   4.1292520
 125.6862490  28.9456390   3.1550090 140.7546990  27.6898770   7.5845680
 140.1548980  27.7491330   6.8409600 140.8840890  26.7503750   7.7142530
 139.4398630  24.4150750   5.6821840 138.6258470  24.8447910   5.9447630
 139.8472830  25.0269160   5.0690890 125.9885170  21.0854570   4.1960590
 126.3558210  20.9981970   5.0756610 125.4195990  20.3221120   4.0967450
 140.7889030  19.5538950   7.2091060 140.5575120  19.3251700   6.3089010
 141.0493580  20.4738500   7.1635950 125.5401170  17.9963660   8.1019010
 124.6457220  17.9630420   8.4412720 126.0798720  18.1950450   8.8670260
 139.2277100  14.7795380   9.9870760 140.1047280  14.7878780  10.3704760
 139.2397940  14.0426220   9.3763110 140.8530090  18.7164790   4.3978330
 139.9032800  18.6828330   4.5123320 141.0343100  19.6264900   4.1628100
 126.0440880  12.2711990   2.4502230 126.6917070  11.7209370   2.0097390
 126.4642720  12.5255140   3.2718040 139.9393220  12.4653350   5.8071870
 140.5765440  13.0787490   6.1731060 140.0868110  12.5014010   4.8621100
 125.7972880  12.4267660   5.1927550 125.4487700  12.8831480   5.9585730
 125.4660580  11.5324790   5.2749980 127.4037250  25.5987260   9.3580740
 127.3606880  25.2280170  10.2395200 127.5348260  26.5364830   9.4982560
 131.1043280  27.1546850   4.9590460 130.8634640  27.4221410   4.0720980
 132.0445920  27.3252580   5.0141320 133.3097700  13.6179540   8.7146970
 133.2486590  14.2101370   9.4642380 134.2498080  13.5105500   8.5697230
 135.9472260  13.2749600   8.3539260 136.5612670  13.5928890   7.6920340
 136.4921820  12.7898190   8.9735120 142.3647440  29.1741230   5.7601100
 141.8705720  29.5710100   5.0428230 141.7560730  28.5490440   6.1538380
 126.4693520  11.9543860   8.4678320 127.0176510  11.7731910   7.7044430
 126.5348830  11.1637970   9.0034630 127.2425280  28.5449510   6.4778520
 126.6485600  28.4134210   7.2168560 127.2349120  27.7087650   6.0120620
 136.6880300  11.8381740   4.6808550 135.8140140  12.1716850   4.4781480
 136.5791050  11.3654920   5.5060420 137.5952280  14.0452610   6.0650270
 137.2665640  13.2304370   5.6852000 138.5434580  14.0022420   5.9415960
 140.0486890  29.8164650   3.0387840 139.5889860  30.5680460   2.6645860
 139.4199350  29.0971120   2.9802640 126.8737510  25.9107890   5.4286560
 126.1471570  25.2913180   5.3612510 126.9346660  26.3048500   4.5584640
 130.4782610  28.1252890   2.2135970 130.9947630  27.5140250   1.6884230
 131.1279990  28.6281670   2.7046980 133.2178110  29.0161380   3.0404950
 133.5055920  28.7615680   2.1637960 133.7301330  28.4638740   3.6310520
 134.4355120  12.7551580   3.6201460 133.6526910  13.2297080   3.8998220
 134.1418050  11.8506410   3.5114640 133.2850470  29.9377480  10.4073150
 134.2117780  29.7021750  10.4509110 133.2700900  30.7649480   9.9259180
 130.4714080  12.6022230  10.1715030 130.1898350  13.1055830   9.4075850
 130.8533780  11.8043980   9.8057160 137.0729540  12.0175810  10.7495500
 136.9594990  12.3370420  11.6447020 137.8899280  12.4188320  10.4532780
 139.8528030  29.1647340  10.2314190 140.6453350  28.6696570  10.0240150
 140.1461180  29.8437480  10.8389800 138.1313160   7.4464000 150.7430050
 137.6694690   6.6751240 151.0717220 138.9438710   7.4730070 151.2482500
 134.3576470   9.7322010 150.3634040 133.7387910  10.1879510 149.7928480
 135.2128250   9.8873470 149.9623740 135.2239820   4.6161250 147.7565950
 134.6057090   5.0810700 147.1928670 135.7363070   5.3088730 148.1735460
 124.5923020   5.3017780 145.1305580 124.2151000   5.7904880 144.3990480
 124.8496090   5.9743060 145.7612110 139.0472430   6.1417680 147.9688720
 138.9368760   5.1992010 148.0938140 139.0440680   6.5033320 148.8551480
 134.5892710   1.7683000 147.3251210 133.6621990   1.7020380 147.5539680
 134.7417530   2.7063130 147.2106450 138.6190000   3.3303300 147.8286460
 138.0002420   2.9922850 147.1812760 138.6014450   2.6863060 148.5365650
 136.7954700   2.5690110 144.8359210 137.2347980   1.7312540 144.6897030
 137.5083120   3.2019510 144.9223350 134.9050080   7.5086180 148.8040450
 135.3445990   8.2510510 148.3895840 134.8436970   7.7512750 149.7279410
 125.7786980   6.0608050 149.8252410 125.3715060   6.2022640 148.9706010
 126.6699990   5.7768210 149.6223620 137.5720260  10.4955300 146.1603460
 137.4121400  10.2058240 147.0585290 137.4066970   9.7195430 145.6248690
 130.0508640  10.2753830 147.9375080 129.8751120   9.3589370 147.7242880
 129.1964380  10.6341120 148.1772880 137.2746390   8.0042860 144.7201460
 136.5811550   8.0020150 144.0603740 138.0169250   7.5802180 144.2895630
 136.8396320   9.6305570 148.7949950 137.2953270   8.8494950 149.1088570
 137.1788840  10.3412390 149.3391130 128.6316150   4.8719630 146.5096180
 127.8578410   4.3317250 146.3494900 129.3610780   4.3526240 146.1713940
 128.6753550   4.5400010 150.1474990 129.1932220   3.7368270 150.0931880
 128.2237570   4.4779150 150.9891820 133.5623050   5.8066290 145.4202290
 133.9038750   6.5508520 144.9245610 132.7335760   6.1197410 145.7827120
 140.8663980   7.7996700 146.9376110 140.2240140   7.1452320 147.2119830
 140.4794640   8.2051790 146.1616780 136.4450460   5.1282130 150.7847800
 136.7974280   4.5310260 150.1249170 135.5612790   4.8026360 150.9556050
 132.5313740   5.8879820 148.1918210 133.2184870   6.4349030 148.5725800
 131.7446160   6.4320550 148.2267820 131.8340950   2.8925850 147.8043570
 132.2903730   3.7031100 148.0303760 131.4829160   2.5748990 148.6362060
 139.2561360   6.6913160 143.4752460 139.0298940   5.9743600 144.0677100
 138.8657560   6.4425600 142.6374210 125.0377390  10.7180020 144.2496920
 125.3975030  11.3169360 143.5954190 124.8969730  11.2639910 145.0231950
 138.8377610   4.6085100 145.1366620 138.5499310   5.0697790 145.9244500
 139.6329780   4.1482870 145.4050840 131.0546010   8.1011220 145.0670590
 131.0456110   8.8340910 144.4515100 130.1344370   7.8542800 145.1597550
 126.6552650   3.3226110 145.8117350 126.0480600   4.0625010 145.8212650
 127.1302000   3.4125470 144.9855550 134.0405610   8.1639460 143.7295780
 134.1417590   7.9603450 142.7997760 133.1407350   7.9097740 143.9343560
 132.6823720  10.6825780 148.4243450 132.9365220  10.6447170 147.5022820
 131.7336200  10.5559110 148.4171700 128.6657940   3.2837260 143.5605920
 129.4321210   3.1718620 144.1231350 128.7432630   2.5875230 142.9082690
 128.1619410  10.8657720 151.3473350 128.8981890  10.3173180 151.6181920
 128.5460330  11.7313730 151.2079340 125.0464890   6.9331290 147.2214860
 124.1204670   7.1752430 147.2120270 125.5121320   7.7605550 147.0999610
 131.2721720  10.0388030 143.1698920 132.0650330  10.3276860 142.7180710
 130.7526070   9.6080200 142.4911400 140.3251890   9.2658160 144.5935660
 140.0393400   8.8523300 143.7789840 140.1271440  10.1945870 144.4736180
 131.7899120   5.2591440 143.0341270 131.6849760   4.6443790 143.7602650
 131.6223340   4.7357330 142.2504280 135.0301850   4.3211470 143.6383260
 134.4811950   4.7680770 144.2826000 135.6521110   3.8160720 144.1620930
 130.6976970   3.2802390 145.5348560 131.1193390   3.1142260 146.3779950
 130.8227810   2.4702620 145.0403700 133.7752640  10.3851610 145.0727400
 134.6703430  10.7236580 145.0946160 133.8070270   9.6631020 144.4451680
 127.4148800   5.7578660 143.3014400 127.8523670   6.3008330 143.9571980
 127.8996530   4.9325610 143.3110740 124.6294600   8.5467690 150.7534660
 124.9597610   7.6788750 150.5213300 125.0585600   8.7526210 151.5839620
 129.2256520   6.8776700 148.4136630 128.9252060   6.7541670 149.3140540
 129.1194010   6.0185290 148.0052360 141.9948440   6.6573100 143.1163310
 141.1641400   6.7249750 143.5870540 142.1720270   7.5477220 142.8130170
 141.4504900   3.4020580 145.6197510 142.2123810   3.9717230 145.7257200
 141.4659270   2.8347780 146.3905820 124.9509240   1.9258510 149.8505170
 124.2958080   1.6570150 149.2064870 125.7887190   1.8162990 149.4007150
 142.4564870   4.2570680 150.4639440 142.8273700   3.4738000 150.0575410
 143.0966800   4.9459780 150.2856740 141.5024070   3.6954950 142.7770030
 141.7772910   4.6033830 142.6489250 141.3134810   3.6317480 143.7132020
 139.4974680  10.3925860 149.4038030 140.0933750  10.0710430 148.7272450
 139.7552830   9.9197680 150.1951300 125.1567510  10.4538790 148.8331240
 124.9889550   9.8209470 149.5313130 124.2902020  10.6598190 148.4825430
 126.7630210   9.1472020 146.2781380 126.2377830   9.5280050 145.5743340
 126.6874790   9.7722790 146.9991090 141.5195530  10.7059560 147.5995320
 141.6947720  10.0197300 146.9556240 140.8217100  11.2306610 147.2071990
 129.3623180  11.0954400 145.1530630 130.0942000  10.8113680 144.6054520
 129.6216850  10.8567680 146.0430010 128.5237970   7.2119130 145.1576960
 127.8946850   7.6804230 145.7062790 128.6385800   6.3668350 145.5923150
 134.1105730   3.0403810 133.1887430 133.3347830   2.5604250 133.4786000
 134.7618660   2.3609460 133.0143590 128.1271560   3.3523620 134.0663190
 127.2956440   3.0972330 134.4659700 128.7352540   3.4234390 134.8021110
 138.1313160   7.4464000 131.9686560 137.6694690   6.6751240 132.2973730
 138.9438710   7.4730070 132.4739010 128.1072820   7.3863710 134.2621210
 128.4100860   6.4961450 134.0831430 128.8516410   7.9433930 134.0343460
 134.3576470   9.7322010 131.5890550 133.7387910  10.1879510 131.0184990
 135.2128250   9.8873470 131.1880250 133.5514720   5.7161000 133.1957590
 133.4823000   4.7750940 133.0346720 134.3134580   5.8062410 133.7680160
 135.2239820   4.6161250 128.9822460 134.6057090   5.0810700 128.4185180
 135.7363070   5.3088730 129.3991970 130.0871580   4.1437120 135.6606060
 129.7540960   4.7706040 136.3027130 130.2638260   4.6699000 134.8807730
 129.2990680   6.1117920 137.4755240 129.9164680   6.7869000 137.1939690
 128.4383800   6.5205900 137.3842740 124.5923020   5.3017780 126.3562090
 124.2151000   5.7904880 125.6246990 124.8496090   5.9743060 126.9868620
 140.2168270   7.5757330 135.3909880 139.5331790   8.2456440 135.3826550
 140.7562560   7.7737980 134.6254740 137.7527010   9.4201460 134.1055060
 137.7654170   9.0163750 133.2377320 137.2002230  10.1948750 134.0016490
 139.0472430   6.1417680 129.1945230 138.9368760   5.1992010 129.3194650
 139.0440680   6.5033320 130.0807990 137.1512450   4.3231300 135.4337670
 137.5681240   4.1091410 134.5991130 137.8752270   4.5804090 136.0046290
 134.5892710   1.7683000 128.5507720 133.6621990   1.7020380 128.7796190
 134.7417530   2.7063130 128.4362960 141.0974550   2.7218520 135.5253910
 140.2693180   2.7911610 135.0504040 141.6925030   3.3072830 135.0569740
 138.6190000   3.3303300 129.0542970 138.0002420   2.9922850 128.4069270
 138.6014450   2.6863060 129.7622160 130.6631050   5.9815300 133.4966660
 130.3659340   5.3760770 132.8174440 131.6130870   6.0192610 133.3856020
 138.7516660   9.5547170 137.1589760 138.2747220  10.3619360 136.9662370
 138.0678450   8.9025500 137.3115970 129.7549480   5.7196990 140.1474460
 128.8578010   5.9436960 140.3947860 129.7802350   5.8431930 139.1985860
 136.7954700   2.5690110 126.0615720 137.2347980   1.7312540 125.9153540
 137.5083120   3.2019510 126.1479860 128.5820700   2.5910310 138.7231830
 128.4428470   3.4633110 139.0919230 127.7002060   2.2483120 138.5779770
 134.9050080   7.5086180 130.0296960 135.3445990   8.2510510 129.6152350
 134.8436970   7.7512750 130.9535920 130.3801050   8.5332010 140.9316980
 130.3516480   8.9374960 140.0645410 130.2166020   7.6042370 140.7688580
 142.3315870   9.3159110 142.2281150 142.8075590   9.7942000 142.9070230
 142.9523030   9.2476600 141.5026650 124.5339350   4.3607860 134.6402740
 124.6119770   4.4956630 133.6958460 125.1481030   3.6523750 134.8330860
 125.7786980   6.0608050 131.0508920 125.3715060   6.2022640 130.1962520
 126.6699990   5.7768210 130.8480130 141.7349120   6.5071960 139.3881160
 141.8612180   6.2683840 138.4698340 141.7770500   5.6756500 139.8603240
 135.5965860  10.2099960 137.9575970 136.1110530  10.1207970 138.7598400
 134.7534940  10.5559660 138.2503880 137.5720260  10.4955300 127.3859970
 137.4121400  10.2058240 128.2841800 137.4066970   9.7195430 126.8505200
 130.0508640  10.2753830 129.1631590 129.8751120   9.3589370 128.9499390
 129.1964380  10.6341120 129.4029390 137.2746390   8.0042860 125.9457970
 136.5811550   8.0020150 125.2860250 138.0169250   7.5802180 125.5152140
 136.8396320   9.6305570 130.0206460 137.2953270   8.8494950 130.3345080
 137.1788840  10.3412390 130.5647640 124.5898870   5.4022030 137.1797200
 124.7529910   4.9327390 136.3616570 125.0551320   4.8945590 137.8446040
 126.1637850   4.7773460 139.3393010 125.7792640   4.1367130 139.9375970
 126.4750040   5.4809580 139.9087740 128.6316150   4.8719630 127.7352690
 127.8578410   4.3317250 127.5751410 129.3610780   4.3526240 127.3970450
 139.3904130   3.8684990 133.5279080 140.1103250   4.3640280 133.1375190
 139.1885950   3.1902880 132.8832950 134.7722930   3.9394050 139.4148080
 134.7060240   3.0189720 139.1605670 134.1428070   4.0369490 140.1292720
 128.6753550   4.5400010 131.3731500 129.1932220   3.7368270 131.3188390
 128.2237570   4.4779150 132.2148330 133.5623050   5.8066290 126.6458800
 133.9038750   6.5508520 126.1502120 132.7335760   6.1197410 127.0083630
 134.7039660   6.7614620 139.1651880 134.7184200   5.8295580 138.9470790
 133.9964760   6.8474380 139.8041650 140.9150870   3.4021960 138.5120460
 140.1899060   3.9950740 138.3149850 141.4426330   3.3945500 137.7133830
 140.8663980   7.7996700 128.1632620 140.2240140   7.1452320 128.4376340
 140.4794640   8.2051790 127.3873290 136.4450460   5.1282130 132.0104310
 136.7974280   4.5310260 131.3505680 135.5612790   4.8026360 132.1812560
 132.5313740   5.8879820 129.4174720 133.2184870   6.4349030 129.7982310
 131.7446160   6.4320550 129.4524330 131.8340950   2.8925850 129.0300080
 132.2903730   3.7031100 129.2560270 131.4829160   2.5748990 129.8618570
 134.1373560   8.4032190 136.2592380 134.7815780   8.6091570 136.9365800
 134.5003000   7.6420590 135.8063230 135.4105640   6.4064540 134.9769830
 136.0527870   5.7057700 135.0902000 135.9354990   7.1862980 134.7966720
 139.2561360   6.6913160 124.7008970 139.0298940   5.9743600 125.2933610
 138.8657560   6.4425600 123.8630720 137.1843260   7.2059440 138.1805890
 137.5199500   7.7926130 138.8583810 136.2643600   7.0752150 138.4103680
 125.0377390  10.7180020 125.4753430 125.3975030  11.3169360 124.8210700
 124.8969730  11.2639910 126.2488460 138.8377610   4.6085100 126.3623130
 138.5499310   5.0697790 127.1501010 139.6329780   4.1482870 126.6307350
 125.0219250   8.9834880 139.9495830 125.1310370   8.0429620 139.8091220
 124.3699810   9.2489630 139.3009560 133.0131840   7.2550770 141.3493950
 132.6928710   6.5360010 141.8939640 132.3390200   7.9305840 141.4230010
 131.0546010   8.1011220 126.2927100 131.0456110   8.8340910 125.6771610
 130.1344370   7.8542800 126.3854060 126.6552650   3.3226110 127.0373860
 126.0480600   4.0625010 127.0469160 127.1302000   3.4125470 126.2112060
 134.0405610   8.1639460 124.9552290 134.1417590   7.9603450 124.0254270
 133.1407350   7.9097740 125.1600070 132.6823720  10.6825780 129.6499960
 132.9365220  10.6447170 128.7279330 131.7336200  10.5559110 129.6428210
 128.6657940   3.2837260 124.7862430 129.4321210   3.1718620 125.3487860
 128.7432630   2.5875230 124.1339200 140.6901880   8.7726510 132.9012730
 140.8149300   9.5957680 133.3736540 141.5567440   8.5617240 132.5536880
 128.1619410  10.8657720 132.5729860 128.8981890  10.3173180 132.8438430
 128.5460330  11.7313730 132.4335850 125.0464890   6.9331290 128.4471370
 124.1204670   7.1752430 128.4376780 125.5121320   7.7605550 128.3256120
 127.1677690  10.0503790 141.7615440 127.9690420  10.3715840 142.1750840
 126.6529510   9.6899370 142.4835350 131.2721720  10.0388030 124.3955430
 132.0650330  10.3276860 123.9437220 130.7526070   9.6080200 123.7167910
 136.0042320   6.1583660 141.7090850 135.3980480   6.1815260 140.9686600
 135.6996430   5.4266700 142.2458100 137.4342690   9.8863950 140.3200260
 138.3864440   9.8021970 140.2700500 137.2870910  10.5505660 140.9934050
 140.3251890   9.2658160 125.8192170 140.0393400   8.8523300 125.0046350
 140.1271440  10.1945870 125.6992690 124.8875500   2.5377250 140.7051490
 125.3914520   1.9584530 141.2767720 124.1482920   2.8217480 141.2427860
 131.7899120   5.2591440 124.2597780 131.6849760   4.6443790 124.9859160
 131.6223340   4.7357330 123.4760790 131.9413440   3.9448240 140.2387010
 131.1759110   4.5133240 140.1541680 132.1229400   3.6524450 139.3455240
 135.0301850   4.3211470 124.8639770 134.4811950   4.7680770 125.5082510
 135.6521110   3.8160720 125.3877440 139.0836790   5.6753570 140.7962030
 139.8246260   6.0129330 140.2929490 138.3209470   5.8445630 140.2431800
 130.6976970   3.2802390 126.7605070 131.1193390   3.1142260 127.6036460
 130.8227810   2.4702620 126.2660210 137.7582450   3.7268400 139.3317240
 138.1723470   3.8813480 140.1807660 136.8233450   3.8523620 139.4943020
 132.5197680   3.6788880 137.3013170 132.9385790   4.5221610 137.1289410
 131.6006310   3.8160920 137.0719950 137.1949480   1.9642250 137.2613520
 136.6684700   2.4884870 136.6578660 137.5380820   2.5969640 137.8923250
 130.3705100   9.9841890 138.4170900 129.8326190  10.7087950 138.0979600
 130.6239060   9.5072230 137.6268240 133.2267310  11.2193100 138.6757550
 133.1526010  12.1228240 138.9829920 132.3246150  10.9005000 138.6479620
 133.7752640  10.3851610 126.2983910 134.6703430  10.7236580 126.3202670
 133.8070270   9.6631020 125.6708190 127.4148800   5.7578660 124.5270910
 127.8523670   6.3008330 125.1828490 127.8996530   4.9325610 124.5367250
 124.6294600   8.5467690 131.9791170 124.9597610   7.6788750 131.7469810
 125.0585600   8.7526210 132.8096130 129.2256520   6.8776700 129.6393140
 128.9252060   6.7541670 130.5397050 129.1194010   6.0185290 129.2308870
 125.1184810   9.4138280 134.7172800 124.6815800   9.5939080 135.5496950
 125.6862490  10.1712900 134.5754520 140.7546990   8.9155280 139.0050110
 140.1548980   8.9747840 138.2614030 140.8840890   7.9760260 139.1346960
 141.9948440   6.6573100 124.3419820 141.1641400   6.7249750 124.8127050
 142.1720270   7.5477220 124.0386680 141.4504900   3.4020580 126.8454020
 142.2123810   3.9717230 126.9513710 141.4659270   2.8347780 127.6162330
 124.9509240   1.9258510 131.0761680 124.2958080   1.6570150 130.4321380
 125.7887190   1.8162990 130.6263660 142.4564870   4.2570680 131.6895950
 142.8273700   3.4738000 131.2831920 143.0966800   4.9459780 131.5113250
 139.4398630   5.6407260 137.1026270 138.6258470   6.0704420 137.3652060
 139.8472830   6.2525670 136.4895320 141.5024070   3.6954950 124.0026540
 141.7772910   4.6033830 123.8745760 141.3134810   3.6317480 124.9388530
 139.4974680  10.3925860 130.6294540 140.0933750  10.0710430 129.9528960
 139.7552830   9.9197680 131.4207810 127.4037250   6.8243770 140.7785170
 127.3606880   6.4536680 141.6599630 127.5348260   7.7621340 140.9186990
 131.1043280   8.3803360 136.3794890 130.8634640   8.6477920 135.4925410
 132.0445920   8.5509090 136.4345750 142.3647440  10.3997740 137.1805530
 141.8705720  10.7966610 136.4632660 141.7560730   9.7746950 137.5742810
 127.2425280   9.7706020 137.8982950 126.6485600   9.6390720 138.6372990
 127.2349120   8.9344160 137.4325050 140.0486890  11.0421160 134.4592270
 139.5889860  11.7936970 134.0850290 139.4199350  10.3227630 134.4007070
 126.8737510   7.1364400 136.8490990 126.1471570   6.5169690 136.7816940
 126.9346660   7.5305010 135.9789070 130.4782610   9.3509400 133.6340400
 130.9947630   8.7396760 133.1088660 131.1279990   9.8538180 134.1251410
 133.2178110  10.2417890 134.4609380 133.5055920   9.9872190 133.5842390
 133.7301330   9.6895250 135.0514950 125.1567510  10.4538790 130.0587750
 124.9889550   9.8209470 130.7569640 124.2902020  10.6598190 129.7081940
 126.7630210   9.1472020 127.5037890 126.2377830   9.5280050 126.7999850
 126.6874790   9.7722790 128.2247600 133.2850470  11.1633990 141.8277580
 134.2117780  10.9278260 141.8713540 133.2700900  11.9905990 141.3463610
 141.5195530  10.7059560 128.8251830 141.6947720  10.0197300 128.1812750
 140.8217100  11.2306610 128.4328500 129.3623180  11.0954400 126.3787140
 130.0942000  10.8113680 125.8311030 129.6216850  10.8567680 127.2686520
 128.5237970   7.2119130 126.3833470 127.8946850   7.6804230 126.9319300
 128.6385800   6.3668350 126.8179660 139.8528030  10.3903850 141.6518620
 140.6453350   9.8953080 141.4444580 140.1461180  11.0693990 142.2594230
 134.1105730   3.0403810 114.4143940 133.3347830   2.5604250 114.7042510
 134.7618660   2.3609460 114.2400100 128.1271560   3.3523620 115.2919700
 127.2956440   3.0972330 115.6916210 128.7352540   3.4234390 116.0277620
 138.1313160   7.4464000 113.1943070 137.6694690   6.6751240 113.5230240
 138.9438710   7.4730070 113.6995520 128.1072820   7.3863710 115.4877720
 128.4100860   6.4961450 115.3087940 128.8516410   7.9433930 115.2599970
 134.3576470   9.7322010 112.8147060 133.7387910  10.1879510 112.2441500
 135.2128250   9.8873470 112.4136760 133.5514720   5.7161000 114.4214100
 133.4823000   4.7750940 114.2603230 134.3134580   5.8062410 114.9936670
 135.2239820   4.6161250 110.2078970 134.6057090   5.0810700 109.6441690
 135.7363070   5.3088730 110.6248480 130.0871580   4.1437120 116.8862570
 129.7540960   4.7706040 117.5283640 130.2638260   4.6699000 116.1064240
 129.2990680   6.1117920 118.7011750 129.9164680   6.7869000 118.4196200
 128.4383800   6.5205900 118.6099250 124.5923020   5.3017780 107.5818600
 124.2151000   5.7904880 106.8503500 124.8496090   5.9743060 108.2125130
 140.2168270   7.5757330 116.6166390 139.5331790   8.2456440 116.6083060
 140.7562560   7.7737980 115.8511250 137.7527010   9.4201460 115.3311570
 137.7654170   9.0163750 114.4633830 137.2002230  10.1948750 115.2273000
 139.0472430   6.1417680 110.4201740 138.9368760   5.1992010 110.5451160
 139.0440680   6.5033320 111.3064500 137.1512450   4.3231300 116.6594180
 137.5681240   4.1091410 115.8247640 137.8752270   4.5804090 117.2302800
 134.5892710   1.7683000 109.7764230 133.6621990   1.7020380 110.0052700
 134.7417530   2.7063130 109.6619470 141.0974550   2.7218520 116.7510420
 140.2693180   2.7911610 116.2760550 141.6925030   3.3072830 116.2826250
 138.6190000   3.3303300 110.2799480 138.0002420   2.9922850 109.6325780
 138.6014450   2.6863060 110.9878670 130.6631050   5.9815300 114.7223170
 130.3659340   5.3760770 114.0430950 131.6130870   6.0192610 114.6112530
 138.7516660   9.5547170 118.3846270 138.2747220  10.3619360 118.1918880
 138.0678450   8.9025500 118.5372480 129.7549480   5.7196990 121.3730970
 128.8578010   5.9436960 121.6204370 129.7802350   5.8431930 120.4242370
 136.7954700   2.5690110 107.2872230 137.2347980   1.7312540 107.1410050
 137.5083120   3.2019510 107.3736370 128.5820700   2.5910310 119.9488340
 128.4428470   3.4633110 120.3175740 127.7002060   2.2483120 119.8036280
 134.9050080   7.5086180 111.2553470 135.3445990   8.2510510 110.8408860
 134.8436970   7.7512750 112.1792430 130.3801050   8.5332010 122.1573490
 130.3516480   8.9374960 121.2901920 130.2166020   7.6042370 121.9945090
 142.3315870   9.3159110 123.4537660 142.8075590   9.7942000 124.1326740
 142.9523030   9.2476600 122.7283160 124.5339350   4.3607860 115.8659250
 124.6119770   4.4956630 114.9214970 125.1481030   3.6523750 116.0587370
 125.7786980   6.0608050 112.2765430 125.3715060   6.2022640 111.4219030
 126.6699990   5.7768210 112.0736640 141.7349120   6.5071960 120.6137670
 141.8612180   6.2683840 119.6954850 141.7770500   5.6756500 121.0859750
 135.5965860  10.2099960 119.1832480 136.1110530  10.1207970 119.9854910
 134.7534940  10.5559660 119.4760390 137.5720260  10.4955300 108.6116480
 137.4121400  10.2058240 109.5098310 137.4066970   9.7195430 108.0761710
 130.0508640  10.2753830 110.3888100 129.8751120   9.3589370 110.1755900
 129.1964380  10.6341120 110.6285900 137.2746390   8.0042860 107.1714480
 136.5811550   8.0020150 106.5116760 138.0169250   7.5802180 106.7408650
 136.8396320   9.6305570 111.2462970 137.2953270   8.8494950 111.5601590
 137.1788840  10.3412390 111.7904150 124.5898870   5.4022030 118.4053710
 124.7529910   4.9327390 117.5873080 125.0551320   4.8945590 119.0702550
 126.1637850   4.7773460 120.5649520 125.7792640   4.1367130 121.1632480
 126.4750040   5.4809580 121.1344250 128.6316150   4.8719630 108.9609200
 127.8578410   4.3317250 108.8007920 129.3610780   4.3526240 108.6226960
 139.3904130   3.8684990 114.7535590 140.1103250   4.3640280 114.3631700
 139.1885950   3.1902880 114.1089460 134.7722930   3.9394050 120.6404590
 134.7060240   3.0189720 120.3862180 134.1428070   4.0369490 121.3549230
 128.6753550   4.5400010 112.5988010 129.1932220   3.7368270 112.5444900
 128.2237570   4.4779150 113.4404840 133.5623050   5.8066290 107.8715310
 133.9038750   6.5508520 107.3758630 132.7335760   6.1197410 108.2340140
 134.7039660   6.7614620 120.3908390 134.7184200   5.8295580 120.1727300
 133.9964760   6.8474380 121.0298160 140.9150870   3.4021960 119.7376970
 140.1899060   3.9950740 119.5406360 141.4426330   3.3945500 118.9390340
 140.8663980   7.7996700 109.3889130 140.2240140   7.1452320 109.6632850
 140.4794640   8.2051790 108.6129800 136.4450460   5.1282130 113.2360820
 136.7974280   4.5310260 112.5762190 135.5612790   4.8026360 113.4069070
 132.5313740   5.8879820 110.6431230 133.2184870   6.4349030 111.0238820
 131.7446160   6.4320550 110.6780840 131.8340950   2.8925850 110.2556590
 132.2903730   3.7031100 110.4816780 131.4829160   2.5748990 111.0875080
 134.1373560   8.4032190 117.4848890 134.7815780   8.6091570 118.1622310
 134.5003000   7.6420590 117.0319740 135.4105640   6.4064540 116.2026340
 136.0527870   5.7057700 116.3158510 135.9354990   7.1862980 116.0223230
 139.2561360   6.6913160 105.9265480 139.0298940   5.9743600 106.5190120
 138.8657560   6.4425600 105.0887230 137.1843260   7.2059440 119.4062400
 137.5199500   7.7926130 120.0840320 136.2643600   7.0752150 119.6360190
 125.0377390  10.7180020 106.7009940 125.3975030  11.3169360 106.0467210
 124.8969730  11.2639910 107.4744970 138.8377610   4.6085100 107.5879640
 138.5499310   5.0697790 108.3757520 139.6329780   4.1482870 107.8563860
 125.0219250   8.9834880 121.1752340 125.1310370   8.0429620 121.0347730
 124.3699810   9.2489630 120.5266070 133.0131840   7.2550770 122.5750460
 132.6928710   6.5360010 123.1196150 132.3390200   7.9305840 122.6486520
 131.0546010   8.1011220 107.5183610 131.0456110   8.8340910 106.9028120
 130.1344370   7.8542800 107.6110570 126.6552650   3.3226110 108.2630370
 126.0480600   4.0625010 108.2725670 127.1302000   3.4125470 107.4368570
 134.0405610   8.1639460 106.1808800 134.1417590   7.9603450 105.2510780
 133.1407350   7.9097740 106.3856580 132.6823720  10.6825780 110.8756470
 132.9365220  10.6447170 109.9535840 131.7336200  10.5559110 110.8684720
 128.6657940   3.2837260 106.0118940 129.4321210   3.1718620 106.5744370
 128.7432630   2.5875230 105.3595710 140.6901880   8.7726510 114.1269240
 140.8149300   9.5957680 114.5993050 141.5567440   8.5617240 113.7793390
 128.1619410  10.8657720 113.7986370 128.8981890  10.3173180 114.0694940
 128.5460330  11.7313730 113.6592360 125.0464890   6.9331290 109.6727880
 124.1204670   7.1752430 109.6633290 125.5121320   7.7605550 109.5512630
 127.1677690  10.0503790 122.9871950 127.9690420  10.3715840 123.4007350
 126.6529510   9.6899370 123.7091860 131.2721720  10.0388030 105.6211940
 132.0650330  10.3276860 105.1693730 130.7526070   9.6080200 104.9424420
 136.0042320   6.1583660 122.9347360 135.3980480   6.1815260 122.1943110
 135.6996430   5.4266700 123.4714610 137.4342690   9.8863950 121.5456770
 138.3864440   9.8021970 121.4957010 137.2870910  10.5505660 122.2190560
 140.3251890   9.2658160 107.0448680 140.0393400   8.8523300 106.2302860
 140.1271440  10.1945870 106.9249200 124.8875500   2.5377250 121.9308000
 125.3914520   1.9584530 122.5024230 124.1482920   2.8217480 122.4684370
 131.7899120   5.2591440 105.4854290 131.6849760   4.6443790 106.2115670
 131.6223340   4.7357330 104.7017300 131.9413440   3.9448240 121.4643520
 131.1759110   4.5133240 121.3798190 132.1229400   3.6524450 120.5711750
 135.0301850   4.3211470 106.0896280 134.4811950   4.7680770 106.7339020
 135.6521110   3.8160720 106.6133950 139.0836790   5.6753570 122.0218540
 139.8246260   6.0129330 121.5186000 138.3209470   5.8445630 121.4688310
 130.6976970   3.2802390 107.9861580 131.1193390   3.1142260 108.8292970
 130.8227810   2.4702620 107.4916720 137.7582450   3.7268400 120.5573750
 138.1723470   3.8813480 121.4064170 136.8233450   3.8523620 120.7199530
 132.5197680   3.6788880 118.5269680 132.9385790   4.5221610 118.3545920
 131.6006310   3.8160920 118.2976460 137.1949480   1.9642250 118.4870030
 136.6684700   2.4884870 117.8835170 137.5380820   2.5969640 119.1179760
 130.3705100   9.9841890 119.6427410 129.8326190  10.7087950 119.3236110
 130.6239060   9.5072230 118.8524750 133.2267310  11.2193100 119.9014060
 133.1526010  12.1228240 120.2086430 132.3246150  10.9005000 119.8736130
 133.7752640  10.3851610 107.5240420 134.6703430  10.7236580 107.5459180
 133.8070270   9.6631020 106.8964700 127.4148800   5.7578660 105.7527420
 127.8523670   6.3008330 106.4085000 127.8996530   4.9325610 105.7623760
 124.6294600   8.5467690 113.2047680 124.9597610   7.6788750 112.9726320
 125.0585600   8.7526210 114.0352640 129.2256520   6.8776700 110.8649650
 128.9252060   6.7541670 111.7653560 129.1194010   6.0185290 110.4565380
 125.1184810   9.4138280 115.9429310 124.6815800   9.5939080 116.7753460
 125.6862490  10.1712900 115.8011030 140.7546990   8.9155280 120.2306620
 140.1548980   8.9747840 119.4870540 140.8840890   7.9760260 120.3603470
 141.9948440   6.6573100 105.5676330 141.1641400   6.7249750 106.0383560
 142.1720270   7.5477220 105.2643190 141.4504900   3.4020580 108.0710530
 142.2123810   3.9717230 108.1770220 141.4659270   2.8347780 108.8418840
 124.9509240   1.9258510 112.3018190 124.2958080   1.6570150 111.6577890
 125.7887190   1.8162990 111.8520170 142.4564870   4.2570680 112.9152460
 142.8273700   3.4738000 112.5088430 143.0966800   4.9459780 112.7369760
 139.4398630   5.6407260 118.3282780 138.6258470   6.0704420 118.5908570
 139.8472830   6.2525670 117.7151830 141.5024070   3.6954950 105.2283050
 141.7772910   4.6033830 105.1002270 141.3134810   3.6317480 106.1645040
 139.4974680  10.3925860 111.8551050 140.0933750  10.0710430 111.1785470
 139.7552830   9.9197680 112.6464320 127.4037250   6.8243770 122.0041680
 127.3606880   6.4536680 122.8856140 127.5348260   7.7621340 122.1443500
 131.1043280   8.3803360 117.6051400 130.8634640   8.6477920 116.7181920
 132.0445920   8.5509090 117.6602260 142.3647440  10.3997740 118.4062040
 141.8705720  10.7966610 117.6889170 141.7560730   9.7746950 118.7999320
 127.2425280   9.7706020 119.1239460 126.6485600   9.6390720 119.8629500
 127.2349120   8.9344160 118.6581560 140.0486890  11.0421160 115.6848780
 139.5889860  11.7936970 115.3106800 139.4199350  10.3227630 115.6263580
 126.8737510   7.1364400 118.0747500 126.1471570   6.5169690 118.0073450
 126.9346660   7.5305010 117.2045580 130.4782610   9.3509400 114.8596910
 130.9947630   8.7396760 114.3345170 131.1279990   9.8538180 115.3507920
 133.2178110  10.2417890 115.6865890 133.5055920   9.9872190 114.8098900
 133.7301330   9.6895250 116.2771460 125.1567510  10.4538790 111.2844260
 124.9889550   9.8209470 111.9826150 124.2902020  10.6598190 110.9338450
 126.7630210   9.1472020 108.7294400 126.2377830   9.5280050 108.0256360
 126.6874790   9.7722790 109.4504110 133.2850470  11.1633990 123.0534090
 134.2117780  10.9278260 123.0970050 133.2700900  11.9905990 122.5720120
 141.5195530  10.7059560 110.0508340 141.6947720  10.0197300 109.4069260
 140.8217100  11.2306610 109.6585010 129.3623180  11.0954400 107.6043650
 130.0942000  10.8113680 107.0567540 129.6216850  10.8567680 108.4943030
 128.5237970   7.2119130 107.6089980 127.8946850   7.6804230 108.1575810
 128.6385800   6.3668350 108.0436170 139.8528030  10.3903850 122.8775130
 140.6453350   9.8953080 122.6701090 140.1461180  11.0693990 123.4850740
 134.1105730   3.0403810  95.6400450 133.3347830   2.5604250  95.9299020
 134.7618660   2.3609460  95.4656610 128.1271560   3.3523620  96.5176210
 127.2956440   3.0972330  96.9172720 128.7352540   3.4234390  97.2534130
 138.1313160   7.4464000  94.4199580 137.6694690   6.6751240  94.7486750
 138.9438710   7.4730070  94.9252030 128.1072820   7.3863710  96.7134230
 128.4100860   6.4961450  96.5344450 128.8516410   7.9433930  96.4856480
 134.3576470   9.7322010  94.0403570 133.7387910  10.1879510  93.4698010
 135.2128250   9.8873470  93.6393270 133.5514720   5.7161000  95.6470610
 133.4823000   4.7750940  95.4859740 134.3134580   5.8062410  96.2193180
 135.2239820   4.6161250  91.4335480 134.6057090   5.0810700  90.8698200
 135.7363070   5.3088730  91.8504990 130.0871580   4.1437120  98.1119080
 129.7540960   4.7706040  98.7540150 130.2638260   4.6699000  97.3320750
 129.2990680   6.1117920  99.9268260 129.9164680   6.7869000  99.6452710
 128.4383800   6.5205900  99.8355760 124.5923020   5.3017780  88.8075110
 124.2151000   5.7904880  88.0760010 124.8496090   5.9743060  89.4381640
 140.2168270   7.5757330  97.8422900 139.5331790   8.2456440  97.8339570
 140.7562560   7.7737980  97.0767760 137.7527010   9.4201460  96.5568080
 137.7654170   9.0163750  95.6890340 137.2002230  10.1948750  96.4529510
 139.0472430   6.1417680  91.6458250 138.9368760   5.1992010  91.7707670
 139.0440680   6.5033320  92.5321010 137.1512450   4.3231300  97.8850690
 137.5681240   4.1091410  97.0504150 137.8752270   4.5804090  98.4559310
 134.5892710   1.7683000  91.0020740 133.6621990   1.7020380  91.2309210
 134.7417530   2.7063130  90.8875980 141.0974550   2.7218520  97.9766930
 140.2693180   2.7911610  97.5017060 141.6925030   3.3072830  97.5082760
 138.6190000   3.3303300  91.5055990 138.0002420   2.9922850  90.8582290
 138.6014450   2.6863060  92.2135180 130.6631050   5.9815300  95.9479680
 130.3659340   5.3760770  95.2687460 131.6130870   6.0192610  95.8369040
 138.7516660   9.5547170  99.6102780 138.2747220  10.3619360  99.4175390
 138.0678450   8.9025500  99.7628990 129.7549480   5.7196990 102.5987480
 128.8578010   5.9436960 102.8460880 129.7802350   5.8431930 101.6498880
 136.7954700   2.5690110  88.5128740 137.2347980   1.7312540  88.3666560
 137.5083120   3.2019510  88.5992880 128.5820700   2.5910310 101.1744850
 128.4428470   3.4633110 101.5432250 127.7002060   2.2483120 101.0292790
 134.9050080   7.5086180  92.4809980 135.3445990   8.2510510  92.0665370
 134.8436970   7.7512750  93.4048940 130.3801050   8.5332010 103.3830000
 130.3516480   8.9374960 102.5158430 130.2166020   7.6042370 103.2201600
 142.3315870   9.3159110 104.6794170 142.8075590   9.7942000 105.3583250
 142.9523030   9.2476600 103.9539670 124.5339350   4.3607860  97.0915760
 124.6119770   4.4956630  96.1471480 125.1481030   3.6523750  97.2843880
 125.7786980   6.0608050  93.5021940 125.3715060   6.2022640  92.6475540
 126.6699990   5.7768210  93.2993150 141.7349120   6.5071960 101.8394180
 141.8612180   6.2683840 100.9211360 141.7770500   5.6756500 102.3116260
 135.5965860  10.2099960 100.4088990 136.1110530  10.1207970 101.2111420
 134.7534940  10.5559660 100.7016900 137.5720260  10.4955300  89.8372990
 137.4121400  10.2058240  90.7354820 137.4066970   9.7195430  89.3018220
 130.0508640  10.2753830  91.6144610 129.8751120   9.3589370  91.4012410
 129.1964380  10.6341120  91.8542410 137.2746390   8.0042860  88.3970990
 136.5811550   8.0020150  87.7373270 138.0169250   7.5802180  87.9665160
 136.8396320   9.6305570  92.4719480 137.2953270   8.8494950  92.7858100
 137.1788840  10.3412390  93.0160660 124.5898870   5.4022030  99.6310220
 124.7529910   4.9327390  98.8129590 125.0551320   4.8945590 100.2959060
 126.1637850   4.7773460 101.7906030 125.7792640   4.1367130 102.3888990
 126.4750040   5.4809580 102.3600760 128.6316150   4.8719630  90.1865710
 127.8578410   4.3317250  90.0264430 129.3610780   4.3526240  89.8483470
 139.3904130   3.8684990  95.9792100 140.1103250   4.3640280  95.5888210
 139.1885950   3.1902880  95.3345970 134.7722930   3.9394050 101.8661100
 134.7060240   3.0189720 101.6118690 134.1428070   4.0369490 102.5805740
 128.6753550   4.5400010  93.8244520 129.1932220   3.7368270  93.7701410
 128.2237570   4.4779150  94.6661350 133.5623050   5.8066290  89.0971820
 133.9038750   6.5508520  88.6015140 132.7335760   6.1197410  89.4596650
 134.7039660   6.7614620 101.6164900 134.7184200   5.8295580 101.3983810
 133.9964760   6.8474380 102.2554670 140.9150870   3.4021960 100.9633480
 140.1899060   3.9950740 100.7662870 141.4426330   3.3945500 100.1646850
 140.8663980   7.7996700  90.6145640 140.2240140   7.1452320  90.8889360
 140.4794640   8.2051790  89.8386310 136.4450460   5.1282130  94.4617330
 136.7974280   4.5310260  93.8018700 135.5612790   4.8026360  94.6325580
 132.5313740   5.8879820  91.8687740 133.2184870   6.4349030  92.2495330
 131.7446160   6.4320550  91.9037350 131.8340950   2.8925850  91.4813100
 132.2903730   3.7031100  91.7073290 131.4829160   2.5748990  92.3131590
 134.1373560   8.4032190  98.7105400 134.7815780   8.6091570  99.3878820
 134.5003000   7.6420590  98.2576250 135.4105640   6.4064540  97.4282850
 136.0527870   5.7057700  97.5415020 135.9354990   7.1862980  97.2479740
 139.2561360   6.6913160  87.1521990 139.0298940   5.9743600  87.7446630
 138.8657560   6.4425600  86.3143740 137.1843260   7.2059440 100.6318910
 137.5199500   7.7926130 101.3096830 136.2643600   7.0752150 100.8616700
 125.0377390  10.7180020  87.9266450 125.3975030  11.3169360  87.2723720
 124.8969730  11.2639910  88.7001480 138.8377610   4.6085100  88.8136150
 138.5499310   5.0697790  89.6014030 139.6329780   4.1482870  89.0820370
 125.0219250   8.9834880 102.4008850 125.1310370   8.0429620 102.2604240
 124.3699810   9.2489630 101.7522580 133.0131840   7.2550770 103.8006970
 132.6928710   6.5360010 104.3452660 132.3390200   7.9305840 103.8743030
 131.0546010   8.1011220  88.7440120 131.0456110   8.8340910  88.1284630
 130.1344370   7.8542800  88.8367080 126.6552650   3.3226110  89.4886880
 126.0480600   4.0625010  89.4982180 127.1302000   3.4125470  88.6625080
 134.0405610   8.1639460  87.4065310 134.1417590   7.9603450  86.4767290
 133.1407350   7.9097740  87.6113090 132.6823720  10.6825780  92.1012980
 132.9365220  10.6447170  91.1792350 131.7336200  10.5559110  92.0941230
 128.6657940   3.2837260  87.2375450 129.4321210   3.1718620  87.8000880
 128.7432630   2.5875230  86.5852220 140.6901880   8.7726510  95.3525750
 140.8149300   9.5957680  95.8249560 141.5567440   8.5617240  95.0049900
 128.1619410  10.8657720  95.0242880 128.8981890  10.3173180  95.2951450
 128.5460330  11.7313730  94.8848870 125.0464890   6.9331290  90.8984390
 124.1204670   7.1752430  90.8889800 125.5121320   7.7605550  90.7769140
 127.1677690  10.0503790 104.2128460 127.9690420  10.3715840 104.6263860
 126.6529510   9.6899370 104.9348370 131.2721720  10.0388030  86.8468450
 132.0650330  10.3276860  86.3950240 130.7526070   9.6080200  86.1680930
 136.0042320   6.1583660 104.1603870 135.3980480   6.1815260 103.4199620
 135.6996430   5.4266700 104.6971120 137.4342690   9.8863950 102.7713280
 138.3864440   9.8021970 102.7213520 137.2870910  10.5505660 103.4447070
 140.3251890   9.2658160  88.2705190 140.0393400   8.8523300  87.4559370
 140.1271440  10.1945870  88.1505710 124.8875500   2.5377250 103.1564510
 125.3914520   1.9584530 103.7280740 124.1482920   2.8217480 103.6940880
 131.7899120   5.2591440  86.7110800 131.6849760   4.6443790  87.4372180
 131.6223340   4.7357330  85.9273810 131.9413440   3.9448240 102.6900030
 131.1759110   4.5133240 102.6054700 132.1229400   3.6524450 101.7968260
 135.0301850   4.3211470  87.3152790 134.4811950   4.7680770  87.9595530
 135.6521110   3.8160720  87.8390460 139.0836790   5.6753570 103.2475050
 139.8246260   6.0129330 102.7442510 138.3209470   5.8445630 102.6944820
 130.6976970   3.2802390  89.2118090 131.1193390   3.1142260  90.0549480
 130.8227810   2.4702620  88.7173230 137.7582450   3.7268400 101.7830260
 138.1723470   3.8813480 102.6320680 136.8233450   3.8523620 101.9456040
 132.5197680   3.6788880  99.7526190 132.9385790   4.5221610  99.5802430
 131.6006310   3.8160920  99.5232970 137.1949480   1.9642250  99.7126540
 136.6684700   2.4884870  99.1091680 137.5380820   2.5969640 100.3436270
 130.3705100   9.9841890 100.8683920 129.8326190  10.7087950 100.5492620
 130.6239060   9.5072230 100.0781260 133.2267310  11.2193100 101.1270570
 133.1526010  12.1228240 101.4342940 132.3246150  10.9005000 101.0992640
 133.7752640  10.3851610  88.7496930 134.6703430  10.7236580  88.7715690
 133.8070270   9.6631020  88.1221210 127.4148800   5.7578660  86.9783930
 127.8523670   6.3008330  87.6341510 127.8996530   4.9325610  86.9880270
 124.6294600   8.5467690  94.4304190 124.9597610   7.6788750  94.1982830
 125.0585600   8.7526210  95.2609150 129.2256520   6.8776700  92.0906160
 128.9252060   6.7541670  92.9910070 129.1194010   6.0185290  91.6821890
 125.1184810   9.4138280  97.1685820 124.6815800   9.5939080  98.0009970
 125.6862490  10.1712900  97.0267540 140.7546990   8.9155280 101.4563130
 140.1548980   8.9747840 100.7127050 140.8840890   7.9760260 101.5859980
 141.9948440   6.6573100  86.7932840 141.1641400   6.7249750  87.2640070
 142.1720270   7.5477220  86.4899700 141.4504900   3.4020580  89.2967040
 142.2123810   3.9717230  89.4026730 141.4659270   2.8347780  90.0675350
 124.9509240   1.9258510  93.5274700 124.2958080   1.6570150  92.8834400
 125.7887190   1.8162990  93.0776680 142.4564870   4.2570680  94.1408970
 142.8273700   3.4738000  93.7344940 143.0966800   4.9459780  93.9626270
 139.4398630   5.6407260  99.5539290 138.6258470   6.0704420  99.8165080
 139.8472830   6.2525670  98.9408340 141.5024070   3.6954950  86.4539560
 141.7772910   4.6033830  86.3258780 141.3134810   3.6317480  87.3901550
 139.4974680  10.3925860  93.0807560 140.0933750  10.0710430  92.4041980
 139.7552830   9.9197680  93.8720830 127.4037250   6.8243770 103.2298190
 127.3606880   6.4536680 104.1112650 127.5348260   7.7621340 103.3700010
 131.1043280   8.3803360  98.8307910 130.8634640   8.6477920  97.9438430
 132.0445920   8.5509090  98.8858770 142.3647440  10.3997740  99.6318550
 141.8705720  10.7966610  98.9145680 141.7560730   9.7746950 100.0255830
 127.2425280   9.7706020 100.3495970 126.6485600   9.6390720 101.0886010
 127.2349120   8.9344160  99.8838070 140.0486890  11.0421160  96.9105290
 139.5889860  11.7936970  96.5363310 139.4199350  10.3227630  96.8520090
 126.8737510   7.1364400  99.3004010 126.1471570   6.5169690  99.2329960
 126.9346660   7.5305010  98.4302090 130.4782610   9.3509400  96.0853420
 130.9947630   8.7396760  95.5601680 131.1279990   9.8538180  96.5764430
 133.2178110  10.2417890  96.9122400 133.5055920   9.9872190  96.0355410
 133.7301330   9.6895250  97.5027970 125.1567510  10.4538790  92.5100770
 124.9889550   9.8209470  93.2082660 124.2902020  10.6598190  92.1594960
 126.7630210   9.1472020  89.9550910 126.2377830   9.5280050  89.2512870
 126.6874790   9.7722790  90.6760620 133.2850470  11.1633990 104.2790600
 134.2117780  10.9278260 104.3226560 133.2700900  11.9905990 103.7976630
 141.5195530  10.7059560  91.2764850 141.6947720  10.0197300  90.6325770
 140.8217100  11.2306610  90.8841520 129.3623180  11.0954400  88.8300160
 130.0942000  10.8113680  88.2824050 129.6216850  10.8567680  89.7199540
 128.5237970   7.2119130  88.8346490 127.8946850   7.6804230  89.3832320
 128.6385800   6.3668350  89.2692680 139.8528030  10.3903850 104.1031640
 140.6453350   9.8953080 103.8957600 140.1461180  11.0693990 104.7107250
 134.1105730   3.0403810  76.8656960 133.3347830   2.5604250  77.1555530
 134.7618660   2.3609460  76.6913120 128.1271560   3.3523620  77.7432720
 127.2956440   3.0972330  78.1429230 128.7352540   3.4234390  78.4790640
 138.1313160   7.4464000  75.6456090 137.6694690   6.6751240  75.9743260
 138.9438710   7.4730070  76.1508540 128.1072820   7.3863710  77.9390740
 128.4100860   6.4961450  77.7600960 128.8516410   7.9433930  77.7112990
 134.3576470   9.7322010  75.2660080 133.7387910  10.1879510  74.6954520
 135.2128250   9.8873470  74.8649780 133.5514720   5.7161000  76.8727120
 133.4823000   4.7750940  76.7116250 134.3134580   5.8062410  77.4449690
 135.2239820   4.6161250  72.6591990 134.6057090   5.0810700  72.0954710
 135.7363070   5.3088730  73.0761500 130.0871580   4.1437120  79.3375590
 129.7540960   4.7706040  79.9796660 130.2638260   4.6699000  78.5577260
 129.2990680   6.1117920  81.1524770 129.9164680   6.7869000  80.8709220
 128.4383800   6.5205900  81.0612270 124.5923020   5.3017780  70.0331620
 124.2151000   5.7904880  69.3016520 124.8496090   5.9743060  70.6638150
 140.2168270   7.5757330  79.0679410 139.5331790   8.2456440  79.0596080
 140.7562560   7.7737980  78.3024270 137.7527010   9.4201460  77.7824590
 137.7654170   9.0163750  76.9146850 137.2002230  10.1948750  77.6786020
 139.0472430   6.1417680  72.8714760 138.9368760   5.1992010  72.9964180
 139.0440680   6.5033320  73.7577520 137.1512450   4.3231300  79.1107200
 137.5681240   4.1091410  78.2760660 137.8752270   4.5804090  79.6815820
 134.5892710   1.7683000  72.2277250 133.6621990   1.7020380  72.4565720
 134.7417530   2.7063130  72.1132490 141.0974550   2.7218520  79.2023440
 140.2693180   2.7911610  78.7273570 141.6925030   3.3072830  78.7339270
 138.6190000   3.3303300  72.7312500 138.0002420   2.9922850  72.0838800
 138.6014450   2.6863060  73.4391690 130.6631050   5.9815300  77.1736190
 130.3659340   5.3760770  76.4943970 131.6130870   6.0192610  77.0625550
 138.7516660   9.5547170  80.8359290 138.2747220  10.3619360  80.6431900
 138.0678450   8.9025500  80.9885500 129.7549480   5.7196990  83.8243990
 128.8578010   5.9436960  84.0717390 129.7802350   5.8431930  82.8755390
 136.7954700   2.5690110  69.7385250 137.2347980   1.7312540  69.5923070
 137.5083120   3.2019510  69.8249390 128.5820700   2.5910310  82.4001360
 128.4428470   3.4633110  82.7688760 127.7002060   2.2483120  82.2549300
 134.9050080   7.5086180  73.7066490 135.3445990   8.2510510  73.2921880
 134.8436970   7.7512750  74.6305450 130.3801050   8.5332010  84.6086510
 130.3516480   8.9374960  83.7414940 130.2166020   7.6042370  84.4458110
 142.3315870   9.3159110  85.9050680 142.8075590   9.7942000  86.5839760
 142.9523030   9.2476600  85.1796180 124.5339350   4.3607860  78.3172270
 124.6119770   4.4956630  77.3727990 125.1481030   3.6523750  78.5100390
 125.7786980   6.0608050  74.7278450 125.3715060   6.2022640  73.8732050
 126.6699990   5.7768210  74.5249660 141.7349120   6.5071960  83.0650690
 141.8612180   6.2683840  82.1467870 141.7770500   5.6756500  83.5372770
 135.5965860  10.2099960  81.6345500 136.1110530  10.1207970  82.4367930
 134.7534940  10.5559660  81.9273410 137.5720260  10.4955300  71.0629500
 137.4121400  10.2058240  71.9611330 137.4066970   9.7195430  70.5274730
 130.0508640  10.2753830  72.8401120 129.8751120   9.3589370  72.6268920
 129.1964380  10.6341120  73.0798920 137.2746390   8.0042860  69.6227500
 136.5811550   8.0020150  68.9629780 138.0169250   7.5802180  69.1921670
 136.8396320   9.6305570  73.6975990 137.2953270   8.8494950  74.0114610
 137.1788840  10.3412390  74.2417170 124.5898870   5.4022030  80.8566730
 124.7529910   4.9327390  80.0386100 125.0551320   4.8945590  81.5215570
 126.1637850   4.7773460  83.0162540 125.7792640   4.1367130  83.6145500
 126.4750040   5.4809580  83.5857270 128.6316150   4.8719630  71.4122220
 127.8578410   4.3317250  71.2520940 129.3610780   4.3526240  71.0739980
 139.3904130   3.8684990  77.2048610 140.1103250   4.3640280  76.8144720
 139.1885950   3.1902880  76.5602480 134.7722930   3.9394050  83.0917610
 134.7060240   3.0189720  82.8375200 134.1428070   4.0369490  83.8062250
 128.6753550   4.5400010  75.0501030 129.1932220   3.7368270  74.9957920
 128.2237570   4.4779150  75.8917860 133.5623050   5.8066290  70.3228330
 133.9038750   6.5508520  69.8271650 132.7335760   6.1197410  70.6853160
 134.7039660   6.7614620  82.8421410 134.7184200   5.8295580  82.6240320
 133.9964760   6.8474380  83.4811180 140.9150870   3.4021960  82.1889990
 140.1899060   3.9950740  81.9919380 141.4426330   3.3945500  81.3903360
 140.8663980   7.7996700  71.8402150 140.2240140   7.1452320  72.1145870
 140.4794640   8.2051790  71.0642820 136.4450460   5.1282130  75.6873840
 136.7974280   4.5310260  75.0275210 135.5612790   4.8026360  75.8582090
 132.5313740   5.8879820  73.0944250 133.2184870   6.4349030  73.4751840
 131.7446160   6.4320550  73.1293860 131.8340950   2.8925850  72.7069610
 132.2903730   3.7031100  72.9329800 131.4829160   2.5748990  73.5388100
 134.1373560   8.4032190  79.9361910 134.7815780   8.6091570  80.6135330
 134.5003000   7.6420590  79.4832760 135.4105640   6.4064540  78.6539360
 136.0527870   5.7057700  78.7671530 135.9354990   7.1862980  78.4736250
 139.2561360   6.6913160  68.3778500 139.0298940   5.9743600  68.9703140
 138.8657560   6.4425600  67.5400250 137.1843260   7.2059440  81.8575420
 137.5199500   7.7926130  82.5353340 136.2643600   7.0752150  82.0873210
 125.0377390  10.7180020  69.1522960 125.3975030  11.3169360  68.4980230
 124.8969730  11.2639910  69.9257990 138.8377610   4.6085100  70.0392660
 138.5499310   5.0697790  70.8270540 139.6329780   4.1482870  70.3076880
 125.0219250   8.9834880  83.6265360 125.1310370   8.0429620  83.4860750
 124.3699810   9.2489630  82.9779090 133.0131840   7.2550770  85.0263480
 132.6928710   6.5360010  85.5709170 132.3390200   7.9305840  85.0999540
 131.0546010   8.1011220  69.9696630 131.0456110   8.8340910  69.3541140
 130.1344370   7.8542800  70.0623590 126.6552650   3.3226110  70.7143390
 126.0480600   4.0625010  70.7238690 127.1302000   3.4125470  69.8881590
 134.0405610   8.1639460  68.6321820 134.1417590   7.9603450  67.7023800
 133.1407350   7.9097740  68.8369600 132.6823720  10.6825780  73.3269490
 132.9365220  10.6447170  72.4048860 131.7336200  10.5559110  73.3197740
 128.6657940   3.2837260  68.4631960 129.4321210   3.1718620  69.0257390
 128.7432630   2.5875230  67.8108730 140.6901880   8.7726510  76.5782260
 140.8149300   9.5957680  77.0506070 141.5567440   8.5617240  76.2306410
 128.1619410  10.8657720  76.2499390 128.8981890  10.3173180  76.5207960
 128.5460330  11.7313730  76.1105380 125.0464890   6.9331290  72.1240900
 124.1204670   7.1752430  72.1146310 125.5121320   7.7605550  72.0025650
 127.1677690  10.0503790  85.4384970 127.9690420  10.3715840  85.8520370
 126.6529510   9.6899370  86.1604880 131.2721720  10.0388030  68.0724960
 132.0650330  10.3276860  67.6206750 130.7526070   9.6080200  67.3937440
 136.0042320   6.1583660  85.3860380 135.3980480   6.1815260  84.6456130
 135.6996430   5.4266700  85.9227630 137.4342690   9.8863950  83.9969790
 138.3864440   9.8021970  83.9470030 137.2870910  10.5505660  84.6703580
 140.3251890   9.2658160  69.4961700 140.0393400   8.8523300  68.6815880
 140.1271440  10.1945870  69.3762220 124.8875500   2.5377250  84.3821020
 125.3914520   1.9584530  84.9537250 124.1482920   2.8217480  84.9197390
 131.7899120   5.2591440  67.9367310 131.6849760   4.6443790  68.6628690
 131.6223340   4.7357330  67.1530320 131.9413440   3.9448240  83.9156540
 131.1759110   4.5133240  83.8311210 132.1229400   3.6524450  83.0224770
 135.0301850   4.3211470  68.5409300 134.4811950   4.7680770  69.1852040
 135.6521110   3.8160720  69.0646970 139.0836790   5.6753570  84.4731560
 139.8246260   6.0129330  83.9699020 138.3209470   5.8445630  83.9201330
 130.6976970   3.2802390  70.4374600 131.1193390   3.1142260  71.2805990
 130.8227810   2.4702620  69.9429740 137.7582450   3.7268400  83.0086770
 138.1723470   3.8813480  83.8577190 136.8233450   3.8523620  83.1712550
 132.5197680   3.6788880  80.9782700 132.9385790   4.5221610  80.8058940
 131.6006310   3.8160920  80.7489480 137.1949480   1.9642250  80.9383050
 136.6684700   2.4884870  80.3348190 137.5380820   2.5969640  81.5692780
 130.3705100   9.9841890  82.0940430 129.8326190  10.7087950  81.7749130
 130.6239060   9.5072230  81.3037770 133.2267310  11.2193100  82.3527080
 133.1526010  12.1228240  82.6599450 132.3246150  10.9005000  82.3249150
 133.7752640  10.3851610  69.9753440 134.6703430  10.7236580  69.9972200
 133.8070270   9.6631020  69.3477720 127.4148800   5.7578660  68.2040440
 127.8523670   6.3008330  68.8598020 127.8996530   4.9325610  68.2136780
 124.6294600   8.5467690  75.6560700 124.9597610   7.6788750  75.4239340
 125.0585600   8.7526210  76.4865660 129.2256520   6.8776700  73.3162670
 128.9252060   6.7541670  74.2166580 129.1194010   6.0185290  72.9078400
 125.1184810   9.4138280  78.3942330 124.6815800   9.5939080  79.2266480
 125.6862490  10.1712900  78.2524050 140.7546990   8.9155280  82.6819640
 140.1548980   8.9747840  81.9383560 140.8840890   7.9760260  82.8116490
 141.9948440   6.6573100  68.0189350 141.1641400   6.7249750  68.4896580
 142.1720270   7.5477220  67.7156210 141.4504900   3.4020580  70.5223550
 142.2123810   3.9717230  70.6283240 141.4659270   2.8347780  71.2931860
 124.9509240   1.9258510  74.7531210 124.2958080   1.6570150  74.1090910
 125.7887190   1.8162990  74.3033190 142.4564870   4.2570680  75.3665480
 142.8273700   3.4738000  74.9601450 143.0966800   4.9459780  75.1882780
 139.4398630   5.6407260  80.7795800 138.6258470   6.0704420  81.0421590
 139.8472830   6.2525670  80.1664850 141.5024070   3.6954950  67.6796070
 141.7772910   4.6033830  67.5515290 141.3134810   3.6317480  68.6158060
 139.4974680  10.3925860  74.3064070 140.0933750  10.0710430  73.6298490
 139.7552830   9.9197680  75.0977340 127.4037250   6.8243770  84.4554700
 127.3606880   6.4536680  85.3369160 127.5348260   7.7621340  84.5956520
 131.1043280   8.3803360  80.0564420 130.8634640   8.6477920  79.1694940
 132.0445920   8.5509090  80.1115280 142.3647440  10.3997740  80.8575060
 141.8705720  10.7966610  80.1402190 141.7560730   9.7746950  81.2512340
 127.2425280   9.7706020  81.5752480 126.6485600   9.6390720  82.3142520
 127.2349120   8.9344160  81.1094580 140.0486890  11.0421160  78.1361800
 139.5889860  11.7936970  77.7619820 139.4199350  10.3227630  78.0776600
 126.8737510   7.1364400  80.5260520 126.1471570   6.5169690  80.4586470
 126.9346660   7.5305010  79.6558600 130.4782610   9.3509400  77.3109930
 130.9947630   8.7396760  76.7858190 131.1279990   9.8538180  77.8020940
 133.2178110  10.2417890  78.1378910 133.5055920   9.9872190  77.2611920
 133.7301330   9.6895250  78.7284480 125.1567510  10.4538790  73.7357280
 124.9889550   9.8209470  74.4339170 124.2902020  10.6598190  73.3851470
 126.7630210   9.1472020  71.1807420 126.2377830   9.5280050  70.4769380
 126.6874790   9.7722790  71.9017130 133.2850470  11.1633990  85.5047110
 134.2117780  10.9278260  85.5483070 133.2700900  11.9905990  85.0233140
 141.5195530  10.7059560  72.5021360 141.6947720  10.0197300  71.8582280
 140.8217100  11.2306610  72.1098030 129.3623180  11.0954400  70.0556670
 130.0942000  10.8113680  69.5080560 129.6216850  10.8567680  70.9456050
 128.5237970   7.2119130  70.0603000 127.8946850   7.6804230  70.6088830
 128.6385800   6.3668350  70.4949190 139.8528030  10.3903850  85.3288150
 140.6453350   9.8953080  85.1214110 140.1461180  11.0693990  85.9363760
 134.1105730   3.0403810  58.0913470 133.3347830   2.5604250  58.3812040
 134.7618660   2.3609460  57.9169630 128.1271560   3.3523620  58.9689230
 127.2956440   3.0972330  59.3685740 128.7352540   3.4234390  59.7047150
 138.1313160   7.4464000  56.8712600 137.6694690   6.6751240  57.1999770
 138.9438710   7.4730070  57.3765050 128.1072820   7.3863710  59.1647250
 128.4100860   6.4961450  58.9857470 128.8516410   7.9433930  58.9369500
 134.3576470   9.7322010  56.4916590 133.7387910  10.1879510  55.9211030
 135.2128250   9.8873470  56.0906290 133.5514720   5.7161000  58.0983630
 133.4823000   4.7750940  57.9372760 134.3134580   5.8062410  58.6706200
 135.2239820   4.6161250  53.8848500 134.6057090   5.0810700  53.3211220
 135.7363070   5.3088730  54.3018010 130.0871580   4.1437120  60.5632100
 129.7540960   4.7706040  61.2053170 130.2638260   4.6699000  59.7833770
 129.2990680   6.1117920  62.3781280 129.9164680   6.7869000  62.0965730
 128.4383800   6.5205900  62.2868780 124.5923020   5.3017780  51.2588130
 124.2151000   5.7904880  50.5273030 124.8496090   5.9743060  51.8894660
 140.2168270   7.5757330  60.2935920 139.5331790   8.2456440  60.2852590
 140.7562560   7.7737980  59.5280780 137.7527010   9.4201460  59.0081100
 137.7654170   9.0163750  58.1403360 137.2002230  10.1948750  58.9042530
 139.0472430   6.1417680  54.0971270 138.9368760   5.1992010  54.2220690
 139.0440680   6.5033320  54.9834030 137.1512450   4.3231300  60.3363710
 137.5681240   4.1091410  59.5017170 137.8752270   4.5804090  60.9072330
 134.5892710   1.7683000  53.4533760 133.6621990   1.7020380  53.6822230
 134.7417530   2.7063130  53.3389000 141.0974550   2.7218520  60.4279950
 140.2693180   2.7911610  59.9530080 141.6925030   3.3072830  59.9595780
 138.6190000   3.3303300  53.9569010 138.0002420   2.9922850  53.3095310
 138.6014450   2.6863060  54.6648200 130.6631050   5.9815300  58.3992700
 130.3659340   5.3760770  57.7200480 131.6130870   6.0192610  58.2882060
 138.7516660   9.5547170  62.0615800 138.2747220  10.3619360  61.8688410
 138.0678450   8.9025500  62.2142010 129.7549480   5.7196990  65.0500500
 128.8578010   5.9436960  65.2973900 129.7802350   5.8431930  64.1011900
 136.7954700   2.5690110  50.9641760 137.2347980   1.7312540  50.8179580
 137.5083120   3.2019510  51.0505900 128.5820700   2.5910310  63.6257870
 128.4428470   3.4633110  63.9945270 127.7002060   2.2483120  63.4805810
 134.9050080   7.5086180  54.9323000 135.3445990   8.2510510  54.5178390
 134.8436970   7.7512750  55.8561960 130.3801050   8.5332010  65.8343020
 130.3516480   8.9374960  64.9671450 130.2166020   7.6042370  65.6714620
 142.3315870   9.3159110  67.1307190 142.8075590   9.7942000  67.8096270
 142.9523030   9.2476600  66.4052690 124.5339350   4.3607860  59.5428780
 124.6119770   4.4956630  58.5984500 125.1481030   3.6523750  59.7356900
 125.7786980   6.0608050  55.9534960 125.3715060   6.2022640  55.0988560
 126.6699990   5.7768210  55.7506170 141.7349120   6.5071960  64.2907200
 141.8612180   6.2683840  63.3724380 141.7770500   5.6756500  64.7629280
 135.5965860  10.2099960  62.8602010 136.1110530  10.1207970  63.6624440
 134.7534940  10.5559660  63.1529920 137.5720260  10.4955300  52.2886010
 137.4121400  10.2058240  53.1867840 137.4066970   9.7195430  51.7531240
 130.0508640  10.2753830  54.0657630 129.8751120   9.3589370  53.8525430
 129.1964380  10.6341120  54.3055430 137.2746390   8.0042860  50.8484010
 136.5811550   8.0020150  50.1886290 138.0169250   7.5802180  50.4178180
 136.8396320   9.6305570  54.9232500 137.2953270   8.8494950  55.2371120
 137.1788840  10.3412390  55.4673680 124.5898870   5.4022030  62.0823240
 124.7529910   4.9327390  61.2642610 125.0551320   4.8945590  62.7472080
 126.1637850   4.7773460  64.2419050 125.7792640   4.1367130  64.8402010
 126.4750040   5.4809580  64.8113780 128.6316150   4.8719630  52.6378730
 127.8578410   4.3317250  52.4777450 129.3610780   4.3526240  52.2996490
 139.3904130   3.8684990  58.4305120 140.1103250   4.3640280  58.0401230
 139.1885950   3.1902880  57.7858990 134.7722930   3.9394050  64.3174120
 134.7060240   3.0189720  64.0631710 134.1428070   4.0369490  65.0318760
 128.6753550   4.5400010  56.2757540 129.1932220   3.7368270  56.2214430
 128.2237570   4.4779150  57.1174370 133.5623050   5.8066290  51.5484840
 133.9038750   6.5508520  51.0528160 132.7335760   6.1197410  51.9109670
 134.7039660   6.7614620  64.0677920 134.7184200   5.8295580  63.8496830
 133.9964760   6.8474380  64.7067690 140.9150870   3.4021960  63.4146500
 140.1899060   3.9950740  63.2175890 141.4426330   3.3945500  62.6159870
 140.8663980   7.7996700  53.0658660 140.2240140   7.1452320  53.3402380
 140.4794640   8.2051790  52.2899330 136.4450460   5.1282130  56.9130350
 136.7974280   4.5310260  56.2531720 135.5612790   4.8026360  57.0838600
 132.5313740   5.8879820  54.3200760 133.2184870   6.4349030  54.7008350
 131.7446160   6.4320550  54.3550370 131.8340950   2.8925850  53.9326120
 132.2903730   3.7031100  54.1586310 131.4829160   2.5748990  54.7644610
 134.1373560   8.4032190  61.1618420 134.7815780   8.6091570  61.8391840
 134.5003000   7.6420590  60.7089270 135.4105640   6.4064540  59.8795870
 136.0527870   5.7057700  59.9928040 135.9354990   7.1862980  59.6992760
 139.2561360   6.6913160  49.6035010 139.0298940   5.9743600  50.1959650
 138.8657560   6.4425600  48.7656760 137.1843260   7.2059440  63.0831930
 137.5199500   7.7926130  63.7609850 136.2643600   7.0752150  63.3129720
 125.0377390  10.7180020  50.3779470 125.3975030  11.3169360  49.7236740
 124.8969730  11.2639910  51.1514500 138.8377610   4.6085100  51.2649170
 138.5499310   5.0697790  52.0527050 139.6329780   4.1482870  51.5333390
 125.0219250   8.9834880  64.8521870 125.1310370   8.0429620  64.7117260
 124.3699810   9.2489630  64.2035600 133.0131840   7.2550770  66.2519990
 132.6928710   6.5360010  66.7965680 132.3390200   7.9305840  66.3256050
 131.0546010   8.1011220  51.1953140 131.0456110   8.8340910  50.5797650
 130.1344370   7.8542800  51.2880100 126.6552650   3.3226110  51.9399900
 126.0480600   4.0625010  51.9495200 127.1302000   3.4125470  51.1138100
 134.0405610   8.1639460  49.8578330 134.1417590   7.9603450  48.9280310
 133.1407350   7.9097740  50.0626110 132.6823720  10.6825780  54.5526000
 132.9365220  10.6447170  53.6305370 131.7336200  10.5559110  54.5454250
 128.6657940   3.2837260  49.6888470 129.4321210   3.1718620  50.2513900
 128.7432630   2.5875230  49.0365240 140.6901880   8.7726510  57.8038770
 140.8149300   9.5957680  58.2762580 141.5567440   8.5617240  57.4562920
 128.1619410  10.8657720  57.4755900 128.8981890  10.3173180  57.7464470
 128.5460330  11.7313730  57.3361890 125.0464890   6.9331290  53.3497410
 124.1204670   7.1752430  53.3402820 125.5121320   7.7605550  53.2282160
 127.1677690  10.0503790  66.6641480 127.9690420  10.3715840  67.0776880
 126.6529510   9.6899370  67.3861390 131.2721720  10.0388030  49.2981470
 132.0650330  10.3276860  48.8463260 130.7526070   9.6080200  48.6193950
 136.0042320   6.1583660  66.6116890 135.3980480   6.1815260  65.8712640
 135.6996430   5.4266700  67.1484140 137.4342690   9.8863950  65.2226300
 138.3864440   9.8021970  65.1726540 137.2870910  10.5505660  65.8960090
 140.3251890   9.2658160  50.7218210 140.0393400   8.8523300  49.9072390
 140.1271440  10.1945870  50.6018730 124.8875500   2.5377250  65.6077530
 125.3914520   1.9584530  66.1793760 124.1482920   2.8217480  66.1453900
 131.7899120   5.2591440  49.1623820 131.6849760   4.6443790  49.8885200
 131.6223340   4.7357330  48.3786830 131.9413440   3.9448240  65.1413050
 131.1759110   4.5133240  65.0567720 132.1229400   3.6524450  64.2481280
 135.0301850   4.3211470  49.7665810 134.4811950   4.7680770  50.4108550
 135.6521110   3.8160720  50.2903480 139.0836790   5.6753570  65.6988070
 139.8246260   6.0129330  65.1955530 138.3209470   5.8445630  65.1457840
 130.6976970   3.2802390  51.6631110 131.1193390   3.1142260  52.5062500
 130.8227810   2.4702620  51.1686250 137.7582450   3.7268400  64.2343280
 138.1723470   3.8813480  65.0833700 136.8233450   3.8523620  64.3969060
 132.5197680   3.6788880  62.2039210 132.9385790   4.5221610  62.0315450
 131.6006310   3.8160920  61.9745990 137.1949480   1.9642250  62.1639560
 136.6684700   2.4884870  61.5604700 137.5380820   2.5969640  62.7949290
 130.3705100   9.9841890  63.3196940 129.8326190  10.7087950  63.0005640
 130.6239060   9.5072230  62.5294280 133.2267310  11.2193100  63.5783590
 133.1526010  12.1228240  63.8855960 132.3246150  10.9005000  63.5505660
 133.7752640  10.3851610  51.2009950 134.6703430  10.7236580  51.2228710
 133.8070270   9.6631020  50.5734230 127.4148800   5.7578660  49.4296950
 127.8523670   6.3008330  50.0854530 127.8996530   4.9325610  49.4393290
 124.6294600   8.5467690  56.8817210 124.9597610   7.6788750  56.6495850
 125.0585600   8.7526210  57.7122170 129.2256520   6.8776700  54.5419180
 128.9252060   6.7541670  55.4423090 129.1194010   6.0185290  54.1334910
 125.1184810   9.4138280  59.6198840 124.6815800   9.5939080  60.4522990
 125.6862490  10.1712900  59.4780560 140.7546990   8.9155280  63.9076150
 140.1548980   8.9747840  63.1640070 140.8840890   7.9760260  64.0373000
 141.9948440   6.6573100  49.2445860 141.1641400   6.7249750  49.7153090
 142.1720270   7.5477220  48.9412720 141.4504900   3.4020580  51.7480060
 142.2123810   3.9717230  51.8539750 141.4659270   2.8347780  52.5188370
 124.9509240   1.9258510  55.9787720 124.2958080   1.6570150  55.3347420
 125.7887190   1.8162990  55.5289700 142.4564870   4.2570680  56.5921990
 142.8273700   3.4738000  56.1857960 143.0966800   4.9459780  56.4139290
 139.4398630   5.6407260  62.0052310 138.6258470   6.0704420  62.2678100
 139.8472830   6.2525670  61.3921360 141.5024070   3.6954950  48.9052580
 141.7772910   4.6033830  48.7771800 141.3134810   3.6317480  49.8414570
 139.4974680  10.3925860  55.5320580 140.0933750  10.0710430  54.8555000
 139.7552830   9.9197680  56.3233850 127.4037250   6.8243770  65.6811210
 127.3606880   6.4536680  66.5625670 127.5348260   7.7621340  65.8213030
 131.1043280   8.3803360  61.2820930 130.8634640   8.6477920  60.3951450
 132.0445920   8.5509090  61.3371790 142.3647440  10.3997740  62.0831570
 141.8705720  10.7966610  61.3658700 141.7560730   9.7746950  62.4768850
 127.2425280   9.7706020  62.8008990 126.6485600   9.6390720  63.5399030
 127.2349120   8.9344160  62.3351090 140.0486890  11.0421160  59.3618310
 139.5889860  11.7936970  58.9876330 139.4199350  10.3227630  59.3033110
 126.8737510   7.1364400  61.7517030 126.1471570   6.5169690  61.6842980
 126.9346660   7.5305010  60.8815110 130.4782610   9.3509400  58.5366440
 130.9947630   8.7396760  58.0114700 131.1279990   9.8538180  59.0277450
 133.2178110  10.2417890  59.3635420 133.5055920   9.9872190  58.4868430
 133.7301330   9.6895250  59.9540990 125.1567510  10.4538790  54.9613790
 124.9889550   9.8209470  55.6595680 124.2902020  10.6598190  54.6107980
 126.7630210   9.1472020  52.4063930 126.2377830   9.5280050  51.7025890
 126.6874790   9.7722790  53.1273640 133.2850470  11.1633990  66.7303620
 134.2117780  10.9278260  66.7739580 133.2700900  11.9905990  66.2489650
 141.5195530  10.7059560  53.7277870 141.6947720  10.0197300  53.0838790
 140.8217100  11.2306610  53.3354540 129.3623180  11.0954400  51.2813180
 130.0942000  10.8113680  50.7337070 129.6216850  10.8567680  52.1712560
 128.5237970   7.2119130  51.2859510 127.8946850   7.6804230  51.8345340
 128.6385800   6.3668350  51.7205700 139.8528030  10.3903850  66.5544660
 140.6453350   9.8953080  66.3470620 140.1461180  11.0693990  67.1620270
 134.1105730   3.0403810  39.3169980 133.3347830   2.5604250  39.6068550
 134.7618660   2.3609460  39.1426140 128.1271560   3.3523620  40.1945740
 127.2956440   3.0972330  40.5942250 128.7352540   3.4234390  40.9303660
 138.1313160   7.4464000  38.0969110 137.6694690   6.6751240  38.4256280
 138.9438710   7.4730070  38.6021560 128.1072820   7.3863710  40.3903760
 128.4100860   6.4961450  40.2113980 128.8516410   7.9433930  40.1626010
 134.3576470   9.7322010  37.7173100 133.7387910  10.1879510  37.1467540
 135.2128250   9.8873470  37.3162800 133.5514720   5.7161000  39.3240140
 133.4823000   4.7750940  39.1629270 134.3134580   5.8062410  39.8962710
 135.2239820   4.6161250  35.1105010 134.6057090   5.0810700  34.5467730
 135.7363070   5.3088730  35.5274520 130.0871580   4.1437120  41.7888610
 129.7540960   4.7706040  42.4309680 130.2638260   4.6699000  41.0090280
 129.2990680   6.1117920  43.6037790 129.9164680   6.7869000  43.3222240
 128.4383800   6.5205900  43.5125290 124.5923020   5.3017780  32.4844640
 124.2151000   5.7904880  31.7529540 124.8496090   5.9743060  33.1151170
 140.2168270   7.5757330  41.5192430 139.5331790   8.2456440  41.5109100
 140.7562560   7.7737980  40.7537290 137.7527010   9.4201460  40.2337610
 137.7654170   9.0163750  39.3659870 137.2002230  10.1948750  40.1299040
 139.0472430   6.1417680  35.3227780 138.9368760   5.1992010  35.4477200
 139.0440680   6.5033320  36.2090540 137.1512450   4.3231300  41.5620220
 137.5681240   4.1091410  40.7273680 137.8752270   4.5804090  42.1328840
 134.5892710   1.7683000  34.6790270 133.6621990   1.7020380  34.9078740
 134.7417530   2.7063130  34.5645510 141.0974550   2.7218520  41.6536460
 140.2693180   2.7911610  41.1786590 141.6925030   3.3072830  41.1852290
 138.6190000   3.3303300  35.1825520 138.0002420   2.9922850  34.5351820
 138.6014450   2.6863060  35.8904710 130.6631050   5.9815300  39.6249210
 130.3659340   5.3760770  38.9456990 131.6130870   6.0192610  39.5138570
 138.7516660   9.5547170  43.2872310 138.2747220  10.3619360  43.0944920
 138.0678450   8.9025500  43.4398520 129.7549480   5.7196990  46.2757010
 128.8578010   5.9436960  46.5230410 129.7802350   5.8431930  45.3268410
 136.7954700   2.5690110  32.1898270 137.2347980   1.7312540  32.0436090
 137.5083120   3.2019510  32.2762410 128.5820700   2.5910310  44.8514380
 128.4428470   3.4633110  45.2201780 127.7002060   2.2483120  44.7062320
 134.9050080   7.5086180  36.1579510 135.3445990   8.2510510  35.7434900
 134.8436970   7.7512750  37.0818470 130.3801050   8.5332010  47.0599530
 130.3516480   8.9374960  46.1927960 130.2166020   7.6042370  46.8971130
 142.3315870   9.3159110  48.3563700 142.8075590   9.7942000  49.0352780
 142.9523030   9.2476600  47.6309200 124.5339350   4.3607860  40.7685290
 124.6119770   4.4956630  39.8241010 125.1481030   3.6523750  40.9613410
 125.7786980   6.0608050  37.1791470 125.3715060   6.2022640  36.3245070
 126.6699990   5.7768210  36.9762680 141.7349120   6.5071960  45.5163710
 141.8612180   6.2683840  44.5980890 141.7770500   5.6756500  45.9885790
 135.5965860  10.2099960  44.0858520 136.1110530  10.1207970  44.8880950
 134.7534940  10.5559660  44.3786430 137.5720260  10.4955300  33.5142520
 137.4121400  10.2058240  34.4124350 137.4066970   9.7195430  32.9787750
 130.0508640  10.2753830  35.2914140 129.8751120   9.3589370  35.0781940
 129.1964380  10.6341120  35.5311940 137.2746390   8.0042860  32.0740520
 136.5811550   8.0020150  31.4142800 138.0169250   7.5802180  31.6434690
 136.8396320   9.6305570  36.1489010 137.2953270   8.8494950  36.4627630
 137.1788840  10.3412390  36.6930190 124.5898870   5.4022030  43.3079750
 124.7529910   4.9327390  42.4899120 125.0551320   4.8945590  43.9728590
 126.1637850   4.7773460  45.4675560 125.7792640   4.1367130  46.0658520
 126.4750040   5.4809580  46.0370290 128.6316150   4.8719630  33.8635240
 127.8578410   4.3317250  33.7033960 129.3610780   4.3526240  33.5253000
 139.3904130   3.8684990  39.6561630 140.1103250   4.3640280  39.2657740
 139.1885950   3.1902880  39.0115500 134.7722930   3.9394050  45.5430630
 134.7060240   3.0189720  45.2888220 134.1428070   4.0369490  46.2575270
 128.6753550   4.5400010  37.5014050 129.1932220   3.7368270  37.4470940
 128.2237570   4.4779150  38.3430880 133.5623050   5.8066290  32.7741350
 133.9038750   6.5508520  32.2784670 132.7335760   6.1197410  33.1366180
 134.7039660   6.7614620  45.2934430 134.7184200   5.8295580  45.0753340
 133.9964760   6.8474380  45.9324200 140.9150870   3.4021960  44.6403010
 140.1899060   3.9950740  44.4432400 141.4426330   3.3945500  43.8416380
 140.8663980   7.7996700  34.2915170 140.2240140   7.1452320  34.5658890
 140.4794640   8.2051790  33.5155840 136.4450460   5.1282130  38.1386860
 136.7974280   4.5310260  37.4788230 135.5612790   4.8026360  38.3095110
 132.5313740   5.8879820  35.5457270 133.2184870   6.4349030  35.9264860
 131.7446160   6.4320550  35.5806880 131.8340950   2.8925850  35.1582630
 132.2903730   3.7031100  35.3842820 131.4829160   2.5748990  35.9901120
 134.1373560   8.4032190  42.3874930 134.7815780   8.6091570  43.0648350
 134.5003000   7.6420590  41.9345780 135.4105640   6.4064540  41.1052380
 136.0527870   5.7057700  41.2184550 135.9354990   7.1862980  40.9249270
 139.2561360   6.6913160  30.8291520 139.0298940   5.9743600  31.4216160
 138.8657560   6.4425600  29.9913270 137.1843260   7.2059440  44.3088440
 137.5199500   7.7926130  44.9866360 136.2643600   7.0752150  44.5386230
 125.0377390  10.7180020  31.6035980 125.3975030  11.3169360  30.9493250
 124.8969730  11.2639910  32.3771010 138.8377610   4.6085100  32.4905680
 138.5499310   5.0697790  33.2783560 139.6329780   4.1482870  32.7589900
 125.0219250   8.9834880  46.0778380 125.1310370   8.0429620  45.9373770
 124.3699810   9.2489630  45.4292110 133.0131840   7.2550770  47.4776500
 132.6928710   6.5360010  48.0222190 132.3390200   7.9305840  47.5512560
 131.0546010   8.1011220  32.4209650 131.0456110   8.8340910  31.8054160
 130.1344370   7.8542800  32.5136610 126.6552650   3.3226110  33.1656410
 126.0480600   4.0625010  33.1751710 127.1302000   3.4125470  32.3394610
 134.0405610   8.1639460  31.0834840 134.1417590   7.9603450  30.1536820
 133.1407350   7.9097740  31.2882620 132.6823720  10.6825780  35.7782510
 132.9365220  10.6447170  34.8561880 131.7336200  10.5559110  35.7710760
 128.6657940   3.2837260  30.9144980 129.4321210   3.1718620  31.4770410
 128.7432630   2.5875230  30.2621750 140.6901880   8.7726510  39.0295280
 140.8149300   9.5957680  39.5019090 141.5567440   8.5617240  38.6819430
 128.1619410  10.8657720  38.7012410 128.8981890  10.3173180  38.9720980
 128.5460330  11.7313730  38.5618400 125.0464890   6.9331290  34.5753920
 124.1204670   7.1752430  34.5659330 125.5121320   7.7605550  34.4538670
 127.1677690  10.0503790  47.8897990 127.9690420  10.3715840  48.3033390
 126.6529510   9.6899370  48.6117900 131.2721720  10.0388030  30.5237980
 132.0650330  10.3276860  30.0719770 130.7526070   9.6080200  29.8450460
 136.0042320   6.1583660  47.8373400 135.3980480   6.1815260  47.0969150
 135.6996430   5.4266700  48.3740650 137.4342690   9.8863950  46.4482810
 138.3864440   9.8021970  46.3983050 137.2870910  10.5505660  47.1216600
 140.3251890   9.2658160  31.9474720 140.0393400   8.8523300  31.1328900
 140.1271440  10.1945870  31.8275240 124.8875500   2.5377250  46.8334040
 125.3914520   1.9584530  47.4050270 124.1482920   2.8217480  47.3710410
 131.7899120   5.2591440  30.3880330 131.6849760   4.6443790  31.1141710
 131.6223340   4.7357330  29.6043340 131.9413440   3.9448240  46.3669560
 131.1759110   4.5133240  46.2824230 132.1229400   3.6524450  45.4737790
 135.0301850   4.3211470  30.9922320 134.4811950   4.7680770  31.6365060
 135.6521110   3.8160720  31.5159990 139.0836790   5.6753570  46.9244580
 139.8246260   6.0129330  46.4212040 138.3209470   5.8445630  46.3714350
 130.6976970   3.2802390  32.8887620 131.1193390   3.1142260  33.7319010
 130.8227810   2.4702620  32.3942760 137.7582450   3.7268400  45.4599790
 138.1723470   3.8813480  46.3090210 136.8233450   3.8523620  45.6225570
 132.5197680   3.6788880  43.4295720 132.9385790   4.5221610  43.2571960
 131.6006310   3.8160920  43.2002500 137.1949480   1.9642250  43.3896070
 136.6684700   2.4884870  42.7861210 137.5380820   2.5969640  44.0205800
 130.3705100   9.9841890  44.5453450 129.8326190  10.7087950  44.2262150
 130.6239060   9.5072230  43.7550790 133.2267310  11.2193100  44.8040100
 133.1526010  12.1228240  45.1112470 132.3246150  10.9005000  44.7762170
 133.7752640  10.3851610  32.4266460 134.6703430  10.7236580  32.4485220
 133.8070270   9.6631020  31.7990740 127.4148800   5.7578660  30.6553460
 127.8523670   6.3008330  31.3111040 127.8996530   4.9325610  30.6649800
 124.6294600   8.5467690  38.1073720 124.9597610   7.6788750  37.8752360
 125.0585600   8.7526210  38.9378680 129.2256520   6.8776700  35.7675690
 128.9252060   6.7541670  36.6679600 129.1194010   6.0185290  35.3591420
 125.1184810   9.4138280  40.8455350 124.6815800   9.5939080  41.6779500
 125.6862490  10.1712900  40.7037070 140.7546990   8.9155280  45.1332660
 140.1548980   8.9747840  44.3896580 140.8840890   7.9760260  45.2629510
 141.9948440   6.6573100  30.4702370 141.1641400   6.7249750  30.9409600
 142.1720270   7.5477220  30.1669230 141.4504900   3.4020580  32.9736570
 142.2123810   3.9717230  33.0796260 141.4659270   2.8347780  33.7444880
 124.9509240   1.9258510  37.2044230 124.2958080   1.6570150  36.5603930
 125.7887190   1.8162990  36.7546210 142.4564870   4.2570680  37.8178500
 142.8273700   3.4738000  37.4114470 143.0966800   4.9459780  37.6395800
 139.4398630   5.6407260  43.2308820 138.6258470   6.0704420  43.4934610
 139.8472830   6.2525670  42.6177870 141.5024070   3.6954950  30.1309090
 141.7772910   4.6033830  30.0028310 141.3134810   3.6317480  31.0671080
 139.4974680  10.3925860  36.7577090 140.0933750  10.0710430  36.0811510
 139.7552830   9.9197680  37.5490360 127.4037250   6.8243770  46.9067720
 127.3606880   6.4536680  47.7882180 127.5348260   7.7621340  47.0469540
 131.1043280   8.3803360  42.5077440 130.8634640   8.6477920  41.6207960
 132.0445920   8.5509090  42.5628300 142.3647440  10.3997740  43.3088080
 141.8705720  10.7966610  42.5915210 141.7560730   9.7746950  43.7025360
 127.2425280   9.7706020  44.0265500 126.6485600   9.6390720  44.7655540
 127.2349120   8.9344160  43.5607600 140.0486890  11.0421160  40.5874820
 139.5889860  11.7936970  40.2132840 139.4199350  10.3227630  40.5289620
 126.8737510   7.1364400  42.9773540 126.1471570   6.5169690  42.9099490
 126.9346660   7.5305010  42.1071620 130.4782610   9.3509400  39.7622950
 130.9947630   8.7396760  39.2371210 131.1279990   9.8538180  40.2533960
 133.2178110  10.2417890  40.5891930 133.5055920   9.9872190  39.7124940
 133.7301330   9.6895250  41.1797500 125.1567510  10.4538790  36.1870300
 124.9889550   9.8209470  36.8852190 124.2902020  10.6598190  35.8364490
 126.7630210   9.1472020  33.6320440 126.2377830   9.5280050  32.9282400
 126.6874790   9.7722790  34.3530150 133.2850470  11.1633990  47.9560130
 134.2117780  10.9278260  47.9996090 133.2700900  11.9905990  47.4746160
 141.5195530  10.7059560  34.9534380 141.6947720  10.0197300  34.3095300
 140.8217100  11.2306610  34.5611050 129.3623180  11.0954400  32.5069690
 130.0942000  10.8113680  31.9593580 129.6216850  10.8567680  33.3969070
 128.5237970   7.2119130  32.5116020 127.8946850   7.6804230  33.0601850
 128.6385800   6.3668350  32.9462210 139.8528030  10.3903850  47.7801170
 140.6453350   9.8953080  47.5727130 140.1461180  11.0693990  48.3876780
 134.1105730   3.0403810  20.5426490 133.3347830   2.5604250  20.8325060
 134.7618660   2.3609460  20.3682650 128.1271560   3.3523620  21.4202250
 127.2956440   3.0972330  21.8198760 128.7352540   3.4234390  22.1560170
 138.1313160   7.4464000  19.3225620 137.6694690   6.6751240  19.6512790
 138.9438710   7.4730070  19.8278070 128.1072820   7.3863710  21.6160270
 128.4100860   6.4961450  21.4370490 128.8516410   7.9433930  21.3882520
 134.3576470   9.7322010  18.9429610 133.7387910  10.1879510  18.3724050
 135.2128250   9.8873470  18.5419310 133.5514720   5.7161000  20.5496650
 133.4823000   4.7750940  20.3885780 134.3134580   5.8062410  21.1219220
 135.2239820   4.6161250  16.3361520 134.6057090   5.0810700  15.7724240
 135.7363070   5.3088730  16.7531030 130.0871580   4.1437120  23.0145120
 129.7540960   4.7706040  23.6566190 130.2638260   4.6699000  22.2346790
 129.2990680   6.1117920  24.8294300 129.9164680   6.7869000  24.5478750
 128.4383800   6.5205900  24.7381800 124.5923020   5.3017780  13.7101150
 124.2151000   5.7904880  12.9786050 124.8496090   5.9743060  14.3407680
 140.2168270   7.5757330  22.7448940 139.5331790   8.2456440  22.7365610
 140.7562560   7.7737980  21.9793800 137.7527010   9.4201460  21.4594120
 137.7654170   9.0163750  20.5916380 137.2002230  10.1948750  21.3555550
 139.0472430   6.1417680  16.5484290 138.9368760   5.1992010  16.6733710
 139.0440680   6.5033320  17.4347050 137.1512450   4.3231300  22.7876730
 137.5681240   4.1091410  21.9530190 137.8752270   4.5804090  23.3585350
 134.5892710   1.7683000  15.9046780 133.6621990   1.7020380  16.1335250
 134.7417530   2.7063130  15.7902020 141.0974550   2.7218520  22.8792970
 140.2693180   2.7911610  22.4043100 141.6925030   3.3072830  22.4108800
 138.6190000   3.3303300  16.4082030 138.0002420   2.9922850  15.7608330
 138.6014450   2.6863060  17.1161220 130.6631050   5.9815300  20.8505720
 130.3659340   5.3760770  20.1713500 131.6130870   6.0192610  20.7395080
 138.7516660   9.5547170  24.5128820 138.2747220  10.3619360  24.3201430
 138.0678450   8.9025500  24.6655030 129.7549480   5.7196990  27.5013520
 128.8578010   5.9436960  27.7486920 129.7802350   5.8431930  26.5524920
 136.7954700   2.5690110  13.4154780 137.2347980   1.7312540  13.2692600
 137.5083120   3.2019510  13.5018920 128.5820700   2.5910310  26.0770890
 128.4428470   3.4633110  26.4458290 127.7002060   2.2483120  25.9318830
 134.9050080   7.5086180  17.3836020 135.3445990   8.2510510  16.9691410
 134.8436970   7.7512750  18.3074980 130.3801050   8.5332010  28.2856040
 130.3516480   8.9374960  27.4184470 130.2166020   7.6042370  28.1227640
 142.3315870   9.3159110  29.5820210 142.8075590   9.7942000  30.2609290
 142.9523030   9.2476600  28.8565710 124.5339350   4.3607860  21.9941800
 124.6119770   4.4956630  21.0497520 125.1481030   3.6523750  22.1869920
 125.7786980   6.0608050  18.4047980 125.3715060   6.2022640  17.5501580
 126.6699990   5.7768210  18.2019190 141.7349120   6.5071960  26.7420220
 141.8612180   6.2683840  25.8237400 141.7770500   5.6756500  27.2142300
 135.5965860  10.2099960  25.3115030 136.1110530  10.1207970  26.1137460
 134.7534940  10.5559660  25.6042940 137.5720260  10.4955300  14.7399030
 137.4121400  10.2058240  15.6380860 137.4066970   9.7195430  14.2044260
 130.0508640  10.2753830  16.5170650 129.8751120   9.3589370  16.3038450
 129.1964380  10.6341120  16.7568450 137.2746390   8.0042860  13.2997030
 136.5811550   8.0020150  12.6399310 138.0169250   7.5802180  12.8691200
 136.8396320   9.6305570  17.3745520 137.2953270   8.8494950  17.6884140
 137.1788840  10.3412390  17.9186700 124.5898870   5.4022030  24.5336260
 124.7529910   4.9327390  23.7155630 125.0551320   4.8945590  25.1985100
 126.1637850   4.7773460  26.6932070 125.7792640   4.1367130  27.2915030
 126.4750040   5.4809580  27.2626800 128.6316150   4.8719630  15.0891750
 127.8578410   4.3317250  14.9290470 129.3610780   4.3526240  14.7509510
 139.3904130   3.8684990  20.8818140 140.1103250   4.3640280  20.4914250
 139.1885950   3.1902880  20.2372010 134.7722930   3.9394050  26.7687140
 134.7060240   3.0189720  26.5144730 134.1428070   4.0369490  27.4831780
 128.6753550   4.5400010  18.7270560 129.1932220   3.7368270  18.6727450
 128.2237570   4.4779150  19.5687390 133.5623050   5.8066290  13.9997860
 133.9038750   6.5508520  13.5041180 132.7335760   6.1197410  14.3622690
 134.7039660   6.7614620  26.5190940 134.7184200   5.8295580  26.3009850
 133.9964760   6.8474380  27.1580710 140.9150870   3.4021960  25.8659520
 140.1899060   3.9950740  25.6688910 141.4426330   3.3945500  25.0672890
 140.8663980   7.7996700  15.5171680 140.2240140   7.1452320  15.7915400
 140.4794640   8.2051790  14.7412350 136.4450460   5.1282130  19.3643370
 136.7974280   4.5310260  18.7044740 135.5612790   4.8026360  19.5351620
 132.5313740   5.8879820  16.7713780 133.2184870   6.4349030  17.1521370
 131.7446160   6.4320550  16.8063390 131.8340950   2.8925850  16.3839140
 132.2903730   3.7031100  16.6099330 131.4829160   2.5748990  17.2157630
 134.1373560   8.4032190  23.6131440 134.7815780   8.6091570  24.2904860
 134.5003000   7.6420590  23.1602290 135.4105640   6.4064540  22.3308890
 136.0527870   5.7057700  22.4441060 135.9354990   7.1862980  22.1505780
 139.2561360   6.6913160  12.0548030 139.0298940   5.9743600  12.6472670
 138.8657560   6.4425600  11.2169780 137.1843260   7.2059440  25.5344950
 137.5199500   7.7926130  26.2122870 136.2643600   7.0752150  25.7642740
 125.0377390  10.7180020  12.8292490 125.3975030  11.3169360  12.1749760
 124.8969730  11.2639910  13.6027520 138.8377610   4.6085100  13.7162190
 138.5499310   5.0697790  14.5040070 139.6329780   4.1482870  13.9846410
 125.0219250   8.9834880  27.3034890 125.1310370   8.0429620  27.1630280
 124.3699810   9.2489630  26.6548620 133.0131840   7.2550770  28.7033010
 132.6928710   6.5360010  29.2478700 132.3390200   7.9305840  28.7769070
 131.0546010   8.1011220  13.6466160 131.0456110   8.8340910  13.0310670
 130.1344370   7.8542800  13.7393120 126.6552650   3.3226110  14.3912920
 126.0480600   4.0625010  14.4008220 127.1302000   3.4125470  13.5651120
 134.0405610   8.1639460  12.3091350 134.1417590   7.9603450  11.3793330
 133.1407350   7.9097740  12.5139130 132.6823720  10.6825780  17.0039020
 132.9365220  10.6447170  16.0818390 131.7336200  10.5559110  16.9967270
 128.6657940   3.2837260  12.1401490 129.4321210   3.1718620  12.7026920
 128.7432630   2.5875230  11.4878260 140.6901880   8.7726510  20.2551790
 140.8149300   9.5957680  20.7275600 141.5567440   8.5617240  19.9075940
 128.1619410  10.8657720  19.9268920 128.8981890  10.3173180  20.1977490
 128.5460330  11.7313730  19.7874910 125.0464890   6.9331290  15.8010430
 124.1204670   7.1752430  15.7915840 125.5121320   7.7605550  15.6795180
 127.1677690  10.0503790  29.1154500 127.9690420  10.3715840  29.5289900
 126.6529510   9.6899370  29.8374410 131.2721720  10.0388030  11.7494490
 132.0650330  10.3276860  11.2976280 130.7526070   9.6080200  11.0706970
 136.0042320   6.1583660  29.0629910 135.3980480   6.1815260  28.3225660
 135.6996430   5.4266700  29.5997160 137.4342690   9.8863950  27.6739320
 138.3864440   9.8021970  27.6239560 137.2870910  10.5505660  28.3473110
 140.3251890   9.2658160  13.1731230 140.0393400   8.8523300  12.3585410
 140.1271440  10.1945870  13.0531750 124.8875500   2.5377250  28.0590550
 125.3914520   1.9584530  28.6306780 124.1482920   2.8217480  28.5966920
 131.7899120   5.2591440  11.6136840 131.6849760   4.6443790  12.3398220
 131.6223340   4.7357330  10.8299850 131.9413440   3.9448240  27.5926070
 131.1759110   4.5133240  27.5080740 132.1229400   3.6524450  26.6994300
 135.0301850   4.3211470  12.2178830 134.4811950   4.7680770  12.8621570
 135.6521110   3.8160720  12.7416500 139.0836790   5.6753570  28.1501090
 139.8246260   6.0129330  27.6468550 138.3209470   5.8445630  27.5970860
 130.6976970   3.2802390  14.1144130 131.1193390   3.1142260  14.9575520
 130.8227810   2.4702620  13.6199270 137.7582450   3.7268400  26.6856300
 138.1723470   3.8813480  27.5346720 136.8233450   3.8523620  26.8482080
 132.5197680   3.6788880  24.6552230 132.9385790   4.5221610  24.4828470
 131.6006310   3.8160920  24.4259010 137.1949480   1.9642250  24.6152580
 136.6684700   2.4884870  24.0117720 137.5380820   2.5969640  25.2462310
 130.3705100   9.9841890  25.7709960 129.8326190  10.7087950  25.4518660
 130.6239060   9.5072230  24.9807300 133.2267310  11.2193100  26.0296610
 133.1526010  12.1228240  26.3368980 132.3246150  10.9005000  26.0018680
 133.7752640  10.3851610  13.6522970 134.6703430  10.7236580  13.6741730
 133.8070270   9.6631020  13.0247250 127.4148800   5.7578660  11.8809970
 127.8523670   6.3008330  12.5367550 127.8996530   4.9325610  11.8906310
 124.6294600   8.5467690  19.3330230 124.9597610   7.6788750  19.1008870
 125.0585600   8.7526210  20.1635190 129.2256520   6.8776700  16.9932200
 128.9252060   6.7541670  17.8936110 129.1194010   6.0185290  16.5847930
 125.1184810   9.4138280  22.0711860 124.6815800   9.5939080  22.9036010
 125.6862490  10.1712900  21.9293580 140.7546990   8.9155280  26.3589170
 140.1548980   8.9747840  25.6153090 140.8840890   7.9760260  26.4886020
 141.9948440   6.6573100  11.6958880 141.1641400   6.7249750  12.1666110
 142.1720270   7.5477220  11.3925740 141.4504900   3.4020580  14.1993080
 142.2123810   3.9717230  14.3052770 141.4659270   2.8347780  14.9701390
 124.9509240   1.9258510  18.4300740 124.2958080   1.6570150  17.7860440
 125.7887190   1.8162990  17.9802720 142.4564870   4.2570680  19.0435010
 142.8273700   3.4738000  18.6370980 143.0966800   4.9459780  18.8652310
 139.4398630   5.6407260  24.4565330 138.6258470   6.0704420  24.7191120
 139.8472830   6.2525670  23.8434380 141.5024070   3.6954950  11.3565600
 141.7772910   4.6033830  11.2284820 141.3134810   3.6317480  12.2927590
 139.4974680  10.3925860  17.9833600 140.0933750  10.0710430  17.3068020
 139.7552830   9.9197680  18.7746870 127.4037250   6.8243770  28.1324230
 127.3606880   6.4536680  29.0138690 127.5348260   7.7621340  28.2726050
 131.1043280   8.3803360  23.7333950 130.8634640   8.6477920  22.8464470
 132.0445920   8.5509090  23.7884810 142.3647440  10.3997740  24.5344590
 141.8705720  10.7966610  23.8171720 141.7560730   9.7746950  24.9281870
 127.2425280   9.7706020  25.2522010 126.6485600   9.6390720  25.9912050
 127.2349120   8.9344160  24.7864110 140.0486890  11.0421160  21.8131330
 139.5889860  11.7936970  21.4389350 139.4199350  10.3227630  21.7546130
 126.8737510   7.1364400  24.2030050 126.1471570   6.5169690  24.1356000
 126.9346660   7.5305010  23.3328130 130.4782610   9.3509400  20.9879460
 130.9947630   8.7396760  20.4627720 131.1279990   9.8538180  21.4790470
 133.2178110  10.2417890  21.8148440 133.5055920   9.9872190  20.9381450
 133.7301330   9.6895250  22.4054010 125.1567510  10.4538790  17.4126810
 124.9889550   9.8209470  18.1108700 124.2902020  10.6598190  17.0621000
 126.7630210   9.1472020  14.8576950 126.2377830   9.5280050  14.1538910
 126.6874790   9.7722790  15.5786660 133.2850470  11.1633990  29.1816640
 134.2117780  10.9278260  29.2252600 133.2700900  11.9905990  28.7002670
 141.5195530  10.7059560  16.1790890 141.6947720  10.0197300  15.5351810
 140.8217100  11.2306610  15.7867560 129.3623180  11.0954400  13.7326200
 130.0942000  10.8113680  13.1850090 129.6216850  10.8567680  14.6225580
 128.5237970   7.2119130  13.7372530 127.8946850   7.6804230  14.2858360
 128.6385800   6.3668350  14.1718720 139.8528030  10.3903850  29.0057680
 140.6453350   9.8953080  28.7983640 140.1461180  11.0693990  29.6133290
 134.1105730   3.0403810   1.7683000 133.3347830   2.5604250   2.0581570
 134.7618660   2.3609460   1.5939160 128.1271560   3.3523620   2.6458760
 127.2956440   3.0972330   3.0455270 128.7352540   3.4234390   3.3816680
 128.1072820   7.3863710   2.8416780 128.4100860   6.4961450   2.6627000
 128.8516410   7.9433930   2.6139030 133.5514720   5.7161000   1.7753160
 133.4823000   4.7750940   1.6142290 134.3134580   5.8062410   2.3475730
 130.0871580   4.1437120   4.2401630 129.7540960   4.7706040   4.8822700
 130.2638260   4.6699000   3.4603300 129.2990680   6.1117920   6.0550810
 129.9164680   6.7869000   5.7735260 128.4383800   6.5205900   5.9638310
 140.2168270   7.5757330   3.9705450 139.5331790   8.2456440   3.9622120
 140.7562560   7.7737980   3.2050310 137.7527010   9.4201460   2.6850630
 137.7654170   9.0163750   1.8172890 137.2002230  10.1948750   2.5812060
 137.1512450   4.3231300   4.0133240 137.5681240   4.1091410   3.1786700
 137.8752270   4.5804090   4.5841860 141.0974550   2.7218520   4.1049480
 140.2693180   2.7911610   3.6299610 141.6925030   3.3072830   3.6365310
 138.7516660   9.5547170   5.7385330 138.2747220  10.3619360   5.5457940
 138.0678450   8.9025500   5.8911540 129.7549480   5.7196990   8.7270030
 128.8578010   5.9436960   8.9743430 129.7802350   5.8431930   7.7781430
 128.5820700   2.5910310   7.3027400 128.4428470   3.4633110   7.6714800
 127.7002060   2.2483120   7.1575340 130.3801050   8.5332010   9.5112550
 130.3516480   8.9374960   8.6440980 130.2166020   7.6042370   9.3484150
 142.3315870   9.3159110  10.8076720 142.8075590   9.7942000  11.4865800
 142.9523030   9.2476600  10.0822220 124.5339350   4.3607860   3.2198310
 124.6119770   4.4956630   2.2754030 125.1481030   3.6523750   3.4126430
 141.7349120   6.5071960   7.9676730 141.8612180   6.2683840   7.0493910
 141.7770500   5.6756500   8.4398810 135.5965860  10.2099960   6.5371540
 136.1110530  10.1207970   7.3393970 134.7534940  10.5559660   6.8299450
 124.5898870   5.4022030   5.7592770 124.7529910   4.9327390   4.9412140
 125.0551320   4.8945590   6.4241610 126.1637850   4.7773460   7.9188580
 125.7792640   4.1367130   8.5171540 126.4750040   5.4809580   8.4883310
 139.3904130   3.8684990   2.1074650 140.1103250   4.3640280   1.7170760
 139.1885950   3.1902880   1.4628520 134.7722930   3.9394050   7.9943650
 134.7060240   3.0189720   7.7401240 134.1428070   4.0369490   8.7088290
 134.7039660   6.7614620   7.7447450 134.7184200   5.8295580   7.5266360
 133.9964760   6.8474380   8.3837220 140.9150870   3.4021960   7.0916030
 140.1899060   3.9950740   6.8945420 141.4426330   3.3945500   6.2929400
 134.1373560   8.4032190   4.8387950 134.7815780   8.6091570   5.5161370
 134.5003000   7.6420590   4.3858800 135.4105640   6.4064540   3.5565400
 136.0527870   5.7057700   3.6697570 135.9354990   7.1862980   3.3762290
 137.1843260   7.2059440   6.7601460 137.5199500   7.7926130   7.4379380
 136.2643600   7.0752150   6.9899250 125.0219250   8.9834880   8.5291400
 125.1310370   8.0429620   8.3886790 124.3699810   9.2489630   7.8805130
 133.0131840   7.2550770   9.9289520 132.6928710   6.5360010  10.4735210
 132.3390200   7.9305840  10.0025580 127.1677690  10.0503790  10.3411010
 127.9690420  10.3715840  10.7546410 126.6529510   9.6899370  11.0630920
 136.0042320   6.1583660  10.2886420 135.3980480   6.1815260   9.5482170
 135.6996430   5.4266700  10.8253670 137.4342690   9.8863950   8.8995830
 138.3864440   9.8021970   8.8496070 137.2870910  10.5505660   9.5729620
 124.8875500   2.5377250   9.2847060 125.3914520   1.9584530   9.8563290
 124.1482920   2.8217480   9.8223430 131.9413440   3.9448240   8.8182580
 131.1759110   4.5133240   8.7337250 132.1229400   3.6524450   7.9250810
 139.0836790   5.6753570   9.3757600 139.8246260   6.0129330   8.8725060
 138.3209470   5.8445630   8.8227370 137.7582450   3.7268400   7.9112810
 138.1723470   3.8813480   8.7603230 136.8233450   3.8523620   8.0738590
 132.5197680   3.6788880   5.8808740 132.9385790   4.5221610   5.7084980
 131.6006310   3.8160920   5.6515520 137.1949480   1.9642250   5.8409090
 136.6684700   2.4884870   5.2374230 137.5380820   2.5969640   6.4718820
 130.3705100   9.9841890   6.9966470 129.8326190  10.7087950   6.6775170
 130.6239060   9.5072230   6.2063810 133.2267310  11.2193100   7.2553120
 133.1526010  12.1228240   7.5625490 132.3246150  10.9005000   7.2275190
 125.1184810   9.4138280   3.2968370 124.6815800   9.5939080   4.1292520
 125.6862490  10.1712900   3.1550090 140.7546990   8.9155280   7.5845680
 140.1548980   8.9747840   6.8409600 140.8840890   7.9760260   7.7142530
 139.4398630   5.6407260   5.6821840 138.6258470   6.0704420   5.9447630
 139.8472830   6.2525670   5.0690890 127.4037250   6.8243770   9.3580740
 127.3606880   6.4536680  10.2395200 127.5348260   7.7621340   9.4982560
 131.1043280   8.3803360   4.9590460 130.8634640   8.6477920   4.0720980
 132.0445920   8.5509090   5.0141320 142.3647440  10.3997740   5.7601100
 141.8705720  10.7966610   5.0428230 141.7560730   9.7746950   6.1538380
 127.2425280   9.7706020   6.4778520 126.6485600   9.6390720   7.2168560
 127.2349120   8.9344160   6.0120620 140.0486890  11.0421160   3.0387840
 139.5889860  11.7936970   2.6645860 139.4199350  10.3227630   2.9802640
 126.8737510   7.1364400   5.4286560 126.1471570   6.5169690   5.3612510
 126.9346660   7.5305010   4.5584640 130.4782610   9.3509400   2.2135970
 130.9947630   8.7396760   1.6884230 131.1279990   9.8538180   2.7046980
 133.2178110  10.2417890   3.0404950 133.5055920   9.9872190   2.1637960
 133.7301330   9.6895250   3.6310520 133.2850470  11.1633990  10.4073150
 134.2117780  10.9278260  10.4509110 133.2700900  11.9905990   9.9259180
 139.8528030  10.3903850  10.2314190 140.6453350   9.8953080  10.0240150
 140.1461180  11.0693990  10.8389800 117.2044200 151.4572710 150.0821650
 117.1238250 150.5427320 149.8113360 116.7908620 151.9539780 149.3761360
 107.7620020 148.5073430 146.6249070 106.8736720 148.8489400 146.5228950
 108.0461210 148.3073750 145.7329900 109.9381410 147.0904930 147.6587450
 110.0448160 147.9908660 147.9656210 109.0273770 147.0422900 147.3682100
 119.5900520 146.2129740 149.1298350 120.4110140 145.7226310 149.1723830
 119.6234600 146.8027400 149.8830190 113.4268460 143.8982090 150.5891090
 113.7343440 143.3428980 149.8726590 112.4969160 144.0326550 150.4064080
 115.8018300 148.2347920 144.3218370 114.8621970 148.3961880 144.4070830
 116.1201560 148.9533600 143.7754360 111.4205860 152.4895660 150.1070940
 111.0162860 151.7772910 149.6116840 111.5068980 152.1448900 150.9958980
 121.6028350 144.0180840 143.1500250 121.2901010 144.1107670 144.0499320
 122.3640820 144.5961870 143.0997680 108.1210490 151.3840640 147.6077590
 108.0008090 152.1102730 146.9958860 107.8111380 150.6143550 147.1305500
 110.5874150 144.7275710 150.9901260 110.1442300 145.5085250 150.6585780
 111.1459140 145.0505600 151.6972200 113.7032970 144.3486410 145.8707090
 113.0787150 144.3446280 146.5960400 113.6163090 143.4817370 145.4743060
 110.3788370 149.8509280 148.7182510 110.1529290 149.6346450 149.6229130
 109.5980900 150.2837740 148.3728480 117.6086130 149.8572650 147.3173160
 117.0095020 150.5808450 147.1336780 118.1565740 149.7949430 146.5349610
 116.2151000 148.4936190 149.3476440 116.6080570 148.8108390 148.5345130
 116.5767850 147.6148070 149.4620960 105.4385400 149.0257110 142.7809360
 105.3560070 149.9687870 142.9224350 105.0868460 148.8832020 141.9021710
 109.0885910 147.6422630 150.8073920 108.7485960 148.1197860 151.5640970
 108.3263230 147.1887750 150.4475020 113.3003680 148.7608220 144.8386470
 113.4216500 148.7194700 145.7872290 112.9152190 149.6232370 144.6833200
 112.3125180 151.0709360 144.2369770 111.7442080 150.6227610 143.6105680
 113.0214180 151.4302140 143.7034920 106.4031990 146.5641610 149.7238590
 106.1178910 146.1997280 150.5617210 106.3410850 145.8322070 149.1101730
 116.0770580 145.4570870 146.4451960 115.2635190 144.9584040 146.3697270
 115.8832530 146.2969120 146.0288310 118.7918970 149.8290520 144.7414120
 119.6798590 150.1407750 144.5665460 118.7624060 148.9562770 144.3494700
 121.0633240 151.1402360 144.2093980 120.9796960 151.5716580 143.3590420
 121.7827430 151.6000710 144.6420800 105.8962650 151.7000560 143.6835290
 106.7657500 151.9825360 143.9671210 105.4052970 152.5136430 143.5684100
 108.9609240 143.4311420 148.2766090 108.8323870 143.4229320 149.2251010
 108.1371260 143.7694510 147.9257100 120.8203980 146.6381790 146.2961800
 120.1917140 146.7427460 145.5820030 120.3255900 146.8578570 147.0855680
 112.7888010 148.9167740 147.7119680 112.0804160 149.3854080 148.1533290
 113.0732490 148.2589750 148.3464870 116.8203440 145.6418400 149.1515470
 116.6971220 145.6604530 148.2024980 117.7688000 145.6897340 149.2713870
 110.9923030 147.2252820 145.0870390 111.8413560 147.6622970 145.0210580
 110.6254300 147.5373080 145.9142450 119.9132810 151.7965580 150.0001960
 118.9722950 151.8115810 150.1749650 120.2276880 151.0101540 150.4462260
 108.5861210 150.9110250 144.2438810 108.6664800 149.9637760 144.3556210
 109.4780960 151.2417130 144.3499470 110.8192380 149.5483540 142.4806720
 110.6181440 148.6850900 142.8420060 110.6484430 149.4616900 141.5428320
 118.2980690 144.3591770 145.0093600 118.5782980 143.5159670 145.3653020
 117.5246420 144.5914880 145.5232350 109.6175180 146.6484160 142.4684600
 109.9201080 146.6551590 141.5603750 110.3569770 146.2982020 142.9652260
 112.8360110 145.5918780 143.4540800 112.4882110 144.9142770 142.8743250
 113.0372880 145.1308290 144.2684190 106.1765750 152.1206430 149.8505170
 105.5214590 151.8518070 149.2064870 107.0143700 152.0110910 149.4007150
 119.1256190 146.9147720 144.0723660 119.5441070 146.7278700 143.2320320
 118.8192250 146.0626770 144.3826590 122.6245920 151.8271860 147.7699460
 122.2489520 151.0599790 147.3380750 121.8949040 152.2094560 148.2574390
 105.3903830 149.3305360 145.7930500 104.4867910 149.5935560 145.6182160
 105.8744450 149.6016530 145.0130460 107.9331040 148.3870900 143.7024880
 108.6422740 147.9654120 143.2172160 107.2170980 148.4546130 143.0708230
 107.5805200 144.4410230 142.7427530 108.3033330 144.9819170 143.0608750
 107.8529720 144.1673650 141.8669070 121.3896850 149.3102700 147.0099110
 121.8855970 149.0773570 147.7947990 121.1912920 148.4714540 146.5936750
 122.8184010 147.9463650 149.5436790 122.7083290 147.7919690 150.4819060
 123.5791600 147.4184590 149.3012200 123.7074280 145.7771570 142.7842930
 124.6323590 145.6452750 142.5761220 123.6850070 145.8564390 143.7379380
 123.7812770 146.5482230 145.4099640 122.9864270 146.4827350 145.9392550
 123.9856050 147.4832870 145.3984990 122.0771270 144.5094350 149.8707290
 122.0159670 143.5655570 149.7238310 122.8563300 144.6174440 150.4160750
 107.0052040 144.4803490 146.3363100 107.7631400 144.5932370 145.7627130
 106.5429210 145.3172690 146.2906530 113.5465850 146.5942760 149.3265410
 112.7340360 146.2199650 148.9861290 114.0507490 145.8387840 149.6286600
 118.0490830 143.2585210 150.5648480 118.6520200 143.8305420 151.0397000
 117.3083820 143.8224650 150.3422380 121.1925430 143.6606770 145.8388760
 121.3876060 144.5590220 146.1056190 120.4055300 143.4293850 146.3321710
 109.3777190 145.0067540 144.8765070 109.9069950 144.2197340 144.7473020
 110.0105510 145.6858730 145.1100600 111.5715030 144.7442680 147.9310460
 110.9417770 144.0429990 148.0980590 111.0320170 145.5046810 147.7143620
 117.2044200 151.4572710 131.3078160 117.1238250 150.5427320 131.0369870
 116.7908620 151.9539780 130.6017870 107.7620020 148.5073430 127.8505580
 106.8736720 148.8489400 127.7485460 108.0461210 148.3073750 126.9586410
 105.7253030 151.1079080 133.7345280 106.2969140 150.3401280 133.7348920
 105.7254570 151.4067840 132.8251890 106.9677900 146.5163440 135.5214210
 106.7880740 145.6189190 135.8016970 106.5657980 147.0635310 136.1961160
 115.8076400 148.7179300 133.4226520 116.1841220 147.8451180 133.3100190
 115.7095910 149.0538000 132.5316960 109.9381410 147.0904930 128.8843960
 110.0448160 147.9908660 129.1912720 109.0273770 147.0422900 128.5938610
 119.5900520 146.2129740 130.3554860 120.4110140 145.7226310 130.3980340
 119.6234600 146.8027400 131.1086700 107.5864570 149.0123940 134.1296550
 108.2674680 149.2762310 134.7483950 107.2712620 148.1724810 134.4634560
 111.7789140 150.0591300 133.2169140 112.2867360 150.5572270 133.8574160
 112.3102380 149.2826500 133.0408500 123.8800070 148.2296490 136.9198490
 123.1752240 148.6178200 136.4013600 124.1457990 148.9246780 137.5219420
 110.0625240 144.6989860 137.4832560 110.0643680 145.2162250 136.6778460
 109.2329550 144.2220040 137.4602490 119.8262000 148.1530120 133.1282400
 119.1217570 148.4415010 133.7085510 120.1874160 148.9630230 132.7681960
 109.7440570 146.4099820 135.4903010 110.0857380 147.2541870 135.1956880
 108.8056380 146.5583560 135.6068350 122.8948920 147.5984910 133.5191610
 121.9473830 147.6323890 133.6507040 123.2198910 148.4123860 133.9040970
 113.4268460 143.8982090 131.8147600 113.7343440 143.3428980 131.0983100
 112.4969160 144.0326550 131.6320590 115.8018300 148.2347920 125.5474880
 114.8621970 148.3961880 125.6327340 116.1201560 148.9533600 125.0010870
 119.2873070 149.7035760 136.4708780 118.8744250 150.5289470 136.7248770
 118.5549020 149.1180800 136.2785140 111.4205860 152.4895660 131.3327450
 111.0162860 151.7772910 130.8373350 111.5068980 152.1448900 132.2215490
 110.1334480 149.2638870 135.1126490 110.6849070 149.3734210 134.3379740
 110.6477990 149.6376470 135.8281720 121.6028350 144.0180840 124.3756760
 121.2901010 144.1107670 125.2755830 122.3640820 144.5961870 124.3254190
 108.1210490 151.3840640 128.8334100 108.0008090 152.1102730 128.2215370
 107.8111380 150.6143550 128.3562010 122.8129640 148.7552340 140.3530900
 122.1973910 149.2632010 139.8246360 122.4926060 147.8550670 140.2956840
 110.5874150 144.7275710 132.2157770 110.1442300 145.5085250 131.8842290
 111.1459140 145.0505600 132.9228710 114.8743960 147.5944230 137.8193090
 114.4123330 147.8027250 138.6313030 114.4722070 146.7803580 137.5163760
 119.8748470 148.8153180 138.9489750 119.0242060 148.5158930 139.2698820
 119.7150260 149.0595190 138.0373570 116.9698180 150.3154930 141.0488540
 117.2951590 149.4818680 140.7090770 117.7578510 150.8383450 141.1966870
 113.7032970 144.3486410 127.0963600 113.0787150 144.3446280 127.8216910
 113.6163090 143.4817370 126.6999570 112.6250050 145.2723040 134.0747370
 112.9222380 146.1785870 133.9939390 113.1735610 144.7841820 133.4606940
 110.3788370 149.8509280 129.9439020 110.1529290 149.6346450 130.8485640
 109.5980900 150.2837740 129.5984990 117.6086130 149.8572650 128.5429670
 117.0095020 150.5808450 128.3593290 118.1565740 149.7949430 127.7606120
 112.8187580 150.7494860 140.6099290 112.7231180 149.8089590 140.4599690
 113.6619560 150.9709930 140.2147360 116.2151000 148.4936190 130.5732950
 116.6080570 148.8108390 129.7601640 116.5767850 147.6148070 130.6877470
 107.9498120 147.1608530 138.7633070 107.5561510 148.0083740 138.9705850
 107.2616520 146.5234900 138.9541710 114.5243170 147.2443500 141.8329810
 113.8341490 147.0515700 142.4675900 115.2675470 147.5278140 142.3654110
 105.2515170 145.0836990 132.7963150 104.9628220 145.6539850 133.5088130
 105.9960930 144.6041440 133.1594380 105.4385400 149.0257110 124.0065870
 105.3560070 149.9687870 124.1480860 105.0868460 148.8832020 123.1278220
 116.8006140 151.0841940 134.6683730 116.0687260 151.5928750 135.0173830
 116.4030480 150.2671920 134.3672510 113.2383530 147.7596140 133.0736220
 113.2419590 147.3186090 132.2240760 114.1334650 148.0813470 133.1808040
 109.0885910 147.6422630 132.0330430 108.7485960 148.1197860 132.7897480
 108.3263230 147.1887750 131.6731530 113.3003680 148.7608220 126.0642980
 113.4216500 148.7194700 127.0128800 112.9152190 149.6232370 125.9089710
 117.2632050 146.5375620 134.0806670 117.2804790 146.9884270 134.9248520
 117.0147630 145.6381260 134.2940110 112.3125180 151.0709360 125.4626280
 111.7442080 150.6227610 124.8362190 113.0214180 151.4302140 124.9291430
 120.6902800 143.9507800 139.9193050 121.0148570 143.2197460 140.4451030
 120.7259310 143.6321440 139.0174040 106.4031990 146.5641610 130.9495100
 106.1178910 146.1997280 131.7873720 106.3410850 145.8322070 130.3358240
 111.3290870 150.8606560 137.1385840 111.0247940 151.7398540 137.3636200
 112.2837330 150.9206350 137.1743280 116.0770580 145.4570870 127.6708470
 115.2635190 144.9584040 127.5953780 115.8832530 146.2969120 127.2544820
 118.7918970 149.8290520 125.9670630 119.6798590 150.1407750 125.7921970
 118.7624060 148.9562770 125.5751210 107.3854600 151.7009300 138.2857200
 107.0269540 152.3663150 138.8730540 107.0909160 150.8692850 138.6569820
 110.5867720 152.1593540 141.1696750 110.2867860 152.3050720 140.2724570
 111.3578960 151.5998830 141.0770140 121.0633240 151.1402360 125.4350490
 120.9796960 151.5716580 124.5846930 121.7827430 151.6000710 125.8677310
 105.8962650 151.7000560 124.9091800 106.7657500 151.9825360 125.1927720
 105.4052970 152.5136430 124.7940610 108.9609240 143.4311420 129.5022600
 108.8323870 143.4229320 130.4507520 108.1371260 143.7694510 129.1513610
 105.9603170 145.1902540 138.9629300 105.2461690 145.3899460 139.5681910
 106.3798210 144.4142110 139.3344100 117.4541950 147.6824850 136.7130750
 117.8222770 146.8620060 137.0410320 116.5940150 147.7426740 137.1286400
 120.8203980 146.6381790 127.5218310 120.1917140 146.7427460 126.8076540
 120.3255900 146.8578570 128.3112190 112.7888010 148.9167740 128.9376190
 112.0804160 149.3854080 129.3789800 113.0732490 148.2589750 129.5721380
 114.4143940 150.3364440 136.9368720 114.9129190 150.8110260 137.6020570
 114.5566890 149.4127960 137.1438750 116.8203440 145.6418400 130.3771980
 116.6971220 145.6604530 129.4281490 117.7688000 145.6897340 130.4970380
 110.9923030 147.2252820 126.3126900 111.8413560 147.6622970 126.2467090
 110.6254300 147.5373080 127.1398960 121.6210800 146.5532400 137.7797110
 121.1184400 147.2937800 138.1190920 122.4367460 146.9416400 137.4633900
 119.9132810 151.7965580 131.2258470 118.9722950 151.8115810 131.4006160
 120.2276880 151.0101540 131.6718770 108.5861210 150.9110250 125.4695320
 108.6664800 149.9637760 125.5812720 109.4780960 151.2417130 125.5755980
 108.1455090 150.8754760 141.6001560 108.1860430 150.5768630 142.5086790
 109.0000590 151.2762370 141.4409080 110.0860900 149.4546860 139.5676050
 109.5557360 148.9637810 138.9399390 110.7548970 149.8831060 139.0333980
 119.4561130 151.2612480 141.3356390 120.0381900 150.5064800 141.2476870
 119.6322900 151.7919920 140.5587870 110.5733200 146.4209230 139.6473340
 110.4790070 145.8029980 138.9224210 109.9930590 147.1475520 139.4203250
 113.3394640 144.9782470 136.6800730 112.8911940 145.0006730 135.8346280
 112.7059840 144.5801490 137.2771030 116.0818090 151.6052980 138.6851010
 116.2014300 151.0094120 139.4245850 116.9412090 151.6422670 138.2652310
 110.8192380 149.5483540 123.7063230 110.6181440 148.6850900 124.0676570
 110.6484430 149.4616900 122.7684830 112.8486860 148.1474330 139.9426830
 113.4386550 147.8390180 140.6304650 112.0307100 147.6754080 140.0986730
 117.6680290 147.7640140 140.1759850 116.9795810 147.1021680 140.1109840
 118.3886310 147.3178410 140.6208310 118.2980690 144.3591770 126.2350110
 118.5782980 143.5159670 126.5909530 117.5246420 144.5914880 126.7488860
 109.6175180 146.6484160 123.6941110 109.9201080 146.6551590 122.7860260
 110.3569770 146.2982020 124.1908770 112.8360110 145.5918780 124.6797310
 112.4882110 144.9142770 124.0999760 113.0372880 145.1308290 125.4940700
 106.1765750 152.1206430 131.0761680 105.5214590 151.8518070 130.4321380
 107.0143700 152.0110910 130.6263660 119.1256190 146.9147720 125.2980170
 119.5441070 146.7278700 124.4576830 118.8192250 146.0626770 125.6083100
 122.6245920 151.8271860 128.9955970 122.2489520 151.0599790 128.5637260
 121.8949040 152.2094560 129.4830900 107.2141680 152.5059000 135.6165020
 107.5814720 152.4186400 136.4961040 106.6452500 151.7425550 135.5171880
 122.0145540 150.9743380 138.6295490 121.7831630 150.7456130 137.7293440
 122.2750090 151.8942930 138.5840380 106.7657680 149.4168090 139.5223440
 105.8713730 149.3834850 139.8617150 107.3055230 149.6154880 140.2874690
 120.4533610 146.1999810 141.4075190 121.3303790 146.2083210 141.7909190
 120.4654450 145.4630650 140.7967540 105.3903830 149.3305360 127.0187010
 104.4867910 149.5935560 126.8438670 105.8744450 149.6016530 126.2386970
 121.8996880 150.0529350 132.2963210 122.4234360 149.5592000 131.6653380
 122.4856300 150.1879710 133.0410780 122.0786600 150.1369220 135.8182760
 121.1289310 150.1032760 135.9327750 122.2599610 151.0469330 135.5832530
 107.9331040 148.3870900 124.9281390 108.6422740 147.9654120 124.4428670
 107.2170980 148.4546130 124.2964740 107.5805200 144.4410230 123.9684040
 108.3033330 144.9819170 124.2865260 107.8529720 144.1673650 123.0925580
 121.3896850 149.3102700 128.2355620 121.8855970 149.0773570 129.0204500
 121.1912920 148.4714540 127.8193260 107.2697390 143.6916420 133.8706660
 107.9173580 143.1413800 133.4301820 107.6899230 143.9459570 134.6922470
 122.8184010 147.9463650 130.7693300 122.7083290 147.7919690 131.7075570
 123.5791600 147.4184590 130.5268710 121.1649730 143.8857780 137.2276300
 121.8021950 144.4991920 137.5935490 121.3124620 143.9218440 136.2825530
 123.7074280 145.7771570 124.0099440 124.6323590 145.6452750 123.8017730
 123.6850070 145.8564390 124.9635890 123.7812770 146.5482230 126.6356150
 122.9864270 146.4827350 127.1649060 123.9856050 147.4832870 126.6241500
 107.0229390 143.8472090 136.6131980 106.6744210 144.3035910 137.3790160
 106.6917090 142.9529220 136.6954410 114.5354210 145.0383970 140.1351400
 114.4743100 145.6305800 140.8846810 115.4754590 144.9309930 139.9901660
 117.1728770 144.6954030 139.7743690 117.7869180 145.0133320 139.1124770
 117.7178330 144.2102620 140.3939550 107.6950030 143.3748290 139.8882750
 108.2433020 143.1936340 139.1248860 107.7605340 142.5842400 140.4239060
 117.9136810 143.2586170 136.1012980 117.0396650 143.5921280 135.8985910
 117.8047560 142.7859350 136.9264850 118.8208790 145.4657040 137.4854700
 118.4922150 144.6508800 137.1056430 119.7691090 145.4226850 137.3620390
 115.6611630 144.1756010 135.0405890 114.8783420 144.6501510 135.3202650
 115.3674560 143.2710840 134.9319070 120.2132700 144.8779110 133.0854980
 120.6540790 144.8224210 132.2376580 119.9440290 145.7937120 133.1565160
 122.0771270 144.5094350 131.0963800 122.0159670 143.5655570 130.9494820
 122.8563300 144.6174440 131.6417260 107.0052040 144.4803490 127.5619610
 107.7631400 144.5932370 126.9883640 106.5429210 145.3172690 127.5163040
 113.5465850 146.5942760 130.5521920 112.7340360 146.2199650 130.2117800
 114.0507490 145.8387840 130.8543110 118.0490830 143.2585210 131.7904990
 118.6520200 143.8305420 132.2653510 117.3083820 143.8224650 131.5678890
 121.1925430 143.6606770 127.0645270 121.3876060 144.5590220 127.3312700
 120.4055300 143.4293850 127.5578220 109.3777190 145.0067540 126.1021580
 109.9069950 144.2197340 125.9729530 110.0105510 145.6858730 126.3357110
 111.5715030 144.7442680 129.1566970 110.9417770 144.0429990 129.3237100
 111.0320170 145.5046810 128.9400130 111.6970590 144.0226660 141.5919460
 111.4154860 144.5260260 140.8280280 112.0790290 143.2248410 141.2261590
 118.2986050 143.4380240 142.1699930 118.1851500 143.7574850 143.0651450
 119.1155790 143.8392750 141.8737210 117.2044200 151.4572710 112.5334670
 117.1238250 150.5427320 112.2626380 116.7908620 151.9539780 111.8274380
 107.7620020 148.5073430 109.0762090 106.8736720 148.8489400 108.9741970
 108.0461210 148.3073750 108.1842920 105.7253030 151.1079080 114.9601790
 106.2969140 150.3401280 114.9605430 105.7254570 151.4067840 114.0508400
 106.9677900 146.5163440 116.7470720 106.7880740 145.6189190 117.0273480
 106.5657980 147.0635310 117.4217670 115.8076400 148.7179300 114.6483030
 116.1841220 147.8451180 114.5356700 115.7095910 149.0538000 113.7573470
 109.9381410 147.0904930 110.1100470 110.0448160 147.9908660 110.4169230
 109.0273770 147.0422900 109.8195120 119.5900520 146.2129740 111.5811370
 120.4110140 145.7226310 111.6236850 119.6234600 146.8027400 112.3343210
 107.5864570 149.0123940 115.3553060 108.2674680 149.2762310 115.9740460
 107.2712620 148.1724810 115.6891070 111.7789140 150.0591300 114.4425650
 112.2867360 150.5572270 115.0830670 112.3102380 149.2826500 114.2665010
 123.8800070 148.2296490 118.1455000 123.1752240 148.6178200 117.6270110
 124.1457990 148.9246780 118.7475930 110.0625240 144.6989860 118.7089070
 110.0643680 145.2162250 117.9034970 109.2329550 144.2220040 118.6859000
 119.8262000 148.1530120 114.3538910 119.1217570 148.4415010 114.9342020
 120.1874160 148.9630230 113.9938470 109.7440570 146.4099820 116.7159520
 110.0857380 147.2541870 116.4213390 108.8056380 146.5583560 116.8324860
 122.8948920 147.5984910 114.7448120 121.9473830 147.6323890 114.8763550
 123.2198910 148.4123860 115.1297480 113.4268460 143.8982090 113.0404110
 113.7343440 143.3428980 112.3239610 112.4969160 144.0326550 112.8577100
 115.8018300 148.2347920 106.7731390 114.8621970 148.3961880 106.8583850
 116.1201560 148.9533600 106.2267380 119.2873070 149.7035760 117.6965290
 118.8744250 150.5289470 117.9505280 118.5549020 149.1180800 117.5041650
 111.4205860 152.4895660 112.5583960 111.0162860 151.7772910 112.0629860
 111.5068980 152.1448900 113.4472000 110.1334480 149.2638870 116.3383000
 110.6849070 149.3734210 115.5636250 110.6477990 149.6376470 117.0538230
 121.6028350 144.0180840 105.6013270 121.2901010 144.1107670 106.5012340
 122.3640820 144.5961870 105.5510700 108.1210490 151.3840640 110.0590610
 108.0008090 152.1102730 109.4471880 107.8111380 150.6143550 109.5818520
 122.8129640 148.7552340 121.5787410 122.1973910 149.2632010 121.0502870
 122.4926060 147.8550670 121.5213350 110.5874150 144.7275710 113.4414280
 110.1442300 145.5085250 113.1098800 111.1459140 145.0505600 114.1485220
 114.8743960 147.5944230 119.0449600 114.4123330 147.8027250 119.8569540
 114.4722070 146.7803580 118.7420270 119.8748470 148.8153180 120.1746260
 119.0242060 148.5158930 120.4955330 119.7150260 149.0595190 119.2630080
 116.9698180 150.3154930 122.2745050 117.2951590 149.4818680 121.9347280
 117.7578510 150.8383450 122.4223380 113.7032970 144.3486410 108.3220110
 113.0787150 144.3446280 109.0473420 113.6163090 143.4817370 107.9256080
 112.6250050 145.2723040 115.3003880 112.9222380 146.1785870 115.2195900
 113.1735610 144.7841820 114.6863450 110.3788370 149.8509280 111.1695530
 110.1529290 149.6346450 112.0742150 109.5980900 150.2837740 110.8241500
 117.6086130 149.8572650 109.7686180 117.0095020 150.5808450 109.5849800
 118.1565740 149.7949430 108.9862630 112.8187580 150.7494860 121.8355800
 112.7231180 149.8089590 121.6856200 113.6619560 150.9709930 121.4403870
 116.2151000 148.4936190 111.7989460 116.6080570 148.8108390 110.9858150
 116.5767850 147.6148070 111.9133980 107.9498120 147.1608530 119.9889580
 107.5561510 148.0083740 120.1962360 107.2616520 146.5234900 120.1798220
 114.5243170 147.2443500 123.0586320 113.8341490 147.0515700 123.6932410
 115.2675470 147.5278140 123.5910620 105.2515170 145.0836990 114.0219660
 104.9628220 145.6539850 114.7344640 105.9960930 144.6041440 114.3850890
 105.4385400 149.0257110 105.2322380 105.3560070 149.9687870 105.3737370
 105.0868460 148.8832020 104.3534730 116.8006140 151.0841940 115.8940240
 116.0687260 151.5928750 116.2430340 116.4030480 150.2671920 115.5929020
 113.2383530 147.7596140 114.2992730 113.2419590 147.3186090 113.4497270
 114.1334650 148.0813470 114.4064550 109.0885910 147.6422630 113.2586940
 108.7485960 148.1197860 114.0153990 108.3263230 147.1887750 112.8988040
 113.3003680 148.7608220 107.2899490 113.4216500 148.7194700 108.2385310
 112.9152190 149.6232370 107.1346220 117.2632050 146.5375620 115.3063180
 117.2804790 146.9884270 116.1505030 117.0147630 145.6381260 115.5196620
 112.3125180 151.0709360 106.6882790 111.7442080 150.6227610 106.0618700
 113.0214180 151.4302140 106.1547940 120.6902800 143.9507800 121.1449560
 121.0148570 143.2197460 121.6707540 120.7259310 143.6321440 120.2430550
 106.4031990 146.5641610 112.1751610 106.1178910 146.1997280 113.0130230
 106.3410850 145.8322070 111.5614750 111.3290870 150.8606560 118.3642350
 111.0247940 151.7398540 118.5892710 112.2837330 150.9206350 118.3999790
 116.0770580 145.4570870 108.8964980 115.2635190 144.9584040 108.8210290
 115.8832530 146.2969120 108.4801330 118.7918970 149.8290520 107.1927140
 119.6798590 150.1407750 107.0178480 118.7624060 148.9562770 106.8007720
 107.3854600 151.7009300 119.5113710 107.0269540 152.3663150 120.0987050
 107.0909160 150.8692850 119.8826330 110.5867720 152.1593540 122.3953260
 110.2867860 152.3050720 121.4981080 111.3578960 151.5998830 122.3026650
 121.0633240 151.1402360 106.6607000 120.9796960 151.5716580 105.8103440
 121.7827430 151.6000710 107.0933820 105.8962650 151.7000560 106.1348310
 106.7657500 151.9825360 106.4184230 105.4052970 152.5136430 106.0197120
 108.9609240 143.4311420 110.7279110 108.8323870 143.4229320 111.6764030
 108.1371260 143.7694510 110.3770120 105.9603170 145.1902540 120.1885810
 105.2461690 145.3899460 120.7938420 106.3798210 144.4142110 120.5600610
 117.4541950 147.6824850 117.9387260 117.8222770 146.8620060 118.2666830
 116.5940150 147.7426740 118.3542910 120.8203980 146.6381790 108.7474820
 120.1917140 146.7427460 108.0333050 120.3255900 146.8578570 109.5368700
 112.7888010 148.9167740 110.1632700 112.0804160 149.3854080 110.6046310
 113.0732490 148.2589750 110.7977890 114.4143940 150.3364440 118.1625230
 114.9129190 150.8110260 118.8277080 114.5566890 149.4127960 118.3695260
 116.8203440 145.6418400 111.6028490 116.6971220 145.6604530 110.6538000
 117.7688000 145.6897340 111.7226890 110.9923030 147.2252820 107.5383410
 111.8413560 147.6622970 107.4723600 110.6254300 147.5373080 108.3655470
 121.6210800 146.5532400 119.0053620 121.1184400 147.2937800 119.3447430
 122.4367460 146.9416400 118.6890410 119.9132810 151.7965580 112.4514980
 118.9722950 151.8115810 112.6262670 120.2276880 151.0101540 112.8975280
 108.5861210 150.9110250 106.6951830 108.6664800 149.9637760 106.8069230
 109.4780960 151.2417130 106.8012490 108.1455090 150.8754760 122.8258070
 108.1860430 150.5768630 123.7343300 109.0000590 151.2762370 122.6665590
 110.0860900 149.4546860 120.7932560 109.5557360 148.9637810 120.1655900
 110.7548970 149.8831060 120.2590490 119.4561130 151.2612480 122.5612900
 120.0381900 150.5064800 122.4733380 119.6322900 151.7919920 121.7844380
 110.5733200 146.4209230 120.8729850 110.4790070 145.8029980 120.1480720
 109.9930590 147.1475520 120.6459760 113.3394640 144.9782470 117.9057240
 112.8911940 145.0006730 117.0602790 112.7059840 144.5801490 118.5027540
 116.0818090 151.6052980 119.9107520 116.2014300 151.0094120 120.6502360
 116.9412090 151.6422670 119.4908820 110.8192380 149.5483540 104.9319740
 110.6181440 148.6850900 105.2933080 110.6484430 149.4616900 103.9941340
 112.8486860 148.1474330 121.1683340 113.4386550 147.8390180 121.8561160
 112.0307100 147.6754080 121.3243240 117.6680290 147.7640140 121.4016360
 116.9795810 147.1021680 121.3366350 118.3886310 147.3178410 121.8464820
 118.2980690 144.3591770 107.4606620 118.5782980 143.5159670 107.8166040
 117.5246420 144.5914880 107.9745370 109.6175180 146.6484160 104.9197620
 109.9201080 146.6551590 104.0116770 110.3569770 146.2982020 105.4165280
 112.8360110 145.5918780 105.9053820 112.4882110 144.9142770 105.3256270
 113.0372880 145.1308290 106.7197210 106.1765750 152.1206430 112.3018190
 105.5214590 151.8518070 111.6577890 107.0143700 152.0110910 111.8520170
 119.1256190 146.9147720 106.5236680 119.5441070 146.7278700 105.6833340
 118.8192250 146.0626770 106.8339610 122.6245920 151.8271860 110.2212480
 122.2489520 151.0599790 109.7893770 121.8949040 152.2094560 110.7087410
 107.2141680 152.5059000 116.8421530 107.5814720 152.4186400 117.7217550
 106.6452500 151.7425550 116.7428390 122.0145540 150.9743380 119.8552000
 121.7831630 150.7456130 118.9549950 122.2750090 151.8942930 119.8096890
 106.7657680 149.4168090 120.7479950 105.8713730 149.3834850 121.0873660
 107.3055230 149.6154880 121.5131200 120.4533610 146.1999810 122.6331700
 121.3303790 146.2083210 123.0165700 120.4654450 145.4630650 122.0224050
 105.3903830 149.3305360 108.2443520 104.4867910 149.5935560 108.0695180
 105.8744450 149.6016530 107.4643480 121.8996880 150.0529350 113.5219720
 122.4234360 149.5592000 112.8909890 122.4856300 150.1879710 114.2667290
 122.0786600 150.1369220 117.0439270 121.1289310 150.1032760 117.1584260
 122.2599610 151.0469330 116.8089040 107.9331040 148.3870900 106.1537900
 108.6422740 147.9654120 105.6685180 107.2170980 148.4546130 105.5221250
 107.5805200 144.4410230 105.1940550 108.3033330 144.9819170 105.5121770
 107.8529720 144.1673650 104.3182090 121.3896850 149.3102700 109.4612130
 121.8855970 149.0773570 110.2461010 121.1912920 148.4714540 109.0449770
 107.2697390 143.6916420 115.0963170 107.9173580 143.1413800 114.6558330
 107.6899230 143.9459570 115.9178980 122.8184010 147.9463650 111.9949810
 122.7083290 147.7919690 112.9332080 123.5791600 147.4184590 111.7525220
 121.1649730 143.8857780 118.4532810 121.8021950 144.4991920 118.8192000
 121.3124620 143.9218440 117.5082040 123.7074280 145.7771570 105.2355950
 124.6323590 145.6452750 105.0274240 123.6850070 145.8564390 106.1892400
 123.7812770 146.5482230 107.8612660 122.9864270 146.4827350 108.3905570
 123.9856050 147.4832870 107.8498010 107.0229390 143.8472090 117.8388490
 106.6744210 144.3035910 118.6046670 106.6917090 142.9529220 117.9210920
 114.5354210 145.0383970 121.3607910 114.4743100 145.6305800 122.1103320
 115.4754590 144.9309930 121.2158170 117.1728770 144.6954030 121.0000200
 117.7869180 145.0133320 120.3381280 117.7178330 144.2102620 121.6196060
 107.6950030 143.3748290 121.1139260 108.2433020 143.1936340 120.3505370
 107.7605340 142.5842400 121.6495570 117.9136810 143.2586170 117.3269490
 117.0396650 143.5921280 117.1242420 117.8047560 142.7859350 118.1521360
 118.8208790 145.4657040 118.7111210 118.4922150 144.6508800 118.3312940
 119.7691090 145.4226850 118.5876900 115.6611630 144.1756010 116.2662400
 114.8783420 144.6501510 116.5459160 115.3674560 143.2710840 116.1575580
 120.2132700 144.8779110 114.3111490 120.6540790 144.8224210 113.4633090
 119.9440290 145.7937120 114.3821670 122.0771270 144.5094350 112.3220310
 122.0159670 143.5655570 112.1751330 122.8563300 144.6174440 112.8673770
 107.0052040 144.4803490 108.7876120 107.7631400 144.5932370 108.2140150
 106.5429210 145.3172690 108.7419550 113.5465850 146.5942760 111.7778430
 112.7340360 146.2199650 111.4374310 114.0507490 145.8387840 112.0799620
 118.0490830 143.2585210 113.0161500 118.6520200 143.8305420 113.4910020
 117.3083820 143.8224650 112.7935400 121.1925430 143.6606770 108.2901780
 121.3876060 144.5590220 108.5569210 120.4055300 143.4293850 108.7834730
 109.3777190 145.0067540 107.3278090 109.9069950 144.2197340 107.1986040
 110.0105510 145.6858730 107.5613620 111.5715030 144.7442680 110.3823480
 110.9417770 144.0429990 110.5493610 111.0320170 145.5046810 110.1656640
 111.6970590 144.0226660 122.8175970 111.4154860 144.5260260 122.0536790
 112.0790290 143.2248410 122.4518100 118.2986050 143.4380240 123.3956440
 118.1851500 143.7574850 124.2907960 119.1155790 143.8392750 123.0993720
 117.2044200 151.4572710  93.7591180 117.1238250 150.5427320  93.4882890
 116.7908620 151.9539780  93.0530890 107.7620020 148.5073430  90.3018600
 106.8736720 148.8489400  90.1998480 108.0461210 148.3073750  89.4099430
 105.7253030 151.1079080  96.1858300 106.2969140 150.3401280  96.1861940
 105.7254570 151.4067840  95.2764910 106.9677900 146.5163440  97.9727230
 106.7880740 145.6189190  98.2529990 106.5657980 147.0635310  98.6474180
 115.8076400 148.7179300  95.8739540 116.1841220 147.8451180  95.7613210
 115.7095910 149.0538000  94.9829980 109.9381410 147.0904930  91.3356980
 110.0448160 147.9908660  91.6425740 109.0273770 147.0422900  91.0451630
 119.5900520 146.2129740  92.8067880 120.4110140 145.7226310  92.8493360
 119.6234600 146.8027400  93.5599720 107.5864570 149.0123940  96.5809570
 108.2674680 149.2762310  97.1996970 107.2712620 148.1724810  96.9147580
 111.7789140 150.0591300  95.6682160 112.2867360 150.5572270  96.3087180
 112.3102380 149.2826500  95.4921520 123.8800070 148.2296490  99.3711510
 123.1752240 148.6178200  98.8526620 124.1457990 148.9246780  99.9732440
 110.0625240 144.6989860  99.9345580 110.0643680 145.2162250  99.1291480
 109.2329550 144.2220040  99.9115510 119.8262000 148.1530120  95.5795420
 119.1217570 148.4415010  96.1598530 120.1874160 148.9630230  95.2194980
 109.7440570 146.4099820  97.9416030 110.0857380 147.2541870  97.6469900
 108.8056380 146.5583560  98.0581370 122.8948920 147.5984910  95.9704630
 121.9473830 147.6323890  96.1020060 123.2198910 148.4123860  96.3553990
 113.4268460 143.8982090  94.2660620 113.7343440 143.3428980  93.5496120
 112.4969160 144.0326550  94.0833610 115.8018300 148.2347920  87.9987900
 114.8621970 148.3961880  88.0840360 116.1201560 148.9533600  87.4523890
 119.2873070 149.7035760  98.9221800 118.8744250 150.5289470  99.1761790
 118.5549020 149.1180800  98.7298160 111.4205860 152.4895660  93.7840470
 111.0162860 151.7772910  93.2886370 111.5068980 152.1448900  94.6728510
 110.1334480 149.2638870  97.5639510 110.6849070 149.3734210  96.7892760
 110.6477990 149.6376470  98.2794740 121.6028350 144.0180840  86.8269780
 121.2901010 144.1107670  87.7268850 122.3640820 144.5961870  86.7767210
 108.1210490 151.3840640  91.2847120 108.0008090 152.1102730  90.6728390
 107.8111380 150.6143550  90.8075030 122.8129640 148.7552340 102.8043920
 122.1973910 149.2632010 102.2759380 122.4926060 147.8550670 102.7469860
 110.5874150 144.7275710  94.6670790 110.1442300 145.5085250  94.3355310
 111.1459140 145.0505600  95.3741730 114.8743960 147.5944230 100.2706110
 114.4123330 147.8027250 101.0826050 114.4722070 146.7803580  99.9676780
 119.8748470 148.8153180 101.4002770 119.0242060 148.5158930 101.7211840
 119.7150260 149.0595190 100.4886590 116.9698180 150.3154930 103.5001560
 117.2951590 149.4818680 103.1603790 117.7578510 150.8383450 103.6479890
 113.7032970 144.3486410  89.5476620 113.0787150 144.3446280  90.2729930
 113.6163090 143.4817370  89.1512590 112.6250050 145.2723040  96.5260390
 112.9222380 146.1785870  96.4452410 113.1735610 144.7841820  95.9119960
 110.3788370 149.8509280  92.3952040 110.1529290 149.6346450  93.2998660
 109.5980900 150.2837740  92.0498010 117.6086130 149.8572650  90.9942690
 117.0095020 150.5808450  90.8106310 118.1565740 149.7949430  90.2119140
 112.8187580 150.7494860 103.0612310 112.7231180 149.8089590 102.9112710
 113.6619560 150.9709930 102.6660380 116.2151000 148.4936190  93.0245970
 116.6080570 148.8108390  92.2114660 116.5767850 147.6148070  93.1390490
 107.9498120 147.1608530 101.2146090 107.5561510 148.0083740 101.4218870
 107.2616520 146.5234900 101.4054730 114.5243170 147.2443500 104.2842830
 113.8341490 147.0515700 104.9188920 115.2675470 147.5278140 104.8167130
 105.2515170 145.0836990  95.2476170 104.9628220 145.6539850  95.9601150
 105.9960930 144.6041440  95.6107400 105.4385400 149.0257110  86.4578890
 105.3560070 149.9687870  86.5993880 105.0868460 148.8832020  85.5791240
 116.8006140 151.0841940  97.1196750 116.0687260 151.5928750  97.4686850
 116.4030480 150.2671920  96.8185530 113.2383530 147.7596140  95.5249240
 113.2419590 147.3186090  94.6753780 114.1334650 148.0813470  95.6321060
 109.0885910 147.6422630  94.4843450 108.7485960 148.1197860  95.2410500
 108.3263230 147.1887750  94.1244550 113.3003680 148.7608220  88.5156000
 113.4216500 148.7194700  89.4641820 112.9152190 149.6232370  88.3602730
 117.2632050 146.5375620  96.5319690 117.2804790 146.9884270  97.3761540
 117.0147630 145.6381260  96.7453130 112.3125180 151.0709360  87.9139300
 111.7442080 150.6227610  87.2875210 113.0214180 151.4302140  87.3804450
 120.6902800 143.9507800 102.3706070 121.0148570 143.2197460 102.8964050
 120.7259310 143.6321440 101.4687060 106.4031990 146.5641610  93.4008120
 106.1178910 146.1997280  94.2386740 106.3410850 145.8322070  92.7871260
 111.3290870 150.8606560  99.5898860 111.0247940 151.7398540  99.8149220
 112.2837330 150.9206350  99.6256300 116.0770580 145.4570870  90.1221490
 115.2635190 144.9584040  90.0466800 115.8832530 146.2969120  89.7057840
 118.7918970 149.8290520  88.4183650 119.6798590 150.1407750  88.2434990
 118.7624060 148.9562770  88.0264230 107.3854600 151.7009300 100.7370220
 107.0269540 152.3663150 101.3243560 107.0909160 150.8692850 101.1082840
 110.5867720 152.1593540 103.6209770 110.2867860 152.3050720 102.7237590
 111.3578960 151.5998830 103.5283160 121.0633240 151.1402360  87.8863510
 120.9796960 151.5716580  87.0359950 121.7827430 151.6000710  88.3190330
 105.8962650 151.7000560  87.3604820 106.7657500 151.9825360  87.6440740
 105.4052970 152.5136430  87.2453630 108.9609240 143.4311420  91.9535620
 108.8323870 143.4229320  92.9020540 108.1371260 143.7694510  91.6026630
 105.9603170 145.1902540 101.4142320 105.2461690 145.3899460 102.0194930
 106.3798210 144.4142110 101.7857120 117.4541950 147.6824850  99.1643770
 117.8222770 146.8620060  99.4923340 116.5940150 147.7426740  99.5799420
 120.8203980 146.6381790  89.9731330 120.1917140 146.7427460  89.2589560
 120.3255900 146.8578570  90.7625210 112.7888010 148.9167740  91.3889210
 112.0804160 149.3854080  91.8302820 113.0732490 148.2589750  92.0234400
 114.4143940 150.3364440  99.3881740 114.9129190 150.8110260 100.0533590
 114.5566890 149.4127960  99.5951770 116.8203440 145.6418400  92.8285000
 116.6971220 145.6604530  91.8794510 117.7688000 145.6897340  92.9483400
 110.9923030 147.2252820  88.7639920 111.8413560 147.6622970  88.6980110
 110.6254300 147.5373080  89.5911980 121.6210800 146.5532400 100.2310130
 121.1184400 147.2937800 100.5703940 122.4367460 146.9416400  99.9146920
 119.9132810 151.7965580  93.6771490 118.9722950 151.8115810  93.8519180
 120.2276880 151.0101540  94.1231790 108.5861210 150.9110250  87.9208340
 108.6664800 149.9637760  88.0325740 109.4780960 151.2417130  88.0269000
 108.1455090 150.8754760 104.0514580 108.1860430 150.5768630 104.9599810
 109.0000590 151.2762370 103.8922100 110.0860900 149.4546860 102.0189070
 109.5557360 148.9637810 101.3912410 110.7548970 149.8831060 101.4847000
 119.4561130 151.2612480 103.7869410 120.0381900 150.5064800 103.6989890
 119.6322900 151.7919920 103.0100890 110.5733200 146.4209230 102.0986360
 110.4790070 145.8029980 101.3737230 109.9930590 147.1475520 101.8716270
 113.3394640 144.9782470  99.1313750 112.8911940 145.0006730  98.2859300
 112.7059840 144.5801490  99.7284050 116.0818090 151.6052980 101.1364030
 116.2014300 151.0094120 101.8758870 116.9412090 151.6422670 100.7165330
 110.8192380 149.5483540  86.1576250 110.6181440 148.6850900  86.5189590
 110.6484430 149.4616900  85.2197850 112.8486860 148.1474330 102.3939850
 113.4386550 147.8390180 103.0817670 112.0307100 147.6754080 102.5499750
 117.6680290 147.7640140 102.6272870 116.9795810 147.1021680 102.5622860
 118.3886310 147.3178410 103.0721330 118.2980690 144.3591770  88.6863130
 118.5782980 143.5159670  89.0422550 117.5246420 144.5914880  89.2001880
 109.6175180 146.6484160  86.1454130 109.9201080 146.6551590  85.2373280
 110.3569770 146.2982020  86.6421790 112.8360110 145.5918780  87.1310330
 112.4882110 144.9142770  86.5512780 113.0372880 145.1308290  87.9453720
 106.1765750 152.1206430  93.5274700 105.5214590 151.8518070  92.8834400
 107.0143700 152.0110910  93.0776680 119.1256190 146.9147720  87.7493190
 119.5441070 146.7278700  86.9089850 118.8192250 146.0626770  88.0596120
 122.6245920 151.8271860  91.4468990 122.2489520 151.0599790  91.0150280
 121.8949040 152.2094560  91.9343920 107.2141680 152.5059000  98.0678040
 107.5814720 152.4186400  98.9474060 106.6452500 151.7425550  97.9684900
 122.0145540 150.9743380 101.0808510 121.7831630 150.7456130 100.1806460
 122.2750090 151.8942930 101.0353400 106.7657680 149.4168090 101.9736460
 105.8713730 149.3834850 102.3130170 107.3055230 149.6154880 102.7387710
 120.4533610 146.1999810 103.8588210 121.3303790 146.2083210 104.2422210
 120.4654450 145.4630650 103.2480560 105.3903830 149.3305360  89.4700030
 104.4867910 149.5935560  89.2951690 105.8744450 149.6016530  88.6899990
 121.8996880 150.0529350  94.7476230 122.4234360 149.5592000  94.1166400
 122.4856300 150.1879710  95.4923800 122.0786600 150.1369220  98.2695780
 121.1289310 150.1032760  98.3840770 122.2599610 151.0469330  98.0345550
 107.9331040 148.3870900  87.3794410 108.6422740 147.9654120  86.8941690
 107.2170980 148.4546130  86.7477760 107.5805200 144.4410230  86.4197060
 108.3033330 144.9819170  86.7378280 107.8529720 144.1673650  85.5438600
 121.3896850 149.3102700  90.6868640 121.8855970 149.0773570  91.4717520
 121.1912920 148.4714540  90.2706280 107.2697390 143.6916420  96.3219680
 107.9173580 143.1413800  95.8814840 107.6899230 143.9459570  97.1435490
 122.8184010 147.9463650  93.2206320 122.7083290 147.7919690  94.1588590
 123.5791600 147.4184590  92.9781730 121.1649730 143.8857780  99.6789320
 121.8021950 144.4991920 100.0448510 121.3124620 143.9218440  98.7338550
 123.7074280 145.7771570  86.4612460 124.6323590 145.6452750  86.2530750
 123.6850070 145.8564390  87.4148910 123.7812770 146.5482230  89.0869170
 122.9864270 146.4827350  89.6162080 123.9856050 147.4832870  89.0754520
 107.0229390 143.8472090  99.0645000 106.6744210 144.3035910  99.8303180
 106.6917090 142.9529220  99.1467430 114.5354210 145.0383970 102.5864420
 114.4743100 145.6305800 103.3359830 115.4754590 144.9309930 102.4414680
 117.1728770 144.6954030 102.2256710 117.7869180 145.0133320 101.5637790
 117.7178330 144.2102620 102.8452570 107.6950030 143.3748290 102.3395770
 108.2433020 143.1936340 101.5761880 107.7605340 142.5842400 102.8752080
 117.9136810 143.2586170  98.5526000 117.0396650 143.5921280  98.3498930
 117.8047560 142.7859350  99.3777870 118.8208790 145.4657040  99.9367720
 118.4922150 144.6508800  99.5569450 119.7691090 145.4226850  99.8133410
 115.6611630 144.1756010  97.4918910 114.8783420 144.6501510  97.7715670
 115.3674560 143.2710840  97.3832090 120.2132700 144.8779110  95.5368000
 120.6540790 144.8224210  94.6889600 119.9440290 145.7937120  95.6078180
 122.0771270 144.5094350  93.5476820 122.0159670 143.5655570  93.4007840
 122.8563300 144.6174440  94.0930280 107.0052040 144.4803490  90.0132630
 107.7631400 144.5932370  89.4396660 106.5429210 145.3172690  89.9676060
 113.5465850 146.5942760  93.0034940 112.7340360 146.2199650  92.6630820
 114.0507490 145.8387840  93.3056130 118.0490830 143.2585210  94.2418010
 118.6520200 143.8305420  94.7166530 117.3083820 143.8224650  94.0191910
 121.1925430 143.6606770  89.5158290 121.3876060 144.5590220  89.7825720
 120.4055300 143.4293850  90.0091240 109.3777190 145.0067540  88.5534600
 109.9069950 144.2197340  88.4242550 110.0105510 145.6858730  88.7870130
 111.5715030 144.7442680  91.6079990 110.9417770 144.0429990  91.7750120
 111.0320170 145.5046810  91.3913150 111.6970590 144.0226660 104.0432480
 111.4154860 144.5260260 103.2793300 112.0790290 143.2248410 103.6774610
 118.2986050 143.4380240 104.6212950 118.1851500 143.7574850 105.5164470
 119.1155790 143.8392750 104.3250230 117.2044200 151.4572710  74.9847690
 117.1238250 150.5427320  74.7139400 116.7908620 151.9539780  74.2787400
 107.7620020 148.5073430  71.5275110 106.8736720 148.8489400  71.4254990
 108.0461210 148.3073750  70.6355940 105.7253030 151.1079080  77.4114810
 106.2969140 150.3401280  77.4118450 105.7254570 151.4067840  76.5021420
 106.9677900 146.5163440  79.1983740 106.7880740 145.6189190  79.4786500
 106.5657980 147.0635310  79.8730690 115.8076400 148.7179300  77.0996050
 116.1841220 147.8451180  76.9869720 115.7095910 149.0538000  76.2086490
 109.9381410 147.0904930  72.5613490 110.0448160 147.9908660  72.8682250
 109.0273770 147.0422900  72.2708140 119.5900520 146.2129740  74.0324390
 120.4110140 145.7226310  74.0749870 119.6234600 146.8027400  74.7856230
 107.5864570 149.0123940  77.8066080 108.2674680 149.2762310  78.4253480
 107.2712620 148.1724810  78.1404090 111.7789140 150.0591300  76.8938670
 112.2867360 150.5572270  77.5343690 112.3102380 149.2826500  76.7178030
 123.8800070 148.2296490  80.5968020 123.1752240 148.6178200  80.0783130
 124.1457990 148.9246780  81.1988950 110.0625240 144.6989860  81.1602090
 110.0643680 145.2162250  80.3547990 109.2329550 144.2220040  81.1372020
 119.8262000 148.1530120  76.8051930 119.1217570 148.4415010  77.3855040
 120.1874160 148.9630230  76.4451490 109.7440570 146.4099820  79.1672540
 110.0857380 147.2541870  78.8726410 108.8056380 146.5583560  79.2837880
 122.8948920 147.5984910  77.1961140 121.9473830 147.6323890  77.3276570
 123.2198910 148.4123860  77.5810500 113.4268460 143.8982090  75.4917130
 113.7343440 143.3428980  74.7752630 112.4969160 144.0326550  75.3090120
 115.8018300 148.2347920  69.2244410 114.8621970 148.3961880  69.3096870
 116.1201560 148.9533600  68.6780400 119.2873070 149.7035760  80.1478310
 118.8744250 150.5289470  80.4018300 118.5549020 149.1180800  79.9554670
 111.4205860 152.4895660  75.0096980 111.0162860 151.7772910  74.5142880
 111.5068980 152.1448900  75.8985020 110.1334480 149.2638870  78.7896020
 110.6849070 149.3734210  78.0149270 110.6477990 149.6376470  79.5051250
 121.6028350 144.0180840  68.0526290 121.2901010 144.1107670  68.9525360
 122.3640820 144.5961870  68.0023720 108.1210490 151.3840640  72.5103630
 108.0008090 152.1102730  71.8984900 107.8111380 150.6143550  72.0331540
 122.8129640 148.7552340  84.0300430 122.1973910 149.2632010  83.5015890
 122.4926060 147.8550670  83.9726370 110.5874150 144.7275710  75.8927300
 110.1442300 145.5085250  75.5611820 111.1459140 145.0505600  76.5998240
 114.8743960 147.5944230  81.4962620 114.4123330 147.8027250  82.3082560
 114.4722070 146.7803580  81.1933290 119.8748470 148.8153180  82.6259280
 119.0242060 148.5158930  82.9468350 119.7150260 149.0595190  81.7143100
 116.9698180 150.3154930  84.7258070 117.2951590 149.4818680  84.3860300
 117.7578510 150.8383450  84.8736400 113.7032970 144.3486410  70.7733130
 113.0787150 144.3446280  71.4986440 113.6163090 143.4817370  70.3769100
 112.6250050 145.2723040  77.7516900 112.9222380 146.1785870  77.6708920
 113.1735610 144.7841820  77.1376470 110.3788370 149.8509280  73.6208550
 110.1529290 149.6346450  74.5255170 109.5980900 150.2837740  73.2754520
 117.6086130 149.8572650  72.2199200 117.0095020 150.5808450  72.0362820
 118.1565740 149.7949430  71.4375650 112.8187580 150.7494860  84.2868820
 112.7231180 149.8089590  84.1369220 113.6619560 150.9709930  83.8916890
 116.2151000 148.4936190  74.2502480 116.6080570 148.8108390  73.4371170
 116.5767850 147.6148070  74.3647000 107.9498120 147.1608530  82.4402600
 107.5561510 148.0083740  82.6475380 107.2616520 146.5234900  82.6311240
 114.5243170 147.2443500  85.5099340 113.8341490 147.0515700  86.1445430
 115.2675470 147.5278140  86.0423640 105.2515170 145.0836990  76.4732680
 104.9628220 145.6539850  77.1857660 105.9960930 144.6041440  76.8363910
 105.4385400 149.0257110  67.6835400 105.3560070 149.9687870  67.8250390
 105.0868460 148.8832020  66.8047750 116.8006140 151.0841940  78.3453260
 116.0687260 151.5928750  78.6943360 116.4030480 150.2671920  78.0442040
 113.2383530 147.7596140  76.7505750 113.2419590 147.3186090  75.9010290
 114.1334650 148.0813470  76.8577570 109.0885910 147.6422630  75.7099960
 108.7485960 148.1197860  76.4667010 108.3263230 147.1887750  75.3501060
 113.3003680 148.7608220  69.7412510 113.4216500 148.7194700  70.6898330
 112.9152190 149.6232370  69.5859240 117.2632050 146.5375620  77.7576200
 117.2804790 146.9884270  78.6018050 117.0147630 145.6381260  77.9709640
 112.3125180 151.0709360  69.1395810 111.7442080 150.6227610  68.5131720
 113.0214180 151.4302140  68.6060960 120.6902800 143.9507800  83.5962580
 121.0148570 143.2197460  84.1220560 120.7259310 143.6321440  82.6943570
 106.4031990 146.5641610  74.6264630 106.1178910 146.1997280  75.4643250
 106.3410850 145.8322070  74.0127770 111.3290870 150.8606560  80.8155370
 111.0247940 151.7398540  81.0405730 112.2837330 150.9206350  80.8512810
 116.0770580 145.4570870  71.3478000 115.2635190 144.9584040  71.2723310
 115.8832530 146.2969120  70.9314350 118.7918970 149.8290520  69.6440160
 119.6798590 150.1407750  69.4691500 118.7624060 148.9562770  69.2520740
 107.3854600 151.7009300  81.9626730 107.0269540 152.3663150  82.5500070
 107.0909160 150.8692850  82.3339350 110.5867720 152.1593540  84.8466280
 110.2867860 152.3050720  83.9494100 111.3578960 151.5998830  84.7539670
 121.0633240 151.1402360  69.1120020 120.9796960 151.5716580  68.2616460
 121.7827430 151.6000710  69.5446840 105.8962650 151.7000560  68.5861330
 106.7657500 151.9825360  68.8697250 105.4052970 152.5136430  68.4710140
 108.9609240 143.4311420  73.1792130 108.8323870 143.4229320  74.1277050
 108.1371260 143.7694510  72.8283140 105.9603170 145.1902540  82.6398830
 105.2461690 145.3899460  83.2451440 106.3798210 144.4142110  83.0113630
 117.4541950 147.6824850  80.3900280 117.8222770 146.8620060  80.7179850
 116.5940150 147.7426740  80.8055930 120.8203980 146.6381790  71.1987840
 120.1917140 146.7427460  70.4846070 120.3255900 146.8578570  71.9881720
 112.7888010 148.9167740  72.6145720 112.0804160 149.3854080  73.0559330
 113.0732490 148.2589750  73.2490910 114.4143940 150.3364440  80.6138250
 114.9129190 150.8110260  81.2790100 114.5566890 149.4127960  80.8208280
 116.8203440 145.6418400  74.0541510 116.6971220 145.6604530  73.1051020
 117.7688000 145.6897340  74.1739910 110.9923030 147.2252820  69.9896430
 111.8413560 147.6622970  69.9236620 110.6254300 147.5373080  70.8168490
 121.6210800 146.5532400  81.4566640 121.1184400 147.2937800  81.7960450
 122.4367460 146.9416400  81.1403430 119.9132810 151.7965580  74.9028000
 118.9722950 151.8115810  75.0775690 120.2276880 151.0101540  75.3488300
 108.5861210 150.9110250  69.1464850 108.6664800 149.9637760  69.2582250
 109.4780960 151.2417130  69.2525510 108.1455090 150.8754760  85.2771090
 108.1860430 150.5768630  86.1856320 109.0000590 151.2762370  85.1178610
 110.0860900 149.4546860  83.2445580 109.5557360 148.9637810  82.6168920
 110.7548970 149.8831060  82.7103510 119.4561130 151.2612480  85.0125920
 120.0381900 150.5064800  84.9246400 119.6322900 151.7919920  84.2357400
 110.5733200 146.4209230  83.3242870 110.4790070 145.8029980  82.5993740
 109.9930590 147.1475520  83.0972780 113.3394640 144.9782470  80.3570260
 112.8911940 145.0006730  79.5115810 112.7059840 144.5801490  80.9540560
 116.0818090 151.6052980  82.3620540 116.2014300 151.0094120  83.1015380
 116.9412090 151.6422670  81.9421840 110.8192380 149.5483540  67.3832760
 110.6181440 148.6850900  67.7446100 110.6484430 149.4616900  66.4454360
 112.8486860 148.1474330  83.6196360 113.4386550 147.8390180  84.3074180
 112.0307100 147.6754080  83.7756260 117.6680290 147.7640140  83.8529380
 116.9795810 147.1021680  83.7879370 118.3886310 147.3178410  84.2977840
 118.2980690 144.3591770  69.9119640 118.5782980 143.5159670  70.2679060
 117.5246420 144.5914880  70.4258390 109.6175180 146.6484160  67.3710640
 109.9201080 146.6551590  66.4629790 110.3569770 146.2982020  67.8678300
 112.8360110 145.5918780  68.3566840 112.4882110 144.9142770  67.7769290
 113.0372880 145.1308290  69.1710230 106.1765750 152.1206430  74.7531210
 105.5214590 151.8518070  74.1090910 107.0143700 152.0110910  74.3033190
 119.1256190 146.9147720  68.9749700 119.5441070 146.7278700  68.1346360
 118.8192250 146.0626770  69.2852630 122.6245920 151.8271860  72.6725500
 122.2489520 151.0599790  72.2406790 121.8949040 152.2094560  73.1600430
 107.2141680 152.5059000  79.2934550 107.5814720 152.4186400  80.1730570
 106.6452500 151.7425550  79.1941410 122.0145540 150.9743380  82.3065020
 121.7831630 150.7456130  81.4062970 122.2750090 151.8942930  82.2609910
 106.7657680 149.4168090  83.1992970 105.8713730 149.3834850  83.5386680
 107.3055230 149.6154880  83.9644220 120.4533610 146.1999810  85.0844720
 121.3303790 146.2083210  85.4678720 120.4654450 145.4630650  84.4737070
 105.3903830 149.3305360  70.6956540 104.4867910 149.5935560  70.5208200
 105.8744450 149.6016530  69.9156500 121.8996880 150.0529350  75.9732740
 122.4234360 149.5592000  75.3422910 122.4856300 150.1879710  76.7180310
 122.0786600 150.1369220  79.4952290 121.1289310 150.1032760  79.6097280
 122.2599610 151.0469330  79.2602060 107.9331040 148.3870900  68.6050920
 108.6422740 147.9654120  68.1198200 107.2170980 148.4546130  67.9734270
 107.5805200 144.4410230  67.6453570 108.3033330 144.9819170  67.9634790
 107.8529720 144.1673650  66.7695110 121.3896850 149.3102700  71.9125150
 121.8855970 149.0773570  72.6974030 121.1912920 148.4714540  71.4962790
 107.2697390 143.6916420  77.5476190 107.9173580 143.1413800  77.1071350
 107.6899230 143.9459570  78.3692000 122.8184010 147.9463650  74.4462830
 122.7083290 147.7919690  75.3845100 123.5791600 147.4184590  74.2038240
 121.1649730 143.8857780  80.9045830 121.8021950 144.4991920  81.2705020
 121.3124620 143.9218440  79.9595060 123.7074280 145.7771570  67.6868970
 124.6323590 145.6452750  67.4787260 123.6850070 145.8564390  68.6405420
 123.7812770 146.5482230  70.3125680 122.9864270 146.4827350  70.8418590
 123.9856050 147.4832870  70.3011030 107.0229390 143.8472090  80.2901510
 106.6744210 144.3035910  81.0559690 106.6917090 142.9529220  80.3723940
 114.5354210 145.0383970  83.8120930 114.4743100 145.6305800  84.5616340
 115.4754590 144.9309930  83.6671190 117.1728770 144.6954030  83.4513220
 117.7869180 145.0133320  82.7894300 117.7178330 144.2102620  84.0709080
 107.6950030 143.3748290  83.5652280 108.2433020 143.1936340  82.8018390
 107.7605340 142.5842400  84.1008590 117.9136810 143.2586170  79.7782510
 117.0396650 143.5921280  79.5755440 117.8047560 142.7859350  80.6034380
 118.8208790 145.4657040  81.1624230 118.4922150 144.6508800  80.7825960
 119.7691090 145.4226850  81.0389920 115.6611630 144.1756010  78.7175420
 114.8783420 144.6501510  78.9972180 115.3674560 143.2710840  78.6088600
 120.2132700 144.8779110  76.7624510 120.6540790 144.8224210  75.9146110
 119.9440290 145.7937120  76.8334690 122.0771270 144.5094350  74.7733330
 122.0159670 143.5655570  74.6264350 122.8563300 144.6174440  75.3186790
 107.0052040 144.4803490  71.2389140 107.7631400 144.5932370  70.6653170
 106.5429210 145.3172690  71.1932570 113.5465850 146.5942760  74.2291450
 112.7340360 146.2199650  73.8887330 114.0507490 145.8387840  74.5312640
 118.0490830 143.2585210  75.4674520 118.6520200 143.8305420  75.9423040
 117.3083820 143.8224650  75.2448420 121.1925430 143.6606770  70.7414800
 121.3876060 144.5590220  71.0082230 120.4055300 143.4293850  71.2347750
 109.3777190 145.0067540  69.7791110 109.9069950 144.2197340  69.6499060
 110.0105510 145.6858730  70.0126640 111.5715030 144.7442680  72.8336500
 110.9417770 144.0429990  73.0006630 111.0320170 145.5046810  72.6169660
 111.6970590 144.0226660  85.2688990 111.4154860 144.5260260  84.5049810
 112.0790290 143.2248410  84.9031120 118.2986050 143.4380240  85.8469460
 118.1851500 143.7574850  86.7420980 119.1155790 143.8392750  85.5506740
 117.2044200 151.4572710  56.2104200 117.1238250 150.5427320  55.9395910
 116.7908620 151.9539780  55.5043910 107.7620020 148.5073430  52.7531620
 106.8736720 148.8489400  52.6511500 108.0461210 148.3073750  51.8612450
 105.7253030 151.1079080  58.6371320 106.2969140 150.3401280  58.6374960
 105.7254570 151.4067840  57.7277930 106.9677900 146.5163440  60.4240250
 106.7880740 145.6189190  60.7043010 106.5657980 147.0635310  61.0987200
 115.8076400 148.7179300  58.3252560 116.1841220 147.8451180  58.2126230
 115.7095910 149.0538000  57.4343000 109.9381410 147.0904930  53.7870000
 110.0448160 147.9908660  54.0938760 109.0273770 147.0422900  53.4964650
 119.5900520 146.2129740  55.2580900 120.4110140 145.7226310  55.3006380
 119.6234600 146.8027400  56.0112740 107.5864570 149.0123940  59.0322590
 108.2674680 149.2762310  59.6509990 107.2712620 148.1724810  59.3660600
 111.7789140 150.0591300  58.1195180 112.2867360 150.5572270  58.7600200
 112.3102380 149.2826500  57.9434540 123.8800070 148.2296490  61.8224530
 123.1752240 148.6178200  61.3039640 124.1457990 148.9246780  62.4245460
 110.0625240 144.6989860  62.3858600 110.0643680 145.2162250  61.5804500
 109.2329550 144.2220040  62.3628530 119.8262000 148.1530120  58.0308440
 119.1217570 148.4415010  58.6111550 120.1874160 148.9630230  57.6708000
 109.7440570 146.4099820  60.3929050 110.0857380 147.2541870  60.0982920
 108.8056380 146.5583560  60.5094390 122.8948920 147.5984910  58.4217650
 121.9473830 147.6323890  58.5533080 123.2198910 148.4123860  58.8067010
 113.4268460 143.8982090  56.7173640 113.7343440 143.3428980  56.0009140
 112.4969160 144.0326550  56.5346630 115.8018300 148.2347920  50.4500920
 114.8621970 148.3961880  50.5353380 116.1201560 148.9533600  49.9036910
 119.2873070 149.7035760  61.3734820 118.8744250 150.5289470  61.6274810
 118.5549020 149.1180800  61.1811180 111.4205860 152.4895660  56.2353490
 111.0162860 151.7772910  55.7399390 111.5068980 152.1448900  57.1241530
 110.1334480 149.2638870  60.0152530 110.6849070 149.3734210  59.2405780
 110.6477990 149.6376470  60.7307760 121.6028350 144.0180840  49.2782800
 121.2901010 144.1107670  50.1781870 122.3640820 144.5961870  49.2280230
 108.1210490 151.3840640  53.7360140 108.0008090 152.1102730  53.1241410
 107.8111380 150.6143550  53.2588050 122.8129640 148.7552340  65.2556940
 122.1973910 149.2632010  64.7272400 122.4926060 147.8550670  65.1982880
 110.5874150 144.7275710  57.1183810 110.1442300 145.5085250  56.7868330
 111.1459140 145.0505600  57.8254750 114.8743960 147.5944230  62.7219130
 114.4123330 147.8027250  63.5339070 114.4722070 146.7803580  62.4189800
 119.8748470 148.8153180  63.8515790 119.0242060 148.5158930  64.1724860
 119.7150260 149.0595190  62.9399610 116.9698180 150.3154930  65.9514580
 117.2951590 149.4818680  65.6116810 117.7578510 150.8383450  66.0992910
 113.7032970 144.3486410  51.9989640 113.0787150 144.3446280  52.7242950
 113.6163090 143.4817370  51.6025610 112.6250050 145.2723040  58.9773410
 112.9222380 146.1785870  58.8965430 113.1735610 144.7841820  58.3632980
 110.3788370 149.8509280  54.8465060 110.1529290 149.6346450  55.7511680
 109.5980900 150.2837740  54.5011030 117.6086130 149.8572650  53.4455710
 117.0095020 150.5808450  53.2619330 118.1565740 149.7949430  52.6632160
 112.8187580 150.7494860  65.5125330 112.7231180 149.8089590  65.3625730
 113.6619560 150.9709930  65.1173400 116.2151000 148.4936190  55.4758990
 116.6080570 148.8108390  54.6627680 116.5767850 147.6148070  55.5903510
 107.9498120 147.1608530  63.6659110 107.5561510 148.0083740  63.8731890
 107.2616520 146.5234900  63.8567750 114.5243170 147.2443500  66.7355850
 113.8341490 147.0515700  67.3701940 115.2675470 147.5278140  67.2680150
 105.2515170 145.0836990  57.6989190 104.9628220 145.6539850  58.4114170
 105.9960930 144.6041440  58.0620420 105.4385400 149.0257110  48.9091910
 105.3560070 149.9687870  49.0506900 105.0868460 148.8832020  48.0304260
 116.8006140 151.0841940  59.5709770 116.0687260 151.5928750  59.9199870
 116.4030480 150.2671920  59.2698550 113.2383530 147.7596140  57.9762260
 113.2419590 147.3186090  57.1266800 114.1334650 148.0813470  58.0834080
 109.0885910 147.6422630  56.9356470 108.7485960 148.1197860  57.6923520
 108.3263230 147.1887750  56.5757570 113.3003680 148.7608220  50.9669020
 113.4216500 148.7194700  51.9154840 112.9152190 149.6232370  50.8115750
 117.2632050 146.5375620  58.9832710 117.2804790 146.9884270  59.8274560
 117.0147630 145.6381260  59.1966150 112.3125180 151.0709360  50.3652320
 111.7442080 150.6227610  49.7388230 113.0214180 151.4302140  49.8317470
 120.6902800 143.9507800  64.8219090 121.0148570 143.2197460  65.3477070
 120.7259310 143.6321440  63.9200080 106.4031990 146.5641610  55.8521140
 106.1178910 146.1997280  56.6899760 106.3410850 145.8322070  55.2384280
 111.3290870 150.8606560  62.0411880 111.0247940 151.7398540  62.2662240
 112.2837330 150.9206350  62.0769320 116.0770580 145.4570870  52.5734510
 115.2635190 144.9584040  52.4979820 115.8832530 146.2969120  52.1570860
 118.7918970 149.8290520  50.8696670 119.6798590 150.1407750  50.6948010
 118.7624060 148.9562770  50.4777250 107.3854600 151.7009300  63.1883240
 107.0269540 152.3663150  63.7756580 107.0909160 150.8692850  63.5595860
 110.5867720 152.1593540  66.0722790 110.2867860 152.3050720  65.1750610
 111.3578960 151.5998830  65.9796180 121.0633240 151.1402360  50.3376530
 120.9796960 151.5716580  49.4872970 121.7827430 151.6000710  50.7703350
 105.8962650 151.7000560  49.8117840 106.7657500 151.9825360  50.0953760
 105.4052970 152.5136430  49.6966650 108.9609240 143.4311420  54.4048640
 108.8323870 143.4229320  55.3533560 108.1371260 143.7694510  54.0539650
 105.9603170 145.1902540  63.8655340 105.2461690 145.3899460  64.4707950
 106.3798210 144.4142110  64.2370140 117.4541950 147.6824850  61.6156790
 117.8222770 146.8620060  61.9436360 116.5940150 147.7426740  62.0312440
 120.8203980 146.6381790  52.4244350 120.1917140 146.7427460  51.7102580
 120.3255900 146.8578570  53.2138230 112.7888010 148.9167740  53.8402230
 112.0804160 149.3854080  54.2815840 113.0732490 148.2589750  54.4747420
 114.4143940 150.3364440  61.8394760 114.9129190 150.8110260  62.5046610
 114.5566890 149.4127960  62.0464790 116.8203440 145.6418400  55.2798020
 116.6971220 145.6604530  54.3307530 117.7688000 145.6897340  55.3996420
 110.9923030 147.2252820  51.2152940 111.8413560 147.6622970  51.1493130
 110.6254300 147.5373080  52.0425000 121.6210800 146.5532400  62.6823150
 121.1184400 147.2937800  63.0216960 122.4367460 146.9416400  62.3659940
 119.9132810 151.7965580  56.1284510 118.9722950 151.8115810  56.3032200
 120.2276880 151.0101540  56.5744810 108.5861210 150.9110250  50.3721360
 108.6664800 149.9637760  50.4838760 109.4780960 151.2417130  50.4782020
 108.1455090 150.8754760  66.5027600 108.1860430 150.5768630  67.4112830
 109.0000590 151.2762370  66.3435120 110.0860900 149.4546860  64.4702090
 109.5557360 148.9637810  63.8425430 110.7548970 149.8831060  63.9360020
 119.4561130 151.2612480  66.2382430 120.0381900 150.5064800  66.1502910
 119.6322900 151.7919920  65.4613910 110.5733200 146.4209230  64.5499380
 110.4790070 145.8029980  63.8250250 109.9930590 147.1475520  64.3229290
 113.3394640 144.9782470  61.5826770 112.8911940 145.0006730  60.7372320
 112.7059840 144.5801490  62.1797070 116.0818090 151.6052980  63.5877050
 116.2014300 151.0094120  64.3271890 116.9412090 151.6422670  63.1678350
 110.8192380 149.5483540  48.6089270 110.6181440 148.6850900  48.9702610
 110.6484430 149.4616900  47.6710870 112.8486860 148.1474330  64.8452870
 113.4386550 147.8390180  65.5330690 112.0307100 147.6754080  65.0012770
 117.6680290 147.7640140  65.0785890 116.9795810 147.1021680  65.0135880
 118.3886310 147.3178410  65.5234350 118.2980690 144.3591770  51.1376150
 118.5782980 143.5159670  51.4935570 117.5246420 144.5914880  51.6514900
 109.6175180 146.6484160  48.5967150 109.9201080 146.6551590  47.6886300
 110.3569770 146.2982020  49.0934810 112.8360110 145.5918780  49.5823350
 112.4882110 144.9142770  49.0025800 113.0372880 145.1308290  50.3966740
 106.1765750 152.1206430  55.9787720 105.5214590 151.8518070  55.3347420
 107.0143700 152.0110910  55.5289700 119.1256190 146.9147720  50.2006210
 119.5441070 146.7278700  49.3602870 118.8192250 146.0626770  50.5109140
 122.6245920 151.8271860  53.8982010 122.2489520 151.0599790  53.4663300
 121.8949040 152.2094560  54.3856940 107.2141680 152.5059000  60.5191060
 107.5814720 152.4186400  61.3987080 106.6452500 151.7425550  60.4197920
 122.0145540 150.9743380  63.5321530 121.7831630 150.7456130  62.6319480
 122.2750090 151.8942930  63.4866420 106.7657680 149.4168090  64.4249480
 105.8713730 149.3834850  64.7643190 107.3055230 149.6154880  65.1900730
 120.4533610 146.1999810  66.3101230 121.3303790 146.2083210  66.6935230
 120.4654450 145.4630650  65.6993580 105.3903830 149.3305360  51.9213050
 104.4867910 149.5935560  51.7464710 105.8744450 149.6016530  51.1413010
 121.8996880 150.0529350  57.1989250 122.4234360 149.5592000  56.5679420
 122.4856300 150.1879710  57.9436820 122.0786600 150.1369220  60.7208800
 121.1289310 150.1032760  60.8353790 122.2599610 151.0469330  60.4858570
 107.9331040 148.3870900  49.8307430 108.6422740 147.9654120  49.3454710
 107.2170980 148.4546130  49.1990780 107.5805200 144.4410230  48.8710080
 108.3033330 144.9819170  49.1891300 107.8529720 144.1673650  47.9951620
 121.3896850 149.3102700  53.1381660 121.8855970 149.0773570  53.9230540
 121.1912920 148.4714540  52.7219300 107.2697390 143.6916420  58.7732700
 107.9173580 143.1413800  58.3327860 107.6899230 143.9459570  59.5948510
 122.8184010 147.9463650  55.6719340 122.7083290 147.7919690  56.6101610
 123.5791600 147.4184590  55.4294750 121.1649730 143.8857780  62.1302340
 121.8021950 144.4991920  62.4961530 121.3124620 143.9218440  61.1851570
 123.7074280 145.7771570  48.9125480 124.6323590 145.6452750  48.7043770
 123.6850070 145.8564390  49.8661930 123.7812770 146.5482230  51.5382190
 122.9864270 146.4827350  52.0675100 123.9856050 147.4832870  51.5267540
 107.0229390 143.8472090  61.5158020 106.6744210 144.3035910  62.2816200
 106.6917090 142.9529220  61.5980450 114.5354210 145.0383970  65.0377440
 114.4743100 145.6305800  65.7872850 115.4754590 144.9309930  64.8927700
 117.1728770 144.6954030  64.6769730 117.7869180 145.0133320  64.0150810
 117.7178330 144.2102620  65.2965590 107.6950030 143.3748290  64.7908790
 108.2433020 143.1936340  64.0274900 107.7605340 142.5842400  65.3265100
 117.9136810 143.2586170  61.0039020 117.0396650 143.5921280  60.8011950
 117.8047560 142.7859350  61.8290890 118.8208790 145.4657040  62.3880740
 118.4922150 144.6508800  62.0082470 119.7691090 145.4226850  62.2646430
 115.6611630 144.1756010  59.9431930 114.8783420 144.6501510  60.2228690
 115.3674560 143.2710840  59.8345110 120.2132700 144.8779110  57.9881020
 120.6540790 144.8224210  57.1402620 119.9440290 145.7937120  58.0591200
 122.0771270 144.5094350  55.9989840 122.0159670 143.5655570  55.8520860
 122.8563300 144.6174440  56.5443300 107.0052040 144.4803490  52.4645650
 107.7631400 144.5932370  51.8909680 106.5429210 145.3172690  52.4189080
 113.5465850 146.5942760  55.4547960 112.7340360 146.2199650  55.1143840
 114.0507490 145.8387840  55.7569150 118.0490830 143.2585210  56.6931030
 118.6520200 143.8305420  57.1679550 117.3083820 143.8224650  56.4704930
 121.1925430 143.6606770  51.9671310 121.3876060 144.5590220  52.2338740
 120.4055300 143.4293850  52.4604260 109.3777190 145.0067540  51.0047620
 109.9069950 144.2197340  50.8755570 110.0105510 145.6858730  51.2383150
 111.5715030 144.7442680  54.0593010 110.9417770 144.0429990  54.2263140
 111.0320170 145.5046810  53.8426170 111.6970590 144.0226660  66.4945500
 111.4154860 144.5260260  65.7306320 112.0790290 143.2248410  66.1287630
 118.2986050 143.4380240  67.0725970 118.1851500 143.7574850  67.9677490
 119.1155790 143.8392750  66.7763250 117.2044200 151.4572710  37.4360710
 117.1238250 150.5427320  37.1652420 116.7908620 151.9539780  36.7300420
 107.7620020 148.5073430  33.9788130 106.8736720 148.8489400  33.8768010
 108.0461210 148.3073750  33.0868960 105.7253030 151.1079080  39.8627830
 106.2969140 150.3401280  39.8631470 105.7254570 151.4067840  38.9534440
 106.9677900 146.5163440  41.6496760 106.7880740 145.6189190  41.9299520
 106.5657980 147.0635310  42.3243710 115.8076400 148.7179300  39.5509070
 116.1841220 147.8451180  39.4382740 115.7095910 149.0538000  38.6599510
 109.9381410 147.0904930  35.0126510 110.0448160 147.9908660  35.3195270
 109.0273770 147.0422900  34.7221160 119.5900520 146.2129740  36.4837410
 120.4110140 145.7226310  36.5262890 119.6234600 146.8027400  37.2369250
 107.5864570 149.0123940  40.2579100 108.2674680 149.2762310  40.8766500
 107.2712620 148.1724810  40.5917110 111.7789140 150.0591300  39.3451690
 112.2867360 150.5572270  39.9856710 112.3102380 149.2826500  39.1691050
 123.8800070 148.2296490  43.0481040 123.1752240 148.6178200  42.5296150
 124.1457990 148.9246780  43.6501970 110.0625240 144.6989860  43.6115110
 110.0643680 145.2162250  42.8061010 109.2329550 144.2220040  43.5885040
 119.8262000 148.1530120  39.2564950 119.1217570 148.4415010  39.8368060
 120.1874160 148.9630230  38.8964510 109.7440570 146.4099820  41.6185560
 110.0857380 147.2541870  41.3239430 108.8056380 146.5583560  41.7350900
 122.8948920 147.5984910  39.6474160 121.9473830 147.6323890  39.7789590
 123.2198910 148.4123860  40.0323520 113.4268460 143.8982090  37.9430150
 113.7343440 143.3428980  37.2265650 112.4969160 144.0326550  37.7603140
 115.8018300 148.2347920  31.6757430 114.8621970 148.3961880  31.7609890
 116.1201560 148.9533600  31.1293420 119.2873070 149.7035760  42.5991330
 118.8744250 150.5289470  42.8531320 118.5549020 149.1180800  42.4067690
 111.4205860 152.4895660  37.4610000 111.0162860 151.7772910  36.9655900
 111.5068980 152.1448900  38.3498040 110.1334480 149.2638870  41.2409040
 110.6849070 149.3734210  40.4662290 110.6477990 149.6376470  41.9564270
 121.6028350 144.0180840  30.5039310 121.2901010 144.1107670  31.4038380
 122.3640820 144.5961870  30.4536740 108.1210490 151.3840640  34.9616650
 108.0008090 152.1102730  34.3497920 107.8111380 150.6143550  34.4844560
 122.8129640 148.7552340  46.4813450 122.1973910 149.2632010  45.9528910
 122.4926060 147.8550670  46.4239390 110.5874150 144.7275710  38.3440320
 110.1442300 145.5085250  38.0124840 111.1459140 145.0505600  39.0511260
 114.8743960 147.5944230  43.9475640 114.4123330 147.8027250  44.7595580
 114.4722070 146.7803580  43.6446310 119.8748470 148.8153180  45.0772300
 119.0242060 148.5158930  45.3981370 119.7150260 149.0595190  44.1656120
 116.9698180 150.3154930  47.1771090 117.2951590 149.4818680  46.8373320
 117.7578510 150.8383450  47.3249420 113.7032970 144.3486410  33.2246150
 113.0787150 144.3446280  33.9499460 113.6163090 143.4817370  32.8282120
 112.6250050 145.2723040  40.2029920 112.9222380 146.1785870  40.1221940
 113.1735610 144.7841820  39.5889490 110.3788370 149.8509280  36.0721570
 110.1529290 149.6346450  36.9768190 109.5980900 150.2837740  35.7267540
 117.6086130 149.8572650  34.6712220 117.0095020 150.5808450  34.4875840
 118.1565740 149.7949430  33.8888670 112.8187580 150.7494860  46.7381840
 112.7231180 149.8089590  46.5882240 113.6619560 150.9709930  46.3429910
 116.2151000 148.4936190  36.7015500 116.6080570 148.8108390  35.8884190
 116.5767850 147.6148070  36.8160020 107.9498120 147.1608530  44.8915620
 107.5561510 148.0083740  45.0988400 107.2616520 146.5234900  45.0824260
 114.5243170 147.2443500  47.9612360 113.8341490 147.0515700  48.5958450
 115.2675470 147.5278140  48.4936660 105.2515170 145.0836990  38.9245700
 104.9628220 145.6539850  39.6370680 105.9960930 144.6041440  39.2876930
 105.4385400 149.0257110  30.1348420 105.3560070 149.9687870  30.2763410
 105.0868460 148.8832020  29.2560770 116.8006140 151.0841940  40.7966280
 116.0687260 151.5928750  41.1456380 116.4030480 150.2671920  40.4955060
 113.2383530 147.7596140  39.2018770 113.2419590 147.3186090  38.3523310
 114.1334650 148.0813470  39.3090590 109.0885910 147.6422630  38.1612980
 108.7485960 148.1197860  38.9180030 108.3263230 147.1887750  37.8014080
 113.3003680 148.7608220  32.1925530 113.4216500 148.7194700  33.1411350
 112.9152190 149.6232370  32.0372260 117.2632050 146.5375620  40.2089220
 117.2804790 146.9884270  41.0531070 117.0147630 145.6381260  40.4222660
 112.3125180 151.0709360  31.5908830 111.7442080 150.6227610  30.9644740
 113.0214180 151.4302140  31.0573980 120.6902800 143.9507800  46.0475600
 121.0148570 143.2197460  46.5733580 120.7259310 143.6321440  45.1456590
 106.4031990 146.5641610  37.0777650 106.1178910 146.1997280  37.9156270
 106.3410850 145.8322070  36.4640790 111.3290870 150.8606560  43.2668390
 111.0247940 151.7398540  43.4918750 112.2837330 150.9206350  43.3025830
 116.0770580 145.4570870  33.7991020 115.2635190 144.9584040  33.7236330
 115.8832530 146.2969120  33.3827370 118.7918970 149.8290520  32.0953180
 119.6798590 150.1407750  31.9204520 118.7624060 148.9562770  31.7033760
 107.3854600 151.7009300  44.4139750 107.0269540 152.3663150  45.0013090
 107.0909160 150.8692850  44.7852370 110.5867720 152.1593540  47.2979300
 110.2867860 152.3050720  46.4007120 111.3578960 151.5998830  47.2052690
 121.0633240 151.1402360  31.5633040 120.9796960 151.5716580  30.7129480
 121.7827430 151.6000710  31.9959860 105.8962650 151.7000560  31.0374350
 106.7657500 151.9825360  31.3210270 105.4052970 152.5136430  30.9223160
 108.9609240 143.4311420  35.6305150 108.8323870 143.4229320  36.5790070
 108.1371260 143.7694510  35.2796160 105.9603170 145.1902540  45.0911850
 105.2461690 145.3899460  45.6964460 106.3798210 144.4142110  45.4626650
 117.4541950 147.6824850  42.8413300 117.8222770 146.8620060  43.1692870
 116.5940150 147.7426740  43.2568950 120.8203980 146.6381790  33.6500860
 120.1917140 146.7427460  32.9359090 120.3255900 146.8578570  34.4394740
 112.7888010 148.9167740  35.0658740 112.0804160 149.3854080  35.5072350
 113.0732490 148.2589750  35.7003930 114.4143940 150.3364440  43.0651270
 114.9129190 150.8110260  43.7303120 114.5566890 149.4127960  43.2721300
 116.8203440 145.6418400  36.5054530 116.6971220 145.6604530  35.5564040
 117.7688000 145.6897340  36.6252930 110.9923030 147.2252820  32.4409450
 111.8413560 147.6622970  32.3749640 110.6254300 147.5373080  33.2681510
 121.6210800 146.5532400  43.9079660 121.1184400 147.2937800  44.2473470
 122.4367460 146.9416400  43.5916450 119.9132810 151.7965580  37.3541020
 118.9722950 151.8115810  37.5288710 120.2276880 151.0101540  37.8001320
 108.5861210 150.9110250  31.5977870 108.6664800 149.9637760  31.7095270
 109.4780960 151.2417130  31.7038530 108.1455090 150.8754760  47.7284110
 108.1860430 150.5768630  48.6369340 109.0000590 151.2762370  47.5691630
 110.0860900 149.4546860  45.6958600 109.5557360 148.9637810  45.0681940
 110.7548970 149.8831060  45.1616530 119.4561130 151.2612480  47.4638940
 120.0381900 150.5064800  47.3759420 119.6322900 151.7919920  46.6870420
 110.5733200 146.4209230  45.7755890 110.4790070 145.8029980  45.0506760
 109.9930590 147.1475520  45.5485800 113.3394640 144.9782470  42.8083280
 112.8911940 145.0006730  41.9628830 112.7059840 144.5801490  43.4053580
 116.0818090 151.6052980  44.8133560 116.2014300 151.0094120  45.5528400
 116.9412090 151.6422670  44.3934860 110.8192380 149.5483540  29.8345780
 110.6181440 148.6850900  30.1959120 110.6484430 149.4616900  28.8967380
 112.8486860 148.1474330  46.0709380 113.4386550 147.8390180  46.7587200
 112.0307100 147.6754080  46.2269280 117.6680290 147.7640140  46.3042400
 116.9795810 147.1021680  46.2392390 118.3886310 147.3178410  46.7490860
 118.2980690 144.3591770  32.3632660 118.5782980 143.5159670  32.7192080
 117.5246420 144.5914880  32.8771410 109.6175180 146.6484160  29.8223660
 109.9201080 146.6551590  28.9142810 110.3569770 146.2982020  30.3191320
 112.8360110 145.5918780  30.8079860 112.4882110 144.9142770  30.2282310
 113.0372880 145.1308290  31.6223250 106.1765750 152.1206430  37.2044230
 105.5214590 151.8518070  36.5603930 107.0143700 152.0110910  36.7546210
 119.1256190 146.9147720  31.4262720 119.5441070 146.7278700  30.5859380
 118.8192250 146.0626770  31.7365650 122.6245920 151.8271860  35.1238520
 122.2489520 151.0599790  34.6919810 121.8949040 152.2094560  35.6113450
 107.2141680 152.5059000  41.7447570 107.5814720 152.4186400  42.6243590
 106.6452500 151.7425550  41.6454430 122.0145540 150.9743380  44.7578040
 121.7831630 150.7456130  43.8575990 122.2750090 151.8942930  44.7122930
 106.7657680 149.4168090  45.6505990 105.8713730 149.3834850  45.9899700
 107.3055230 149.6154880  46.4157240 120.4533610 146.1999810  47.5357740
 121.3303790 146.2083210  47.9191740 120.4654450 145.4630650  46.9250090
 105.3903830 149.3305360  33.1469560 104.4867910 149.5935560  32.9721220
 105.8744450 149.6016530  32.3669520 121.8996880 150.0529350  38.4245760
 122.4234360 149.5592000  37.7935930 122.4856300 150.1879710  39.1693330
 122.0786600 150.1369220  41.9465310 121.1289310 150.1032760  42.0610300
 122.2599610 151.0469330  41.7115080 107.9331040 148.3870900  31.0563940
 108.6422740 147.9654120  30.5711220 107.2170980 148.4546130  30.4247290
 107.5805200 144.4410230  30.0966590 108.3033330 144.9819170  30.4147810
 107.8529720 144.1673650  29.2208130 121.3896850 149.3102700  34.3638170
 121.8855970 149.0773570  35.1487050 121.1912920 148.4714540  33.9475810
 107.2697390 143.6916420  39.9989210 107.9173580 143.1413800  39.5584370
 107.6899230 143.9459570  40.8205020 122.8184010 147.9463650  36.8975850
 122.7083290 147.7919690  37.8358120 123.5791600 147.4184590  36.6551260
 121.1649730 143.8857780  43.3558850 121.8021950 144.4991920  43.7218040
 121.3124620 143.9218440  42.4108080 123.7074280 145.7771570  30.1381990
 124.6323590 145.6452750  29.9300280 123.6850070 145.8564390  31.0918440
 123.7812770 146.5482230  32.7638700 122.9864270 146.4827350  33.2931610
 123.9856050 147.4832870  32.7524050 107.0229390 143.8472090  42.7414530
 106.6744210 144.3035910  43.5072710 106.6917090 142.9529220  42.8236960
 114.5354210 145.0383970  46.2633950 114.4743100 145.6305800  47.0129360
 115.4754590 144.9309930  46.1184210 117.1728770 144.6954030  45.9026240
 117.7869180 145.0133320  45.2407320 117.7178330 144.2102620  46.5222100
 107.6950030 143.3748290  46.0165300 108.2433020 143.1936340  45.2531410
 107.7605340 142.5842400  46.5521610 117.9136810 143.2586170  42.2295530
 117.0396650 143.5921280  42.0268460 117.8047560 142.7859350  43.0547400
 118.8208790 145.4657040  43.6137250 118.4922150 144.6508800  43.2338980
 119.7691090 145.4226850  43.4902940 115.6611630 144.1756010  41.1688440
 114.8783420 144.6501510  41.4485200 115.3674560 143.2710840  41.0601620
 120.2132700 144.8779110  39.2137530 120.6540790 144.8224210  38.3659130
 119.9440290 145.7937120  39.2847710 122.0771270 144.5094350  37.2246350
 122.0159670 143.5655570  37.0777370 122.8563300 144.6174440  37.7699810
 107.0052040 144.4803490  33.6902160 107.7631400 144.5932370  33.1166190
 106.5429210 145.3172690  33.6445590 113.5465850 146.5942760  36.6804470
 112.7340360 146.2199650  36.3400350 114.0507490 145.8387840  36.9825660
 118.0490830 143.2585210  37.9187540 118.6520200 143.8305420  38.3936060
 117.3083820 143.8224650  37.6961440 121.1925430 143.6606770  33.1927820
 121.3876060 144.5590220  33.4595250 120.4055300 143.4293850  33.6860770
 109.3777190 145.0067540  32.2304130 109.9069950 144.2197340  32.1012080
 110.0105510 145.6858730  32.4639660 111.5715030 144.7442680  35.2849520
 110.9417770 144.0429990  35.4519650 111.0320170 145.5046810  35.0682680
 111.6970590 144.0226660  47.7202010 111.4154860 144.5260260  46.9562830
 112.0790290 143.2248410  47.3544140 118.2986050 143.4380240  48.2982480
 118.1851500 143.7574850  49.1934000 119.1155790 143.8392750  48.0019760
 117.2044200 151.4572710  18.6617220 117.1238250 150.5427320  18.3908930
 116.7908620 151.9539780  17.9556930 107.7620020 148.5073430  15.2044640
 106.8736720 148.8489400  15.1024520 108.0461210 148.3073750  14.3125470
 105.7253030 151.1079080  21.0884340 106.2969140 150.3401280  21.0887980
 105.7254570 151.4067840  20.1790950 106.9677900 146.5163440  22.8753270
 106.7880740 145.6189190  23.1556030 106.5657980 147.0635310  23.5500220
 115.8076400 148.7179300  20.7765580 116.1841220 147.8451180  20.6639250
 115.7095910 149.0538000  19.8856020 109.9381410 147.0904930  16.2383020
 110.0448160 147.9908660  16.5451780 109.0273770 147.0422900  15.9477670
 119.5900520 146.2129740  17.7093920 120.4110140 145.7226310  17.7519400
 119.6234600 146.8027400  18.4625760 107.5864570 149.0123940  21.4835610
 108.2674680 149.2762310  22.1023010 107.2712620 148.1724810  21.8173620
 111.7789140 150.0591300  20.5708200 112.2867360 150.5572270  21.2113220
 112.3102380 149.2826500  20.3947560 123.8800070 148.2296490  24.2737550
 123.1752240 148.6178200  23.7552660 124.1457990 148.9246780  24.8758480
 110.0625240 144.6989860  24.8371620 110.0643680 145.2162250  24.0317520
 109.2329550 144.2220040  24.8141550 119.8262000 148.1530120  20.4821460
 119.1217570 148.4415010  21.0624570 120.1874160 148.9630230  20.1221020
 109.7440570 146.4099820  22.8442070 110.0857380 147.2541870  22.5495940
 108.8056380 146.5583560  22.9607410 122.8948920 147.5984910  20.8730670
 121.9473830 147.6323890  21.0046100 123.2198910 148.4123860  21.2580030
 113.4268460 143.8982090  19.1686660 113.7343440 143.3428980  18.4522160
 112.4969160 144.0326550  18.9859650 115.8018300 148.2347920  12.9013940
 114.8621970 148.3961880  12.9866400 116.1201560 148.9533600  12.3549930
 119.2873070 149.7035760  23.8247840 118.8744250 150.5289470  24.0787830
 118.5549020 149.1180800  23.6324200 111.4205860 152.4895660  18.6866510
 111.0162860 151.7772910  18.1912410 111.5068980 152.1448900  19.5754550
 110.1334480 149.2638870  22.4665550 110.6849070 149.3734210  21.6918800
 110.6477990 149.6376470  23.1820780 121.6028350 144.0180840  11.7295820
 121.2901010 144.1107670  12.6294890 122.3640820 144.5961870  11.6793250
 108.1210490 151.3840640  16.1873160 108.0008090 152.1102730  15.5754430
 107.8111380 150.6143550  15.7101070 122.8129640 148.7552340  27.7069960
 122.1973910 149.2632010  27.1785420 122.4926060 147.8550670  27.6495900
 110.5874150 144.7275710  19.5696830 110.1442300 145.5085250  19.2381350
 111.1459140 145.0505600  20.2767770 114.8743960 147.5944230  25.1732150
 114.4123330 147.8027250  25.9852090 114.4722070 146.7803580  24.8702820
 119.8748470 148.8153180  26.3028810 119.0242060 148.5158930  26.6237880
 119.7150260 149.0595190  25.3912630 116.9698180 150.3154930  28.4027600
 117.2951590 149.4818680  28.0629830 117.7578510 150.8383450  28.5505930
 113.7032970 144.3486410  14.4502660 113.0787150 144.3446280  15.1755970
 113.6163090 143.4817370  14.0538630 112.6250050 145.2723040  21.4286430
 112.9222380 146.1785870  21.3478450 113.1735610 144.7841820  20.8146000
 110.3788370 149.8509280  17.2978080 110.1529290 149.6346450  18.2024700
 109.5980900 150.2837740  16.9524050 117.6086130 149.8572650  15.8968730
 117.0095020 150.5808450  15.7132350 118.1565740 149.7949430  15.1145180
 112.8187580 150.7494860  27.9638350 112.7231180 149.8089590  27.8138750
 113.6619560 150.9709930  27.5686420 116.2151000 148.4936190  17.9272010
 116.6080570 148.8108390  17.1140700 116.5767850 147.6148070  18.0416530
 107.9498120 147.1608530  26.1172130 107.5561510 148.0083740  26.3244910
 107.2616520 146.5234900  26.3080770 114.5243170 147.2443500  29.1868870
 113.8341490 147.0515700  29.8214960 115.2675470 147.5278140  29.7193170
 105.2515170 145.0836990  20.1502210 104.9628220 145.6539850  20.8627190
 105.9960930 144.6041440  20.5133440 105.4385400 149.0257110  11.3604930
 105.3560070 149.9687870  11.5019920 105.0868460 148.8832020  10.4817280
 116.8006140 151.0841940  22.0222790 116.0687260 151.5928750  22.3712890
 116.4030480 150.2671920  21.7211570 113.2383530 147.7596140  20.4275280
 113.2419590 147.3186090  19.5779820 114.1334650 148.0813470  20.5347100
 109.0885910 147.6422630  19.3869490 108.7485960 148.1197860  20.1436540
 108.3263230 147.1887750  19.0270590 113.3003680 148.7608220  13.4182040
 113.4216500 148.7194700  14.3667860 112.9152190 149.6232370  13.2628770
 117.2632050 146.5375620  21.4345730 117.2804790 146.9884270  22.2787580
 117.0147630 145.6381260  21.6479170 112.3125180 151.0709360  12.8165340
 111.7442080 150.6227610  12.1901250 113.0214180 151.4302140  12.2830490
 120.6902800 143.9507800  27.2732110 121.0148570 143.2197460  27.7990090
 120.7259310 143.6321440  26.3713100 106.4031990 146.5641610  18.3034160
 106.1178910 146.1997280  19.1412780 106.3410850 145.8322070  17.6897300
 111.3290870 150.8606560  24.4924900 111.0247940 151.7398540  24.7175260
 112.2837330 150.9206350  24.5282340 116.0770580 145.4570870  15.0247530
 115.2635190 144.9584040  14.9492840 115.8832530 146.2969120  14.6083880
 118.7918970 149.8290520  13.3209690 119.6798590 150.1407750  13.1461030
 118.7624060 148.9562770  12.9290270 107.3854600 151.7009300  25.6396260
 107.0269540 152.3663150  26.2269600 107.0909160 150.8692850  26.0108880
 110.5867720 152.1593540  28.5235810 110.2867860 152.3050720  27.6263630
 111.3578960 151.5998830  28.4309200 121.0633240 151.1402360  12.7889550
 120.9796960 151.5716580  11.9385990 121.7827430 151.6000710  13.2216370
 105.8962650 151.7000560  12.2630860 106.7657500 151.9825360  12.5466780
 105.4052970 152.5136430  12.1479670 108.9609240 143.4311420  16.8561660
 108.8323870 143.4229320  17.8046580 108.1371260 143.7694510  16.5052670
 105.9603170 145.1902540  26.3168360 105.2461690 145.3899460  26.9220970
 106.3798210 144.4142110  26.6883160 117.4541950 147.6824850  24.0669810
 117.8222770 146.8620060  24.3949380 116.5940150 147.7426740  24.4825460
 120.8203980 146.6381790  14.8757370 120.1917140 146.7427460  14.1615600
 120.3255900 146.8578570  15.6651250 112.7888010 148.9167740  16.2915250
 112.0804160 149.3854080  16.7328860 113.0732490 148.2589750  16.9260440
 114.4143940 150.3364440  24.2907780 114.9129190 150.8110260  24.9559630
 114.5566890 149.4127960  24.4977810 116.8203440 145.6418400  17.7311040
 116.6971220 145.6604530  16.7820550 117.7688000 145.6897340  17.8509440
 110.9923030 147.2252820  13.6665960 111.8413560 147.6622970  13.6006150
 110.6254300 147.5373080  14.4938020 121.6210800 146.5532400  25.1336170
 121.1184400 147.2937800  25.4729980 122.4367460 146.9416400  24.8172960
 119.9132810 151.7965580  18.5797530 118.9722950 151.8115810  18.7545220
 120.2276880 151.0101540  19.0257830 108.5861210 150.9110250  12.8234380
 108.6664800 149.9637760  12.9351780 109.4780960 151.2417130  12.9295040
 108.1455090 150.8754760  28.9540620 108.1860430 150.5768630  29.8625850
 109.0000590 151.2762370  28.7948140 110.0860900 149.4546860  26.9215110
 109.5557360 148.9637810  26.2938450 110.7548970 149.8831060  26.3873040
 119.4561130 151.2612480  28.6895450 120.0381900 150.5064800  28.6015930
 119.6322900 151.7919920  27.9126930 110.5733200 146.4209230  27.0012400
 110.4790070 145.8029980  26.2763270 109.9930590 147.1475520  26.7742310
 113.3394640 144.9782470  24.0339790 112.8911940 145.0006730  23.1885340
 112.7059840 144.5801490  24.6310090 116.0818090 151.6052980  26.0390070
 116.2014300 151.0094120  26.7784910 116.9412090 151.6422670  25.6191370
 110.8192380 149.5483540  11.0602290 110.6181440 148.6850900  11.4215630
 110.6484430 149.4616900  10.1223890 112.8486860 148.1474330  27.2965890
 113.4386550 147.8390180  27.9843710 112.0307100 147.6754080  27.4525790
 117.6680290 147.7640140  27.5298910 116.9795810 147.1021680  27.4648900
 118.3886310 147.3178410  27.9747370 118.2980690 144.3591770  13.5889170
 118.5782980 143.5159670  13.9448590 117.5246420 144.5914880  14.1027920
 109.6175180 146.6484160  11.0480170 109.9201080 146.6551590  10.1399320
 110.3569770 146.2982020  11.5447830 112.8360110 145.5918780  12.0336370
 112.4882110 144.9142770  11.4538820 113.0372880 145.1308290  12.8479760
 106.1765750 152.1206430  18.4300740 105.5214590 151.8518070  17.7860440
 107.0143700 152.0110910  17.9802720 119.1256190 146.9147720  12.6519230
 119.5441070 146.7278700  11.8115890 118.8192250 146.0626770  12.9622160
 122.6245920 151.8271860  16.3495030 122.2489520 151.0599790  15.9176320
 121.8949040 152.2094560  16.8369960 107.2141680 152.5059000  22.9704080
 107.5814720 152.4186400  23.8500100 106.6452500 151.7425550  22.8710940
 122.0145540 150.9743380  25.9834550 121.7831630 150.7456130  25.0832500
 122.2750090 151.8942930  25.9379440 106.7657680 149.4168090  26.8762500
 105.8713730 149.3834850  27.2156210 107.3055230 149.6154880  27.6413750
 120.4533610 146.1999810  28.7614250 121.3303790 146.2083210  29.1448250
 120.4654450 145.4630650  28.1506600 105.3903830 149.3305360  14.3726070
 104.4867910 149.5935560  14.1977730 105.8744450 149.6016530  13.5926030
 121.8996880 150.0529350  19.6502270 122.4234360 149.5592000  19.0192440
 122.4856300 150.1879710  20.3949840 122.0786600 150.1369220  23.1721820
 121.1289310 150.1032760  23.2866810 122.2599610 151.0469330  22.9371590
 107.9331040 148.3870900  12.2820450 108.6422740 147.9654120  11.7967730
 107.2170980 148.4546130  11.6503800 107.5805200 144.4410230  11.3223100
 108.3033330 144.9819170  11.6404320 107.8529720 144.1673650  10.4464640
 121.3896850 149.3102700  15.5894680 121.8855970 149.0773570  16.3743560
 121.1912920 148.4714540  15.1732320 107.2697390 143.6916420  21.2245720
 107.9173580 143.1413800  20.7840880 107.6899230 143.9459570  22.0461530
 122.8184010 147.9463650  18.1232360 122.7083290 147.7919690  19.0614630
 123.5791600 147.4184590  17.8807770 121.1649730 143.8857780  24.5815360
 121.8021950 144.4991920  24.9474550 121.3124620 143.9218440  23.6364590
 123.7074280 145.7771570  11.3638500 124.6323590 145.6452750  11.1556790
 123.6850070 145.8564390  12.3174950 123.7812770 146.5482230  13.9895210
 122.9864270 146.4827350  14.5188120 123.9856050 147.4832870  13.9780560
 107.0229390 143.8472090  23.9671040 106.6744210 144.3035910  24.7329220
 106.6917090 142.9529220  24.0493470 114.5354210 145.0383970  27.4890460
 114.4743100 145.6305800  28.2385870 115.4754590 144.9309930  27.3440720
 117.1728770 144.6954030  27.1282750 117.7869180 145.0133320  26.4663830
 117.7178330 144.2102620  27.7478610 107.6950030 143.3748290  27.2421810
 108.2433020 143.1936340  26.4787920 107.7605340 142.5842400  27.7778120
 117.9136810 143.2586170  23.4552040 117.0396650 143.5921280  23.2524970
 117.8047560 142.7859350  24.2803910 118.8208790 145.4657040  24.8393760
 118.4922150 144.6508800  24.4595490 119.7691090 145.4226850  24.7159450
 115.6611630 144.1756010  22.3944950 114.8783420 144.6501510  22.6741710
 115.3674560 143.2710840  22.2858130 120.2132700 144.8779110  20.4394040
 120.6540790 144.8224210  19.5915640 119.9440290 145.7937120  20.5104220
 122.0771270 144.5094350  18.4502860 122.0159670 143.5655570  18.3033880
 122.8563300 144.6174440  18.9956320 107.0052040 144.4803490  14.9158670
 107.7631400 144.5932370  14.3422700 106.5429210 145.3172690  14.8702100
 113.5465850 146.5942760  17.9060980 112.7340360 146.2199650  17.5656860
 114.0507490 145.8387840  18.2082170 118.0490830 143.2585210  19.1444050
 118.6520200 143.8305420  19.6192570 117.3083820 143.8224650  18.9217950
 121.1925430 143.6606770  14.4184330 121.3876060 144.5590220  14.6851760
 120.4055300 143.4293850  14.9117280 109.3777190 145.0067540  13.4560640
 109.9069950 144.2197340  13.3268590 110.0105510 145.6858730  13.6896170
 111.5715030 144.7442680  16.5106030 110.9417770 144.0429990  16.6776160
 111.0320170 145.5046810  16.2939190 111.6970590 144.0226660  28.9458520
 111.4154860 144.5260260  28.1819340 112.0790290 143.2248410  28.5800650
 118.2986050 143.4380240  29.5238990 118.1851500 143.7574850  30.4190510
 119.1155790 143.8392750  29.2276270 106.9677900 146.5163440   4.1009780
 106.7880740 145.6189190   4.3812540 106.5657980 147.0635310   4.7756730
 107.5864570 149.0123940   2.7092120 108.2674680 149.2762310   3.3279520
 107.2712620 148.1724810   3.0430130 111.7789140 150.0591300   1.7964710
 112.2867360 150.5572270   2.4369730 112.3102380 149.2826500   1.6204070
 123.8800070 148.2296490   5.4994060 123.1752240 148.6178200   4.9809170
 124.1457990 148.9246780   6.1014990 110.0625240 144.6989860   6.0628130
 110.0643680 145.2162250   5.2574030 109.2329550 144.2220040   6.0398060
 109.7440570 146.4099820   4.0698580 110.0857380 147.2541870   3.7752450
 108.8056380 146.5583560   4.1863920 122.8948920 147.5984910   2.0987180
 121.9473830 147.6323890   2.2302610 123.2198910 148.4123860   2.4836540
 119.2873070 149.7035760   5.0504350 118.8744250 150.5289470   5.3044340
 118.5549020 149.1180800   4.8580710 110.1334480 149.2638870   3.6922060
 110.6849070 149.3734210   2.9175310 110.6477990 149.6376470   4.4077290
 122.8129640 148.7552340   8.9326470 122.1973910 149.2632010   8.4041930
 122.4926060 147.8550670   8.8752410 114.8743960 147.5944230   6.3988660
 114.4123330 147.8027250   7.2108600 114.4722070 146.7803580   6.0959330
 119.8748470 148.8153180   7.5285320 119.0242060 148.5158930   7.8494390
 119.7150260 149.0595190   6.6169140 116.9698180 150.3154930   9.6284110
 117.2951590 149.4818680   9.2886340 117.7578510 150.8383450   9.7762440
 112.6250050 145.2723040   2.6542940 112.9222380 146.1785870   2.5734960
 113.1735610 144.7841820   2.0402510 112.8187580 150.7494860   9.1894860
 112.7231180 149.8089590   9.0395260 113.6619560 150.9709930   8.7942930
 107.9498120 147.1608530   7.3428640 107.5561510 148.0083740   7.5501420
 107.2616520 146.5234900   7.5337280 114.5243170 147.2443500  10.4125380
 113.8341490 147.0515700  11.0471470 115.2675470 147.5278140  10.9449680
 116.8006140 151.0841940   3.2479300 116.0687260 151.5928750   3.5969400
 116.4030480 150.2671920   2.9468080 117.2632050 146.5375620   2.6602240
 117.2804790 146.9884270   3.5044090 117.0147630 145.6381260   2.8735680
 120.6902800 143.9507800   8.4988620 121.0148570 143.2197460   9.0246600
 120.7259310 143.6321440   7.5969610 111.3290870 150.8606560   5.7181410
 111.0247940 151.7398540   5.9431770 112.2837330 150.9206350   5.7538850
 107.3854600 151.7009300   6.8652770 107.0269540 152.3663150   7.4526110
 107.0909160 150.8692850   7.2365390 110.5867720 152.1593540   9.7492320
 110.2867860 152.3050720   8.8520140 111.3578960 151.5998830   9.6565710
 105.9603170 145.1902540   7.5424870 105.2461690 145.3899460   8.1477480
 106.3798210 144.4142110   7.9139670 117.4541950 147.6824850   5.2926320
 117.8222770 146.8620060   5.6205890 116.5940150 147.7426740   5.7081970
 114.4143940 150.3364440   5.5164290 114.9129190 150.8110260   6.1816140
 114.5566890 149.4127960   5.7234320 121.6210800 146.5532400   6.3592680
 121.1184400 147.2937800   6.6986490 122.4367460 146.9416400   6.0429470
 108.1455090 150.8754760  10.1797130 108.1860430 150.5768630  11.0882360
 109.0000590 151.2762370  10.0204650 110.0860900 149.4546860   8.1471620
 109.5557360 148.9637810   7.5194960 110.7548970 149.8831060   7.6129550
 119.4561130 151.2612480   9.9151960 120.0381900 150.5064800   9.8272440
 119.6322900 151.7919920   9.1383440 110.5733200 146.4209230   8.2268910
 110.4790070 145.8029980   7.5019780 109.9930590 147.1475520   7.9998820
 113.3394640 144.9782470   5.2596300 112.8911940 145.0006730   4.4141850
 112.7059840 144.5801490   5.8566600 116.0818090 151.6052980   7.2646580
 116.2014300 151.0094120   8.0041420 116.9412090 151.6422670   6.8447880
 112.8486860 148.1474330   8.5222400 113.4386550 147.8390180   9.2100220
 112.0307100 147.6754080   8.6782300 117.6680290 147.7640140   8.7555420
 116.9795810 147.1021680   8.6905410 118.3886310 147.3178410   9.2003880
 107.2141680 152.5059000   4.1960590 107.5814720 152.4186400   5.0756610
 106.6452500 151.7425550   4.0967450 122.0145540 150.9743380   7.2091060
 121.7831630 150.7456130   6.3089010 122.2750090 151.8942930   7.1635950
 106.7657680 149.4168090   8.1019010 105.8713730 149.3834850   8.4412720
 107.3055230 149.6154880   8.8670260 120.4533610 146.1999810   9.9870760
 121.3303790 146.2083210  10.3704760 120.4654450 145.4630650   9.3763110
 122.0786600 150.1369220   4.3978330 121.1289310 150.1032760   4.5123320
 122.2599610 151.0469330   4.1628100 107.2697390 143.6916420   2.4502230
 107.9173580 143.1413800   2.0097390 107.6899230 143.9459570   3.2718040
 121.1649730 143.8857780   5.8071870 121.8021950 144.4991920   6.1731060
 121.3124620 143.9218440   4.8621100 107.0229390 143.8472090   5.1927550
 106.6744210 144.3035910   5.9585730 106.6917090 142.9529220   5.2749980
 114.5354210 145.0383970   8.7146970 114.4743100 145.6305800   9.4642380
 115.4754590 144.9309930   8.5697230 117.1728770 144.6954030   8.3539260
 117.7869180 145.0133320   7.6920340 117.7178330 144.2102620   8.9735120
 107.6950030 143.3748290   8.4678320 108.2433020 143.1936340   7.7044430
 107.7605340 142.5842400   9.0034630 117.9136810 143.2586170   4.6808550
 117.0396650 143.5921280   4.4781480 117.8047560 142.7859350   5.5060420
 118.8208790 145.4657040   6.0650270 118.4922150 144.6508800   5.6852000
 119.7691090 145.4226850   5.9415960 115.6611630 144.1756010   3.6201460
 114.8783420 144.6501510   3.8998220 115.3674560 143.2710840   3.5114640
 111.6970590 144.0226660  10.1715030 111.4154860 144.5260260   9.4075850
 112.0790290 143.2248410   9.8057160 118.2986050 143.4380240  10.7495500
 118.1851500 143.7574850  11.6447020 119.1155790 143.8392750  10.4532780
 117.2044200 132.6829220 150.0821650 117.1238250 131.7683830 149.8113360
 116.7908620 133.1796290 149.3761360 119.3569670 138.8668430 150.7430050
 118.8951200 138.0955670 151.0717220 120.1695220 138.8934500 151.2482500
 107.7620020 129.7329940 146.6249070 106.8736720 130.0745910 146.5228950
 108.0461210 129.5330260 145.7329900 115.5832980 141.1526440 150.3634040
 114.9644420 141.6083940 149.7928480 116.4384760 141.3077900 149.9623740
 109.9381410 128.3161440 147.6587450 110.0448160 129.2165170 147.9656210
 109.0273770 128.2679410 147.3682100 119.5900520 127.4386250 149.1298350
 120.4110140 126.9482820 149.1723830 119.6234600 128.0283910 149.8830190
 116.4496330 136.0365680 147.7565950 115.8313600 136.5015130 147.1928670
 116.9619580 136.7293160 148.1735460 105.8179530 136.7222210 145.1305580
 105.4407510 137.2109310 144.3990480 106.0752600 137.3947490 145.7612110
 113.4268460 125.1238600 150.5891090 113.7343440 124.5685490 149.8726590
 112.4969160 125.2583060 150.4064080 120.2728940 137.5622110 147.9688720
 120.1625270 136.6196440 148.0938140 120.2697190 137.9237750 148.8551480
 115.8149220 133.1887430 147.3251210 114.8878500 133.1224810 147.5539680
 115.9674040 134.1267560 147.2106450 115.8018300 129.4604430 144.3218370
 114.8621970 129.6218390 144.4070830 116.1201560 130.1790110 143.7754360
 119.8446510 134.7507730 147.8286460 119.2258930 134.4127280 147.1812760
 119.8270960 134.1067490 148.5365650 111.4205860 133.7152170 150.1070940
 111.0162860 133.0029420 149.6116840 111.5068980 133.3705410 150.9958980
 118.0211210 133.9894540 144.8359210 118.4604490 133.1516970 144.6897030
 118.7339630 134.6223940 144.9223350 116.1306590 138.9290610 148.8040450
 116.5702500 139.6714940 148.3895840 116.0693480 139.1717180 149.7279410
 121.6028350 125.2437350 143.1500250 121.2901010 125.3364180 144.0499320
 122.3640820 125.8218380 143.0997680 108.1210490 132.6097150 147.6077590
 108.0008090 133.3359240 146.9958860 107.8111380 131.8400060 147.1305500
 107.0043490 137.4812480 149.8252410 106.5971570 137.6227070 148.9706010
 107.8956500 137.1972640 149.6223620 118.7976770 141.9159730 146.1603460
 118.6377910 141.6262670 147.0585290 118.6323480 141.1399860 145.6248690
 111.2765150 141.6958260 147.9375080 111.1007630 140.7793800 147.7242880
 110.4220890 142.0545550 148.1772880 118.5002900 139.4247290 144.7201460
 117.8068060 139.4224580 144.0603740 119.2425760 139.0006610 144.2895630
 118.0652830 141.0510000 148.7949950 118.5209780 140.2699380 149.1088570
 118.4045350 141.7616820 149.3391130 110.5874150 125.9532220 150.9901260
 110.1442300 126.7341760 150.6585780 111.1459140 126.2762110 151.6972200
 113.7032970 125.5742920 145.8707090 113.0787150 125.5702790 146.5960400
 113.6163090 124.7073880 145.4743060 110.3788370 131.0765790 148.7182510
 110.1529290 130.8602960 149.6229130 109.5980900 131.5094250 148.3728480
 117.6086130 131.0829160 147.3173160 117.0095020 131.8064960 147.1336780
 118.1565740 131.0205940 146.5349610 116.2151000 129.7192700 149.3476440
 116.6080570 130.0364900 148.5345130 116.5767850 128.8404580 149.4620960
 105.4385400 130.2513620 142.7809360 105.3560070 131.1944380 142.9224350
 105.0868460 130.1088530 141.9021710 109.0885910 128.8679140 150.8073920
 108.7485960 129.3454370 151.5640970 108.3263230 128.4144260 150.4475020
 113.3003680 129.9864730 144.8386470 113.4216500 129.9451210 145.7872290
 112.9152190 130.8488880 144.6833200 112.3125180 132.2965870 144.2369770
 111.7442080 131.8484120 143.6105680 113.0214180 132.6558650 143.7034920
 106.4031990 127.7898120 149.7238590 106.1178910 127.4253790 150.5617210
 106.3410850 127.0578580 149.1101730 109.8572660 136.2924060 146.5096180
 109.0834920 135.7521680 146.3494900 110.5867290 135.7730670 146.1713940
 116.0770580 126.6827380 146.4451960 115.2635190 126.1840550 146.3697270
 115.8832530 127.5225630 146.0288310 118.7918970 131.0547030 144.7414120
 119.6798590 131.3664260 144.5665460 118.7624060 130.1819280 144.3494700
 109.9010060 135.9604440 150.1474990 110.4188730 135.1572700 150.0931880
 109.4494080 135.8983580 150.9891820 114.7879560 137.2270720 145.4202290
 115.1295260 137.9712950 144.9245610 113.9592270 137.5401840 145.7827120
 121.0633240 132.3658870 144.2093980 120.9796960 132.7973090 143.3590420
 121.7827430 132.8257220 144.6420800 122.0920490 139.2201130 146.9376110
 121.4496650 138.5656750 147.2119830 121.7051150 139.6256220 146.1616780
 117.6706970 136.5486560 150.7847800 118.0230790 135.9514690 150.1249170
 116.7869300 136.2230790 150.9556050 113.7570250 137.3084250 148.1918210
 114.4441380 137.8553460 148.5725800 112.9702670 137.8524980 148.2267820
 105.8962650 132.9257070 143.6835290 106.7657500 133.2081870 143.9671210
 105.4052970 133.7392940 143.5684100 113.0597460 134.3130280 147.8043570
 113.5160240 135.1235530 148.0303760 112.7085670 133.9953420 148.6362060
 108.9609240 124.6567930 148.2766090 108.8323870 124.6485830 149.2251010
 108.1371260 124.9951020 147.9257100 120.4817870 138.1117590 143.4752460
 120.2555450 137.3948030 144.0677100 120.0914070 137.8630030 142.6374210
 106.2633900 142.1384450 144.2496920 106.6231540 142.7373790 143.5954190
 106.1226240 142.6844340 145.0231950 120.0634120 136.0289530 145.1366620
 119.7755820 136.4902220 145.9244500 120.8586290 135.5687300 145.4050840
 112.2802520 139.5215650 145.0670590 112.2712620 140.2545340 144.4515100
 111.3600880 139.2747230 145.1597550 107.8809160 134.7430540 145.8117350
 107.2737110 135.4829440 145.8212650 108.3558510 134.8329900 144.9855550
 120.8203980 127.8638300 146.2961800 120.1917140 127.9683970 145.5820030
 120.3255900 128.0835080 147.0855680 115.2662120 139.5843890 143.7295780
 115.3674100 139.3807880 142.7997760 114.3663860 139.3302170 143.9343560
 112.7888010 130.1424250 147.7119680 112.0804160 130.6110590 148.1533290
 113.0732490 129.4846260 148.3464870 116.8203440 126.8674910 149.1515470
 116.6971220 126.8861040 148.2024980 117.7688000 126.9153850 149.2713870
 113.9080230 142.1030210 148.4243450 114.1621730 142.0651600 147.5022820
 112.9592710 141.9763540 148.4171700 110.9923030 128.4509330 145.0870390
 111.8413560 128.8879480 145.0210580 110.6254300 128.7629590 145.9142450
 119.9132810 133.0222090 150.0001960 118.9722950 133.0372320 150.1749650
 120.2276880 132.2358050 150.4462260 109.8914450 134.7041690 143.5605920
 110.6577720 134.5923050 144.1231350 109.9689140 134.0079660 142.9082690
 108.5861210 132.1366760 144.2438810 108.6664800 131.1894270 144.3556210
 109.4780960 132.4673640 144.3499470 109.3875920 142.2862150 151.3473350
 110.1238400 141.7377610 151.6181920 109.7716840 143.1518160 151.2079340
 106.2721400 138.3535720 147.2214860 105.3461180 138.5956860 147.2120270
 106.7377830 139.1809980 147.0999610 112.4978230 141.4592460 143.1698920
 113.2906840 141.7481290 142.7180710 111.9782580 141.0284630 142.4911400
 121.5508400 140.6862590 144.5935660 121.2649910 140.2727730 143.7789840
 121.3527950 141.6150300 144.4736180 113.0155630 136.6795870 143.0341270
 112.9106270 136.0648220 143.7602650 112.8479850 136.1561760 142.2504280
 116.2558360 135.7415900 143.6383260 115.7068460 136.1885200 144.2826000
 116.8777620 135.2365150 144.1620930 111.9233480 134.7006820 145.5348560
 112.3449900 134.5346690 146.3779950 112.0484320 133.8907050 145.0403700
 114.4361120 133.7244430 142.7825660 114.9566780 133.0093450 142.4166810
 115.0829520 134.3630300 143.0826170 110.8192380 130.7740050 142.4806720
 110.6181440 129.9107410 142.8420060 110.6484430 130.6873410 141.5428320
 118.2980690 125.5848280 145.0093600 118.5782980 124.7416180 145.3653020
 117.5246420 125.8171390 145.5232350 109.6175180 127.8740670 142.4684600
 109.9201080 127.8808100 141.5603750 110.3569770 127.5238530 142.9652260
 112.8360110 126.8175290 143.4540800 112.4882110 126.1399280 142.8743250
 113.0372880 126.3564800 144.2684190 115.0009150 141.8056040 145.0727400
 115.8959940 142.1441010 145.0946160 115.0326780 141.0835450 144.4451680
 108.6405310 137.1783090 143.3014400 109.0780180 137.7212760 143.9571980
 109.1253040 136.3530040 143.3110740 105.8551110 139.9672120 150.7534660
 106.1854120 139.0993180 150.5213300 106.2842110 140.1730640 151.5839620
 110.4513030 138.2981130 148.4136630 110.1508570 138.1746100 149.3140540
 110.3450520 137.4389720 148.0052360 123.2204950 138.0777530 143.1163310
 122.3897910 138.1454180 143.5870540 123.3976780 138.9681650 142.8130170
 122.6761410 134.8225010 145.6197510 123.4380320 135.3921660 145.7257200
 122.6915780 134.2552210 146.3905820 106.1765750 133.3462940 149.8505170
 105.5214590 133.0774580 149.2064870 107.0143700 133.2367420 149.4007150
 123.6821380 135.6775110 150.4639440 124.0530210 134.8942430 150.0575410
 124.3223310 136.3664210 150.2856740 122.7280580 135.1159380 142.7770030
 123.0029420 136.0238260 142.6489250 122.5391320 135.0521910 143.7132020
 119.1256190 128.1404230 144.0723660 119.5441070 127.9535210 143.2320320
 118.8192250 127.2883280 144.3826590 122.6245920 133.0528370 147.7699460
 122.2489520 132.2856300 147.3380750 121.8949040 133.4351070 148.2574390
 105.3903830 130.5561870 145.7930500 104.4867910 130.8192070 145.6182160
 105.8744450 130.8273040 145.0130460 107.9331040 129.6127410 143.7024880
 108.6422740 129.1910630 143.2172160 107.2170980 129.6802640 143.0708230
 107.5805200 125.6666740 142.7427530 108.3033330 126.2075680 143.0608750
 107.8529720 125.3930160 141.8669070 121.3896850 130.5359210 147.0099110
 121.8855970 130.3030080 147.7947990 121.1912920 129.6971050 146.5936750
 122.8184010 129.1720160 149.5436790 122.7083290 129.0176200 150.4819060
 123.5791600 128.6441100 149.3012200 123.7074280 127.0028080 142.7842930
 124.6323590 126.8709260 142.5761220 123.6850070 127.0820900 143.7379380
 123.7812770 127.7738740 145.4099640 122.9864270 127.7083860 145.9392550
 123.9856050 128.7089380 145.3984990 120.7231190 141.8130290 149.4038030
 121.3190260 141.4914860 148.7272450 120.9809340 141.3402110 150.1951300
 122.0771270 125.7350860 149.8707290 122.0159670 124.7912080 149.7238310
 122.8563300 125.8430950 150.4160750 106.3824020 141.8743220 148.8331240
 106.2146060 141.2413900 149.5313130 105.5158530 142.0802620 148.4825430
 107.0052040 125.7060000 146.3363100 107.7631400 125.8188880 145.7627130
 106.5429210 126.5429200 146.2906530 113.5465850 127.8199270 149.3265410
 112.7340360 127.4456160 148.9861290 114.0507490 127.0644350 149.6286600
 118.0490830 124.4841720 150.5648480 118.6520200 125.0561930 151.0397000
 117.3083820 125.0481160 150.3422380 121.1925430 124.8863280 145.8388760
 121.3876060 125.7846730 146.1056190 120.4055300 124.6550360 146.3321710
 107.9886720 140.5676450 146.2781380 107.4634340 140.9484480 145.5743340
 107.9131300 141.1927220 146.9991090 109.3777190 126.2324050 144.8765070
 109.9069950 125.4453850 144.7473020 110.0105510 126.9115240 145.1100600
 111.5715030 125.9699190 147.9310460 110.9417770 125.2686500 148.0980590
 111.0320170 126.7303320 147.7143620 122.7452040 142.1263990 147.5995320
 122.9204230 141.4401730 146.9556240 122.0473610 142.6511040 147.2071990
 110.5879690 142.5158830 145.1530630 111.3198510 142.2318110 144.6054520
 110.8473360 142.2772110 146.0430010 109.7494480 138.6323560 145.1576960
 109.1203360 139.1008660 145.7062790 109.8642310 137.7872780 145.5923150
 117.2044200 132.6829220 131.3078160 117.1238250 131.7683830 131.0369870
 116.7908620 133.1796290 130.6017870 115.3362240 134.4608240 133.1887430
 114.5604340 133.9808680 133.4786000 115.9875170 133.7813890 133.0143590
 109.3528070 134.7728050 134.0663190 108.5212950 134.5176760 134.4659700
 109.9609050 134.8438820 134.8021110 119.3569670 138.8668430 131.9686560
 118.8951200 138.0955670 132.2973730 120.1695220 138.8934500 132.4739010
 109.3329330 138.8068140 134.2621210 109.6357370 137.9165880 134.0831430
 110.0772920 139.3638360 134.0343460 107.7620020 129.7329940 127.8505580
 106.8736720 130.0745910 127.7485460 108.0461210 129.5330260 126.9586410
 105.7253030 132.3335590 133.7345280 106.2969140 131.5657790 133.7348920
 105.7254570 132.6324350 132.8251890 115.5832980 141.1526440 131.5890550
 114.9644420 141.6083940 131.0184990 116.4384760 141.3077900 131.1880250
 114.7771230 137.1365430 133.1957590 114.7079510 136.1955370 133.0346720
 115.5391090 137.2266840 133.7680160 106.9677900 127.7419950 135.5214210
 106.7880740 126.8445700 135.8016970 106.5657980 128.2891820 136.1961160
 115.8076400 129.9435810 133.4226520 116.1841220 129.0707690 133.3100190
 115.7095910 130.2794510 132.5316960 109.9381410 128.3161440 128.8843960
 110.0448160 129.2165170 129.1912720 109.0273770 128.2679410 128.5938610
 119.5900520 127.4386250 130.3554860 120.4110140 126.9482820 130.3980340
 119.6234600 128.0283910 131.1086700 107.5864570 130.2380450 134.1296550
 108.2674680 130.5018820 134.7483950 107.2712620 129.3981320 134.4634560
 111.7789140 131.2847810 133.2169140 112.2867360 131.7828780 133.8574160
 112.3102380 130.5083010 133.0408500 123.8800070 129.4553000 136.9198490
 123.1752240 129.8434710 136.4013600 124.1457990 130.1503290 137.5219420
 110.0625240 125.9246370 137.4832560 110.0643680 126.4418760 136.6778460
 109.2329550 125.4476550 137.4602490 116.4496330 136.0365680 128.9822460
 115.8313600 136.5015130 128.4185180 116.9619580 136.7293160 129.3991970
 111.3128090 135.5641550 135.6606060 110.9797470 136.1910470 136.3027130
 111.4894770 136.0903430 134.8807730 119.8262000 129.3786630 133.1282400
 119.1217570 129.6671520 133.7085510 120.1874160 130.1886740 132.7681960
 109.7440570 127.6356330 135.4903010 110.0857380 128.4798380 135.1956880
 108.8056380 127.7840070 135.6068350 110.5247190 137.5322350 137.4755240
 111.1421190 138.2073430 137.1939690 109.6640310 137.9410330 137.3842740
 105.8179530 136.7222210 126.3562090 105.4407510 137.2109310 125.6246990
 106.0752600 137.3947490 126.9868620 121.4424780 138.9961760 135.3909880
 120.7588300 139.6660870 135.3826550 121.9819070 139.1942410 134.6254740
 122.8948920 128.8241420 133.5191610 121.9473830 128.8580400 133.6507040
 123.2198910 129.6380370 133.9040970 113.4268460 125.1238600 131.8147600
 113.7343440 124.5685490 131.0983100 112.4969160 125.2583060 131.6320590
 118.9783520 140.8405890 134.1055060 118.9910680 140.4368180 133.2377320
 118.4258740 141.6153180 134.0016490 120.2728940 137.5622110 129.1945230
 120.1625270 136.6196440 129.3194650 120.2697190 137.9237750 130.0807990
 118.3768960 135.7435730 135.4337670 118.7937750 135.5295840 134.5991130
 119.1008780 136.0008520 136.0046290 115.8149220 133.1887430 128.5507720
 114.8878500 133.1224810 128.7796190 115.9674040 134.1267560 128.4362960
 115.8018300 129.4604430 125.5474880 114.8621970 129.6218390 125.6327340
 116.1201560 130.1790110 125.0010870 122.3231060 134.1422950 135.5253910
 121.4949690 134.2116040 135.0504040 122.9181540 134.7277260 135.0569740
 119.8446510 134.7507730 129.0542970 119.2258930 134.4127280 128.4069270
 119.8270960 134.1067490 129.7622160 119.2873070 130.9292270 136.4708780
 118.8744250 131.7545980 136.7248770 118.5549020 130.3437310 136.2785140
 111.4205860 133.7152170 131.3327450 111.0162860 133.0029420 130.8373350
 111.5068980 133.3705410 132.2215490 111.8887560 137.4019730 133.4966660
 111.5915850 136.7965200 132.8174440 112.8387380 137.4397040 133.3856020
 110.1334480 130.4895380 135.1126490 110.6849070 130.5990720 134.3379740
 110.6477990 130.8632980 135.8281720 119.9773170 140.9751600 137.1589760
 119.5003730 141.7823790 136.9662370 119.2934960 140.3229930 137.3115970
 110.9805990 137.1401420 140.1474460 110.0834520 137.3641390 140.3947860
 111.0058860 137.2636360 139.1985860 118.0211210 133.9894540 126.0615720
 118.4604490 133.1516970 125.9153540 118.7339630 134.6223940 126.1479860
 109.8077210 134.0114740 138.7231830 109.6684980 134.8837540 139.0919230
 108.9258570 133.6687550 138.5779770 116.1306590 138.9290610 130.0296960
 116.5702500 139.6714940 129.6152350 116.0693480 139.1717180 130.9535920
 111.6057560 139.9536440 140.9316980 111.5772990 140.3579390 140.0645410
 111.4422530 139.0246800 140.7688580 121.6028350 125.2437350 124.3756760
 121.2901010 125.3364180 125.2755830 122.3640820 125.8218380 124.3254190
 108.1210490 132.6097150 128.8334100 108.0008090 133.3359240 128.2215370
 107.8111380 131.8400060 128.3562010 123.5572380 140.7363540 142.2281150
 124.0332100 141.2146430 142.9070230 124.1779540 140.6681030 141.5026650
 105.7595860 135.7812290 134.6402740 105.8376280 135.9161060 133.6958460
 106.3737540 135.0728180 134.8330860 107.0043490 137.4812480 131.0508920
 106.5971570 137.6227070 130.1962520 107.8956500 137.1972640 130.8480130
 122.9605630 137.9276390 139.3881160 123.0868690 137.6888270 138.4698340
 123.0027010 137.0960930 139.8603240 116.8222370 141.6304390 137.9575970
 117.3367040 141.5412400 138.7598400 115.9791450 141.9764090 138.2503880
 118.7976770 141.9159730 127.3859970 118.6377910 141.6262670 128.2841800
 118.6323480 141.1399860 126.8505200 111.2765150 141.6958260 129.1631590
 111.1007630 140.7793800 128.9499390 110.4220890 142.0545550 129.4029390
 118.5002900 139.4247290 125.9457970 117.8068060 139.4224580 125.2860250
 119.2425760 139.0006610 125.5152140 118.0652830 141.0510000 130.0206460
 118.5209780 140.2699380 130.3345080 118.4045350 141.7616820 130.5647640
 122.8129640 129.9808850 140.3530900 122.1973910 130.4888520 139.8246360
 122.4926060 129.0807180 140.2956840 105.8155380 136.8226460 137.1797200
 105.9786420 136.3531820 136.3616570 106.2807830 136.3150020 137.8446040
 110.5874150 125.9532220 132.2157770 110.1442300 126.7341760 131.8842290
 111.1459140 126.2762110 132.9228710 114.8743960 128.8200740 137.8193090
 114.4123330 129.0283760 138.6313030 114.4722070 128.0060090 137.5163760
 119.8748470 130.0409690 138.9489750 119.0242060 129.7415440 139.2698820
 119.7150260 130.2851700 138.0373570 116.9698180 131.5411440 141.0488540
 117.2951590 130.7075190 140.7090770 117.7578510 132.0639960 141.1966870
 113.7032970 125.5742920 127.0963600 113.0787150 125.5702790 127.8216910
 113.6163090 124.7073880 126.6999570 112.6250050 126.4979550 134.0747370
 112.9222380 127.4042380 133.9939390 113.1735610 126.0098330 133.4606940
 110.3788370 131.0765790 129.9439020 110.1529290 130.8602960 130.8485640
 109.5980900 131.5094250 129.5984990 117.6086130 131.0829160 128.5429670
 117.0095020 131.8064960 128.3593290 118.1565740 131.0205940 127.7606120
 112.8187580 131.9751370 140.6099290 112.7231180 131.0346100 140.4599690
 113.6619560 132.1966440 140.2147360 116.2151000 129.7192700 130.5732950
 116.6080570 130.0364900 129.7601640 116.5767850 128.8404580 130.6877470
 107.9498120 128.3865040 138.7633070 107.5561510 129.2340250 138.9705850
 107.2616520 127.7491410 138.9541710 114.5243170 128.4700010 141.8329810
 113.8341490 128.2772210 142.4675900 115.2675470 128.7534650 142.3654110
 105.2515170 126.3093500 132.7963150 104.9628220 126.8796360 133.5088130
 105.9960930 125.8297950 133.1594380 105.4385400 130.2513620 124.0065870
 105.3560070 131.1944380 124.1480860 105.0868460 130.1088530 123.1278220
 116.8006140 132.3098450 134.6683730 116.0687260 132.8185260 135.0173830
 116.4030480 131.4928430 134.3672510 113.2383530 128.9852650 133.0736220
 113.2419590 128.5442600 132.2240760 114.1334650 129.3069980 133.1808040
 109.0885910 128.8679140 132.0330430 108.7485960 129.3454370 132.7897480
 108.3263230 128.4144260 131.6731530 113.3003680 129.9864730 126.0642980
 113.4216500 129.9451210 127.0128800 112.9152190 130.8488880 125.9089710
 117.2632050 127.7632130 134.0806670 117.2804790 128.2140780 134.9248520
 117.0147630 126.8637770 134.2940110 112.3125180 132.2965870 125.4626280
 111.7442080 131.8484120 124.8362190 113.0214180 132.6558650 124.9291430
 120.6902800 125.1764310 139.9193050 121.0148570 124.4453970 140.4451030
 120.7259310 124.8577950 139.0174040 107.3894360 136.1977890 139.3393010
 107.0049150 135.5571560 139.9375970 107.7006550 136.9014010 139.9087740
 113.5391500 133.0454430 134.8201630 113.9061630 132.5713000 135.5662970
 113.3496560 133.9196000 135.1609970 106.4031990 127.7898120 130.9495100
 106.1178910 127.4253790 131.7873720 106.3410850 127.0578580 130.3358240
 111.3290870 132.0863070 137.1385840 111.0247940 132.9655050 137.3636200
 112.2837330 132.1462860 137.1743280 109.8572660 136.2924060 127.7352690
 109.0834920 135.7521680 127.5751410 110.5867290 135.7730670 127.3970450
 120.6160640 135.2889420 133.5279080 121.3359760 135.7844710 133.1375190
 120.4142460 134.6107310 132.8832950 116.0770580 126.6827380 127.6708470
 115.2635190 126.1840550 127.5953780 115.8832530 127.5225630 127.2544820
 115.9979440 135.3598480 139.4148080 115.9316750 134.4394150 139.1605670
 115.3684580 135.4573920 140.1292720 118.7918970 131.0547030 125.9670630
 119.6798590 131.3664260 125.7921970 118.7624060 130.1819280 125.5751210
 109.9010060 135.9604440 131.3731500 110.4188730 135.1572700 131.3188390
 109.4494080 135.8983580 132.2148330 114.7879560 137.2270720 126.6458800
 115.1295260 137.9712950 126.1502120 113.9592270 137.5401840 127.0083630
 107.3854600 132.9265810 138.2857200 107.0269540 133.5919660 138.8730540
 107.0909160 132.0949360 138.6569820 110.5867720 133.3850050 141.1696750
 110.2867860 133.5307230 140.2724570 111.3578960 132.8255340 141.0770140
 115.9296170 138.1819050 139.1651880 115.9440710 137.2500010 138.9470790
 115.2221270 138.2678810 139.8041650 121.0633240 132.3658870 125.4350490
 120.9796960 132.7973090 124.5846930 121.7827430 132.8257220 125.8677310
 122.1407380 134.8226390 138.5120460 121.4155570 135.4155170 138.3149850
 122.6682840 134.8149930 137.7133830 122.0920490 139.2201130 128.1632620
 121.4496650 138.5656750 128.4376340 121.7051150 139.6256220 127.3873290
 117.6706970 136.5486560 132.0104310 118.0230790 135.9514690 131.3505680
 116.7869300 136.2230790 132.1812560 113.7570250 137.3084250 129.4174720
 114.4441380 137.8553460 129.7982310 112.9702670 137.8524980 129.4524330
 105.8962650 132.9257070 124.9091800 106.7657500 133.2081870 125.1927720
 105.4052970 133.7392940 124.7940610 113.0597460 134.3130280 129.0300080
 113.5160240 135.1235530 129.2560270 112.7085670 133.9953420 129.8618570
 115.3630070 139.8236620 136.2592380 116.0072290 140.0296000 136.9365800
 115.7259510 139.0625020 135.8063230 108.9609240 124.6567930 129.5022600
 108.8323870 124.6485830 130.4507520 108.1371260 124.9951020 129.1513610
 116.6362150 137.8268970 134.9769830 117.2784380 137.1262130 135.0902000
 117.1611500 138.6067410 134.7966720 120.4817870 138.1117590 124.7008970
 120.2555450 137.3948030 125.2933610 120.0914070 137.8630030 123.8630720
 118.4099770 138.6263870 138.1805890 118.7456010 139.2130560 138.8583810
 117.4900110 138.4956580 138.4103680 106.2633900 142.1384450 125.4753430
 106.6231540 142.7373790 124.8210700 106.1226240 142.6844340 126.2488460
 105.9603170 126.4159050 138.9629300 105.2461690 126.6155970 139.5681910
 106.3798210 125.6398620 139.3344100 120.0634120 136.0289530 126.3623130
 119.7755820 136.4902220 127.1501010 120.8586290 135.5687300 126.6307350
 106.2475760 140.4039310 139.9495830 106.3566880 139.4634050 139.8091220
 105.5956320 140.6694060 139.3009560 114.2388350 138.6755200 141.3493950
 113.9185220 137.9564440 141.8939640 113.5646710 139.3510270 141.4230010
 112.2802520 139.5215650 126.2927100 112.2712620 140.2545340 125.6771610
 111.3600880 139.2747230 126.3854060 107.8809160 134.7430540 127.0373860
 107.2737110 135.4829440 127.0469160 108.3558510 134.8329900 126.2112060
 117.4541950 128.9081360 136.7130750 117.8222770 128.0876570 137.0410320
 116.5940150 128.9683250 137.1286400 120.8203980 127.8638300 127.5218310
 120.1917140 127.9683970 126.8076540 120.3255900 128.0835080 128.3112190
 115.2662120 139.5843890 124.9552290 115.3674100 139.3807880 124.0254270
 114.3663860 139.3302170 125.1600070 112.7888010 130.1424250 128.9376190
 112.0804160 130.6110590 129.3789800 113.0732490 129.4846260 129.5721380
 114.4143940 131.5620950 136.9368720 114.9129190 132.0366770 137.6020570
 114.5566890 130.6384470 137.1438750 116.8203440 126.8674910 130.3771980
 116.6971220 126.8861040 129.4281490 117.7688000 126.9153850 130.4970380
 113.9080230 142.1030210 129.6499960 114.1621730 142.0651600 128.7279330
 112.9592710 141.9763540 129.6428210 110.9923030 128.4509330 126.3126900
 111.8413560 128.8879480 126.2467090 110.6254300 128.7629590 127.1398960
 121.6210800 127.7788910 137.7797110 121.1184400 128.5194310 138.1190920
 122.4367460 128.1672910 137.4633900 119.9132810 133.0222090 131.2258470
 118.9722950 133.0372320 131.4006160 120.2276880 132.2358050 131.6718770
 109.8914450 134.7041690 124.7862430 110.6577720 134.5923050 125.3487860
 109.9689140 134.0079660 124.1339200 108.5861210 132.1366760 125.4695320
 108.6664800 131.1894270 125.5812720 109.4780960 132.4673640 125.5755980
 121.9158390 140.1930940 132.9012730 122.0405810 141.0162110 133.3736540
 122.7823950 139.9821670 132.5536880 109.3875920 142.2862150 132.5729860
 110.1238400 141.7377610 132.8438430 109.7716840 143.1518160 132.4335850
 106.2721400 138.3535720 128.4471370 105.3461180 138.5956860 128.4376780
 106.7377830 139.1809980 128.3256120 108.3934200 141.4708220 141.7615440
 109.1946930 141.7920270 142.1750840 107.8786020 141.1103800 142.4835350
 112.4978230 141.4592460 124.3955430 113.2906840 141.7481290 123.9437220
 111.9782580 141.0284630 123.7167910 117.2298830 137.5788090 141.7090850
 116.6236990 137.6019690 140.9686600 116.9252940 136.8471130 142.2458100
 118.6599200 141.3068380 140.3200260 119.6120950 141.2226400 140.2700500
 118.5127420 141.9710090 140.9934050 121.5508400 140.6862590 125.8192170
 121.2649910 140.2727730 125.0046350 121.3527950 141.6150300 125.6992690
 106.1132010 133.9581680 140.7051490 106.6171030 133.3788960 141.2767720
 105.3739430 134.2421910 141.2427860 113.0155630 136.6795870 124.2597780
 112.9106270 136.0648220 124.9859160 112.8479850 136.1561760 123.4760790
 113.1669950 135.3652670 140.2387010 112.4015620 135.9337670 140.1541680
 113.3485910 135.0728880 139.3455240 116.2558360 135.7415900 124.8639770
 115.7068460 136.1885200 125.5082510 116.8777620 135.2365150 125.3877440
 120.3093300 137.0958000 140.7962030 121.0502770 137.4333760 140.2929490
 119.5465980 137.2650060 140.2431800 108.1455090 132.1011270 141.6001560
 108.1860430 131.8025140 142.5086790 109.0000590 132.5018880 141.4409080
 111.9233480 134.7006820 126.7605070 112.3449900 134.5346690 127.6036460
 112.0484320 133.8907050 126.2660210 110.0860900 130.6803370 139.5676050
 109.5557360 130.1894320 138.9399390 110.7548970 131.1087570 139.0333980
 114.4361120 133.7244430 124.0082170 114.9566780 133.0093450 123.6423320
 115.0829520 134.3630300 124.3082680 118.9838960 135.1472830 139.3317240
 119.3979980 135.3017910 140.1807660 118.0489960 135.2728050 139.4943020
 119.4561130 132.4868990 141.3356390 120.0381900 131.7321310 141.2476870
 119.6322900 133.0176430 140.5587870 110.5733200 127.6465740 139.6473340
 110.4790070 127.0286490 138.9224210 109.9930590 128.3732030 139.4203250
 113.3394640 126.2038980 136.6800730 112.8911940 126.2263240 135.8346280
 112.7059840 125.8058000 137.2771030 113.7454190 135.0993310 137.3013170
 114.1642300 135.9426040 137.1289410 112.8262820 135.2365350 137.0719950
 116.0818090 132.8309490 138.6851010 116.2014300 132.2350630 139.4245850
 116.9412090 132.8679180 138.2652310 118.4205990 133.3846680 137.2613520
 117.8941210 133.9089300 136.6578660 118.7637330 134.0174070 137.8923250
 110.8192380 130.7740050 123.7063230 110.6181440 129.9107410 124.0676570
 110.6484430 130.6873410 122.7684830 111.5961610 141.4046320 138.4170900
 111.0582700 142.1292380 138.0979600 111.8495570 140.9276660 137.6268240
 112.8486860 129.3730840 139.9426830 113.4386550 129.0646690 140.6304650
 112.0307100 128.9010590 140.0986730 117.6680290 128.9896650 140.1759850
 116.9795810 128.3278190 140.1109840 118.3886310 128.5434920 140.6208310
 118.2980690 125.5848280 126.2350110 118.5782980 124.7416180 126.5909530
 117.5246420 125.8171390 126.7488860 109.6175180 127.8740670 123.6941110
 109.9201080 127.8808100 122.7860260 110.3569770 127.5238530 124.1908770
 114.4523820 142.6397530 138.6757550 114.3782520 143.5432670 138.9829920
 113.5502660 142.3209430 138.6479620 112.8360110 126.8175290 124.6797310
 112.4882110 126.1399280 124.0999760 113.0372880 126.3564800 125.4940700
 115.0009150 141.8056040 126.2983910 115.8959940 142.1441010 126.3202670
 115.0326780 141.0835450 125.6708190 108.6405310 137.1783090 124.5270910
 109.0780180 137.7212760 125.1828490 109.1253040 136.3530040 124.5367250
 105.8551110 139.9672120 131.9791170 106.1854120 139.0993180 131.7469810
 106.2842110 140.1730640 132.8096130 110.4513030 138.2981130 129.6393140
 110.1508570 138.1746100 130.5397050 110.3450520 137.4389720 129.2308870
 106.3441320 140.8342710 134.7172800 105.9072310 141.0143510 135.5496950
 106.9119000 141.5917330 134.5754520 121.9803500 140.3359710 139.0050110
 121.3805490 140.3952270 138.2614030 122.1097400 139.3964690 139.1346960
 123.2204950 138.0777530 124.3419820 122.3897910 138.1454180 124.8127050
 123.3976780 138.9681650 124.0386680 122.6761410 134.8225010 126.8454020
 123.4380320 135.3921660 126.9513710 122.6915780 134.2552210 127.6162330
 106.1765750 133.3462940 131.0761680 105.5214590 133.0774580 130.4321380
 107.0143700 133.2367420 130.6263660 123.6821380 135.6775110 131.6895950
 124.0530210 134.8942430 131.2831920 124.3223310 136.3664210 131.5113250
 120.6655140 137.0611690 137.1026270 119.8514980 137.4908850 137.3652060
 121.0729340 137.6730100 136.4895320 122.7280580 135.1159380 124.0026540
 123.0029420 136.0238260 123.8745760 122.5391320 135.0521910 124.9388530
 119.1256190 128.1404230 125.2980170 119.5441070 127.9535210 124.4576830
 118.8192250 127.2883280 125.6083100 122.6245920 133.0528370 128.9955970
 122.2489520 132.2856300 128.5637260 121.8949040 133.4351070 129.4830900
 107.2141680 133.7315510 135.6165020 107.5814720 133.6442910 136.4961040
 106.6452500 132.9682060 135.5171880 122.0145540 132.1999890 138.6295490
 121.7831630 131.9712640 137.7293440 122.2750090 133.1199440 138.5840380
 106.7657680 130.6424600 139.5223440 105.8713730 130.6091360 139.8617150
 107.3055230 130.8411390 140.2874690 120.4533610 127.4256320 141.4075190
 121.3303790 127.4339720 141.7909190 120.4654450 126.6887160 140.7967540
 105.3903830 130.5561870 127.0187010 104.4867910 130.8192070 126.8438670
 105.8744450 130.8273040 126.2386970 121.8996880 131.2785860 132.2963210
 122.4234360 130.7848510 131.6653380 122.4856300 131.4136220 133.0410780
 122.0786600 131.3625730 135.8182760 121.1289310 131.3289270 135.9327750
 122.2599610 132.2725840 135.5832530 107.9331040 129.6127410 124.9281390
 108.6422740 129.1910630 124.4428670 107.2170980 129.6802640 124.2964740
 107.5805200 125.6666740 123.9684040 108.3033330 126.2075680 124.2865260
 107.8529720 125.3930160 123.0925580 121.3896850 130.5359210 128.2355620
 121.8855970 130.3030080 129.0204500 121.1912920 129.6971050 127.8193260
 107.2697390 124.9172930 133.8706660 107.9173580 124.3670310 133.4301820
 107.6899230 125.1716080 134.6922470 122.8184010 129.1720160 130.7693300
 122.7083290 129.0176200 131.7075570 123.5791600 128.6441100 130.5268710
 121.1649730 125.1114290 137.2276300 121.8021950 125.7248430 137.5935490
 121.3124620 125.1474950 136.2825530 123.7074280 127.0028080 124.0099440
 124.6323590 126.8709260 123.8017730 123.6850070 127.0820900 124.9635890
 123.7812770 127.7738740 126.6356150 122.9864270 127.7083860 127.1649060
 123.9856050 128.7089380 126.6241500 120.7231190 141.8130290 130.6294540
 121.3190260 141.4914860 129.9528960 120.9809340 141.3402110 131.4207810
 107.0229390 125.0728600 136.6131980 106.6744210 125.5292420 137.3790160
 106.6917090 124.1785730 136.6954410 108.6293760 138.2448200 140.7785170
 108.5863390 137.8741110 141.6599630 108.7604770 139.1825770 140.9186990
 112.3299790 139.8007790 136.3794890 112.0891150 140.0682350 135.4925410
 113.2702430 139.9713520 136.4345750 114.5354210 126.2640480 140.1351400
 114.4743100 126.8562310 140.8846810 115.4754590 126.1566440 139.9901660
 117.1728770 125.9210540 139.7743690 117.7869180 126.2389830 139.1124770
 117.7178330 125.4359130 140.3939550 123.5903950 141.8202170 137.1805530
 123.0962230 142.2171040 136.4632660 122.9817240 141.1951380 137.5742810
 107.6950030 124.6004800 139.8882750 108.2433020 124.4192850 139.1248860
 107.7605340 123.8098910 140.4239060 108.4681790 141.1910450 137.8982950
 107.8742110 141.0595150 138.6372990 108.4605630 140.3548590 137.4325050
 117.9136810 124.4842680 136.1012980 117.0396650 124.8177790 135.8985910
 117.8047560 124.0115860 136.9264850 118.8208790 126.6913550 137.4854700
 118.4922150 125.8765310 137.1056430 119.7691090 126.6483360 137.3620390
 121.2743400 142.4625590 134.4592270 120.8146370 143.2141400 134.0850290
 120.6455860 141.7432060 134.4007070 108.0994020 138.5568830 136.8490990
 107.3728080 137.9374120 136.7816940 108.1603170 138.9509440 135.9789070
 111.7039120 140.7713830 133.6340400 112.2204140 140.1601190 133.1088660
 112.3536500 141.2742610 134.1251410 114.4434620 141.6622320 134.4609380
 114.7312430 141.4076620 133.5842390 114.9557840 141.1099680 135.0514950
 115.6611630 125.4012520 135.0405890 114.8783420 125.8758020 135.3202650
 115.3674560 124.4967350 134.9319070 120.2132700 126.1035620 133.0854980
 120.6540790 126.0480720 132.2376580 119.9440290 127.0193630 133.1565160
 122.0771270 125.7350860 131.0963800 122.0159670 124.7912080 130.9494820
 122.8563300 125.8430950 131.6417260 106.3824020 141.8743220 130.0587750
 106.2146060 141.2413900 130.7569640 105.5158530 142.0802620 129.7081940
 107.0052040 125.7060000 127.5619610 107.7631400 125.8188880 126.9883640
 106.5429210 126.5429200 127.5163040 113.5465850 127.8199270 130.5521920
 112.7340360 127.4456160 130.2117800 114.0507490 127.0644350 130.8543110
 118.0490830 124.4841720 131.7904990 118.6520200 125.0561930 132.2653510
 117.3083820 125.0481160 131.5678890 121.1925430 124.8863280 127.0645270
 121.3876060 125.7846730 127.3312700 120.4055300 124.6550360 127.5578220
 107.9886720 140.5676450 127.5037890 107.4634340 140.9484480 126.7999850
 107.9131300 141.1927220 128.2247600 109.3777190 126.2324050 126.1021580
 109.9069950 125.4453850 125.9729530 110.0105510 126.9115240 126.3357110
 111.5715030 125.9699190 129.1566970 110.9417770 125.2686500 129.3237100
 111.0320170 126.7303320 128.9400130 114.5106980 142.5838420 141.8277580
 115.4374290 142.3482690 141.8713540 114.4957410 143.4110420 141.3463610
 122.7452040 142.1263990 128.8251830 122.9204230 141.4401730 128.1812750
 122.0473610 142.6511040 128.4328500 111.6970590 125.2483170 141.5919460
 111.4154860 125.7516770 140.8280280 112.0790290 124.4504920 141.2261590
 110.5879690 142.5158830 126.3787140 111.3198510 142.2318110 125.8311030
 110.8473360 142.2772110 127.2686520 109.7494480 138.6323560 126.3833470
 109.1203360 139.1008660 126.9319300 109.8642310 137.7872780 126.8179660
 118.2986050 124.6636750 142.1699930 118.1851500 124.9831360 143.0651450
 119.1155790 125.0649260 141.8737210 121.0784540 141.8108280 141.6518620
 121.8709860 141.3157510 141.4444580 121.3717690 142.4898420 142.2594230
 117.2044200 132.6829220 112.5334670 117.1238250 131.7683830 112.2626380
 116.7908620 133.1796290 111.8274380 115.3362240 134.4608240 114.4143940
 114.5604340 133.9808680 114.7042510 115.9875170 133.7813890 114.2400100
 109.3528070 134.7728050 115.2919700 108.5212950 134.5176760 115.6916210
 109.9609050 134.8438820 116.0277620 119.3569670 138.8668430 113.1943070
 118.8951200 138.0955670 113.5230240 120.1695220 138.8934500 113.6995520
 109.3329330 138.8068140 115.4877720 109.6357370 137.9165880 115.3087940
 110.0772920 139.3638360 115.2599970 107.7620020 129.7329940 109.0762090
 106.8736720 130.0745910 108.9741970 108.0461210 129.5330260 108.1842920
 105.7253030 132.3335590 114.9601790 106.2969140 131.5657790 114.9605430
 105.7254570 132.6324350 114.0508400 115.5832980 141.1526440 112.8147060
 114.9644420 141.6083940 112.2441500 116.4384760 141.3077900 112.4136760
 114.7771230 137.1365430 114.4214100 114.7079510 136.1955370 114.2603230
 115.5391090 137.2266840 114.9936670 106.9677900 127.7419950 116.7470720
 106.7880740 126.8445700 117.0273480 106.5657980 128.2891820 117.4217670
 115.8076400 129.9435810 114.6483030 116.1841220 129.0707690 114.5356700
 115.7095910 130.2794510 113.7573470 109.9381410 128.3161440 110.1100470
 110.0448160 129.2165170 110.4169230 109.0273770 128.2679410 109.8195120
 119.5900520 127.4386250 111.5811370 120.4110140 126.9482820 111.6236850
 119.6234600 128.0283910 112.3343210 107.5864570 130.2380450 115.3553060
 108.2674680 130.5018820 115.9740460 107.2712620 129.3981320 115.6891070
 111.7789140 131.2847810 114.4425650 112.2867360 131.7828780 115.0830670
 112.3102380 130.5083010 114.2665010 123.8800070 129.4553000 118.1455000
 123.1752240 129.8434710 117.6270110 124.1457990 130.1503290 118.7475930
 110.0625240 125.9246370 118.7089070 110.0643680 126.4418760 117.9034970
 109.2329550 125.4476550 118.6859000 116.4496330 136.0365680 110.2078970
 115.8313600 136.5015130 109.6441690 116.9619580 136.7293160 110.6248480
 111.3128090 135.5641550 116.8862570 110.9797470 136.1910470 117.5283640
 111.4894770 136.0903430 116.1064240 119.8262000 129.3786630 114.3538910
 119.1217570 129.6671520 114.9342020 120.1874160 130.1886740 113.9938470
 109.7440570 127.6356330 116.7159520 110.0857380 128.4798380 116.4213390
 108.8056380 127.7840070 116.8324860 110.5247190 137.5322350 118.7011750
 111.1421190 138.2073430 118.4196200 109.6640310 137.9410330 118.6099250
 105.8179530 136.7222210 107.5818600 105.4407510 137.2109310 106.8503500
 106.0752600 137.3947490 108.2125130 121.4424780 138.9961760 116.6166390
 120.7588300 139.6660870 116.6083060 121.9819070 139.1942410 115.8511250
 122.8948920 128.8241420 114.7448120 121.9473830 128.8580400 114.8763550
 123.2198910 129.6380370 115.1297480 113.4268460 125.1238600 113.0404110
 113.7343440 124.5685490 112.3239610 112.4969160 125.2583060 112.8577100
 118.9783520 140.8405890 115.3311570 118.9910680 140.4368180 114.4633830
 118.4258740 141.6153180 115.2273000 120.2728940 137.5622110 110.4201740
 120.1625270 136.6196440 110.5451160 120.2697190 137.9237750 111.3064500
 118.3768960 135.7435730 116.6594180 118.7937750 135.5295840 115.8247640
 119.1008780 136.0008520 117.2302800 115.8149220 133.1887430 109.7764230
 114.8878500 133.1224810 110.0052700 115.9674040 134.1267560 109.6619470
 115.8018300 129.4604430 106.7731390 114.8621970 129.6218390 106.8583850
 116.1201560 130.1790110 106.2267380 122.3231060 134.1422950 116.7510420
 121.4949690 134.2116040 116.2760550 122.9181540 134.7277260 116.2826250
 119.8446510 134.7507730 110.2799480 119.2258930 134.4127280 109.6325780
 119.8270960 134.1067490 110.9878670 119.2873070 130.9292270 117.6965290
 118.8744250 131.7545980 117.9505280 118.5549020 130.3437310 117.5041650
 111.4205860 133.7152170 112.5583960 111.0162860 133.0029420 112.0629860
 111.5068980 133.3705410 113.4472000 111.8887560 137.4019730 114.7223170
 111.5915850 136.7965200 114.0430950 112.8387380 137.4397040 114.6112530
 110.1334480 130.4895380 116.3383000 110.6849070 130.5990720 115.5636250
 110.6477990 130.8632980 117.0538230 119.9773170 140.9751600 118.3846270
 119.5003730 141.7823790 118.1918880 119.2934960 140.3229930 118.5372480
 110.9805990 137.1401420 121.3730970 110.0834520 137.3641390 121.6204370
 111.0058860 137.2636360 120.4242370 118.0211210 133.9894540 107.2872230
 118.4604490 133.1516970 107.1410050 118.7339630 134.6223940 107.3736370
 109.8077210 134.0114740 119.9488340 109.6684980 134.8837540 120.3175740
 108.9258570 133.6687550 119.8036280 116.1306590 138.9290610 111.2553470
 116.5702500 139.6714940 110.8408860 116.0693480 139.1717180 112.1792430
 111.6057560 139.9536440 122.1573490 111.5772990 140.3579390 121.2901920
 111.4422530 139.0246800 121.9945090 121.6028350 125.2437350 105.6013270
 121.2901010 125.3364180 106.5012340 122.3640820 125.8218380 105.5510700
 108.1210490 132.6097150 110.0590610 108.0008090 133.3359240 109.4471880
 107.8111380 131.8400060 109.5818520 123.5572380 140.7363540 123.4537660
 124.0332100 141.2146430 124.1326740 124.1779540 140.6681030 122.7283160
 105.7595860 135.7812290 115.8659250 105.8376280 135.9161060 114.9214970
 106.3737540 135.0728180 116.0587370 107.0043490 137.4812480 112.2765430
 106.5971570 137.6227070 111.4219030 107.8956500 137.1972640 112.0736640
 122.9605630 137.9276390 120.6137670 123.0868690 137.6888270 119.6954850
 123.0027010 137.0960930 121.0859750 116.8222370 141.6304390 119.1832480
 117.3367040 141.5412400 119.9854910 115.9791450 141.9764090 119.4760390
 118.7976770 141.9159730 108.6116480 118.6377910 141.6262670 109.5098310
 118.6323480 141.1399860 108.0761710 111.2765150 141.6958260 110.3888100
 111.1007630 140.7793800 110.1755900 110.4220890 142.0545550 110.6285900
 118.5002900 139.4247290 107.1714480 117.8068060 139.4224580 106.5116760
 119.2425760 139.0006610 106.7408650 118.0652830 141.0510000 111.2462970
 118.5209780 140.2699380 111.5601590 118.4045350 141.7616820 111.7904150
 122.8129640 129.9808850 121.5787410 122.1973910 130.4888520 121.0502870
 122.4926060 129.0807180 121.5213350 105.8155380 136.8226460 118.4053710
 105.9786420 136.3531820 117.5873080 106.2807830 136.3150020 119.0702550
 110.5874150 125.9532220 113.4414280 110.1442300 126.7341760 113.1098800
 111.1459140 126.2762110 114.1485220 114.8743960 128.8200740 119.0449600
 114.4123330 129.0283760 119.8569540 114.4722070 128.0060090 118.7420270
 119.8748470 130.0409690 120.1746260 119.0242060 129.7415440 120.4955330
 119.7150260 130.2851700 119.2630080 116.9698180 131.5411440 122.2745050
 117.2951590 130.7075190 121.9347280 117.7578510 132.0639960 122.4223380
 113.7032970 125.5742920 108.3220110 113.0787150 125.5702790 109.0473420
 113.6163090 124.7073880 107.9256080 112.6250050 126.4979550 115.3003880
 112.9222380 127.4042380 115.2195900 113.1735610 126.0098330 114.6863450
 110.3788370 131.0765790 111.1695530 110.1529290 130.8602960 112.0742150
 109.5980900 131.5094250 110.8241500 117.6086130 131.0829160 109.7686180
 117.0095020 131.8064960 109.5849800 118.1565740 131.0205940 108.9862630
 112.8187580 131.9751370 121.8355800 112.7231180 131.0346100 121.6856200
 113.6619560 132.1966440 121.4403870 116.2151000 129.7192700 111.7989460
 116.6080570 130.0364900 110.9858150 116.5767850 128.8404580 111.9133980
 107.9498120 128.3865040 119.9889580 107.5561510 129.2340250 120.1962360
 107.2616520 127.7491410 120.1798220 114.5243170 128.4700010 123.0586320
 113.8341490 128.2772210 123.6932410 115.2675470 128.7534650 123.5910620
 105.2515170 126.3093500 114.0219660 104.9628220 126.8796360 114.7344640
 105.9960930 125.8297950 114.3850890 105.4385400 130.2513620 105.2322380
 105.3560070 131.1944380 105.3737370 105.0868460 130.1088530 104.3534730
 116.8006140 132.3098450 115.8940240 116.0687260 132.8185260 116.2430340
 116.4030480 131.4928430 115.5929020 113.2383530 128.9852650 114.2992730
 113.2419590 128.5442600 113.4497270 114.1334650 129.3069980 114.4064550
 109.0885910 128.8679140 113.2586940 108.7485960 129.3454370 114.0153990
 108.3263230 128.4144260 112.8988040 113.3003680 129.9864730 107.2899490
 113.4216500 129.9451210 108.2385310 112.9152190 130.8488880 107.1346220
 117.2632050 127.7632130 115.3063180 117.2804790 128.2140780 116.1505030
 117.0147630 126.8637770 115.5196620 112.3125180 132.2965870 106.6882790
 111.7442080 131.8484120 106.0618700 113.0214180 132.6558650 106.1547940
 120.6902800 125.1764310 121.1449560 121.0148570 124.4453970 121.6707540
 120.7259310 124.8577950 120.2430550 107.3894360 136.1977890 120.5649520
 107.0049150 135.5571560 121.1632480 107.7006550 136.9014010 121.1344250
 113.5391500 133.0454430 116.0458140 113.9061630 132.5713000 116.7919480
 113.3496560 133.9196000 116.3866480 106.4031990 127.7898120 112.1751610
 106.1178910 127.4253790 113.0130230 106.3410850 127.0578580 111.5614750
 111.3290870 132.0863070 118.3642350 111.0247940 132.9655050 118.5892710
 112.2837330 132.1462860 118.3999790 109.8572660 136.2924060 108.9609200
 109.0834920 135.7521680 108.8007920 110.5867290 135.7730670 108.6226960
 120.6160640 135.2889420 114.7535590 121.3359760 135.7844710 114.3631700
 120.4142460 134.6107310 114.1089460 116.0770580 126.6827380 108.8964980
 115.2635190 126.1840550 108.8210290 115.8832530 127.5225630 108.4801330
 115.9979440 135.3598480 120.6404590 115.9316750 134.4394150 120.3862180
 115.3684580 135.4573920 121.3549230 118.7918970 131.0547030 107.1927140
 119.6798590 131.3664260 107.0178480 118.7624060 130.1819280 106.8007720
 109.9010060 135.9604440 112.5988010 110.4188730 135.1572700 112.5444900
 109.4494080 135.8983580 113.4404840 114.7879560 137.2270720 107.8715310
 115.1295260 137.9712950 107.3758630 113.9592270 137.5401840 108.2340140
 107.3854600 132.9265810 119.5113710 107.0269540 133.5919660 120.0987050
 107.0909160 132.0949360 119.8826330 110.5867720 133.3850050 122.3953260
 110.2867860 133.5307230 121.4981080 111.3578960 132.8255340 122.3026650
 115.9296170 138.1819050 120.3908390 115.9440710 137.2500010 120.1727300
 115.2221270 138.2678810 121.0298160 121.0633240 132.3658870 106.6607000
 120.9796960 132.7973090 105.8103440 121.7827430 132.8257220 107.0933820
 122.1407380 134.8226390 119.7376970 121.4155570 135.4155170 119.5406360
 122.6682840 134.8149930 118.9390340 122.0920490 139.2201130 109.3889130
 121.4496650 138.5656750 109.6632850 121.7051150 139.6256220 108.6129800
 117.6706970 136.5486560 113.2360820 118.0230790 135.9514690 112.5762190
 116.7869300 136.2230790 113.4069070 113.7570250 137.3084250 110.6431230
 114.4441380 137.8553460 111.0238820 112.9702670 137.8524980 110.6780840
 105.8962650 132.9257070 106.1348310 106.7657500 133.2081870 106.4184230
 105.4052970 133.7392940 106.0197120 113.0597460 134.3130280 110.2556590
 113.5160240 135.1235530 110.4816780 112.7085670 133.9953420 111.0875080
 115.3630070 139.8236620 117.4848890 116.0072290 140.0296000 118.1622310
 115.7259510 139.0625020 117.0319740 116.6362150 137.8268970 116.2026340
 117.2784380 137.1262130 116.3158510 117.1611500 138.6067410 116.0223230
 120.4817870 138.1117590 105.9265480 120.2555450 137.3948030 106.5190120
 120.0914070 137.8630030 105.0887230 118.4099770 138.6263870 119.4062400
 118.7456010 139.2130560 120.0840320 117.4900110 138.4956580 119.6360190
 106.2633900 142.1384450 106.7009940 106.6231540 142.7373790 106.0467210
 106.1226240 142.6844340 107.4744970 105.9603170 126.4159050 120.1885810
 105.2461690 126.6155970 120.7938420 106.3798210 125.6398620 120.5600610
 120.0634120 136.0289530 107.5879640 119.7755820 136.4902220 108.3757520
 120.8586290 135.5687300 107.8563860 106.2475760 140.4039310 121.1752340
 106.3566880 139.4634050 121.0347730 105.5956320 140.6694060 120.5266070
 114.2388350 138.6755200 122.5750460 113.9185220 137.9564440 123.1196150
 113.5646710 139.3510270 122.6486520 112.2802520 139.5215650 107.5183610
 112.2712620 140.2545340 106.9028120 111.3600880 139.2747230 107.6110570
 107.8809160 134.7430540 108.2630370 107.2737110 135.4829440 108.2725670
 108.3558510 134.8329900 107.4368570 117.4541950 128.9081360 117.9387260
 117.8222770 128.0876570 118.2666830 116.5940150 128.9683250 118.3542910
 120.8203980 127.8638300 108.7474820 120.1917140 127.9683970 108.0333050
 120.3255900 128.0835080 109.5368700 115.2662120 139.5843890 106.1808800
 115.3674100 139.3807880 105.2510780 114.3663860 139.3302170 106.3856580
 112.7888010 130.1424250 110.1632700 112.0804160 130.6110590 110.6046310
 113.0732490 129.4846260 110.7977890 114.4143940 131.5620950 118.1625230
 114.9129190 132.0366770 118.8277080 114.5566890 130.6384470 118.3695260
 116.8203440 126.8674910 111.6028490 116.6971220 126.8861040 110.6538000
 117.7688000 126.9153850 111.7226890 113.9080230 142.1030210 110.8756470
 114.1621730 142.0651600 109.9535840 112.9592710 141.9763540 110.8684720
 110.9923030 128.4509330 107.5383410 111.8413560 128.8879480 107.4723600
 110.6254300 128.7629590 108.3655470 121.6210800 127.7788910 119.0053620
 121.1184400 128.5194310 119.3447430 122.4367460 128.1672910 118.6890410
 119.9132810 133.0222090 112.4514980 118.9722950 133.0372320 112.6262670
 120.2276880 132.2358050 112.8975280 109.8914450 134.7041690 106.0118940
 110.6577720 134.5923050 106.5744370 109.9689140 134.0079660 105.3595710
 108.5861210 132.1366760 106.6951830 108.6664800 131.1894270 106.8069230
 109.4780960 132.4673640 106.8012490 121.9158390 140.1930940 114.1269240
 122.0405810 141.0162110 114.5993050 122.7823950 139.9821670 113.7793390
 109.3875920 142.2862150 113.7986370 110.1238400 141.7377610 114.0694940
 109.7716840 143.1518160 113.6592360 106.2721400 138.3535720 109.6727880
 105.3461180 138.5956860 109.6633290 106.7377830 139.1809980 109.5512630
 108.3934200 141.4708220 122.9871950 109.1946930 141.7920270 123.4007350
 107.8786020 141.1103800 123.7091860 112.4978230 141.4592460 105.6211940
 113.2906840 141.7481290 105.1693730 111.9782580 141.0284630 104.9424420
 117.2298830 137.5788090 122.9347360 116.6236990 137.6019690 122.1943110
 116.9252940 136.8471130 123.4714610 118.6599200 141.3068380 121.5456770
 119.6120950 141.2226400 121.4957010 118.5127420 141.9710090 122.2190560
 121.5508400 140.6862590 107.0448680 121.2649910 140.2727730 106.2302860
 121.3527950 141.6150300 106.9249200 106.1132010 133.9581680 121.9308000
 106.6171030 133.3788960 122.5024230 105.3739430 134.2421910 122.4684370
 113.0155630 136.6795870 105.4854290 112.9106270 136.0648220 106.2115670
 112.8479850 136.1561760 104.7017300 113.1669950 135.3652670 121.4643520
 112.4015620 135.9337670 121.3798190 113.3485910 135.0728880 120.5711750
 116.2558360 135.7415900 106.0896280 115.7068460 136.1885200 106.7339020
 116.8777620 135.2365150 106.6133950 120.3093300 137.0958000 122.0218540
 121.0502770 137.4333760 121.5186000 119.5465980 137.2650060 121.4688310
 108.1455090 132.1011270 122.8258070 108.1860430 131.8025140 123.7343300
 109.0000590 132.5018880 122.6665590 111.9233480 134.7006820 107.9861580
 112.3449900 134.5346690 108.8292970 112.0484320 133.8907050 107.4916720
 110.0860900 130.6803370 120.7932560 109.5557360 130.1894320 120.1655900
 110.7548970 131.1087570 120.2590490 114.4361120 133.7244430 105.2338680
 114.9566780 133.0093450 104.8679830 115.0829520 134.3630300 105.5339190
 118.9838960 135.1472830 120.5573750 119.3979980 135.3017910 121.4064170
 118.0489960 135.2728050 120.7199530 119.4561130 132.4868990 122.5612900
 120.0381900 131.7321310 122.4733380 119.6322900 133.0176430 121.7844380
 110.5733200 127.6465740 120.8729850 110.4790070 127.0286490 120.1480720
 109.9930590 128.3732030 120.6459760 113.3394640 126.2038980 117.9057240
 112.8911940 126.2263240 117.0602790 112.7059840 125.8058000 118.5027540
 113.7454190 135.0993310 118.5269680 114.1642300 135.9426040 118.3545920
 112.8262820 135.2365350 118.2976460 116.0818090 132.8309490 119.9107520
 116.2014300 132.2350630 120.6502360 116.9412090 132.8679180 119.4908820
 118.4205990 133.3846680 118.4870030 117.8941210 133.9089300 117.8835170
 118.7637330 134.0174070 119.1179760 110.8192380 130.7740050 104.9319740
 110.6181440 129.9107410 105.2933080 110.6484430 130.6873410 103.9941340
 111.5961610 141.4046320 119.6427410 111.0582700 142.1292380 119.3236110
 111.8495570 140.9276660 118.8524750 112.8486860 129.3730840 121.1683340
 113.4386550 129.0646690 121.8561160 112.0307100 128.9010590 121.3243240
 117.6680290 128.9896650 121.4016360 116.9795810 128.3278190 121.3366350
 118.3886310 128.5434920 121.8464820 118.2980690 125.5848280 107.4606620
 118.5782980 124.7416180 107.8166040 117.5246420 125.8171390 107.9745370
 109.6175180 127.8740670 104.9197620 109.9201080 127.8808100 104.0116770
 110.3569770 127.5238530 105.4165280 114.4523820 142.6397530 119.9014060
 114.3782520 143.5432670 120.2086430 113.5502660 142.3209430 119.8736130
 112.8360110 126.8175290 105.9053820 112.4882110 126.1399280 105.3256270
 113.0372880 126.3564800 106.7197210 115.0009150 141.8056040 107.5240420
 115.8959940 142.1441010 107.5459180 115.0326780 141.0835450 106.8964700
 108.6405310 137.1783090 105.7527420 109.0780180 137.7212760 106.4085000
 109.1253040 136.3530040 105.7623760 105.8551110 139.9672120 113.2047680
 106.1854120 139.0993180 112.9726320 106.2842110 140.1730640 114.0352640
 110.4513030 138.2981130 110.8649650 110.1508570 138.1746100 111.7653560
 110.3450520 137.4389720 110.4565380 106.3441320 140.8342710 115.9429310
 105.9072310 141.0143510 116.7753460 106.9119000 141.5917330 115.8011030
 121.9803500 140.3359710 120.2306620 121.3805490 140.3952270 119.4870540
 122.1097400 139.3964690 120.3603470 123.2204950 138.0777530 105.5676330
 122.3897910 138.1454180 106.0383560 123.3976780 138.9681650 105.2643190
 122.6761410 134.8225010 108.0710530 123.4380320 135.3921660 108.1770220
 122.6915780 134.2552210 108.8418840 106.1765750 133.3462940 112.3018190
 105.5214590 133.0774580 111.6577890 107.0143700 133.2367420 111.8520170
 123.6821380 135.6775110 112.9152460 124.0530210 134.8942430 112.5088430
 124.3223310 136.3664210 112.7369760 120.6655140 137.0611690 118.3282780
 119.8514980 137.4908850 118.5908570 121.0729340 137.6730100 117.7151830
 122.7280580 135.1159380 105.2283050 123.0029420 136.0238260 105.1002270
 122.5391320 135.0521910 106.1645040 119.1256190 128.1404230 106.5236680
 119.5441070 127.9535210 105.6833340 118.8192250 127.2883280 106.8339610
 122.6245920 133.0528370 110.2212480 122.2489520 132.2856300 109.7893770
 121.8949040 133.4351070 110.7087410 107.2141680 133.7315510 116.8421530
 107.5814720 133.6442910 117.7217550 106.6452500 132.9682060 116.7428390
 122.0145540 132.1999890 119.8552000 121.7831630 131.9712640 118.9549950
 122.2750090 133.1199440 119.8096890 106.7657680 130.6424600 120.7479950
 105.8713730 130.6091360 121.0873660 107.3055230 130.8411390 121.5131200
 120.4533610 127.4256320 122.6331700 121.3303790 127.4339720 123.0165700
 120.4654450 126.6887160 122.0224050 105.3903830 130.5561870 108.2443520
 104.4867910 130.8192070 108.0695180 105.8744450 130.8273040 107.4643480
 121.8996880 131.2785860 113.5219720 122.4234360 130.7848510 112.8909890
 122.4856300 131.4136220 114.2667290 122.0786600 131.3625730 117.0439270
 121.1289310 131.3289270 117.1584260 122.2599610 132.2725840 116.8089040
 107.9331040 129.6127410 106.1537900 108.6422740 129.1910630 105.6685180
 107.2170980 129.6802640 105.5221250 107.5805200 125.6666740 105.1940550
 108.3033330 126.2075680 105.5121770 107.8529720 125.3930160 104.3182090
 121.3896850 130.5359210 109.4612130 121.8855970 130.3030080 110.2461010
 121.1912920 129.6971050 109.0449770 107.2697390 124.9172930 115.0963170
 107.9173580 124.3670310 114.6558330 107.6899230 125.1716080 115.9178980
 122.8184010 129.1720160 111.9949810 122.7083290 129.0176200 112.9332080
 123.5791600 128.6441100 111.7525220 121.1649730 125.1114290 118.4532810
 121.8021950 125.7248430 118.8192000 121.3124620 125.1474950 117.5082040
 123.7074280 127.0028080 105.2355950 124.6323590 126.8709260 105.0274240
 123.6850070 127.0820900 106.1892400 123.7812770 127.7738740 107.8612660
 122.9864270 127.7083860 108.3905570 123.9856050 128.7089380 107.8498010
 120.7231190 141.8130290 111.8551050 121.3190260 141.4914860 111.1785470
 120.9809340 141.3402110 112.6464320 107.0229390 125.0728600 117.8388490
 106.6744210 125.5292420 118.6046670 106.6917090 124.1785730 117.9210920
 108.6293760 138.2448200 122.0041680 108.5863390 137.8741110 122.8856140
 108.7604770 139.1825770 122.1443500 112.3299790 139.8007790 117.6051400
 112.0891150 140.0682350 116.7181920 113.2702430 139.9713520 117.6602260
 114.5354210 126.2640480 121.3607910 114.4743100 126.8562310 122.1103320
 115.4754590 126.1566440 121.2158170 117.1728770 125.9210540 121.0000200
 117.7869180 126.2389830 120.3381280 117.7178330 125.4359130 121.6196060
 123.5903950 141.8202170 118.4062040 123.0962230 142.2171040 117.6889170
 122.9817240 141.1951380 118.7999320 107.6950030 124.6004800 121.1139260
 108.2433020 124.4192850 120.3505370 107.7605340 123.8098910 121.6495570
 108.4681790 141.1910450 119.1239460 107.8742110 141.0595150 119.8629500
 108.4605630 140.3548590 118.6581560 117.9136810 124.4842680 117.3269490
 117.0396650 124.8177790 117.1242420 117.8047560 124.0115860 118.1521360
 118.8208790 126.6913550 118.7111210 118.4922150 125.8765310 118.3312940
 119.7691090 126.6483360 118.5876900 121.2743400 142.4625590 115.6848780
 120.8146370 143.2141400 115.3106800 120.6455860 141.7432060 115.6263580
 108.0994020 138.5568830 118.0747500 107.3728080 137.9374120 118.0073450
 108.1603170 138.9509440 117.2045580 111.7039120 140.7713830 114.8596910
 112.2204140 140.1601190 114.3345170 112.3536500 141.2742610 115.3507920
 114.4434620 141.6622320 115.6865890 114.7312430 141.4076620 114.8098900
 114.9557840 141.1099680 116.2771460 115.6611630 125.4012520 116.2662400
 114.8783420 125.8758020 116.5459160 115.3674560 124.4967350 116.1575580
 120.2132700 126.1035620 114.3111490 120.6540790 126.0480720 113.4633090
 119.9440290 127.0193630 114.3821670 122.0771270 125.7350860 112.3220310
 122.0159670 124.7912080 112.1751330 122.8563300 125.8430950 112.8673770
 106.3824020 141.8743220 111.2844260 106.2146060 141.2413900 111.9826150
 105.5158530 142.0802620 110.9338450 107.0052040 125.7060000 108.7876120
 107.7631400 125.8188880 108.2140150 106.5429210 126.5429200 108.7419550
 113.5465850 127.8199270 111.7778430 112.7340360 127.4456160 111.4374310
 114.0507490 127.0644350 112.0799620 118.0490830 124.4841720 113.0161500
 118.6520200 125.0561930 113.4910020 117.3083820 125.0481160 112.7935400
 121.1925430 124.8863280 108.2901780 121.3876060 125.7846730 108.5569210
 120.4055300 124.6550360 108.7834730 107.9886720 140.5676450 108.7294400
 107.4634340 140.9484480 108.0256360 107.9131300 141.1927220 109.4504110
 109.3777190 126.2324050 107.3278090 109.9069950 125.4453850 107.1986040
 110.0105510 126.9115240 107.5613620 111.5715030 125.9699190 110.3823480
 110.9417770 125.2686500 110.5493610 111.0320170 126.7303320 110.1656640
 114.5106980 142.5838420 123.0534090 115.4374290 142.3482690 123.0970050
 114.4957410 143.4110420 122.5720120 122.7452040 142.1263990 110.0508340
 122.9204230 141.4401730 109.4069260 122.0473610 142.6511040 109.6585010
 111.6970590 125.2483170 122.8175970 111.4154860 125.7516770 122.0536790
 112.0790290 124.4504920 122.4518100 110.5879690 142.5158830 107.6043650
 111.3198510 142.2318110 107.0567540 110.8473360 142.2772110 108.4943030
 109.7494480 138.6323560 107.6089980 109.1203360 139.1008660 108.1575810
 109.8642310 137.7872780 108.0436170 118.2986050 124.6636750 123.3956440
 118.1851500 124.9831360 124.2907960 119.1155790 125.0649260 123.0993720
 121.0784540 141.8108280 122.8775130 121.8709860 141.3157510 122.6701090
 121.3717690 142.4898420 123.4850740 117.2044200 132.6829220  93.7591180
 117.1238250 131.7683830  93.4882890 116.7908620 133.1796290  93.0530890
 115.3362240 134.4608240  95.6400450 114.5604340 133.9808680  95.9299020
 115.9875170 133.7813890  95.4656610 109.3528070 134.7728050  96.5176210
 108.5212950 134.5176760  96.9172720 109.9609050 134.8438820  97.2534130
 119.3569670 138.8668430  94.4199580 118.8951200 138.0955670  94.7486750
 120.1695220 138.8934500  94.9252030 109.3329330 138.8068140  96.7134230
 109.6357370 137.9165880  96.5344450 110.0772920 139.3638360  96.4856480
 107.7620020 129.7329940  90.3018600 106.8736720 130.0745910  90.1998480
 108.0461210 129.5330260  89.4099430 105.7253030 132.3335590  96.1858300
 106.2969140 131.5657790  96.1861940 105.7254570 132.6324350  95.2764910
 115.5832980 141.1526440  94.0403570 114.9644420 141.6083940  93.4698010
 116.4384760 141.3077900  93.6393270 114.7771230 137.1365430  95.6470610
 114.7079510 136.1955370  95.4859740 115.5391090 137.2266840  96.2193180
 106.9677900 127.7419950  97.9727230 106.7880740 126.8445700  98.2529990
 106.5657980 128.2891820  98.6474180 115.8076400 129.9435810  95.8739540
 116.1841220 129.0707690  95.7613210 115.7095910 130.2794510  94.9829980
 119.5900520 127.4386250  92.8067880 120.4110140 126.9482820  92.8493360
 119.6234600 128.0283910  93.5599720 107.5864570 130.2380450  96.5809570
 108.2674680 130.5018820  97.1996970 107.2712620 129.3981320  96.9147580
 111.7789140 131.2847810  95.6682160 112.2867360 131.7828780  96.3087180
 112.3102380 130.5083010  95.4921520 123.8800070 129.4553000  99.3711510
 123.1752240 129.8434710  98.8526620 124.1457990 130.1503290  99.9732440
 110.0625240 125.9246370  99.9345580 110.0643680 126.4418760  99.1291480
 109.2329550 125.4476550  99.9115510 116.4496330 136.0365680  91.4335480
 115.8313600 136.5015130  90.8698200 116.9619580 136.7293160  91.8504990
 111.3128090 135.5641550  98.1119080 110.9797470 136.1910470  98.7540150
 111.4894770 136.0903430  97.3320750 119.8262000 129.3786630  95.5795420
 119.1217570 129.6671520  96.1598530 120.1874160 130.1886740  95.2194980
 109.7440570 127.6356330  97.9416030 110.0857380 128.4798380  97.6469900
 108.8056380 127.7840070  98.0581370 110.5247190 137.5322350  99.9268260
 111.1421190 138.2073430  99.6452710 109.6640310 137.9410330  99.8355760
 105.8179530 136.7222210  88.8075110 105.4407510 137.2109310  88.0760010
 106.0752600 137.3947490  89.4381640 121.4424780 138.9961760  97.8422900
 120.7588300 139.6660870  97.8339570 121.9819070 139.1942410  97.0767760
 122.8948920 128.8241420  95.9704630 121.9473830 128.8580400  96.1020060
 123.2198910 129.6380370  96.3553990 118.9783520 140.8405890  96.5568080
 118.9910680 140.4368180  95.6890340 118.4258740 141.6153180  96.4529510
 120.2728940 137.5622110  91.6458250 120.1625270 136.6196440  91.7707670
 120.2697190 137.9237750  92.5321010 118.3768960 135.7435730  97.8850690
 118.7937750 135.5295840  97.0504150 119.1008780 136.0008520  98.4559310
 115.8149220 133.1887430  91.0020740 114.8878500 133.1224810  91.2309210
 115.9674040 134.1267560  90.8875980 122.3231060 134.1422950  97.9766930
 121.4949690 134.2116040  97.5017060 122.9181540 134.7277260  97.5082760
 119.8446510 134.7507730  91.5055990 119.2258930 134.4127280  90.8582290
 119.8270960 134.1067490  92.2135180 119.2873070 130.9292270  98.9221800
 118.8744250 131.7545980  99.1761790 118.5549020 130.3437310  98.7298160
 111.4205860 133.7152170  93.7840470 111.0162860 133.0029420  93.2886370
 111.5068980 133.3705410  94.6728510 111.8887560 137.4019730  95.9479680
 111.5915850 136.7965200  95.2687460 112.8387380 137.4397040  95.8369040
 110.1334480 130.4895380  97.5639510 110.6849070 130.5990720  96.7892760
 110.6477990 130.8632980  98.2794740 119.9773170 140.9751600  99.6102780
 119.5003730 141.7823790  99.4175390 119.2934960 140.3229930  99.7628990
 110.9805990 137.1401420 102.5987480 110.0834520 137.3641390 102.8460880
 111.0058860 137.2636360 101.6498880 118.0211210 133.9894540  88.5128740
 118.4604490 133.1516970  88.3666560 118.7339630 134.6223940  88.5992880
 109.8077210 134.0114740 101.1744850 109.6684980 134.8837540 101.5432250
 108.9258570 133.6687550 101.0292790 116.1306590 138.9290610  92.4809980
 116.5702500 139.6714940  92.0665370 116.0693480 139.1717180  93.4048940
 111.6057560 139.9536440 103.3830000 111.5772990 140.3579390 102.5158430
 111.4422530 139.0246800 103.2201600 121.6028350 125.2437350  86.8269780
 121.2901010 125.3364180  87.7268850 122.3640820 125.8218380  86.7767210
 108.1210490 132.6097150  91.2847120 108.0008090 133.3359240  90.6728390
 107.8111380 131.8400060  90.8075030 123.5572380 140.7363540 104.6794170
 124.0332100 141.2146430 105.3583250 124.1779540 140.6681030 103.9539670
 105.7595860 135.7812290  97.0915760 105.8376280 135.9161060  96.1471480
 106.3737540 135.0728180  97.2843880 107.0043490 137.4812480  93.5021940
 106.5971570 137.6227070  92.6475540 107.8956500 137.1972640  93.2993150
 122.9605630 137.9276390 101.8394180 123.0868690 137.6888270 100.9211360
 123.0027010 137.0960930 102.3116260 116.8222370 141.6304390 100.4088990
 117.3367040 141.5412400 101.2111420 115.9791450 141.9764090 100.7016900
 118.7976770 141.9159730  89.8372990 118.6377910 141.6262670  90.7354820
 118.6323480 141.1399860  89.3018220 111.2765150 141.6958260  91.6144610
 111.1007630 140.7793800  91.4012410 110.4220890 142.0545550  91.8542410
 118.5002900 139.4247290  88.3970990 117.8068060 139.4224580  87.7373270
 119.2425760 139.0006610  87.9665160 118.0652830 141.0510000  92.4719480
 118.5209780 140.2699380  92.7858100 118.4045350 141.7616820  93.0160660
 122.8129640 129.9808850 102.8043920 122.1973910 130.4888520 102.2759380
 122.4926060 129.0807180 102.7469860 105.8155380 136.8226460  99.6310220
 105.9786420 136.3531820  98.8129590 106.2807830 136.3150020 100.2959060
 110.5874150 125.9532220  94.6670790 110.1442300 126.7341760  94.3355310
 111.1459140 126.2762110  95.3741730 114.8743960 128.8200740 100.2706110
 114.4123330 129.0283760 101.0826050 114.4722070 128.0060090  99.9676780
 119.8748470 130.0409690 101.4002770 119.0242060 129.7415440 101.7211840
 119.7150260 130.2851700 100.4886590 116.9698180 131.5411440 103.5001560
 117.2951590 130.7075190 103.1603790 117.7578510 132.0639960 103.6479890
 112.6250050 126.4979550  96.5260390 112.9222380 127.4042380  96.4452410
 113.1735610 126.0098330  95.9119960 110.3788370 131.0765790  92.3952040
 110.1529290 130.8602960  93.2998660 109.5980900 131.5094250  92.0498010
 117.6086130 131.0829160  90.9942690 117.0095020 131.8064960  90.8106310
 118.1565740 131.0205940  90.2119140 112.8187580 131.9751370 103.0612310
 112.7231180 131.0346100 102.9112710 113.6619560 132.1966440 102.6660380
 116.2151000 129.7192700  93.0245970 116.6080570 130.0364900  92.2114660
 116.5767850 128.8404580  93.1390490 107.9498120 128.3865040 101.2146090
 107.5561510 129.2340250 101.4218870 107.2616520 127.7491410 101.4054730
 114.5243170 128.4700010 104.2842830 113.8341490 128.2772210 104.9188920
 115.2675470 128.7534650 104.8167130 105.2515170 126.3093500  95.2476170
 104.9628220 126.8796360  95.9601150 105.9960930 125.8297950  95.6107400
 105.4385400 130.2513620  86.4578890 105.3560070 131.1944380  86.5993880
 105.0868460 130.1088530  85.5791240 116.8006140 132.3098450  97.1196750
 116.0687260 132.8185260  97.4686850 116.4030480 131.4928430  96.8185530
 113.2383530 128.9852650  95.5249240 113.2419590 128.5442600  94.6753780
 114.1334650 129.3069980  95.6321060 109.0885910 128.8679140  94.4843450
 108.7485960 129.3454370  95.2410500 108.3263230 128.4144260  94.1244550
 117.2632050 127.7632130  96.5319690 117.2804790 128.2140780  97.3761540
 117.0147630 126.8637770  96.7453130 112.3125180 132.2965870  87.9139300
 111.7442080 131.8484120  87.2875210 113.0214180 132.6558650  87.3804450
 120.6902800 125.1764310 102.3706070 121.0148570 124.4453970 102.8964050
 120.7259310 124.8577950 101.4687060 107.3894360 136.1977890 101.7906030
 107.0049150 135.5571560 102.3888990 107.7006550 136.9014010 102.3600760
 113.5391500 133.0454430  97.2714650 113.9061630 132.5713000  98.0175990
 113.3496560 133.9196000  97.6122990 106.4031990 127.7898120  93.4008120
 106.1178910 127.4253790  94.2386740 106.3410850 127.0578580  92.7871260
 111.3290870 132.0863070  99.5898860 111.0247940 132.9655050  99.8149220
 112.2837330 132.1462860  99.6256300 109.8572660 136.2924060  90.1865710
 109.0834920 135.7521680  90.0264430 110.5867290 135.7730670  89.8483470
 120.6160640 135.2889420  95.9792100 121.3359760 135.7844710  95.5888210
 120.4142460 134.6107310  95.3345970 115.9979440 135.3598480 101.8661100
 115.9316750 134.4394150 101.6118690 115.3684580 135.4573920 102.5805740
 118.7918970 131.0547030  88.4183650 119.6798590 131.3664260  88.2434990
 118.7624060 130.1819280  88.0264230 109.9010060 135.9604440  93.8244520
 110.4188730 135.1572700  93.7701410 109.4494080 135.8983580  94.6661350
 114.7879560 137.2270720  89.0971820 115.1295260 137.9712950  88.6015140
 113.9592270 137.5401840  89.4596650 107.3854600 132.9265810 100.7370220
 107.0269540 133.5919660 101.3243560 107.0909160 132.0949360 101.1082840
 110.5867720 133.3850050 103.6209770 110.2867860 133.5307230 102.7237590
 111.3578960 132.8255340 103.5283160 115.9296170 138.1819050 101.6164900
 115.9440710 137.2500010 101.3983810 115.2221270 138.2678810 102.2554670
 121.0633240 132.3658870  87.8863510 120.9796960 132.7973090  87.0359950
 121.7827430 132.8257220  88.3190330 122.1407380 134.8226390 100.9633480
 121.4155570 135.4155170 100.7662870 122.6682840 134.8149930 100.1646850
 122.0920490 139.2201130  90.6145640 121.4496650 138.5656750  90.8889360
 121.7051150 139.6256220  89.8386310 117.6706970 136.5486560  94.4617330
 118.0230790 135.9514690  93.8018700 116.7869300 136.2230790  94.6325580
 113.7570250 137.3084250  91.8687740 114.4441380 137.8553460  92.2495330
 112.9702670 137.8524980  91.9037350 105.8962650 132.9257070  87.3604820
 106.7657500 133.2081870  87.6440740 105.4052970 133.7392940  87.2453630
 113.0597460 134.3130280  91.4813100 113.5160240 135.1235530  91.7073290
 112.7085670 133.9953420  92.3131590 115.3630070 139.8236620  98.7105400
 116.0072290 140.0296000  99.3878820 115.7259510 139.0625020  98.2576250
 108.9609240 124.6567930  91.9535620 108.8323870 124.6485830  92.9020540
 108.1371260 124.9951020  91.6026630 116.6362150 137.8268970  97.4282850
 117.2784380 137.1262130  97.5415020 117.1611500 138.6067410  97.2479740
 120.4817870 138.1117590  87.1521990 120.2555450 137.3948030  87.7446630
 120.0914070 137.8630030  86.3143740 118.4099770 138.6263870 100.6318910
 118.7456010 139.2130560 101.3096830 117.4900110 138.4956580 100.8616700
 106.2633900 142.1384450  87.9266450 106.6231540 142.7373790  87.2723720
 106.1226240 142.6844340  88.7001480 105.9603170 126.4159050 101.4142320
 105.2461690 126.6155970 102.0194930 106.3798210 125.6398620 101.7857120
 120.0634120 136.0289530  88.8136150 119.7755820 136.4902220  89.6014030
 120.8586290 135.5687300  89.0820370 106.2475760 140.4039310 102.4008850
 106.3566880 139.4634050 102.2604240 105.5956320 140.6694060 101.7522580
 114.2388350 138.6755200 103.8006970 113.9185220 137.9564440 104.3452660
 113.5646710 139.3510270 103.8743030 112.2802520 139.5215650  88.7440120
 112.2712620 140.2545340  88.1284630 111.3600880 139.2747230  88.8367080
 107.8809160 134.7430540  89.4886880 107.2737110 135.4829440  89.4982180
 108.3558510 134.8329900  88.6625080 117.4541950 128.9081360  99.1643770
 117.8222770 128.0876570  99.4923340 116.5940150 128.9683250  99.5799420
 120.8203980 127.8638300  89.9731330 120.1917140 127.9683970  89.2589560
 120.3255900 128.0835080  90.7625210 115.2662120 139.5843890  87.4065310
 115.3674100 139.3807880  86.4767290 114.3663860 139.3302170  87.6113090
 114.4143940 131.5620950  99.3881740 114.9129190 132.0366770 100.0533590
 114.5566890 130.6384470  99.5951770 113.9080230 142.1030210  92.1012980
 114.1621730 142.0651600  91.1792350 112.9592710 141.9763540  92.0941230
 121.6210800 127.7788910 100.2310130 121.1184400 128.5194310 100.5703940
 122.4367460 128.1672910  99.9146920 119.9132810 133.0222090  93.6771490
 118.9722950 133.0372320  93.8519180 120.2276880 132.2358050  94.1231790
 109.8914450 134.7041690  87.2375450 110.6577720 134.5923050  87.8000880
 109.9689140 134.0079660  86.5852220 108.5861210 132.1366760  87.9208340
 108.6664800 131.1894270  88.0325740 109.4780960 132.4673640  88.0269000
 121.9158390 140.1930940  95.3525750 122.0405810 141.0162110  95.8249560
 122.7823950 139.9821670  95.0049900 109.3875920 142.2862150  95.0242880
 110.1238400 141.7377610  95.2951450 109.7716840 143.1518160  94.8848870
 106.2721400 138.3535720  90.8984390 105.3461180 138.5956860  90.8889800
 106.7377830 139.1809980  90.7769140 108.3934200 141.4708220 104.2128460
 109.1946930 141.7920270 104.6263860 107.8786020 141.1103800 104.9348370
 112.4978230 141.4592460  86.8468450 113.2906840 141.7481290  86.3950240
 111.9782580 141.0284630  86.1680930 117.2298830 137.5788090 104.1603870
 116.6236990 137.6019690 103.4199620 116.9252940 136.8471130 104.6971120
 118.6599200 141.3068380 102.7713280 119.6120950 141.2226400 102.7213520
 118.5127420 141.9710090 103.4447070 121.5508400 140.6862590  88.2705190
 121.2649910 140.2727730  87.4559370 121.3527950 141.6150300  88.1505710
 106.1132010 133.9581680 103.1564510 106.6171030 133.3788960 103.7280740
 105.3739430 134.2421910 103.6940880 113.0155630 136.6795870  86.7110800
 112.9106270 136.0648220  87.4372180 112.8479850 136.1561760  85.9273810
 113.1669950 135.3652670 102.6900030 112.4015620 135.9337670 102.6054700
 113.3485910 135.0728880 101.7968260 116.2558360 135.7415900  87.3152790
 115.7068460 136.1885200  87.9595530 116.8777620 135.2365150  87.8390460
 120.3093300 137.0958000 103.2475050 121.0502770 137.4333760 102.7442510
 119.5465980 137.2650060 102.6944820 108.1455090 132.1011270 104.0514580
 108.1860430 131.8025140 104.9599810 109.0000590 132.5018880 103.8922100
 111.9233480 134.7006820  89.2118090 112.3449900 134.5346690  90.0549480
 112.0484320 133.8907050  88.7173230 110.0860900 130.6803370 102.0189070
 109.5557360 130.1894320 101.3912410 110.7548970 131.1087570 101.4847000
 114.4361120 133.7244430  86.4595190 114.9566780 133.0093450  86.0936340
 115.0829520 134.3630300  86.7595700 118.9838960 135.1472830 101.7830260
 119.3979980 135.3017910 102.6320680 118.0489960 135.2728050 101.9456040
 119.4561130 132.4868990 103.7869410 120.0381900 131.7321310 103.6989890
 119.6322900 133.0176430 103.0100890 110.5733200 127.6465740 102.0986360
 110.4790070 127.0286490 101.3737230 109.9930590 128.3732030 101.8716270
 113.3394640 126.2038980  99.1313750 112.8911940 126.2263240  98.2859300
 112.7059840 125.8058000  99.7284050 113.7454190 135.0993310  99.7526190
 114.1642300 135.9426040  99.5802430 112.8262820 135.2365350  99.5232970
 116.0818090 132.8309490 101.1364030 116.2014300 132.2350630 101.8758870
 116.9412090 132.8679180 100.7165330 118.4205990 133.3846680  99.7126540
 117.8941210 133.9089300  99.1091680 118.7637330 134.0174070 100.3436270
 111.5961610 141.4046320 100.8683920 111.0582700 142.1292380 100.5492620
 111.8495570 140.9276660 100.0781260 112.8486860 129.3730840 102.3939850
 113.4386550 129.0646690 103.0817670 112.0307100 128.9010590 102.5499750
 117.6680290 128.9896650 102.6272870 116.9795810 128.3278190 102.5622860
 118.3886310 128.5434920 103.0721330 118.2980690 125.5848280  88.6863130
 118.5782980 124.7416180  89.0422550 117.5246420 125.8171390  89.2001880
 114.4523820 142.6397530 101.1270570 114.3782520 143.5432670 101.4342940
 113.5502660 142.3209430 101.0992640 115.0009150 141.8056040  88.7496930
 115.8959940 142.1441010  88.7715690 115.0326780 141.0835450  88.1221210
 108.6405310 137.1783090  86.9783930 109.0780180 137.7212760  87.6341510
 109.1253040 136.3530040  86.9880270 105.8551110 139.9672120  94.4304190
 106.1854120 139.0993180  94.1982830 106.2842110 140.1730640  95.2609150
 110.4513030 138.2981130  92.0906160 110.1508570 138.1746100  92.9910070
 110.3450520 137.4389720  91.6821890 106.3441320 140.8342710  97.1685820
 105.9072310 141.0143510  98.0009970 106.9119000 141.5917330  97.0267540
 121.9803500 140.3359710 101.4563130 121.3805490 140.3952270 100.7127050
 122.1097400 139.3964690 101.5859980 123.2204950 138.0777530  86.7932840
 122.3897910 138.1454180  87.2640070 123.3976780 138.9681650  86.4899700
 122.6761410 134.8225010  89.2967040 123.4380320 135.3921660  89.4026730
 122.6915780 134.2552210  90.0675350 106.1765750 133.3462940  93.5274700
 105.5214590 133.0774580  92.8834400 107.0143700 133.2367420  93.0776680
 123.6821380 135.6775110  94.1408970 124.0530210 134.8942430  93.7344940
 124.3223310 136.3664210  93.9626270 120.6655140 137.0611690  99.5539290
 119.8514980 137.4908850  99.8165080 121.0729340 137.6730100  98.9408340
 122.7280580 135.1159380  86.4539560 123.0029420 136.0238260  86.3258780
 122.5391320 135.0521910  87.3901550 119.1256190 128.1404230  87.7493190
 119.5441070 127.9535210  86.9089850 118.8192250 127.2883280  88.0596120
 122.6245920 133.0528370  91.4468990 122.2489520 132.2856300  91.0150280
 121.8949040 133.4351070  91.9343920 107.2141680 133.7315510  98.0678040
 107.5814720 133.6442910  98.9474060 106.6452500 132.9682060  97.9684900
 122.0145540 132.1999890 101.0808510 121.7831630 131.9712640 100.1806460
 122.2750090 133.1199440 101.0353400 106.7657680 130.6424600 101.9736460
 105.8713730 130.6091360 102.3130170 107.3055230 130.8411390 102.7387710
 120.4533610 127.4256320 103.8588210 121.3303790 127.4339720 104.2422210
 120.4654450 126.6887160 103.2480560 105.3903830 130.5561870  89.4700030
 104.4867910 130.8192070  89.2951690 105.8744450 130.8273040  88.6899990
 121.8996880 131.2785860  94.7476230 122.4234360 130.7848510  94.1166400
 122.4856300 131.4136220  95.4923800 122.0786600 131.3625730  98.2695780
 121.1289310 131.3289270  98.3840770 122.2599610 132.2725840  98.0345550
 107.5805200 125.6666740  86.4197060 108.3033330 126.2075680  86.7378280
 107.8529720 125.3930160  85.5438600 121.3896850 130.5359210  90.6868640
 121.8855970 130.3030080  91.4717520 121.1912920 129.6971050  90.2706280
 107.2697390 124.9172930  96.3219680 107.9173580 124.3670310  95.8814840
 107.6899230 125.1716080  97.1435490 122.8184010 129.1720160  93.2206320
 122.7083290 129.0176200  94.1588590 123.5791600 128.6441100  92.9781730
 121.1649730 125.1114290  99.6789320 121.8021950 125.7248430 100.0448510
 121.3124620 125.1474950  98.7338550 123.7074280 127.0028080  86.4612460
 124.6323590 126.8709260  86.2530750 123.6850070 127.0820900  87.4148910
 123.7812770 127.7738740  89.0869170 122.9864270 127.7083860  89.6162080
 123.9856050 128.7089380  89.0754520 120.7231190 141.8130290  93.0807560
 121.3190260 141.4914860  92.4041980 120.9809340 141.3402110  93.8720830
 107.0229390 125.0728600  99.0645000 106.6744210 125.5292420  99.8303180
 106.6917090 124.1785730  99.1467430 108.6293760 138.2448200 103.2298190
 108.5863390 137.8741110 104.1112650 108.7604770 139.1825770 103.3700010
 112.3299790 139.8007790  98.8307910 112.0891150 140.0682350  97.9438430
 113.2702430 139.9713520  98.8858770 114.5354210 126.2640480 102.5864420
 114.4743100 126.8562310 103.3359830 115.4754590 126.1566440 102.4414680
 117.1728770 125.9210540 102.2256710 117.7869180 126.2389830 101.5637790
 117.7178330 125.4359130 102.8452570 123.5903950 141.8202170  99.6318550
 123.0962230 142.2171040  98.9145680 122.9817240 141.1951380 100.0255830
 107.6950030 124.6004800 102.3395770 108.2433020 124.4192850 101.5761880
 107.7605340 123.8098910 102.8752080 108.4681790 141.1910450 100.3495970
 107.8742110 141.0595150 101.0886010 108.4605630 140.3548590  99.8838070
 118.8208790 126.6913550  99.9367720 118.4922150 125.8765310  99.5569450
 119.7691090 126.6483360  99.8133410 121.2743400 142.4625590  96.9105290
 120.8146370 143.2141400  96.5363310 120.6455860 141.7432060  96.8520090
 108.0994020 138.5568830  99.3004010 107.3728080 137.9374120  99.2329960
 108.1603170 138.9509440  98.4302090 111.7039120 140.7713830  96.0853420
 112.2204140 140.1601190  95.5601680 112.3536500 141.2742610  96.5764430
 114.4434620 141.6622320  96.9122400 114.7312430 141.4076620  96.0355410
 114.9557840 141.1099680  97.5027970 120.2132700 126.1035620  95.5368000
 120.6540790 126.0480720  94.6889600 119.9440290 127.0193630  95.6078180
 122.0771270 125.7350860  93.5476820 122.0159670 124.7912080  93.4007840
 122.8563300 125.8430950  94.0930280 106.3824020 141.8743220  92.5100770
 106.2146060 141.2413900  93.2082660 105.5158530 142.0802620  92.1594960
 107.0052040 125.7060000  90.0132630 107.7631400 125.8188880  89.4396660
 106.5429210 126.5429200  89.9676060 113.5465850 127.8199270  93.0034940
 112.7340360 127.4456160  92.6630820 114.0507490 127.0644350  93.3056130
 121.1925430 124.8863280  89.5158290 121.3876060 125.7846730  89.7825720
 120.4055300 124.6550360  90.0091240 107.9886720 140.5676450  89.9550910
 107.4634340 140.9484480  89.2512870 107.9131300 141.1927220  90.6760620
 111.5715030 125.9699190  91.6079990 110.9417770 125.2686500  91.7750120
 111.0320170 126.7303320  91.3913150 114.5106980 142.5838420 104.2790600
 115.4374290 142.3482690 104.3226560 114.4957410 143.4110420 103.7976630
 122.7452040 142.1263990  91.2764850 122.9204230 141.4401730  90.6325770
 122.0473610 142.6511040  90.8841520 111.6970590 125.2483170 104.0432480
 111.4154860 125.7516770 103.2793300 112.0790290 124.4504920 103.6774610
 110.5879690 142.5158830  88.8300160 111.3198510 142.2318110  88.2824050
 110.8473360 142.2772110  89.7199540 109.7494480 138.6323560  88.8346490
 109.1203360 139.1008660  89.3832320 109.8642310 137.7872780  89.2692680
 118.2986050 124.6636750 104.6212950 118.1851500 124.9831360 105.5164470
 119.1155790 125.0649260 104.3250230 121.0784540 141.8108280 104.1031640
 121.8709860 141.3157510 103.8957600 121.3717690 142.4898420 104.7107250
 117.2044200 132.6829220  74.9847690 117.1238250 131.7683830  74.7139400
 116.7908620 133.1796290  74.2787400 115.3362240 134.4608240  76.8656960
 114.5604340 133.9808680  77.1555530 115.9875170 133.7813890  76.6913120
 109.3528070 134.7728050  77.7432720 108.5212950 134.5176760  78.1429230
 109.9609050 134.8438820  78.4790640 119.3569670 138.8668430  75.6456090
 118.8951200 138.0955670  75.9743260 120.1695220 138.8934500  76.1508540
 109.3329330 138.8068140  77.9390740 109.6357370 137.9165880  77.7600960
 110.0772920 139.3638360  77.7112990 105.7253030 132.3335590  77.4114810
 106.2969140 131.5657790  77.4118450 105.7254570 132.6324350  76.5021420
 115.5832980 141.1526440  75.2660080 114.9644420 141.6083940  74.6954520
 116.4384760 141.3077900  74.8649780 114.7771230 137.1365430  76.8727120
 114.7079510 136.1955370  76.7116250 115.5391090 137.2266840  77.4449690
 106.9677900 127.7419950  79.1983740 106.7880740 126.8445700  79.4786500
 106.5657980 128.2891820  79.8730690 115.8076400 129.9435810  77.0996050
 116.1841220 129.0707690  76.9869720 115.7095910 130.2794510  76.2086490
 119.5900520 127.4386250  74.0324390 120.4110140 126.9482820  74.0749870
 119.6234600 128.0283910  74.7856230 107.5864570 130.2380450  77.8066080
 108.2674680 130.5018820  78.4253480 107.2712620 129.3981320  78.1404090
 111.7789140 131.2847810  76.8938670 112.2867360 131.7828780  77.5343690
 112.3102380 130.5083010  76.7178030 123.8800070 129.4553000  80.5968020
 123.1752240 129.8434710  80.0783130 124.1457990 130.1503290  81.1988950
 110.0625240 125.9246370  81.1602090 110.0643680 126.4418760  80.3547990
 109.2329550 125.4476550  81.1372020 116.4496330 136.0365680  72.6591990
 115.8313600 136.5015130  72.0954710 116.9619580 136.7293160  73.0761500
 111.3128090 135.5641550  79.3375590 110.9797470 136.1910470  79.9796660
 111.4894770 136.0903430  78.5577260 119.8262000 129.3786630  76.8051930
 119.1217570 129.6671520  77.3855040 120.1874160 130.1886740  76.4451490
 109.7440570 127.6356330  79.1672540 110.0857380 128.4798380  78.8726410
 108.8056380 127.7840070  79.2837880 110.5247190 137.5322350  81.1524770
 111.1421190 138.2073430  80.8709220 109.6640310 137.9410330  81.0612270
 105.8179530 136.7222210  70.0331620 105.4407510 137.2109310  69.3016520
 106.0752600 137.3947490  70.6638150 121.4424780 138.9961760  79.0679410
 120.7588300 139.6660870  79.0596080 121.9819070 139.1942410  78.3024270
 122.8948920 128.8241420  77.1961140 121.9473830 128.8580400  77.3276570
 123.2198910 129.6380370  77.5810500 118.9783520 140.8405890  77.7824590
 118.9910680 140.4368180  76.9146850 118.4258740 141.6153180  77.6786020
 120.2728940 137.5622110  72.8714760 120.1625270 136.6196440  72.9964180
 120.2697190 137.9237750  73.7577520 118.3768960 135.7435730  79.1107200
 118.7937750 135.5295840  78.2760660 119.1008780 136.0008520  79.6815820
 115.8149220 133.1887430  72.2277250 114.8878500 133.1224810  72.4565720
 115.9674040 134.1267560  72.1132490 115.8018300 129.4604430  69.2244410
 114.8621970 129.6218390  69.3096870 116.1201560 130.1790110  68.6780400
 122.3231060 134.1422950  79.2023440 121.4949690 134.2116040  78.7273570
 122.9181540 134.7277260  78.7339270 119.8446510 134.7507730  72.7312500
 119.2258930 134.4127280  72.0838800 119.8270960 134.1067490  73.4391690
 119.2873070 130.9292270  80.1478310 118.8744250 131.7545980  80.4018300
 118.5549020 130.3437310  79.9554670 111.4205860 133.7152170  75.0096980
 111.0162860 133.0029420  74.5142880 111.5068980 133.3705410  75.8985020
 111.8887560 137.4019730  77.1736190 111.5915850 136.7965200  76.4943970
 112.8387380 137.4397040  77.0625550 110.1334480 130.4895380  78.7896020
 110.6849070 130.5990720  78.0149270 110.6477990 130.8632980  79.5051250
 119.9773170 140.9751600  80.8359290 119.5003730 141.7823790  80.6431900
 119.2934960 140.3229930  80.9885500 110.9805990 137.1401420  83.8243990
 110.0834520 137.3641390  84.0717390 111.0058860 137.2636360  82.8755390
 118.0211210 133.9894540  69.7385250 118.4604490 133.1516970  69.5923070
 118.7339630 134.6223940  69.8249390 109.8077210 134.0114740  82.4001360
 109.6684980 134.8837540  82.7688760 108.9258570 133.6687550  82.2549300
 116.1306590 138.9290610  73.7066490 116.5702500 139.6714940  73.2921880
 116.0693480 139.1717180  74.6305450 111.6057560 139.9536440  84.6086510
 111.5772990 140.3579390  83.7414940 111.4422530 139.0246800  84.4458110
 121.6028350 125.2437350  68.0526290 121.2901010 125.3364180  68.9525360
 122.3640820 125.8218380  68.0023720 108.1210490 132.6097150  72.5103630
 108.0008090 133.3359240  71.8984900 107.8111380 131.8400060  72.0331540
 123.5572380 140.7363540  85.9050680 124.0332100 141.2146430  86.5839760
 124.1779540 140.6681030  85.1796180 105.7595860 135.7812290  78.3172270
 105.8376280 135.9161060  77.3727990 106.3737540 135.0728180  78.5100390
 107.0043490 137.4812480  74.7278450 106.5971570 137.6227070  73.8732050
 107.8956500 137.1972640  74.5249660 122.9605630 137.9276390  83.0650690
 123.0868690 137.6888270  82.1467870 123.0027010 137.0960930  83.5372770
 116.8222370 141.6304390  81.6345500 117.3367040 141.5412400  82.4367930
 115.9791450 141.9764090  81.9273410 118.7976770 141.9159730  71.0629500
 118.6377910 141.6262670  71.9611330 118.6323480 141.1399860  70.5274730
 111.2765150 141.6958260  72.8401120 111.1007630 140.7793800  72.6268920
 110.4220890 142.0545550  73.0798920 118.5002900 139.4247290  69.6227500
 117.8068060 139.4224580  68.9629780 119.2425760 139.0006610  69.1921670
 118.0652830 141.0510000  73.6975990 118.5209780 140.2699380  74.0114610
 118.4045350 141.7616820  74.2417170 122.8129640 129.9808850  84.0300430
 122.1973910 130.4888520  83.5015890 122.4926060 129.0807180  83.9726370
 105.8155380 136.8226460  80.8566730 105.9786420 136.3531820  80.0386100
 106.2807830 136.3150020  81.5215570 114.8743960 128.8200740  81.4962620
 114.4123330 129.0283760  82.3082560 114.4722070 128.0060090  81.1933290
 119.8748470 130.0409690  82.6259280 119.0242060 129.7415440  82.9468350
 119.7150260 130.2851700  81.7143100 116.9698180 131.5411440  84.7258070
 117.2951590 130.7075190  84.3860300 117.7578510 132.0639960  84.8736400
 112.6250050 126.4979550  77.7516900 112.9222380 127.4042380  77.6708920
 113.1735610 126.0098330  77.1376470 117.6086130 131.0829160  72.2199200
 117.0095020 131.8064960  72.0362820 118.1565740 131.0205940  71.4375650
 112.8187580 131.9751370  84.2868820 112.7231180 131.0346100  84.1369220
 113.6619560 132.1966440  83.8916890 116.2151000 129.7192700  74.2502480
 116.6080570 130.0364900  73.4371170 116.5767850 128.8404580  74.3647000
 107.9498120 128.3865040  82.4402600 107.5561510 129.2340250  82.6475380
 107.2616520 127.7491410  82.6311240 105.2515170 126.3093500  76.4732680
 104.9628220 126.8796360  77.1857660 105.9960930 125.8297950  76.8363910
 105.4385400 130.2513620  67.6835400 105.3560070 131.1944380  67.8250390
 105.0868460 130.1088530  66.8047750 116.8006140 132.3098450  78.3453260
 116.0687260 132.8185260  78.6943360 116.4030480 131.4928430  78.0442040
 113.2383530 128.9852650  76.7505750 113.2419590 128.5442600  75.9010290
 114.1334650 129.3069980  76.8577570 109.0885910 128.8679140  75.7099960
 108.7485960 129.3454370  76.4667010 108.3263230 128.4144260  75.3501060
 117.2632050 127.7632130  77.7576200 117.2804790 128.2140780  78.6018050
 117.0147630 126.8637770  77.9709640 112.3125180 132.2965870  69.1395810
 111.7442080 131.8484120  68.5131720 113.0214180 132.6558650  68.6060960
 120.6902800 125.1764310  83.5962580 121.0148570 124.4453970  84.1220560
 120.7259310 124.8577950  82.6943570 107.3894360 136.1977890  83.0162540
 107.0049150 135.5571560  83.6145500 107.7006550 136.9014010  83.5857270
 113.5391500 133.0454430  78.4971160 113.9061630 132.5713000  79.2432500
 113.3496560 133.9196000  78.8379500 106.4031990 127.7898120  74.6264630
 106.1178910 127.4253790  75.4643250 106.3410850 127.0578580  74.0127770
 111.3290870 132.0863070  80.8155370 111.0247940 132.9655050  81.0405730
 112.2837330 132.1462860  80.8512810 109.8572660 136.2924060  71.4122220
 109.0834920 135.7521680  71.2520940 110.5867290 135.7730670  71.0739980
 120.6160640 135.2889420  77.2048610 121.3359760 135.7844710  76.8144720
 120.4142460 134.6107310  76.5602480 115.9979440 135.3598480  83.0917610
 115.9316750 134.4394150  82.8375200 115.3684580 135.4573920  83.8062250
 118.7918970 131.0547030  69.6440160 119.6798590 131.3664260  69.4691500
 118.7624060 130.1819280  69.2520740 109.9010060 135.9604440  75.0501030
 110.4188730 135.1572700  74.9957920 109.4494080 135.8983580  75.8917860
 114.7879560 137.2270720  70.3228330 115.1295260 137.9712950  69.8271650
 113.9592270 137.5401840  70.6853160 107.3854600 132.9265810  81.9626730
 107.0269540 133.5919660  82.5500070 107.0909160 132.0949360  82.3339350
 110.5867720 133.3850050  84.8466280 110.2867860 133.5307230  83.9494100
 111.3578960 132.8255340  84.7539670 115.9296170 138.1819050  82.8421410
 115.9440710 137.2500010  82.6240320 115.2221270 138.2678810  83.4811180
 121.0633240 132.3658870  69.1120020 120.9796960 132.7973090  68.2616460
 121.7827430 132.8257220  69.5446840 122.1407380 134.8226390  82.1889990
 121.4155570 135.4155170  81.9919380 122.6682840 134.8149930  81.3903360
 122.0920490 139.2201130  71.8402150 121.4496650 138.5656750  72.1145870
 121.7051150 139.6256220  71.0642820 117.6706970 136.5486560  75.6873840
 118.0230790 135.9514690  75.0275210 116.7869300 136.2230790  75.8582090
 113.7570250 137.3084250  73.0944250 114.4441380 137.8553460  73.4751840
 112.9702670 137.8524980  73.1293860 105.8962650 132.9257070  68.5861330
 106.7657500 133.2081870  68.8697250 105.4052970 133.7392940  68.4710140
 113.0597460 134.3130280  72.7069610 113.5160240 135.1235530  72.9329800
 112.7085670 133.9953420  73.5388100 115.3630070 139.8236620  79.9361910
 116.0072290 140.0296000  80.6135330 115.7259510 139.0625020  79.4832760
 116.6362150 137.8268970  78.6539360 117.2784380 137.1262130  78.7671530
 117.1611500 138.6067410  78.4736250 120.4817870 138.1117590  68.3778500
 120.2555450 137.3948030  68.9703140 120.0914070 137.8630030  67.5400250
 118.4099770 138.6263870  81.8575420 118.7456010 139.2130560  82.5353340
 117.4900110 138.4956580  82.0873210 106.2633900 142.1384450  69.1522960
 106.6231540 142.7373790  68.4980230 106.1226240 142.6844340  69.9257990
 105.9603170 126.4159050  82.6398830 105.2461690 126.6155970  83.2451440
 106.3798210 125.6398620  83.0113630 120.0634120 136.0289530  70.0392660
 119.7755820 136.4902220  70.8270540 120.8586290 135.5687300  70.3076880
 106.2475760 140.4039310  83.6265360 106.3566880 139.4634050  83.4860750
 105.5956320 140.6694060  82.9779090 114.2388350 138.6755200  85.0263480
 113.9185220 137.9564440  85.5709170 113.5646710 139.3510270  85.0999540
 112.2802520 139.5215650  69.9696630 112.2712620 140.2545340  69.3541140
 111.3600880 139.2747230  70.0623590 107.8809160 134.7430540  70.7143390
 107.2737110 135.4829440  70.7238690 108.3558510 134.8329900  69.8881590
 117.4541950 128.9081360  80.3900280 117.8222770 128.0876570  80.7179850
 116.5940150 128.9683250  80.8055930 120.8203980 127.8638300  71.1987840
 120.1917140 127.9683970  70.4846070 120.3255900 128.0835080  71.9881720
 115.2662120 139.5843890  68.6321820 115.3674100 139.3807880  67.7023800
 114.3663860 139.3302170  68.8369600 114.4143940 131.5620950  80.6138250
 114.9129190 132.0366770  81.2790100 114.5566890 130.6384470  80.8208280
 113.9080230 142.1030210  73.3269490 114.1621730 142.0651600  72.4048860
 112.9592710 141.9763540  73.3197740 121.6210800 127.7788910  81.4566640
 121.1184400 128.5194310  81.7960450 122.4367460 128.1672910  81.1403430
 119.9132810 133.0222090  74.9028000 118.9722950 133.0372320  75.0775690
 120.2276880 132.2358050  75.3488300 109.8914450 134.7041690  68.4631960
 110.6577720 134.5923050  69.0257390 109.9689140 134.0079660  67.8108730
 108.5861210 132.1366760  69.1464850 108.6664800 131.1894270  69.2582250
 109.4780960 132.4673640  69.2525510 121.9158390 140.1930940  76.5782260
 122.0405810 141.0162110  77.0506070 122.7823950 139.9821670  76.2306410
 109.3875920 142.2862150  76.2499390 110.1238400 141.7377610  76.5207960
 109.7716840 143.1518160  76.1105380 106.2721400 138.3535720  72.1240900
 105.3461180 138.5956860  72.1146310 106.7377830 139.1809980  72.0025650
 108.3934200 141.4708220  85.4384970 109.1946930 141.7920270  85.8520370
 107.8786020 141.1103800  86.1604880 112.4978230 141.4592460  68.0724960
 113.2906840 141.7481290  67.6206750 111.9782580 141.0284630  67.3937440
 117.2298830 137.5788090  85.3860380 116.6236990 137.6019690  84.6456130
 116.9252940 136.8471130  85.9227630 118.6599200 141.3068380  83.9969790
 119.6120950 141.2226400  83.9470030 118.5127420 141.9710090  84.6703580
 121.5508400 140.6862590  69.4961700 121.2649910 140.2727730  68.6815880
 121.3527950 141.6150300  69.3762220 106.1132010 133.9581680  84.3821020
 106.6171030 133.3788960  84.9537250 105.3739430 134.2421910  84.9197390
 113.0155630 136.6795870  67.9367310 112.9106270 136.0648220  68.6628690
 112.8479850 136.1561760  67.1530320 113.1669950 135.3652670  83.9156540
 112.4015620 135.9337670  83.8311210 113.3485910 135.0728880  83.0224770
 116.2558360 135.7415900  68.5409300 115.7068460 136.1885200  69.1852040
 116.8777620 135.2365150  69.0646970 120.3093300 137.0958000  84.4731560
 121.0502770 137.4333760  83.9699020 119.5465980 137.2650060  83.9201330
 108.1455090 132.1011270  85.2771090 108.1860430 131.8025140  86.1856320
 109.0000590 132.5018880  85.1178610 111.9233480 134.7006820  70.4374600
 112.3449900 134.5346690  71.2805990 112.0484320 133.8907050  69.9429740
 110.0860900 130.6803370  83.2445580 109.5557360 130.1894320  82.6168920
 110.7548970 131.1087570  82.7103510 114.4361120 133.7244430  67.6851700
 114.9566780 133.0093450  67.3192850 115.0829520 134.3630300  67.9852210
 118.9838960 135.1472830  83.0086770 119.3979980 135.3017910  83.8577190
 118.0489960 135.2728050  83.1712550 119.4561130 132.4868990  85.0125920
 120.0381900 131.7321310  84.9246400 119.6322900 133.0176430  84.2357400
 113.3394640 126.2038980  80.3570260 112.8911940 126.2263240  79.5115810
 112.7059840 125.8058000  80.9540560 113.7454190 135.0993310  80.9782700
 114.1642300 135.9426040  80.8058940 112.8262820 135.2365350  80.7489480
 116.0818090 132.8309490  82.3620540 116.2014300 132.2350630  83.1015380
 116.9412090 132.8679180  81.9421840 118.4205990 133.3846680  80.9383050
 117.8941210 133.9089300  80.3348190 118.7637330 134.0174070  81.5692780
 111.5961610 141.4046320  82.0940430 111.0582700 142.1292380  81.7749130
 111.8495570 140.9276660  81.3037770 117.6680290 128.9896650  83.8529380
 116.9795810 128.3278190  83.7879370 118.3886310 128.5434920  84.2977840
 114.4523820 142.6397530  82.3527080 114.3782520 143.5432670  82.6599450
 113.5502660 142.3209430  82.3249150 115.0009150 141.8056040  69.9753440
 115.8959940 142.1441010  69.9972200 115.0326780 141.0835450  69.3477720
 108.6405310 137.1783090  68.2040440 109.0780180 137.7212760  68.8598020
 109.1253040 136.3530040  68.2136780 105.8551110 139.9672120  75.6560700
 106.1854120 139.0993180  75.4239340 106.2842110 140.1730640  76.4865660
 110.4513030 138.2981130  73.3162670 110.1508570 138.1746100  74.2166580
 110.3450520 137.4389720  72.9078400 106.3441320 140.8342710  78.3942330
 105.9072310 141.0143510  79.2266480 106.9119000 141.5917330  78.2524050
 121.9803500 140.3359710  82.6819640 121.3805490 140.3952270  81.9383560
 122.1097400 139.3964690  82.8116490 123.2204950 138.0777530  68.0189350
 122.3897910 138.1454180  68.4896580 123.3976780 138.9681650  67.7156210
 122.6761410 134.8225010  70.5223550 123.4380320 135.3921660  70.6283240
 122.6915780 134.2552210  71.2931860 106.1765750 133.3462940  74.7531210
 105.5214590 133.0774580  74.1090910 107.0143700 133.2367420  74.3033190
 123.6821380 135.6775110  75.3665480 124.0530210 134.8942430  74.9601450
 124.3223310 136.3664210  75.1882780 120.6655140 137.0611690  80.7795800
 119.8514980 137.4908850  81.0421590 121.0729340 137.6730100  80.1664850
 122.7280580 135.1159380  67.6796070 123.0029420 136.0238260  67.5515290
 122.5391320 135.0521910  68.6158060 119.1256190 128.1404230  68.9749700
 119.5441070 127.9535210  68.1346360 118.8192250 127.2883280  69.2852630
 122.6245920 133.0528370  72.6725500 122.2489520 132.2856300  72.2406790
 121.8949040 133.4351070  73.1600430 107.2141680 133.7315510  79.2934550
 107.5814720 133.6442910  80.1730570 106.6452500 132.9682060  79.1941410
 122.0145540 132.1999890  82.3065020 121.7831630 131.9712640  81.4062970
 122.2750090 133.1199440  82.2609910 106.7657680 130.6424600  83.1992970
 105.8713730 130.6091360  83.5386680 107.3055230 130.8411390  83.9644220
 120.4533610 127.4256320  85.0844720 121.3303790 127.4339720  85.4678720
 120.4654450 126.6887160  84.4737070 105.3903830 130.5561870  70.6956540
 104.4867910 130.8192070  70.5208200 105.8744450 130.8273040  69.9156500
 121.8996880 131.2785860  75.9732740 122.4234360 130.7848510  75.3422910
 122.4856300 131.4136220  76.7180310 122.0786600 131.3625730  79.4952290
 121.1289310 131.3289270  79.6097280 122.2599610 132.2725840  79.2602060
 107.5805200 125.6666740  67.6453570 108.3033330 126.2075680  67.9634790
 107.8529720 125.3930160  66.7695110 121.3896850 130.5359210  71.9125150
 121.8855970 130.3030080  72.6974030 121.1912920 129.6971050  71.4962790
 107.2697390 124.9172930  77.5476190 107.9173580 124.3670310  77.1071350
 107.6899230 125.1716080  78.3692000 122.8184010 129.1720160  74.4462830
 122.7083290 129.0176200  75.3845100 123.5791600 128.6441100  74.2038240
 121.1649730 125.1114290  80.9045830 121.8021950 125.7248430  81.2705020
 121.3124620 125.1474950  79.9595060 123.7074280 127.0028080  67.6868970
 124.6323590 126.8709260  67.4787260 123.6850070 127.0820900  68.6405420
 123.7812770 127.7738740  70.3125680 122.9864270 127.7083860  70.8418590
 123.9856050 128.7089380  70.3011030 120.7231190 141.8130290  74.3064070
 121.3190260 141.4914860  73.6298490 120.9809340 141.3402110  75.0977340
 107.0229390 125.0728600  80.2901510 106.6744210 125.5292420  81.0559690
 106.6917090 124.1785730  80.3723940 108.6293760 138.2448200  84.4554700
 108.5863390 137.8741110  85.3369160 108.7604770 139.1825770  84.5956520
 112.3299790 139.8007790  80.0564420 112.0891150 140.0682350  79.1694940
 113.2702430 139.9713520  80.1115280 117.1728770 125.9210540  83.4513220
 117.7869180 126.2389830  82.7894300 117.7178330 125.4359130  84.0709080
 123.5903950 141.8202170  80.8575060 123.0962230 142.2171040  80.1402190
 122.9817240 141.1951380  81.2512340 107.6950030 124.6004800  83.5652280
 108.2433020 124.4192850  82.8018390 107.7605340 123.8098910  84.1008590
 108.4681790 141.1910450  81.5752480 107.8742110 141.0595150  82.3142520
 108.4605630 140.3548590  81.1094580 118.8208790 126.6913550  81.1624230
 118.4922150 125.8765310  80.7825960 119.7691090 126.6483360  81.0389920
 121.2743400 142.4625590  78.1361800 120.8146370 143.2141400  77.7619820
 120.6455860 141.7432060  78.0776600 108.0994020 138.5568830  80.5260520
 107.3728080 137.9374120  80.4586470 108.1603170 138.9509440  79.6558600
 111.7039120 140.7713830  77.3109930 112.2204140 140.1601190  76.7858190
 112.3536500 141.2742610  77.8020940 114.4434620 141.6622320  78.1378910
 114.7312430 141.4076620  77.2611920 114.9557840 141.1099680  78.7284480
 122.0771270 125.7350860  74.7733330 122.0159670 124.7912080  74.6264350
 122.8563300 125.8430950  75.3186790 106.3824020 141.8743220  73.7357280
 106.2146060 141.2413900  74.4339170 105.5158530 142.0802620  73.3851470
 107.0052040 125.7060000  71.2389140 107.7631400 125.8188880  70.6653170
 106.5429210 126.5429200  71.1932570 121.1925430 124.8863280  70.7414800
 121.3876060 125.7846730  71.0082230 120.4055300 124.6550360  71.2347750
 107.9886720 140.5676450  71.1807420 107.4634340 140.9484480  70.4769380
 107.9131300 141.1927220  71.9017130 114.5106980 142.5838420  85.5047110
 115.4374290 142.3482690  85.5483070 114.4957410 143.4110420  85.0233140
 122.7452040 142.1263990  72.5021360 122.9204230 141.4401730  71.8582280
 122.0473610 142.6511040  72.1098030 110.5879690 142.5158830  70.0556670
 111.3198510 142.2318110  69.5080560 110.8473360 142.2772110  70.9456050
 109.7494480 138.6323560  70.0603000 109.1203360 139.1008660  70.6088830
 109.8642310 137.7872780  70.4949190 118.2986050 124.6636750  85.8469460
 118.1851500 124.9831360  86.7420980 119.1155790 125.0649260  85.5506740
 121.0784540 141.8108280  85.3288150 121.8709860 141.3157510  85.1214110
 121.3717690 142.4898420  85.9363760 117.2044200 132.6829220  56.2104200
 117.1238250 131.7683830  55.9395910 116.7908620 133.1796290  55.5043910
 115.3362240 134.4608240  58.0913470 114.5604340 133.9808680  58.3812040
 115.9875170 133.7813890  57.9169630 109.3528070 134.7728050  58.9689230
 108.5212950 134.5176760  59.3685740 109.9609050 134.8438820  59.7047150
 119.3569670 138.8668430  56.8712600 118.8951200 138.0955670  57.1999770
 120.1695220 138.8934500  57.3765050 109.3329330 138.8068140  59.1647250
 109.6357370 137.9165880  58.9857470 110.0772920 139.3638360  58.9369500
 107.7620020 129.7329940  52.7531620 106.8736720 130.0745910  52.6511500
 108.0461210 129.5330260  51.8612450 115.5832980 141.1526440  56.4916590
 114.9644420 141.6083940  55.9211030 116.4384760 141.3077900  56.0906290
 114.7771230 137.1365430  58.0983630 114.7079510 136.1955370  57.9372760
 115.5391090 137.2266840  58.6706200 115.8076400 129.9435810  58.3252560
 116.1841220 129.0707690  58.2126230 115.7095910 130.2794510  57.4343000
 109.9381410 128.3161440  53.7870000 110.0448160 129.2165170  54.0938760
 109.0273770 128.2679410  53.4964650 119.5900520 127.4386250  55.2580900
 120.4110140 126.9482820  55.3006380 119.6234600 128.0283910  56.0112740
 111.7789140 131.2847810  58.1195180 112.2867360 131.7828780  58.7600200
 112.3102380 130.5083010  57.9434540 123.8800070 129.4553000  61.8224530
 123.1752240 129.8434710  61.3039640 124.1457990 130.1503290  62.4245460
 110.0625240 125.9246370  62.3858600 110.0643680 126.4418760  61.5804500
 109.2329550 125.4476550  62.3628530 116.4496330 136.0365680  53.8848500
 115.8313600 136.5015130  53.3211220 116.9619580 136.7293160  54.3018010
 111.3128090 135.5641550  60.5632100 110.9797470 136.1910470  61.2053170
 111.4894770 136.0903430  59.7833770 119.8262000 129.3786630  58.0308440
 119.1217570 129.6671520  58.6111550 120.1874160 130.1886740  57.6708000
 110.5247190 137.5322350  62.3781280 111.1421190 138.2073430  62.0965730
 109.6640310 137.9410330  62.2868780 105.8179530 136.7222210  51.2588130
 105.4407510 137.2109310  50.5273030 106.0752600 137.3947490  51.8894660
 121.4424780 138.9961760  60.2935920 120.7588300 139.6660870  60.2852590
 121.9819070 139.1942410  59.5280780 122.8948920 128.8241420  58.4217650
 121.9473830 128.8580400  58.5533080 123.2198910 129.6380370  58.8067010
 118.9783520 140.8405890  59.0081100 118.9910680 140.4368180  58.1403360
 118.4258740 141.6153180  58.9042530 120.2728940 137.5622110  54.0971270
 120.1625270 136.6196440  54.2220690 120.2697190 137.9237750  54.9834030
 118.3768960 135.7435730  60.3363710 118.7937750 135.5295840  59.5017170
 119.1008780 136.0008520  60.9072330 115.8149220 133.1887430  53.4533760
 114.8878500 133.1224810  53.6822230 115.9674040 134.1267560  53.3389000
 115.8018300 129.4604430  50.4500920 114.8621970 129.6218390  50.5353380
 116.1201560 130.1790110  49.9036910 122.3231060 134.1422950  60.4279950
 121.4949690 134.2116040  59.9530080 122.9181540 134.7277260  59.9595780
 119.8446510 134.7507730  53.9569010 119.2258930 134.4127280  53.3095310
 119.8270960 134.1067490  54.6648200 119.2873070 130.9292270  61.3734820
 118.8744250 131.7545980  61.6274810 118.5549020 130.3437310  61.1811180
 111.4205860 133.7152170  56.2353490 111.0162860 133.0029420  55.7399390
 111.5068980 133.3705410  57.1241530 111.8887560 137.4019730  58.3992700
 111.5915850 136.7965200  57.7200480 112.8387380 137.4397040  58.2882060
 110.1334480 130.4895380  60.0152530 110.6849070 130.5990720  59.2405780
 110.6477990 130.8632980  60.7307760 119.9773170 140.9751600  62.0615800
 119.5003730 141.7823790  61.8688410 119.2934960 140.3229930  62.2142010
 110.9805990 137.1401420  65.0500500 110.0834520 137.3641390  65.2973900
 111.0058860 137.2636360  64.1011900 118.0211210 133.9894540  50.9641760
 118.4604490 133.1516970  50.8179580 118.7339630 134.6223940  51.0505900
 109.8077210 134.0114740  63.6257870 109.6684980 134.8837540  63.9945270
 108.9258570 133.6687550  63.4805810 116.1306590 138.9290610  54.9323000
 116.5702500 139.6714940  54.5178390 116.0693480 139.1717180  55.8561960
 111.6057560 139.9536440  65.8343020 111.5772990 140.3579390  64.9671450
 111.4422530 139.0246800  65.6714620 121.6028350 125.2437350  49.2782800
 121.2901010 125.3364180  50.1781870 122.3640820 125.8218380  49.2280230
 108.1210490 132.6097150  53.7360140 108.0008090 133.3359240  53.1241410
 107.8111380 131.8400060  53.2588050 123.5572380 140.7363540  67.1307190
 124.0332100 141.2146430  67.8096270 124.1779540 140.6681030  66.4052690
 105.7595860 135.7812290  59.5428780 105.8376280 135.9161060  58.5984500
 106.3737540 135.0728180  59.7356900 107.0043490 137.4812480  55.9534960
 106.5971570 137.6227070  55.0988560 107.8956500 137.1972640  55.7506170
 122.9605630 137.9276390  64.2907200 123.0868690 137.6888270  63.3724380
 123.0027010 137.0960930  64.7629280 116.8222370 141.6304390  62.8602010
 117.3367040 141.5412400  63.6624440 115.9791450 141.9764090  63.1529920
 118.7976770 141.9159730  52.2886010 118.6377910 141.6262670  53.1867840
 118.6323480 141.1399860  51.7531240 111.2765150 141.6958260  54.0657630
 111.1007630 140.7793800  53.8525430 110.4220890 142.0545550  54.3055430
 118.5002900 139.4247290  50.8484010 117.8068060 139.4224580  50.1886290
 119.2425760 139.0006610  50.4178180 118.0652830 141.0510000  54.9232500
 118.5209780 140.2699380  55.2371120 118.4045350 141.7616820  55.4673680
 122.8129640 129.9808850  65.2556940 122.1973910 130.4888520  64.7272400
 122.4926060 129.0807180  65.1982880 105.8155380 136.8226460  62.0823240
 105.9786420 136.3531820  61.2642610 106.2807830 136.3150020  62.7472080
 110.5874150 125.9532220  57.1183810 110.1442300 126.7341760  56.7868330
 111.1459140 126.2762110  57.8254750 114.8743960 128.8200740  62.7219130
 114.4123330 129.0283760  63.5339070 114.4722070 128.0060090  62.4189800
 119.8748470 130.0409690  63.8515790 119.0242060 129.7415440  64.1724860
 119.7150260 130.2851700  62.9399610 116.9698180 131.5411440  65.9514580
 117.2951590 130.7075190  65.6116810 117.7578510 132.0639960  66.0992910
 113.7032970 125.5742920  51.9989640 113.0787150 125.5702790  52.7242950
 113.6163090 124.7073880  51.6025610 112.6250050 126.4979550  58.9773410
 112.9222380 127.4042380  58.8965430 113.1735610 126.0098330  58.3632980
 110.3788370 131.0765790  54.8465060 110.1529290 130.8602960  55.7511680
 109.5980900 131.5094250  54.5011030 117.6086130 131.0829160  53.4455710
 117.0095020 131.8064960  53.2619330 118.1565740 131.0205940  52.6632160
 112.8187580 131.9751370  65.5125330 112.7231180 131.0346100  65.3625730
 113.6619560 132.1966440  65.1173400 116.2151000 129.7192700  55.4758990
 116.6080570 130.0364900  54.6627680 116.5767850 128.8404580  55.5903510
 107.9498120 128.3865040  63.6659110 107.5561510 129.2340250  63.8731890
 107.2616520 127.7491410  63.8567750 114.5243170 128.4700010  66.7355850
 113.8341490 128.2772210  67.3701940 115.2675470 128.7534650  67.2680150
 105.4385400 130.2513620  48.9091910 105.3560070 131.1944380  49.0506900
 105.0868460 130.1088530  48.0304260 116.8006140 132.3098450  59.5709770
 116.0687260 132.8185260  59.9199870 116.4030480 131.4928430  59.2698550
 113.2383530 128.9852650  57.9762260 113.2419590 128.5442600  57.1266800
 114.1334650 129.3069980  58.0834080 113.3003680 129.9864730  50.9669020
 113.4216500 129.9451210  51.9154840 112.9152190 130.8488880  50.8115750
 117.2632050 127.7632130  58.9832710 117.2804790 128.2140780  59.8274560
 117.0147630 126.8637770  59.1966150 112.3125180 132.2965870  50.3652320
 111.7442080 131.8484120  49.7388230 113.0214180 132.6558650  49.8317470
 120.6902800 125.1764310  64.8219090 121.0148570 124.4453970  65.3477070
 120.7259310 124.8577950  63.9200080 107.3894360 136.1977890  64.2419050
 107.0049150 135.5571560  64.8402010 107.7006550 136.9014010  64.8113780
 113.5391500 133.0454430  59.7227670 113.9061630 132.5713000  60.4689010
 113.3496560 133.9196000  60.0636010 111.3290870 132.0863070  62.0411880
 111.0247940 132.9655050  62.2662240 112.2837330 132.1462860  62.0769320
 109.8572660 136.2924060  52.6378730 109.0834920 135.7521680  52.4777450
 110.5867290 135.7730670  52.2996490 120.6160640 135.2889420  58.4305120
 121.3359760 135.7844710  58.0401230 120.4142460 134.6107310  57.7858990
 116.0770580 126.6827380  52.5734510 115.2635190 126.1840550  52.4979820
 115.8832530 127.5225630  52.1570860 115.9979440 135.3598480  64.3174120
 115.9316750 134.4394150  64.0631710 115.3684580 135.4573920  65.0318760
 118.7918970 131.0547030  50.8696670 119.6798590 131.3664260  50.6948010
 118.7624060 130.1819280  50.4777250 109.9010060 135.9604440  56.2757540
 110.4188730 135.1572700  56.2214430 109.4494080 135.8983580  57.1174370
 114.7879560 137.2270720  51.5484840 115.1295260 137.9712950  51.0528160
 113.9592270 137.5401840  51.9109670 107.3854600 132.9265810  63.1883240
 107.0269540 133.5919660  63.7756580 107.0909160 132.0949360  63.5595860
 110.5867720 133.3850050  66.0722790 110.2867860 133.5307230  65.1750610
 111.3578960 132.8255340  65.9796180 115.9296170 138.1819050  64.0677920
 115.9440710 137.2500010  63.8496830 115.2221270 138.2678810  64.7067690
 121.0633240 132.3658870  50.3376530 120.9796960 132.7973090  49.4872970
 121.7827430 132.8257220  50.7703350 122.1407380 134.8226390  63.4146500
 121.4155570 135.4155170  63.2175890 122.6682840 134.8149930  62.6159870
 122.0920490 139.2201130  53.0658660 121.4496650 138.5656750  53.3402380
 121.7051150 139.6256220  52.2899330 117.6706970 136.5486560  56.9130350
 118.0230790 135.9514690  56.2531720 116.7869300 136.2230790  57.0838600
 113.7570250 137.3084250  54.3200760 114.4441380 137.8553460  54.7008350
 112.9702670 137.8524980  54.3550370 105.8962650 132.9257070  49.8117840
 106.7657500 133.2081870  50.0953760 105.4052970 133.7392940  49.6966650
 113.0597460 134.3130280  53.9326120 113.5160240 135.1235530  54.1586310
 112.7085670 133.9953420  54.7644610 115.3630070 139.8236620  61.1618420
 116.0072290 140.0296000  61.8391840 115.7259510 139.0625020  60.7089270
 116.6362150 137.8268970  59.8795870 117.2784380 137.1262130  59.9928040
 117.1611500 138.6067410  59.6992760 120.4817870 138.1117590  49.6035010
 120.2555450 137.3948030  50.1959650 120.0914070 137.8630030  48.7656760
 118.4099770 138.6263870  63.0831930 118.7456010 139.2130560  63.7609850
 117.4900110 138.4956580  63.3129720 106.2633900 142.1384450  50.3779470
 106.6231540 142.7373790  49.7236740 106.1226240 142.6844340  51.1514500
 120.0634120 136.0289530  51.2649170 119.7755820 136.4902220  52.0527050
 120.8586290 135.5687300  51.5333390 106.2475760 140.4039310  64.8521870
 106.3566880 139.4634050  64.7117260 105.5956320 140.6694060  64.2035600
 114.2388350 138.6755200  66.2519990 113.9185220 137.9564440  66.7965680
 113.5646710 139.3510270  66.3256050 112.2802520 139.5215650  51.1953140
 112.2712620 140.2545340  50.5797650 111.3600880 139.2747230  51.2880100
 107.8809160 134.7430540  51.9399900 107.2737110 135.4829440  51.9495200
 108.3558510 134.8329900  51.1138100 117.4541950 128.9081360  61.6156790
 117.8222770 128.0876570  61.9436360 116.5940150 128.9683250  62.0312440
 120.8203980 127.8638300  52.4244350 120.1917140 127.9683970  51.7102580
 120.3255900 128.0835080  53.2138230 115.2662120 139.5843890  49.8578330
 115.3674100 139.3807880  48.9280310 114.3663860 139.3302170  50.0626110
 112.7888010 130.1424250  53.8402230 112.0804160 130.6110590  54.2815840
 113.0732490 129.4846260  54.4747420 114.4143940 131.5620950  61.8394760
 114.9129190 132.0366770  62.5046610 114.5566890 130.6384470  62.0464790
 116.8203440 126.8674910  55.2798020 116.6971220 126.8861040  54.3307530
 117.7688000 126.9153850  55.3996420 113.9080230 142.1030210  54.5526000
 114.1621730 142.0651600  53.6305370 112.9592710 141.9763540  54.5454250
 110.9923030 128.4509330  51.2152940 111.8413560 128.8879480  51.1493130
 110.6254300 128.7629590  52.0425000 121.6210800 127.7788910  62.6823150
 121.1184400 128.5194310  63.0216960 122.4367460 128.1672910  62.3659940
 119.9132810 133.0222090  56.1284510 118.9722950 133.0372320  56.3032200
 120.2276880 132.2358050  56.5744810 109.8914450 134.7041690  49.6888470
 110.6577720 134.5923050  50.2513900 109.9689140 134.0079660  49.0365240
 108.5861210 132.1366760  50.3721360 108.6664800 131.1894270  50.4838760
 109.4780960 132.4673640  50.4782020 121.9158390 140.1930940  57.8038770
 122.0405810 141.0162110  58.2762580 122.7823950 139.9821670  57.4562920
 109.3875920 142.2862150  57.4755900 110.1238400 141.7377610  57.7464470
 109.7716840 143.1518160  57.3361890 106.2721400 138.3535720  53.3497410
 105.3461180 138.5956860  53.3402820 106.7377830 139.1809980  53.2282160
 108.3934200 141.4708220  66.6641480 109.1946930 141.7920270  67.0776880
 107.8786020 141.1103800  67.3861390 112.4978230 141.4592460  49.2981470
 113.2906840 141.7481290  48.8463260 111.9782580 141.0284630  48.6193950
 117.2298830 137.5788090  66.6116890 116.6236990 137.6019690  65.8712640
 116.9252940 136.8471130  67.1484140 118.6599200 141.3068380  65.2226300
 119.6120950 141.2226400  65.1726540 118.5127420 141.9710090  65.8960090
 121.5508400 140.6862590  50.7218210 121.2649910 140.2727730  49.9072390
 121.3527950 141.6150300  50.6018730 106.1132010 133.9581680  65.6077530
 106.6171030 133.3788960  66.1793760 105.3739430 134.2421910  66.1453900
 113.0155630 136.6795870  49.1623820 112.9106270 136.0648220  49.8885200
 112.8479850 136.1561760  48.3786830 113.1669950 135.3652670  65.1413050
 112.4015620 135.9337670  65.0567720 113.3485910 135.0728880  64.2481280
 116.2558360 135.7415900  49.7665810 115.7068460 136.1885200  50.4108550
 116.8777620 135.2365150  50.2903480 120.3093300 137.0958000  65.6988070
 121.0502770 137.4333760  65.1955530 119.5465980 137.2650060  65.1457840
 108.1455090 132.1011270  66.5027600 108.1860430 131.8025140  67.4112830
 109.0000590 132.5018880  66.3435120 111.9233480 134.7006820  51.6631110
 112.3449900 134.5346690  52.5062500 112.0484320 133.8907050  51.1686250
 110.0860900 130.6803370  64.4702090 109.5557360 130.1894320  63.8425430
 110.7548970 131.1087570  63.9360020 114.4361120 133.7244430  48.9108210
 114.9566780 133.0093450  48.5449360 115.0829520 134.3630300  49.2108720
 118.9838960 135.1472830  64.2343280 119.3979980 135.3017910  65.0833700
 118.0489960 135.2728050  64.3969060 119.4561130 132.4868990  66.2382430
 120.0381900 131.7321310  66.1502910 119.6322900 133.0176430  65.4613910
 113.7454190 135.0993310  62.2039210 114.1642300 135.9426040  62.0315450
 112.8262820 135.2365350  61.9745990 116.0818090 132.8309490  63.5877050
 116.2014300 132.2350630  64.3271890 116.9412090 132.8679180  63.1678350
 118.4205990 133.3846680  62.1639560 117.8941210 133.9089300  61.5604700
 118.7637330 134.0174070  62.7949290 110.8192380 130.7740050  48.6089270
 110.6181440 129.9107410  48.9702610 110.6484430 130.6873410  47.6710870
 111.5961610 141.4046320  63.3196940 111.0582700 142.1292380  63.0005640
 111.8495570 140.9276660  62.5294280 112.8486860 129.3730840  64.8452870
 113.4386550 129.0646690  65.5330690 112.0307100 128.9010590  65.0012770
 117.6680290 128.9896650  65.0785890 116.9795810 128.3278190  65.0135880
 118.3886310 128.5434920  65.5234350 118.2980690 125.5848280  51.1376150
 118.5782980 124.7416180  51.4935570 117.5246420 125.8171390  51.6514900
 109.6175180 127.8740670  48.5967150 109.9201080 127.8808100  47.6886300
 110.3569770 127.5238530  49.0934810 114.4523820 142.6397530  63.5783590
 114.3782520 143.5432670  63.8855960 113.5502660 142.3209430  63.5505660
 112.8360110 126.8175290  49.5823350 112.4882110 126.1399280  49.0025800
 113.0372880 126.3564800  50.3966740 115.0009150 141.8056040  51.2009950
 115.8959940 142.1441010  51.2228710 115.0326780 141.0835450  50.5734230
 108.6405310 137.1783090  49.4296950 109.0780180 137.7212760  50.0854530
 109.1253040 136.3530040  49.4393290 105.8551110 139.9672120  56.8817210
 106.1854120 139.0993180  56.6495850 106.2842110 140.1730640  57.7122170
 110.4513030 138.2981130  54.5419180 110.1508570 138.1746100  55.4423090
 110.3450520 137.4389720  54.1334910 106.3441320 140.8342710  59.6198840
 105.9072310 141.0143510  60.4522990 106.9119000 141.5917330  59.4780560
 121.9803500 140.3359710  63.9076150 121.3805490 140.3952270  63.1640070
 122.1097400 139.3964690  64.0373000 123.2204950 138.0777530  49.2445860
 122.3897910 138.1454180  49.7153090 123.3976780 138.9681650  48.9412720
 122.6761410 134.8225010  51.7480060 123.4380320 135.3921660  51.8539750
 122.6915780 134.2552210  52.5188370 106.1765750 133.3462940  55.9787720
 105.5214590 133.0774580  55.3347420 107.0143700 133.2367420  55.5289700
 123.6821380 135.6775110  56.5921990 124.0530210 134.8942430  56.1857960
 124.3223310 136.3664210  56.4139290 120.6655140 137.0611690  62.0052310
 119.8514980 137.4908850  62.2678100 121.0729340 137.6730100  61.3921360
 122.7280580 135.1159380  48.9052580 123.0029420 136.0238260  48.7771800
 122.5391320 135.0521910  49.8414570 119.1256190 128.1404230  50.2006210
 119.5441070 127.9535210  49.3602870 118.8192250 127.2883280  50.5109140
 122.6245920 133.0528370  53.8982010 122.2489520 132.2856300  53.4663300
 121.8949040 133.4351070  54.3856940 107.2141680 133.7315510  60.5191060
 107.5814720 133.6442910  61.3987080 106.6452500 132.9682060  60.4197920
 122.0145540 132.1999890  63.5321530 121.7831630 131.9712640  62.6319480
 122.2750090 133.1199440  63.4866420 106.7657680 130.6424600  64.4249480
 105.8713730 130.6091360  64.7643190 107.3055230 130.8411390  65.1900730
 120.4533610 127.4256320  66.3101230 121.3303790 127.4339720  66.6935230
 120.4654450 126.6887160  65.6993580 105.3903830 130.5561870  51.9213050
 104.4867910 130.8192070  51.7464710 105.8744450 130.8273040  51.1413010
 121.8996880 131.2785860  57.1989250 122.4234360 130.7848510  56.5679420
 122.4856300 131.4136220  57.9436820 122.0786600 131.3625730  60.7208800
 121.1289310 131.3289270  60.8353790 122.2599610 132.2725840  60.4858570
 107.9331040 129.6127410  49.8307430 108.6422740 129.1910630  49.3454710
 107.2170980 129.6802640  49.1990780 121.3896850 130.5359210  53.1381660
 121.8855970 130.3030080  53.9230540 121.1912920 129.6971050  52.7219300
 122.8184010 129.1720160  55.6719340 122.7083290 129.0176200  56.6101610
 123.5791600 128.6441100  55.4294750 121.1649730 125.1114290  62.1302340
 121.8021950 125.7248430  62.4961530 121.3124620 125.1474950  61.1851570
 123.7074280 127.0028080  48.9125480 124.6323590 126.8709260  48.7043770
 123.6850070 127.0820900  49.8661930 123.7812770 127.7738740  51.5382190
 122.9864270 127.7083860  52.0675100 123.9856050 128.7089380  51.5267540
 120.7231190 141.8130290  55.5320580 121.3190260 141.4914860  54.8555000
 120.9809340 141.3402110  56.3233850 108.6293760 138.2448200  65.6811210
 108.5863390 137.8741110  66.5625670 108.7604770 139.1825770  65.8213030
 112.3299790 139.8007790  61.2820930 112.0891150 140.0682350  60.3951450
 113.2702430 139.9713520  61.3371790 114.5354210 126.2640480  65.0377440
 114.4743100 126.8562310  65.7872850 115.4754590 126.1566440  64.8927700
 117.1728770 125.9210540  64.6769730 117.7869180 126.2389830  64.0150810
 117.7178330 125.4359130  65.2965590 123.5903950 141.8202170  62.0831570
 123.0962230 142.2171040  61.3658700 122.9817240 141.1951380  62.4768850
 107.6950030 124.6004800  64.7908790 108.2433020 124.4192850  64.0274900
 107.7605340 123.8098910  65.3265100 108.4681790 141.1910450  62.8008990
 107.8742110 141.0595150  63.5399030 108.4605630 140.3548590  62.3351090
 118.8208790 126.6913550  62.3880740 118.4922150 125.8765310  62.0082470
 119.7691090 126.6483360  62.2646430 121.2743400 142.4625590  59.3618310
 120.8146370 143.2141400  58.9876330 120.6455860 141.7432060  59.3033110
 108.0994020 138.5568830  61.7517030 107.3728080 137.9374120  61.6842980
 108.1603170 138.9509440  60.8815110 111.7039120 140.7713830  58.5366440
 112.2204140 140.1601190  58.0114700 112.3536500 141.2742610  59.0277450
 114.4434620 141.6622320  59.3635420 114.7312430 141.4076620  58.4868430
 114.9557840 141.1099680  59.9540990 120.2132700 126.1035620  57.9881020
 120.6540790 126.0480720  57.1402620 119.9440290 127.0193630  58.0591200
 122.0771270 125.7350860  55.9989840 122.0159670 124.7912080  55.8520860
 122.8563300 125.8430950  56.5443300 106.3824020 141.8743220  54.9613790
 106.2146060 141.2413900  55.6595680 105.5158530 142.0802620  54.6107980
 113.5465850 127.8199270  55.4547960 112.7340360 127.4456160  55.1143840
 114.0507490 127.0644350  55.7569150 121.1925430 124.8863280  51.9671310
 121.3876060 125.7846730  52.2338740 120.4055300 124.6550360  52.4604260
 107.9886720 140.5676450  52.4063930 107.4634340 140.9484480  51.7025890
 107.9131300 141.1927220  53.1273640 111.5715030 125.9699190  54.0593010
 110.9417770 125.2686500  54.2263140 111.0320170 126.7303320  53.8426170
 114.5106980 142.5838420  66.7303620 115.4374290 142.3482690  66.7739580
 114.4957410 143.4110420  66.2489650 122.7452040 142.1263990  53.7277870
 122.9204230 141.4401730  53.0838790 122.0473610 142.6511040  53.3354540
 110.5879690 142.5158830  51.2813180 111.3198510 142.2318110  50.7337070
 110.8473360 142.2772110  52.1712560 109.7494480 138.6323560  51.2859510
 109.1203360 139.1008660  51.8345340 109.8642310 137.7872780  51.7205700
 121.0784540 141.8108280  66.5544660 121.8709860 141.3157510  66.3470620
 121.3717690 142.4898420  67.1620270 117.2044200 132.6829220  37.4360710
 117.1238250 131.7683830  37.1652420 116.7908620 133.1796290  36.7300420
 115.3362240 134.4608240  39.3169980 114.5604340 133.9808680  39.6068550
 115.9875170 133.7813890  39.1426140 109.3528070 134.7728050  40.1945740
 108.5212950 134.5176760  40.5942250 109.9609050 134.8438820  40.9303660
 119.3569670 138.8668430  38.0969110 118.8951200 138.0955670  38.4256280
 120.1695220 138.8934500  38.6021560 109.3329330 138.8068140  40.3903760
 109.6357370 137.9165880  40.2113980 110.0772920 139.3638360  40.1626010
 107.7620020 129.7329940  33.9788130 106.8736720 130.0745910  33.8768010
 108.0461210 129.5330260  33.0868960 105.7253030 132.3335590  39.8627830
 106.2969140 131.5657790  39.8631470 105.7254570 132.6324350  38.9534440
 115.5832980 141.1526440  37.7173100 114.9644420 141.6083940  37.1467540
 116.4384760 141.3077900  37.3162800 114.7771230 137.1365430  39.3240140
 114.7079510 136.1955370  39.1629270 115.5391090 137.2266840  39.8962710
 106.9677900 127.7419950  41.6496760 106.7880740 126.8445700  41.9299520
 106.5657980 128.2891820  42.3243710 115.8076400 129.9435810  39.5509070
 116.1841220 129.0707690  39.4382740 115.7095910 130.2794510  38.6599510
 109.9381410 128.3161440  35.0126510 110.0448160 129.2165170  35.3195270
 109.0273770 128.2679410  34.7221160 119.5900520 127.4386250  36.4837410
 120.4110140 126.9482820  36.5262890 119.6234600 128.0283910  37.2369250
 107.5864570 130.2380450  40.2579100 108.2674680 130.5018820  40.8766500
 107.2712620 129.3981320  40.5917110 111.7789140 131.2847810  39.3451690
 112.2867360 131.7828780  39.9856710 112.3102380 130.5083010  39.1691050
 123.8800070 129.4553000  43.0481040 123.1752240 129.8434710  42.5296150
 124.1457990 130.1503290  43.6501970 110.0625240 125.9246370  43.6115110
 110.0643680 126.4418760  42.8061010 109.2329550 125.4476550  43.5885040
 116.4496330 136.0365680  35.1105010 115.8313600 136.5015130  34.5467730
 116.9619580 136.7293160  35.5274520 111.3128090 135.5641550  41.7888610
 110.9797470 136.1910470  42.4309680 111.4894770 136.0903430  41.0090280
 119.8262000 129.3786630  39.2564950 119.1217570 129.6671520  39.8368060
 120.1874160 130.1886740  38.8964510 109.7440570 127.6356330  41.6185560
 110.0857380 128.4798380  41.3239430 108.8056380 127.7840070  41.7350900
 110.5247190 137.5322350  43.6037790 111.1421190 138.2073430  43.3222240
 109.6640310 137.9410330  43.5125290 105.8179530 136.7222210  32.4844640
 105.4407510 137.2109310  31.7529540 106.0752600 137.3947490  33.1151170
 121.4424780 138.9961760  41.5192430 120.7588300 139.6660870  41.5109100
 121.9819070 139.1942410  40.7537290 122.8948920 128.8241420  39.6474160
 121.9473830 128.8580400  39.7789590 123.2198910 129.6380370  40.0323520
 113.4268460 125.1238600  37.9430150 113.7343440 124.5685490  37.2265650
 112.4969160 125.2583060  37.7603140 118.9783520 140.8405890  40.2337610
 118.9910680 140.4368180  39.3659870 118.4258740 141.6153180  40.1299040
 120.2728940 137.5622110  35.3227780 120.1625270 136.6196440  35.4477200
 120.2697190 137.9237750  36.2090540 118.3768960 135.7435730  41.5620220
 118.7937750 135.5295840  40.7273680 119.1008780 136.0008520  42.1328840
 115.8149220 133.1887430  34.6790270 114.8878500 133.1224810  34.9078740
 115.9674040 134.1267560  34.5645510 115.8018300 129.4604430  31.6757430
 114.8621970 129.6218390  31.7609890 116.1201560 130.1790110  31.1293420
 122.3231060 134.1422950  41.6536460 121.4949690 134.2116040  41.1786590
 122.9181540 134.7277260  41.1852290 119.8446510 134.7507730  35.1825520
 119.2258930 134.4127280  34.5351820 119.8270960 134.1067490  35.8904710
 119.2873070 130.9292270  42.5991330 118.8744250 131.7545980  42.8531320
 118.5549020 130.3437310  42.4067690 111.4205860 133.7152170  37.4610000
 111.0162860 133.0029420  36.9655900 111.5068980 133.3705410  38.3498040
 111.8887560 137.4019730  39.6249210 111.5915850 136.7965200  38.9456990
 112.8387380 137.4397040  39.5138570 110.1334480 130.4895380  41.2409040
 110.6849070 130.5990720  40.4662290 110.6477990 130.8632980  41.9564270
 119.9773170 140.9751600  43.2872310 119.5003730 141.7823790  43.0944920
 119.2934960 140.3229930  43.4398520 110.9805990 137.1401420  46.2757010
 110.0834520 137.3641390  46.5230410 111.0058860 137.2636360  45.3268410
 118.0211210 133.9894540  32.1898270 118.4604490 133.1516970  32.0436090
 118.7339630 134.6223940  32.2762410 109.8077210 134.0114740  44.8514380
 109.6684980 134.8837540  45.2201780 108.9258570 133.6687550  44.7062320
 116.1306590 138.9290610  36.1579510 116.5702500 139.6714940  35.7434900
 116.0693480 139.1717180  37.0818470 111.6057560 139.9536440  47.0599530
 111.5772990 140.3579390  46.1927960 111.4422530 139.0246800  46.8971130
 121.6028350 125.2437350  30.5039310 121.2901010 125.3364180  31.4038380
 122.3640820 125.8218380  30.4536740 108.1210490 132.6097150  34.9616650
 108.0008090 133.3359240  34.3497920 107.8111380 131.8400060  34.4844560
 123.5572380 140.7363540  48.3563700 124.0332100 141.2146430  49.0352780
 124.1779540 140.6681030  47.6309200 105.7595860 135.7812290  40.7685290
 105.8376280 135.9161060  39.8241010 106.3737540 135.0728180  40.9613410
 107.0043490 137.4812480  37.1791470 106.5971570 137.6227070  36.3245070
 107.8956500 137.1972640  36.9762680 122.9605630 137.9276390  45.5163710
 123.0868690 137.6888270  44.5980890 123.0027010 137.0960930  45.9885790
 116.8222370 141.6304390  44.0858520 117.3367040 141.5412400  44.8880950
 115.9791450 141.9764090  44.3786430 118.7976770 141.9159730  33.5142520
 118.6377910 141.6262670  34.4124350 118.6323480 141.1399860  32.9787750
 111.2765150 141.6958260  35.2914140 111.1007630 140.7793800  35.0781940
 110.4220890 142.0545550  35.5311940 118.5002900 139.4247290  32.0740520
 117.8068060 139.4224580  31.4142800 119.2425760 139.0006610  31.6434690
 118.0652830 141.0510000  36.1489010 118.5209780 140.2699380  36.4627630
 118.4045350 141.7616820  36.6930190 122.8129640 129.9808850  46.4813450
 122.1973910 130.4888520  45.9528910 122.4926060 129.0807180  46.4239390
 105.8155380 136.8226460  43.3079750 105.9786420 136.3531820  42.4899120
 106.2807830 136.3150020  43.9728590 110.5874150 125.9532220  38.3440320
 110.1442300 126.7341760  38.0124840 111.1459140 126.2762110  39.0511260
 114.8743960 128.8200740  43.9475640 114.4123330 129.0283760  44.7595580
 114.4722070 128.0060090  43.6446310 119.8748470 130.0409690  45.0772300
 119.0242060 129.7415440  45.3981370 119.7150260 130.2851700  44.1656120
 116.9698180 131.5411440  47.1771090 117.2951590 130.7075190  46.8373320
 117.7578510 132.0639960  47.3249420 113.7032970 125.5742920  33.2246150
 113.0787150 125.5702790  33.9499460 113.6163090 124.7073880  32.8282120
 112.6250050 126.4979550  40.2029920 112.9222380 127.4042380  40.1221940
 113.1735610 126.0098330  39.5889490 110.3788370 131.0765790  36.0721570
 110.1529290 130.8602960  36.9768190 109.5980900 131.5094250  35.7267540
 117.6086130 131.0829160  34.6712220 117.0095020 131.8064960  34.4875840
 118.1565740 131.0205940  33.8888670 112.8187580 131.9751370  46.7381840
 112.7231180 131.0346100  46.5882240 113.6619560 132.1966440  46.3429910
 116.2151000 129.7192700  36.7015500 116.6080570 130.0364900  35.8884190
 116.5767850 128.8404580  36.8160020 107.9498120 128.3865040  44.8915620
 107.5561510 129.2340250  45.0988400 107.2616520 127.7491410  45.0824260
 114.5243170 128.4700010  47.9612360 113.8341490 128.2772210  48.5958450
 115.2675470 128.7534650  48.4936660 105.2515170 126.3093500  38.9245700
 104.9628220 126.8796360  39.6370680 105.9960930 125.8297950  39.2876930
 105.4385400 130.2513620  30.1348420 105.3560070 131.1944380  30.2763410
 105.0868460 130.1088530  29.2560770 116.8006140 132.3098450  40.7966280
 116.0687260 132.8185260  41.1456380 116.4030480 131.4928430  40.4955060
 113.2383530 128.9852650  39.2018770 113.2419590 128.5442600  38.3523310
 114.1334650 129.3069980  39.3090590 109.0885910 128.8679140  38.1612980
 108.7485960 129.3454370  38.9180030 108.3263230 128.4144260  37.8014080
 113.3003680 129.9864730  32.1925530 113.4216500 129.9451210  33.1411350
 112.9152190 130.8488880  32.0372260 117.2632050 127.7632130  40.2089220
 117.2804790 128.2140780  41.0531070 117.0147630 126.8637770  40.4222660
 112.3125180 132.2965870  31.5908830 111.7442080 131.8484120  30.9644740
 113.0214180 132.6558650  31.0573980 120.6902800 125.1764310  46.0475600
 121.0148570 124.4453970  46.5733580 120.7259310 124.8577950  45.1456590
 107.3894360 136.1977890  45.4675560 107.0049150 135.5571560  46.0658520
 107.7006550 136.9014010  46.0370290 113.5391500 133.0454430  40.9484180
 113.9061630 132.5713000  41.6945520 113.3496560 133.9196000  41.2892520
 106.4031990 127.7898120  37.0777650 106.1178910 127.4253790  37.9156270
 106.3410850 127.0578580  36.4640790 111.3290870 132.0863070  43.2668390
 111.0247940 132.9655050  43.4918750 112.2837330 132.1462860  43.3025830
 109.8572660 136.2924060  33.8635240 109.0834920 135.7521680  33.7033960
 110.5867290 135.7730670  33.5253000 120.6160640 135.2889420  39.6561630
 121.3359760 135.7844710  39.2657740 120.4142460 134.6107310  39.0115500
 116.0770580 126.6827380  33.7991020 115.2635190 126.1840550  33.7236330
 115.8832530 127.5225630  33.3827370 115.9979440 135.3598480  45.5430630
 115.9316750 134.4394150  45.2888220 115.3684580 135.4573920  46.2575270
 118.7918970 131.0547030  32.0953180 119.6798590 131.3664260  31.9204520
 118.7624060 130.1819280  31.7033760 109.9010060 135.9604440  37.5014050
 110.4188730 135.1572700  37.4470940 109.4494080 135.8983580  38.3430880
 114.7879560 137.2270720  32.7741350 115.1295260 137.9712950  32.2784670
 113.9592270 137.5401840  33.1366180 107.3854600 132.9265810  44.4139750
 107.0269540 133.5919660  45.0013090 107.0909160 132.0949360  44.7852370
 110.5867720 133.3850050  47.2979300 110.2867860 133.5307230  46.4007120
 111.3578960 132.8255340  47.2052690 115.9296170 138.1819050  45.2934430
 115.9440710 137.2500010  45.0753340 115.2221270 138.2678810  45.9324200
 121.0633240 132.3658870  31.5633040 120.9796960 132.7973090  30.7129480
 121.7827430 132.8257220  31.9959860 122.1407380 134.8226390  44.6403010
 121.4155570 135.4155170  44.4432400 122.6682840 134.8149930  43.8416380
 122.0920490 139.2201130  34.2915170 121.4496650 138.5656750  34.5658890
 121.7051150 139.6256220  33.5155840 117.6706970 136.5486560  38.1386860
 118.0230790 135.9514690  37.4788230 116.7869300 136.2230790  38.3095110
 113.7570250 137.3084250  35.5457270 114.4441380 137.8553460  35.9264860
 112.9702670 137.8524980  35.5806880 105.8962650 132.9257070  31.0374350
 106.7657500 133.2081870  31.3210270 105.4052970 133.7392940  30.9223160
 113.0597460 134.3130280  35.1582630 113.5160240 135.1235530  35.3842820
 112.7085670 133.9953420  35.9901120 115.3630070 139.8236620  42.3874930
 116.0072290 140.0296000  43.0648350 115.7259510 139.0625020  41.9345780
 108.9609240 124.6567930  35.6305150 108.8323870 124.6485830  36.5790070
 108.1371260 124.9951020  35.2796160 116.6362150 137.8268970  41.1052380
 117.2784380 137.1262130  41.2184550 117.1611500 138.6067410  40.9249270
 120.4817870 138.1117590  30.8291520 120.2555450 137.3948030  31.4216160
 120.0914070 137.8630030  29.9913270 118.4099770 138.6263870  44.3088440
 118.7456010 139.2130560  44.9866360 117.4900110 138.4956580  44.5386230
 106.2633900 142.1384450  31.6035980 106.6231540 142.7373790  30.9493250
 106.1226240 142.6844340  32.3771010 105.9603170 126.4159050  45.0911850
 105.2461690 126.6155970  45.6964460 106.3798210 125.6398620  45.4626650
 120.0634120 136.0289530  32.4905680 119.7755820 136.4902220  33.2783560
 120.8586290 135.5687300  32.7589900 106.2475760 140.4039310  46.0778380
 106.3566880 139.4634050  45.9373770 105.5956320 140.6694060  45.4292110
 114.2388350 138.6755200  47.4776500 113.9185220 137.9564440  48.0222190
 113.5646710 139.3510270  47.5512560 112.2802520 139.5215650  32.4209650
 112.2712620 140.2545340  31.8054160 111.3600880 139.2747230  32.5136610
 107.8809160 134.7430540  33.1656410 107.2737110 135.4829440  33.1751710
 108.3558510 134.8329900  32.3394610 117.4541950 128.9081360  42.8413300
 117.8222770 128.0876570  43.1692870 116.5940150 128.9683250  43.2568950
 120.8203980 127.8638300  33.6500860 120.1917140 127.9683970  32.9359090
 120.3255900 128.0835080  34.4394740 115.2662120 139.5843890  31.0834840
 115.3674100 139.3807880  30.1536820 114.3663860 139.3302170  31.2882620
 112.7888010 130.1424250  35.0658740 112.0804160 130.6110590  35.5072350
 113.0732490 129.4846260  35.7003930 114.4143940 131.5620950  43.0651270
 114.9129190 132.0366770  43.7303120 114.5566890 130.6384470  43.2721300
 116.8203440 126.8674910  36.5054530 116.6971220 126.8861040  35.5564040
 117.7688000 126.9153850  36.6252930 113.9080230 142.1030210  35.7782510
 114.1621730 142.0651600  34.8561880 112.9592710 141.9763540  35.7710760
 110.9923030 128.4509330  32.4409450 111.8413560 128.8879480  32.3749640
 110.6254300 128.7629590  33.2681510 121.6210800 127.7788910  43.9079660
 121.1184400 128.5194310  44.2473470 122.4367460 128.1672910  43.5916450
 119.9132810 133.0222090  37.3541020 118.9722950 133.0372320  37.5288710
 120.2276880 132.2358050  37.8001320 109.8914450 134.7041690  30.9144980
 110.6577720 134.5923050  31.4770410 109.9689140 134.0079660  30.2621750
 108.5861210 132.1366760  31.5977870 108.6664800 131.1894270  31.7095270
 109.4780960 132.4673640  31.7038530 121.9158390 140.1930940  39.0295280
 122.0405810 141.0162110  39.5019090 122.7823950 139.9821670  38.6819430
 109.3875920 142.2862150  38.7012410 110.1238400 141.7377610  38.9720980
 109.7716840 143.1518160  38.5618400 106.2721400 138.3535720  34.5753920
 105.3461180 138.5956860  34.5659330 106.7377830 139.1809980  34.4538670
 108.3934200 141.4708220  47.8897990 109.1946930 141.7920270  48.3033390
 107.8786020 141.1103800  48.6117900 112.4978230 141.4592460  30.5237980
 113.2906840 141.7481290  30.0719770 111.9782580 141.0284630  29.8450460
 117.2298830 137.5788090  47.8373400 116.6236990 137.6019690  47.0969150
 116.9252940 136.8471130  48.3740650 118.6599200 141.3068380  46.4482810
 119.6120950 141.2226400  46.3983050 118.5127420 141.9710090  47.1216600
 121.5508400 140.6862590  31.9474720 121.2649910 140.2727730  31.1328900
 121.3527950 141.6150300  31.8275240 106.1132010 133.9581680  46.8334040
 106.6171030 133.3788960  47.4050270 105.3739430 134.2421910  47.3710410
 113.0155630 136.6795870  30.3880330 112.9106270 136.0648220  31.1141710
 112.8479850 136.1561760  29.6043340 113.1669950 135.3652670  46.3669560
 112.4015620 135.9337670  46.2824230 113.3485910 135.0728880  45.4737790
 116.2558360 135.7415900  30.9922320 115.7068460 136.1885200  31.6365060
 116.8777620 135.2365150  31.5159990 120.3093300 137.0958000  46.9244580
 121.0502770 137.4333760  46.4212040 119.5465980 137.2650060  46.3714350
 108.1455090 132.1011270  47.7284110 108.1860430 131.8025140  48.6369340
 109.0000590 132.5018880  47.5691630 111.9233480 134.7006820  32.8887620
 112.3449900 134.5346690  33.7319010 112.0484320 133.8907050  32.3942760
 110.0860900 130.6803370  45.6958600 109.5557360 130.1894320  45.0681940
 110.7548970 131.1087570  45.1616530 114.4361120 133.7244430  30.1364720
 114.9566780 133.0093450  29.7705870 115.0829520 134.3630300  30.4365230
 118.9838960 135.1472830  45.4599790 119.3979980 135.3017910  46.3090210
 118.0489960 135.2728050  45.6225570 119.4561130 132.4868990  47.4638940
 120.0381900 131.7321310  47.3759420 119.6322900 133.0176430  46.6870420
 110.5733200 127.6465740  45.7755890 110.4790070 127.0286490  45.0506760
 109.9930590 128.3732030  45.5485800 113.3394640 126.2038980  42.8083280
 112.8911940 126.2263240  41.9628830 112.7059840 125.8058000  43.4053580
 113.7454190 135.0993310  43.4295720 114.1642300 135.9426040  43.2571960
 112.8262820 135.2365350  43.2002500 116.0818090 132.8309490  44.8133560
 116.2014300 132.2350630  45.5528400 116.9412090 132.8679180  44.3934860
 118.4205990 133.3846680  43.3896070 117.8941210 133.9089300  42.7861210
 118.7637330 134.0174070  44.0205800 110.8192380 130.7740050  29.8345780
 110.6181440 129.9107410  30.1959120 110.6484430 130.6873410  28.8967380
 111.5961610 141.4046320  44.5453450 111.0582700 142.1292380  44.2262150
 111.8495570 140.9276660  43.7550790 112.8486860 129.3730840  46.0709380
 113.4386550 129.0646690  46.7587200 112.0307100 128.9010590  46.2269280
 117.6680290 128.9896650  46.3042400 116.9795810 128.3278190  46.2392390
 118.3886310 128.5434920  46.7490860 118.2980690 125.5848280  32.3632660
 118.5782980 124.7416180  32.7192080 117.5246420 125.8171390  32.8771410
 109.6175180 127.8740670  29.8223660 109.9201080 127.8808100  28.9142810
 110.3569770 127.5238530  30.3191320 114.4523820 142.6397530  44.8040100
 114.3782520 143.5432670  45.1112470 113.5502660 142.3209430  44.7762170
 112.8360110 126.8175290  30.8079860 112.4882110 126.1399280  30.2282310
 113.0372880 126.3564800  31.6223250 115.0009150 141.8056040  32.4266460
 115.8959940 142.1441010  32.4485220 115.0326780 141.0835450  31.7990740
 108.6405310 137.1783090  30.6553460 109.0780180 137.7212760  31.3111040
 109.1253040 136.3530040  30.6649800 105.8551110 139.9672120  38.1073720
 106.1854120 139.0993180  37.8752360 106.2842110 140.1730640  38.9378680
 110.4513030 138.2981130  35.7675690 110.1508570 138.1746100  36.6679600
 110.3450520 137.4389720  35.3591420 106.3441320 140.8342710  40.8455350
 105.9072310 141.0143510  41.6779500 106.9119000 141.5917330  40.7037070
 121.9803500 140.3359710  45.1332660 121.3805490 140.3952270  44.3896580
 122.1097400 139.3964690  45.2629510 123.2204950 138.0777530  30.4702370
 122.3897910 138.1454180  30.9409600 123.3976780 138.9681650  30.1669230
 122.6761410 134.8225010  32.9736570 123.4380320 135.3921660  33.0796260
 122.6915780 134.2552210  33.7444880 106.1765750 133.3462940  37.2044230
 105.5214590 133.0774580  36.5603930 107.0143700 133.2367420  36.7546210
 123.6821380 135.6775110  37.8178500 124.0530210 134.8942430  37.4114470
 124.3223310 136.3664210  37.6395800 120.6655140 137.0611690  43.2308820
 119.8514980 137.4908850  43.4934610 121.0729340 137.6730100  42.6177870
 122.7280580 135.1159380  30.1309090 123.0029420 136.0238260  30.0028310
 122.5391320 135.0521910  31.0671080 119.1256190 128.1404230  31.4262720
 119.5441070 127.9535210  30.5859380 118.8192250 127.2883280  31.7365650
 122.6245920 133.0528370  35.1238520 122.2489520 132.2856300  34.6919810
 121.8949040 133.4351070  35.6113450 107.2141680 133.7315510  41.7447570
 107.5814720 133.6442910  42.6243590 106.6452500 132.9682060  41.6454430
 122.0145540 132.1999890  44.7578040 121.7831630 131.9712640  43.8575990
 122.2750090 133.1199440  44.7122930 106.7657680 130.6424600  45.6505990
 105.8713730 130.6091360  45.9899700 107.3055230 130.8411390  46.4157240
 120.4533610 127.4256320  47.5357740 121.3303790 127.4339720  47.9191740
 120.4654450 126.6887160  46.9250090 105.3903830 130.5561870  33.1469560
 104.4867910 130.8192070  32.9721220 105.8744450 130.8273040  32.3669520
 121.8996880 131.2785860  38.4245760 122.4234360 130.7848510  37.7935930
 122.4856300 131.4136220  39.1693330 122.0786600 131.3625730  41.9465310
 121.1289310 131.3289270  42.0610300 122.2599610 132.2725840  41.7115080
 107.9331040 129.6127410  31.0563940 108.6422740 129.1910630  30.5711220
 107.2170980 129.6802640  30.4247290 107.5805200 125.6666740  30.0966590
 108.3033330 126.2075680  30.4147810 107.8529720 125.3930160  29.2208130
 121.3896850 130.5359210  34.3638170 121.8855970 130.3030080  35.1487050
 121.1912920 129.6971050  33.9475810 107.2697390 124.9172930  39.9989210
 107.9173580 124.3670310  39.5584370 107.6899230 125.1716080  40.8205020
 122.8184010 129.1720160  36.8975850 122.7083290 129.0176200  37.8358120
 123.5791600 128.6441100  36.6551260 121.1649730 125.1114290  43.3558850
 121.8021950 125.7248430  43.7218040 121.3124620 125.1474950  42.4108080
 123.7074280 127.0028080  30.1381990 124.6323590 126.8709260  29.9300280
 123.6850070 127.0820900  31.0918440 123.7812770 127.7738740  32.7638700
 122.9864270 127.7083860  33.2931610 123.9856050 128.7089380  32.7524050
 120.7231190 141.8130290  36.7577090 121.3190260 141.4914860  36.0811510
 120.9809340 141.3402110  37.5490360 107.0229390 125.0728600  42.7414530
 106.6744210 125.5292420  43.5072710 106.6917090 124.1785730  42.8236960
 108.6293760 138.2448200  46.9067720 108.5863390 137.8741110  47.7882180
 108.7604770 139.1825770  47.0469540 112.3299790 139.8007790  42.5077440
 112.0891150 140.0682350  41.6207960 113.2702430 139.9713520  42.5628300
 114.5354210 126.2640480  46.2633950 114.4743100 126.8562310  47.0129360
 115.4754590 126.1566440  46.1184210 117.1728770 125.9210540  45.9026240
 117.7869180 126.2389830  45.2407320 117.7178330 125.4359130  46.5222100
 123.5903950 141.8202170  43.3088080 123.0962230 142.2171040  42.5915210
 122.9817240 141.1951380  43.7025360 107.6950030 124.6004800  46.0165300
 108.2433020 124.4192850  45.2531410 107.7605340 123.8098910  46.5521610
 108.4681790 141.1910450  44.0265500 107.8742110 141.0595150  44.7655540
 108.4605630 140.3548590  43.5607600 117.9136810 124.4842680  42.2295530
 117.0396650 124.8177790  42.0268460 117.8047560 124.0115860  43.0547400
 118.8208790 126.6913550  43.6137250 118.4922150 125.8765310  43.2338980
 119.7691090 126.6483360  43.4902940 121.2743400 142.4625590  40.5874820
 120.8146370 143.2141400  40.2132840 120.6455860 141.7432060  40.5289620
 108.0994020 138.5568830  42.9773540 107.3728080 137.9374120  42.9099490
 108.1603170 138.9509440  42.1071620 111.7039120 140.7713830  39.7622950
 112.2204140 140.1601190  39.2371210 112.3536500 141.2742610  40.2533960
 114.4434620 141.6622320  40.5891930 114.7312430 141.4076620  39.7124940
 114.9557840 141.1099680  41.1797500 115.6611630 125.4012520  41.1688440
 114.8783420 125.8758020  41.4485200 115.3674560 124.4967350  41.0601620
 120.2132700 126.1035620  39.2137530 120.6540790 126.0480720  38.3659130
 119.9440290 127.0193630  39.2847710 122.0771270 125.7350860  37.2246350
 122.0159670 124.7912080  37.0777370 122.8563300 125.8430950  37.7699810
 106.3824020 141.8743220  36.1870300 106.2146060 141.2413900  36.8852190
 105.5158530 142.0802620  35.8364490 107.0052040 125.7060000  33.6902160
 107.7631400 125.8188880  33.1166190 106.5429210 126.5429200  33.6445590
 113.5465850 127.8199270  36.6804470 112.7340360 127.4456160  36.3400350
 114.0507490 127.0644350  36.9825660 118.0490830 124.4841720  37.9187540
 118.6520200 125.0561930  38.3936060 117.3083820 125.0481160  37.6961440
 121.1925430 124.8863280  33.1927820 121.3876060 125.7846730  33.4595250
 120.4055300 124.6550360  33.6860770 107.9886720 140.5676450  33.6320440
 107.4634340 140.9484480  32.9282400 107.9131300 141.1927220  34.3530150
 109.3777190 126.2324050  32.2304130 109.9069950 125.4453850  32.1012080
 110.0105510 126.9115240  32.4639660 111.5715030 125.9699190  35.2849520
 110.9417770 125.2686500  35.4519650 111.0320170 126.7303320  35.0682680
 114.5106980 142.5838420  47.9560130 115.4374290 142.3482690  47.9996090
 114.4957410 143.4110420  47.4746160 122.7452040 142.1263990  34.9534380
 122.9204230 141.4401730  34.3095300 122.0473610 142.6511040  34.5611050
 111.6970590 125.2483170  47.7202010 111.4154860 125.7516770  46.9562830
 112.0790290 124.4504920  47.3544140 110.5879690 142.5158830  32.5069690
 111.3198510 142.2318110  31.9593580 110.8473360 142.2772110  33.3969070
 109.7494480 138.6323560  32.5116020 109.1203360 139.1008660  33.0601850
 109.8642310 137.7872780  32.9462210 118.2986050 124.6636750  48.2982480
 118.1851500 124.9831360  49.1934000 119.1155790 125.0649260  48.0019760
 121.0784540 141.8108280  47.7801170 121.8709860 141.3157510  47.5727130
 121.3717690 142.4898420  48.3876780 117.2044200 132.6829220  18.6617220
 117.1238250 131.7683830  18.3908930 116.7908620 133.1796290  17.9556930
 115.3362240 134.4608240  20.5426490 114.5604340 133.9808680  20.8325060
 115.9875170 133.7813890  20.3682650 109.3528070 134.7728050  21.4202250
 108.5212950 134.5176760  21.8198760 109.9609050 134.8438820  22.1560170
 119.3569670 138.8668430  19.3225620 118.8951200 138.0955670  19.6512790
 120.1695220 138.8934500  19.8278070 109.3329330 138.8068140  21.6160270
 109.6357370 137.9165880  21.4370490 110.0772920 139.3638360  21.3882520
 107.7620020 129.7329940  15.2044640 106.8736720 130.0745910  15.1024520
 108.0461210 129.5330260  14.3125470 105.7253030 132.3335590  21.0884340
 106.2969140 131.5657790  21.0887980 105.7254570 132.6324350  20.1790950
 115.5832980 141.1526440  18.9429610 114.9644420 141.6083940  18.3724050
 116.4384760 141.3077900  18.5419310 114.7771230 137.1365430  20.5496650
 114.7079510 136.1955370  20.3885780 115.5391090 137.2266840  21.1219220
 106.9677900 127.7419950  22.8753270 106.7880740 126.8445700  23.1556030
 106.5657980 128.2891820  23.5500220 115.8076400 129.9435810  20.7765580
 116.1841220 129.0707690  20.6639250 115.7095910 130.2794510  19.8856020
 109.9381410 128.3161440  16.2383020 110.0448160 129.2165170  16.5451780
 109.0273770 128.2679410  15.9477670 119.5900520 127.4386250  17.7093920
 120.4110140 126.9482820  17.7519400 119.6234600 128.0283910  18.4625760
 107.5864570 130.2380450  21.4835610 108.2674680 130.5018820  22.1023010
 107.2712620 129.3981320  21.8173620 111.7789140 131.2847810  20.5708200
 112.2867360 131.7828780  21.2113220 112.3102380 130.5083010  20.3947560
 123.8800070 129.4553000  24.2737550 123.1752240 129.8434710  23.7552660
 124.1457990 130.1503290  24.8758480 110.0625240 125.9246370  24.8371620
 110.0643680 126.4418760  24.0317520 109.2329550 125.4476550  24.8141550
 116.4496330 136.0365680  16.3361520 115.8313600 136.5015130  15.7724240
 116.9619580 136.7293160  16.7531030 111.3128090 135.5641550  23.0145120
 110.9797470 136.1910470  23.6566190 111.4894770 136.0903430  22.2346790
 119.8262000 129.3786630  20.4821460 119.1217570 129.6671520  21.0624570
 120.1874160 130.1886740  20.1221020 109.7440570 127.6356330  22.8442070
 110.0857380 128.4798380  22.5495940 108.8056380 127.7840070  22.9607410
 110.5247190 137.5322350  24.8294300 111.1421190 138.2073430  24.5478750
 109.6640310 137.9410330  24.7381800 105.8179530 136.7222210  13.7101150
 105.4407510 137.2109310  12.9786050 106.0752600 137.3947490  14.3407680
 121.4424780 138.9961760  22.7448940 120.7588300 139.6660870  22.7365610
 121.9819070 139.1942410  21.9793800 122.8948920 128.8241420  20.8730670
 121.9473830 128.8580400  21.0046100 123.2198910 129.6380370  21.2580030
 113.4268460 125.1238600  19.1686660 113.7343440 124.5685490  18.4522160
 112.4969160 125.2583060  18.9859650 118.9783520 140.8405890  21.4594120
 118.9910680 140.4368180  20.5916380 118.4258740 141.6153180  21.3555550
 120.2728940 137.5622110  16.5484290 120.1625270 136.6196440  16.6733710
 120.2697190 137.9237750  17.4347050 118.3768960 135.7435730  22.7876730
 118.7937750 135.5295840  21.9530190 119.1008780 136.0008520  23.3585350
 115.8149220 133.1887430  15.9046780 114.8878500 133.1224810  16.1335250
 115.9674040 134.1267560  15.7902020 115.8018300 129.4604430  12.9013940
 114.8621970 129.6218390  12.9866400 116.1201560 130.1790110  12.3549930
 122.3231060 134.1422950  22.8792970 121.4949690 134.2116040  22.4043100
 122.9181540 134.7277260  22.4108800 119.8446510 134.7507730  16.4082030
 119.2258930 134.4127280  15.7608330 119.8270960 134.1067490  17.1161220
 119.2873070 130.9292270  23.8247840 118.8744250 131.7545980  24.0787830
 118.5549020 130.3437310  23.6324200 111.4205860 133.7152170  18.6866510
 111.0162860 133.0029420  18.1912410 111.5068980 133.3705410  19.5754550
 111.8887560 137.4019730  20.8505720 111.5915850 136.7965200  20.1713500
 112.8387380 137.4397040  20.7395080 110.1334480 130.4895380  22.4665550
 110.6849070 130.5990720  21.6918800 110.6477990 130.8632980  23.1820780
 119.9773170 140.9751600  24.5128820 119.5003730 141.7823790  24.3201430
 119.2934960 140.3229930  24.6655030 110.9805990 137.1401420  27.5013520
 110.0834520 137.3641390  27.7486920 111.0058860 137.2636360  26.5524920
 118.0211210 133.9894540  13.4154780 118.4604490 133.1516970  13.2692600
 118.7339630 134.6223940  13.5018920 109.8077210 134.0114740  26.0770890
 109.6684980 134.8837540  26.4458290 108.9258570 133.6687550  25.9318830
 116.1306590 138.9290610  17.3836020 116.5702500 139.6714940  16.9691410
 116.0693480 139.1717180  18.3074980 111.6057560 139.9536440  28.2856040
 111.5772990 140.3579390  27.4184470 111.4422530 139.0246800  28.1227640
 121.6028350 125.2437350  11.7295820 121.2901010 125.3364180  12.6294890
 122.3640820 125.8218380  11.6793250 108.1210490 132.6097150  16.1873160
 108.0008090 133.3359240  15.5754430 107.8111380 131.8400060  15.7101070
 123.5572380 140.7363540  29.5820210 124.0332100 141.2146430  30.2609290
 124.1779540 140.6681030  28.8565710 105.7595860 135.7812290  21.9941800
 105.8376280 135.9161060  21.0497520 106.3737540 135.0728180  22.1869920
 107.0043490 137.4812480  18.4047980 106.5971570 137.6227070  17.5501580
 107.8956500 137.1972640  18.2019190 122.9605630 137.9276390  26.7420220
 123.0868690 137.6888270  25.8237400 123.0027010 137.0960930  27.2142300
 116.8222370 141.6304390  25.3115030 117.3367040 141.5412400  26.1137460
 115.9791450 141.9764090  25.6042940 118.7976770 141.9159730  14.7399030
 118.6377910 141.6262670  15.6380860 118.6323480 141.1399860  14.2044260
 111.2765150 141.6958260  16.5170650 111.1007630 140.7793800  16.3038450
 110.4220890 142.0545550  16.7568450 118.5002900 139.4247290  13.2997030
 117.8068060 139.4224580  12.6399310 119.2425760 139.0006610  12.8691200
 118.0652830 141.0510000  17.3745520 118.5209780 140.2699380  17.6884140
 118.4045350 141.7616820  17.9186700 122.8129640 129.9808850  27.7069960
 122.1973910 130.4888520  27.1785420 122.4926060 129.0807180  27.6495900
 105.8155380 136.8226460  24.5336260 105.9786420 136.3531820  23.7155630
 106.2807830 136.3150020  25.1985100 110.5874150 125.9532220  19.5696830
 110.1442300 126.7341760  19.2381350 111.1459140 126.2762110  20.2767770
 114.8743960 128.8200740  25.1732150 114.4123330 129.0283760  25.9852090
 114.4722070 128.0060090  24.8702820 119.8748470 130.0409690  26.3028810
 119.0242060 129.7415440  26.6237880 119.7150260 130.2851700  25.3912630
 116.9698180 131.5411440  28.4027600 117.2951590 130.7075190  28.0629830
 117.7578510 132.0639960  28.5505930 113.7032970 125.5742920  14.4502660
 113.0787150 125.5702790  15.1755970 113.6163090 124.7073880  14.0538630
 112.6250050 126.4979550  21.4286430 112.9222380 127.4042380  21.3478450
 113.1735610 126.0098330  20.8146000 110.3788370 131.0765790  17.2978080
 110.1529290 130.8602960  18.2024700 109.5980900 131.5094250  16.9524050
 117.6086130 131.0829160  15.8968730 117.0095020 131.8064960  15.7132350
 118.1565740 131.0205940  15.1145180 112.8187580 131.9751370  27.9638350
 112.7231180 131.0346100  27.8138750 113.6619560 132.1966440  27.5686420
 116.2151000 129.7192700  17.9272010 116.6080570 130.0364900  17.1140700
 116.5767850 128.8404580  18.0416530 107.9498120 128.3865040  26.1172130
 107.5561510 129.2340250  26.3244910 107.2616520 127.7491410  26.3080770
 114.5243170 128.4700010  29.1868870 113.8341490 128.2772210  29.8214960
 115.2675470 128.7534650  29.7193170 105.2515170 126.3093500  20.1502210
 104.9628220 126.8796360  20.8627190 105.9960930 125.8297950  20.5133440
 105.4385400 130.2513620  11.3604930 105.3560070 131.1944380  11.5019920
 105.0868460 130.1088530  10.4817280 116.8006140 132.3098450  22.0222790
 116.0687260 132.8185260  22.3712890 116.4030480 131.4928430  21.7211570
 113.2383530 128.9852650  20.4275280 113.2419590 128.5442600  19.5779820
 114.1334650 129.3069980  20.5347100 109.0885910 128.8679140  19.3869490
 108.7485960 129.3454370  20.1436540 108.3263230 128.4144260  19.0270590
 113.3003680 129.9864730  13.4182040 113.4216500 129.9451210  14.3667860
 112.9152190 130.8488880  13.2628770 117.2632050 127.7632130  21.4345730
 117.2804790 128.2140780  22.2787580 117.0147630 126.8637770  21.6479170
 112.3125180 132.2965870  12.8165340 111.7442080 131.8484120  12.1901250
 113.0214180 132.6558650  12.2830490 120.6902800 125.1764310  27.2732110
 121.0148570 124.4453970  27.7990090 120.7259310 124.8577950  26.3713100
 107.3894360 136.1977890  26.6932070 107.0049150 135.5571560  27.2915030
 107.7006550 136.9014010  27.2626800 113.5391500 133.0454430  22.1740690
 113.9061630 132.5713000  22.9202030 113.3496560 133.9196000  22.5149030
 106.4031990 127.7898120  18.3034160 106.1178910 127.4253790  19.1412780
 106.3410850 127.0578580  17.6897300 111.3290870 132.0863070  24.4924900
 111.0247940 132.9655050  24.7175260 112.2837330 132.1462860  24.5282340
 109.8572660 136.2924060  15.0891750 109.0834920 135.7521680  14.9290470
 110.5867290 135.7730670  14.7509510 120.6160640 135.2889420  20.8818140
 121.3359760 135.7844710  20.4914250 120.4142460 134.6107310  20.2372010
 116.0770580 126.6827380  15.0247530 115.2635190 126.1840550  14.9492840
 115.8832530 127.5225630  14.6083880 115.9979440 135.3598480  26.7687140
 115.9316750 134.4394150  26.5144730 115.3684580 135.4573920  27.4831780
 118.7918970 131.0547030  13.3209690 119.6798590 131.3664260  13.1461030
 118.7624060 130.1819280  12.9290270 109.9010060 135.9604440  18.7270560
 110.4188730 135.1572700  18.6727450 109.4494080 135.8983580  19.5687390
 114.7879560 137.2270720  13.9997860 115.1295260 137.9712950  13.5041180
 113.9592270 137.5401840  14.3622690 107.3854600 132.9265810  25.6396260
 107.0269540 133.5919660  26.2269600 107.0909160 132.0949360  26.0108880
 110.5867720 133.3850050  28.5235810 110.2867860 133.5307230  27.6263630
 111.3578960 132.8255340  28.4309200 115.9296170 138.1819050  26.5190940
 115.9440710 137.2500010  26.3009850 115.2221270 138.2678810  27.1580710
 121.0633240 132.3658870  12.7889550 120.9796960 132.7973090  11.9385990
 121.7827430 132.8257220  13.2216370 122.1407380 134.8226390  25.8659520
 121.4155570 135.4155170  25.6688910 122.6682840 134.8149930  25.0672890
 122.0920490 139.2201130  15.5171680 121.4496650 138.5656750  15.7915400
 121.7051150 139.6256220  14.7412350 117.6706970 136.5486560  19.3643370
 118.0230790 135.9514690  18.7044740 116.7869300 136.2230790  19.5351620
 113.7570250 137.3084250  16.7713780 114.4441380 137.8553460  17.1521370
 112.9702670 137.8524980  16.8063390 105.8962650 132.9257070  12.2630860
 106.7657500 133.2081870  12.5466780 105.4052970 133.7392940  12.1479670
 113.0597460 134.3130280  16.3839140 113.5160240 135.1235530  16.6099330
 112.7085670 133.9953420  17.2157630 115.3630070 139.8236620  23.6131440
 116.0072290 140.0296000  24.2904860 115.7259510 139.0625020  23.1602290
 108.9609240 124.6567930  16.8561660 108.8323870 124.6485830  17.8046580
 108.1371260 124.9951020  16.5052670 116.6362150 137.8268970  22.3308890
 117.2784380 137.1262130  22.4441060 117.1611500 138.6067410  22.1505780
 120.4817870 138.1117590  12.0548030 120.2555450 137.3948030  12.6472670
 120.0914070 137.8630030  11.2169780 118.4099770 138.6263870  25.5344950
 118.7456010 139.2130560  26.2122870 117.4900110 138.4956580  25.7642740
 106.2633900 142.1384450  12.8292490 106.6231540 142.7373790  12.1749760
 106.1226240 142.6844340  13.6027520 105.9603170 126.4159050  26.3168360
 105.2461690 126.6155970  26.9220970 106.3798210 125.6398620  26.6883160
 120.0634120 136.0289530  13.7162190 119.7755820 136.4902220  14.5040070
 120.8586290 135.5687300  13.9846410 106.2475760 140.4039310  27.3034890
 106.3566880 139.4634050  27.1630280 105.5956320 140.6694060  26.6548620
 114.2388350 138.6755200  28.7033010 113.9185220 137.9564440  29.2478700
 113.5646710 139.3510270  28.7769070 112.2802520 139.5215650  13.6466160
 112.2712620 140.2545340  13.0310670 111.3600880 139.2747230  13.7393120
 107.8809160 134.7430540  14.3912920 107.2737110 135.4829440  14.4008220
 108.3558510 134.8329900  13.5651120 117.4541950 128.9081360  24.0669810
 117.8222770 128.0876570  24.3949380 116.5940150 128.9683250  24.4825460
 120.8203980 127.8638300  14.8757370 120.1917140 127.9683970  14.1615600
 120.3255900 128.0835080  15.6651250 115.2662120 139.5843890  12.3091350
 115.3674100 139.3807880  11.3793330 114.3663860 139.3302170  12.5139130
 112.7888010 130.1424250  16.2915250 112.0804160 130.6110590  16.7328860
 113.0732490 129.4846260  16.9260440 114.4143940 131.5620950  24.2907780
 114.9129190 132.0366770  24.9559630 114.5566890 130.6384470  24.4977810
 116.8203440 126.8674910  17.7311040 116.6971220 126.8861040  16.7820550
 117.7688000 126.9153850  17.8509440 113.9080230 142.1030210  17.0039020
 114.1621730 142.0651600  16.0818390 112.9592710 141.9763540  16.9967270
 110.9923030 128.4509330  13.6665960 111.8413560 128.8879480  13.6006150
 110.6254300 128.7629590  14.4938020 121.6210800 127.7788910  25.1336170
 121.1184400 128.5194310  25.4729980 122.4367460 128.1672910  24.8172960
 119.9132810 133.0222090  18.5797530 118.9722950 133.0372320  18.7545220
 120.2276880 132.2358050  19.0257830 109.8914450 134.7041690  12.1401490
 110.6577720 134.5923050  12.7026920 109.9689140 134.0079660  11.4878260
 108.5861210 132.1366760  12.8234380 108.6664800 131.1894270  12.9351780
 109.4780960 132.4673640  12.9295040 121.9158390 140.1930940  20.2551790
 122.0405810 141.0162110  20.7275600 122.7823950 139.9821670  19.9075940
 109.3875920 142.2862150  19.9268920 110.1238400 141.7377610  20.1977490
 109.7716840 143.1518160  19.7874910 106.2721400 138.3535720  15.8010430
 105.3461180 138.5956860  15.7915840 106.7377830 139.1809980  15.6795180
 108.3934200 141.4708220  29.1154500 109.1946930 141.7920270  29.5289900
 107.8786020 141.1103800  29.8374410 112.4978230 141.4592460  11.7494490
 113.2906840 141.7481290  11.2976280 111.9782580 141.0284630  11.0706970
 117.2298830 137.5788090  29.0629910 116.6236990 137.6019690  28.3225660
 116.9252940 136.8471130  29.5997160 118.6599200 141.3068380  27.6739320
 119.6120950 141.2226400  27.6239560 118.5127420 141.9710090  28.3473110
 121.5508400 140.6862590  13.1731230 121.2649910 140.2727730  12.3585410
 121.3527950 141.6150300  13.0531750 106.1132010 133.9581680  28.0590550
 106.6171030 133.3788960  28.6306780 105.3739430 134.2421910  28.5966920
 113.0155630 136.6795870  11.6136840 112.9106270 136.0648220  12.3398220
 112.8479850 136.1561760  10.8299850 113.1669950 135.3652670  27.5926070
 112.4015620 135.9337670  27.5080740 113.3485910 135.0728880  26.6994300
 116.2558360 135.7415900  12.2178830 115.7068460 136.1885200  12.8621570
 116.8777620 135.2365150  12.7416500 120.3093300 137.0958000  28.1501090
 121.0502770 137.4333760  27.6468550 119.5465980 137.2650060  27.5970860
 108.1455090 132.1011270  28.9540620 108.1860430 131.8025140  29.8625850
 109.0000590 132.5018880  28.7948140 111.9233480 134.7006820  14.1144130
 112.3449900 134.5346690  14.9575520 112.0484320 133.8907050  13.6199270
 110.0860900 130.6803370  26.9215110 109.5557360 130.1894320  26.2938450
 110.7548970 131.1087570  26.3873040 114.4361120 133.7244430  11.3621230
 114.9566780 133.0093450  10.9962380 115.0829520 134.3630300  11.6621740
 118.9838960 135.1472830  26.6856300 119.3979980 135.3017910  27.5346720
 118.0489960 135.2728050  26.8482080 119.4561130 132.4868990  28.6895450
 120.0381900 131.7321310  28.6015930 119.6322900 133.0176430  27.9126930
 110.5733200 127.6465740  27.0012400 110.4790070 127.0286490  26.2763270
 109.9930590 128.3732030  26.7742310 113.3394640 126.2038980  24.0339790
 112.8911940 126.2263240  23.1885340 112.7059840 125.8058000  24.6310090
 113.7454190 135.0993310  24.6552230 114.1642300 135.9426040  24.4828470
 112.8262820 135.2365350  24.4259010 116.0818090 132.8309490  26.0390070
 116.2014300 132.2350630  26.7784910 116.9412090 132.8679180  25.6191370
 118.4205990 133.3846680  24.6152580 117.8941210 133.9089300  24.0117720
 118.7637330 134.0174070  25.2462310 110.8192380 130.7740050  11.0602290
 110.6181440 129.9107410  11.4215630 110.6484430 130.6873410  10.1223890
 111.5961610 141.4046320  25.7709960 111.0582700 142.1292380  25.4518660
 111.8495570 140.9276660  24.9807300 112.8486860 129.3730840  27.2965890
 113.4386550 129.0646690  27.9843710 112.0307100 128.9010590  27.4525790
 117.6680290 128.9896650  27.5298910 116.9795810 128.3278190  27.4648900
 118.3886310 128.5434920  27.9747370 118.2980690 125.5848280  13.5889170
 118.5782980 124.7416180  13.9448590 117.5246420 125.8171390  14.1027920
 109.6175180 127.8740670  11.0480170 109.9201080 127.8808100  10.1399320
 110.3569770 127.5238530  11.5447830 114.4523820 142.6397530  26.0296610
 114.3782520 143.5432670  26.3368980 113.5502660 142.3209430  26.0018680
 112.8360110 126.8175290  12.0336370 112.4882110 126.1399280  11.4538820
 113.0372880 126.3564800  12.8479760 115.0009150 141.8056040  13.6522970
 115.8959940 142.1441010  13.6741730 115.0326780 141.0835450  13.0247250
 108.6405310 137.1783090  11.8809970 109.0780180 137.7212760  12.5367550
 109.1253040 136.3530040  11.8906310 105.8551110 139.9672120  19.3330230
 106.1854120 139.0993180  19.1008870 106.2842110 140.1730640  20.1635190
 110.4513030 138.2981130  16.9932200 110.1508570 138.1746100  17.8936110
 110.3450520 137.4389720  16.5847930 106.3441320 140.8342710  22.0711860
 105.9072310 141.0143510  22.9036010 106.9119000 141.5917330  21.9293580
 121.9803500 140.3359710  26.3589170 121.3805490 140.3952270  25.6153090
 122.1097400 139.3964690  26.4886020 123.2204950 138.0777530  11.6958880
 122.3897910 138.1454180  12.1666110 123.3976780 138.9681650  11.3925740
 122.6761410 134.8225010  14.1993080 123.4380320 135.3921660  14.3052770
 122.6915780 134.2552210  14.9701390 106.1765750 133.3462940  18.4300740
 105.5214590 133.0774580  17.7860440 107.0143700 133.2367420  17.9802720
 123.6821380 135.6775110  19.0435010 124.0530210 134.8942430  18.6370980
 124.3223310 136.3664210  18.8652310 120.6655140 137.0611690  24.4565330
 119.8514980 137.4908850  24.7191120 121.0729340 137.6730100  23.8434380
 122.7280580 135.1159380  11.3565600 123.0029420 136.0238260  11.2284820
 122.5391320 135.0521910  12.2927590 119.1256190 128.1404230  12.6519230
 119.5441070 127.9535210  11.8115890 118.8192250 127.2883280  12.9622160
 122.6245920 133.0528370  16.3495030 122.2489520 132.2856300  15.9176320
 121.8949040 133.4351070  16.8369960 107.2141680 133.7315510  22.9704080
 107.5814720 133.6442910  23.8500100 106.6452500 132.9682060  22.8710940
 122.0145540 132.1999890  25.9834550 121.7831630 131.9712640  25.0832500
 122.2750090 133.1199440  25.9379440 106.7657680 130.6424600  26.8762500
 105.8713730 130.6091360  27.2156210 107.3055230 130.8411390  27.6413750
 120.4533610 127.4256320  28.7614250 121.3303790 127.4339720  29.1448250
 120.4654450 126.6887160  28.1506600 105.3903830 130.5561870  14.3726070
 104.4867910 130.8192070  14.1977730 105.8744450 130.8273040  13.5926030
 121.8996880 131.2785860  19.6502270 122.4234360 130.7848510  19.0192440
 122.4856300 131.4136220  20.3949840 122.0786600 131.3625730  23.1721820
 121.1289310 131.3289270  23.2866810 122.2599610 132.2725840  22.9371590
 107.9331040 129.6127410  12.2820450 108.6422740 129.1910630  11.7967730
 107.2170980 129.6802640  11.6503800 107.5805200 125.6666740  11.3223100
 108.3033330 126.2075680  11.6404320 107.8529720 125.3930160  10.4464640
 121.3896850 130.5359210  15.5894680 121.8855970 130.3030080  16.3743560
 121.1912920 129.6971050  15.1732320 107.2697390 124.9172930  21.2245720
 107.9173580 124.3670310  20.7840880 107.6899230 125.1716080  22.0461530
 122.8184010 129.1720160  18.1232360 122.7083290 129.0176200  19.0614630
 123.5791600 128.6441100  17.8807770 121.1649730 125.1114290  24.5815360
 121.8021950 125.7248430  24.9474550 121.3124620 125.1474950  23.6364590
 123.7074280 127.0028080  11.3638500 124.6323590 126.8709260  11.1556790
 123.6850070 127.0820900  12.3174950 123.7812770 127.7738740  13.9895210
 122.9864270 127.7083860  14.5188120 123.9856050 128.7089380  13.9780560
 120.7231190 141.8130290  17.9833600 121.3190260 141.4914860  17.3068020
 120.9809340 141.3402110  18.7746870 107.0229390 125.0728600  23.9671040
 106.6744210 125.5292420  24.7329220 106.6917090 124.1785730  24.0493470
 108.6293760 138.2448200  28.1324230 108.5863390 137.8741110  29.0138690
 108.7604770 139.1825770  28.2726050 112.3299790 139.8007790  23.7333950
 112.0891150 140.0682350  22.8464470 113.2702430 139.9713520  23.7884810
 114.5354210 126.2640480  27.4890460 114.4743100 126.8562310  28.2385870
 115.4754590 126.1566440  27.3440720 117.1728770 125.9210540  27.1282750
 117.7869180 126.2389830  26.4663830 117.7178330 125.4359130  27.7478610
 123.5903950 141.8202170  24.5344590 123.0962230 142.2171040  23.8171720
 122.9817240 141.1951380  24.9281870 107.6950030 124.6004800  27.2421810
 108.2433020 124.4192850  26.4787920 107.7605340 123.8098910  27.7778120
 108.4681790 141.1910450  25.2522010 107.8742110 141.0595150  25.9912050
 108.4605630 140.3548590  24.7864110 117.9136810 124.4842680  23.4552040
 117.0396650 124.8177790  23.2524970 117.8047560 124.0115860  24.2803910
 118.8208790 126.6913550  24.8393760 118.4922150 125.8765310  24.4595490
 119.7691090 126.6483360  24.7159450 121.2743400 142.4625590  21.8131330
 120.8146370 143.2141400  21.4389350 120.6455860 141.7432060  21.7546130
 108.0994020 138.5568830  24.2030050 107.3728080 137.9374120  24.1356000
 108.1603170 138.9509440  23.3328130 111.7039120 140.7713830  20.9879460
 112.2204140 140.1601190  20.4627720 112.3536500 141.2742610  21.4790470
 114.4434620 141.6622320  21.8148440 114.7312430 141.4076620  20.9381450
 114.9557840 141.1099680  22.4054010 115.6611630 125.4012520  22.3944950
 114.8783420 125.8758020  22.6741710 115.3674560 124.4967350  22.2858130
 120.2132700 126.1035620  20.4394040 120.6540790 126.0480720  19.5915640
 119.9440290 127.0193630  20.5104220 122.0771270 125.7350860  18.4502860
 122.0159670 124.7912080  18.3033880 122.8563300 125.8430950  18.9956320
 106.3824020 141.8743220  17.4126810 106.2146060 141.2413900  18.1108700
 105.5158530 142.0802620  17.0621000 107.0052040 125.7060000  14.9158670
 107.7631400 125.8188880  14.3422700 106.5429210 126.5429200  14.8702100
 113.5465850 127.8199270  17.9060980 112.7340360 127.4456160  17.5656860
 114.0507490 127.0644350  18.2082170 118.0490830 124.4841720  19.1444050
 118.6520200 125.0561930  19.6192570 117.3083820 125.0481160  18.9217950
 121.1925430 124.8863280  14.4184330 121.3876060 125.7846730  14.6851760
 120.4055300 124.6550360  14.9117280 107.9886720 140.5676450  14.8576950
 107.4634340 140.9484480  14.1538910 107.9131300 141.1927220  15.5786660
 109.3777190 126.2324050  13.4560640 109.9069950 125.4453850  13.3268590
 110.0105510 126.9115240  13.6896170 111.5715030 125.9699190  16.5106030
 110.9417770 125.2686500  16.6776160 111.0320170 126.7303320  16.2939190
 114.5106980 142.5838420  29.1816640 115.4374290 142.3482690  29.2252600
 114.4957410 143.4110420  28.7002670 122.7452040 142.1263990  16.1790890
 122.9204230 141.4401730  15.5351810 122.0473610 142.6511040  15.7867560
 111.6970590 125.2483170  28.9458520 111.4154860 125.7516770  28.1819340
 112.0790290 124.4504920  28.5800650 110.5879690 142.5158830  13.7326200
 111.3198510 142.2318110  13.1850090 110.8473360 142.2772110  14.6225580
 109.7494480 138.6323560  13.7372530 109.1203360 139.1008660  14.2858360
 109.8642310 137.7872780  14.1718720 118.2986050 124.6636750  29.5238990
 118.1851500 124.9831360  30.4190510 119.1155790 125.0649260  29.2276270
 121.0784540 141.8108280  29.0057680 121.8709860 141.3157510  28.7983640
 121.3717690 142.4898420  29.6133290 115.3362240 134.4608240   1.7683000
 114.5604340 133.9808680   2.0581570 115.9875170 133.7813890   1.5939160
 109.3528070 134.7728050   2.6458760 108.5212950 134.5176760   3.0455270
 109.9609050 134.8438820   3.3816680 109.3329330 138.8068140   2.8416780
 109.6357370 137.9165880   2.6627000 110.0772920 139.3638360   2.6139030
 114.7771230 137.1365430   1.7753160 114.7079510 136.1955370   1.6142290
 115.5391090 137.2266840   2.3475730 106.9677900 127.7419950   4.1009780
 106.7880740 126.8445700   4.3812540 106.5657980 128.2891820   4.7756730
 107.5864570 130.2380450   2.7092120 108.2674680 130.5018820   3.3279520
 107.2712620 129.3981320   3.0430130 111.7789140 131.2847810   1.7964710
 112.2867360 131.7828780   2.4369730 112.3102380 130.5083010   1.6204070
 123.8800070 129.4553000   5.4994060 123.1752240 129.8434710   4.9809170
 124.1457990 130.1503290   6.1014990 110.0625240 125.9246370   6.0628130
 110.0643680 126.4418760   5.2574030 109.2329550 125.4476550   6.0398060
 111.3128090 135.5641550   4.2401630 110.9797470 136.1910470   4.8822700
 111.4894770 136.0903430   3.4603300 109.7440570 127.6356330   4.0698580
 110.0857380 128.4798380   3.7752450 108.8056380 127.7840070   4.1863920
 110.5247190 137.5322350   6.0550810 111.1421190 138.2073430   5.7735260
 109.6640310 137.9410330   5.9638310 121.4424780 138.9961760   3.9705450
 120.7588300 139.6660870   3.9622120 121.9819070 139.1942410   3.2050310
 122.8948920 128.8241420   2.0987180 121.9473830 128.8580400   2.2302610
 123.2198910 129.6380370   2.4836540 118.9783520 140.8405890   2.6850630
 118.9910680 140.4368180   1.8172890 118.4258740 141.6153180   2.5812060
 118.3768960 135.7435730   4.0133240 118.7937750 135.5295840   3.1786700
 119.1008780 136.0008520   4.5841860 122.3231060 134.1422950   4.1049480
 121.4949690 134.2116040   3.6299610 122.9181540 134.7277260   3.6365310
 119.2873070 130.9292270   5.0504350 118.8744250 131.7545980   5.3044340
 118.5549020 130.3437310   4.8580710 110.1334480 130.4895380   3.6922060
 110.6849070 130.5990720   2.9175310 110.6477990 130.8632980   4.4077290
 119.9773170 140.9751600   5.7385330 119.5003730 141.7823790   5.5457940
 119.2934960 140.3229930   5.8911540 110.9805990 137.1401420   8.7270030
 110.0834520 137.3641390   8.9743430 111.0058860 137.2636360   7.7781430
 109.8077210 134.0114740   7.3027400 109.6684980 134.8837540   7.6714800
 108.9258570 133.6687550   7.1575340 111.6057560 139.9536440   9.5112550
 111.5772990 140.3579390   8.6440980 111.4422530 139.0246800   9.3484150
 123.5572380 140.7363540  10.8076720 124.0332100 141.2146430  11.4865800
 124.1779540 140.6681030  10.0822220 105.7595860 135.7812290   3.2198310
 105.8376280 135.9161060   2.2754030 106.3737540 135.0728180   3.4126430
 122.9605630 137.9276390   7.9676730 123.0868690 137.6888270   7.0493910
 123.0027010 137.0960930   8.4398810 116.8222370 141.6304390   6.5371540
 117.3367040 141.5412400   7.3393970 115.9791450 141.9764090   6.8299450
 122.8129640 129.9808850   8.9326470 122.1973910 130.4888520   8.4041930
 122.4926060 129.0807180   8.8752410 105.8155380 136.8226460   5.7592770
 105.9786420 136.3531820   4.9412140 106.2807830 136.3150020   6.4241610
 114.8743960 128.8200740   6.3988660 114.4123330 129.0283760   7.2108600
 114.4722070 128.0060090   6.0959330 119.8748470 130.0409690   7.5285320
 119.0242060 129.7415440   7.8494390 119.7150260 130.2851700   6.6169140
 116.9698180 131.5411440   9.6284110 117.2951590 130.7075190   9.2886340
 117.7578510 132.0639960   9.7762440 112.6250050 126.4979550   2.6542940
 112.9222380 127.4042380   2.5734960 113.1735610 126.0098330   2.0402510
 112.8187580 131.9751370   9.1894860 112.7231180 131.0346100   9.0395260
 113.6619560 132.1966440   8.7942930 107.9498120 128.3865040   7.3428640
 107.5561510 129.2340250   7.5501420 107.2616520 127.7491410   7.5337280
 114.5243170 128.4700010  10.4125380 113.8341490 128.2772210  11.0471470
 115.2675470 128.7534650  10.9449680 116.8006140 132.3098450   3.2479300
 116.0687260 132.8185260   3.5969400 116.4030480 131.4928430   2.9468080
 117.2632050 127.7632130   2.6602240 117.2804790 128.2140780   3.5044090
 117.0147630 126.8637770   2.8735680 120.6902800 125.1764310   8.4988620
 121.0148570 124.4453970   9.0246600 120.7259310 124.8577950   7.5969610
 107.3894360 136.1977890   7.9188580 107.0049150 135.5571560   8.5171540
 107.7006550 136.9014010   8.4883310 113.5391500 133.0454430   3.3997200
 113.9061630 132.5713000   4.1458540 113.3496560 133.9196000   3.7405540
 111.3290870 132.0863070   5.7181410 111.0247940 132.9655050   5.9431770
 112.2837330 132.1462860   5.7538850 120.6160640 135.2889420   2.1074650
 121.3359760 135.7844710   1.7170760 120.4142460 134.6107310   1.4628520
 115.9979440 135.3598480   7.9943650 115.9316750 134.4394150   7.7401240
 115.3684580 135.4573920   8.7088290 107.3854600 132.9265810   6.8652770
 107.0269540 133.5919660   7.4526110 107.0909160 132.0949360   7.2365390
 110.5867720 133.3850050   9.7492320 110.2867860 133.5307230   8.8520140
 111.3578960 132.8255340   9.6565710 115.9296170 138.1819050   7.7447450
 115.9440710 137.2500010   7.5266360 115.2221270 138.2678810   8.3837220
 122.1407380 134.8226390   7.0916030 121.4155570 135.4155170   6.8945420
 122.6682840 134.8149930   6.2929400 115.3630070 139.8236620   4.8387950
 116.0072290 140.0296000   5.5161370 115.7259510 139.0625020   4.3858800
 116.6362150 137.8268970   3.5565400 117.2784380 137.1262130   3.6697570
 117.1611500 138.6067410   3.3762290 118.4099770 138.6263870   6.7601460
 118.7456010 139.2130560   7.4379380 117.4900110 138.4956580   6.9899250
 105.9603170 126.4159050   7.5424870 105.2461690 126.6155970   8.1477480
 106.3798210 125.6398620   7.9139670 106.2475760 140.4039310   8.5291400
 106.3566880 139.4634050   8.3886790 105.5956320 140.6694060   7.8805130
 114.2388350 138.6755200   9.9289520 113.9185220 137.9564440  10.4735210
 113.5646710 139.3510270  10.0025580 117.4541950 128.9081360   5.2926320
 117.8222770 128.0876570   5.6205890 116.5940150 128.9683250   5.7081970
 114.4143940 131.5620950   5.5164290 114.9129190 132.0366770   6.1816140
 114.5566890 130.6384470   5.7234320 121.6210800 127.7788910   6.3592680
 121.1184400 128.5194310   6.6986490 122.4367460 128.1672910   6.0429470
 108.3934200 141.4708220  10.3411010 109.1946930 141.7920270  10.7546410
 107.8786020 141.1103800  11.0630920 117.2298830 137.5788090  10.2886420
 116.6236990 137.6019690   9.5482170 116.9252940 136.8471130  10.8253670
 118.6599200 141.3068380   8.8995830 119.6120950 141.2226400   8.8496070
 118.5127420 141.9710090   9.5729620 106.1132010 133.9581680   9.2847060
 106.6171030 133.3788960   9.8563290 105.3739430 134.2421910   9.8223430
 113.1669950 135.3652670   8.8182580 112.4015620 135.9337670   8.7337250
 113.3485910 135.0728880   7.9250810 120.3093300 137.0958000   9.3757600
 121.0502770 137.4333760   8.8725060 119.5465980 137.2650060   8.8227370
 108.1455090 132.1011270  10.1797130 108.1860430 131.8025140  11.0882360
 109.0000590 132.5018880  10.0204650 110.0860900 130.6803370   8.1471620
 109.5557360 130.1894320   7.5194960 110.7548970 131.1087570   7.6129550
 118.9838960 135.1472830   7.9112810 119.3979980 135.3017910   8.7603230
 118.0489960 135.2728050   8.0738590 119.4561130 132.4868990   9.9151960
 120.0381900 131.7321310   9.8272440 119.6322900 133.0176430   9.1383440
 110.5733200 127.6465740   8.2268910 110.4790070 127.0286490   7.5019780
 109.9930590 128.3732030   7.9998820 113.3394640 126.2038980   5.2596300
 112.8911940 126.2263240   4.4141850 112.7059840 125.8058000   5.8566600
 113.7454190 135.0993310   5.8808740 114.1642300 135.9426040   5.7084980
 112.8262820 135.2365350   5.6515520 116.0818090 132.8309490   7.2646580
 116.2014300 132.2350630   8.0041420 116.9412090 132.8679180   6.8447880
 118.4205990 133.3846680   5.8409090 117.8941210 133.9089300   5.2374230
 118.7637330 134.0174070   6.4718820 111.5961610 141.4046320   6.9966470
 111.0582700 142.1292380   6.6775170 111.8495570 140.9276660   6.2063810
 112.8486860 129.3730840   8.5222400 113.4386550 129.0646690   9.2100220
 112.0307100 128.9010590   8.6782300 117.6680290 128.9896650   8.7555420
 116.9795810 128.3278190   8.6905410 118.3886310 128.5434920   9.2003880
 114.4523820 142.6397530   7.2553120 114.3782520 143.5432670   7.5625490
 113.5502660 142.3209430   7.2275190 106.3441320 140.8342710   3.2968370
 105.9072310 141.0143510   4.1292520 106.9119000 141.5917330   3.1550090
 121.9803500 140.3359710   7.5845680 121.3805490 140.3952270   6.8409600
 122.1097400 139.3964690   7.7142530 120.6655140 137.0611690   5.6821840
 119.8514980 137.4908850   5.9447630 121.0729340 137.6730100   5.0690890
 107.2141680 133.7315510   4.1960590 107.5814720 133.6442910   5.0756610
 106.6452500 132.9682060   4.0967450 122.0145540 132.1999890   7.2091060
 121.7831630 131.9712640   6.3089010 122.2750090 133.1199440   7.1635950
 106.7657680 130.6424600   8.1019010 105.8713730 130.6091360   8.4412720
 107.3055230 130.8411390   8.8670260 120.4533610 127.4256320   9.9870760
 121.3303790 127.4339720  10.3704760 120.4654450 126.6887160   9.3763110
 122.0786600 131.3625730   4.3978330 121.1289310 131.3289270   4.5123320
 122.2599610 132.2725840   4.1628100 107.2697390 124.9172930   2.4502230
 107.9173580 124.3670310   2.0097390 107.6899230 125.1716080   3.2718040
 121.1649730 125.1114290   5.8071870 121.8021950 125.7248430   6.1731060
 121.3124620 125.1474950   4.8621100 107.0229390 125.0728600   5.1927550
 106.6744210 125.5292420   5.9585730 106.6917090 124.1785730   5.2749980
 108.6293760 138.2448200   9.3580740 108.5863390 137.8741110  10.2395200
 108.7604770 139.1825770   9.4982560 112.3299790 139.8007790   4.9590460
 112.0891150 140.0682350   4.0720980 113.2702430 139.9713520   5.0141320
 114.5354210 126.2640480   8.7146970 114.4743100 126.8562310   9.4642380
 115.4754590 126.1566440   8.5697230 117.1728770 125.9210540   8.3539260
 117.7869180 126.2389830   7.6920340 117.7178330 125.4359130   8.9735120
 123.5903950 141.8202170   5.7601100 123.0962230 142.2171040   5.0428230
 122.9817240 141.1951380   6.1538380 107.6950030 124.6004800   8.4678320
 108.2433020 124.4192850   7.7044430 107.7605340 123.8098910   9.0034630
 108.4681790 141.1910450   6.4778520 107.8742110 141.0595150   7.2168560
 108.4605630 140.3548590   6.0120620 117.9136810 124.4842680   4.6808550
 117.0396650 124.8177790   4.4781480 117.8047560 124.0115860   5.5060420
 118.8208790 126.6913550   6.0650270 118.4922150 125.8765310   5.6852000
 119.7691090 126.6483360   5.9415960 121.2743400 142.4625590   3.0387840
 120.8146370 143.2141400   2.6645860 120.6455860 141.7432060   2.9802640
 108.0994020 138.5568830   5.4286560 107.3728080 137.9374120   5.3612510
 108.1603170 138.9509440   4.5584640 111.7039120 140.7713830   2.2135970
 112.2204140 140.1601190   1.6884230 112.3536500 141.2742610   2.7046980
 114.4434620 141.6622320   3.0404950 114.7312430 141.4076620   2.1637960
 114.9557840 141.1099680   3.6310520 115.6611630 125.4012520   3.6201460
 114.8783420 125.8758020   3.8998220 115.3674560 124.4967350   3.5114640
 114.5106980 142.5838420  10.4073150 115.4374290 142.3482690  10.4509110
 114.4957410 143.4110420   9.9259180 111.6970590 125.2483170  10.1715030
 111.4154860 125.7516770   9.4075850 112.0790290 124.4504920   9.8057160
 118.2986050 124.6636750  10.7495500 118.1851500 124.9831360  11.6447020
 119.1155790 125.0649260  10.4532780 121.0784540 141.8108280  10.2314190
 121.8709860 141.3157510  10.0240150 121.3717690 142.4898420  10.8389800
 117.2044200 113.9085730 150.0821650 117.1238250 112.9940340 149.8113360
 116.7908620 114.4052800 149.3761360 119.3569670 120.0924940 150.7430050
 118.8951200 119.3212180 151.0717220 120.1695220 120.1191010 151.2482500
 107.7620020 110.9586450 146.6249070 106.8736720 111.3002420 146.5228950
 108.0461210 110.7586770 145.7329900 115.5832980 122.3782950 150.3634040
 114.9644420 122.8340450 149.7928480 116.4384760 122.5334410 149.9623740
 109.9381410 109.5417950 147.6587450 110.0448160 110.4421680 147.9656210
 109.0273770 109.4935920 147.3682100 119.5900520 108.6642760 149.1298350
 120.4110140 108.1739330 149.1723830 119.6234600 109.2540420 149.8830190
 116.4496330 117.2622190 147.7565950 115.8313600 117.7271640 147.1928670
 116.9619580 117.9549670 148.1735460 105.8179530 117.9478720 145.1305580
 105.4407510 118.4365820 144.3990480 106.0752600 118.6204000 145.7612110
 113.4268460 106.3495110 150.5891090 113.7343440 105.7942000 149.8726590
 112.4969160 106.4839570 150.4064080 120.2728940 118.7878620 147.9688720
 120.1625270 117.8452950 148.0938140 120.2697190 119.1494260 148.8551480
 115.8149220 114.4143940 147.3251210 114.8878500 114.3481320 147.5539680
 115.9674040 115.3524070 147.2106450 115.8018300 110.6860940 144.3218370
 114.8621970 110.8474900 144.4070830 116.1201560 111.4046620 143.7754360
 119.8446510 115.9764240 147.8286460 119.2258930 115.6383790 147.1812760
 119.8270960 115.3324000 148.5365650 111.4205860 114.9408680 150.1070940
 111.0162860 114.2285930 149.6116840 111.5068980 114.5961920 150.9958980
 118.0211210 115.2151050 144.8359210 118.4604490 114.3773480 144.6897030
 118.7339630 115.8480450 144.9223350 116.1306590 120.1547120 148.8040450
 116.5702500 120.8971450 148.3895840 116.0693480 120.3973690 149.7279410
 121.6028350 106.4693860 143.1500250 121.2901010 106.5620690 144.0499320
 122.3640820 107.0474890 143.0997680 108.1210490 113.8353660 147.6077590
 108.0008090 114.5615750 146.9958860 107.8111380 113.0656570 147.1305500
 107.0043490 118.7068990 149.8252410 106.5971570 118.8483580 148.9706010
 107.8956500 118.4229150 149.6223620 118.7976770 123.1416240 146.1603460
 118.6377910 122.8519180 147.0585290 118.6323480 122.3656370 145.6248690
 111.2765150 122.9214770 147.9375080 111.1007630 122.0050310 147.7242880
 110.4220890 123.2802060 148.1772880 118.5002900 120.6503800 144.7201460
 117.8068060 120.6481090 144.0603740 119.2425760 120.2263120 144.2895630
 118.0652830 122.2766510 148.7949950 118.5209780 121.4955890 149.1088570
 118.4045350 122.9873330 149.3391130 110.5874150 107.1788730 150.9901260
 110.1442300 107.9598270 150.6585780 111.1459140 107.5018620 151.6972200
 113.7032970 106.7999430 145.8707090 113.0787150 106.7959300 146.5960400
 113.6163090 105.9330390 145.4743060 110.3788370 112.3022300 148.7182510
 110.1529290 112.0859470 149.6229130 109.5980900 112.7350760 148.3728480
 117.6086130 112.3085670 147.3173160 117.0095020 113.0321470 147.1336780
 118.1565740 112.2462450 146.5349610 116.2151000 110.9449210 149.3476440
 116.6080570 111.2621410 148.5345130 116.5767850 110.0661090 149.4620960
 105.4385400 111.4770130 142.7809360 105.3560070 112.4200890 142.9224350
 105.0868460 111.3345040 141.9021710 109.0885910 110.0935650 150.8073920
 108.7485960 110.5710880 151.5640970 108.3263230 109.6400770 150.4475020
 113.3003680 111.2121240 144.8386470 113.4216500 111.1707720 145.7872290
 112.9152190 112.0745390 144.6833200 112.3125180 113.5222380 144.2369770
 111.7442080 113.0740630 143.6105680 113.0214180 113.8815160 143.7034920
 106.4031990 109.0154630 149.7238590 106.1178910 108.6510300 150.5617210
 106.3410850 108.2835090 149.1101730 109.8572660 117.5180570 146.5096180
 109.0834920 116.9778190 146.3494900 110.5867290 116.9987180 146.1713940
 116.0770580 107.9083890 146.4451960 115.2635190 107.4097060 146.3697270
 115.8832530 108.7482140 146.0288310 118.7918970 112.2803540 144.7414120
 119.6798590 112.5920770 144.5665460 118.7624060 111.4075790 144.3494700
 109.9010060 117.1860950 150.1474990 110.4188730 116.3829210 150.0931880
 109.4494080 117.1240090 150.9891820 114.7879560 118.4527230 145.4202290
 115.1295260 119.1969460 144.9245610 113.9592270 118.7658350 145.7827120
 121.0633240 113.5915380 144.2093980 120.9796960 114.0229600 143.3590420
 121.7827430 114.0513730 144.6420800 122.0920490 120.4457640 146.9376110
 121.4496650 119.7913260 147.2119830 121.7051150 120.8512730 146.1616780
 117.6706970 117.7743070 150.7847800 118.0230790 117.1771200 150.1249170
 116.7869300 117.4487300 150.9556050 113.7570250 118.5340760 148.1918210
 114.4441380 119.0809970 148.5725800 112.9702670 119.0781490 148.2267820
 105.8962650 114.1513580 143.6835290 106.7657500 114.4338380 143.9671210
 105.4052970 114.9649450 143.5684100 113.0597460 115.5386790 147.8043570
 113.5160240 116.3492040 148.0303760 112.7085670 115.2209930 148.6362060
 108.9609240 105.8824440 148.2766090 108.8323870 105.8742340 149.2251010
 108.1371260 106.2207530 147.9257100 120.4817870 119.3374100 143.4752460
 120.2555450 118.6204540 144.0677100 120.0914070 119.0886540 142.6374210
 106.2633900 123.3640960 144.2496920 106.6231540 123.9630300 143.5954190
 106.1226240 123.9100850 145.0231950 120.0634120 117.2546040 145.1366620
 119.7755820 117.7158730 145.9244500 120.8586290 116.7943810 145.4050840
 112.2802520 120.7472160 145.0670590 112.2712620 121.4801850 144.4515100
 111.3600880 120.5003740 145.1597550 107.8809160 115.9687050 145.8117350
 107.2737110 116.7085950 145.8212650 108.3558510 116.0586410 144.9855550
 120.8203980 109.0894810 146.2961800 120.1917140 109.1940480 145.5820030
 120.3255900 109.3091590 147.0855680 115.2662120 120.8100400 143.7295780
 115.3674100 120.6064390 142.7997760 114.3663860 120.5558680 143.9343560
 112.7888010 111.3680760 147.7119680 112.0804160 111.8367100 148.1533290
 113.0732490 110.7102770 148.3464870 116.8203440 108.0931420 149.1515470
 116.6971220 108.1117550 148.2024980 117.7688000 108.1410360 149.2713870
 113.9080230 123.3286720 148.4243450 114.1621730 123.2908110 147.5022820
 112.9592710 123.2020050 148.4171700 110.9923030 109.6765840 145.0870390
 111.8413560 110.1135990 145.0210580 110.6254300 109.9886100 145.9142450
 119.9132810 114.2478600 150.0001960 118.9722950 114.2628830 150.1749650
 120.2276880 113.4614560 150.4462260 109.8914450 115.9298200 143.5605920
 110.6577720 115.8179560 144.1231350 109.9689140 115.2336170 142.9082690
 108.5861210 113.3623270 144.2438810 108.6664800 112.4150780 144.3556210
 109.4780960 113.6930150 144.3499470 109.3875920 123.5118660 151.3473350
 110.1238400 122.9634120 151.6181920 109.7716840 124.3774670 151.2079340
 106.2721400 119.5792230 147.2214860 105.3461180 119.8213370 147.2120270
 106.7377830 120.4066490 147.0999610 112.4978230 122.6848970 143.1698920
 113.2906840 122.9737800 142.7180710 111.9782580 122.2541140 142.4911400
 121.5508400 121.9119100 144.5935660 121.2649910 121.4984240 143.7789840
 121.3527950 122.8406810 144.4736180 113.0155630 117.9052380 143.0341270
 112.9106270 117.2904730 143.7602650 112.8479850 117.3818270 142.2504280
 116.2558360 116.9672410 143.6383260 115.7068460 117.4141710 144.2826000
 116.8777620 116.4621660 144.1620930 111.9233480 115.9263330 145.5348560
 112.3449900 115.7603200 146.3779950 112.0484320 115.1163560 145.0403700
 114.4361120 114.9500940 142.7825660 114.9566780 114.2349960 142.4166810
 115.0829520 115.5886810 143.0826170 110.8192380 111.9996560 142.4806720
 110.6181440 111.1363920 142.8420060 110.6484430 111.9129920 141.5428320
 118.2980690 106.8104790 145.0093600 118.5782980 105.9672690 145.3653020
 117.5246420 107.0427900 145.5232350 109.6175180 109.0997180 142.4684600
 109.9201080 109.1064610 141.5603750 110.3569770 108.7495040 142.9652260
 112.8360110 108.0431800 143.4540800 112.4882110 107.3655790 142.8743250
 113.0372880 107.5821310 144.2684190 115.0009150 123.0312550 145.0727400
 115.8959940 123.3697520 145.0946160 115.0326780 122.3091960 144.4451680
 108.6405310 118.4039600 143.3014400 109.0780180 118.9469270 143.9571980
 109.1253040 117.5786550 143.3110740 105.8551110 121.1928630 150.7534660
 106.1854120 120.3249690 150.5213300 106.2842110 121.3987150 151.5839620
 110.4513030 119.5237640 148.4136630 110.1508570 119.4002610 149.3140540
 110.3450520 118.6646230 148.0052360 123.2204950 119.3034040 143.1163310
 122.3897910 119.3710690 143.5870540 123.3976780 120.1938160 142.8130170
 122.6761410 116.0481520 145.6197510 123.4380320 116.6178170 145.7257200
 122.6915780 115.4808720 146.3905820 106.1765750 114.5719450 149.8505170
 105.5214590 114.3031090 149.2064870 107.0143700 114.4623930 149.4007150
 123.6821380 116.9031620 150.4639440 124.0530210 116.1198940 150.0575410
 124.3223310 117.5920720 150.2856740 122.7280580 116.3415890 142.7770030
 123.0029420 117.2494770 142.6489250 122.5391320 116.2778420 143.7132020
 119.1256190 109.3660740 144.0723660 119.5441070 109.1791720 143.2320320
 118.8192250 108.5139790 144.3826590 122.6245920 114.2784880 147.7699460
 122.2489520 113.5112810 147.3380750 121.8949040 114.6607580 148.2574390
 105.3903830 111.7818380 145.7930500 104.4867910 112.0448580 145.6182160
 105.8744450 112.0529550 145.0130460 107.9331040 110.8383920 143.7024880
 108.6422740 110.4167140 143.2172160 107.2170980 110.9059150 143.0708230
 107.5805200 106.8923250 142.7427530 108.3033330 107.4332190 143.0608750
 107.8529720 106.6186670 141.8669070 121.3896850 111.7615720 147.0099110
 121.8855970 111.5286590 147.7947990 121.1912920 110.9227560 146.5936750
 122.8184010 110.3976670 149.5436790 122.7083290 110.2432710 150.4819060
 123.5791600 109.8697610 149.3012200 123.7074280 108.2284590 142.7842930
 124.6323590 108.0965770 142.5761220 123.6850070 108.3077410 143.7379380
 123.7812770 108.9995250 145.4099640 122.9864270 108.9340370 145.9392550
 123.9856050 109.9345890 145.3984990 120.7231190 123.0386800 149.4038030
 121.3190260 122.7171370 148.7272450 120.9809340 122.5658620 150.1951300
 122.0771270 106.9607370 149.8707290 122.0159670 106.0168590 149.7238310
 122.8563300 107.0687460 150.4160750 106.3824020 123.0999730 148.8331240
 106.2146060 122.4670410 149.5313130 105.5158530 123.3059130 148.4825430
 107.0052040 106.9316510 146.3363100 107.7631400 107.0445390 145.7627130
 106.5429210 107.7685710 146.2906530 113.5465850 109.0455780 149.3265410
 112.7340360 108.6712670 148.9861290 114.0507490 108.2900860 149.6286600
 118.0490830 105.7098230 150.5648480 118.6520200 106.2818440 151.0397000
 117.3083820 106.2737670 150.3422380 121.1925430 106.1119790 145.8388760
 121.3876060 107.0103240 146.1056190 120.4055300 105.8806870 146.3321710
 107.9886720 121.7932960 146.2781380 107.4634340 122.1740990 145.5743340
 107.9131300 122.4183730 146.9991090 109.3777190 107.4580560 144.8765070
 109.9069950 106.6710360 144.7473020 110.0105510 108.1371750 145.1100600
 111.5715030 107.1955700 147.9310460 110.9417770 106.4943010 148.0980590
 111.0320170 107.9559830 147.7143620 122.7452040 123.3520500 147.5995320
 122.9204230 122.6658240 146.9556240 122.0473610 123.8767550 147.2071990
 110.5879690 123.7415340 145.1530630 111.3198510 123.4574620 144.6054520
 110.8473360 123.5028620 146.0430010 109.7494480 119.8580070 145.1576960
 109.1203360 120.3265170 145.7062790 109.8642310 119.0129290 145.5923150
 117.2044200 113.9085730 131.3078160 117.1238250 112.9940340 131.0369870
 116.7908620 114.4052800 130.6017870 115.3362240 115.6864750 133.1887430
 114.5604340 115.2065190 133.4786000 115.9875170 115.0070400 133.0143590
 109.3528070 115.9984560 134.0663190 108.5212950 115.7433270 134.4659700
 109.9609050 116.0695330 134.8021110 119.3569670 120.0924940 131.9686560
 118.8951200 119.3212180 132.2973730 120.1695220 120.1191010 132.4739010
 109.3329330 120.0324650 134.2621210 109.6357370 119.1422390 134.0831430
 110.0772920 120.5894870 134.0343460 107.7620020 110.9586450 127.8505580
 106.8736720 111.3002420 127.7485460 108.0461210 110.7586770 126.9586410
 105.7253030 113.5592100 133.7345280 106.2969140 112.7914300 133.7348920
 105.7254570 113.8580860 132.8251890 115.5832980 122.3782950 131.5890550
 114.9644420 122.8340450 131.0184990 116.4384760 122.5334410 131.1880250
 114.7771230 118.3621940 133.1957590 114.7079510 117.4211880 133.0346720
 115.5391090 118.4523350 133.7680160 106.9677900 108.9676460 135.5214210
 106.7880740 108.0702210 135.8016970 106.5657980 109.5148330 136.1961160
 115.8076400 111.1692320 133.4226520 116.1841220 110.2964200 133.3100190
 115.7095910 111.5051020 132.5316960 109.9381410 109.5417950 128.8843960
 110.0448160 110.4421680 129.1912720 109.0273770 109.4935920 128.5938610
 119.5900520 108.6642760 130.3554860 120.4110140 108.1739330 130.3980340
 119.6234600 109.2540420 131.1086700 107.5864570 111.4636960 134.1296550
 108.2674680 111.7275330 134.7483950 107.2712620 110.6237830 134.4634560
 111.7789140 112.5104320 133.2169140 112.2867360 113.0085290 133.8574160
 112.3102380 111.7339520 133.0408500 123.8800070 110.6809510 136.9198490
 123.1752240 111.0691220 136.4013600 124.1457990 111.3759800 137.5219420
 110.0625240 107.1502880 137.4832560 110.0643680 107.6675270 136.6778460
 109.2329550 106.6733060 137.4602490 116.4496330 117.2622190 128.9822460
 115.8313600 117.7271640 128.4185180 116.9619580 117.9549670 129.3991970
 111.3128090 116.7898060 135.6606060 110.9797470 117.4166980 136.3027130
 111.4894770 117.3159940 134.8807730 119.8262000 110.6043140 133.1282400
 119.1217570 110.8928030 133.7085510 120.1874160 111.4143250 132.7681960
 109.7440570 108.8612840 135.4903010 110.0857380 109.7054890 135.1956880
 108.8056380 109.0096580 135.6068350 110.5247190 118.7578860 137.4755240
 111.1421190 119.4329940 137.1939690 109.6640310 119.1666840 137.3842740
 105.8179530 117.9478720 126.3562090 105.4407510 118.4365820 125.6246990
 106.0752600 118.6204000 126.9868620 121.4424780 120.2218270 135.3909880
 120.7588300 120.8917380 135.3826550 121.9819070 120.4198920 134.6254740
 122.8948920 110.0497930 133.5191610 121.9473830 110.0836910 133.6507040
 123.2198910 110.8636880 133.9040970 113.4268460 106.3495110 131.8147600
 113.7343440 105.7942000 131.0983100 112.4969160 106.4839570 131.6320590
 118.9783520 122.0662400 134.1055060 118.9910680 121.6624690 133.2377320
 118.4258740 122.8409690 134.0016490 120.2728940 118.7878620 129.1945230
 120.1625270 117.8452950 129.3194650 120.2697190 119.1494260 130.0807990
 118.3768960 116.9692240 135.4337670 118.7937750 116.7552350 134.5991130
 119.1008780 117.2265030 136.0046290 115.8149220 114.4143940 128.5507720
 114.8878500 114.3481320 128.7796190 115.9674040 115.3524070 128.4362960
 115.8018300 110.6860940 125.5474880 114.8621970 110.8474900 125.6327340
 116.1201560 111.4046620 125.0010870 122.3231060 115.3679460 135.5253910
 121.4949690 115.4372550 135.0504040 122.9181540 115.9533770 135.0569740
 119.8446510 115.9764240 129.0542970 119.2258930 115.6383790 128.4069270
 119.8270960 115.3324000 129.7622160 119.2873070 112.1548780 136.4708780
 118.8744250 112.9802490 136.7248770 118.5549020 111.5693820 136.2785140
 111.4205860 114.9408680 131.3327450 111.0162860 114.2285930 130.8373350
 111.5068980 114.5961920 132.2215490 111.8887560 118.6276240 133.4966660
 111.5915850 118.0221710 132.8174440 112.8387380 118.6653550 133.3856020
 110.1334480 111.7151890 135.1126490 110.6849070 111.8247230 134.3379740
 110.6477990 112.0889490 135.8281720 119.9773170 122.2008110 137.1589760
 119.5003730 123.0080300 136.9662370 119.2934960 121.5486440 137.3115970
 110.9805990 118.3657930 140.1474460 110.0834520 118.5897900 140.3947860
 111.0058860 118.4892870 139.1985860 118.0211210 115.2151050 126.0615720
 118.4604490 114.3773480 125.9153540 118.7339630 115.8480450 126.1479860
 109.8077210 115.2371250 138.7231830 109.6684980 116.1094050 139.0919230
 108.9258570 114.8944060 138.5779770 116.1306590 120.1547120 130.0296960
 116.5702500 120.8971450 129.6152350 116.0693480 120.3973690 130.9535920
 111.6057560 121.1792950 140.9316980 111.5772990 121.5835900 140.0645410
 111.4422530 120.2503310 140.7688580 121.6028350 106.4693860 124.3756760
 121.2901010 106.5620690 125.2755830 122.3640820 107.0474890 124.3254190
 108.1210490 113.8353660 128.8334100 108.0008090 114.5615750 128.2215370
 107.8111380 113.0656570 128.3562010 123.5572380 121.9620050 142.2281150
 124.0332100 122.4402940 142.9070230 124.1779540 121.8937540 141.5026650
 105.7595860 117.0068800 134.6402740 105.8376280 117.1417570 133.6958460
 106.3737540 116.2984690 134.8330860 107.0043490 118.7068990 131.0508920
 106.5971570 118.8483580 130.1962520 107.8956500 118.4229150 130.8480130
 122.9605630 119.1532900 139.3881160 123.0868690 118.9144780 138.4698340
 123.0027010 118.3217440 139.8603240 116.8222370 122.8560900 137.9575970
 117.3367040 122.7668910 138.7598400 115.9791450 123.2020600 138.2503880
 118.7976770 123.1416240 127.3859970 118.6377910 122.8519180 128.2841800
 118.6323480 122.3656370 126.8505200 111.2765150 122.9214770 129.1631590
 111.1007630 122.0050310 128.9499390 110.4220890 123.2802060 129.4029390
 118.5002900 120.6503800 125.9457970 117.8068060 120.6481090 125.2860250
 119.2425760 120.2263120 125.5152140 118.0652830 122.2766510 130.0206460
 118.5209780 121.4955890 130.3345080 118.4045350 122.9873330 130.5647640
 122.8129640 111.2065360 140.3530900 122.1973910 111.7145030 139.8246360
 122.4926060 110.3063690 140.2956840 105.8155380 118.0482970 137.1797200
 105.9786420 117.5788330 136.3616570 106.2807830 117.5406530 137.8446040
 110.5874150 107.1788730 132.2157770 110.1442300 107.9598270 131.8842290
 111.1459140 107.5018620 132.9228710 114.8743960 110.0457250 137.8193090
 114.4123330 110.2540270 138.6313030 114.4722070 109.2316600 137.5163760
 119.8748470 111.2666200 138.9489750 119.0242060 110.9671950 139.2698820
 119.7150260 111.5108210 138.0373570 116.9698180 112.7667950 141.0488540
 117.2951590 111.9331700 140.7090770 117.7578510 113.2896470 141.1966870
 113.7032970 106.7999430 127.0963600 113.0787150 106.7959300 127.8216910
 113.6163090 105.9330390 126.6999570 112.6250050 107.7236060 134.0747370
 112.9222380 108.6298890 133.9939390 113.1735610 107.2354840 133.4606940
 110.3788370 112.3022300 129.9439020 110.1529290 112.0859470 130.8485640
 109.5980900 112.7350760 129.5984990 117.6086130 112.3085670 128.5429670
 117.0095020 113.0321470 128.3593290 118.1565740 112.2462450 127.7606120
 112.8187580 113.2007880 140.6099290 112.7231180 112.2602610 140.4599690
 113.6619560 113.4222950 140.2147360 116.2151000 110.9449210 130.5732950
 116.6080570 111.2621410 129.7601640 116.5767850 110.0661090 130.6877470
 107.9498120 109.6121550 138.7633070 107.5561510 110.4596760 138.9705850
 107.2616520 108.9747920 138.9541710 114.5243170 109.6956520 141.8329810
 113.8341490 109.5028720 142.4675900 115.2675470 109.9791160 142.3654110
 105.2515170 107.5350010 132.7963150 104.9628220 108.1052870 133.5088130
 105.9960930 107.0554460 133.1594380 116.8006140 113.5354960 134.6683730
 116.0687260 114.0441770 135.0173830 116.4030480 112.7184940 134.3672510
 113.2383530 110.2109160 133.0736220 113.2419590 109.7699110 132.2240760
 114.1334650 110.5326490 133.1808040 109.0885910 110.0935650 132.0330430
 108.7485960 110.5710880 132.7897480 108.3263230 109.6400770 131.6731530
 113.3003680 111.2121240 126.0642980 113.4216500 111.1707720 127.0128800
 112.9152190 112.0745390 125.9089710 117.2632050 108.9888640 134.0806670
 117.2804790 109.4397290 134.9248520 117.0147630 108.0894280 134.2940110
 112.3125180 113.5222380 125.4626280 111.7442080 113.0740630 124.8362190
 113.0214180 113.8815160 124.9291430 120.6902800 106.4020820 139.9193050
 121.0148570 105.6710480 140.4451030 120.7259310 106.0834460 139.0174040
 107.3894360 117.4234400 139.3393010 107.0049150 116.7828070 139.9375970
 107.7006550 118.1270520 139.9087740 113.5391500 114.2710940 134.8201630
 113.9061630 113.7969510 135.5662970 113.3496560 115.1452510 135.1609970
 106.4031990 109.0154630 130.9495100 106.1178910 108.6510300 131.7873720
 106.3410850 108.2835090 130.3358240 111.3290870 113.3119580 137.1385840
 111.0247940 114.1911560 137.3636200 112.2837330 113.3719370 137.1743280
 109.8572660 117.5180570 127.7352690 109.0834920 116.9778190 127.5751410
 110.5867290 116.9987180 127.3970450 120.6160640 116.5145930 133.5279080
 121.3359760 117.0101220 133.1375190 120.4142460 115.8363820 132.8832950
 116.0770580 107.9083890 127.6708470 115.2635190 107.4097060 127.5953780
 115.8832530 108.7482140 127.2544820 115.9979440 116.5854990 139.4148080
 115.9316750 115.6650660 139.1605670 115.3684580 116.6830430 140.1292720
 118.7918970 112.2803540 125.9670630 119.6798590 112.5920770 125.7921970
 118.7624060 111.4075790 125.5751210 109.9010060 117.1860950 131.3731500
 110.4188730 116.3829210 131.3188390 109.4494080 117.1240090 132.2148330
 114.7879560 118.4527230 126.6458800 115.1295260 119.1969460 126.1502120
 113.9592270 118.7658350 127.0083630 107.3854600 114.1522320 138.2857200
 107.0269540 114.8176170 138.8730540 107.0909160 113.3205870 138.6569820
 110.5867720 114.6106560 141.1696750 110.2867860 114.7563740 140.2724570
 111.3578960 114.0511850 141.0770140 115.9296170 119.4075560 139.1651880
 115.9440710 118.4756520 138.9470790 115.2221270 119.4935320 139.8041650
 121.0633240 113.5915380 125.4350490 120.9796960 114.0229600 124.5846930
 121.7827430 114.0513730 125.8677310 122.1407380 116.0482900 138.5120460
 121.4155570 116.6411680 138.3149850 122.6682840 116.0406440 137.7133830
 122.0920490 120.4457640 128.1632620 121.4496650 119.7913260 128.4376340
 121.7051150 120.8512730 127.3873290 117.6706970 117.7743070 132.0104310
 118.0230790 117.1771200 131.3505680 116.7869300 117.4487300 132.1812560
 113.7570250 118.5340760 129.4174720 114.4441380 119.0809970 129.7982310
 112.9702670 119.0781490 129.4524330 113.0597460 115.5386790 129.0300080
 113.5160240 116.3492040 129.2560270 112.7085670 115.2209930 129.8618570
 115.3630070 121.0493130 136.2592380 116.0072290 121.2552510 136.9365800
 115.7259510 120.2881530 135.8063230 108.9609240 105.8824440 129.5022600
 108.8323870 105.8742340 130.4507520 108.1371260 106.2207530 129.1513610
 116.6362150 119.0525480 134.9769830 117.2784380 118.3518640 135.0902000
 117.1611500 119.8323920 134.7966720 120.4817870 119.3374100 124.7008970
 120.2555450 118.6204540 125.2933610 120.0914070 119.0886540 123.8630720
 118.4099770 119.8520380 138.1805890 118.7456010 120.4387070 138.8583810
 117.4900110 119.7213090 138.4103680 106.2633900 123.3640960 125.4753430
 106.6231540 123.9630300 124.8210700 106.1226240 123.9100850 126.2488460
 105.9603170 107.6415560 138.9629300 105.2461690 107.8412480 139.5681910
 106.3798210 106.8655130 139.3344100 120.0634120 117.2546040 126.3623130
 119.7755820 117.7158730 127.1501010 120.8586290 116.7943810 126.6307350
 106.2475760 121.6295820 139.9495830 106.3566880 120.6890560 139.8091220
 105.5956320 121.8950570 139.3009560 114.2388350 119.9011710 141.3493950
 113.9185220 119.1820950 141.8939640 113.5646710 120.5766780 141.4230010
 112.2802520 120.7472160 126.2927100 112.2712620 121.4801850 125.6771610
 111.3600880 120.5003740 126.3854060 107.8809160 115.9687050 127.0373860
 107.2737110 116.7085950 127.0469160 108.3558510 116.0586410 126.2112060
 117.4541950 110.1337870 136.7130750 117.8222770 109.3133080 137.0410320
 116.5940150 110.1939760 137.1286400 120.8203980 109.0894810 127.5218310
 120.1917140 109.1940480 126.8076540 120.3255900 109.3091590 128.3112190
 115.2662120 120.8100400 124.9552290 115.3674100 120.6064390 124.0254270
 114.3663860 120.5558680 125.1600070 112.7888010 111.3680760 128.9376190
 112.0804160 111.8367100 129.3789800 113.0732490 110.7102770 129.5721380
 114.4143940 112.7877460 136.9368720 114.9129190 113.2623280 137.6020570
 114.5566890 111.8640980 137.1438750 116.8203440 108.0931420 130.3771980
 116.6971220 108.1117550 129.4281490 117.7688000 108.1410360 130.4970380
 113.9080230 123.3286720 129.6499960 114.1621730 123.2908110 128.7279330
 112.9592710 123.2020050 129.6428210 110.9923030 109.6765840 126.3126900
 111.8413560 110.1135990 126.2467090 110.6254300 109.9886100 127.1398960
 121.6210800 109.0045420 137.7797110 121.1184400 109.7450820 138.1190920
 122.4367460 109.3929420 137.4633900 119.9132810 114.2478600 131.2258470
 118.9722950 114.2628830 131.4006160 120.2276880 113.4614560 131.6718770
 109.8914450 115.9298200 124.7862430 110.6577720 115.8179560 125.3487860
 109.9689140 115.2336170 124.1339200 108.5861210 113.3623270 125.4695320
 108.6664800 112.4150780 125.5812720 109.4780960 113.6930150 125.5755980
 121.9158390 121.4187450 132.9012730 122.0405810 122.2418620 133.3736540
 122.7823950 121.2078180 132.5536880 109.3875920 123.5118660 132.5729860
 110.1238400 122.9634120 132.8438430 109.7716840 124.3774670 132.4335850
 106.2721400 119.5792230 128.4471370 105.3461180 119.8213370 128.4376780
 106.7377830 120.4066490 128.3256120 108.3934200 122.6964730 141.7615440
 109.1946930 123.0176780 142.1750840 107.8786020 122.3360310 142.4835350
 112.4978230 122.6848970 124.3955430 113.2906840 122.9737800 123.9437220
 111.9782580 122.2541140 123.7167910 117.2298830 118.8044600 141.7090850
 116.6236990 118.8276200 140.9686600 116.9252940 118.0727640 142.2458100
 118.6599200 122.5324890 140.3200260 119.6120950 122.4482910 140.2700500
 118.5127420 123.1966600 140.9934050 121.5508400 121.9119100 125.8192170
 121.2649910 121.4984240 125.0046350 121.3527950 122.8406810 125.6992690
 106.1132010 115.1838190 140.7051490 106.6171030 114.6045470 141.2767720
 105.3739430 115.4678420 141.2427860 113.0155630 117.9052380 124.2597780
 112.9106270 117.2904730 124.9859160 112.8479850 117.3818270 123.4760790
 113.1669950 116.5909180 140.2387010 112.4015620 117.1594180 140.1541680
 113.3485910 116.2985390 139.3455240 116.2558360 116.9672410 124.8639770
 115.7068460 117.4141710 125.5082510 116.8777620 116.4621660 125.3877440
 120.3093300 118.3214510 140.7962030 121.0502770 118.6590270 140.2929490
 119.5465980 118.4906570 140.2431800 108.1455090 113.3267780 141.6001560
 108.1860430 113.0281650 142.5086790 109.0000590 113.7275390 141.4409080
 111.9233480 115.9263330 126.7605070 112.3449900 115.7603200 127.6036460
 112.0484320 115.1163560 126.2660210 110.0860900 111.9059880 139.5676050
 109.5557360 111.4150830 138.9399390 110.7548970 112.3344080 139.0333980
 114.4361120 114.9500940 124.0082170 114.9566780 114.2349960 123.6423320
 115.0829520 115.5886810 124.3082680 118.9838960 116.3729340 139.3317240
 119.3979980 116.5274420 140.1807660 118.0489960 116.4984560 139.4943020
 119.4561130 113.7125500 141.3356390 120.0381900 112.9577820 141.2476870
 119.6322900 114.2432940 140.5587870 110.5733200 108.8722250 139.6473340
 110.4790070 108.2543000 138.9224210 109.9930590 109.5988540 139.4203250
 113.3394640 107.4295490 136.6800730 112.8911940 107.4519750 135.8346280
 112.7059840 107.0314510 137.2771030 113.7454190 116.3249820 137.3013170
 114.1642300 117.1682550 137.1289410 112.8262820 116.4621860 137.0719950
 116.0818090 114.0566000 138.6851010 116.2014300 113.4607140 139.4245850
 116.9412090 114.0935690 138.2652310 118.4205990 114.6103190 137.2613520
 117.8941210 115.1345810 136.6578660 118.7637330 115.2430580 137.8923250
 110.8192380 111.9996560 123.7063230 110.6181440 111.1363920 124.0676570
 110.6484430 111.9129920 122.7684830 111.5961610 122.6302830 138.4170900
 111.0582700 123.3548890 138.0979600 111.8495570 122.1533170 137.6268240
 112.8486860 110.5987350 139.9426830 113.4386550 110.2903200 140.6304650
 112.0307100 110.1267100 140.0986730 117.6680290 110.2153160 140.1759850
 116.9795810 109.5534700 140.1109840 118.3886310 109.7691430 140.6208310
 118.2980690 106.8104790 126.2350110 118.5782980 105.9672690 126.5909530
 117.5246420 107.0427900 126.7488860 109.6175180 109.0997180 123.6941110
 109.9201080 109.1064610 122.7860260 110.3569770 108.7495040 124.1908770
 114.4523820 123.8654040 138.6757550 114.3782520 124.7689180 138.9829920
 113.5502660 123.5465940 138.6479620 112.8360110 108.0431800 124.6797310
 112.4882110 107.3655790 124.0999760 113.0372880 107.5821310 125.4940700
 115.0009150 123.0312550 126.2983910 115.8959940 123.3697520 126.3202670
 115.0326780 122.3091960 125.6708190 108.6405310 118.4039600 124.5270910
 109.0780180 118.9469270 125.1828490 109.1253040 117.5786550 124.5367250
 105.8551110 121.1928630 131.9791170 106.1854120 120.3249690 131.7469810
 106.2842110 121.3987150 132.8096130 110.4513030 119.5237640 129.6393140
 110.1508570 119.4002610 130.5397050 110.3450520 118.6646230 129.2308870
 106.3441320 122.0599220 134.7172800 105.9072310 122.2400020 135.5496950
 106.9119000 122.8173840 134.5754520 121.9803500 121.5616220 139.0050110
 121.3805490 121.6208780 138.2614030 122.1097400 120.6221200 139.1346960
 123.2204950 119.3034040 124.3419820 122.3897910 119.3710690 124.8127050
 123.3976780 120.1938160 124.0386680 122.6761410 116.0481520 126.8454020
 123.4380320 116.6178170 126.9513710 122.6915780 115.4808720 127.6162330
 106.1765750 114.5719450 131.0761680 105.5214590 114.3031090 130.4321380
 107.0143700 114.4623930 130.6263660 123.6821380 116.9031620 131.6895950
 124.0530210 116.1198940 131.2831920 124.3223310 117.5920720 131.5113250
 120.6655140 118.2868200 137.1026270 119.8514980 118.7165360 137.3652060
 121.0729340 118.8986610 136.4895320 122.7280580 116.3415890 124.0026540
 123.0029420 117.2494770 123.8745760 122.5391320 116.2778420 124.9388530
 119.1256190 109.3660740 125.2980170 119.5441070 109.1791720 124.4576830
 118.8192250 108.5139790 125.6083100 122.6245920 114.2784880 128.9955970
 122.2489520 113.5112810 128.5637260 121.8949040 114.6607580 129.4830900
 107.2141680 114.9572020 135.6165020 107.5814720 114.8699420 136.4961040
 106.6452500 114.1938570 135.5171880 122.0145540 113.4256400 138.6295490
 121.7831630 113.1969150 137.7293440 122.2750090 114.3455950 138.5840380
 106.7657680 111.8681110 139.5223440 105.8713730 111.8347870 139.8617150
 107.3055230 112.0667900 140.2874690 120.4533610 108.6512830 141.4075190
 121.3303790 108.6596230 141.7909190 120.4654450 107.9143670 140.7967540
 121.8996880 112.5042370 132.2963210 122.4234360 112.0105020 131.6653380
 122.4856300 112.6392730 133.0410780 122.0786600 112.5882240 135.8182760
 121.1289310 112.5545780 135.9327750 122.2599610 113.4982350 135.5832530
 107.9331040 110.8383920 124.9281390 108.6422740 110.4167140 124.4428670
 107.2170980 110.9059150 124.2964740 107.5805200 106.8923250 123.9684040
 108.3033330 107.4332190 124.2865260 107.8529720 106.6186670 123.0925580
 121.3896850 111.7615720 128.2355620 121.8855970 111.5286590 129.0204500
 121.1912920 110.9227560 127.8193260 107.2697390 106.1429440 133.8706660
 107.9173580 105.5926820 133.4301820 107.6899230 106.3972590 134.6922470
 122.8184010 110.3976670 130.7693300 122.7083290 110.2432710 131.7075570
 123.5791600 109.8697610 130.5268710 121.1649730 106.3370800 137.2276300
 121.8021950 106.9504940 137.5935490 121.3124620 106.3731460 136.2825530
 123.7074280 108.2284590 124.0099440 124.6323590 108.0965770 123.8017730
 123.6850070 108.3077410 124.9635890 123.7812770 108.9995250 126.6356150
 122.9864270 108.9340370 127.1649060 123.9856050 109.9345890 126.6241500
 120.7231190 123.0386800 130.6294540 121.3190260 122.7171370 129.9528960
 120.9809340 122.5658620 131.4207810 107.0229390 106.2985110 136.6131980
 106.6744210 106.7548930 137.3790160 106.6917090 105.4042240 136.6954410
 108.6293760 119.4704710 140.7785170 108.5863390 119.0997620 141.6599630
 108.7604770 120.4082280 140.9186990 112.3299790 121.0264300 136.3794890
 112.0891150 121.2938860 135.4925410 113.2702430 121.1970030 136.4345750
 114.5354210 107.4896990 140.1351400 114.4743100 108.0818820 140.8846810
 115.4754590 107.3822950 139.9901660 117.1728770 107.1467050 139.7743690
 117.7869180 107.4646340 139.1124770 117.7178330 106.6615640 140.3939550
 123.5903950 123.0458680 137.1805530 123.0962230 123.4427550 136.4632660
 122.9817240 122.4207890 137.5742810 107.6950030 105.8261310 139.8882750
 108.2433020 105.6449360 139.1248860 107.7605340 105.0355420 140.4239060
 108.4681790 122.4166960 137.8982950 107.8742110 122.2851660 138.6372990
 108.4605630 121.5805100 137.4325050 117.9136810 105.7099190 136.1012980
 117.0396650 106.0434300 135.8985910 117.8047560 105.2372370 136.9264850
 118.8208790 107.9170060 137.4854700 118.4922150 107.1021820 137.1056430
 119.7691090 107.8739870 137.3620390 121.2743400 123.6882100 134.4592270
 120.8146370 124.4397910 134.0850290 120.6455860 122.9688570 134.4007070
 108.0994020 119.7825340 136.8490990 107.3728080 119.1630630 136.7816940
 108.1603170 120.1765950 135.9789070 111.7039120 121.9970340 133.6340400
 112.2204140 121.3857700 133.1088660 112.3536500 122.4999120 134.1251410
 114.4434620 122.8878830 134.4609380 114.7312430 122.6333130 133.5842390
 114.9557840 122.3356190 135.0514950 115.6611630 106.6269030 135.0405890
 114.8783420 107.1014530 135.3202650 115.3674560 105.7223860 134.9319070
 120.2132700 107.3292130 133.0854980 120.6540790 107.2737230 132.2376580
 119.9440290 108.2450140 133.1565160 122.0771270 106.9607370 131.0963800
 122.0159670 106.0168590 130.9494820 122.8563300 107.0687460 131.6417260
 106.3824020 123.0999730 130.0587750 106.2146060 122.4670410 130.7569640
 105.5158530 123.3059130 129.7081940 107.0052040 106.9316510 127.5619610
 107.7631400 107.0445390 126.9883640 106.5429210 107.7685710 127.5163040
 113.5465850 109.0455780 130.5521920 112.7340360 108.6712670 130.2117800
 114.0507490 108.2900860 130.8543110 118.0490830 105.7098230 131.7904990
 118.6520200 106.2818440 132.2653510 117.3083820 106.2737670 131.5678890
 121.1925430 106.1119790 127.0645270 121.3876060 107.0103240 127.3312700
 120.4055300 105.8806870 127.5578220 107.9886720 121.7932960 127.5037890
 107.4634340 122.1740990 126.7999850 107.9131300 122.4183730 128.2247600
 109.3777190 107.4580560 126.1021580 109.9069950 106.6710360 125.9729530
 110.0105510 108.1371750 126.3357110 111.5715030 107.1955700 129.1566970
 110.9417770 106.4943010 129.3237100 111.0320170 107.9559830 128.9400130
 114.5106980 123.8094930 141.8277580 115.4374290 123.5739200 141.8713540
 114.4957410 124.6366930 141.3463610 122.7452040 123.3520500 128.8251830
 122.9204230 122.6658240 128.1812750 122.0473610 123.8767550 128.4328500
 111.6970590 106.4739680 141.5919460 111.4154860 106.9773280 140.8280280
 112.0790290 105.6761430 141.2261590 110.5879690 123.7415340 126.3787140
 111.3198510 123.4574620 125.8311030 110.8473360 123.5028620 127.2686520
 109.7494480 119.8580070 126.3833470 109.1203360 120.3265170 126.9319300
 109.8642310 119.0129290 126.8179660 118.2986050 105.8893260 142.1699930
 118.1851500 106.2087870 143.0651450 119.1155790 106.2905770 141.8737210
 121.0784540 123.0364790 141.6518620 121.8709860 122.5414020 141.4444580
 121.3717690 123.7154930 142.2594230 117.2044200 113.9085730 112.5334670
 117.1238250 112.9940340 112.2626380 116.7908620 114.4052800 111.8274380
 115.3362240 115.6864750 114.4143940 114.5604340 115.2065190 114.7042510
 115.9875170 115.0070400 114.2400100 119.3569670 120.0924940 113.1943070
 118.8951200 119.3212180 113.5230240 120.1695220 120.1191010 113.6995520
 115.5832980 122.3782950 112.8147060 114.9644420 122.8340450 112.2441500
 116.4384760 122.5334410 112.4136760 114.7771230 118.3621940 114.4214100
 114.7079510 117.4211880 114.2603230 115.5391090 118.4523350 114.9936670
 115.8076400 111.1692320 114.6483030 116.1841220 110.2964200 114.5356700
 115.7095910 111.5051020 113.7573470 109.9381410 109.5417950 110.1100470
 110.0448160 110.4421680 110.4169230 109.0273770 109.4935920 109.8195120
 119.5900520 108.6642760 111.5811370 120.4110140 108.1739330 111.6236850
 119.6234600 109.2540420 112.3343210 107.5864570 111.4636960 115.3553060
 108.2674680 111.7275330 115.9740460 107.2712620 110.6237830 115.6891070
 123.8800070 110.6809510 118.1455000 123.1752240 111.0691220 117.6270110
 124.1457990 111.3759800 118.7475930 110.0625240 107.1502880 118.7089070
 110.0643680 107.6675270 117.9034970 109.2329550 106.6733060 118.6859000
 116.4496330 117.2622190 110.2078970 115.8313600 117.7271640 109.6441690
 116.9619580 117.9549670 110.6248480 111.3128090 116.7898060 116.8862570
 110.9797470 117.4166980 117.5283640 111.4894770 117.3159940 116.1064240
 119.8262000 110.6043140 114.3538910 119.1217570 110.8928030 114.9342020
 120.1874160 111.4143250 113.9938470 109.7440570 108.8612840 116.7159520
 110.0857380 109.7054890 116.4213390 108.8056380 109.0096580 116.8324860
 110.5247190 118.7578860 118.7011750 111.1421190 119.4329940 118.4196200
 109.6640310 119.1666840 118.6099250 121.4424780 120.2218270 116.6166390
 120.7588300 120.8917380 116.6083060 121.9819070 120.4198920 115.8511250
 122.8948920 110.0497930 114.7448120 121.9473830 110.0836910 114.8763550
 123.2198910 110.8636880 115.1297480 118.9783520 122.0662400 115.3311570
 118.9910680 121.6624690 114.4633830 118.4258740 122.8409690 115.2273000
 120.2728940 118.7878620 110.4201740 120.1625270 117.8452950 110.5451160
 120.2697190 119.1494260 111.3064500 118.3768960 116.9692240 116.6594180
 118.7937750 116.7552350 115.8247640 119.1008780 117.2265030 117.2302800
 115.8149220 114.4143940 109.7764230 114.8878500 114.3481320 110.0052700
 115.9674040 115.3524070 109.6619470 115.8018300 110.6860940 106.7731390
 114.8621970 110.8474900 106.8583850 116.1201560 111.4046620 106.2267380
 122.3231060 115.3679460 116.7510420 121.4949690 115.4372550 116.2760550
 122.9181540 115.9533770 116.2826250 119.8446510 115.9764240 110.2799480
 119.2258930 115.6383790 109.6325780 119.8270960 115.3324000 110.9878670
 119.2873070 112.1548780 117.6965290 118.8744250 112.9802490 117.9505280
 118.5549020 111.5693820 117.5041650 111.8887560 118.6276240 114.7223170
 111.5915850 118.0221710 114.0430950 112.8387380 118.6653550 114.6112530
 110.1334480 111.7151890 116.3383000 110.6849070 111.8247230 115.5636250
 110.6477990 112.0889490 117.0538230 119.9773170 122.2008110 118.3846270
 119.5003730 123.0080300 118.1918880 119.2934960 121.5486440 118.5372480
 110.9805990 118.3657930 121.3730970 110.0834520 118.5897900 121.6204370
 111.0058860 118.4892870 120.4242370 118.0211210 115.2151050 107.2872230
 118.4604490 114.3773480 107.1410050 118.7339630 115.8480450 107.3736370
 109.8077210 115.2371250 119.9488340 109.6684980 116.1094050 120.3175740
 108.9258570 114.8944060 119.8036280 116.1306590 120.1547120 111.2553470
 116.5702500 120.8971450 110.8408860 116.0693480 120.3973690 112.1792430
 111.6057560 121.1792950 122.1573490 111.5772990 121.5835900 121.2901920
 111.4422530 120.2503310 121.9945090 121.6028350 106.4693860 105.6013270
 121.2901010 106.5620690 106.5012340 122.3640820 107.0474890 105.5510700
 123.5572380 121.9620050 123.4537660 124.0332100 122.4402940 124.1326740
 124.1779540 121.8937540 122.7283160 122.9605630 119.1532900 120.6137670
 123.0868690 118.9144780 119.6954850 123.0027010 118.3217440 121.0859750
 116.8222370 122.8560900 119.1832480 117.3367040 122.7668910 119.9854910
 115.9791450 123.2020600 119.4760390 118.7976770 123.1416240 108.6116480
 118.6377910 122.8519180 109.5098310 118.6323480 122.3656370 108.0761710
 118.5002900 120.6503800 107.1714480 117.8068060 120.6481090 106.5116760
 119.2425760 120.2263120 106.7408650 118.0652830 122.2766510 111.2462970
 118.5209780 121.4955890 111.5601590 118.4045350 122.9873330 111.7904150
 122.8129640 111.2065360 121.5787410 122.1973910 111.7145030 121.0502870
 122.4926060 110.3063690 121.5213350 105.8155380 118.0482970 118.4053710
 105.9786420 117.5788330 117.5873080 106.2807830 117.5406530 119.0702550
 110.5874150 107.1788730 113.4414280 110.1442300 107.9598270 113.1098800
 111.1459140 107.5018620 114.1485220 114.8743960 110.0457250 119.0449600
 114.4123330 110.2540270 119.8569540 114.4722070 109.2316600 118.7420270
 119.8748470 111.2666200 120.1746260 119.0242060 110.9671950 120.4955330
 119.7150260 111.5108210 119.2630080 116.9698180 112.7667950 122.2745050
 117.2951590 111.9331700 121.9347280 117.7578510 113.2896470 122.4223380
 113.7032970 106.7999430 108.3220110 113.0787150 106.7959300 109.0473420
 113.6163090 105.9330390 107.9256080 112.6250050 107.7236060 115.3003880
 112.9222380 108.6298890 115.2195900 113.1735610 107.2354840 114.6863450
 117.6086130 112.3085670 109.7686180 117.0095020 113.0321470 109.5849800
 118.1565740 112.2462450 108.9862630 112.8187580 113.2007880 121.8355800
 112.7231180 112.2602610 121.6856200 113.6619560 113.4222950 121.4403870
 116.2151000 110.9449210 111.7989460 116.6080570 111.2621410 110.9858150
 116.5767850 110.0661090 111.9133980 114.5243170 109.6956520 123.0586320
 113.8341490 109.5028720 123.6932410 115.2675470 109.9791160 123.5910620
 105.4385400 111.4770130 105.2322380 105.3560070 112.4200890 105.3737370
 105.0868460 111.3345040 104.3534730 116.8006140 113.5354960 115.8940240
 116.0687260 114.0441770 116.2430340 116.4030480 112.7184940 115.5929020
 113.2383530 110.2109160 114.2992730 113.2419590 109.7699110 113.4497270
 114.1334650 110.5326490 114.4064550 113.3003680 111.2121240 107.2899490
 113.4216500 111.1707720 108.2385310 112.9152190 112.0745390 107.1346220
 117.2632050 108.9888640 115.3063180 117.2804790 109.4397290 116.1505030
 117.0147630 108.0894280 115.5196620 112.3125180 113.5222380 106.6882790
 111.7442080 113.0740630 106.0618700 113.0214180 113.8815160 106.1547940
 120.6902800 106.4020820 121.1449560 121.0148570 105.6710480 121.6707540
 120.7259310 106.0834460 120.2430550 107.3894360 117.4234400 120.5649520
 107.0049150 116.7828070 121.1632480 107.7006550 118.1270520 121.1344250
 113.5391500 114.2710940 116.0458140 113.9061630 113.7969510 116.7919480
 113.3496560 115.1452510 116.3866480 111.3290870 113.3119580 118.3642350
 111.0247940 114.1911560 118.5892710 112.2837330 113.3719370 118.3999790
 120.6160640 116.5145930 114.7535590 121.3359760 117.0101220 114.3631700
 120.4142460 115.8363820 114.1089460 116.0770580 107.9083890 108.8964980
 115.2635190 107.4097060 108.8210290 115.8832530 108.7482140 108.4801330
 115.9979440 116.5854990 120.6404590 115.9316750 115.6650660 120.3862180
 115.3684580 116.6830430 121.3549230 118.7918970 112.2803540 107.1927140
 119.6798590 112.5920770 107.0178480 118.7624060 111.4075790 106.8007720
 114.7879560 118.4527230 107.8715310 115.1295260 119.1969460 107.3758630
 113.9592270 118.7658350 108.2340140 110.5867720 114.6106560 122.3953260
 110.2867860 114.7563740 121.4981080 111.3578960 114.0511850 122.3026650
 115.9296170 119.4075560 120.3908390 115.9440710 118.4756520 120.1727300
 115.2221270 119.4935320 121.0298160 121.0633240 113.5915380 106.6607000
 120.9796960 114.0229600 105.8103440 121.7827430 114.0513730 107.0933820
 122.1407380 116.0482900 119.7376970 121.4155570 116.6411680 119.5406360
 122.6682840 116.0406440 118.9390340 122.0920490 120.4457640 109.3889130
 121.4496650 119.7913260 109.6632850 121.7051150 120.8512730 108.6129800
 117.6706970 117.7743070 113.2360820 118.0230790 117.1771200 112.5762190
 116.7869300 117.4487300 113.4069070 113.7570250 118.5340760 110.6431230
 114.4441380 119.0809970 111.0238820 112.9702670 119.0781490 110.6780840
 105.8962650 114.1513580 106.1348310 106.7657500 114.4338380 106.4184230
 105.4052970 114.9649450 106.0197120 115.3630070 121.0493130 117.4848890
 116.0072290 121.2552510 118.1622310 115.7259510 120.2881530 117.0319740
 116.6362150 119.0525480 116.2026340 117.2784380 118.3518640 116.3158510
 117.1611500 119.8323920 116.0223230 120.4817870 119.3374100 105.9265480
 120.2555450 118.6204540 106.5190120 120.0914070 119.0886540 105.0887230
 118.4099770 119.8520380 119.4062400 118.7456010 120.4387070 120.0840320
 117.4900110 119.7213090 119.6360190 106.2633900 123.3640960 106.7009940
 106.6231540 123.9630300 106.0467210 106.1226240 123.9100850 107.4744970
 105.9603170 107.6415560 120.1885810 105.2461690 107.8412480 120.7938420
 106.3798210 106.8655130 120.5600610 120.0634120 117.2546040 107.5879640
 119.7755820 117.7158730 108.3757520 120.8586290 116.7943810 107.8563860
 106.2475760 121.6295820 121.1752340 106.3566880 120.6890560 121.0347730
 105.5956320 121.8950570 120.5266070 114.2388350 119.9011710 122.5750460
 113.9185220 119.1820950 123.1196150 113.5646710 120.5766780 122.6486520
 112.2802520 120.7472160 107.5183610 112.2712620 121.4801850 106.9028120
 111.3600880 120.5003740 107.6110570 117.4541950 110.1337870 117.9387260
 117.8222770 109.3133080 118.2666830 116.5940150 110.1939760 118.3542910
 120.8203980 109.0894810 108.7474820 120.1917140 109.1940480 108.0333050
 120.3255900 109.3091590 109.5368700 115.2662120 120.8100400 106.1808800
 115.3674100 120.6064390 105.2510780 114.3663860 120.5558680 106.3856580
 112.7888010 111.3680760 110.1632700 112.0804160 111.8367100 110.6046310
 113.0732490 110.7102770 110.7977890 114.4143940 112.7877460 118.1625230
 114.9129190 113.2623280 118.8277080 114.5566890 111.8640980 118.3695260
 116.8203440 108.0931420 111.6028490 116.6971220 108.1117550 110.6538000
 117.7688000 108.1410360 111.7226890 113.9080230 123.3286720 110.8756470
 114.1621730 123.2908110 109.9535840 112.9592710 123.2020050 110.8684720
 110.9923030 109.6765840 107.5383410 111.8413560 110.1135990 107.4723600
 110.6254300 109.9886100 108.3655470 121.6210800 109.0045420 119.0053620
 121.1184400 109.7450820 119.3447430 122.4367460 109.3929420 118.6890410
 119.9132810 114.2478600 112.4514980 118.9722950 114.2628830 112.6262670
 120.2276880 113.4614560 112.8975280 109.8914450 115.9298200 106.0118940
 110.6577720 115.8179560 106.5744370 109.9689140 115.2336170 105.3595710
 108.5861210 113.3623270 106.6951830 108.6664800 112.4150780 106.8069230
 109.4780960 113.6930150 106.8012490 121.9158390 121.4187450 114.1269240
 122.0405810 122.2418620 114.5993050 122.7823950 121.2078180 113.7793390
 108.3934200 122.6964730 122.9871950 109.1946930 123.0176780 123.4007350
 107.8786020 122.3360310 123.7091860 112.4978230 122.6848970 105.6211940
 113.2906840 122.9737800 105.1693730 111.9782580 122.2541140 104.9424420
 117.2298830 118.8044600 122.9347360 116.6236990 118.8276200 122.1943110
 116.9252940 118.0727640 123.4714610 118.6599200 122.5324890 121.5456770
 119.6120950 122.4482910 121.4957010 118.5127420 123.1966600 122.2190560
 121.5508400 121.9119100 107.0448680 121.2649910 121.4984240 106.2302860
 121.3527950 122.8406810 106.9249200 113.0155630 117.9052380 105.4854290
 112.9106270 117.2904730 106.2115670 112.8479850 117.3818270 104.7017300
 113.1669950 116.5909180 121.4643520 112.4015620 117.1594180 121.3798190
 113.3485910 116.2985390 120.5711750 116.2558360 116.9672410 106.0896280
 115.7068460 117.4141710 106.7339020 116.8777620 116.4621660 106.6133950
 120.3093300 118.3214510 122.0218540 121.0502770 118.6590270 121.5186000
 119.5465980 118.4906570 121.4688310 110.0860900 111.9059880 120.7932560
 109.5557360 111.4150830 120.1655900 110.7548970 112.3344080 120.2590490
 114.4361120 114.9500940 105.2338680 114.9566780 114.2349960 104.8679830
 115.0829520 115.5886810 105.5339190 118.9838960 116.3729340 120.5573750
 119.3979980 116.5274420 121.4064170 118.0489960 116.4984560 120.7199530
 119.4561130 113.7125500 122.5612900 120.0381900 112.9577820 122.4733380
 119.6322900 114.2432940 121.7844380 110.5733200 108.8722250 120.8729850
 110.4790070 108.2543000 120.1480720 109.9930590 109.5988540 120.6459760
 113.3394640 107.4295490 117.9057240 112.8911940 107.4519750 117.0602790
 112.7059840 107.0314510 118.5027540 113.7454190 116.3249820 118.5269680
 114.1642300 117.1682550 118.3545920 112.8262820 116.4621860 118.2976460
 116.0818090 114.0566000 119.9107520 116.2014300 113.4607140 120.6502360
 116.9412090 114.0935690 119.4908820 118.4205990 114.6103190 118.4870030
 117.8941210 115.1345810 117.8835170 118.7637330 115.2430580 119.1179760
 110.8192380 111.9996560 104.9319740 110.6181440 111.1363920 105.2933080
 110.6484430 111.9129920 103.9941340 111.5961610 122.6302830 119.6427410
 111.0582700 123.3548890 119.3236110 111.8495570 122.1533170 118.8524750
 112.8486860 110.5987350 121.1683340 113.4386550 110.2903200 121.8561160
 112.0307100 110.1267100 121.3243240 117.6680290 110.2153160 121.4016360
 116.9795810 109.5534700 121.3366350 118.3886310 109.7691430 121.8464820
 118.2980690 106.8104790 107.4606620 118.5782980 105.9672690 107.8166040
 117.5246420 107.0427900 107.9745370 109.6175180 109.0997180 104.9197620
 109.9201080 109.1064610 104.0116770 110.3569770 108.7495040 105.4165280
 114.4523820 123.8654040 119.9014060 114.3782520 124.7689180 120.2086430
 113.5502660 123.5465940 119.8736130 112.8360110 108.0431800 105.9053820
 112.4882110 107.3655790 105.3256270 113.0372880 107.5821310 106.7197210
 115.0009150 123.0312550 107.5240420 115.8959940 123.3697520 107.5459180
 115.0326780 122.3091960 106.8964700 106.3441320 122.0599220 115.9429310
 105.9072310 122.2400020 116.7753460 106.9119000 122.8173840 115.8011030
 121.9803500 121.5616220 120.2306620 121.3805490 121.6208780 119.4870540
 122.1097400 120.6221200 120.3603470 123.2204950 119.3034040 105.5676330
 122.3897910 119.3710690 106.0383560 123.3976780 120.1938160 105.2643190
 122.6761410 116.0481520 108.0710530 123.4380320 116.6178170 108.1770220
 122.6915780 115.4808720 108.8418840 123.6821380 116.9031620 112.9152460
 124.0530210 116.1198940 112.5088430 124.3223310 117.5920720 112.7369760
 120.6655140 118.2868200 118.3282780 119.8514980 118.7165360 118.5908570
 121.0729340 118.8986610 117.7151830 122.7280580 116.3415890 105.2283050
 123.0029420 117.2494770 105.1002270 122.5391320 116.2778420 106.1645040
 119.1256190 109.3660740 106.5236680 119.5441070 109.1791720 105.6833340
 118.8192250 108.5139790 106.8339610 122.6245920 114.2784880 110.2212480
 122.2489520 113.5112810 109.7893770 121.8949040 114.6607580 110.7087410
 122.0145540 113.4256400 119.8552000 121.7831630 113.1969150 118.9549950
 122.2750090 114.3455950 119.8096890 120.4533610 108.6512830 122.6331700
 121.3303790 108.6596230 123.0165700 120.4654450 107.9143670 122.0224050
 121.8996880 112.5042370 113.5219720 122.4234360 112.0105020 112.8909890
 122.4856300 112.6392730 114.2667290 122.0786600 112.5882240 117.0439270
 121.1289310 112.5545780 117.1584260 122.2599610 113.4982350 116.8089040
 107.9331040 110.8383920 106.1537900 108.6422740 110.4167140 105.6685180
 107.2170980 110.9059150 105.5221250 107.5805200 106.8923250 105.1940550
 108.3033330 107.4332190 105.5121770 107.8529720 106.6186670 104.3182090
 121.3896850 111.7615720 109.4612130 121.8855970 111.5286590 110.2461010
 121.1912920 110.9227560 109.0449770 122.8184010 110.3976670 111.9949810
 122.7083290 110.2432710 112.9332080 123.5791600 109.8697610 111.7525220
 121.1649730 106.3370800 118.4532810 121.8021950 106.9504940 118.8192000
 121.3124620 106.3731460 117.5082040 123.7074280 108.2284590 105.2355950
 124.6323590 108.0965770 105.0274240 123.6850070 108.3077410 106.1892400
 123.7812770 108.9995250 107.8612660 122.9864270 108.9340370 108.3905570
 123.9856050 109.9345890 107.8498010 120.7231190 123.0386800 111.8551050
 121.3190260 122.7171370 111.1785470 120.9809340 122.5658620 112.6464320
 108.6293760 119.4704710 122.0041680 108.5863390 119.0997620 122.8856140
 108.7604770 120.4082280 122.1443500 112.3299790 121.0264300 117.6051400
 112.0891150 121.2938860 116.7181920 113.2702430 121.1970030 117.6602260
 114.5354210 107.4896990 121.3607910 114.4743100 108.0818820 122.1103320
 115.4754590 107.3822950 121.2158170 117.1728770 107.1467050 121.0000200
 117.7869180 107.4646340 120.3381280 117.7178330 106.6615640 121.6196060
 123.5903950 123.0458680 118.4062040 123.0962230 123.4427550 117.6889170
 122.9817240 122.4207890 118.7999320 108.4681790 122.4166960 119.1239460
 107.8742110 122.2851660 119.8629500 108.4605630 121.5805100 118.6581560
 117.9136810 105.7099190 117.3269490 117.0396650 106.0434300 117.1242420
 117.8047560 105.2372370 118.1521360 118.8208790 107.9170060 118.7111210
 118.4922150 107.1021820 118.3312940 119.7691090 107.8739870 118.5876900
 121.2743400 123.6882100 115.6848780 120.8146370 124.4397910 115.3106800
 120.6455860 122.9688570 115.6263580 108.0994020 119.7825340 118.0747500
 107.3728080 119.1630630 118.0073450 108.1603170 120.1765950 117.2045580
 111.7039120 121.9970340 114.8596910 112.2204140 121.3857700 114.3345170
 112.3536500 122.4999120 115.3507920 114.4434620 122.8878830 115.6865890
 114.7312430 122.6333130 114.8098900 114.9557840 122.3356190 116.2771460
 120.2132700 107.3292130 114.3111490 120.6540790 107.2737230 113.4633090
 119.9440290 108.2450140 114.3821670 122.0771270 106.9607370 112.3220310
 122.0159670 106.0168590 112.1751330 122.8563300 107.0687460 112.8673770
 113.5465850 109.0455780 111.7778430 112.7340360 108.6712670 111.4374310
 114.0507490 108.2900860 112.0799620 118.0490830 105.7098230 113.0161500
 118.6520200 106.2818440 113.4910020 117.3083820 106.2737670 112.7935400
 121.1925430 106.1119790 108.2901780 121.3876060 107.0103240 108.5569210
 120.4055300 105.8806870 108.7834730 109.3777190 107.4580560 107.3278090
 109.9069950 106.6710360 107.1986040 110.0105510 108.1371750 107.5613620
 111.5715030 107.1955700 110.3823480 110.9417770 106.4943010 110.5493610
 111.0320170 107.9559830 110.1656640 114.5106980 123.8094930 123.0534090
 115.4374290 123.5739200 123.0970050 114.4957410 124.6366930 122.5720120
 122.7452040 123.3520500 110.0508340 122.9204230 122.6658240 109.4069260
 122.0473610 123.8767550 109.6585010 111.6970590 106.4739680 122.8175970
 111.4154860 106.9773280 122.0536790 112.0790290 105.6761430 122.4518100
 110.5879690 123.7415340 107.6043650 111.3198510 123.4574620 107.0567540
 110.8473360 123.5028620 108.4943030 118.2986050 105.8893260 123.3956440
 118.1851500 106.2087870 124.2907960 119.1155790 106.2905770 123.0993720
 121.0784540 123.0364790 122.8775130 121.8709860 122.5414020 122.6701090
 121.3717690 123.7154930 123.4850740 115.3362240 115.6864750  95.6400450
 114.5604340 115.2065190  95.9299020 115.9875170 115.0070400  95.4656610
 109.3528070 115.9984560  96.5176210 108.5212950 115.7433270  96.9172720
 109.9609050 116.0695330  97.2534130 109.3329330 120.0324650  96.7134230
 109.6357370 119.1422390  96.5344450 110.0772920 120.5894870  96.4856480
 114.7771230 118.3621940  95.6470610 114.7079510 117.4211880  95.4859740
 115.5391090 118.4523350  96.2193180 123.8800070 110.6809510  99.3711510
 123.1752240 111.0691220  98.8526620 124.1457990 111.3759800  99.9732440
 111.3128090 116.7898060  98.1119080 110.9797470 117.4166980  98.7540150
 111.4894770 117.3159940  97.3320750 119.8262000 110.6043140  95.5795420
 119.1217570 110.8928030  96.1598530 120.1874160 111.4143250  95.2194980
 110.5247190 118.7578860  99.9268260 111.1421190 119.4329940  99.6452710
 109.6640310 119.1666840  99.8355760 122.8948920 110.0497930  95.9704630
 121.9473830 110.0836910  96.1020060 123.2198910 110.8636880  96.3553990
 119.2873070 112.1548780  98.9221800 118.8744250 112.9802490  99.1761790
 118.5549020 111.5693820  98.7298160 111.8887560 118.6276240  95.9479680
 111.5915850 118.0221710  95.2687460 112.8387380 118.6653550  95.8369040
 119.9773170 122.2008110  99.6102780 119.5003730 123.0080300  99.4175390
 119.2934960 121.5486440  99.7628990 110.9805990 118.3657930 102.5987480
 110.0834520 118.5897900 102.8460880 111.0058860 118.4892870 101.6498880
 109.8077210 115.2371250 101.1744850 109.6684980 116.1094050 101.5432250
 108.9258570 114.8944060 101.0292790 111.6057560 121.1792950 103.3830000
 111.5772990 121.5835900 102.5158430 111.4422530 120.2503310 103.2201600
 123.5572380 121.9620050 104.6794170 124.0332100 122.4402940 105.3583250
 124.1779540 121.8937540 103.9539670 105.7595860 117.0068800  97.0915760
 105.8376280 117.1417570  96.1471480 106.3737540 116.2984690  97.2843880
 107.0043490 118.7068990  93.5021940 106.5971570 118.8483580  92.6475540
 107.8956500 118.4229150  93.2993150 122.9605630 119.1532900 101.8394180
 123.0868690 118.9144780 100.9211360 123.0027010 118.3217440 102.3116260
 116.8222370 122.8560900 100.4088990 117.3367040 122.7668910 101.2111420
 115.9791450 123.2020600 100.7016900 118.7976770 123.1416240  89.8372990
 118.6377910 122.8519180  90.7354820 118.6323480 122.3656370  89.3018220
 111.2765150 122.9214770  91.6144610 111.1007630 122.0050310  91.4012410
 110.4220890 123.2802060  91.8542410 122.8129640 111.2065360 102.8043920
 122.1973910 111.7145030 102.2759380 122.4926060 110.3063690 102.7469860
 105.8155380 118.0482970  99.6310220 105.9786420 117.5788330  98.8129590
 106.2807830 117.5406530 100.2959060 114.8743960 110.0457250 100.2706110
 114.4123330 110.2540270 101.0826050 114.4722070 109.2316600  99.9676780
 119.8748470 111.2666200 101.4002770 119.0242060 110.9671950 101.7211840
 119.7150260 111.5108210 100.4886590 116.9698180 112.7667950 103.5001560
 117.2951590 111.9331700 103.1603790 117.7578510 113.2896470 103.6479890
 112.8187580 113.2007880 103.0612310 112.7231180 112.2602610 102.9112710
 113.6619560 113.4222950 102.6660380 107.9498120 109.6121550 101.2146090
 107.5561510 110.4596760 101.4218870 107.2616520 108.9747920 101.4054730
 114.5243170 109.6956520 104.2842830 113.8341490 109.5028720 104.9188920
 115.2675470 109.9791160 104.8167130 116.8006140 113.5354960  97.1196750
 116.0687260 114.0441770  97.4686850 116.4030480 112.7184940  96.8185530
 112.3125180 113.5222380  87.9139300 111.7442080 113.0740630  87.2875210
 113.0214180 113.8815160  87.3804450 120.6902800 106.4020820 102.3706070
 121.0148570 105.6710480 102.8964050 120.7259310 106.0834460 101.4687060
 107.3894360 117.4234400 101.7906030 107.0049150 116.7828070 102.3888990
 107.7006550 118.1270520 102.3600760 113.5391500 114.2710940  97.2714650
 113.9061630 113.7969510  98.0175990 113.3496560 115.1452510  97.6122990
 109.8572660 117.5180570  90.1865710 109.0834920 116.9778190  90.0264430
 110.5867290 116.9987180  89.8483470 115.9979440 116.5854990 101.8661100
 115.9316750 115.6650660 101.6118690 115.3684580 116.6830430 102.5805740
 109.9010060 117.1860950  93.8244520 110.4188730 116.3829210  93.7701410
 109.4494080 117.1240090  94.6661350 114.7879560 118.4527230  89.0971820
 115.1295260 119.1969460  88.6015140 113.9592270 118.7658350  89.4596650
 107.3854600 114.1522320 100.7370220 107.0269540 114.8176170 101.3243560
 107.0909160 113.3205870 101.1082840 110.5867720 114.6106560 103.6209770
 110.2867860 114.7563740 102.7237590 111.3578960 114.0511850 103.5283160
 115.9296170 119.4075560 101.6164900 115.9440710 118.4756520 101.3983810
 115.2221270 119.4935320 102.2554670 122.1407380 116.0482900 100.9633480
 121.4155570 116.6411680 100.7662870 122.6682840 116.0406440 100.1646850
 113.7570250 118.5340760  91.8687740 114.4441380 119.0809970  92.2495330
 112.9702670 119.0781490  91.9037350 113.0597460 115.5386790  91.4813100
 113.5160240 116.3492040  91.7073290 112.7085670 115.2209930  92.3131590
 115.3630070 121.0493130  98.7105400 116.0072290 121.2552510  99.3878820
 115.7259510 120.2881530  98.2576250 118.4099770 119.8520380 100.6318910
 118.7456010 120.4387070 101.3096830 117.4900110 119.7213090 100.8616700
 106.2633900 123.3640960  87.9266450 106.6231540 123.9630300  87.2723720
 106.1226240 123.9100850  88.7001480 105.9603170 107.6415560 101.4142320
 105.2461690 107.8412480 102.0194930 106.3798210 106.8655130 101.7857120
 106.2475760 121.6295820 102.4008850 106.3566880 120.6890560 102.2604240
 105.5956320 121.8950570 101.7522580 114.2388350 119.9011710 103.8006970
 113.9185220 119.1820950 104.3452660 113.5646710 120.5766780 103.8743030
 112.2802520 120.7472160  88.7440120 112.2712620 121.4801850  88.1284630
 111.3600880 120.5003740  88.8367080 117.4541950 110.1337870  99.1643770
 117.8222770 109.3133080  99.4923340 116.5940150 110.1939760  99.5799420
 120.8203980 109.0894810  89.9731330 120.1917140 109.1940480  89.2589560
 120.3255900 109.3091590  90.7625210 115.2662120 120.8100400  87.4065310
 115.3674100 120.6064390  86.4767290 114.3663860 120.5558680  87.6113090
 114.4143940 112.7877460  99.3881740 114.9129190 113.2623280 100.0533590
 114.5566890 111.8640980  99.5951770 121.6210800 109.0045420 100.2310130
 121.1184400 109.7450820 100.5703940 122.4367460 109.3929420  99.9146920
 109.8914450 115.9298200  87.2375450 110.6577720 115.8179560  87.8000880
 109.9689140 115.2336170  86.5852220 109.3875920 123.5118660  95.0242880
 110.1238400 122.9634120  95.2951450 109.7716840 124.3774670  94.8848870
 106.2721400 119.5792230  90.8984390 105.3461180 119.8213370  90.8889800
 106.7377830 120.4066490  90.7769140 108.3934200 122.6964730 104.2128460
 109.1946930 123.0176780 104.6263860 107.8786020 122.3360310 104.9348370
 112.4978230 122.6848970  86.8468450 113.2906840 122.9737800  86.3950240
 111.9782580 122.2541140  86.1680930 117.2298830 118.8044600 104.1603870
 116.6236990 118.8276200 103.4199620 116.9252940 118.0727640 104.6971120
 118.6599200 122.5324890 102.7713280 119.6120950 122.4482910 102.7213520
 118.5127420 123.1966600 103.4447070 106.1132010 115.1838190 103.1564510
 106.6171030 114.6045470 103.7280740 105.3739430 115.4678420 103.6940880
 113.0155630 117.9052380  86.7110800 112.9106270 117.2904730  87.4372180
 112.8479850 117.3818270  85.9273810 113.1669950 116.5909180 102.6900030
 112.4015620 117.1594180 102.6054700 113.3485910 116.2985390 101.7968260
 116.2558360 116.9672410  87.3152790 115.7068460 117.4141710  87.9595530
 116.8777620 116.4621660  87.8390460 120.3093300 118.3214510 103.2475050
 121.0502770 118.6590270 102.7442510 119.5465980 118.4906570 102.6944820
 108.1455090 113.3267780 104.0514580 108.1860430 113.0281650 104.9599810
 109.0000590 113.7275390 103.8922100 111.9233480 115.9263330  89.2118090
 112.3449900 115.7603200  90.0549480 112.0484320 115.1163560  88.7173230
 110.0860900 111.9059880 102.0189070 109.5557360 111.4150830 101.3912410
 110.7548970 112.3344080 101.4847000 114.4361120 114.9500940  86.4595190
 114.9566780 114.2349960  86.0936340 115.0829520 115.5886810  86.7595700
 118.9838960 116.3729340 101.7830260 119.3979980 116.5274420 102.6320680
 118.0489960 116.4984560 101.9456040 119.4561130 113.7125500 103.7869410
 120.0381900 112.9577820 103.6989890 119.6322900 114.2432940 103.0100890
 110.5733200 108.8722250 102.0986360 110.4790070 108.2543000 101.3737230
 109.9930590 109.5988540 101.8716270 113.7454190 116.3249820  99.7526190
 114.1642300 117.1682550  99.5802430 112.8262820 116.4621860  99.5232970
 116.0818090 114.0566000 101.1364030 116.2014300 113.4607140 101.8758870
 116.9412090 114.0935690 100.7165330 118.4205990 114.6103190  99.7126540
 117.8941210 115.1345810  99.1091680 118.7637330 115.2430580 100.3436270
 111.5961610 122.6302830 100.8683920 111.0582700 123.3548890 100.5492620
 111.8495570 122.1533170 100.0781260 112.8486860 110.5987350 102.3939850
 113.4386550 110.2903200 103.0817670 112.0307100 110.1267100 102.5499750
 117.6680290 110.2153160 102.6272870 116.9795810 109.5534700 102.5622860
 118.3886310 109.7691430 103.0721330 114.4523820 123.8654040 101.1270570
 114.3782520 124.7689180 101.4342940 113.5502660 123.5465940 101.0992640
 108.6405310 118.4039600  86.9783930 109.0780180 118.9469270  87.6341510
 109.1253040 117.5786550  86.9880270 105.8551110 121.1928630  94.4304190
 106.1854120 120.3249690  94.1982830 106.2842110 121.3987150  95.2609150
 110.4513030 119.5237640  92.0906160 110.1508570 119.4002610  92.9910070
 110.3450520 118.6646230  91.6821890 106.3441320 122.0599220  97.1685820
 105.9072310 122.2400020  98.0009970 106.9119000 122.8173840  97.0267540
 121.9803500 121.5616220 101.4563130 121.3805490 121.6208780 100.7127050
 122.1097400 120.6221200 101.5859980 120.6655140 118.2868200  99.5539290
 119.8514980 118.7165360  99.8165080 121.0729340 118.8986610  98.9408340
 119.1256190 109.3660740  87.7493190 119.5441070 109.1791720  86.9089850
 118.8192250 108.5139790  88.0596120 107.2141680 114.9572020  98.0678040
 107.5814720 114.8699420  98.9474060 106.6452500 114.1938570  97.9684900
 122.0145540 113.4256400 101.0808510 121.7831630 113.1969150 100.1806460
 122.2750090 114.3455950 101.0353400 106.7657680 111.8681110 101.9736460
 105.8713730 111.8347870 102.3130170 107.3055230 112.0667900 102.7387710
 120.4533610 108.6512830 103.8588210 121.3303790 108.6596230 104.2422210
 120.4654450 107.9143670 103.2480560 121.8996880 112.5042370  94.7476230
 122.4234360 112.0105020  94.1166400 122.4856300 112.6392730  95.4923800
 122.0786600 112.5882240  98.2695780 121.1289310 112.5545780  98.3840770
 122.2599610 113.4982350  98.0345550 122.8184010 110.3976670  93.2206320
 122.7083290 110.2432710  94.1588590 123.5791600 109.8697610  92.9781730
 121.1649730 106.3370800  99.6789320 121.8021950 106.9504940 100.0448510
 121.3124620 106.3731460  98.7338550 123.7074280 108.2284590  86.4612460
 124.6323590 108.0965770  86.2530750 123.6850070 108.3077410  87.4148910
 123.7812770 108.9995250  89.0869170 122.9864270 108.9340370  89.6162080
 123.9856050 109.9345890  89.0754520 120.7231190 123.0386800  93.0807560
 121.3190260 122.7171370  92.4041980 120.9809340 122.5658620  93.8720830
 108.6293760 119.4704710 103.2298190 108.5863390 119.0997620 104.1112650
 108.7604770 120.4082280 103.3700010 112.3299790 121.0264300  98.8307910
 112.0891150 121.2938860  97.9438430 113.2702430 121.1970030  98.8858770
 114.5354210 107.4896990 102.5864420 114.4743100 108.0818820 103.3359830
 115.4754590 107.3822950 102.4414680 117.1728770 107.1467050 102.2256710
 117.7869180 107.4646340 101.5637790 117.7178330 106.6615640 102.8452570
 123.5903950 123.0458680  99.6318550 123.0962230 123.4427550  98.9145680
 122.9817240 122.4207890 100.0255830 107.6950030 105.8261310 102.3395770
 108.2433020 105.6449360 101.5761880 107.7605340 105.0355420 102.8752080
 108.4681790 122.4166960 100.3495970 107.8742110 122.2851660 101.0886010
 108.4605630 121.5805100  99.8838070 117.9136810 105.7099190  98.5526000
 117.0396650 106.0434300  98.3498930 117.8047560 105.2372370  99.3777870
 118.8208790 107.9170060  99.9367720 118.4922150 107.1021820  99.5569450
 119.7691090 107.8739870  99.8133410 121.2743400 123.6882100  96.9105290
 120.8146370 124.4397910  96.5363310 120.6455860 122.9688570  96.8520090
 108.0994020 119.7825340  99.3004010 107.3728080 119.1630630  99.2329960
 108.1603170 120.1765950  98.4302090 111.7039120 121.9970340  96.0853420
 112.2204140 121.3857700  95.5601680 112.3536500 122.4999120  96.5764430
 115.6611630 106.6269030  97.4918910 114.8783420 107.1014530  97.7715670
 115.3674560 105.7223860  97.3832090 120.2132700 107.3292130  95.5368000
 120.6540790 107.2737230  94.6889600 119.9440290 108.2450140  95.6078180
 122.0771270 106.9607370  93.5476820 122.0159670 106.0168590  93.4007840
 122.8563300 107.0687460  94.0930280 106.3824020 123.0999730  92.5100770
 106.2146060 122.4670410  93.2082660 105.5158530 123.3059130  92.1594960
 121.1925430 106.1119790  89.5158290 121.3876060 107.0103240  89.7825720
 120.4055300 105.8806870  90.0091240 107.9886720 121.7932960  89.9550910
 107.4634340 122.1740990  89.2512870 107.9131300 122.4183730  90.6760620
 114.5106980 123.8094930 104.2790600 115.4374290 123.5739200 104.3226560
 114.4957410 124.6366930 103.7976630 111.6970590 106.4739680 104.0432480
 111.4154860 106.9773280 103.2793300 112.0790290 105.6761430 103.6774610
 110.5879690 123.7415340  88.8300160 111.3198510 123.4574620  88.2824050
 110.8473360 123.5028620  89.7199540 109.7494480 119.8580070  88.8346490
 109.1203360 120.3265170  89.3832320 109.8642310 119.0129290  89.2692680
 118.2986050 105.8893260 104.6212950 118.1851500 106.2087870 105.5164470
 119.1155790 106.2905770 104.3250230 121.0784540 123.0364790 104.1031640
 121.8709860 122.5414020 103.8957600 121.3717690 123.7154930 104.7107250
 117.2044200 113.9085730  74.9847690 117.1238250 112.9940340  74.7139400
 116.7908620 114.4052800  74.2787400 115.3362240 115.6864750  76.8656960
 114.5604340 115.2065190  77.1555530 115.9875170 115.0070400  76.6913120
 109.3329330 120.0324650  77.9390740 109.6357370 119.1422390  77.7600960
 110.0772920 120.5894870  77.7112990 114.7771230 118.3621940  76.8727120
 114.7079510 117.4211880  76.7116250 115.5391090 118.4523350  77.4449690
 106.9677900 108.9676460  79.1983740 106.7880740 108.0702210  79.4786500
 106.5657980 109.5148330  79.8730690 107.5864570 111.4636960  77.8066080
 108.2674680 111.7275330  78.4253480 107.2712620 110.6237830  78.1404090
 110.0625240 107.1502880  81.1602090 110.0643680 107.6675270  80.3547990
 109.2329550 106.6733060  81.1372020 116.4496330 117.2622190  72.6591990
 115.8313600 117.7271640  72.0954710 116.9619580 117.9549670  73.0761500
 111.3128090 116.7898060  79.3375590 110.9797470 117.4166980  79.9796660
 111.4894770 117.3159940  78.5577260 109.7440570 108.8612840  79.1672540
 110.0857380 109.7054890  78.8726410 108.8056380 109.0096580  79.2837880
 110.5247190 118.7578860  81.1524770 111.1421190 119.4329940  80.8709220
 109.6640310 119.1666840  81.0612270 121.4424780 120.2218270  79.0679410
 120.7588300 120.8917380  79.0596080 121.9819070 120.4198920  78.3024270
 122.8948920 110.0497930  77.1961140 121.9473830 110.0836910  77.3276570
 123.2198910 110.8636880  77.5810500 118.3768960 116.9692240  79.1107200
 118.7937750 116.7552350  78.2760660 119.1008780 117.2265030  79.6815820
 122.3231060 115.3679460  79.2023440 121.4949690 115.4372550  78.7273570
 122.9181540 115.9533770  78.7339270 119.8446510 115.9764240  72.7312500
 119.2258930 115.6383790  72.0838800 119.8270960 115.3324000  73.4391690
 111.8887560 118.6276240  77.1736190 111.5915850 118.0221710  76.4943970
 112.8387380 118.6653550  77.0625550 119.9773170 122.2008110  80.8359290
 119.5003730 123.0080300  80.6431900 119.2934960 121.5486440  80.9885500
 110.9805990 118.3657930  83.8243990 110.0834520 118.5897900  84.0717390
 111.0058860 118.4892870  82.8755390 109.8077210 115.2371250  82.4001360
 109.6684980 116.1094050  82.7688760 108.9258570 114.8944060  82.2549300
 111.6057560 121.1792950  84.6086510 111.5772990 121.5835900  83.7414940
 111.4422530 120.2503310  84.4458110 121.6028350 106.4693860  68.0526290
 121.2901010 106.5620690  68.9525360 122.3640820 107.0474890  68.0023720
 123.5572380 121.9620050  85.9050680 124.0332100 122.4402940  86.5839760
 124.1779540 121.8937540  85.1796180 122.9605630 119.1532900  83.0650690
 123.0868690 118.9144780  82.1467870 123.0027010 118.3217440  83.5372770
 116.8222370 122.8560900  81.6345500 117.3367040 122.7668910  82.4367930
 115.9791450 123.2020600  81.9273410 122.8129640 111.2065360  84.0300430
 122.1973910 111.7145030  83.5015890 122.4926060 110.3063690  83.9726370
 105.8155380 118.0482970  80.8566730 105.9786420 117.5788330  80.0386100
 106.2807830 117.5406530  81.5215570 119.8748470 111.2666200  82.6259280
 119.0242060 110.9671950  82.9468350 119.7150260 111.5108210  81.7143100
 116.9698180 112.7667950  84.7258070 117.2951590 111.9331700  84.3860300
 117.7578510 113.2896470  84.8736400 110.3788370 112.3022300  73.6208550
 110.1529290 112.0859470  74.5255170 109.5980900 112.7350760  73.2754520
 116.2151000 110.9449210  74.2502480 116.6080570 111.2621410  73.4371170
 116.5767850 110.0661090  74.3647000 107.9498120 109.6121550  82.4402600
 107.5561510 110.4596760  82.6475380 107.2616520 108.9747920  82.6311240
 109.0885910 110.0935650  75.7099960 108.7485960 110.5710880  76.4667010
 108.3263230 109.6400770  75.3501060 107.3894360 117.4234400  83.0162540
 107.0049150 116.7828070  83.6145500 107.7006550 118.1270520  83.5857270
 113.5391500 114.2710940  78.4971160 113.9061630 113.7969510  79.2432500
 113.3496560 115.1452510  78.8379500 120.6160640 116.5145930  77.2048610
 121.3359760 117.0101220  76.8144720 120.4142460 115.8363820  76.5602480
 115.9979440 116.5854990  83.0917610 115.9316750 115.6650660  82.8375200
 115.3684580 116.6830430  83.8062250 107.3854600 114.1522320  81.9626730
 107.0269540 114.8176170  82.5500070 107.0909160 113.3205870  82.3339350
 110.5867720 114.6106560  84.8466280 110.2867860 114.7563740  83.9494100
 111.3578960 114.0511850  84.7539670 115.9296170 119.4075560  82.8421410
 115.9440710 118.4756520  82.6240320 115.2221270 119.4935320  83.4811180
 122.1407380 116.0482900  82.1889990 121.4155570 116.6411680  81.9919380
 122.6682840 116.0406440  81.3903360 122.0920490 120.4457640  71.8402150
 121.4496650 119.7913260  72.1145870 121.7051150 120.8512730  71.0642820
 113.7570250 118.5340760  73.0944250 114.4441380 119.0809970  73.4751840
 112.9702670 119.0781490  73.1293860 115.3630070 121.0493130  79.9361910
 116.0072290 121.2552510  80.6135330 115.7259510 120.2881530  79.4832760
 118.4099770 119.8520380  81.8575420 118.7456010 120.4387070  82.5353340
 117.4900110 119.7213090  82.0873210 106.2633900 123.3640960  69.1522960
 106.6231540 123.9630300  68.4980230 106.1226240 123.9100850  69.9257990
 105.9603170 107.6415560  82.6398830 105.2461690 107.8412480  83.2451440
 106.3798210 106.8655130  83.0113630 106.2475760 121.6295820  83.6265360
 106.3566880 120.6890560  83.4860750 105.5956320 121.8950570  82.9779090
 114.2388350 119.9011710  85.0263480 113.9185220 119.1820950  85.5709170
 113.5646710 120.5766780  85.0999540 120.8203980 109.0894810  71.1987840
 120.1917140 109.1940480  70.4846070 120.3255900 109.3091590  71.9881720
 110.9923030 109.6765840  69.9896430 111.8413560 110.1135990  69.9236620
 110.6254300 109.9886100  70.8168490 119.9132810 114.2478600  74.9028000
 118.9722950 114.2628830  75.0775690 120.2276880 113.4614560  75.3488300
 121.9158390 121.4187450  76.5782260 122.0405810 122.2418620  77.0506070
 122.7823950 121.2078180  76.2306410 109.3875920 123.5118660  76.2499390
 110.1238400 122.9634120  76.5207960 109.7716840 124.3774670  76.1105380
 108.3934200 122.6964730  85.4384970 109.1946930 123.0176780  85.8520370
 107.8786020 122.3360310  86.1604880 117.2298830 118.8044600  85.3860380
 116.6236990 118.8276200  84.6456130 116.9252940 118.0727640  85.9227630
 118.6599200 122.5324890  83.9969790 119.6120950 122.4482910  83.9470030
 118.5127420 123.1966600  84.6703580 106.1132010 115.1838190  84.3821020
 106.6171030 114.6045470  84.9537250 105.3739430 115.4678420  84.9197390
 113.1669950 116.5909180  83.9156540 112.4015620 117.1594180  83.8311210
 113.3485910 116.2985390  83.0224770 120.3093300 118.3214510  84.4731560
 121.0502770 118.6590270  83.9699020 119.5465980 118.4906570  83.9201330
 108.1455090 113.3267780  85.2771090 108.1860430 113.0281650  86.1856320
 109.0000590 113.7275390  85.1178610 110.0860900 111.9059880  83.2445580
 109.5557360 111.4150830  82.6168920 110.7548970 112.3344080  82.7103510
 118.9838960 116.3729340  83.0086770 119.3979980 116.5274420  83.8577190
 118.0489960 116.4984560  83.1712550 113.7454190 116.3249820  80.9782700
 114.1642300 117.1682550  80.8058940 112.8262820 116.4621860  80.7489480
 116.0818090 114.0566000  82.3620540 116.2014300 113.4607140  83.1015380
 116.9412090 114.0935690  81.9421840 118.4205990 114.6103190  80.9383050
 117.8941210 115.1345810  80.3348190 118.7637330 115.2430580  81.5692780
 111.5961610 122.6302830  82.0940430 111.0582700 123.3548890  81.7749130
 111.8495570 122.1533170  81.3037770 114.4523820 123.8654040  82.3527080
 114.3782520 124.7689180  82.6599450 113.5502660 123.5465940  82.3249150
 112.8360110 108.0431800  68.3566840 112.4882110 107.3655790  67.7769290
 113.0372880 107.5821310  69.1710230 106.3441320 122.0599220  78.3942330
 105.9072310 122.2400020  79.2266480 106.9119000 122.8173840  78.2524050
 121.9803500 121.5616220  82.6819640 121.3805490 121.6208780  81.9383560
 122.1097400 120.6221200  82.8116490 123.2204950 119.3034040  68.0189350
 122.3897910 119.3710690  68.4896580 123.3976780 120.1938160  67.7156210
 122.6761410 116.0481520  70.5223550 123.4380320 116.6178170  70.6283240
 122.6915780 115.4808720  71.2931860 123.6821380 116.9031620  75.3665480
 124.0530210 116.1198940  74.9601450 124.3223310 117.5920720  75.1882780
 120.6655140 118.2868200  80.7795800 119.8514980 118.7165360  81.0421590
 121.0729340 118.8986610  80.1664850 122.6245920 114.2784880  72.6725500
 122.2489520 113.5112810  72.2406790 121.8949040 114.6607580  73.1600430
 107.2141680 114.9572020  79.2934550 107.5814720 114.8699420  80.1730570
 106.6452500 114.1938570  79.1941410 122.0145540 113.4256400  82.3065020
 121.7831630 113.1969150  81.4062970 122.2750090 114.3455950  82.2609910
 106.7657680 111.8681110  83.1992970 105.8713730 111.8347870  83.5386680
 107.3055230 112.0667900  83.9644220 121.8996880 112.5042370  75.9732740
 122.4234360 112.0105020  75.3422910 122.4856300 112.6392730  76.7180310
 122.0786600 112.5882240  79.4952290 121.1289310 112.5545780  79.6097280
 122.2599610 113.4982350  79.2602060 121.3896850 111.7615720  71.9125150
 121.8855970 111.5286590  72.6974030 121.1912920 110.9227560  71.4962790
 107.2697390 106.1429440  77.5476190 107.9173580 105.5926820  77.1071350
 107.6899230 106.3972590  78.3692000 122.8184010 110.3976670  74.4462830
 122.7083290 110.2432710  75.3845100 123.5791600 109.8697610  74.2038240
 123.7074280 108.2284590  67.6868970 124.6323590 108.0965770  67.4787260
 123.6850070 108.3077410  68.6405420 123.7812770 108.9995250  70.3125680
 122.9864270 108.9340370  70.8418590 123.9856050 109.9345890  70.3011030
 107.0229390 106.2985110  80.2901510 106.6744210 106.7548930  81.0559690
 106.6917090 105.4042240  80.3723940 108.6293760 119.4704710  84.4554700
 108.5863390 119.0997620  85.3369160 108.7604770 120.4082280  84.5956520
 112.3299790 121.0264300  80.0564420 112.0891150 121.2938860  79.1694940
 113.2702430 121.1970030  80.1115280 123.5903950 123.0458680  80.8575060
 123.0962230 123.4427550  80.1402190 122.9817240 122.4207890  81.2512340
 107.6950030 105.8261310  83.5652280 108.2433020 105.6449360  82.8018390
 107.7605340 105.0355420  84.1008590 108.4681790 122.4166960  81.5752480
 107.8742110 122.2851660  82.3142520 108.4605630 121.5805100  81.1094580
 108.0994020 119.7825340  80.5260520 107.3728080 119.1630630  80.4586470
 108.1603170 120.1765950  79.6558600 111.7039120 121.9970340  77.3109930
 112.2204140 121.3857700  76.7858190 112.3536500 122.4999120  77.8020940
 114.4434620 122.8878830  78.1378910 114.7312430 122.6333130  77.2611920
 114.9557840 122.3356190  78.7284480 106.3824020 123.0999730  73.7357280
 106.2146060 122.4670410  74.4339170 105.5158530 123.3059130  73.3851470
 107.0052040 106.9316510  71.2389140 107.7631400 107.0445390  70.6653170
 106.5429210 107.7685710  71.1932570 121.1925430 106.1119790  70.7414800
 121.3876060 107.0103240  71.0082230 120.4055300 105.8806870  71.2347750
 109.3777190 107.4580560  69.7791110 109.9069950 106.6710360  69.6499060
 110.0105510 108.1371750  70.0126640 122.7452040 123.3520500  72.5021360
 122.9204230 122.6658240  71.8582280 122.0473610 123.8767550  72.1098030
 118.2986050 105.8893260  85.8469460 118.1851500 106.2087870  86.7420980
 119.1155790 106.2905770  85.5506740 121.0784540 123.0364790  85.3288150
 121.8709860 122.5414020  85.1214110 121.3717690 123.7154930  85.9363760
 115.3362240 115.6864750  58.0913470 114.5604340 115.2065190  58.3812040
 115.9875170 115.0070400  57.9169630 109.3528070 115.9984560  58.9689230
 108.5212950 115.7433270  59.3685740 109.9609050 116.0695330  59.7047150
 119.3569670 120.0924940  56.8712600 118.8951200 119.3212180  57.1999770
 120.1695220 120.1191010  57.3765050 109.3329330 120.0324650  59.1647250
 109.6357370 119.1422390  58.9857470 110.0772920 120.5894870  58.9369500
 107.7620020 110.9586450  52.7531620 106.8736720 111.3002420  52.6511500
 108.0461210 110.7586770  51.8612450 105.7253030 113.5592100  58.6371320
 106.2969140 112.7914300  58.6374960 105.7254570 113.8580860  57.7277930
 114.7771230 118.3621940  58.0983630 114.7079510 117.4211880  57.9372760
 115.5391090 118.4523350  58.6706200 109.9381410 109.5417950  53.7870000
 110.0448160 110.4421680  54.0938760 109.0273770 109.4935920  53.4964650
 111.7789140 112.5104320  58.1195180 112.2867360 113.0085290  58.7600200
 112.3102380 111.7339520  57.9434540 116.4496330 117.2622190  53.8848500
 115.8313600 117.7271640  53.3211220 116.9619580 117.9549670  54.3018010
 111.3128090 116.7898060  60.5632100 110.9797470 117.4166980  61.2053170
 111.4894770 117.3159940  59.7833770 109.7440570 108.8612840  60.3929050
 110.0857380 109.7054890  60.0982920 108.8056380 109.0096580  60.5094390
 110.5247190 118.7578860  62.3781280 111.1421190 119.4329940  62.0965730
 109.6640310 119.1666840  62.2868780 121.4424780 120.2218270  60.2935920
 120.7588300 120.8917380  60.2852590 121.9819070 120.4198920  59.5280780
 113.4268460 106.3495110  56.7173640 113.7343440 105.7942000  56.0009140
 112.4969160 106.4839570  56.5346630 118.9783520 122.0662400  59.0081100
 118.9910680 121.6624690  58.1403360 118.4258740 122.8409690  58.9042530
 120.2728940 118.7878620  54.0971270 120.1625270 117.8452950  54.2220690
 120.2697190 119.1494260  54.9834030 115.8018300 110.6860940  50.4500920
 114.8621970 110.8474900  50.5353380 116.1201560 111.4046620  49.9036910
 111.8887560 118.6276240  58.3992700 111.5915850 118.0221710  57.7200480
 112.8387380 118.6653550  58.2882060 110.1334480 111.7151890  60.0152530
 110.6849070 111.8247230  59.2405780 110.6477990 112.0889490  60.7307760
 119.9773170 122.2008110  62.0615800 119.5003730 123.0080300  61.8688410
 119.2934960 121.5486440  62.2142010 110.9805990 118.3657930  65.0500500
 110.0834520 118.5897900  65.2973900 111.0058860 118.4892870  64.1011900
 118.0211210 115.2151050  50.9641760 118.4604490 114.3773480  50.8179580
 118.7339630 115.8480450  51.0505900 116.1306590 120.1547120  54.9323000
 116.5702500 120.8971450  54.5178390 116.0693480 120.3973690  55.8561960
 111.6057560 121.1792950  65.8343020 111.5772990 121.5835900  64.9671450
 111.4422530 120.2503310  65.6714620 121.6028350 106.4693860  49.2782800
 121.2901010 106.5620690  50.1781870 122.3640820 107.0474890  49.2280230
 108.1210490 113.8353660  53.7360140 108.0008090 114.5615750  53.1241410
 107.8111380 113.0656570  53.2588050 123.5572380 121.9620050  67.1307190
 124.0332100 122.4402940  67.8096270 124.1779540 121.8937540  66.4052690
 105.7595860 117.0068800  59.5428780 105.8376280 117.1417570  58.5984500
 106.3737540 116.2984690  59.7356900 118.7976770 123.1416240  52.2886010
 118.6377910 122.8519180  53.1867840 118.6323480 122.3656370  51.7531240
 111.2765150 122.9214770  54.0657630 111.1007630 122.0050310  53.8525430
 110.4220890 123.2802060  54.3055430 118.5002900 120.6503800  50.8484010
 117.8068060 120.6481090  50.1886290 119.2425760 120.2263120  50.4178180
 118.0652830 122.2766510  54.9232500 118.5209780 121.4955890  55.2371120
 118.4045350 122.9873330  55.4673680 105.8155380 118.0482970  62.0823240
 105.9786420 117.5788330  61.2642610 106.2807830 117.5406530  62.7472080
 110.5874150 107.1788730  57.1183810 110.1442300 107.9598270  56.7868330
 111.1459140 107.5018620  57.8254750 114.8743960 110.0457250  62.7219130
 114.4123330 110.2540270  63.5339070 114.4722070 109.2316600  62.4189800
 113.7032970 106.7999430  51.9989640 113.0787150 106.7959300  52.7242950
 113.6163090 105.9330390  51.6025610 112.6250050 107.7236060  58.9773410
 112.9222380 108.6298890  58.8965430 113.1735610 107.2354840  58.3632980
 117.6086130 112.3085670  53.4455710 117.0095020 113.0321470  53.2619330
 118.1565740 112.2462450  52.6632160 116.2151000 110.9449210  55.4758990
 116.6080570 111.2621410  54.6627680 116.5767850 110.0661090  55.5903510
 105.4385400 111.4770130  48.9091910 105.3560070 112.4200890  49.0506900
 105.0868460 111.3345040  48.0304260 113.2383530 110.2109160  57.9762260
 113.2419590 109.7699110  57.1266800 114.1334650 110.5326490  58.0834080
 120.6902800 106.4020820  64.8219090 121.0148570 105.6710480  65.3477070
 120.7259310 106.0834460  63.9200080 113.5391500 114.2710940  59.7227670
 113.9061630 113.7969510  60.4689010 113.3496560 115.1452510  60.0636010
 116.0770580 107.9083890  52.5734510 115.2635190 107.4097060  52.4979820
 115.8832530 108.7482140  52.1570860 118.7918970 112.2803540  50.8696670
 119.6798590 112.5920770  50.6948010 118.7624060 111.4075790  50.4777250
 109.9010060 117.1860950  56.2757540 110.4188730 116.3829210  56.2214430
 109.4494080 117.1240090  57.1174370 115.9296170 119.4075560  64.0677920
 115.9440710 118.4756520  63.8496830 115.2221270 119.4935320  64.7067690
 121.0633240 113.5915380  50.3376530 120.9796960 114.0229600  49.4872970
 121.7827430 114.0513730  50.7703350 122.0920490 120.4457640  53.0658660
 121.4496650 119.7913260  53.3402380 121.7051150 120.8512730  52.2899330
 105.8962650 114.1513580  49.8117840 106.7657500 114.4338380  50.0953760
 105.4052970 114.9649450  49.6966650 116.6362150 119.0525480  59.8795870
 117.2784380 118.3518640  59.9928040 117.1611500 119.8323920  59.6992760
 120.4817870 119.3374100  49.6035010 120.2555450 118.6204540  50.1959650
 120.0914070 119.0886540  48.7656760 118.4099770 119.8520380  63.0831930
 118.7456010 120.4387070  63.7609850 117.4900110 119.7213090  63.3129720
 120.0634120 117.2546040  51.2649170 119.7755820 117.7158730  52.0527050
 120.8586290 116.7943810  51.5333390 106.2475760 121.6295820  64.8521870
 106.3566880 120.6890560  64.7117260 105.5956320 121.8950570  64.2035600
 114.2388350 119.9011710  66.2519990 113.9185220 119.1820950  66.7965680
 113.5646710 120.5766780  66.3256050 120.8203980 109.0894810  52.4244350
 120.1917140 109.1940480  51.7102580 120.3255900 109.3091590  53.2138230
 115.2662120 120.8100400  49.8578330 115.3674100 120.6064390  48.9280310
 114.3663860 120.5558680  50.0626110 114.4143940 112.7877460  61.8394760
 114.9129190 113.2623280  62.5046610 114.5566890 111.8640980  62.0464790
 110.9923030 109.6765840  51.2152940 111.8413560 110.1135990  51.1493130
 110.6254300 109.9886100  52.0425000 108.5861210 113.3623270  50.3721360
 108.6664800 112.4150780  50.4838760 109.4780960 113.6930150  50.4782020
 121.9158390 121.4187450  57.8038770 122.0405810 122.2418620  58.2762580
 122.7823950 121.2078180  57.4562920 108.3934200 122.6964730  66.6641480
 109.1946930 123.0176780  67.0776880 107.8786020 122.3360310  67.3861390
 112.4978230 122.6848970  49.2981470 113.2906840 122.9737800  48.8463260
 111.9782580 122.2541140  48.6193950 121.5508400 121.9119100  50.7218210
 121.2649910 121.4984240  49.9072390 121.3527950 122.8406810  50.6018730
 116.2558360 116.9672410  49.7665810 115.7068460 117.4141710  50.4108550
 116.8777620 116.4621660  50.2903480 113.3394640 107.4295490  61.5826770
 112.8911940 107.4519750  60.7372320 112.7059840 107.0314510  62.1797070
 113.7454190 116.3249820  62.2039210 114.1642300 117.1682550  62.0315450
 112.8262820 116.4621860  61.9745990 118.4205990 114.6103190  62.1639560
 117.8941210 115.1345810  61.5604700 118.7637330 115.2430580  62.7949290
 110.8192380 111.9996560  48.6089270 110.6181440 111.1363920  48.9702610
 110.6484430 111.9129920  47.6710870 117.6680290 110.2153160  65.0785890
 116.9795810 109.5534700  65.0135880 118.3886310 109.7691430  65.5234350
 118.2980690 106.8104790  51.1376150 118.5782980 105.9672690  51.4935570
 117.5246420 107.0427900  51.6514900 109.6175180 109.0997180  48.5967150
 109.9201080 109.1064610  47.6886300 110.3569770 108.7495040  49.0934810
 112.8360110 108.0431800  49.5823350 112.4882110 107.3655790  49.0025800
 113.0372880 107.5821310  50.3966740 115.0009150 123.0312550  51.2009950
 115.8959940 123.3697520  51.2228710 115.0326780 122.3091960  50.5734230
 105.8551110 121.1928630  56.8817210 106.1854120 120.3249690  56.6495850
 106.2842110 121.3987150  57.7122170 106.3441320 122.0599220  59.6198840
 105.9072310 122.2400020  60.4522990 106.9119000 122.8173840  59.4780560
 121.9803500 121.5616220  63.9076150 121.3805490 121.6208780  63.1640070
 122.1097400 120.6221200  64.0373000 123.2204950 119.3034040  49.2445860
 122.3897910 119.3710690  49.7153090 123.3976780 120.1938160  48.9412720
 122.6761410 116.0481520  51.7480060 123.4380320 116.6178170  51.8539750
 122.6915780 115.4808720  52.5188370 106.1765750 114.5719450  55.9787720
 105.5214590 114.3031090  55.3347420 107.0143700 114.4623930  55.5289700
 123.6821380 116.9031620  56.5921990 124.0530210 116.1198940  56.1857960
 124.3223310 117.5920720  56.4139290 120.6655140 118.2868200  62.0052310
 119.8514980 118.7165360  62.2678100 121.0729340 118.8986610  61.3921360
 122.7280580 116.3415890  48.9052580 123.0029420 117.2494770  48.7771800
 122.5391320 116.2778420  49.8414570 119.1256190 109.3660740  50.2006210
 119.5441070 109.1791720  49.3602870 118.8192250 108.5139790  50.5109140
 107.2141680 114.9572020  60.5191060 107.5814720 114.8699420  61.3987080
 106.6452500 114.1938570  60.4197920 120.4533610 108.6512830  66.3101230
 121.3303790 108.6596230  66.6935230 120.4654450 107.9143670  65.6993580
 105.3903830 111.7818380  51.9213050 104.4867910 112.0448580  51.7464710
 105.8744450 112.0529550  51.1413010 107.9331040 110.8383920  49.8307430
 108.6422740 110.4167140  49.3454710 107.2170980 110.9059150  49.1990780
 121.1649730 106.3370800  62.1302340 121.8021950 106.9504940  62.4961530
 121.3124620 106.3731460  61.1851570 123.7074280 108.2284590  48.9125480
 124.6323590 108.0965770  48.7043770 123.6850070 108.3077410  49.8661930
 123.7812770 108.9995250  51.5382190 122.9864270 108.9340370  52.0675100
 123.9856050 109.9345890  51.5267540 120.7231190 123.0386800  55.5320580
 121.3190260 122.7171370  54.8555000 120.9809340 122.5658620  56.3233850
 114.5354210 107.4896990  65.0377440 114.4743100 108.0818820  65.7872850
 115.4754590 107.3822950  64.8927700 117.1728770 107.1467050  64.6769730
 117.7869180 107.4646340  64.0150810 117.7178330 106.6615640  65.2965590
 123.5903950 123.0458680  62.0831570 123.0962230 123.4427550  61.3658700
 122.9817240 122.4207890  62.4768850 108.4681790 122.4166960  62.8008990
 107.8742110 122.2851660  63.5399030 108.4605630 121.5805100  62.3351090
 117.9136810 105.7099190  61.0039020 117.0396650 106.0434300  60.8011950
 117.8047560 105.2372370  61.8290890 121.2743400 123.6882100  59.3618310
 120.8146370 124.4397910  58.9876330 120.6455860 122.9688570  59.3033110
 108.0994020 119.7825340  61.7517030 107.3728080 119.1630630  61.6842980
 108.1603170 120.1765950  60.8815110 115.6611630 106.6269030  59.9431930
 114.8783420 107.1014530  60.2228690 115.3674560 105.7223860  59.8345110
 113.5465850 109.0455780  55.4547960 112.7340360 108.6712670  55.1143840
 114.0507490 108.2900860  55.7569150 121.1925430 106.1119790  51.9671310
 121.3876060 107.0103240  52.2338740 120.4055300 105.8806870  52.4604260
 122.7452040 123.3520500  53.7277870 122.9204230 122.6658240  53.0838790
 122.0473610 123.8767550  53.3354540 111.6970590 106.4739680  66.4945500
 111.4154860 106.9773280  65.7306320 112.0790290 105.6761430  66.1287630
 117.2044200 113.9085730  37.4360710 117.1238250 112.9940340  37.1652420
 116.7908620 114.4052800  36.7300420 115.3362240 115.6864750  39.3169980
 114.5604340 115.2065190  39.6068550 115.9875170 115.0070400  39.1426140
 109.3528070 115.9984560  40.1945740 108.5212950 115.7433270  40.5942250
 109.9609050 116.0695330  40.9303660 119.3569670 120.0924940  38.0969110
 118.8951200 119.3212180  38.4256280 120.1695220 120.1191010  38.6021560
 109.3329330 120.0324650  40.3903760 109.6357370 119.1422390  40.2113980
 110.0772920 120.5894870  40.1626010 107.7620020 110.9586450  33.9788130
 106.8736720 111.3002420  33.8768010 108.0461210 110.7586770  33.0868960
 105.7253030 113.5592100  39.8627830 106.2969140 112.7914300  39.8631470
 105.7254570 113.8580860  38.9534440 115.5832980 122.3782950  37.7173100
 114.9644420 122.8340450  37.1467540 116.4384760 122.5334410  37.3162800
 114.7771230 118.3621940  39.3240140 114.7079510 117.4211880  39.1629270
 115.5391090 118.4523350  39.8962710 115.8076400 111.1692320  39.5509070
 116.1841220 110.2964200  39.4382740 115.7095910 111.5051020  38.6599510
 109.9381410 109.5417950  35.0126510 110.0448160 110.4421680  35.3195270
 109.0273770 109.4935920  34.7221160 119.5900520 108.6642760  36.4837410
 120.4110140 108.1739330  36.5262890 119.6234600 109.2540420  37.2369250
 107.5864570 111.4636960  40.2579100 108.2674680 111.7275330  40.8766500
 107.2712620 110.6237830  40.5917110 111.7789140 112.5104320  39.3451690
 112.2867360 113.0085290  39.9856710 112.3102380 111.7339520  39.1691050
 123.8800070 110.6809510  43.0481040 123.1752240 111.0691220  42.5296150
 124.1457990 111.3759800  43.6501970 116.4496330 117.2622190  35.1105010
 115.8313600 117.7271640  34.5467730 116.9619580 117.9549670  35.5274520
 111.3128090 116.7898060  41.7888610 110.9797470 117.4166980  42.4309680
 111.4894770 117.3159940  41.0090280 119.8262000 110.6043140  39.2564950
 119.1217570 110.8928030  39.8368060 120.1874160 111.4143250  38.8964510
 110.5247190 118.7578860  43.6037790 111.1421190 119.4329940  43.3222240
 109.6640310 119.1666840  43.5125290 105.8179530 117.9478720  32.4844640
 105.4407510 118.4365820  31.7529540 106.0752600 118.6204000  33.1151170
 121.4424780 120.2218270  41.5192430 120.7588300 120.8917380  41.5109100
 121.9819070 120.4198920  40.7537290 122.8948920 110.0497930  39.6474160
 121.9473830 110.0836910  39.7789590 123.2198910 110.8636880  40.0323520
 113.4268460 106.3495110  37.9430150 113.7343440 105.7942000  37.2265650
 112.4969160 106.4839570  37.7603140 118.9783520 122.0662400  40.2337610
 118.9910680 121.6624690  39.3659870 118.4258740 122.8409690  40.1299040
 120.2728940 118.7878620  35.3227780 120.1625270 117.8452950  35.4477200
 120.2697190 119.1494260  36.2090540 118.3768960 116.9692240  41.5620220
 118.7937750 116.7552350  40.7273680 119.1008780 117.2265030  42.1328840
 115.8149220 114.4143940  34.6790270 114.8878500 114.3481320  34.9078740
 115.9674040 115.3524070  34.5645510 115.8018300 110.6860940  31.6757430
 114.8621970 110.8474900  31.7609890 116.1201560 111.4046620  31.1293420
 122.3231060 115.3679460  41.6536460 121.4949690 115.4372550  41.1786590
 122.9181540 115.9533770  41.1852290 119.8446510 115.9764240  35.1825520
 119.2258930 115.6383790  34.5351820 119.8270960 115.3324000  35.8904710
 119.2873070 112.1548780  42.5991330 118.8744250 112.9802490  42.8531320
 118.5549020 111.5693820  42.4067690 111.4205860 114.9408680  37.4610000
 111.0162860 114.2285930  36.9655900 111.5068980 114.5961920  38.3498040
 111.8887560 118.6276240  39.6249210 111.5915850 118.0221710  38.9456990
 112.8387380 118.6653550  39.5138570 110.1334480 111.7151890  41.2409040
 110.6849070 111.8247230  40.4662290 110.6477990 112.0889490  41.9564270
 119.9773170 122.2008110  43.2872310 119.5003730 123.0080300  43.0944920
 119.2934960 121.5486440  43.4398520 110.9805990 118.3657930  46.2757010
 110.0834520 118.5897900  46.5230410 111.0058860 118.4892870  45.3268410
 118.0211210 115.2151050  32.1898270 118.4604490 114.3773480  32.0436090
 118.7339630 115.8480450  32.2762410 109.8077210 115.2371250  44.8514380
 109.6684980 116.1094050  45.2201780 108.9258570 114.8944060  44.7062320
 116.1306590 120.1547120  36.1579510 116.5702500 120.8971450  35.7434900
 116.0693480 120.3973690  37.0818470 111.6057560 121.1792950  47.0599530
 111.5772990 121.5835900  46.1927960 111.4422530 120.2503310  46.8971130
 121.6028350 106.4693860  30.5039310 121.2901010 106.5620690  31.4038380
 122.3640820 107.0474890  30.4536740 108.1210490 113.8353660  34.9616650
 108.0008090 114.5615750  34.3497920 107.8111380 113.0656570  34.4844560
 123.5572380 121.9620050  48.3563700 124.0332100 122.4402940  49.0352780
 124.1779540 121.8937540  47.6309200 105.7595860 117.0068800  40.7685290
 105.8376280 117.1417570  39.8241010 106.3737540 116.2984690  40.9613410
 107.0043490 118.7068990  37.1791470 106.5971570 118.8483580  36.3245070
 107.8956500 118.4229150  36.9762680 122.9605630 119.1532900  45.5163710
 123.0868690 118.9144780  44.5980890 123.0027010 118.3217440  45.9885790
 116.8222370 122.8560900  44.0858520 117.3367040 122.7668910  44.8880950
 115.9791450 123.2020600  44.3786430 118.7976770 123.1416240  33.5142520
 118.6377910 122.8519180  34.4124350 118.6323480 122.3656370  32.9787750
 111.2765150 122.9214770  35.2914140 111.1007630 122.0050310  35.0781940
 110.4220890 123.2802060  35.5311940 118.5002900 120.6503800  32.0740520
 117.8068060 120.6481090  31.4142800 119.2425760 120.2263120  31.6434690
 118.0652830 122.2766510  36.1489010 118.5209780 121.4955890  36.4627630
 118.4045350 122.9873330  36.6930190 122.8129640 111.2065360  46.4813450
 122.1973910 111.7145030  45.9528910 122.4926060 110.3063690  46.4239390
 105.8155380 118.0482970  43.3079750 105.9786420 117.5788330  42.4899120
 106.2807830 117.5406530  43.9728590 110.5874150 107.1788730  38.3440320
 110.1442300 107.9598270  38.0124840 111.1459140 107.5018620  39.0511260
 114.8743960 110.0457250  43.9475640 114.4123330 110.2540270  44.7595580
 114.4722070 109.2316600  43.6446310 119.8748470 111.2666200  45.0772300
 119.0242060 110.9671950  45.3981370 119.7150260 111.5108210  44.1656120
 116.9698180 112.7667950  47.1771090 117.2951590 111.9331700  46.8373320
 117.7578510 113.2896470  47.3249420 113.7032970 106.7999430  33.2246150
 113.0787150 106.7959300  33.9499460 113.6163090 105.9330390  32.8282120
 112.6250050 107.7236060  40.2029920 112.9222380 108.6298890  40.1221940
 113.1735610 107.2354840  39.5889490 110.3788370 112.3022300  36.0721570
 110.1529290 112.0859470  36.9768190 109.5980900 112.7350760  35.7267540
 117.6086130 112.3085670  34.6712220 117.0095020 113.0321470  34.4875840
 118.1565740 112.2462450  33.8888670 112.8187580 113.2007880  46.7381840
 112.7231180 112.2602610  46.5882240 113.6619560 113.4222950  46.3429910
 116.2151000 110.9449210  36.7015500 116.6080570 111.2621410  35.8884190
 116.5767850 110.0661090  36.8160020 114.5243170 109.6956520  47.9612360
 113.8341490 109.5028720  48.5958450 115.2675470 109.9791160  48.4936660
 105.2515170 107.5350010  38.9245700 104.9628220 108.1052870  39.6370680
 105.9960930 107.0554460  39.2876930 105.4385400 111.4770130  30.1348420
 105.3560070 112.4200890  30.2763410 105.0868460 111.3345040  29.2560770
 116.8006140 113.5354960  40.7966280 116.0687260 114.0441770  41.1456380
 116.4030480 112.7184940  40.4955060 113.2383530 110.2109160  39.2018770
 113.2419590 109.7699110  38.3523310 114.1334650 110.5326490  39.3090590
 109.0885910 110.0935650  38.1612980 108.7485960 110.5710880  38.9180030
 108.3263230 109.6400770  37.8014080 113.3003680 111.2121240  32.1925530
 113.4216500 111.1707720  33.1411350 112.9152190 112.0745390  32.0372260
 117.2632050 108.9888640  40.2089220 117.2804790 109.4397290  41.0531070
 117.0147630 108.0894280  40.4222660 112.3125180 113.5222380  31.5908830
 111.7442080 113.0740630  30.9644740 113.0214180 113.8815160  31.0573980
 120.6902800 106.4020820  46.0475600 121.0148570 105.6710480  46.5733580
 120.7259310 106.0834460  45.1456590 107.3894360 117.4234400  45.4675560
 107.0049150 116.7828070  46.0658520 107.7006550 118.1270520  46.0370290
 113.5391500 114.2710940  40.9484180 113.9061630 113.7969510  41.6945520
 113.3496560 115.1452510  41.2892520 106.4031990 109.0154630  37.0777650
 106.1178910 108.6510300  37.9156270 106.3410850 108.2835090  36.4640790
 111.3290870 113.3119580  43.2668390 111.0247940 114.1911560  43.4918750
 112.2837330 113.3719370  43.3025830 109.8572660 117.5180570  33.8635240
 109.0834920 116.9778190  33.7033960 110.5867290 116.9987180  33.5253000
 120.6160640 116.5145930  39.6561630 121.3359760 117.0101220  39.2657740
 120.4142460 115.8363820  39.0115500 116.0770580 107.9083890  33.7991020
 115.2635190 107.4097060  33.7236330 115.8832530 108.7482140  33.3827370
 115.9979440 116.5854990  45.5430630 115.9316750 115.6650660  45.2888220
 115.3684580 116.6830430  46.2575270 118.7918970 112.2803540  32.0953180
 119.6798590 112.5920770  31.9204520 118.7624060 111.4075790  31.7033760
 109.9010060 117.1860950  37.5014050 110.4188730 116.3829210  37.4470940
 109.4494080 117.1240090  38.3430880 114.7879560 118.4527230  32.7741350
 115.1295260 119.1969460  32.2784670 113.9592270 118.7658350  33.1366180
 107.3854600 114.1522320  44.4139750 107.0269540 114.8176170  45.0013090
 107.0909160 113.3205870  44.7852370 110.5867720 114.6106560  47.2979300
 110.2867860 114.7563740  46.4007120 111.3578960 114.0511850  47.2052690
 115.9296170 119.4075560  45.2934430 115.9440710 118.4756520  45.0753340
 115.2221270 119.4935320  45.9324200 121.0633240 113.5915380  31.5633040
 120.9796960 114.0229600  30.7129480 121.7827430 114.0513730  31.9959860
 122.1407380 116.0482900  44.6403010 121.4155570 116.6411680  44.4432400
 122.6682840 116.0406440  43.8416380 122.0920490 120.4457640  34.2915170
 121.4496650 119.7913260  34.5658890 121.7051150 120.8512730  33.5155840
 117.6706970 117.7743070  38.1386860 118.0230790 117.1771200  37.4788230
 116.7869300 117.4487300  38.3095110 113.7570250 118.5340760  35.5457270
 114.4441380 119.0809970  35.9264860 112.9702670 119.0781490  35.5806880
 105.8962650 114.1513580  31.0374350 106.7657500 114.4338380  31.3210270
 105.4052970 114.9649450  30.9223160 113.0597460 115.5386790  35.1582630
 113.5160240 116.3492040  35.3842820 112.7085670 115.2209930  35.9901120
 115.3630070 121.0493130  42.3874930 116.0072290 121.2552510  43.0648350
 115.7259510 120.2881530  41.9345780 116.6362150 119.0525480  41.1052380
 117.2784380 118.3518640  41.2184550 117.1611500 119.8323920  40.9249270
 120.4817870 119.3374100  30.8291520 120.2555450 118.6204540  31.4216160
 120.0914070 119.0886540  29.9913270 118.4099770 119.8520380  44.3088440
 118.7456010 120.4387070  44.9866360 117.4900110 119.7213090  44.5386230
 106.2633900 123.3640960  31.6035980 106.6231540 123.9630300  30.9493250
 106.1226240 123.9100850  32.3771010 120.0634120 117.2546040  32.4905680
 119.7755820 117.7158730  33.2783560 120.8586290 116.7943810  32.7589900
 114.2388350 119.9011710  47.4776500 113.9185220 119.1820950  48.0222190
 113.5646710 120.5766780  47.5512560 112.2802520 120.7472160  32.4209650
 112.2712620 121.4801850  31.8054160 111.3600880 120.5003740  32.5136610
 107.8809160 115.9687050  33.1656410 107.2737110 116.7085950  33.1751710
 108.3558510 116.0586410  32.3394610 117.4541950 110.1337870  42.8413300
 117.8222770 109.3133080  43.1692870 116.5940150 110.1939760  43.2568950
 120.8203980 109.0894810  33.6500860 120.1917140 109.1940480  32.9359090
 120.3255900 109.3091590  34.4394740 115.2662120 120.8100400  31.0834840
 115.3674100 120.6064390  30.1536820 114.3663860 120.5558680  31.2882620
 112.7888010 111.3680760  35.0658740 112.0804160 111.8367100  35.5072350
 113.0732490 110.7102770  35.7003930 114.4143940 112.7877460  43.0651270
 114.9129190 113.2623280  43.7303120 114.5566890 111.8640980  43.2721300
 116.8203440 108.0931420  36.5054530 116.6971220 108.1117550  35.5564040
 117.7688000 108.1410360  36.6252930 113.9080230 123.3286720  35.7782510
 114.1621730 123.2908110  34.8561880 112.9592710 123.2020050  35.7710760
 110.9923030 109.6765840  32.4409450 111.8413560 110.1135990  32.3749640
 110.6254300 109.9886100  33.2681510 121.6210800 109.0045420  43.9079660
 121.1184400 109.7450820  44.2473470 122.4367460 109.3929420  43.5916450
 119.9132810 114.2478600  37.3541020 118.9722950 114.2628830  37.5288710
 120.2276880 113.4614560  37.8001320 109.8914450 115.9298200  30.9144980
 110.6577720 115.8179560  31.4770410 109.9689140 115.2336170  30.2621750
 108.5861210 113.3623270  31.5977870 108.6664800 112.4150780  31.7095270
 109.4780960 113.6930150  31.7038530 121.9158390 121.4187450  39.0295280
 122.0405810 122.2418620  39.5019090 122.7823950 121.2078180  38.6819430
 109.3875920 123.5118660  38.7012410 110.1238400 122.9634120  38.9720980
 109.7716840 124.3774670  38.5618400 106.2721400 119.5792230  34.5753920
 105.3461180 119.8213370  34.5659330 106.7377830 120.4066490  34.4538670
 112.4978230 122.6848970  30.5237980 113.2906840 122.9737800  30.0719770
 111.9782580 122.2541140  29.8450460 117.2298830 118.8044600  47.8373400
 116.6236990 118.8276200  47.0969150 116.9252940 118.0727640  48.3740650
 118.6599200 122.5324890  46.4482810 119.6120950 122.4482910  46.3983050
 118.5127420 123.1966600  47.1216600 121.5508400 121.9119100  31.9474720
 121.2649910 121.4984240  31.1328900 121.3527950 122.8406810  31.8275240
 106.1132010 115.1838190  46.8334040 106.6171030 114.6045470  47.4050270
 105.3739430 115.4678420  47.3710410 113.0155630 117.9052380  30.3880330
 112.9106270 117.2904730  31.1141710 112.8479850 117.3818270  29.6043340
 113.1669950 116.5909180  46.3669560 112.4015620 117.1594180  46.2824230
 113.3485910 116.2985390  45.4737790 116.2558360 116.9672410  30.9922320
 115.7068460 117.4141710  31.6365060 116.8777620 116.4621660  31.5159990
 120.3093300 118.3214510  46.9244580 121.0502770 118.6590270  46.4212040
 119.5465980 118.4906570  46.3714350 108.1455090 113.3267780  47.7284110
 108.1860430 113.0281650  48.6369340 109.0000590 113.7275390  47.5691630
 111.9233480 115.9263330  32.8887620 112.3449900 115.7603200  33.7319010
 112.0484320 115.1163560  32.3942760 110.0860900 111.9059880  45.6958600
 109.5557360 111.4150830  45.0681940 110.7548970 112.3344080  45.1616530
 114.4361120 114.9500940  30.1364720 114.9566780 114.2349960  29.7705870
 115.0829520 115.5886810  30.4365230 118.9838960 116.3729340  45.4599790
 119.3979980 116.5274420  46.3090210 118.0489960 116.4984560  45.6225570
 119.4561130 113.7125500  47.4638940 120.0381900 112.9577820  47.3759420
 119.6322900 114.2432940  46.6870420 113.7454190 116.3249820  43.4295720
 114.1642300 117.1682550  43.2571960 112.8262820 116.4621860  43.2002500
 116.0818090 114.0566000  44.8133560 116.2014300 113.4607140  45.5528400
 116.9412090 114.0935690  44.3934860 118.4205990 114.6103190  43.3896070
 117.8941210 115.1345810  42.7861210 118.7637330 115.2430580  44.0205800
 110.8192380 111.9996560  29.8345780 110.6181440 111.1363920  30.1959120
 110.6484430 111.9129920  28.8967380 111.5961610 122.6302830  44.5453450
 111.0582700 123.3548890  44.2262150 111.8495570 122.1533170  43.7550790
 112.8486860 110.5987350  46.0709380 113.4386550 110.2903200  46.7587200
 112.0307100 110.1267100  46.2269280 117.6680290 110.2153160  46.3042400
 116.9795810 109.5534700  46.2392390 118.3886310 109.7691430  46.7490860
 118.2980690 106.8104790  32.3632660 118.5782980 105.9672690  32.7192080
 117.5246420 107.0427900  32.8771410 109.6175180 109.0997180  29.8223660
 109.9201080 109.1064610  28.9142810 110.3569770 108.7495040  30.3191320
 114.4523820 123.8654040  44.8040100 114.3782520 124.7689180  45.1112470
 113.5502660 123.5465940  44.7762170 112.8360110 108.0431800  30.8079860
 112.4882110 107.3655790  30.2282310 113.0372880 107.5821310  31.6223250
 115.0009150 123.0312550  32.4266460 115.8959940 123.3697520  32.4485220
 115.0326780 122.3091960  31.7990740 108.6405310 118.4039600  30.6553460
 109.0780180 118.9469270  31.3111040 109.1253040 117.5786550  30.6649800
 105.8551110 121.1928630  38.1073720 106.1854120 120.3249690  37.8752360
 106.2842110 121.3987150  38.9378680 110.4513030 119.5237640  35.7675690
 110.1508570 119.4002610  36.6679600 110.3450520 118.6646230  35.3591420
 106.3441320 122.0599220  40.8455350 105.9072310 122.2400020  41.6779500
 106.9119000 122.8173840  40.7037070 121.9803500 121.5616220  45.1332660
 121.3805490 121.6208780  44.3896580 122.1097400 120.6221200  45.2629510
 123.2204950 119.3034040  30.4702370 122.3897910 119.3710690  30.9409600
 123.3976780 120.1938160  30.1669230 122.6761410 116.0481520  32.9736570
 123.4380320 116.6178170  33.0796260 122.6915780 115.4808720  33.7444880
 106.1765750 114.5719450  37.2044230 105.5214590 114.3031090  36.5603930
 107.0143700 114.4623930  36.7546210 123.6821380 116.9031620  37.8178500
 124.0530210 116.1198940  37.4114470 124.3223310 117.5920720  37.6395800
 120.6655140 118.2868200  43.2308820 119.8514980 118.7165360  43.4934610
 121.0729340 118.8986610  42.6177870 122.7280580 116.3415890  30.1309090
 123.0029420 117.2494770  30.0028310 122.5391320 116.2778420  31.0671080
 119.1256190 109.3660740  31.4262720 119.5441070 109.1791720  30.5859380
 118.8192250 108.5139790  31.7365650 122.6245920 114.2784880  35.1238520
 122.2489520 113.5112810  34.6919810 121.8949040 114.6607580  35.6113450
 107.2141680 114.9572020  41.7447570 107.5814720 114.8699420  42.6243590
 106.6452500 114.1938570  41.6454430 122.0145540 113.4256400  44.7578040
 121.7831630 113.1969150  43.8575990 122.2750090 114.3455950  44.7122930
 106.7657680 111.8681110  45.6505990 105.8713730 111.8347870  45.9899700
 107.3055230 112.0667900  46.4157240 120.4533610 108.6512830  47.5357740
 121.3303790 108.6596230  47.9191740 120.4654450 107.9143670  46.9250090
 105.3903830 111.7818380  33.1469560 104.4867910 112.0448580  32.9721220
 105.8744450 112.0529550  32.3669520 121.8996880 112.5042370  38.4245760
 122.4234360 112.0105020  37.7935930 122.4856300 112.6392730  39.1693330
 122.0786600 112.5882240  41.9465310 121.1289310 112.5545780  42.0610300
 122.2599610 113.4982350  41.7115080 107.9331040 110.8383920  31.0563940
 108.6422740 110.4167140  30.5711220 107.2170980 110.9059150  30.4247290
 121.3896850 111.7615720  34.3638170 121.8855970 111.5286590  35.1487050
 121.1912920 110.9227560  33.9475810 122.8184010 110.3976670  36.8975850
 122.7083290 110.2432710  37.8358120 123.5791600 109.8697610  36.6551260
 121.1649730 106.3370800  43.3558850 121.8021950 106.9504940  43.7218040
 121.3124620 106.3731460  42.4108080 123.7074280 108.2284590  30.1381990
 124.6323590 108.0965770  29.9300280 123.6850070 108.3077410  31.0918440
 123.7812770 108.9995250  32.7638700 122.9864270 108.9340370  33.2931610
 123.9856050 109.9345890  32.7524050 120.7231190 123.0386800  36.7577090
 121.3190260 122.7171370  36.0811510 120.9809340 122.5658620  37.5490360
 112.3299790 121.0264300  42.5077440 112.0891150 121.2938860  41.6207960
 113.2702430 121.1970030  42.5628300 114.5354210 107.4896990  46.2633950
 114.4743100 108.0818820  47.0129360 115.4754590 107.3822950  46.1184210
 117.1728770 107.1467050  45.9026240 117.7869180 107.4646340  45.2407320
 117.7178330 106.6615640  46.5222100 123.5903950 123.0458680  43.3088080
 123.0962230 123.4427550  42.5915210 122.9817240 122.4207890  43.7025360
 108.4681790 122.4166960  44.0265500 107.8742110 122.2851660  44.7655540
 108.4605630 121.5805100  43.5607600 117.9136810 105.7099190  42.2295530
 117.0396650 106.0434300  42.0268460 117.8047560 105.2372370  43.0547400
 118.8208790 107.9170060  43.6137250 118.4922150 107.1021820  43.2338980
 119.7691090 107.8739870  43.4902940 121.2743400 123.6882100  40.5874820
 120.8146370 124.4397910  40.2132840 120.6455860 122.9688570  40.5289620
 108.0994020 119.7825340  42.9773540 107.3728080 119.1630630  42.9099490
 108.1603170 120.1765950  42.1071620 111.7039120 121.9970340  39.7622950
 112.2204140 121.3857700  39.2371210 112.3536500 122.4999120  40.2533960
 114.4434620 122.8878830  40.5891930 114.7312430 122.6333130  39.7124940
 114.9557840 122.3356190  41.1797500 115.6611630 106.6269030  41.1688440
 114.8783420 107.1014530  41.4485200 115.3674560 105.7223860  41.0601620
 120.2132700 107.3292130  39.2137530 120.6540790 107.2737230  38.3659130
 119.9440290 108.2450140  39.2847710 122.0771270 106.9607370  37.2246350
 122.0159670 106.0168590  37.0777370 122.8563300 107.0687460  37.7699810
 106.3824020 123.0999730  36.1870300 106.2146060 122.4670410  36.8852190
 105.5158530 123.3059130  35.8364490 113.5465850 109.0455780  36.6804470
 112.7340360 108.6712670  36.3400350 114.0507490 108.2900860  36.9825660
 118.0490830 105.7098230  37.9187540 118.6520200 106.2818440  38.3936060
 117.3083820 106.2737670  37.6961440 121.1925430 106.1119790  33.1927820
 121.3876060 107.0103240  33.4595250 120.4055300 105.8806870  33.6860770
 107.9886720 121.7932960  33.6320440 107.4634340 122.1740990  32.9282400
 107.9131300 122.4183730  34.3530150 111.5715030 107.1955700  35.2849520
 110.9417770 106.4943010  35.4519650 111.0320170 107.9559830  35.0682680
 114.5106980 123.8094930  47.9560130 115.4374290 123.5739200  47.9996090
 114.4957410 124.6366930  47.4746160 122.7452040 123.3520500  34.9534380
 122.9204230 122.6658240  34.3095300 122.0473610 123.8767550  34.5611050
 111.6970590 106.4739680  47.7202010 111.4154860 106.9773280  46.9562830
 112.0790290 105.6761430  47.3544140 110.5879690 123.7415340  32.5069690
 111.3198510 123.4574620  31.9593580 110.8473360 123.5028620  33.3969070
 109.7494480 119.8580070  32.5116020 109.1203360 120.3265170  33.0601850
 109.8642310 119.0129290  32.9462210 118.2986050 105.8893260  48.2982480
 118.1851500 106.2087870  49.1934000 119.1155790 106.2905770  48.0019760
 121.0784540 123.0364790  47.7801170 121.8709860 122.5414020  47.5727130
 121.3717690 123.7154930  48.3876780 117.2044200 113.9085730  18.6617220
 117.1238250 112.9940340  18.3908930 116.7908620 114.4052800  17.9556930
 115.3362240 115.6864750  20.5426490 114.5604340 115.2065190  20.8325060
 115.9875170 115.0070400  20.3682650 109.3528070 115.9984560  21.4202250
 108.5212950 115.7433270  21.8198760 109.9609050 116.0695330  22.1560170
 119.3569670 120.0924940  19.3225620 118.8951200 119.3212180  19.6512790
 120.1695220 120.1191010  19.8278070 109.3329330 120.0324650  21.6160270
 109.6357370 119.1422390  21.4370490 110.0772920 120.5894870  21.3882520
 107.7620020 110.9586450  15.2044640 106.8736720 111.3002420  15.1024520
 108.0461210 110.7586770  14.3125470 105.7253030 113.5592100  21.0884340
 106.2969140 112.7914300  21.0887980 105.7254570 113.8580860  20.1790950
 115.5832980 122.3782950  18.9429610 114.9644420 122.8340450  18.3724050
 116.4384760 122.5334410  18.5419310 114.7771230 118.3621940  20.5496650
 114.7079510 117.4211880  20.3885780 115.5391090 118.4523350  21.1219220
 106.9677900 108.9676460  22.8753270 106.7880740 108.0702210  23.1556030
 106.5657980 109.5148330  23.5500220 115.8076400 111.1692320  20.7765580
 116.1841220 110.2964200  20.6639250 115.7095910 111.5051020  19.8856020
 109.9381410 109.5417950  16.2383020 110.0448160 110.4421680  16.5451780
 109.0273770 109.4935920  15.9477670 119.5900520 108.6642760  17.7093920
 120.4110140 108.1739330  17.7519400 119.6234600 109.2540420  18.4625760
 107.5864570 111.4636960  21.4835610 108.2674680 111.7275330  22.1023010
 107.2712620 110.6237830  21.8173620 111.7789140 112.5104320  20.5708200
 112.2867360 113.0085290  21.2113220 112.3102380 111.7339520  20.3947560
 123.8800070 110.6809510  24.2737550 123.1752240 111.0691220  23.7552660
 124.1457990 111.3759800  24.8758480 110.0625240 107.1502880  24.8371620
 110.0643680 107.6675270  24.0317520 109.2329550 106.6733060  24.8141550
 116.4496330 117.2622190  16.3361520 115.8313600 117.7271640  15.7724240
 116.9619580 117.9549670  16.7531030 111.3128090 116.7898060  23.0145120
 110.9797470 117.4166980  23.6566190 111.4894770 117.3159940  22.2346790
 119.8262000 110.6043140  20.4821460 119.1217570 110.8928030  21.0624570
 120.1874160 111.4143250  20.1221020 109.7440570 108.8612840  22.8442070
 110.0857380 109.7054890  22.5495940 108.8056380 109.0096580  22.9607410
 110.5247190 118.7578860  24.8294300 111.1421190 119.4329940  24.5478750
 109.6640310 119.1666840  24.7381800 105.8179530 117.9478720  13.7101150
 105.4407510 118.4365820  12.9786050 106.0752600 118.6204000  14.3407680
 121.4424780 120.2218270  22.7448940 120.7588300 120.8917380  22.7365610
 121.9819070 120.4198920  21.9793800 122.8948920 110.0497930  20.8730670
 121.9473830 110.0836910  21.0046100 123.2198910 110.8636880  21.2580030
 113.4268460 106.3495110  19.1686660 113.7343440 105.7942000  18.4522160
 112.4969160 106.4839570  18.9859650 118.9783520 122.0662400  21.4594120
 118.9910680 121.6624690  20.5916380 118.4258740 122.8409690  21.3555550
 120.2728940 118.7878620  16.5484290 120.1625270 117.8452950  16.6733710
 120.2697190 119.1494260  17.4347050 118.3768960 116.9692240  22.7876730
 118.7937750 116.7552350  21.9530190 119.1008780 117.2265030  23.3585350
 115.8149220 114.4143940  15.9046780 114.8878500 114.3481320  16.1335250
 115.9674040 115.3524070  15.7902020 115.8018300 110.6860940  12.9013940
 114.8621970 110.8474900  12.9866400 116.1201560 111.4046620  12.3549930
 122.3231060 115.3679460  22.8792970 121.4949690 115.4372550  22.4043100
 122.9181540 115.9533770  22.4108800 119.8446510 115.9764240  16.4082030
 119.2258930 115.6383790  15.7608330 119.8270960 115.3324000  17.1161220
 119.2873070 112.1548780  23.8247840 118.8744250 112.9802490  24.0787830
 118.5549020 111.5693820  23.6324200 111.4205860 114.9408680  18.6866510
 111.0162860 114.2285930  18.1912410 111.5068980 114.5961920  19.5754550
 111.8887560 118.6276240  20.8505720 111.5915850 118.0221710  20.1713500
 112.8387380 118.6653550  20.7395080 110.1334480 111.7151890  22.4665550
 110.6849070 111.8247230  21.6918800 110.6477990 112.0889490  23.1820780
 119.9773170 122.2008110  24.5128820 119.5003730 123.0080300  24.3201430
 119.2934960 121.5486440  24.6655030 110.9805990 118.3657930  27.5013520
 110.0834520 118.5897900  27.7486920 111.0058860 118.4892870  26.5524920
 118.0211210 115.2151050  13.4154780 118.4604490 114.3773480  13.2692600
 118.7339630 115.8480450  13.5018920 109.8077210 115.2371250  26.0770890
 109.6684980 116.1094050  26.4458290 108.9258570 114.8944060  25.9318830
 116.1306590 120.1547120  17.3836020 116.5702500 120.8971450  16.9691410
 116.0693480 120.3973690  18.3074980 111.6057560 121.1792950  28.2856040
 111.5772990 121.5835900  27.4184470 111.4422530 120.2503310  28.1227640
 121.6028350 106.4693860  11.7295820 121.2901010 106.5620690  12.6294890
 122.3640820 107.0474890  11.6793250 108.1210490 113.8353660  16.1873160
 108.0008090 114.5615750  15.5754430 107.8111380 113.0656570  15.7101070
 123.5572380 121.9620050  29.5820210 124.0332100 122.4402940  30.2609290
 124.1779540 121.8937540  28.8565710 105.7595860 117.0068800  21.9941800
 105.8376280 117.1417570  21.0497520 106.3737540 116.2984690  22.1869920
 107.0043490 118.7068990  18.4047980 106.5971570 118.8483580  17.5501580
 107.8956500 118.4229150  18.2019190 122.9605630 119.1532900  26.7420220
 123.0868690 118.9144780  25.8237400 123.0027010 118.3217440  27.2142300
 116.8222370 122.8560900  25.3115030 117.3367040 122.7668910  26.1137460
 115.9791450 123.2020600  25.6042940 118.7976770 123.1416240  14.7399030
 118.6377910 122.8519180  15.6380860 118.6323480 122.3656370  14.2044260
 111.2765150 122.9214770  16.5170650 111.1007630 122.0050310  16.3038450
 110.4220890 123.2802060  16.7568450 118.5002900 120.6503800  13.2997030
 117.8068060 120.6481090  12.6399310 119.2425760 120.2263120  12.8691200
 118.0652830 122.2766510  17.3745520 118.5209780 121.4955890  17.6884140
 118.4045350 122.9873330  17.9186700 122.8129640 111.2065360  27.7069960
 122.1973910 111.7145030  27.1785420 122.4926060 110.3063690  27.6495900
 105.8155380 118.0482970  24.5336260 105.9786420 117.5788330  23.7155630
 106.2807830 117.5406530  25.1985100 110.5874150 107.1788730  19.5696830
 110.1442300 107.9598270  19.2381350 111.1459140 107.5018620  20.2767770
 114.8743960 110.0457250  25.1732150 114.4123330 110.2540270  25.9852090
 114.4722070 109.2316600  24.8702820 119.8748470 111.2666200  26.3028810
 119.0242060 110.9671950  26.6237880 119.7150260 111.5108210  25.3912630
 116.9698180 112.7667950  28.4027600 117.2951590 111.9331700  28.0629830
 117.7578510 113.2896470  28.5505930 113.7032970 106.7999430  14.4502660
 113.0787150 106.7959300  15.1755970 113.6163090 105.9330390  14.0538630
 112.6250050 107.7236060  21.4286430 112.9222380 108.6298890  21.3478450
 113.1735610 107.2354840  20.8146000 110.3788370 112.3022300  17.2978080
 110.1529290 112.0859470  18.2024700 109.5980900 112.7350760  16.9524050
 117.6086130 112.3085670  15.8968730 117.0095020 113.0321470  15.7132350
 118.1565740 112.2462450  15.1145180 112.8187580 113.2007880  27.9638350
 112.7231180 112.2602610  27.8138750 113.6619560 113.4222950  27.5686420
 116.2151000 110.9449210  17.9272010 116.6080570 111.2621410  17.1140700
 116.5767850 110.0661090  18.0416530 107.9498120 109.6121550  26.1172130
 107.5561510 110.4596760  26.3244910 107.2616520 108.9747920  26.3080770
 114.5243170 109.6956520  29.1868870 113.8341490 109.5028720  29.8214960
 115.2675470 109.9791160  29.7193170 105.2515170 107.5350010  20.1502210
 104.9628220 108.1052870  20.8627190 105.9960930 107.0554460  20.5133440
 105.4385400 111.4770130  11.3604930 105.3560070 112.4200890  11.5019920
 105.0868460 111.3345040  10.4817280 116.8006140 113.5354960  22.0222790
 116.0687260 114.0441770  22.3712890 116.4030480 112.7184940  21.7211570
 113.2383530 110.2109160  20.4275280 113.2419590 109.7699110  19.5779820
 114.1334650 110.5326490  20.5347100 109.0885910 110.0935650  19.3869490
 108.7485960 110.5710880  20.1436540 108.3263230 109.6400770  19.0270590
 113.3003680 111.2121240  13.4182040 113.4216500 111.1707720  14.3667860
 112.9152190 112.0745390  13.2628770 117.2632050 108.9888640  21.4345730
 117.2804790 109.4397290  22.2787580 117.0147630 108.0894280  21.6479170
 112.3125180 113.5222380  12.8165340 111.7442080 113.0740630  12.1901250
 113.0214180 113.8815160  12.2830490 120.6902800 106.4020820  27.2732110
 121.0148570 105.6710480  27.7990090 120.7259310 106.0834460  26.3713100
 107.3894360 117.4234400  26.6932070 107.0049150 116.7828070  27.2915030
 107.7006550 118.1270520  27.2626800 113.5391500 114.2710940  22.1740690
 113.9061630 113.7969510  22.9202030 113.3496560 115.1452510  22.5149030
 106.4031990 109.0154630  18.3034160 106.1178910 108.6510300  19.1412780
 106.3410850 108.2835090  17.6897300 111.3290870 113.3119580  24.4924900
 111.0247940 114.1911560  24.7175260 112.2837330 113.3719370  24.5282340
 109.8572660 117.5180570  15.0891750 109.0834920 116.9778190  14.9290470
 110.5867290 116.9987180  14.7509510 120.6160640 116.5145930  20.8818140
 121.3359760 117.0101220  20.4914250 120.4142460 115.8363820  20.2372010
 116.0770580 107.9083890  15.0247530 115.2635190 107.4097060  14.9492840
 115.8832530 108.7482140  14.6083880 115.9979440 116.5854990  26.7687140
 115.9316750 115.6650660  26.5144730 115.3684580 116.6830430  27.4831780
 118.7918970 112.2803540  13.3209690 119.6798590 112.5920770  13.1461030
 118.7624060 111.4075790  12.9290270 109.9010060 117.1860950  18.7270560
 110.4188730 116.3829210  18.6727450 109.4494080 117.1240090  19.5687390
 114.7879560 118.4527230  13.9997860 115.1295260 119.1969460  13.5041180
 113.9592270 118.7658350  14.3622690 107.3854600 114.1522320  25.6396260
 107.0269540 114.8176170  26.2269600 107.0909160 113.3205870  26.0108880
 110.5867720 114.6106560  28.5235810 110.2867860 114.7563740  27.6263630
 111.3578960 114.0511850  28.4309200 115.9296170 119.4075560  26.5190940
 115.9440710 118.4756520  26.3009850 115.2221270 119.4935320  27.1580710
 121.0633240 113.5915380  12.7889550 120.9796960 114.0229600  11.9385990
 121.7827430 114.0513730  13.2216370 122.1407380 116.0482900  25.8659520
 121.4155570 116.6411680  25.6688910 122.6682840 116.0406440  25.0672890
 122.0920490 120.4457640  15.5171680 121.4496650 119.7913260  15.7915400
 121.7051150 120.8512730  14.7412350 117.6706970 117.7743070  19.3643370
 118.0230790 117.1771200  18.7044740 116.7869300 117.4487300  19.5351620
 113.7570250 118.5340760  16.7713780 114.4441380 119.0809970  17.1521370
 112.9702670 119.0781490  16.8063390 105.8962650 114.1513580  12.2630860
 106.7657500 114.4338380  12.5466780 105.4052970 114.9649450  12.1479670
 113.0597460 115.5386790  16.3839140 113.5160240 116.3492040  16.6099330
 112.7085670 115.2209930  17.2157630 115.3630070 121.0493130  23.6131440
 116.0072290 121.2552510  24.2904860 115.7259510 120.2881530  23.1602290
 108.9609240 105.8824440  16.8561660 108.8323870 105.8742340  17.8046580
 108.1371260 106.2207530  16.5052670 116.6362150 119.0525480  22.3308890
 117.2784380 118.3518640  22.4441060 117.1611500 119.8323920  22.1505780
 120.4817870 119.3374100  12.0548030 120.2555450 118.6204540  12.6472670
 120.0914070 119.0886540  11.2169780 118.4099770 119.8520380  25.5344950
 118.7456010 120.4387070  26.2122870 117.4900110 119.7213090  25.7642740
 106.2633900 123.3640960  12.8292490 106.6231540 123.9630300  12.1749760
 106.1226240 123.9100850  13.6027520 105.9603170 107.6415560  26.3168360
 105.2461690 107.8412480  26.9220970 106.3798210 106.8655130  26.6883160
 120.0634120 117.2546040  13.7162190 119.7755820 117.7158730  14.5040070
 120.8586290 116.7943810  13.9846410 106.2475760 121.6295820  27.3034890
 106.3566880 120.6890560  27.1630280 105.5956320 121.8950570  26.6548620
 114.2388350 119.9011710  28.7033010 113.9185220 119.1820950  29.2478700
 113.5646710 120.5766780  28.7769070 112.2802520 120.7472160  13.6466160
 112.2712620 121.4801850  13.0310670 111.3600880 120.5003740  13.7393120
 107.8809160 115.9687050  14.3912920 107.2737110 116.7085950  14.4008220
 108.3558510 116.0586410  13.5651120 117.4541950 110.1337870  24.0669810
 117.8222770 109.3133080  24.3949380 116.5940150 110.1939760  24.4825460
 120.8203980 109.0894810  14.8757370 120.1917140 109.1940480  14.1615600
 120.3255900 109.3091590  15.6651250 115.2662120 120.8100400  12.3091350
 115.3674100 120.6064390  11.3793330 114.3663860 120.5558680  12.5139130
 112.7888010 111.3680760  16.2915250 112.0804160 111.8367100  16.7328860
 113.0732490 110.7102770  16.9260440 114.4143940 112.7877460  24.2907780
 114.9129190 113.2623280  24.9559630 114.5566890 111.8640980  24.4977810
 116.8203440 108.0931420  17.7311040 116.6971220 108.1117550  16.7820550
 117.7688000 108.1410360  17.8509440 113.9080230 123.3286720  17.0039020
 114.1621730 123.2908110  16.0818390 112.9592710 123.2020050  16.9967270
 110.9923030 109.6765840  13.6665960 111.8413560 110.1135990  13.6006150
 110.6254300 109.9886100  14.4938020 121.6210800 109.0045420  25.1336170
 121.1184400 109.7450820  25.4729980 122.4367460 109.3929420  24.8172960
 119.9132810 114.2478600  18.5797530 118.9722950 114.2628830  18.7545220
 120.2276880 113.4614560  19.0257830 109.8914450 115.9298200  12.1401490
 110.6577720 115.8179560  12.7026920 109.9689140 115.2336170  11.4878260
 108.5861210 113.3623270  12.8234380 108.6664800 112.4150780  12.9351780
 109.4780960 113.6930150  12.9295040 121.9158390 121.4187450  20.2551790
 122.0405810 122.2418620  20.7275600 122.7823950 121.2078180  19.9075940
 109.3875920 123.5118660  19.9268920 110.1238400 122.9634120  20.1977490
 109.7716840 124.3774670  19.7874910 106.2721400 119.5792230  15.8010430
 105.3461180 119.8213370  15.7915840 106.7377830 120.4066490  15.6795180
 108.3934200 122.6964730  29.1154500 109.1946930 123.0176780  29.5289900
 107.8786020 122.3360310  29.8374410 112.4978230 122.6848970  11.7494490
 113.2906840 122.9737800  11.2976280 111.9782580 122.2541140  11.0706970
 117.2298830 118.8044600  29.0629910 116.6236990 118.8276200  28.3225660
 116.9252940 118.0727640  29.5997160 118.6599200 122.5324890  27.6739320
 119.6120950 122.4482910  27.6239560 118.5127420 123.1966600  28.3473110
 121.5508400 121.9119100  13.1731230 121.2649910 121.4984240  12.3585410
 121.3527950 122.8406810  13.0531750 106.1132010 115.1838190  28.0590550
 106.6171030 114.6045470  28.6306780 105.3739430 115.4678420  28.5966920
 113.0155630 117.9052380  11.6136840 112.9106270 117.2904730  12.3398220
 112.8479850 117.3818270  10.8299850 113.1669950 116.5909180  27.5926070
 112.4015620 117.1594180  27.5080740 113.3485910 116.2985390  26.6994300
 116.2558360 116.9672410  12.2178830 115.7068460 117.4141710  12.8621570
 116.8777620 116.4621660  12.7416500 120.3093300 118.3214510  28.1501090
 121.0502770 118.6590270  27.6468550 119.5465980 118.4906570  27.5970860
 108.1455090 113.3267780  28.9540620 108.1860430 113.0281650  29.8625850
 109.0000590 113.7275390  28.7948140 111.9233480 115.9263330  14.1144130
 112.3449900 115.7603200  14.9575520 112.0484320 115.1163560  13.6199270
 110.0860900 111.9059880  26.9215110 109.5557360 111.4150830  26.2938450
 110.7548970 112.3344080  26.3873040 114.4361120 114.9500940  11.3621230
 114.9566780 114.2349960  10.9962380 115.0829520 115.5886810  11.6621740
 118.9838960 116.3729340  26.6856300 119.3979980 116.5274420  27.5346720
 118.0489960 116.4984560  26.8482080 119.4561130 113.7125500  28.6895450
 120.0381900 112.9577820  28.6015930 119.6322900 114.2432940  27.9126930
 110.5733200 108.8722250  27.0012400 110.4790070 108.2543000  26.2763270
 109.9930590 109.5988540  26.7742310 113.3394640 107.4295490  24.0339790
 112.8911940 107.4519750  23.1885340 112.7059840 107.0314510  24.6310090
 113.7454190 116.3249820  24.6552230 114.1642300 117.1682550  24.4828470
 112.8262820 116.4621860  24.4259010 116.0818090 114.0566000  26.0390070
 116.2014300 113.4607140  26.7784910 116.9412090 114.0935690  25.6191370
 118.4205990 114.6103190  24.6152580 117.8941210 115.1345810  24.0117720
 118.7637330 115.2430580  25.2462310 110.8192380 111.9996560  11.0602290
 110.6181440 111.1363920  11.4215630 110.6484430 111.9129920  10.1223890
 111.5961610 122.6302830  25.7709960 111.0582700 123.3548890  25.4518660
 111.8495570 122.1533170  24.9807300 112.8486860 110.5987350  27.2965890
 113.4386550 110.2903200  27.9843710 112.0307100 110.1267100  27.4525790
 117.6680290 110.2153160  27.5298910 116.9795810 109.5534700  27.4648900
 118.3886310 109.7691430  27.9747370 118.2980690 106.8104790  13.5889170
 118.5782980 105.9672690  13.9448590 117.5246420 107.0427900  14.1027920
 109.6175180 109.0997180  11.0480170 109.9201080 109.1064610  10.1399320
 110.3569770 108.7495040  11.5447830 114.4523820 123.8654040  26.0296610
 114.3782520 124.7689180  26.3368980 113.5502660 123.5465940  26.0018680
 112.8360110 108.0431800  12.0336370 112.4882110 107.3655790  11.4538820
 113.0372880 107.5821310  12.8479760 115.0009150 123.0312550  13.6522970
 115.8959940 123.3697520  13.6741730 115.0326780 122.3091960  13.0247250
 108.6405310 118.4039600  11.8809970 109.0780180 118.9469270  12.5367550
 109.1253040 117.5786550  11.8906310 105.8551110 121.1928630  19.3330230
 106.1854120 120.3249690  19.1008870 106.2842110 121.3987150  20.1635190
 110.4513030 119.5237640  16.9932200 110.1508570 119.4002610  17.8936110
 110.3450520 118.6646230  16.5847930 106.3441320 122.0599220  22.0711860
 105.9072310 122.2400020  22.9036010 106.9119000 122.8173840  21.9293580
 121.9803500 121.5616220  26.3589170 121.3805490 121.6208780  25.6153090
 122.1097400 120.6221200  26.4886020 123.2204950 119.3034040  11.6958880
 122.3897910 119.3710690  12.1666110 123.3976780 120.1938160  11.3925740
 122.6761410 116.0481520  14.1993080 123.4380320 116.6178170  14.3052770
 122.6915780 115.4808720  14.9701390 106.1765750 114.5719450  18.4300740
 105.5214590 114.3031090  17.7860440 107.0143700 114.4623930  17.9802720
 123.6821380 116.9031620  19.0435010 124.0530210 116.1198940  18.6370980
 124.3223310 117.5920720  18.8652310 120.6655140 118.2868200  24.4565330
 119.8514980 118.7165360  24.7191120 121.0729340 118.8986610  23.8434380
 122.7280580 116.3415890  11.3565600 123.0029420 117.2494770  11.2284820
 122.5391320 116.2778420  12.2927590 119.1256190 109.3660740  12.6519230
 119.5441070 109.1791720  11.8115890 118.8192250 108.5139790  12.9622160
 122.6245920 114.2784880  16.3495030 122.2489520 113.5112810  15.9176320
 121.8949040 114.6607580  16.8369960 107.2141680 114.9572020  22.9704080
 107.5814720 114.8699420  23.8500100 106.6452500 114.1938570  22.8710940
 122.0145540 113.4256400  25.9834550 121.7831630 113.1969150  25.0832500
 122.2750090 114.3455950  25.9379440 106.7657680 111.8681110  26.8762500
 105.8713730 111.8347870  27.2156210 107.3055230 112.0667900  27.6413750
 120.4533610 108.6512830  28.7614250 121.3303790 108.6596230  29.1448250
 120.4654450 107.9143670  28.1506600 105.3903830 111.7818380  14.3726070
 104.4867910 112.0448580  14.1977730 105.8744450 112.0529550  13.5926030
 121.8996880 112.5042370  19.6502270 122.4234360 112.0105020  19.0192440
 122.4856300 112.6392730  20.3949840 122.0786600 112.5882240  23.1721820
 121.1289310 112.5545780  23.2866810 122.2599610 113.4982350  22.9371590
 107.9331040 110.8383920  12.2820450 108.6422740 110.4167140  11.7967730
 107.2170980 110.9059150  11.6503800 107.5805200 106.8923250  11.3223100
 108.3033330 107.4332190  11.6404320 107.8529720 106.6186670  10.4464640
 121.3896850 111.7615720  15.5894680 121.8855970 111.5286590  16.3743560
 121.1912920 110.9227560  15.1732320 107.2697390 106.1429440  21.2245720
 107.9173580 105.5926820  20.7840880 107.6899230 106.3972590  22.0461530
 122.8184010 110.3976670  18.1232360 122.7083290 110.2432710  19.0614630
 123.5791600 109.8697610  17.8807770 121.1649730 106.3370800  24.5815360
 121.8021950 106.9504940  24.9474550 121.3124620 106.3731460  23.6364590
 123.7074280 108.2284590  11.3638500 124.6323590 108.0965770  11.1556790
 123.6850070 108.3077410  12.3174950 123.7812770 108.9995250  13.9895210
 122.9864270 108.9340370  14.5188120 123.9856050 109.9345890  13.9780560
 120.7231190 123.0386800  17.9833600 121.3190260 122.7171370  17.3068020
 120.9809340 122.5658620  18.7746870 107.0229390 106.2985110  23.9671040
 106.6744210 106.7548930  24.7329220 106.6917090 105.4042240  24.0493470
 108.6293760 119.4704710  28.1324230 108.5863390 119.0997620  29.0138690
 108.7604770 120.4082280  28.2726050 112.3299790 121.0264300  23.7333950
 112.0891150 121.2938860  22.8464470 113.2702430 121.1970030  23.7884810
 114.5354210 107.4896990  27.4890460 114.4743100 108.0818820  28.2385870
 115.4754590 107.3822950  27.3440720 117.1728770 107.1467050  27.1282750
 117.7869180 107.4646340  26.4663830 117.7178330 106.6615640  27.7478610
 123.5903950 123.0458680  24.5344590 123.0962230 123.4427550  23.8171720
 122.9817240 122.4207890  24.9281870 108.4681790 122.4166960  25.2522010
 107.8742110 122.2851660  25.9912050 108.4605630 121.5805100  24.7864110
 117.9136810 105.7099190  23.4552040 117.0396650 106.0434300  23.2524970
 117.8047560 105.2372370  24.2803910 118.8208790 107.9170060  24.8393760
 118.4922150 107.1021820  24.4595490 119.7691090 107.8739870  24.7159450
 121.2743400 123.6882100  21.8131330 120.8146370 124.4397910  21.4389350
 120.6455860 122.9688570  21.7546130 108.0994020 119.7825340  24.2030050
 107.3728080 119.1630630  24.1356000 108.1603170 120.1765950  23.3328130
 111.7039120 121.9970340  20.9879460 112.2204140 121.3857700  20.4627720
 112.3536500 122.4999120  21.4790470 114.4434620 122.8878830  21.8148440
 114.7312430 122.6333130  20.9381450 114.9557840 122.3356190  22.4054010
 115.6611630 106.6269030  22.3944950 114.8783420 107.1014530  22.6741710
 115.3674560 105.7223860  22.2858130 120.2132700 107.3292130  20.4394040
 120.6540790 107.2737230  19.5915640 119.9440290 108.2450140  20.5104220
 122.0771270 106.9607370  18.4502860 122.0159670 106.0168590  18.3033880
 122.8563300 107.0687460  18.9956320 106.3824020 123.0999730  17.4126810
 106.2146060 122.4670410  18.1108700 105.5158530 123.3059130  17.0621000
 107.0052040 106.9316510  14.9158670 107.7631400 107.0445390  14.3422700
 106.5429210 107.7685710  14.8702100 113.5465850 109.0455780  17.9060980
 112.7340360 108.6712670  17.5656860 114.0507490 108.2900860  18.2082170
 118.0490830 105.7098230  19.1444050 118.6520200 106.2818440  19.6192570
 117.3083820 106.2737670  18.9217950 121.1925430 106.1119790  14.4184330
 121.3876060 107.0103240  14.6851760 120.4055300 105.8806870  14.9117280
 107.9886720 121.7932960  14.8576950 107.4634340 122.1740990  14.1538910
 107.9131300 122.4183730  15.5786660 109.3777190 107.4580560  13.4560640
 109.9069950 106.6710360  13.3268590 110.0105510 108.1371750  13.6896170
 111.5715030 107.1955700  16.5106030 110.9417770 106.4943010  16.6776160
 111.0320170 107.9559830  16.2939190 114.5106980 123.8094930  29.1816640
 115.4374290 123.5739200  29.2252600 114.4957410 124.6366930  28.7002670
 122.7452040 123.3520500  16.1790890 122.9204230 122.6658240  15.5351810
 122.0473610 123.8767550  15.7867560 111.6970590 106.4739680  28.9458520
 111.4154860 106.9773280  28.1819340 112.0790290 105.6761430  28.5800650
 110.5879690 123.7415340  13.7326200 111.3198510 123.4574620  13.1850090
 110.8473360 123.5028620  14.6225580 109.7494480 119.8580070  13.7372530
 109.1203360 120.3265170  14.2858360 109.8642310 119.0129290  14.1718720
 118.2986050 105.8893260  29.5238990 118.1851500 106.2087870  30.4190510
 119.1155790 106.2905770  29.2276270 121.0784540 123.0364790  29.0057680
 121.8709860 122.5414020  28.7983640 121.3717690 123.7154930  29.6133290
 115.3362240 115.6864750   1.7683000 114.5604340 115.2065190   2.0581570
 115.9875170 115.0070400   1.5939160 109.3528070 115.9984560   2.6458760
 108.5212950 115.7433270   3.0455270 109.9609050 116.0695330   3.3816680
 109.3329330 120.0324650   2.8416780 109.6357370 119.1422390   2.6627000
 110.0772920 120.5894870   2.6139030 114.7771230 118.3621940   1.7753160
 114.7079510 117.4211880   1.6142290 115.5391090 118.4523350   2.3475730
 106.9677900 108.9676460   4.1009780 106.7880740 108.0702210   4.3812540
 106.5657980 109.5148330   4.7756730 107.5864570 111.4636960   2.7092120
 108.2674680 111.7275330   3.3279520 107.2712620 110.6237830   3.0430130
 111.7789140 112.5104320   1.7964710 112.2867360 113.0085290   2.4369730
 112.3102380 111.7339520   1.6204070 123.8800070 110.6809510   5.4994060
 123.1752240 111.0691220   4.9809170 124.1457990 111.3759800   6.1014990
 110.0625240 107.1502880   6.0628130 110.0643680 107.6675270   5.2574030
 109.2329550 106.6733060   6.0398060 111.3128090 116.7898060   4.2401630
 110.9797470 117.4166980   4.8822700 111.4894770 117.3159940   3.4603300
 109.7440570 108.8612840   4.0698580 110.0857380 109.7054890   3.7752450
 108.8056380 109.0096580   4.1863920 110.5247190 118.7578860   6.0550810
 111.1421190 119.4329940   5.7735260 109.6640310 119.1666840   5.9638310
 121.4424780 120.2218270   3.9705450 120.7588300 120.8917380   3.9622120
 121.9819070 120.4198920   3.2050310 122.8948920 110.0497930   2.0987180
 121.9473830 110.0836910   2.2302610 123.2198910 110.8636880   2.4836540
 118.9783520 122.0662400   2.6850630 118.9910680 121.6624690   1.8172890
 118.4258740 122.8409690   2.5812060 118.3768960 116.9692240   4.0133240
 118.7937750 116.7552350   3.1786700 119.1008780 117.2265030   4.5841860
 122.3231060 115.3679460   4.1049480 121.4949690 115.4372550   3.6299610
 122.9181540 115.9533770   3.6365310 119.2873070 112.1548780   5.0504350
 118.8744250 112.9802490   5.3044340 118.5549020 111.5693820   4.8580710
 110.1334480 111.7151890   3.6922060 110.6849070 111.8247230   2.9175310
 110.6477990 112.0889490   4.4077290 119.9773170 122.2008110   5.7385330
 119.5003730 123.0080300   5.5457940 119.2934960 121.5486440   5.8911540
 110.9805990 118.3657930   8.7270030 110.0834520 118.5897900   8.9743430
 111.0058860 118.4892870   7.7781430 109.8077210 115.2371250   7.3027400
 109.6684980 116.1094050   7.6714800 108.9258570 114.8944060   7.1575340
 111.6057560 121.1792950   9.5112550 111.5772990 121.5835900   8.6440980
 111.4422530 120.2503310   9.3484150 123.5572380 121.9620050  10.8076720
 124.0332100 122.4402940  11.4865800 124.1779540 121.8937540  10.0822220
 105.7595860 117.0068800   3.2198310 105.8376280 117.1417570   2.2754030
 106.3737540 116.2984690   3.4126430 122.9605630 119.1532900   7.9676730
 123.0868690 118.9144780   7.0493910 123.0027010 118.3217440   8.4398810
 116.8222370 122.8560900   6.5371540 117.3367040 122.7668910   7.3393970
 115.9791450 123.2020600   6.8299450 122.8129640 111.2065360   8.9326470
 122.1973910 111.7145030   8.4041930 122.4926060 110.3063690   8.8752410
 105.8155380 118.0482970   5.7592770 105.9786420 117.5788330   4.9412140
 106.2807830 117.5406530   6.4241610 114.8743960 110.0457250   6.3988660
 114.4123330 110.2540270   7.2108600 114.4722070 109.2316600   6.0959330
 119.8748470 111.2666200   7.5285320 119.0242060 110.9671950   7.8494390
 119.7150260 111.5108210   6.6169140 116.9698180 112.7667950   9.6284110
 117.2951590 111.9331700   9.2886340 117.7578510 113.2896470   9.7762440
 112.6250050 107.7236060   2.6542940 112.9222380 108.6298890   2.5734960
 113.1735610 107.2354840   2.0402510 112.8187580 113.2007880   9.1894860
 112.7231180 112.2602610   9.0395260 113.6619560 113.4222950   8.7942930
 107.9498120 109.6121550   7.3428640 107.5561510 110.4596760   7.5501420
 107.2616520 108.9747920   7.5337280 114.5243170 109.6956520  10.4125380
 113.8341490 109.5028720  11.0471470 115.2675470 109.9791160  10.9449680
 116.8006140 113.5354960   3.2479300 116.0687260 114.0441770   3.5969400
 116.4030480 112.7184940   2.9468080 117.2632050 108.9888640   2.6602240
 117.2804790 109.4397290   3.5044090 117.0147630 108.0894280   2.8735680
 120.6902800 106.4020820   8.4988620 121.0148570 105.6710480   9.0246600
 120.7259310 106.0834460   7.5969610 107.3894360 117.4234400   7.9188580
 107.0049150 116.7828070   8.5171540 107.7006550 118.1270520   8.4883310
 113.5391500 114.2710940   3.3997200 113.9061630 113.7969510   4.1458540
 113.3496560 115.1452510   3.7405540 111.3290870 113.3119580   5.7181410
 111.0247940 114.1911560   5.9431770 112.2837330 113.3719370   5.7538850
 120.6160640 116.5145930   2.1074650 121.3359760 117.0101220   1.7170760
 120.4142460 115.8363820   1.4628520 115.9979440 116.5854990   7.9943650
 115.9316750 115.6650660   7.7401240 115.3684580 116.6830430   8.7088290
 107.3854600 114.1522320   6.8652770 107.0269540 114.8176170   7.4526110
 107.0909160 113.3205870   7.2365390 110.5867720 114.6106560   9.7492320
 110.2867860 114.7563740   8.8520140 111.3578960 114.0511850   9.6565710
 115.9296170 119.4075560   7.7447450 115.9440710 118.4756520   7.5266360
 115.2221270 119.4935320   8.3837220 122.1407380 116.0482900   7.0916030
 121.4155570 116.6411680   6.8945420 122.6682840 116.0406440   6.2929400
 115.3630070 121.0493130   4.8387950 116.0072290 121.2552510   5.5161370
 115.7259510 120.2881530   4.3858800 116.6362150 119.0525480   3.5565400
 117.2784380 118.3518640   3.6697570 117.1611500 119.8323920   3.3762290
 118.4099770 119.8520380   6.7601460 118.7456010 120.4387070   7.4379380
 117.4900110 119.7213090   6.9899250 105.9603170 107.6415560   7.5424870
 105.2461690 107.8412480   8.1477480 106.3798210 106.8655130   7.9139670
 106.2475760 121.6295820   8.5291400 106.3566880 120.6890560   8.3886790
 105.5956320 121.8950570   7.8805130 114.2388350 119.9011710   9.9289520
 113.9185220 119.1820950  10.4735210 113.5646710 120.5766780  10.0025580
 117.4541950 110.1337870   5.2926320 117.8222770 109.3133080   5.6205890
 116.5940150 110.1939760   5.7081970 114.4143940 112.7877460   5.5164290
 114.9129190 113.2623280   6.1816140 114.5566890 111.8640980   5.7234320
 121.6210800 109.0045420   6.3592680 121.1184400 109.7450820   6.6986490
 122.4367460 109.3929420   6.0429470 108.3934200 122.6964730  10.3411010
 109.1946930 123.0176780  10.7546410 107.8786020 122.3360310  11.0630920
 117.2298830 118.8044600  10.2886420 116.6236990 118.8276200   9.5482170
 116.9252940 118.0727640  10.8253670 118.6599200 122.5324890   8.8995830
 119.6120950 122.4482910   8.8496070 118.5127420 123.1966600   9.5729620
 106.1132010 115.1838190   9.2847060 106.6171030 114.6045470   9.8563290
 105.3739430 115.4678420   9.8223430 113.1669950 116.5909180   8.8182580
 112.4015620 117.1594180   8.7337250 113.3485910 116.2985390   7.9250810
 120.3093300 118.3214510   9.3757600 121.0502770 118.6590270   8.8725060
 119.5465980 118.4906570   8.8227370 108.1455090 113.3267780  10.1797130
 108.1860430 113.0281650  11.0882360 109.0000590 113.7275390  10.0204650
 110.0860900 111.9059880   8.1471620 109.5557360 111.4150830   7.5194960
 110.7548970 112.3344080   7.6129550 118.9838960 116.3729340   7.9112810
 119.3979980 116.5274420   8.7603230 118.0489960 116.4984560   8.0738590
 119.4561130 113.7125500   9.9151960 120.0381900 112.9577820   9.8272440
 119.6322900 114.2432940   9.1383440 110.5733200 108.8722250   8.2268910
 110.4790070 108.2543000   7.5019780 109.9930590 109.5988540   7.9998820
 113.3394640 107.4295490   5.2596300 112.8911940 107.4519750   4.4141850
 112.7059840 107.0314510   5.8566600 113.7454190 116.3249820   5.8808740
 114.1642300 117.1682550   5.7084980 112.8262820 116.4621860   5.6515520
 116.0818090 114.0566000   7.2646580 116.2014300 113.4607140   8.0041420
 116.9412090 114.0935690   6.8447880 118.4205990 114.6103190   5.8409090
 117.8941210 115.1345810   5.2374230 118.7637330 115.2430580   6.4718820
 111.5961610 122.6302830   6.9966470 111.0582700 123.3548890   6.6775170
 111.8495570 122.1533170   6.2063810 112.8486860 110.5987350   8.5222400
 113.4386550 110.2903200   9.2100220 112.0307100 110.1267100   8.6782300
 117.6680290 110.2153160   8.7555420 116.9795810 109.5534700   8.6905410
 118.3886310 109.7691430   9.2003880 114.4523820 123.8654040   7.2553120
 114.3782520 124.7689180   7.5625490 113.5502660 123.5465940   7.2275190
 106.3441320 122.0599220   3.2968370 105.9072310 122.2400020   4.1292520
 106.9119000 122.8173840   3.1550090 121.9803500 121.5616220   7.5845680
 121.3805490 121.6208780   6.8409600 122.1097400 120.6221200   7.7142530
 120.6655140 118.2868200   5.6821840 119.8514980 118.7165360   5.9447630
 121.0729340 118.8986610   5.0690890 107.2141680 114.9572020   4.1960590
 107.5814720 114.8699420   5.0756610 106.6452500 114.1938570   4.0967450
 122.0145540 113.4256400   7.2091060 121.7831630 113.1969150   6.3089010
 122.2750090 114.3455950   7.1635950 106.7657680 111.8681110   8.1019010
 105.8713730 111.8347870   8.4412720 107.3055230 112.0667900   8.8670260
 120.4533610 108.6512830   9.9870760 121.3303790 108.6596230  10.3704760
 120.4654450 107.9143670   9.3763110 122.0786600 112.5882240   4.3978330
 121.1289310 112.5545780   4.5123320 122.2599610 113.4982350   4.1628100
 107.2697390 106.1429440   2.4502230 107.9173580 105.5926820   2.0097390
 107.6899230 106.3972590   3.2718040 121.1649730 106.3370800   5.8071870
 121.8021950 106.9504940   6.1731060 121.3124620 106.3731460   4.8621100
 107.0229390 106.2985110   5.1927550 106.6744210 106.7548930   5.9585730
 106.6917090 105.4042240   5.2749980 108.6293760 119.4704710   9.3580740
 108.5863390 119.0997620  10.2395200 108.7604770 120.4082280   9.4982560
 112.3299790 121.0264300   4.9590460 112.0891150 121.2938860   4.0720980
 113.2702430 121.1970030   5.0141320 114.5354210 107.4896990   8.7146970
 114.4743100 108.0818820   9.4642380 115.4754590 107.3822950   8.5697230
 117.1728770 107.1467050   8.3539260 117.7869180 107.4646340   7.6920340
 117.7178330 106.6615640   8.9735120 123.5903950 123.0458680   5.7601100
 123.0962230 123.4427550   5.0428230 122.9817240 122.4207890   6.1538380
 107.6950030 105.8261310   8.4678320 108.2433020 105.6449360   7.7044430
 107.7605340 105.0355420   9.0034630 108.4681790 122.4166960   6.4778520
 107.8742110 122.2851660   7.2168560 108.4605630 121.5805100   6.0120620
 117.9136810 105.7099190   4.6808550 117.0396650 106.0434300   4.4781480
 117.8047560 105.2372370   5.5060420 118.8208790 107.9170060   6.0650270
 118.4922150 107.1021820   5.6852000 119.7691090 107.8739870   5.9415960
 121.2743400 123.6882100   3.0387840 120.8146370 124.4397910   2.6645860
 120.6455860 122.9688570   2.9802640 108.0994020 119.7825340   5.4286560
 107.3728080 119.1630630   5.3612510 108.1603170 120.1765950   4.5584640
 111.7039120 121.9970340   2.2135970 112.2204140 121.3857700   1.6884230
 112.3536500 122.4999120   2.7046980 114.4434620 122.8878830   3.0404950
 114.7312430 122.6333130   2.1637960 114.9557840 122.3356190   3.6310520
 115.6611630 106.6269030   3.6201460 114.8783420 107.1014530   3.8998220
 115.3674560 105.7223860   3.5114640 114.5106980 123.8094930  10.4073150
 115.4374290 123.5739200  10.4509110 114.4957410 124.6366930   9.9259180
 111.6970590 106.4739680  10.1715030 111.4154860 106.9773280   9.4075850
 112.0790290 105.6761430   9.8057160 118.2986050 105.8893260  10.7495500
 118.1851500 106.2087870  11.6447020 119.1155790 106.2905770  10.4532780
 121.0784540 123.0364790  10.2314190 121.8709860 122.5414020  10.0240150
 121.3717690 123.7154930  10.8389800 117.2044200  95.1342240 150.0821650
 117.1238250  94.2196850 149.8113360 116.7908620  95.6309310 149.3761360
 119.3569670 101.3181450 150.7430050 118.8951200 100.5468690 151.0717220
 120.1695220 101.3447520 151.2482500 107.7620020  92.1842960 146.6249070
 106.8736720  92.5258930 146.5228950 108.0461210  91.9843280 145.7329900
 115.5832980 103.6039460 150.3634040 114.9644420 104.0596960 149.7928480
 116.4384760 103.7590920 149.9623740 109.9381410  90.7674460 147.6587450
 110.0448160  91.6678190 147.9656210 109.0273770  90.7192430 147.3682100
 119.5900520  89.8899270 149.1298350 120.4110140  89.3995840 149.1723830
 119.6234600  90.4796930 149.8830190 116.4496330  98.4878700 147.7565950
 115.8313600  98.9528150 147.1928670 116.9619580  99.1806180 148.1735460
 105.8179530  99.1735230 145.1305580 105.4407510  99.6622330 144.3990480
 106.0752600  99.8460510 145.7612110 113.4268460  87.5751620 150.5891090
 113.7343440  87.0198510 149.8726590 112.4969160  87.7096080 150.4064080
 120.2728940 100.0135130 147.9688720 120.1625270  99.0709460 148.0938140
 120.2697190 100.3750770 148.8551480 115.8149220  95.6400450 147.3251210
 114.8878500  95.5737830 147.5539680 115.9674040  96.5780580 147.2106450
 115.8018300  91.9117450 144.3218370 114.8621970  92.0731410 144.4070830
 116.1201560  92.6303130 143.7754360 119.8446510  97.2020750 147.8286460
 119.2258930  96.8640300 147.1812760 119.8270960  96.5580510 148.5365650
 111.4205860  96.1665190 150.1070940 111.0162860  95.4542440 149.6116840
 111.5068980  95.8218430 150.9958980 118.0211210  96.4407560 144.8359210
 118.4604490  95.6029990 144.6897030 118.7339630  97.0736960 144.9223350
 116.1306590 101.3803630 148.8040450 116.5702500 102.1227960 148.3895840
 116.0693480 101.6230200 149.7279410 121.6028350  87.6950370 143.1500250
 121.2901010  87.7877200 144.0499320 122.3640820  88.2731400 143.0997680
 108.1210490  95.0610170 147.6077590 108.0008090  95.7872260 146.9958860
 107.8111380  94.2913080 147.1305500 107.0043490  99.9325500 149.8252410
 106.5971570 100.0740090 148.9706010 107.8956500  99.6485660 149.6223620
 118.7976770 104.3672750 146.1603460 118.6377910 104.0775690 147.0585290
 118.6323480 103.5912880 145.6248690 111.2765150 104.1471280 147.9375080
 111.1007630 103.2306820 147.7242880 110.4220890 104.5058570 148.1772880
 118.5002900 101.8760310 144.7201460 117.8068060 101.8737600 144.0603740
 119.2425760 101.4519630 144.2895630 118.0652830 103.5023020 148.7949950
 118.5209780 102.7212400 149.1088570 118.4045350 104.2129840 149.3391130
 110.5874150  88.4045240 150.9901260 110.1442300  89.1854780 150.6585780
 111.1459140  88.7275130 151.6972200 113.7032970  88.0255940 145.8707090
 113.0787150  88.0215810 146.5960400 113.6163090  87.1586900 145.4743060
 110.3788370  93.5278810 148.7182510 110.1529290  93.3115980 149.6229130
 109.5980900  93.9607270 148.3728480 117.6086130  93.5342180 147.3173160
 117.0095020  94.2577980 147.1336780 118.1565740  93.4718960 146.5349610
 116.2151000  92.1705720 149.3476440 116.6080570  92.4877920 148.5345130
 116.5767850  91.2917600 149.4620960 105.4385400  92.7026640 142.7809360
 105.3560070  93.6457400 142.9224350 105.0868460  92.5601550 141.9021710
 109.0885910  91.3192160 150.8073920 108.7485960  91.7967390 151.5640970
 108.3263230  90.8657280 150.4475020 113.3003680  92.4377750 144.8386470
 113.4216500  92.3964230 145.7872290 112.9152190  93.3001900 144.6833200
 112.3125180  94.7478890 144.2369770 111.7442080  94.2997140 143.6105680
 113.0214180  95.1071670 143.7034920 106.4031990  90.2411140 149.7238590
 106.1178910  89.8766810 150.5617210 106.3410850  89.5091600 149.1101730
 109.8572660  98.7437080 146.5096180 109.0834920  98.2034700 146.3494900
 110.5867290  98.2243690 146.1713940 116.0770580  89.1340400 146.4451960
 115.2635190  88.6353570 146.3697270 115.8832530  89.9738650 146.0288310
 118.7918970  93.5060050 144.7414120 119.6798590  93.8177280 144.5665460
 118.7624060  92.6332300 144.3494700 109.9010060  98.4117460 150.1474990
 110.4188730  97.6085720 150.0931880 109.4494080  98.3496600 150.9891820
 114.7879560  99.6783740 145.4202290 115.1295260 100.4225970 144.9245610
 113.9592270  99.9914860 145.7827120 121.0633240  94.8171890 144.2093980
 120.9796960  95.2486110 143.3590420 121.7827430  95.2770240 144.6420800
 122.0920490 101.6714150 146.9376110 121.4496650 101.0169770 147.2119830
 121.7051150 102.0769240 146.1616780 117.6706970  98.9999580 150.7847800
 118.0230790  98.4027710 150.1249170 116.7869300  98.6743810 150.9556050
 113.7570250  99.7597270 148.1918210 114.4441380 100.3066480 148.5725800
 112.9702670 100.3038000 148.2267820 105.8962650  95.3770090 143.6835290
 106.7657500  95.6594890 143.9671210 105.4052970  96.1905960 143.5684100
 113.0597460  96.7643300 147.8043570 113.5160240  97.5748550 148.0303760
 112.7085670  96.4466440 148.6362060 108.9609240  87.1080950 148.2766090
 108.8323870  87.0998850 149.2251010 108.1371260  87.4464040 147.9257100
 120.4817870 100.5630610 143.4752460 120.2555450  99.8461050 144.0677100
 120.0914070 100.3143050 142.6374210 106.2633900 104.5897470 144.2496920
 106.6231540 105.1886810 143.5954190 106.1226240 105.1357360 145.0231950
 120.0634120  98.4802550 145.1366620 119.7755820  98.9415240 145.9244500
 120.8586290  98.0200320 145.4050840 112.2802520 101.9728670 145.0670590
 112.2712620 102.7058360 144.4515100 111.3600880 101.7260250 145.1597550
 107.8809160  97.1943560 145.8117350 107.2737110  97.9342460 145.8212650
 108.3558510  97.2842920 144.9855550 120.8203980  90.3151320 146.2961800
 120.1917140  90.4196990 145.5820030 120.3255900  90.5348100 147.0855680
 115.2662120 102.0356910 143.7295780 115.3674100 101.8320900 142.7997760
 114.3663860 101.7815190 143.9343560 112.7888010  92.5937270 147.7119680
 112.0804160  93.0623610 148.1533290 113.0732490  91.9359280 148.3464870
 116.8203440  89.3187930 149.1515470 116.6971220  89.3374060 148.2024980
 117.7688000  89.3666870 149.2713870 113.9080230 104.5543230 148.4243450
 114.1621730 104.5164620 147.5022820 112.9592710 104.4276560 148.4171700
 110.9923030  90.9022350 145.0870390 111.8413560  91.3392500 145.0210580
 110.6254300  91.2142610 145.9142450 119.9132810  95.4735110 150.0001960
 118.9722950  95.4885340 150.1749650 120.2276880  94.6871070 150.4462260
 109.8914450  97.1554710 143.5605920 110.6577720  97.0436070 144.1231350
 109.9689140  96.4592680 142.9082690 108.5861210  94.5879780 144.2438810
 108.6664800  93.6407290 144.3556210 109.4780960  94.9186660 144.3499470
 109.3875920 104.7375170 151.3473350 110.1238400 104.1890630 151.6181920
 109.7716840 105.6031180 151.2079340 106.2721400 100.8048740 147.2214860
 105.3461180 101.0469880 147.2120270 106.7377830 101.6323000 147.0999610
 112.4978230 103.9105480 143.1698920 113.2906840 104.1994310 142.7180710
 111.9782580 103.4797650 142.4911400 121.5508400 103.1375610 144.5935660
 121.2649910 102.7240750 143.7789840 121.3527950 104.0663320 144.4736180
 113.0155630  99.1308890 143.0341270 112.9106270  98.5161240 143.7602650
 112.8479850  98.6074780 142.2504280 116.2558360  98.1928920 143.6383260
 115.7068460  98.6398220 144.2826000 116.8777620  97.6878170 144.1620930
 111.9233480  97.1519840 145.5348560 112.3449900  96.9859710 146.3779950
 112.0484320  96.3420070 145.0403700 114.4361120  96.1757450 142.7825660
 114.9566780  95.4606470 142.4166810 115.0829520  96.8143320 143.0826170
 110.8192380  93.2253070 142.4806720 110.6181440  92.3620430 142.8420060
 110.6484430  93.1386430 141.5428320 118.2980690  88.0361300 145.0093600
 118.5782980  87.1929200 145.3653020 117.5246420  88.2684410 145.5232350
 109.6175180  90.3253690 142.4684600 109.9201080  90.3321120 141.5603750
 110.3569770  89.9751550 142.9652260 112.8360110  89.2688310 143.4540800
 112.4882110  88.5912300 142.8743250 113.0372880  88.8077820 144.2684190
 115.0009150 104.2569060 145.0727400 115.8959940 104.5954030 145.0946160
 115.0326780 103.5348470 144.4451680 108.6405310  99.6296110 143.3014400
 109.0780180 100.1725780 143.9571980 109.1253040  98.8043060 143.3110740
 105.8551110 102.4185140 150.7534660 106.1854120 101.5506200 150.5213300
 106.2842110 102.6243660 151.5839620 110.4513030 100.7494150 148.4136630
 110.1508570 100.6259120 149.3140540 110.3450520  99.8902740 148.0052360
 123.2204950 100.5290550 143.1163310 122.3897910 100.5967200 143.5870540
 123.3976780 101.4194670 142.8130170 122.6761410  97.2738030 145.6197510
 123.4380320  97.8434680 145.7257200 122.6915780  96.7065230 146.3905820
 106.1765750  95.7975960 149.8505170 105.5214590  95.5287600 149.2064870
 107.0143700  95.6880440 149.4007150 123.6821380  98.1288130 150.4639440
 124.0530210  97.3455450 150.0575410 124.3223310  98.8177230 150.2856740
 122.7280580  97.5672400 142.7770030 123.0029420  98.4751280 142.6489250
 122.5391320  97.5034930 143.7132020 119.1256190  90.5917250 144.0723660
 119.5441070  90.4048230 143.2320320 118.8192250  89.7396300 144.3826590
 122.6245920  95.5041390 147.7699460 122.2489520  94.7369320 147.3380750
 121.8949040  95.8864090 148.2574390 105.3903830  93.0074890 145.7930500
 104.4867910  93.2705090 145.6182160 105.8744450  93.2786060 145.0130460
 107.9331040  92.0640430 143.7024880 108.6422740  91.6423650 143.2172160
 107.2170980  92.1315660 143.0708230 107.5805200  88.1179760 142.7427530
 108.3033330  88.6588700 143.0608750 107.8529720  87.8443180 141.8669070
 121.3896850  92.9872230 147.0099110 121.8855970  92.7543100 147.7947990
 121.1912920  92.1484070 146.5936750 122.8184010  91.6233180 149.5436790
 122.7083290  91.4689220 150.4819060 123.5791600  91.0954120 149.3012200
 123.7074280  89.4541100 142.7842930 124.6323590  89.3222280 142.5761220
 123.6850070  89.5333920 143.7379380 123.7812770  90.2251760 145.4099640
 122.9864270  90.1596880 145.9392550 123.9856050  91.1602400 145.3984990
 120.7231190 104.2643310 149.4038030 121.3190260 103.9427880 148.7272450
 120.9809340 103.7915130 150.1951300 122.0771270  88.1863880 149.8707290
 122.0159670  87.2425100 149.7238310 122.8563300  88.2943970 150.4160750
 106.3824020 104.3256240 148.8331240 106.2146060 103.6926920 149.5313130
 105.5158530 104.5315640 148.4825430 107.0052040  88.1573020 146.3363100
 107.7631400  88.2701900 145.7627130 106.5429210  88.9942220 146.2906530
 113.5465850  90.2712290 149.3265410 112.7340360  89.8969180 148.9861290
 114.0507490  89.5157370 149.6286600 118.0490830  86.9354740 150.5648480
 118.6520200  87.5074950 151.0397000 117.3083820  87.4994180 150.3422380
 121.1925430  87.3376300 145.8388760 121.3876060  88.2359750 146.1056190
 120.4055300  87.1063380 146.3321710 107.9886720 103.0189470 146.2781380
 107.4634340 103.3997500 145.5743340 107.9131300 103.6440240 146.9991090
 109.3777190  88.6837070 144.8765070 109.9069950  87.8966870 144.7473020
 110.0105510  89.3628260 145.1100600 111.5715030  88.4212210 147.9310460
 110.9417770  87.7199520 148.0980590 111.0320170  89.1816340 147.7143620
 122.7452040 104.5777010 147.5995320 122.9204230 103.8914750 146.9556240
 122.0473610 105.1024060 147.2071990 110.5879690 104.9671850 145.1530630
 111.3198510 104.6831130 144.6054520 110.8473360 104.7285130 146.0430010
 109.7494480 101.0836580 145.1576960 109.1203360 101.5521680 145.7062790
 109.8642310 100.2385800 145.5923150 117.2044200  95.1342240 131.3078160
 117.1238250  94.2196850 131.0369870 116.7908620  95.6309310 130.6017870
 115.3362240  96.9121260 133.1887430 114.5604340  96.4321700 133.4786000
 115.9875170  96.2326910 133.0143590 109.3528070  97.2241070 134.0663190
 108.5212950  96.9689780 134.4659700 109.9609050  97.2951840 134.8021110
 119.3569670 101.3181450 131.9686560 118.8951200 100.5468690 132.2973730
 120.1695220 101.3447520 132.4739010 109.3329330 101.2581160 134.2621210
 109.6357370 100.3678900 134.0831430 110.0772920 101.8151380 134.0343460
 107.7620020  92.1842960 127.8505580 106.8736720  92.5258930 127.7485460
 108.0461210  91.9843280 126.9586410 105.7253030  94.7848610 133.7345280
 106.2969140  94.0170810 133.7348920 105.7254570  95.0837370 132.8251890
 115.5832980 103.6039460 131.5890550 114.9644420 104.0596960 131.0184990
 116.4384760 103.7590920 131.1880250 114.7771230  99.5878450 133.1957590
 114.7079510  98.6468390 133.0346720 115.5391090  99.6779860 133.7680160
 106.9677900  90.1932970 135.5214210 106.7880740  89.2958720 135.8016970
 106.5657980  90.7404840 136.1961160 115.8076400  92.3948830 133.4226520
 116.1841220  91.5220710 133.3100190 115.7095910  92.7307530 132.5316960
 109.9381410  90.7674460 128.8843960 110.0448160  91.6678190 129.1912720
 109.0273770  90.7192430 128.5938610 119.5900520  89.8899270 130.3554860
 120.4110140  89.3995840 130.3980340 119.6234600  90.4796930 131.1086700
 107.5864570  92.6893470 134.1296550 108.2674680  92.9531840 134.7483950
 107.2712620  91.8494340 134.4634560 111.7789140  93.7360830 133.2169140
 112.2867360  94.2341800 133.8574160 112.3102380  92.9596030 133.0408500
 123.8800070  91.9066020 136.9198490 123.1752240  92.2947730 136.4013600
 124.1457990  92.6016310 137.5219420 110.0625240  88.3759390 137.4832560
 110.0643680  88.8931780 136.6778460 109.2329550  87.8989570 137.4602490
 116.4496330  98.4878700 128.9822460 115.8313600  98.9528150 128.4185180
 116.9619580  99.1806180 129.3991970 111.3128090  98.0154570 135.6606060
 110.9797470  98.6423490 136.3027130 111.4894770  98.5416450 134.8807730
 119.8262000  91.8299650 133.1282400 119.1217570  92.1184540 133.7085510
 120.1874160  92.6399760 132.7681960 109.7440570  90.0869350 135.4903010
 110.0857380  90.9311400 135.1956880 108.8056380  90.2353090 135.6068350
 110.5247190  99.9835370 137.4755240 111.1421190 100.6586450 137.1939690
 109.6640310 100.3923350 137.3842740 121.4424780 101.4474780 135.3909880
 120.7588300 102.1173890 135.3826550 121.9819070 101.6455430 134.6254740
 122.8948920  91.2754440 133.5191610 121.9473830  91.3093420 133.6507040
 123.2198910  92.0893390 133.9040970 113.4268460  87.5751620 131.8147600
 113.7343440  87.0198510 131.0983100 112.4969160  87.7096080 131.6320590
 118.9783520 103.2918910 134.1055060 118.9910680 102.8881200 133.2377320
 118.4258740 104.0666200 134.0016490 120.2728940 100.0135130 129.1945230
 120.1625270  99.0709460 129.3194650 120.2697190 100.3750770 130.0807990
 118.3768960  98.1948750 135.4337670 118.7937750  97.9808860 134.5991130
 119.1008780  98.4521540 136.0046290 115.8149220  95.6400450 128.5507720
 114.8878500  95.5737830 128.7796190 115.9674040  96.5780580 128.4362960
 115.8018300  91.9117450 125.5474880 114.8621970  92.0731410 125.6327340
 116.1201560  92.6303130 125.0010870 122.3231060  96.5935970 135.5253910
 121.4949690  96.6629060 135.0504040 122.9181540  97.1790280 135.0569740
 119.8446510  97.2020750 129.0542970 119.2258930  96.8640300 128.4069270
 119.8270960  96.5580510 129.7622160 119.2873070  93.3805290 136.4708780
 118.8744250  94.2059000 136.7248770 118.5549020  92.7950330 136.2785140
 111.4205860  96.1665190 131.3327450 111.0162860  95.4542440 130.8373350
 111.5068980  95.8218430 132.2215490 111.8887560  99.8532750 133.4966660
 111.5915850  99.2478220 132.8174440 112.8387380  99.8910060 133.3856020
 110.1334480  92.9408400 135.1126490 110.6849070  93.0503740 134.3379740
 110.6477990  93.3146000 135.8281720 119.9773170 103.4264620 137.1589760
 119.5003730 104.2336810 136.9662370 119.2934960 102.7742950 137.3115970
 110.9805990  99.5914440 140.1474460 110.0834520  99.8154410 140.3947860
 111.0058860  99.7149380 139.1985860 118.0211210  96.4407560 126.0615720
 118.4604490  95.6029990 125.9153540 118.7339630  97.0736960 126.1479860
 109.8077210  96.4627760 138.7231830 109.6684980  97.3350560 139.0919230
 108.9258570  96.1200570 138.5779770 116.1306590 101.3803630 130.0296960
 116.5702500 102.1227960 129.6152350 116.0693480 101.6230200 130.9535920
 111.6057560 102.4049460 140.9316980 111.5772990 102.8092410 140.0645410
 111.4422530 101.4759820 140.7688580 121.6028350  87.6950370 124.3756760
 121.2901010  87.7877200 125.2755830 122.3640820  88.2731400 124.3254190
 108.1210490  95.0610170 128.8334100 108.0008090  95.7872260 128.2215370
 107.8111380  94.2913080 128.3562010 123.5572380 103.1876560 142.2281150
 124.0332100 103.6659450 142.9070230 124.1779540 103.1194050 141.5026650
 105.7595860  98.2325310 134.6402740 105.8376280  98.3674080 133.6958460
 106.3737540  97.5241200 134.8330860 107.0043490  99.9325500 131.0508920
 106.5971570 100.0740090 130.1962520 107.8956500  99.6485660 130.8480130
 122.9605630 100.3789410 139.3881160 123.0868690 100.1401290 138.4698340
 123.0027010  99.5473950 139.8603240 116.8222370 104.0817410 137.9575970
 117.3367040 103.9925420 138.7598400 115.9791450 104.4277110 138.2503880
 118.7976770 104.3672750 127.3859970 118.6377910 104.0775690 128.2841800
 118.6323480 103.5912880 126.8505200 111.2765150 104.1471280 129.1631590
 111.1007630 103.2306820 128.9499390 110.4220890 104.5058570 129.4029390
 118.5002900 101.8760310 125.9457970 117.8068060 101.8737600 125.2860250
 119.2425760 101.4519630 125.5152140 118.0652830 103.5023020 130.0206460
 118.5209780 102.7212400 130.3345080 118.4045350 104.2129840 130.5647640
 122.8129640  92.4321870 140.3530900 122.1973910  92.9401540 139.8246360
 122.4926060  91.5320200 140.2956840 105.8155380  99.2739480 137.1797200
 105.9786420  98.8044840 136.3616570 106.2807830  98.7663040 137.8446040
 110.5874150  88.4045240 132.2157770 110.1442300  89.1854780 131.8842290
 111.1459140  88.7275130 132.9228710 114.8743960  91.2713760 137.8193090
 114.4123330  91.4796780 138.6313030 114.4722070  90.4573110 137.5163760
 119.8748470  92.4922710 138.9489750 119.0242060  92.1928460 139.2698820
 119.7150260  92.7364720 138.0373570 116.9698180  93.9924460 141.0488540
 117.2951590  93.1588210 140.7090770 117.7578510  94.5152980 141.1966870
 113.7032970  88.0255940 127.0963600 113.0787150  88.0215810 127.8216910
 113.6163090  87.1586900 126.6999570 112.6250050  88.9492570 134.0747370
 112.9222380  89.8555400 133.9939390 113.1735610  88.4611350 133.4606940
 110.3788370  93.5278810 129.9439020 110.1529290  93.3115980 130.8485640
 109.5980900  93.9607270 129.5984990 117.6086130  93.5342180 128.5429670
 117.0095020  94.2577980 128.3593290 118.1565740  93.4718960 127.7606120
 112.8187580  94.4264390 140.6099290 112.7231180  93.4859120 140.4599690
 113.6619560  94.6479460 140.2147360 116.2151000  92.1705720 130.5732950
 116.6080570  92.4877920 129.7601640 116.5767850  91.2917600 130.6877470
 107.9498120  90.8378060 138.7633070 107.5561510  91.6853270 138.9705850
 107.2616520  90.2004430 138.9541710 114.5243170  90.9213030 141.8329810
 113.8341490  90.7285230 142.4675900 115.2675470  91.2047670 142.3654110
 105.4385400  92.7026640 124.0065870 105.3560070  93.6457400 124.1480860
 105.0868460  92.5601550 123.1278220 116.8006140  94.7611470 134.6683730
 116.0687260  95.2698280 135.0173830 116.4030480  93.9441450 134.3672510
 113.2383530  91.4365670 133.0736220 113.2419590  90.9955620 132.2240760
 114.1334650  91.7583000 133.1808040 109.0885910  91.3192160 132.0330430
 108.7485960  91.7967390 132.7897480 108.3263230  90.8657280 131.6731530
 113.3003680  92.4377750 126.0642980 113.4216500  92.3964230 127.0128800
 112.9152190  93.3001900 125.9089710 117.2632050  90.2145150 134.0806670
 117.2804790  90.6653800 134.9248520 117.0147630  89.3150790 134.2940110
 120.6902800  87.6277330 139.9193050 121.0148570  86.8966990 140.4451030
 120.7259310  87.3090970 139.0174040 107.3894360  98.6490910 139.3393010
 107.0049150  98.0084580 139.9375970 107.7006550  99.3527030 139.9087740
 113.5391500  95.4967450 134.8201630 113.9061630  95.0226020 135.5662970
 113.3496560  96.3709020 135.1609970 111.3290870  94.5376090 137.1385840
 111.0247940  95.4168070 137.3636200 112.2837330  94.5975880 137.1743280
 109.8572660  98.7437080 127.7352690 109.0834920  98.2034700 127.5751410
 110.5867290  98.2243690 127.3970450 120.6160640  97.7402440 133.5279080
 121.3359760  98.2357730 133.1375190 120.4142460  97.0620330 132.8832950
 116.0770580  89.1340400 127.6708470 115.2635190  88.6353570 127.5953780
 115.8832530  89.9738650 127.2544820 115.9979440  97.8111500 139.4148080
 115.9316750  96.8907170 139.1605670 115.3684580  97.9086940 140.1292720
 118.7918970  93.5060050 125.9670630 119.6798590  93.8177280 125.7921970
 118.7624060  92.6332300 125.5751210 109.9010060  98.4117460 131.3731500
 110.4188730  97.6085720 131.3188390 109.4494080  98.3496600 132.2148330
 114.7879560  99.6783740 126.6458800 115.1295260 100.4225970 126.1502120
 113.9592270  99.9914860 127.0083630 107.3854600  95.3778830 138.2857200
 107.0269540  96.0432680 138.8730540 107.0909160  94.5462380 138.6569820
 110.5867720  95.8363070 141.1696750 110.2867860  95.9820250 140.2724570
 111.3578960  95.2768360 141.0770140 115.9296170 100.6332070 139.1651880
 115.9440710  99.7013030 138.9470790 115.2221270 100.7191830 139.8041650
 121.0633240  94.8171890 125.4350490 120.9796960  95.2486110 124.5846930
 121.7827430  95.2770240 125.8677310 122.1407380  97.2739410 138.5120460
 121.4155570  97.8668190 138.3149850 122.6682840  97.2662950 137.7133830
 122.0920490 101.6714150 128.1632620 121.4496650 101.0169770 128.4376340
 121.7051150 102.0769240 127.3873290 117.6706970  98.9999580 132.0104310
 118.0230790  98.4027710 131.3505680 116.7869300  98.6743810 132.1812560
 113.7570250  99.7597270 129.4174720 114.4441380 100.3066480 129.7982310
 112.9702670 100.3038000 129.4524330 113.0597460  96.7643300 129.0300080
 113.5160240  97.5748550 129.2560270 112.7085670  96.4466440 129.8618570
 115.3630070 102.2749640 136.2592380 116.0072290 102.4809020 136.9365800
 115.7259510 101.5138040 135.8063230 116.6362150 100.2781990 134.9769830
 117.2784380  99.5775150 135.0902000 117.1611500 101.0580430 134.7966720
 120.4817870 100.5630610 124.7008970 120.2555450  99.8461050 125.2933610
 120.0914070 100.3143050 123.8630720 118.4099770 101.0776890 138.1805890
 118.7456010 101.6643580 138.8583810 117.4900110 100.9469600 138.4103680
 106.2633900 104.5897470 125.4753430 106.6231540 105.1886810 124.8210700
 106.1226240 105.1357360 126.2488460 105.9603170  88.8672070 138.9629300
 105.2461690  89.0668990 139.5681910 106.3798210  88.0911640 139.3344100
 120.0634120  98.4802550 126.3623130 119.7755820  98.9415240 127.1501010
 120.8586290  98.0200320 126.6307350 106.2475760 102.8552330 139.9495830
 106.3566880 101.9147070 139.8091220 105.5956320 103.1207080 139.3009560
 114.2388350 101.1268220 141.3493950 113.9185220 100.4077460 141.8939640
 113.5646710 101.8023290 141.4230010 112.2802520 101.9728670 126.2927100
 112.2712620 102.7058360 125.6771610 111.3600880 101.7260250 126.3854060
 117.4541950  91.3594380 136.7130750 117.8222770  90.5389590 137.0410320
 116.5940150  91.4196270 137.1286400 120.8203980  90.3151320 127.5218310
 120.1917140  90.4196990 126.8076540 120.3255900  90.5348100 128.3112190
 112.7888010  92.5937270 128.9376190 112.0804160  93.0623610 129.3789800
 113.0732490  91.9359280 129.5721380 114.4143940  94.0133970 136.9368720
 114.9129190  94.4879790 137.6020570 114.5566890  93.0897490 137.1438750
 116.8203440  89.3187930 130.3771980 116.6971220  89.3374060 129.4281490
 117.7688000  89.3666870 130.4970380 113.9080230 104.5543230 129.6499960
 114.1621730 104.5164620 128.7279330 112.9592710 104.4276560 129.6428210
 110.9923030  90.9022350 126.3126900 111.8413560  91.3392500 126.2467090
 110.6254300  91.2142610 127.1398960 121.6210800  90.2301930 137.7797110
 121.1184400  90.9707330 138.1190920 122.4367460  90.6185930 137.4633900
 119.9132810  95.4735110 131.2258470 118.9722950  95.4885340 131.4006160
 120.2276880  94.6871070 131.6718770 121.9158390 102.6443960 132.9012730
 122.0405810 103.4675130 133.3736540 122.7823950 102.4334690 132.5536880
 109.3875920 104.7375170 132.5729860 110.1238400 104.1890630 132.8438430
 109.7716840 105.6031180 132.4335850 106.2721400 100.8048740 128.4471370
 105.3461180 101.0469880 128.4376780 106.7377830 101.6323000 128.3256120
 108.3934200 103.9221240 141.7615440 109.1946930 104.2433290 142.1750840
 107.8786020 103.5616820 142.4835350 117.2298830 100.0301110 141.7090850
 116.6236990 100.0532710 140.9686600 116.9252940  99.2984150 142.2458100
 118.6599200 103.7581400 140.3200260 119.6120950 103.6739420 140.2700500
 118.5127420 104.4223110 140.9934050 121.5508400 103.1375610 125.8192170
 121.2649910 102.7240750 125.0046350 121.3527950 104.0663320 125.6992690
 106.1132010  96.4094700 140.7051490 106.6171030  95.8301980 141.2767720
 105.3739430  96.6934930 141.2427860 113.1669950  97.8165690 140.2387010
 112.4015620  98.3850690 140.1541680 113.3485910  97.5241900 139.3455240
 116.2558360  98.1928920 124.8639770 115.7068460  98.6398220 125.5082510
 116.8777620  97.6878170 125.3877440 120.3093300  99.5471020 140.7962030
 121.0502770  99.8846780 140.2929490 119.5465980  99.7163080 140.2431800
 108.1455090  94.5524290 141.6001560 108.1860430  94.2538160 142.5086790
 109.0000590  94.9531900 141.4409080 111.9233480  97.1519840 126.7605070
 112.3449900  96.9859710 127.6036460 112.0484320  96.3420070 126.2660210
 110.0860900  93.1316390 139.5676050 109.5557360  92.6407340 138.9399390
 110.7548970  93.5600590 139.0333980 114.4361120  96.1757450 124.0082170
 114.9566780  95.4606470 123.6423320 115.0829520  96.8143320 124.3082680
 118.9838960  97.5985850 139.3317240 119.3979980  97.7530930 140.1807660
 118.0489960  97.7241070 139.4943020 119.4561130  94.9382010 141.3356390
 120.0381900  94.1834330 141.2476870 119.6322900  95.4689450 140.5587870
 110.5733200  90.0978760 139.6473340 110.4790070  89.4799510 138.9224210
 109.9930590  90.8245050 139.4203250 113.3394640  88.6552000 136.6800730
 112.8911940  88.6776260 135.8346280 112.7059840  88.2571020 137.2771030
 113.7454190  97.5506330 137.3013170 114.1642300  98.3939060 137.1289410
 112.8262820  97.6878370 137.0719950 116.0818090  95.2822510 138.6851010
 116.2014300  94.6863650 139.4245850 116.9412090  95.3192200 138.2652310
 118.4205990  95.8359700 137.2613520 117.8941210  96.3602320 136.6578660
 118.7637330  96.4687090 137.8923250 111.5961610 103.8559340 138.4170900
 111.0582700 104.5805400 138.0979600 111.8495570 103.3789680 137.6268240
 112.8486860  91.8243860 139.9426830 113.4386550  91.5159710 140.6304650
 112.0307100  91.3523610 140.0986730 117.6680290  91.4409670 140.1759850
 116.9795810  90.7791210 140.1109840 118.3886310  90.9947940 140.6208310
 118.2980690  88.0361300 126.2350110 118.5782980  87.1929200 126.5909530
 117.5246420  88.2684410 126.7488860 114.4523820 105.0910550 138.6757550
 114.3782520 105.9945690 138.9829920 113.5502660 104.7722450 138.6479620
 112.8360110  89.2688310 124.6797310 112.4882110  88.5912300 124.0999760
 113.0372880  88.8077820 125.4940700 115.0009150 104.2569060 126.2983910
 115.8959940 104.5954030 126.3202670 115.0326780 103.5348470 125.6708190
 105.8551110 102.4185140 131.9791170 106.1854120 101.5506200 131.7469810
 106.2842110 102.6243660 132.8096130 110.4513030 100.7494150 129.6393140
 110.1508570 100.6259120 130.5397050 110.3450520  99.8902740 129.2308870
 106.3441320 103.2855730 134.7172800 105.9072310 103.4656530 135.5496950
 106.9119000 104.0430350 134.5754520 121.9803500 102.7872730 139.0050110
 121.3805490 102.8465290 138.2614030 122.1097400 101.8477710 139.1346960
 123.2204950 100.5290550 124.3419820 122.3897910 100.5967200 124.8127050
 123.3976780 101.4194670 124.0386680 122.6761410  97.2738030 126.8454020
 123.4380320  97.8434680 126.9513710 122.6915780  96.7065230 127.6162330
 106.1765750  95.7975960 131.0761680 105.5214590  95.5287600 130.4321380
 107.0143700  95.6880440 130.6263660 123.6821380  98.1288130 131.6895950
 124.0530210  97.3455450 131.2831920 124.3223310  98.8177230 131.5113250
 120.6655140  99.5124710 137.1026270 119.8514980  99.9421870 137.3652060
 121.0729340 100.1243120 136.4895320 122.7280580  97.5672400 124.0026540
 123.0029420  98.4751280 123.8745760 122.5391320  97.5034930 124.9388530
 119.1256190  90.5917250 125.2980170 119.5441070  90.4048230 124.4576830
 118.8192250  89.7396300 125.6083100 122.6245920  95.5041390 128.9955970
 122.2489520  94.7369320 128.5637260 121.8949040  95.8864090 129.4830900
 107.2141680  96.1828530 135.6165020 107.5814720  96.0955930 136.4961040
 106.6452500  95.4195080 135.5171880 122.0145540  94.6512910 138.6295490
 121.7831630  94.4225660 137.7293440 122.2750090  95.5712460 138.5840380
 106.7657680  93.0937620 139.5223440 105.8713730  93.0604380 139.8617150
 107.3055230  93.2924410 140.2874690 120.4533610  89.8769340 141.4075190
 121.3303790  89.8852740 141.7909190 120.4654450  89.1400180 140.7967540
 105.3903830  93.0074890 127.0187010 104.4867910  93.2705090 126.8438670
 105.8744450  93.2786060 126.2386970 121.8996880  93.7298880 132.2963210
 122.4234360  93.2361530 131.6653380 122.4856300  93.8649240 133.0410780
 122.0786600  93.8138750 135.8182760 121.1289310  93.7802290 135.9327750
 122.2599610  94.7238860 135.5832530 107.5805200  88.1179760 123.9684040
 108.3033330  88.6588700 124.2865260 107.8529720  87.8443180 123.0925580
 121.3896850  92.9872230 128.2355620 121.8855970  92.7543100 129.0204500
 121.1912920  92.1484070 127.8193260 122.8184010  91.6233180 130.7693300
 122.7083290  91.4689220 131.7075570 123.5791600  91.0954120 130.5268710
 121.1649730  87.5627310 137.2276300 121.8021950  88.1761450 137.5935490
 121.3124620  87.5987970 136.2825530 123.7074280  89.4541100 124.0099440
 124.6323590  89.3222280 123.8017730 123.6850070  89.5333920 124.9635890
 123.7812770  90.2251760 126.6356150 122.9864270  90.1596880 127.1649060
 123.9856050  91.1602400 126.6241500 120.7231190 104.2643310 130.6294540
 121.3190260 103.9427880 129.9528960 120.9809340 103.7915130 131.4207810
 107.0229390  87.5241620 136.6131980 106.6744210  87.9805440 137.3790160
 106.6917090  86.6298750 136.6954410 108.6293760 100.6961220 140.7785170
 108.5863390 100.3254130 141.6599630 108.7604770 101.6338790 140.9186990
 112.3299790 102.2520810 136.3794890 112.0891150 102.5195370 135.4925410
 113.2702430 102.4226540 136.4345750 114.5354210  88.7153500 140.1351400
 114.4743100  89.3075330 140.8846810 115.4754590  88.6079460 139.9901660
 117.1728770  88.3723560 139.7743690 117.7869180  88.6902850 139.1124770
 117.7178330  87.8872150 140.3939550 123.5903950 104.2715190 137.1805530
 123.0962230 104.6684060 136.4632660 122.9817240 103.6464400 137.5742810
 107.6950030  87.0517820 139.8882750 108.2433020  86.8705870 139.1248860
 107.7605340  86.2611930 140.4239060 108.4681790 103.6423470 137.8982950
 107.8742110 103.5108170 138.6372990 108.4605630 102.8061610 137.4325050
 117.9136810  86.9355700 136.1012980 117.0396650  87.2690810 135.8985910
 117.8047560  86.4628880 136.9264850 118.8208790  89.1426570 137.4854700
 118.4922150  88.3278330 137.1056430 119.7691090  89.0996380 137.3620390
 121.2743400 104.9138610 134.4592270 120.8146370 105.6654420 134.0850290
 120.6455860 104.1945080 134.4007070 108.0994020 101.0081850 136.8490990
 107.3728080 100.3887140 136.7816940 108.1603170 101.4022460 135.9789070
 111.7039120 103.2226850 133.6340400 112.2204140 102.6114210 133.1088660
 112.3536500 103.7255630 134.1251410 114.4434620 104.1135340 134.4609380
 114.7312430 103.8589640 133.5842390 114.9557840 103.5612700 135.0514950
 115.6611630  87.8525540 135.0405890 114.8783420  88.3271040 135.3202650
 115.3674560  86.9480370 134.9319070 120.2132700  88.5548640 133.0854980
 120.6540790  88.4993740 132.2376580 119.9440290  89.4706650 133.1565160
 122.0771270  88.1863880 131.0963800 122.0159670  87.2425100 130.9494820
 122.8563300  88.2943970 131.6417260 106.3824020 104.3256240 130.0587750
 106.2146060 103.6926920 130.7569640 105.5158530 104.5315640 129.7081940
 113.5465850  90.2712290 130.5521920 112.7340360  89.8969180 130.2117800
 114.0507490  89.5157370 130.8543110 118.0490830  86.9354740 131.7904990
 118.6520200  87.5074950 132.2653510 117.3083820  87.4994180 131.5678890
 121.1925430  87.3376300 127.0645270 121.3876060  88.2359750 127.3312700
 120.4055300  87.1063380 127.5578220 107.9886720 103.0189470 127.5037890
 107.4634340 103.3997500 126.7999850 107.9131300 103.6440240 128.2247600
 109.3777190  88.6837070 126.1021580 109.9069950  87.8966870 125.9729530
 110.0105510  89.3628260 126.3357110 111.5715030  88.4212210 129.1566970
 110.9417770  87.7199520 129.3237100 111.0320170  89.1816340 128.9400130
 114.5106980 105.0351440 141.8277580 115.4374290 104.7995710 141.8713540
 114.4957410 105.8623440 141.3463610 122.7452040 104.5777010 128.8251830
 122.9204230 103.8914750 128.1812750 122.0473610 105.1024060 128.4328500
 111.6970590  87.6996190 141.5919460 111.4154860  88.2029790 140.8280280
 112.0790290  86.9017940 141.2261590 110.5879690 104.9671850 126.3787140
 111.3198510 104.6831130 125.8311030 110.8473360 104.7285130 127.2686520
 109.7494480 101.0836580 126.3833470 109.1203360 101.5521680 126.9319300
 109.8642310 100.2385800 126.8179660 118.2986050  87.1149770 142.1699930
 118.1851500  87.4344380 143.0651450 119.1155790  87.5162280 141.8737210
 121.0784540 104.2621300 141.6518620 121.8709860 103.7670530 141.4444580
 121.3717690 104.9411440 142.2594230 109.9381410  90.7674460 110.1100470
 110.0448160  91.6678190 110.4169230 109.0273770  90.7192430 109.8195120
 123.8800070  91.9066020 118.1455000 123.1752240  92.2947730 117.6270110
 124.1457990  92.6016310 118.7475930 109.7440570  90.0869350 116.7159520
 110.0857380  90.9311400 116.4213390 108.8056380  90.2353090 116.8324860
 105.8179530  99.1735230 107.5818600 105.4407510  99.6622330 106.8503500
 106.0752600  99.8460510 108.2125130 121.4424780 101.4474780 116.6166390
 120.7588300 102.1173890 116.6083060 121.9819070 101.6455430 115.8511250
 122.8948920  91.2754440 114.7448120 121.9473830  91.3093420 114.8763550
 123.2198910  92.0893390 115.1297480 118.9783520 103.2918910 115.3311570
 118.9910680 102.8881200 114.4633830 118.4258740 104.0666200 115.2273000
 118.3768960  98.1948750 116.6594180 118.7937750  97.9808860 115.8247640
 119.1008780  98.4521540 117.2302800 115.8018300  91.9117450 106.7731390
 114.8621970  92.0731410 106.8583850 116.1201560  92.6303130 106.2267380
 122.3231060  96.5935970 116.7510420 121.4949690  96.6629060 116.2760550
 122.9181540  97.1790280 116.2826250 119.8446510  97.2020750 110.2799480
 119.2258930  96.8640300 109.6325780 119.8270960  96.5580510 110.9878670
 119.2873070  93.3805290 117.6965290 118.8744250  94.2059000 117.9505280
 118.5549020  92.7950330 117.5041650 119.9773170 103.4264620 118.3846270
 119.5003730 104.2336810 118.1918880 119.2934960 102.7742950 118.5372480
 118.0211210  96.4407560 107.2872230 118.4604490  95.6029990 107.1410050
 118.7339630  97.0736960 107.3736370 121.6028350  87.6950370 105.6013270
 121.2901010  87.7877200 106.5012340 122.3640820  88.2731400 105.5510700
 123.5572380 103.1876560 123.4537660 124.0332100 103.6659450 124.1326740
 124.1779540 103.1194050 122.7283160 122.9605630 100.3789410 120.6137670
 123.0868690 100.1401290 119.6954850 123.0027010  99.5473950 121.0859750
 111.2765150 104.1471280 110.3888100 111.1007630 103.2306820 110.1755900
 110.4220890 104.5058570 110.6285900 122.8129640  92.4321870 121.5787410
 122.1973910  92.9401540 121.0502870 122.4926060  91.5320200 121.5213350
 114.8743960  91.2713760 119.0449600 114.4123330  91.4796780 119.8569540
 114.4722070  90.4573110 118.7420270 119.8748470  92.4922710 120.1746260
 119.0242060  92.1928460 120.4955330 119.7150260  92.7364720 119.2630080
 116.9698180  93.9924460 122.2745050 117.2951590  93.1588210 121.9347280
 117.7578510  94.5152980 122.4223380 112.8187580  94.4264390 121.8355800
 112.7231180  93.4859120 121.6856200 113.6619560  94.6479460 121.4403870
 114.5243170  90.9213030 123.0586320 113.8341490  90.7285230 123.6932410
 115.2675470  91.2047670 123.5910620 105.4385400  92.7026640 105.2322380
 105.3560070  93.6457400 105.3737370 105.0868460  92.5601550 104.3534730
 117.2632050  90.2145150 115.3063180 117.2804790  90.6653800 116.1505030
 117.0147630  89.3150790 115.5196620 112.3125180  94.7478890 106.6882790
 111.7442080  94.2997140 106.0618700 113.0214180  95.1071670 106.1547940
 120.6902800  87.6277330 121.1449560 121.0148570  86.8966990 121.6707540
 120.7259310  87.3090970 120.2430550 109.8572660  98.7437080 108.9609200
 109.0834920  98.2034700 108.8007920 110.5867290  98.2243690 108.6226960
 120.6160640  97.7402440 114.7535590 121.3359760  98.2357730 114.3631700
 120.4142460  97.0620330 114.1089460 115.9979440  97.8111500 120.6404590
 115.9316750  96.8907170 120.3862180 115.3684580  97.9086940 121.3549230
 122.1407380  97.2739410 119.7376970 121.4155570  97.8668190 119.5406360
 122.6682840  97.2662950 118.9390340 122.0920490 101.6714150 109.3889130
 121.4496650 101.0169770 109.6632850 121.7051150 102.0769240 108.6129800
 117.6706970  98.9999580 113.2360820 118.0230790  98.4027710 112.5762190
 116.7869300  98.6743810 113.4069070 105.8962650  95.3770090 106.1348310
 106.7657500  95.6594890 106.4184230 105.4052970  96.1905960 106.0197120
 120.4817870 100.5630610 105.9265480 120.2555450  99.8461050 106.5190120
 120.0914070 100.3143050 105.0887230 118.4099770 101.0776890 119.4062400
 118.7456010 101.6643580 120.0840320 117.4900110 100.9469600 119.6360190
 106.2633900 104.5897470 106.7009940 106.6231540 105.1886810 106.0467210
 106.1226240 105.1357360 107.4744970 107.8809160  97.1943560 108.2630370
 107.2737110  97.9342460 108.2725670 108.3558510  97.2842920 107.4368570
 117.4541950  91.3594380 117.9387260 117.8222770  90.5389590 118.2666830
 116.5940150  91.4196270 118.3542910 114.4143940  94.0133970 118.1625230
 114.9129190  94.4879790 118.8277080 114.5566890  93.0897490 118.3695260
 110.9923030  90.9022350 107.5383410 111.8413560  91.3392500 107.4723600
 110.6254300  91.2142610 108.3655470 121.6210800  90.2301930 119.0053620
 121.1184400  90.9707330 119.3447430 122.4367460  90.6185930 118.6890410
 109.8914450  97.1554710 106.0118940 110.6577720  97.0436070 106.5744370
 109.9689140  96.4592680 105.3595710 108.5861210  94.5879780 106.6951830
 108.6664800  93.6407290 106.8069230 109.4780960  94.9186660 106.8012490
 121.9158390 102.6443960 114.1269240 122.0405810 103.4675130 114.5993050
 122.7823950 102.4334690 113.7793390 108.3934200 103.9221240 122.9871950
 109.1946930 104.2433290 123.4007350 107.8786020 103.5616820 123.7091860
 117.2298830 100.0301110 122.9347360 116.6236990 100.0532710 122.1943110
 116.9252940  99.2984150 123.4714610 118.6599200 103.7581400 121.5456770
 119.6120950 103.6739420 121.4957010 118.5127420 104.4223110 122.2190560
 121.5508400 103.1375610 107.0448680 121.2649910 102.7240750 106.2302860
 121.3527950 104.0663320 106.9249200 113.0155630  99.1308890 105.4854290
 112.9106270  98.5161240 106.2115670 112.8479850  98.6074780 104.7017300
 113.1669950  97.8165690 121.4643520 112.4015620  98.3850690 121.3798190
 113.3485910  97.5241900 120.5711750 120.3093300  99.5471020 122.0218540
 121.0502770  99.8846780 121.5186000 119.5465980  99.7163080 121.4688310
 114.4361120  96.1757450 105.2338680 114.9566780  95.4606470 104.8679830
 115.0829520  96.8143320 105.5339190 118.9838960  97.5985850 120.5573750
 119.3979980  97.7530930 121.4064170 118.0489960  97.7241070 120.7199530
 119.4561130  94.9382010 122.5612900 120.0381900  94.1834330 122.4733380
 119.6322900  95.4689450 121.7844380 113.3394640  88.6552000 117.9057240
 112.8911940  88.6776260 117.0602790 112.7059840  88.2571020 118.5027540
 116.0818090  95.2822510 119.9107520 116.2014300  94.6863650 120.6502360
 116.9412090  95.3192200 119.4908820 118.4205990  95.8359700 118.4870030
 117.8941210  96.3602320 117.8835170 118.7637330  96.4687090 119.1179760
 110.8192380  93.2253070 104.9319740 110.6181440  92.3620430 105.2933080
 110.6484430  93.1386430 103.9941340 112.8486860  91.8243860 121.1683340
 113.4386550  91.5159710 121.8561160 112.0307100  91.3523610 121.3243240
 117.6680290  91.4409670 121.4016360 116.9795810  90.7791210 121.3366350
 118.3886310  90.9947940 121.8464820 109.6175180  90.3253690 104.9197620
 109.9201080  90.3321120 104.0116770 110.3569770  89.9751550 105.4165280
 112.8360110  89.2688310 105.9053820 112.4882110  88.5912300 105.3256270
 113.0372880  88.8077820 106.7197210 108.6405310  99.6296110 105.7527420
 109.0780180 100.1725780 106.4085000 109.1253040  98.8043060 105.7623760
 121.9803500 102.7872730 120.2306620 121.3805490 102.8465290 119.4870540
 122.1097400 101.8477710 120.3603470 123.2204950 100.5290550 105.5676330
 122.3897910 100.5967200 106.0383560 123.3976780 101.4194670 105.2643190
 122.6761410  97.2738030 108.0710530 123.4380320  97.8434680 108.1770220
 122.6915780  96.7065230 108.8418840 123.6821380  98.1288130 112.9152460
 124.0530210  97.3455450 112.5088430 124.3223310  98.8177230 112.7369760
 120.6655140  99.5124710 118.3282780 119.8514980  99.9421870 118.5908570
 121.0729340 100.1243120 117.7151830 122.7280580  97.5672400 105.2283050
 123.0029420  98.4751280 105.1002270 122.5391320  97.5034930 106.1645040
 122.0145540  94.6512910 119.8552000 121.7831630  94.4225660 118.9549950
 122.2750090  95.5712460 119.8096890 120.4533610  89.8769340 122.6331700
 121.3303790  89.8852740 123.0165700 120.4654450  89.1400180 122.0224050
 122.0786600  93.8138750 117.0439270 121.1289310  93.7802290 117.1584260
 122.2599610  94.7238860 116.8089040 107.9331040  92.0640430 106.1537900
 108.6422740  91.6423650 105.6685180 107.2170980  92.1315660 105.5221250
 121.1649730  87.5627310 118.4532810 121.8021950  88.1761450 118.8192000
 121.3124620  87.5987970 117.5082040 123.7074280  89.4541100 105.2355950
 124.6323590  89.3222280 105.0274240 123.6850070  89.5333920 106.1892400
 123.7812770  90.2251760 107.8612660 122.9864270  90.1596880 108.3905570
 123.9856050  91.1602400 107.8498010 120.7231190 104.2643310 111.8551050
 121.3190260 103.9427880 111.1785470 120.9809340 103.7915130 112.6464320
 114.5354210  88.7153500 121.3607910 114.4743100  89.3075330 122.1103320
 115.4754590  88.6079460 121.2158170 117.1728770  88.3723560 121.0000200
 117.7869180  88.6902850 120.3381280 117.7178330  87.8872150 121.6196060
 123.5903950 104.2715190 118.4062040 123.0962230 104.6684060 117.6889170
 122.9817240 103.6464400 118.7999320 117.9136810  86.9355700 117.3269490
 117.0396650  87.2690810 117.1242420 117.8047560  86.4628880 118.1521360
 118.8208790  89.1426570 118.7111210 118.4922150  88.3278330 118.3312940
 119.7691090  89.0996380 118.5876900 121.2743400 104.9138610 115.6848780
 120.8146370 105.6654420 115.3106800 120.6455860 104.1945080 115.6263580
 120.2132700  88.5548640 114.3111490 120.6540790  88.4993740 113.4633090
 119.9440290  89.4706650 114.3821670 122.0771270  88.1863880 112.3220310
 122.0159670  87.2425100 112.1751330 122.8563300  88.2943970 112.8673770
 107.0052040  88.1573020 108.7876120 107.7631400  88.2701900 108.2140150
 106.5429210  88.9942220 108.7419550 118.0490830  86.9354740 113.0161500
 118.6520200  87.5074950 113.4910020 117.3083820  87.4994180 112.7935400
 121.1925430  87.3376300 108.2901780 121.3876060  88.2359750 108.5569210
 120.4055300  87.1063380 108.7834730 107.9886720 103.0189470 108.7294400
 107.4634340 103.3997500 108.0256360 107.9131300 103.6440240 109.4504110
 109.3777190  88.6837070 107.3278090 109.9069950  87.8966870 107.1986040
 110.0105510  89.3628260 107.5613620 122.7452040 104.5777010 110.0508340
 122.9204230 103.8914750 109.4069260 122.0473610 105.1024060 109.6585010
 111.6970590  87.6996190 122.8175970 111.4154860  88.2029790 122.0536790
 112.0790290  86.9017940 122.4518100 110.5879690 104.9671850 107.6043650
 111.3198510 104.6831130 107.0567540 110.8473360 104.7285130 108.4943030
 109.7494480 101.0836580 107.6089980 109.1203360 101.5521680 108.1575810
 109.8642310 100.2385800 108.0436170 118.2986050  87.1149770 123.3956440
 118.1851500  87.4344380 124.2907960 119.1155790  87.5162280 123.0993720
 121.0784540 104.2621300 122.8775130 121.8709860 103.7670530 122.6701090
 121.3717690 104.9411440 123.4850740 119.3569670 101.3181450  94.4199580
 118.8951200 100.5468690  94.7486750 120.1695220 101.3447520  94.9252030
 107.7620020  92.1842960  90.3018600 106.8736720  92.5258930  90.1998480
 108.0461210  91.9843280  89.4099430 105.7253030  94.7848610  96.1858300
 106.2969140  94.0170810  96.1861940 105.7254570  95.0837370  95.2764910
 115.5832980 103.6039460  94.0403570 114.9644420 104.0596960  93.4698010
 116.4384760 103.7590920  93.6393270 119.5900520  89.8899270  92.8067880
 120.4110140  89.3995840  92.8493360 119.6234600  90.4796930  93.5599720
 107.5864570  92.6893470  96.5809570 108.2674680  92.9531840  97.1996970
 107.2712620  91.8494340  96.9147580 123.8800070  91.9066020  99.3711510
 123.1752240  92.2947730  98.8526620 124.1457990  92.6016310  99.9732440
 119.8262000  91.8299650  95.5795420 119.1217570  92.1184540  96.1598530
 120.1874160  92.6399760  95.2194980 105.8179530  99.1735230  88.8075110
 105.4407510  99.6622330  88.0760010 106.0752600  99.8460510  89.4381640
 122.8948920  91.2754440  95.9704630 121.9473830  91.3093420  96.1020060
 123.2198910  92.0893390  96.3553990 118.9783520 103.2918910  96.5568080
 118.9910680 102.8881200  95.6890340 118.4258740 104.0666200  96.4529510
 120.2728940 100.0135130  91.6458250 120.1625270  99.0709460  91.7707670
 120.2697190 100.3750770  92.5321010 118.3768960  98.1948750  97.8850690
 118.7937750  97.9808860  97.0504150 119.1008780  98.4521540  98.4559310
 115.8018300  91.9117450  87.9987900 114.8621970  92.0731410  88.0840360
 116.1201560  92.6303130  87.4523890 119.2873070  93.3805290  98.9221800
 118.8744250  94.2059000  99.1761790 118.5549020  92.7950330  98.7298160
 110.1334480  92.9408400  97.5639510 110.6849070  93.0503740  96.7892760
 110.6477990  93.3146000  98.2794740 110.9805990  99.5914440 102.5987480
 110.0834520  99.8154410 102.8460880 111.0058860  99.7149380 101.6498880
 109.8077210  96.4627760 101.1744850 109.6684980  97.3350560 101.5432250
 108.9258570  96.1200570 101.0292790 111.6057560 102.4049460 103.3830000
 111.5772990 102.8092410 102.5158430 111.4422530 101.4759820 103.2201600
 123.5572380 103.1876560 104.6794170 124.0332100 103.6659450 105.3583250
 124.1779540 103.1194050 103.9539670 105.7595860  98.2325310  97.0915760
 105.8376280  98.3674080  96.1471480 106.3737540  97.5241200  97.2843880
 107.0043490  99.9325500  93.5021940 106.5971570 100.0740090  92.6475540
 107.8956500  99.6485660  93.2993150 116.8222370 104.0817410 100.4088990
 117.3367040 103.9925420 101.2111420 115.9791450 104.4277110 100.7016900
 118.7976770 104.3672750  89.8372990 118.6377910 104.0775690  90.7354820
 118.6323480 103.5912880  89.3018220 111.2765150 104.1471280  91.6144610
 111.1007630 103.2306820  91.4012410 110.4220890 104.5058570  91.8542410
 118.0652830 103.5023020  92.4719480 118.5209780 102.7212400  92.7858100
 118.4045350 104.2129840  93.0160660 122.8129640  92.4321870 102.8043920
 122.1973910  92.9401540 102.2759380 122.4926060  91.5320200 102.7469860
 105.8155380  99.2739480  99.6310220 105.9786420  98.8044840  98.8129590
 106.2807830  98.7663040 100.2959060 119.8748470  92.4922710 101.4002770
 119.0242060  92.1928460 101.7211840 119.7150260  92.7364720 100.4886590
 116.9698180  93.9924460 103.5001560 117.2951590  93.1588210 103.1603790
 117.7578510  94.5152980 103.6479890 113.7032970  88.0255940  89.5476620
 113.0787150  88.0215810  90.2729930 113.6163090  87.1586900  89.1512590
 112.8187580  94.4264390 103.0612310 112.7231180  93.4859120 102.9112710
 113.6619560  94.6479460 102.6660380 116.2151000  92.1705720  93.0245970
 116.6080570  92.4877920  92.2114660 116.5767850  91.2917600  93.1390490
 107.9498120  90.8378060 101.2146090 107.5561510  91.6853270 101.4218870
 107.2616520  90.2004430 101.4054730 114.5243170  90.9213030 104.2842830
 113.8341490  90.7285230 104.9188920 115.2675470  91.2047670 104.8167130
 105.2515170  88.7606520  95.2476170 104.9628220  89.3309380  95.9601150
 105.9960930  88.2810970  95.6107400 116.8006140  94.7611470  97.1196750
 116.0687260  95.2698280  97.4686850 116.4030480  93.9441450  96.8185530
 109.0885910  91.3192160  94.4843450 108.7485960  91.7967390  95.2410500
 108.3263230  90.8657280  94.1244550 120.6902800  87.6277330 102.3706070
 121.0148570  86.8966990 102.8964050 120.7259310  87.3090970 101.4687060
 107.3894360  98.6490910 101.7906030 107.0049150  98.0084580 102.3888990
 107.7006550  99.3527030 102.3600760 106.4031990  90.2411140  93.4008120
 106.1178910  89.8766810  94.2386740 106.3410850  89.5091600  92.7871260
 120.6160640  97.7402440  95.9792100 121.3359760  98.2357730  95.5888210
 120.4142460  97.0620330  95.3345970 116.0770580  89.1340400  90.1221490
 115.2635190  88.6353570  90.0466800 115.8832530  89.9738650  89.7057840
 115.9979440  97.8111500 101.8661100 115.9316750  96.8907170 101.6118690
 115.3684580  97.9086940 102.5805740 107.3854600  95.3778830 100.7370220
 107.0269540  96.0432680 101.3243560 107.0909160  94.5462380 101.1082840
 110.5867720  95.8363070 103.6209770 110.2867860  95.9820250 102.7237590
 111.3578960  95.2768360 103.5283160 115.9296170 100.6332070 101.6164900
 115.9440710  99.7013030 101.3983810 115.2221270 100.7191830 102.2554670
 122.0920490 101.6714150  90.6145640 121.4496650 101.0169770  90.8889360
 121.7051150 102.0769240  89.8386310 117.6706970  98.9999580  94.4617330
 118.0230790  98.4027710  93.8018700 116.7869300  98.6743810  94.6325580
 105.8962650  95.3770090  87.3604820 106.7657500  95.6594890  87.6440740
 105.4052970  96.1905960  87.2453630 115.3630070 102.2749640  98.7105400
 116.0072290 102.4809020  99.3878820 115.7259510 101.5138040  98.2576250
 118.4099770 101.0776890 100.6318910 118.7456010 101.6643580 101.3096830
 117.4900110 100.9469600 100.8616700 106.2633900 104.5897470  87.9266450
 106.6231540 105.1886810  87.2723720 106.1226240 105.1357360  88.7001480
 105.9603170  88.8672070 101.4142320 105.2461690  89.0668990 102.0194930
 106.3798210  88.0911640 101.7857120 106.2475760 102.8552330 102.4008850
 106.3566880 101.9147070 102.2604240 105.5956320 103.1207080 101.7522580
 114.2388350 101.1268220 103.8006970 113.9185220 100.4077460 104.3452660
 113.5646710 101.8023290 103.8743030 112.2802520 101.9728670  88.7440120
 112.2712620 102.7058360  88.1284630 111.3600880 101.7260250  88.8367080
 120.8203980  90.3151320  89.9731330 120.1917140  90.4196990  89.2589560
 120.3255900  90.5348100  90.7625210 116.8203440  89.3187930  92.8285000
 116.6971220  89.3374060  91.8794510 117.7688000  89.3666870  92.9483400
 113.9080230 104.5543230  92.1012980 114.1621730 104.5164620  91.1792350
 112.9592710 104.4276560  92.0941230 121.6210800  90.2301930 100.2310130
 121.1184400  90.9707330 100.5703940 122.4367460  90.6185930  99.9146920
 119.9132810  95.4735110  93.6771490 118.9722950  95.4885340  93.8519180
 120.2276880  94.6871070  94.1231790 106.2721400 100.8048740  90.8984390
 105.3461180 101.0469880  90.8889800 106.7377830 101.6323000  90.7769140
 108.3934200 103.9221240 104.2128460 109.1946930 104.2433290 104.6263860
 107.8786020 103.5616820 104.9348370 118.6599200 103.7581400 102.7713280
 119.6120950 103.6739420 102.7213520 118.5127420 104.4223110 103.4447070
 121.5508400 103.1375610  88.2705190 121.2649910 102.7240750  87.4559370
 121.3527950 104.0663320  88.1505710 106.1132010  96.4094700 103.1564510
 106.6171030  95.8301980 103.7280740 105.3739430  96.6934930 103.6940880
 113.1669950  97.8165690 102.6900030 112.4015620  98.3850690 102.6054700
 113.3485910  97.5241900 101.7968260 120.3093300  99.5471020 103.2475050
 121.0502770  99.8846780 102.7442510 119.5465980  99.7163080 102.6944820
 108.1455090  94.5524290 104.0514580 108.1860430  94.2538160 104.9599810
 109.0000590  94.9531900 103.8922100 110.0860900  93.1316390 102.0189070
 109.5557360  92.6407340 101.3912410 110.7548970  93.5600590 101.4847000
 118.9838960  97.5985850 101.7830260 119.3979980  97.7530930 102.6320680
 118.0489960  97.7241070 101.9456040 119.4561130  94.9382010 103.7869410
 120.0381900  94.1834330 103.6989890 119.6322900  95.4689450 103.0100890
 110.5733200  90.0978760 102.0986360 110.4790070  89.4799510 101.3737230
 109.9930590  90.8245050 101.8716270 116.0818090  95.2822510 101.1364030
 116.2014300  94.6863650 101.8758870 116.9412090  95.3192200 100.7165330
 118.4205990  95.8359700  99.7126540 117.8941210  96.3602320  99.1091680
 118.7637330  96.4687090 100.3436270 111.5961610 103.8559340 100.8683920
 111.0582700 104.5805400 100.5492620 111.8495570 103.3789680 100.0781260
 112.8486860  91.8243860 102.3939850 113.4386550  91.5159710 103.0817670
 112.0307100  91.3523610 102.5499750 118.2980690  88.0361300  88.6863130
 118.5782980  87.1929200  89.0422550 117.5246420  88.2684410  89.2001880
 114.4523820 105.0910550 101.1270570 114.3782520 105.9945690 101.4342940
 113.5502660 104.7722450 101.0992640 112.8360110  89.2688310  87.1310330
 112.4882110  88.5912300  86.5512780 113.0372880  88.8077820  87.9453720
 115.0009150 104.2569060  88.7496930 115.8959940 104.5954030  88.7715690
 115.0326780 103.5348470  88.1221210 108.6405310  99.6296110  86.9783930
 109.0780180 100.1725780  87.6341510 109.1253040  98.8043060  86.9880270
 105.8551110 102.4185140  94.4304190 106.1854120 101.5506200  94.1982830
 106.2842110 102.6243660  95.2609150 106.3441320 103.2855730  97.1685820
 105.9072310 103.4656530  98.0009970 106.9119000 104.0430350  97.0267540
 123.2204950 100.5290550  86.7932840 122.3897910 100.5967200  87.2640070
 123.3976780 101.4194670  86.4899700 122.6761410  97.2738030  89.2967040
 123.4380320  97.8434680  89.4026730 122.6915780  96.7065230  90.0675350
 123.6821380  98.1288130  94.1408970 124.0530210  97.3455450  93.7344940
 124.3223310  98.8177230  93.9626270 122.7280580  97.5672400  86.4539560
 123.0029420  98.4751280  86.3258780 122.5391320  97.5034930  87.3901550
 119.1256190  90.5917250  87.7493190 119.5441070  90.4048230  86.9089850
 118.8192250  89.7396300  88.0596120 122.6245920  95.5041390  91.4468990
 122.2489520  94.7369320  91.0150280 121.8949040  95.8864090  91.9343920
 107.2141680  96.1828530  98.0678040 107.5814720  96.0955930  98.9474060
 106.6452500  95.4195080  97.9684900 106.7657680  93.0937620 101.9736460
 105.8713730  93.0604380 102.3130170 107.3055230  93.2924410 102.7387710
 120.4533610  89.8769340 103.8588210 121.3303790  89.8852740 104.2422210
 120.4654450  89.1400180 103.2480560 105.3903830  93.0074890  89.4700030
 104.4867910  93.2705090  89.2951690 105.8744450  93.2786060  88.6899990
 121.8996880  93.7298880  94.7476230 122.4234360  93.2361530  94.1166400
 122.4856300  93.8649240  95.4923800 121.3896850  92.9872230  90.6868640
 121.8855970  92.7543100  91.4717520 121.1912920  92.1484070  90.2706280
 122.8184010  91.6233180  93.2206320 122.7083290  91.4689220  94.1588590
 123.5791600  91.0954120  92.9781730 121.1649730  87.5627310  99.6789320
 121.8021950  88.1761450 100.0448510 121.3124620  87.5987970  98.7338550
 123.7812770  90.2251760  89.0869170 122.9864270  90.1596880  89.6162080
 123.9856050  91.1602400  89.0754520 120.7231190 104.2643310  93.0807560
 121.3190260 103.9427880  92.4041980 120.9809340 103.7915130  93.8720830
 108.6293760 100.6961220 103.2298190 108.5863390 100.3254130 104.1112650
 108.7604770 101.6338790 103.3700010 114.5354210  88.7153500 102.5864420
 114.4743100  89.3075330 103.3359830 115.4754590  88.6079460 102.4414680
 108.4681790 103.6423470 100.3495970 107.8742110 103.5108170 101.0886010
 108.4605630 102.8061610  99.8838070 114.4434620 104.1135340  96.9122400
 114.7312430 103.8589640  96.0355410 114.9557840 103.5612700  97.5027970
 120.2132700  88.5548640  95.5368000 120.6540790  88.4993740  94.6889600
 119.9440290  89.4706650  95.6078180 122.0771270  88.1863880  93.5476820
 122.0159670  87.2425100  93.4007840 122.8563300  88.2943970  94.0930280
 106.3824020 104.3256240  92.5100770 106.2146060 103.6926920  93.2082660
 105.5158530 104.5315640  92.1594960 107.0052040  88.1573020  90.0132630
 107.7631400  88.2701900  89.4396660 106.5429210  88.9942220  89.9676060
 121.1925430  87.3376300  89.5158290 121.3876060  88.2359750  89.7825720
 120.4055300  87.1063380  90.0091240 107.9886720 103.0189470  89.9550910
 107.4634340 103.3997500  89.2512870 107.9131300 103.6440240  90.6760620
 111.5715030  88.4212210  91.6079990 110.9417770  87.7199520  91.7750120
 111.0320170  89.1816340  91.3913150 114.5106980 105.0351440 104.2790600
 115.4374290 104.7995710 104.3226560 114.4957410 105.8623440 103.7976630
 122.7452040 104.5777010  91.2764850 122.9204230 103.8914750  90.6325770
 122.0473610 105.1024060  90.8841520 111.6970590  87.6996190 104.0432480
 111.4154860  88.2029790 103.2793300 112.0790290  86.9017940 103.6774610
 109.7494480 101.0836580  88.8346490 109.1203360 101.5521680  89.3832320
 109.8642310 100.2385800  89.2692680 118.2986050  87.1149770 104.6212950
 118.1851500  87.4344380 105.5164470 119.1155790  87.5162280 104.3250230
 121.0784540 104.2621300 104.1031640 121.8709860 103.7670530 103.8957600
 121.3717690 104.9411440 104.7107250 117.2044200  95.1342240  74.9847690
 117.1238250  94.2196850  74.7139400 116.7908620  95.6309310  74.2787400
 119.3569670 101.3181450  75.6456090 118.8951200 100.5468690  75.9743260
 120.1695220 101.3447520  76.1508540 107.7620020  92.1842960  71.5275110
 106.8736720  92.5258930  71.4254990 108.0461210  91.9843280  70.6355940
 105.7253030  94.7848610  77.4114810 106.2969140  94.0170810  77.4118450
 105.7254570  95.0837370  76.5021420 115.5832980 103.6039460  75.2660080
 114.9644420 104.0596960  74.6954520 116.4384760 103.7590920  74.8649780
 106.9677900  90.1932970  79.1983740 106.7880740  89.2958720  79.4786500
 106.5657980  90.7404840  79.8730690 109.9381410  90.7674460  72.5613490
 110.0448160  91.6678190  72.8682250 109.0273770  90.7192430  72.2708140
 119.5900520  89.8899270  74.0324390 120.4110140  89.3995840  74.0749870
 119.6234600  90.4796930  74.7856230 107.5864570  92.6893470  77.8066080
 108.2674680  92.9531840  78.4253480 107.2712620  91.8494340  78.1404090
 123.8800070  91.9066020  80.5968020 123.1752240  92.2947730  80.0783130
 124.1457990  92.6016310  81.1988950 116.4496330  98.4878700  72.6591990
 115.8313600  98.9528150  72.0954710 116.9619580  99.1806180  73.0761500
 119.8262000  91.8299650  76.8051930 119.1217570  92.1184540  77.3855040
 120.1874160  92.6399760  76.4451490 109.7440570  90.0869350  79.1672540
 110.0857380  90.9311400  78.8726410 108.8056380  90.2353090  79.2837880
 105.8179530  99.1735230  70.0331620 105.4407510  99.6622330  69.3016520
 106.0752600  99.8460510  70.6638150 122.8948920  91.2754440  77.1961140
 121.9473830  91.3093420  77.3276570 123.2198910  92.0893390  77.5810500
 113.4268460  87.5751620  75.4917130 113.7343440  87.0198510  74.7752630
 112.4969160  87.7096080  75.3090120 118.9783520 103.2918910  77.7824590
 118.9910680 102.8881200  76.9146850 118.4258740 104.0666200  77.6786020
 120.2728940 100.0135130  72.8714760 120.1625270  99.0709460  72.9964180
 120.2697190 100.3750770  73.7577520 115.8149220  95.6400450  72.2277250
 114.8878500  95.5737830  72.4565720 115.9674040  96.5780580  72.1132490
 115.8018300  91.9117450  69.2244410 114.8621970  92.0731410  69.3096870
 116.1201560  92.6303130  68.6780400 119.8446510  97.2020750  72.7312500
 119.2258930  96.8640300  72.0838800 119.8270960  96.5580510  73.4391690
 119.2873070  93.3805290  80.1478310 118.8744250  94.2059000  80.4018300
 118.5549020  92.7950330  79.9554670 118.0211210  96.4407560  69.7385250
 118.4604490  95.6029990  69.5923070 118.7339630  97.0736960  69.8249390
 116.1306590 101.3803630  73.7066490 116.5702500 102.1227960  73.2921880
 116.0693480 101.6230200  74.6305450 108.1210490  95.0610170  72.5103630
 108.0008090  95.7872260  71.8984900 107.8111380  94.2913080  72.0331540
 116.8222370 104.0817410  81.6345500 117.3367040 103.9925420  82.4367930
 115.9791450 104.4277110  81.9273410 118.5002900 101.8760310  69.6227500
 117.8068060 101.8737600  68.9629780 119.2425760 101.4519630  69.1921670
 118.0652830 103.5023020  73.6975990 118.5209780 102.7212400  74.0114610
 118.4045350 104.2129840  74.2417170 122.8129640  92.4321870  84.0300430
 122.1973910  92.9401540  83.5015890 122.4926060  91.5320200  83.9726370
 105.8155380  99.2739480  80.8566730 105.9786420  98.8044840  80.0386100
 106.2807830  98.7663040  81.5215570 110.5874150  88.4045240  75.8927300
 110.1442300  89.1854780  75.5611820 111.1459140  88.7275130  76.5998240
 119.8748470  92.4922710  82.6259280 119.0242060  92.1928460  82.9468350
 119.7150260  92.7364720  81.7143100 116.9698180  93.9924460  84.7258070
 117.2951590  93.1588210  84.3860300 117.7578510  94.5152980  84.8736400
 113.7032970  88.0255940  70.7733130 113.0787150  88.0215810  71.4986440
 113.6163090  87.1586900  70.3769100 112.6250050  88.9492570  77.7516900
 112.9222380  89.8555400  77.6708920 113.1735610  88.4611350  77.1376470
 110.3788370  93.5278810  73.6208550 110.1529290  93.3115980  74.5255170
 109.5980900  93.9607270  73.2754520 117.6086130  93.5342180  72.2199200
 117.0095020  94.2577980  72.0362820 118.1565740  93.4718960  71.4375650
 116.2151000  92.1705720  74.2502480 116.6080570  92.4877920  73.4371170
 116.5767850  91.2917600  74.3647000 114.5243170  90.9213030  85.5099340
 113.8341490  90.7285230  86.1445430 115.2675470  91.2047670  86.0423640
 105.4385400  92.7026640  67.6835400 105.3560070  93.6457400  67.8250390
 105.0868460  92.5601550  66.8047750 113.2383530  91.4365670  76.7505750
 113.2419590  90.9955620  75.9010290 114.1334650  91.7583000  76.8577570
 109.0885910  91.3192160  75.7099960 108.7485960  91.7967390  76.4667010
 108.3263230  90.8657280  75.3501060 113.3003680  92.4377750  69.7412510
 113.4216500  92.3964230  70.6898330 112.9152190  93.3001900  69.5859240
 117.2632050  90.2145150  77.7576200 117.2804790  90.6653800  78.6018050
 117.0147630  89.3150790  77.9709640 112.3125180  94.7478890  69.1395810
 111.7442080  94.2997140  68.5131720 113.0214180  95.1071670  68.6060960
 107.3894360  98.6490910  83.0162540 107.0049150  98.0084580  83.6145500
 107.7006550  99.3527030  83.5857270 109.8572660  98.7437080  71.4122220
 109.0834920  98.2034700  71.2520940 110.5867290  98.2243690  71.0739980
 116.0770580  89.1340400  71.3478000 115.2635190  88.6353570  71.2723310
 115.8832530  89.9738650  70.9314350 118.7918970  93.5060050  69.6440160
 119.6798590  93.8177280  69.4691500 118.7624060  92.6332300  69.2520740
 114.7879560  99.6783740  70.3228330 115.1295260 100.4225970  69.8271650
 113.9592270  99.9914860  70.6853160 107.3854600  95.3778830  81.9626730
 107.0269540  96.0432680  82.5500070 107.0909160  94.5462380  82.3339350
 115.9296170 100.6332070  82.8421410 115.9440710  99.7013030  82.6240320
 115.2221270 100.7191830  83.4811180 121.0633240  94.8171890  69.1120020
 120.9796960  95.2486110  68.2616460 121.7827430  95.2770240  69.5446840
 122.0920490 101.6714150  71.8402150 121.4496650 101.0169770  72.1145870
 121.7051150 102.0769240  71.0642820 117.6706970  98.9999580  75.6873840
 118.0230790  98.4027710  75.0275210 116.7869300  98.6743810  75.8582090
 113.7570250  99.7597270  73.0944250 114.4441380 100.3066480  73.4751840
 112.9702670 100.3038000  73.1293860 105.8962650  95.3770090  68.5861330
 106.7657500  95.6594890  68.8697250 105.4052970  96.1905960  68.4710140
 113.0597460  96.7643300  72.7069610 113.5160240  97.5748550  72.9329800
 112.7085670  96.4466440  73.5388100 115.3630070 102.2749640  79.9361910
 116.0072290 102.4809020  80.6135330 115.7259510 101.5138040  79.4832760
 116.6362150 100.2781990  78.6539360 117.2784380  99.5775150  78.7671530
 117.1611500 101.0580430  78.4736250 120.4817870 100.5630610  68.3778500
 120.2555450  99.8461050  68.9703140 120.0914070 100.3143050  67.5400250
 106.2633900 104.5897470  69.1522960 106.6231540 105.1886810  68.4980230
 106.1226240 105.1357360  69.9257990 120.0634120  98.4802550  70.0392660
 119.7755820  98.9415240  70.8270540 120.8586290  98.0200320  70.3076880
 106.2475760 102.8552330  83.6265360 106.3566880 101.9147070  83.4860750
 105.5956320 103.1207080  82.9779090 107.8809160  97.1943560  70.7143390
 107.2737110  97.9342460  70.7238690 108.3558510  97.2842920  69.8881590
 117.4541950  91.3594380  80.3900280 117.8222770  90.5389590  80.7179850
 116.5940150  91.4196270  80.8055930 120.8203980  90.3151320  71.1987840
 120.1917140  90.4196990  70.4846070 120.3255900  90.5348100  71.9881720
 112.7888010  92.5937270  72.6145720 112.0804160  93.0623610  73.0559330
 113.0732490  91.9359280  73.2490910 116.8203440  89.3187930  74.0541510
 116.6971220  89.3374060  73.1051020 117.7688000  89.3666870  74.1739910
 110.9923030  90.9022350  69.9896430 111.8413560  91.3392500  69.9236620
 110.6254300  91.2142610  70.8168490 121.6210800  90.2301930  81.4566640
 121.1184400  90.9707330  81.7960450 122.4367460  90.6185930  81.1403430
 119.9132810  95.4735110  74.9028000 118.9722950  95.4885340  75.0775690
 120.2276880  94.6871070  75.3488300 108.5861210  94.5879780  69.1464850
 108.6664800  93.6407290  69.2582250 109.4780960  94.9186660  69.2525510
 106.2721400 100.8048740  72.1240900 105.3461180 101.0469880  72.1146310
 106.7377830 101.6323000  72.0025650 108.3934200 103.9221240  85.4384970
 109.1946930 104.2433290  85.8520370 107.8786020 103.5616820  86.1604880
 121.5508400 103.1375610  69.4961700 121.2649910 102.7240750  68.6815880
 121.3527950 104.0663320  69.3762220 106.1132010  96.4094700  84.3821020
 106.6171030  95.8301980  84.9537250 105.3739430  96.6934930  84.9197390
 113.3394640  88.6552000  80.3570260 112.8911940  88.6776260  79.5115810
 112.7059840  88.2571020  80.9540560 118.4205990  95.8359700  80.9383050
 117.8941210  96.3602320  80.3348190 118.7637330  96.4687090  81.5692780
 110.8192380  93.2253070  67.3832760 110.6181440  92.3620430  67.7446100
 110.6484430  93.1386430  66.4454360 111.5961610 103.8559340  82.0940430
 111.0582700 104.5805400  81.7749130 111.8495570 103.3789680  81.3037770
 112.8486860  91.8243860  83.6196360 113.4386550  91.5159710  84.3074180
 112.0307100  91.3523610  83.7756260 117.6680290  91.4409670  83.8529380
 116.9795810  90.7791210  83.7879370 118.3886310  90.9947940  84.2977840
 109.6175180  90.3253690  67.3710640 109.9201080  90.3321120  66.4629790
 110.3569770  89.9751550  67.8678300 114.4523820 105.0910550  82.3527080
 114.3782520 105.9945690  82.6599450 113.5502660 104.7722450  82.3249150
 112.8360110  89.2688310  68.3566840 112.4882110  88.5912300  67.7769290
 113.0372880  88.8077820  69.1710230 105.8551110 102.4185140  75.6560700
 106.1854120 101.5506200  75.4239340 106.2842110 102.6243660  76.4865660
 106.3441320 103.2855730  78.3942330 105.9072310 103.4656530  79.2266480
 106.9119000 104.0430350  78.2524050 123.2204950 100.5290550  68.0189350
 122.3897910 100.5967200  68.4896580 123.3976780 101.4194670  67.7156210
 122.6761410  97.2738030  70.5223550 123.4380320  97.8434680  70.6283240
 122.6915780  96.7065230  71.2931860 106.1765750  95.7975960  74.7531210
 105.5214590  95.5287600  74.1090910 107.0143700  95.6880440  74.3033190
 123.6821380  98.1288130  75.3665480 124.0530210  97.3455450  74.9601450
 124.3223310  98.8177230  75.1882780 122.7280580  97.5672400  67.6796070
 123.0029420  98.4751280  67.5515290 122.5391320  97.5034930  68.6158060
 119.1256190  90.5917250  68.9749700 119.5441070  90.4048230  68.1346360
 118.8192250  89.7396300  69.2852630 122.6245920  95.5041390  72.6725500
 122.2489520  94.7369320  72.2406790 121.8949040  95.8864090  73.1600430
 107.2141680  96.1828530  79.2934550 107.5814720  96.0955930  80.1730570
 106.6452500  95.4195080  79.1941410 122.0145540  94.6512910  82.3065020
 121.7831630  94.4225660  81.4062970 122.2750090  95.5712460  82.2609910
 105.3903830  93.0074890  70.6956540 104.4867910  93.2705090  70.5208200
 105.8744450  93.2786060  69.9156500 121.8996880  93.7298880  75.9732740
 122.4234360  93.2361530  75.3422910 122.4856300  93.8649240  76.7180310
 122.0786600  93.8138750  79.4952290 121.1289310  93.7802290  79.6097280
 122.2599610  94.7238860  79.2602060 107.9331040  92.0640430  68.6050920
 108.6422740  91.6423650  68.1198200 107.2170980  92.1315660  67.9734270
 107.5805200  88.1179760  67.6453570 108.3033330  88.6588700  67.9634790
 107.8529720  87.8443180  66.7695110 121.3896850  92.9872230  71.9125150
 121.8855970  92.7543100  72.6974030 121.1912920  92.1484070  71.4962790
 122.8184010  91.6233180  74.4462830 122.7083290  91.4689220  75.3845100
 123.5791600  91.0954120  74.2038240 120.7231190 104.2643310  74.3064070
 121.3190260 103.9427880  73.6298490 120.9809340 103.7915130  75.0977340
 108.6293760 100.6961220  84.4554700 108.5863390 100.3254130  85.3369160
 108.7604770 101.6338790  84.5956520 114.5354210  88.7153500  83.8120930
 114.4743100  89.3075330  84.5616340 115.4754590  88.6079460  83.6671190
 117.1728770  88.3723560  83.4513220 117.7869180  88.6902850  82.7894300
 117.7178330  87.8872150  84.0709080 108.4681790 103.6423470  81.5752480
 107.8742110 103.5108170  82.3142520 108.4605630 102.8061610  81.1094580
 118.8208790  89.1426570  81.1624230 118.4922150  88.3278330  80.7825960
 119.7691090  89.0996380  81.0389920 115.6611630  87.8525540  78.7175420
 114.8783420  88.3271040  78.9972180 115.3674560  86.9480370  78.6088600
 106.3824020 104.3256240  73.7357280 106.2146060 103.6926920  74.4339170
 105.5158530 104.5315640  73.3851470 107.0052040  88.1573020  71.2389140
 107.7631400  88.2701900  70.6653170 106.5429210  88.9942220  71.1932570
 113.5465850  90.2712290  74.2291450 112.7340360  89.8969180  73.8887330
 114.0507490  89.5157370  74.5312640 107.9886720 103.0189470  71.1807420
 107.4634340 103.3997500  70.4769380 107.9131300 103.6440240  71.9017130
 109.3777190  88.6837070  69.7791110 109.9069950  87.8966870  69.6499060
 110.0105510  89.3628260  70.0126640 111.5715030  88.4212210  72.8336500
 110.9417770  87.7199520  73.0006630 111.0320170  89.1816340  72.6169660
 114.5106980 105.0351440  85.5047110 115.4374290 104.7995710  85.5483070
 114.4957410 105.8623440  85.0233140 122.7452040 104.5777010  72.5021360
 122.9204230 103.8914750  71.8582280 122.0473610 105.1024060  72.1098030
 110.5879690 104.9671850  70.0556670 111.3198510 104.6831130  69.5080560
 110.8473360 104.7285130  70.9456050 109.7494480 101.0836580  70.0603000
 109.1203360 101.5521680  70.6088830 109.8642310 100.2385800  70.4949190
 118.2986050  87.1149770  85.8469460 118.1851500  87.4344380  86.7420980
 119.1155790  87.5162280  85.5506740 109.3528070  97.2241070  58.9689230
 108.5212950  96.9689780  59.3685740 109.9609050  97.2951840  59.7047150
 119.3569670 101.3181450  56.8712600 118.8951200 100.5468690  57.1999770
 120.1695220 101.3447520  57.3765050 105.7253030  94.7848610  58.6371320
 106.2969140  94.0170810  58.6374960 105.7254570  95.0837370  57.7277930
 106.9677900  90.1932970  60.4240250 106.7880740  89.2958720  60.7043010
 106.5657980  90.7404840  61.0987200 115.8076400  92.3948830  58.3252560
 116.1841220  91.5220710  58.2126230 115.7095910  92.7307530  57.4343000
 119.5900520  89.8899270  55.2580900 120.4110140  89.3995840  55.3006380
 119.6234600  90.4796930  56.0112740 107.5864570  92.6893470  59.0322590
 108.2674680  92.9531840  59.6509990 107.2712620  91.8494340  59.3660600
 110.0625240  88.3759390  62.3858600 110.0643680  88.8931780  61.5804500
 109.2329550  87.8989570  62.3628530 111.3128090  98.0154570  60.5632100
 110.9797470  98.6423490  61.2053170 111.4894770  98.5416450  59.7833770
 119.8262000  91.8299650  58.0308440 119.1217570  92.1184540  58.6111550
 120.1874160  92.6399760  57.6708000 109.7440570  90.0869350  60.3929050
 110.0857380  90.9311400  60.0982920 108.8056380  90.2353090  60.5094390
 121.4424780 101.4474780  60.2935920 120.7588300 102.1173890  60.2852590
 121.9819070 101.6455430  59.5280780 118.9783520 103.2918910  59.0081100
 118.9910680 102.8881200  58.1403360 118.4258740 104.0666200  58.9042530
 120.2728940 100.0135130  54.0971270 120.1625270  99.0709460  54.2220690
 120.2697190 100.3750770  54.9834030 118.3768960  98.1948750  60.3363710
 118.7937750  97.9808860  59.5017170 119.1008780  98.4521540  60.9072330
 115.8018300  91.9117450  50.4500920 114.8621970  92.0731410  50.5353380
 116.1201560  92.6303130  49.9036910 119.8446510  97.2020750  53.9569010
 119.2258930  96.8640300  53.3095310 119.8270960  96.5580510  54.6648200
 119.2873070  93.3805290  61.3734820 118.8744250  94.2059000  61.6274810
 118.5549020  92.7950330  61.1811180 110.1334480  92.9408400  60.0152530
 110.6849070  93.0503740  59.2405780 110.6477990  93.3146000  60.7307760
 119.9773170 103.4264620  62.0615800 119.5003730 104.2336810  61.8688410
 119.2934960 102.7742950  62.2142010 118.0211210  96.4407560  50.9641760
 118.4604490  95.6029990  50.8179580 118.7339630  97.0736960  51.0505900
 121.6028350  87.6950370  49.2782800 121.2901010  87.7877200  50.1781870
 122.3640820  88.2731400  49.2280230 123.5572380 103.1876560  67.1307190
 124.0332100 103.6659450  67.8096270 124.1779540 103.1194050  66.4052690
 122.9605630 100.3789410  64.2907200 123.0868690 100.1401290  63.3724380
 123.0027010  99.5473950  64.7629280 116.8222370 104.0817410  62.8602010
 117.3367040 103.9925420  63.6624440 115.9791450 104.4277110  63.1529920
 118.7976770 104.3672750  52.2886010 118.6377910 104.0775690  53.1867840
 118.6323480 103.5912880  51.7531240 118.5002900 101.8760310  50.8484010
 117.8068060 101.8737600  50.1886290 119.2425760 101.4519630  50.4178180
 122.8129640  92.4321870  65.2556940 122.1973910  92.9401540  64.7272400
 122.4926060  91.5320200  65.1982880 114.8743960  91.2713760  62.7219130
 114.4123330  91.4796780  63.5339070 114.4722070  90.4573110  62.4189800
 119.8748470  92.4922710  63.8515790 119.0242060  92.1928460  64.1724860
 119.7150260  92.7364720  62.9399610 112.6250050  88.9492570  58.9773410
 112.9222380  89.8555400  58.8965430 113.1735610  88.4611350  58.3632980
 107.9498120  90.8378060  63.6659110 107.5561510  91.6853270  63.8731890
 107.2616520  90.2004430  63.8567750 114.5243170  90.9213030  66.7355850
 113.8341490  90.7285230  67.3701940 115.2675470  91.2047670  67.2680150
 105.2515170  88.7606520  57.6989190 104.9628220  89.3309380  58.4114170
 105.9960930  88.2810970  58.0620420 116.8006140  94.7611470  59.5709770
 116.0687260  95.2698280  59.9199870 116.4030480  93.9441450  59.2698550
 117.2632050  90.2145150  58.9832710 117.2804790  90.6653800  59.8274560
 117.0147630  89.3150790  59.1966150 113.5391500  95.4967450  59.7227670
 113.9061630  95.0226020  60.4689010 113.3496560  96.3709020  60.0636010
 106.4031990  90.2411140  55.8521140 106.1178910  89.8766810  56.6899760
 106.3410850  89.5091600  55.2384280 116.0770580  89.1340400  52.5734510
 115.2635190  88.6353570  52.4979820 115.8832530  89.9738650  52.1570860
 118.7918970  93.5060050  50.8696670 119.6798590  93.8177280  50.6948010
 118.7624060  92.6332300  50.4777250 107.3854600  95.3778830  63.1883240
 107.0269540  96.0432680  63.7756580 107.0909160  94.5462380  63.5595860
 121.0633240  94.8171890  50.3376530 120.9796960  95.2486110  49.4872970
 121.7827430  95.2770240  50.7703350 122.0920490 101.6714150  53.0658660
 121.4496650 101.0169770  53.3402380 121.7051150 102.0769240  52.2899330
 115.3630070 102.2749640  61.1618420 116.0072290 102.4809020  61.8391840
 115.7259510 101.5138040  60.7089270 108.9609240  87.1080950  54.4048640
 108.8323870  87.0998850  55.3533560 108.1371260  87.4464040  54.0539650
 120.4817870 100.5630610  49.6035010 120.2555450  99.8461050  50.1959650
 120.0914070 100.3143050  48.7656760 118.4099770 101.0776890  63.0831930
 118.7456010 101.6643580  63.7609850 117.4900110 100.9469600  63.3129720
 105.9603170  88.8672070  63.8655340 105.2461690  89.0668990  64.4707950
 106.3798210  88.0911640  64.2370140 120.0634120  98.4802550  51.2649170
 119.7755820  98.9415240  52.0527050 120.8586290  98.0200320  51.5333390
 117.4541950  91.3594380  61.6156790 117.8222770  90.5389590  61.9436360
 116.5940150  91.4196270  62.0312440 120.8203980  90.3151320  52.4244350
 120.1917140  90.4196990  51.7102580 120.3255900  90.5348100  53.2138230
 116.8203440  89.3187930  55.2798020 116.6971220  89.3374060  54.3307530
 117.7688000  89.3666870  55.3996420 119.9132810  95.4735110  56.1284510
 118.9722950  95.4885340  56.3032200 120.2276880  94.6871070  56.5744810
 121.9158390 102.6443960  57.8038770 122.0405810 103.4675130  58.2762580
 122.7823950 102.4334690  57.4562920 108.3934200 103.9221240  66.6641480
 109.1946930 104.2433290  67.0776880 107.8786020 103.5616820  67.3861390
 118.6599200 103.7581400  65.2226300 119.6120950 103.6739420  65.1726540
 118.5127420 104.4223110  65.8960090 121.5508400 103.1375610  50.7218210
 121.2649910 102.7240750  49.9072390 121.3527950 104.0663320  50.6018730
 116.2558360  98.1928920  49.7665810 115.7068460  98.6398220  50.4108550
 116.8777620  97.6878170  50.2903480 120.3093300  99.5471020  65.6988070
 121.0502770  99.8846780  65.1955530 119.5465980  99.7163080  65.1457840
 108.1455090  94.5524290  66.5027600 108.1860430  94.2538160  67.4112830
 109.0000590  94.9531900  66.3435120 110.0860900  93.1316390  64.4702090
 109.5557360  92.6407340  63.8425430 110.7548970  93.5600590  63.9360020
 110.5733200  90.0978760  64.5499380 110.4790070  89.4799510  63.8250250
 109.9930590  90.8245050  64.3229290 113.3394640  88.6552000  61.5826770
 112.8911940  88.6776260  60.7372320 112.7059840  88.2571020  62.1797070
 112.8486860  91.8243860  64.8452870 113.4386550  91.5159710  65.5330690
 112.0307100  91.3523610  65.0012770 117.6680290  91.4409670  65.0785890
 116.9795810  90.7791210  65.0135880 118.3886310  90.9947940  65.5234350
 118.2980690  88.0361300  51.1376150 118.5782980  87.1929200  51.4935570
 117.5246420  88.2684410  51.6514900 114.4523820 105.0910550  63.5783590
 114.3782520 105.9945690  63.8855960 113.5502660 104.7722450  63.5505660
 112.8360110  89.2688310  49.5823350 112.4882110  88.5912300  49.0025800
 113.0372880  88.8077820  50.3966740 115.0009150 104.2569060  51.2009950
 115.8959940 104.5954030  51.2228710 115.0326780 103.5348470  50.5734230
 121.9803500 102.7872730  63.9076150 121.3805490 102.8465290  63.1640070
 122.1097400 101.8477710  64.0373000 123.2204950 100.5290550  49.2445860
 122.3897910 100.5967200  49.7153090 123.3976780 101.4194670  48.9412720
 122.6761410  97.2738030  51.7480060 123.4380320  97.8434680  51.8539750
 122.6915780  96.7065230  52.5188370 106.1765750  95.7975960  55.9787720
 105.5214590  95.5287600  55.3347420 107.0143700  95.6880440  55.5289700
 120.6655140  99.5124710  62.0052310 119.8514980  99.9421870  62.2678100
 121.0729340 100.1243120  61.3921360 122.7280580  97.5672400  48.9052580
 123.0029420  98.4751280  48.7771800 122.5391320  97.5034930  49.8414570
 119.1256190  90.5917250  50.2006210 119.5441070  90.4048230  49.3602870
 118.8192250  89.7396300  50.5109140 122.6245920  95.5041390  53.8982010
 122.2489520  94.7369320  53.4663300 121.8949040  95.8864090  54.3856940
 107.2141680  96.1828530  60.5191060 107.5814720  96.0955930  61.3987080
 106.6452500  95.4195080  60.4197920 106.7657680  93.0937620  64.4249480
 105.8713730  93.0604380  64.7643190 107.3055230  93.2924410  65.1900730
 120.4533610  89.8769340  66.3101230 121.3303790  89.8852740  66.6935230
 120.4654450  89.1400180  65.6993580 105.3903830  93.0074890  51.9213050
 104.4867910  93.2705090  51.7464710 105.8744450  93.2786060  51.1413010
 121.3896850  92.9872230  53.1381660 121.8855970  92.7543100  53.9230540
 121.1912920  92.1484070  52.7219300 107.2697390  87.3685950  58.7732700
 107.9173580  86.8183330  58.3327860 107.6899230  87.6229100  59.5948510
 122.8184010  91.6233180  55.6719340 122.7083290  91.4689220  56.6101610
 123.5791600  91.0954120  55.4294750 123.7074280  89.4541100  48.9125480
 124.6323590  89.3222280  48.7043770 123.6850070  89.5333920  49.8661930
 123.7812770  90.2251760  51.5382190 122.9864270  90.1596880  52.0675100
 123.9856050  91.1602400  51.5267540 120.7231190 104.2643310  55.5320580
 121.3190260 103.9427880  54.8555000 120.9809340 103.7915130  56.3233850
 107.0229390  87.5241620  61.5158020 106.6744210  87.9805440  62.2816200
 106.6917090  86.6298750  61.5980450 112.3299790 102.2520810  61.2820930
 112.0891150 102.5195370  60.3951450 113.2702430 102.4226540  61.3371790
 114.5354210  88.7153500  65.0377440 114.4743100  89.3075330  65.7872850
 115.4754590  88.6079460  64.8927700 117.1728770  88.3723560  64.6769730
 117.7869180  88.6902850  64.0150810 117.7178330  87.8872150  65.2965590
 123.5903950 104.2715190  62.0831570 123.0962230 104.6684060  61.3658700
 122.9817240 103.6464400  62.4768850 107.6950030  87.0517820  64.7908790
 108.2433020  86.8705870  64.0274900 107.7605340  86.2611930  65.3265100
 117.9136810  86.9355700  61.0039020 117.0396650  87.2690810  60.8011950
 117.8047560  86.4628880  61.8290890 118.8208790  89.1426570  62.3880740
 118.4922150  88.3278330  62.0082470 119.7691090  89.0996380  62.2646430
 121.2743400 104.9138610  59.3618310 120.8146370 105.6654420  58.9876330
 120.6455860 104.1945080  59.3033110 114.4434620 104.1135340  59.3635420
 114.7312430 103.8589640  58.4868430 114.9557840 103.5612700  59.9540990
 115.6611630  87.8525540  59.9431930 114.8783420  88.3271040  60.2228690
 115.3674560  86.9480370  59.8345110 120.2132700  88.5548640  57.9881020
 120.6540790  88.4993740  57.1402620 119.9440290  89.4706650  58.0591200
 107.0052040  88.1573020  52.4645650 107.7631400  88.2701900  51.8909680
 106.5429210  88.9942220  52.4189080 118.0490830  86.9354740  56.6931030
 118.6520200  87.5074950  57.1679550 117.3083820  87.4994180  56.4704930
 121.1925430  87.3376300  51.9671310 121.3876060  88.2359750  52.2338740
 120.4055300  87.1063380  52.4604260 122.7452040 104.5777010  53.7277870
 122.9204230 103.8914750  53.0838790 122.0473610 105.1024060  53.3354540
 111.6970590  87.6996190  66.4945500 111.4154860  88.2029790  65.7306320
 112.0790290  86.9017940  66.1287630 121.0784540 104.2621300  66.5544660
 121.8709860 103.7670530  66.3470620 121.3717690 104.9411440  67.1620270
 115.3362240  96.9121260  39.3169980 114.5604340  96.4321700  39.6068550
 115.9875170  96.2326910  39.1426140 109.3528070  97.2241070  40.1945740
 108.5212950  96.9689780  40.5942250 109.9609050  97.2951840  40.9303660
 119.3569670 101.3181450  38.0969110 118.8951200 100.5468690  38.4256280
 120.1695220 101.3447520  38.6021560 109.3329330 101.2581160  40.3903760
 109.6357370 100.3678900  40.2113980 110.0772920 101.8151380  40.1626010
 105.7253030  94.7848610  39.8627830 106.2969140  94.0170810  39.8631470
 105.7254570  95.0837370  38.9534440 115.5832980 103.6039460  37.7173100
 114.9644420 104.0596960  37.1467540 116.4384760 103.7590920  37.3162800
 114.7771230  99.5878450  39.3240140 114.7079510  98.6468390  39.1629270
 115.5391090  99.6779860  39.8962710 109.9381410  90.7674460  35.0126510
 110.0448160  91.6678190  35.3195270 109.0273770  90.7192430  34.7221160
 107.5864570  92.6893470  40.2579100 108.2674680  92.9531840  40.8766500
 107.2712620  91.8494340  40.5917110 111.7789140  93.7360830  39.3451690
 112.2867360  94.2341800  39.9856710 112.3102380  92.9596030  39.1691050
 123.8800070  91.9066020  43.0481040 123.1752240  92.2947730  42.5296150
 124.1457990  92.6016310  43.6501970 116.4496330  98.4878700  35.1105010
 115.8313600  98.9528150  34.5467730 116.9619580  99.1806180  35.5274520
 111.3128090  98.0154570  41.7888610 110.9797470  98.6423490  42.4309680
 111.4894770  98.5416450  41.0090280 109.7440570  90.0869350  41.6185560
 110.0857380  90.9311400  41.3239430 108.8056380  90.2353090  41.7350900
 110.5247190  99.9835370  43.6037790 111.1421190 100.6586450  43.3222240
 109.6640310 100.3923350  43.5125290 105.8179530  99.1735230  32.4844640
 105.4407510  99.6622330  31.7529540 106.0752600  99.8460510  33.1151170
 121.4424780 101.4474780  41.5192430 120.7588300 102.1173890  41.5109100
 121.9819070 101.6455430  40.7537290 122.8948920  91.2754440  39.6474160
 121.9473830  91.3093420  39.7789590 123.2198910  92.0893390  40.0323520
 118.9783520 103.2918910  40.2337610 118.9910680 102.8881200  39.3659870
 118.4258740 104.0666200  40.1299040 120.2728940 100.0135130  35.3227780
 120.1625270  99.0709460  35.4477200 120.2697190 100.3750770  36.2090540
 118.3768960  98.1948750  41.5620220 118.7937750  97.9808860  40.7273680
 119.1008780  98.4521540  42.1328840 115.8018300  91.9117450  31.6757430
 114.8621970  92.0731410  31.7609890 116.1201560  92.6303130  31.1293420
 122.3231060  96.5935970  41.6536460 121.4949690  96.6629060  41.1786590
 122.9181540  97.1790280  41.1852290 119.8446510  97.2020750  35.1825520
 119.2258930  96.8640300  34.5351820 119.8270960  96.5580510  35.8904710
 119.2873070  93.3805290  42.5991330 118.8744250  94.2059000  42.8531320
 118.5549020  92.7950330  42.4067690 111.4205860  96.1665190  37.4610000
 111.0162860  95.4542440  36.9655900 111.5068980  95.8218430  38.3498040
 111.8887560  99.8532750  39.6249210 111.5915850  99.2478220  38.9456990
 112.8387380  99.8910060  39.5138570 110.1334480  92.9408400  41.2409040
 110.6849070  93.0503740  40.4662290 110.6477990  93.3146000  41.9564270
 119.9773170 103.4264620  43.2872310 119.5003730 104.2336810  43.0944920
 119.2934960 102.7742950  43.4398520 116.1306590 101.3803630  36.1579510
 116.5702500 102.1227960  35.7434900 116.0693480 101.6230200  37.0818470
 111.6057560 102.4049460  47.0599530 111.5772990 102.8092410  46.1927960
 111.4422530 101.4759820  46.8971130 121.6028350  87.6950370  30.5039310
 121.2901010  87.7877200  31.4038380 122.3640820  88.2731400  30.4536740
 108.1210490  95.0610170  34.9616650 108.0008090  95.7872260  34.3497920
 107.8111380  94.2913080  34.4844560 123.5572380 103.1876560  48.3563700
 124.0332100 103.6659450  49.0352780 124.1779540 103.1194050  47.6309200
 105.7595860  98.2325310  40.7685290 105.8376280  98.3674080  39.8241010
 106.3737540  97.5241200  40.9613410 107.0043490  99.9325500  37.1791470
 106.5971570 100.0740090  36.3245070 107.8956500  99.6485660  36.9762680
 122.9605630 100.3789410  45.5163710 123.0868690 100.1401290  44.5980890
 123.0027010  99.5473950  45.9885790 116.8222370 104.0817410  44.0858520
 117.3367040 103.9925420  44.8880950 115.9791450 104.4277110  44.3786430
 118.7976770 104.3672750  33.5142520 118.6377910 104.0775690  34.4124350
 118.6323480 103.5912880  32.9787750 111.2765150 104.1471280  35.2914140
 111.1007630 103.2306820  35.0781940 110.4220890 104.5058570  35.5311940
 118.5002900 101.8760310  32.0740520 117.8068060 101.8737600  31.4142800
 119.2425760 101.4519630  31.6434690 118.0652830 103.5023020  36.1489010
 118.5209780 102.7212400  36.4627630 118.4045350 104.2129840  36.6930190
 122.8129640  92.4321870  46.4813450 122.1973910  92.9401540  45.9528910
 122.4926060  91.5320200  46.4239390 105.8155380  99.2739480  43.3079750
 105.9786420  98.8044840  42.4899120 106.2807830  98.7663040  43.9728590
 110.5874150  88.4045240  38.3440320 110.1442300  89.1854780  38.0124840
 111.1459140  88.7275130  39.0511260 114.8743960  91.2713760  43.9475640
 114.4123330  91.4796780  44.7595580 114.4722070  90.4573110  43.6446310
 119.8748470  92.4922710  45.0772300 119.0242060  92.1928460  45.3981370
 119.7150260  92.7364720  44.1656120 116.9698180  93.9924460  47.1771090
 117.2951590  93.1588210  46.8373320 117.7578510  94.5152980  47.3249420
 112.6250050  88.9492570  40.2029920 112.9222380  89.8555400  40.1221940
 113.1735610  88.4611350  39.5889490 110.3788370  93.5278810  36.0721570
 110.1529290  93.3115980  36.9768190 109.5980900  93.9607270  35.7267540
 112.8187580  94.4264390  46.7381840 112.7231180  93.4859120  46.5882240
 113.6619560  94.6479460  46.3429910 114.5243170  90.9213030  47.9612360
 113.8341490  90.7285230  48.5958450 115.2675470  91.2047670  48.4936660
 105.4385400  92.7026640  30.1348420 105.3560070  93.6457400  30.2763410
 105.0868460  92.5601550  29.2560770 116.8006140  94.7611470  40.7966280
 116.0687260  95.2698280  41.1456380 116.4030480  93.9441450  40.4955060
 109.0885910  91.3192160  38.1612980 108.7485960  91.7967390  38.9180030
 108.3263230  90.8657280  37.8014080 117.2632050  90.2145150  40.2089220
 117.2804790  90.6653800  41.0531070 117.0147630  89.3150790  40.4222660
 112.3125180  94.7478890  31.5908830 111.7442080  94.2997140  30.9644740
 113.0214180  95.1071670  31.0573980 120.6902800  87.6277330  46.0475600
 121.0148570  86.8966990  46.5733580 120.7259310  87.3090970  45.1456590
 107.3894360  98.6490910  45.4675560 107.0049150  98.0084580  46.0658520
 107.7006550  99.3527030  46.0370290 113.5391500  95.4967450  40.9484180
 113.9061630  95.0226020  41.6945520 113.3496560  96.3709020  41.2892520
 111.3290870  94.5376090  43.2668390 111.0247940  95.4168070  43.4918750
 112.2837330  94.5975880  43.3025830 109.8572660  98.7437080  33.8635240
 109.0834920  98.2034700  33.7033960 110.5867290  98.2243690  33.5253000
 120.6160640  97.7402440  39.6561630 121.3359760  98.2357730  39.2657740
 120.4142460  97.0620330  39.0115500 115.9979440  97.8111500  45.5430630
 115.9316750  96.8907170  45.2888220 115.3684580  97.9086940  46.2575270
 109.9010060  98.4117460  37.5014050 110.4188730  97.6085720  37.4470940
 109.4494080  98.3496600  38.3430880 114.7879560  99.6783740  32.7741350
 115.1295260 100.4225970  32.2784670 113.9592270  99.9914860  33.1366180
 115.9296170 100.6332070  45.2934430 115.9440710  99.7013030  45.0753340
 115.2221270 100.7191830  45.9324200 121.0633240  94.8171890  31.5633040
 120.9796960  95.2486110  30.7129480 121.7827430  95.2770240  31.9959860
 122.1407380  97.2739410  44.6403010 121.4155570  97.8668190  44.4432400
 122.6682840  97.2662950  43.8416380 122.0920490 101.6714150  34.2915170
 121.4496650 101.0169770  34.5658890 121.7051150 102.0769240  33.5155840
 117.6706970  98.9999580  38.1386860 118.0230790  98.4027710  37.4788230
 116.7869300  98.6743810  38.3095110 113.7570250  99.7597270  35.5457270
 114.4441380 100.3066480  35.9264860 112.9702670 100.3038000  35.5806880
 105.8962650  95.3770090  31.0374350 106.7657500  95.6594890  31.3210270
 105.4052970  96.1905960  30.9223160 115.3630070 102.2749640  42.3874930
 116.0072290 102.4809020  43.0648350 115.7259510 101.5138040  41.9345780
 116.6362150 100.2781990  41.1052380 117.2784380  99.5775150  41.2184550
 117.1611500 101.0580430  40.9249270 120.4817870 100.5630610  30.8291520
 120.2555450  99.8461050  31.4216160 120.0914070 100.3143050  29.9913270
 118.4099770 101.0776890  44.3088440 118.7456010 101.6643580  44.9866360
 117.4900110 100.9469600  44.5386230 120.0634120  98.4802550  32.4905680
 119.7755820  98.9415240  33.2783560 120.8586290  98.0200320  32.7589900
 114.2388350 101.1268220  47.4776500 113.9185220 100.4077460  48.0222190
 113.5646710 101.8023290  47.5512560 112.2802520 101.9728670  32.4209650
 112.2712620 102.7058360  31.8054160 111.3600880 101.7260250  32.5136610
 107.8809160  97.1943560  33.1656410 107.2737110  97.9342460  33.1751710
 108.3558510  97.2842920  32.3394610 117.4541950  91.3594380  42.8413300
 117.8222770  90.5389590  43.1692870 116.5940150  91.4196270  43.2568950
 120.8203980  90.3151320  33.6500860 120.1917140  90.4196990  32.9359090
 120.3255900  90.5348100  34.4394740 115.2662120 102.0356910  31.0834840
 115.3674100 101.8320900  30.1536820 114.3663860 101.7815190  31.2882620
 114.4143940  94.0133970  43.0651270 114.9129190  94.4879790  43.7303120
 114.5566890  93.0897490  43.2721300 113.9080230 104.5543230  35.7782510
 114.1621730 104.5164620  34.8561880 112.9592710 104.4276560  35.7710760
 110.9923030  90.9022350  32.4409450 111.8413560  91.3392500  32.3749640
 110.6254300  91.2142610  33.2681510 121.6210800  90.2301930  43.9079660
 121.1184400  90.9707330  44.2473470 122.4367460  90.6185930  43.5916450
 109.8914450  97.1554710  30.9144980 110.6577720  97.0436070  31.4770410
 109.9689140  96.4592680  30.2621750 108.5861210  94.5879780  31.5977870
 108.6664800  93.6407290  31.7095270 109.4780960  94.9186660  31.7038530
 121.9158390 102.6443960  39.0295280 122.0405810 103.4675130  39.5019090
 122.7823950 102.4334690  38.6819430 109.3875920 104.7375170  38.7012410
 110.1238400 104.1890630  38.9720980 109.7716840 105.6031180  38.5618400
 106.2721400 100.8048740  34.5753920 105.3461180 101.0469880  34.5659330
 106.7377830 101.6323000  34.4538670 108.3934200 103.9221240  47.8897990
 109.1946930 104.2433290  48.3033390 107.8786020 103.5616820  48.6117900
 112.4978230 103.9105480  30.5237980 113.2906840 104.1994310  30.0719770
 111.9782580 103.4797650  29.8450460 117.2298830 100.0301110  47.8373400
 116.6236990 100.0532710  47.0969150 116.9252940  99.2984150  48.3740650
 118.6599200 103.7581400  46.4482810 119.6120950 103.6739420  46.3983050
 118.5127420 104.4223110  47.1216600 121.5508400 103.1375610  31.9474720
 121.2649910 102.7240750  31.1328900 121.3527950 104.0663320  31.8275240
 113.0155630  99.1308890  30.3880330 112.9106270  98.5161240  31.1141710
 112.8479850  98.6074780  29.6043340 116.2558360  98.1928920  30.9922320
 115.7068460  98.6398220  31.6365060 116.8777620  97.6878170  31.5159990
 120.3093300  99.5471020  46.9244580 121.0502770  99.8846780  46.4212040
 119.5465980  99.7163080  46.3714350 111.9233480  97.1519840  32.8887620
 112.3449900  96.9859710  33.7319010 112.0484320  96.3420070  32.3942760
 114.4361120  96.1757450  30.1364720 114.9566780  95.4606470  29.7705870
 115.0829520  96.8143320  30.4365230 118.9838960  97.5985850  45.4599790
 119.3979980  97.7530930  46.3090210 118.0489960  97.7241070  45.6225570
 119.4561130  94.9382010  47.4638940 120.0381900  94.1834330  47.3759420
 119.6322900  95.4689450  46.6870420 110.5733200  90.0978760  45.7755890
 110.4790070  89.4799510  45.0506760 109.9930590  90.8245050  45.5485800
 113.3394640  88.6552000  42.8083280 112.8911940  88.6776260  41.9628830
 112.7059840  88.2571020  43.4053580 113.7454190  97.5506330  43.4295720
 114.1642300  98.3939060  43.2571960 112.8262820  97.6878370  43.2002500
 116.0818090  95.2822510  44.8133560 116.2014300  94.6863650  45.5528400
 116.9412090  95.3192200  44.3934860 118.4205990  95.8359700  43.3896070
 117.8941210  96.3602320  42.7861210 118.7637330  96.4687090  44.0205800
 110.8192380  93.2253070  29.8345780 110.6181440  92.3620430  30.1959120
 110.6484430  93.1386430  28.8967380 112.8486860  91.8243860  46.0709380
 113.4386550  91.5159710  46.7587200 112.0307100  91.3523610  46.2269280
 117.6680290  91.4409670  46.3042400 116.9795810  90.7791210  46.2392390
 118.3886310  90.9947940  46.7490860 109.6175180  90.3253690  29.8223660
 109.9201080  90.3321120  28.9142810 110.3569770  89.9751550  30.3191320
 114.4523820 105.0910550  44.8040100 114.3782520 105.9945690  45.1112470
 113.5502660 104.7722450  44.7762170 112.8360110  89.2688310  30.8079860
 112.4882110  88.5912300  30.2282310 113.0372880  88.8077820  31.6223250
 115.0009150 104.2569060  32.4266460 115.8959940 104.5954030  32.4485220
 115.0326780 103.5348470  31.7990740 108.6405310  99.6296110  30.6553460
 109.0780180 100.1725780  31.3111040 109.1253040  98.8043060  30.6649800
 105.8551110 102.4185140  38.1073720 106.1854120 101.5506200  37.8752360
 106.2842110 102.6243660  38.9378680 110.4513030 100.7494150  35.7675690
 110.1508570 100.6259120  36.6679600 110.3450520  99.8902740  35.3591420
 121.9803500 102.7872730  45.1332660 121.3805490 102.8465290  44.3896580
 122.1097400 101.8477710  45.2629510 123.2204950 100.5290550  30.4702370
 122.3897910 100.5967200  30.9409600 123.3976780 101.4194670  30.1669230
 122.6761410  97.2738030  32.9736570 123.4380320  97.8434680  33.0796260
 122.6915780  96.7065230  33.7444880 106.1765750  95.7975960  37.2044230
 105.5214590  95.5287600  36.5603930 107.0143700  95.6880440  36.7546210
 123.6821380  98.1288130  37.8178500 124.0530210  97.3455450  37.4114470
 124.3223310  98.8177230  37.6395800 120.6655140  99.5124710  43.2308820
 119.8514980  99.9421870  43.4934610 121.0729340 100.1243120  42.6177870
 122.7280580  97.5672400  30.1309090 123.0029420  98.4751280  30.0028310
 122.5391320  97.5034930  31.0671080 119.1256190  90.5917250  31.4262720
 119.5441070  90.4048230  30.5859380 118.8192250  89.7396300  31.7365650
 122.6245920  95.5041390  35.1238520 122.2489520  94.7369320  34.6919810
 121.8949040  95.8864090  35.6113450 107.2141680  96.1828530  41.7447570
 107.5814720  96.0955930  42.6243590 106.6452500  95.4195080  41.6454430
 122.0145540  94.6512910  44.7578040 121.7831630  94.4225660  43.8575990
 122.2750090  95.5712460  44.7122930 120.4533610  89.8769340  47.5357740
 121.3303790  89.8852740  47.9191740 120.4654450  89.1400180  46.9250090
 121.8996880  93.7298880  38.4245760 122.4234360  93.2361530  37.7935930
 122.4856300  93.8649240  39.1693330 122.0786600  93.8138750  41.9465310
 121.1289310  93.7802290  42.0610300 122.2599610  94.7238860  41.7115080
 107.9331040  92.0640430  31.0563940 108.6422740  91.6423650  30.5711220
 107.2170980  92.1315660  30.4247290 107.5805200  88.1179760  30.0966590
 108.3033330  88.6588700  30.4147810 107.8529720  87.8443180  29.2208130
 122.8184010  91.6233180  36.8975850 122.7083290  91.4689220  37.8358120
 123.5791600  91.0954120  36.6551260 121.1649730  87.5627310  43.3558850
 121.8021950  88.1761450  43.7218040 121.3124620  87.5987970  42.4108080
 123.7074280  89.4541100  30.1381990 124.6323590  89.3222280  29.9300280
 123.6850070  89.5333920  31.0918440 123.7812770  90.2251760  32.7638700
 122.9864270  90.1596880  33.2931610 123.9856050  91.1602400  32.7524050
 120.7231190 104.2643310  36.7577090 121.3190260 103.9427880  36.0811510
 120.9809340 103.7915130  37.5490360 112.3299790 102.2520810  42.5077440
 112.0891150 102.5195370  41.6207960 113.2702430 102.4226540  42.5628300
 114.5354210  88.7153500  46.2633950 114.4743100  89.3075330  47.0129360
 115.4754590  88.6079460  46.1184210 117.1728770  88.3723560  45.9026240
 117.7869180  88.6902850  45.2407320 117.7178330  87.8872150  46.5222100
 123.5903950 104.2715190  43.3088080 123.0962230 104.6684060  42.5915210
 122.9817240 103.6464400  43.7025360 118.8208790  89.1426570  43.6137250
 118.4922150  88.3278330  43.2338980 119.7691090  89.0996380  43.4902940
 121.2743400 104.9138610  40.5874820 120.8146370 105.6654420  40.2132840
 120.6455860 104.1945080  40.5289620 108.0994020 101.0081850  42.9773540
 107.3728080 100.3887140  42.9099490 108.1603170 101.4022460  42.1071620
 111.7039120 103.2226850  39.7622950 112.2204140 102.6114210  39.2371210
 112.3536500 103.7255630  40.2533960 114.4434620 104.1135340  40.5891930
 114.7312430 103.8589640  39.7124940 114.9557840 103.5612700  41.1797500
 120.2132700  88.5548640  39.2137530 120.6540790  88.4993740  38.3659130
 119.9440290  89.4706650  39.2847710 122.0771270  88.1863880  37.2246350
 122.0159670  87.2425100  37.0777370 122.8563300  88.2943970  37.7699810
 121.1925430  87.3376300  33.1927820 121.3876060  88.2359750  33.4595250
 120.4055300  87.1063380  33.6860770 111.5715030  88.4212210  35.2849520
 110.9417770  87.7199520  35.4519650 111.0320170  89.1816340  35.0682680
 114.5106980 105.0351440  47.9560130 115.4374290 104.7995710  47.9996090
 114.4957410 105.8623440  47.4746160 122.7452040 104.5777010  34.9534380
 122.9204230 103.8914750  34.3095300 122.0473610 105.1024060  34.5611050
 111.6970590  87.6996190  47.7202010 111.4154860  88.2029790  46.9562830
 112.0790290  86.9017940  47.3544140 109.7494480 101.0836580  32.5116020
 109.1203360 101.5521680  33.0601850 109.8642310 100.2385800  32.9462210
 118.2986050  87.1149770  48.2982480 118.1851500  87.4344380  49.1934000
 119.1155790  87.5162280  48.0019760 121.0784540 104.2621300  47.7801170
 121.8709860 103.7670530  47.5727130 121.3717690 104.9411440  48.3876780
 117.2044200  95.1342240  18.6617220 117.1238250  94.2196850  18.3908930
 116.7908620  95.6309310  17.9556930 115.3362240  96.9121260  20.5426490
 114.5604340  96.4321700  20.8325060 115.9875170  96.2326910  20.3682650
 109.3528070  97.2241070  21.4202250 108.5212950  96.9689780  21.8198760
 109.9609050  97.2951840  22.1560170 119.3569670 101.3181450  19.3225620
 118.8951200 100.5468690  19.6512790 120.1695220 101.3447520  19.8278070
 109.3329330 101.2581160  21.6160270 109.6357370 100.3678900  21.4370490
 110.0772920 101.8151380  21.3882520 107.7620020  92.1842960  15.2044640
 106.8736720  92.5258930  15.1024520 108.0461210  91.9843280  14.3125470
 115.5832980 103.6039460  18.9429610 114.9644420 104.0596960  18.3724050
 116.4384760 103.7590920  18.5419310 114.7771230  99.5878450  20.5496650
 114.7079510  98.6468390  20.3885780 115.5391090  99.6779860  21.1219220
 106.9677900  90.1932970  22.8753270 106.7880740  89.2958720  23.1556030
 106.5657980  90.7404840  23.5500220 115.8076400  92.3948830  20.7765580
 116.1841220  91.5220710  20.6639250 115.7095910  92.7307530  19.8856020
 109.9381410  90.7674460  16.2383020 110.0448160  91.6678190  16.5451780
 109.0273770  90.7192430  15.9477670 119.5900520  89.8899270  17.7093920
 120.4110140  89.3995840  17.7519400 119.6234600  90.4796930  18.4625760
 111.7789140  93.7360830  20.5708200 112.2867360  94.2341800  21.2113220
 112.3102380  92.9596030  20.3947560 123.8800070  91.9066020  24.2737550
 123.1752240  92.2947730  23.7552660 124.1457990  92.6016310  24.8758480
 110.0625240  88.3759390  24.8371620 110.0643680  88.8931780  24.0317520
 109.2329550  87.8989570  24.8141550 116.4496330  98.4878700  16.3361520
 115.8313600  98.9528150  15.7724240 116.9619580  99.1806180  16.7531030
 111.3128090  98.0154570  23.0145120 110.9797470  98.6423490  23.6566190
 111.4894770  98.5416450  22.2346790 119.8262000  91.8299650  20.4821460
 119.1217570  92.1184540  21.0624570 120.1874160  92.6399760  20.1221020
 109.7440570  90.0869350  22.8442070 110.0857380  90.9311400  22.5495940
 108.8056380  90.2353090  22.9607410 110.5247190  99.9835370  24.8294300
 111.1421190 100.6586450  24.5478750 109.6640310 100.3923350  24.7381800
 105.8179530  99.1735230  13.7101150 105.4407510  99.6622330  12.9786050
 106.0752600  99.8460510  14.3407680 121.4424780 101.4474780  22.7448940
 120.7588300 102.1173890  22.7365610 121.9819070 101.6455430  21.9793800
 122.8948920  91.2754440  20.8730670 121.9473830  91.3093420  21.0046100
 123.2198910  92.0893390  21.2580030 113.4268460  87.5751620  19.1686660
 113.7343440  87.0198510  18.4522160 112.4969160  87.7096080  18.9859650
 118.9783520 103.2918910  21.4594120 118.9910680 102.8881200  20.5916380
 118.4258740 104.0666200  21.3555550 120.2728940 100.0135130  16.5484290
 120.1625270  99.0709460  16.6733710 120.2697190 100.3750770  17.4347050
 118.3768960  98.1948750  22.7876730 118.7937750  97.9808860  21.9530190
 119.1008780  98.4521540  23.3585350 115.8149220  95.6400450  15.9046780
 114.8878500  95.5737830  16.1335250 115.9674040  96.5780580  15.7902020
 115.8018300  91.9117450  12.9013940 114.8621970  92.0731410  12.9866400
 116.1201560  92.6303130  12.3549930 122.3231060  96.5935970  22.8792970
 121.4949690  96.6629060  22.4043100 122.9181540  97.1790280  22.4108800
 119.8446510  97.2020750  16.4082030 119.2258930  96.8640300  15.7608330
 119.8270960  96.5580510  17.1161220 119.2873070  93.3805290  23.8247840
 118.8744250  94.2059000  24.0787830 118.5549020  92.7950330  23.6324200
 111.4205860  96.1665190  18.6866510 111.0162860  95.4542440  18.1912410
 111.5068980  95.8218430  19.5754550 111.8887560  99.8532750  20.8505720
 111.5915850  99.2478220  20.1713500 112.8387380  99.8910060  20.7395080
 110.1334480  92.9408400  22.4665550 110.6849070  93.0503740  21.6918800
 110.6477990  93.3146000  23.1820780 119.9773170 103.4264620  24.5128820
 119.5003730 104.2336810  24.3201430 119.2934960 102.7742950  24.6655030
 110.9805990  99.5914440  27.5013520 110.0834520  99.8154410  27.7486920
 111.0058860  99.7149380  26.5524920 118.0211210  96.4407560  13.4154780
 118.4604490  95.6029990  13.2692600 118.7339630  97.0736960  13.5018920
 109.8077210  96.4627760  26.0770890 109.6684980  97.3350560  26.4458290
 108.9258570  96.1200570  25.9318830 116.1306590 101.3803630  17.3836020
 116.5702500 102.1227960  16.9691410 116.0693480 101.6230200  18.3074980
 111.6057560 102.4049460  28.2856040 111.5772990 102.8092410  27.4184470
 111.4422530 101.4759820  28.1227640 121.6028350  87.6950370  11.7295820
 121.2901010  87.7877200  12.6294890 122.3640820  88.2731400  11.6793250
 108.1210490  95.0610170  16.1873160 108.0008090  95.7872260  15.5754430
 107.8111380  94.2913080  15.7101070 123.5572380 103.1876560  29.5820210
 124.0332100 103.6659450  30.2609290 124.1779540 103.1194050  28.8565710
 105.7595860  98.2325310  21.9941800 105.8376280  98.3674080  21.0497520
 106.3737540  97.5241200  22.1869920 107.0043490  99.9325500  18.4047980
 106.5971570 100.0740090  17.5501580 107.8956500  99.6485660  18.2019190
 122.9605630 100.3789410  26.7420220 123.0868690 100.1401290  25.8237400
 123.0027010  99.5473950  27.2142300 116.8222370 104.0817410  25.3115030
 117.3367040 103.9925420  26.1137460 115.9791450 104.4277110  25.6042940
 118.7976770 104.3672750  14.7399030 118.6377910 104.0775690  15.6380860
 118.6323480 103.5912880  14.2044260 111.2765150 104.1471280  16.5170650
 111.1007630 103.2306820  16.3038450 110.4220890 104.5058570  16.7568450
 118.5002900 101.8760310  13.2997030 117.8068060 101.8737600  12.6399310
 119.2425760 101.4519630  12.8691200 118.0652830 103.5023020  17.3745520
 118.5209780 102.7212400  17.6884140 118.4045350 104.2129840  17.9186700
 122.8129640  92.4321870  27.7069960 122.1973910  92.9401540  27.1785420
 122.4926060  91.5320200  27.6495900 105.8155380  99.2739480  24.5336260
 105.9786420  98.8044840  23.7155630 106.2807830  98.7663040  25.1985100
 110.5874150  88.4045240  19.5696830 110.1442300  89.1854780  19.2381350
 111.1459140  88.7275130  20.2767770 114.8743960  91.2713760  25.1732150
 114.4123330  91.4796780  25.9852090 114.4722070  90.4573110  24.8702820
 119.8748470  92.4922710  26.3028810 119.0242060  92.1928460  26.6237880
 119.7150260  92.7364720  25.3912630 116.9698180  93.9924460  28.4027600
 117.2951590  93.1588210  28.0629830 117.7578510  94.5152980  28.5505930
 113.7032970  88.0255940  14.4502660 113.0787150  88.0215810  15.1755970
 113.6163090  87.1586900  14.0538630 112.6250050  88.9492570  21.4286430
 112.9222380  89.8555400  21.3478450 113.1735610  88.4611350  20.8146000
 110.3788370  93.5278810  17.2978080 110.1529290  93.3115980  18.2024700
 109.5980900  93.9607270  16.9524050 117.6086130  93.5342180  15.8968730
 117.0095020  94.2577980  15.7132350 118.1565740  93.4718960  15.1145180
 112.8187580  94.4264390  27.9638350 112.7231180  93.4859120  27.8138750
 113.6619560  94.6479460  27.5686420 116.2151000  92.1705720  17.9272010
 116.6080570  92.4877920  17.1140700 116.5767850  91.2917600  18.0416530
 114.5243170  90.9213030  29.1868870 113.8341490  90.7285230  29.8214960
 115.2675470  91.2047670  29.7193170 105.2515170  88.7606520  20.1502210
 104.9628220  89.3309380  20.8627190 105.9960930  88.2810970  20.5133440
 105.4385400  92.7026640  11.3604930 105.3560070  93.6457400  11.5019920
 105.0868460  92.5601550  10.4817280 116.8006140  94.7611470  22.0222790
 116.0687260  95.2698280  22.3712890 116.4030480  93.9441450  21.7211570
 113.2383530  91.4365670  20.4275280 113.2419590  90.9955620  19.5779820
 114.1334650  91.7583000  20.5347100 109.0885910  91.3192160  19.3869490
 108.7485960  91.7967390  20.1436540 108.3263230  90.8657280  19.0270590
 113.3003680  92.4377750  13.4182040 113.4216500  92.3964230  14.3667860
 112.9152190  93.3001900  13.2628770 117.2632050  90.2145150  21.4345730
 117.2804790  90.6653800  22.2787580 117.0147630  89.3150790  21.6479170
 112.3125180  94.7478890  12.8165340 111.7442080  94.2997140  12.1901250
 113.0214180  95.1071670  12.2830490 120.6902800  87.6277330  27.2732110
 121.0148570  86.8966990  27.7990090 120.7259310  87.3090970  26.3713100
 107.3894360  98.6490910  26.6932070 107.0049150  98.0084580  27.2915030
 107.7006550  99.3527030  27.2626800 113.5391500  95.4967450  22.1740690
 113.9061630  95.0226020  22.9202030 113.3496560  96.3709020  22.5149030
 106.4031990  90.2411140  18.3034160 106.1178910  89.8766810  19.1412780
 106.3410850  89.5091600  17.6897300 111.3290870  94.5376090  24.4924900
 111.0247940  95.4168070  24.7175260 112.2837330  94.5975880  24.5282340
 109.8572660  98.7437080  15.0891750 109.0834920  98.2034700  14.9290470
 110.5867290  98.2243690  14.7509510 120.6160640  97.7402440  20.8818140
 121.3359760  98.2357730  20.4914250 120.4142460  97.0620330  20.2372010
 116.0770580  89.1340400  15.0247530 115.2635190  88.6353570  14.9492840
 115.8832530  89.9738650  14.6083880 115.9979440  97.8111500  26.7687140
 115.9316750  96.8907170  26.5144730 115.3684580  97.9086940  27.4831780
 118.7918970  93.5060050  13.3209690 119.6798590  93.8177280  13.1461030
 118.7624060  92.6332300  12.9290270 109.9010060  98.4117460  18.7270560
 110.4188730  97.6085720  18.6727450 109.4494080  98.3496600  19.5687390
 114.7879560  99.6783740  13.9997860 115.1295260 100.4225970  13.5041180
 113.9592270  99.9914860  14.3622690 110.5867720  95.8363070  28.5235810
 110.2867860  95.9820250  27.6263630 111.3578960  95.2768360  28.4309200
 115.9296170 100.6332070  26.5190940 115.9440710  99.7013030  26.3009850
 115.2221270 100.7191830  27.1580710 121.0633240  94.8171890  12.7889550
 120.9796960  95.2486110  11.9385990 121.7827430  95.2770240  13.2216370
 122.1407380  97.2739410  25.8659520 121.4155570  97.8668190  25.6688910
 122.6682840  97.2662950  25.0672890 122.0920490 101.6714150  15.5171680
 121.4496650 101.0169770  15.7915400 121.7051150 102.0769240  14.7412350
 117.6706970  98.9999580  19.3643370 118.0230790  98.4027710  18.7044740
 116.7869300  98.6743810  19.5351620 113.7570250  99.7597270  16.7713780
 114.4441380 100.3066480  17.1521370 112.9702670 100.3038000  16.8063390
 105.8962650  95.3770090  12.2630860 106.7657500  95.6594890  12.5466780
 105.4052970  96.1905960  12.1479670 113.0597460  96.7643300  16.3839140
 113.5160240  97.5748550  16.6099330 112.7085670  96.4466440  17.2157630
 115.3630070 102.2749640  23.6131440 116.0072290 102.4809020  24.2904860
 115.7259510 101.5138040  23.1602290 108.9609240  87.1080950  16.8561660
 108.8323870  87.0998850  17.8046580 108.1371260  87.4464040  16.5052670
 116.6362150 100.2781990  22.3308890 117.2784380  99.5775150  22.4441060
 117.1611500 101.0580430  22.1505780 120.4817870 100.5630610  12.0548030
 120.2555450  99.8461050  12.6472670 120.0914070 100.3143050  11.2169780
 118.4099770 101.0776890  25.5344950 118.7456010 101.6643580  26.2122870
 117.4900110 100.9469600  25.7642740 106.2633900 104.5897470  12.8292490
 106.6231540 105.1886810  12.1749760 106.1226240 105.1357360  13.6027520
 120.0634120  98.4802550  13.7162190 119.7755820  98.9415240  14.5040070
 120.8586290  98.0200320  13.9846410 106.2475760 102.8552330  27.3034890
 106.3566880 101.9147070  27.1630280 105.5956320 103.1207080  26.6548620
 114.2388350 101.1268220  28.7033010 113.9185220 100.4077460  29.2478700
 113.5646710 101.8023290  28.7769070 112.2802520 101.9728670  13.6466160
 112.2712620 102.7058360  13.0310670 111.3600880 101.7260250  13.7393120
 107.8809160  97.1943560  14.3912920 107.2737110  97.9342460  14.4008220
 108.3558510  97.2842920  13.5651120 117.4541950  91.3594380  24.0669810
 117.8222770  90.5389590  24.3949380 116.5940150  91.4196270  24.4825460
 120.8203980  90.3151320  14.8757370 120.1917140  90.4196990  14.1615600
 120.3255900  90.5348100  15.6651250 115.2662120 102.0356910  12.3091350
 115.3674100 101.8320900  11.3793330 114.3663860 101.7815190  12.5139130
 112.7888010  92.5937270  16.2915250 112.0804160  93.0623610  16.7328860
 113.0732490  91.9359280  16.9260440 114.4143940  94.0133970  24.2907780
 114.9129190  94.4879790  24.9559630 114.5566890  93.0897490  24.4977810
 116.8203440  89.3187930  17.7311040 116.6971220  89.3374060  16.7820550
 117.7688000  89.3666870  17.8509440 113.9080230 104.5543230  17.0039020
 114.1621730 104.5164620  16.0818390 112.9592710 104.4276560  16.9967270
 110.9923030  90.9022350  13.6665960 111.8413560  91.3392500  13.6006150
 110.6254300  91.2142610  14.4938020 121.6210800  90.2301930  25.1336170
 121.1184400  90.9707330  25.4729980 122.4367460  90.6185930  24.8172960
 119.9132810  95.4735110  18.5797530 118.9722950  95.4885340  18.7545220
 120.2276880  94.6871070  19.0257830 109.8914450  97.1554710  12.1401490
 110.6577720  97.0436070  12.7026920 109.9689140  96.4592680  11.4878260
 108.5861210  94.5879780  12.8234380 108.6664800  93.6407290  12.9351780
 109.4780960  94.9186660  12.9295040 121.9158390 102.6443960  20.2551790
 122.0405810 103.4675130  20.7275600 122.7823950 102.4334690  19.9075940
 109.3875920 104.7375170  19.9268920 110.1238400 104.1890630  20.1977490
 109.7716840 105.6031180  19.7874910 106.2721400 100.8048740  15.8010430
 105.3461180 101.0469880  15.7915840 106.7377830 101.6323000  15.6795180
 112.4978230 103.9105480  11.7494490 113.2906840 104.1994310  11.2976280
 111.9782580 103.4797650  11.0706970 117.2298830 100.0301110  29.0629910
 116.6236990 100.0532710  28.3225660 116.9252940  99.2984150  29.5997160
 118.6599200 103.7581400  27.6739320 119.6120950 103.6739420  27.6239560
 118.5127420 104.4223110  28.3473110 121.5508400 103.1375610  13.1731230
 121.2649910 102.7240750  12.3585410 121.3527950 104.0663320  13.0531750
 106.1132010  96.4094700  28.0590550 106.6171030  95.8301980  28.6306780
 105.3739430  96.6934930  28.5966920 113.0155630  99.1308890  11.6136840
 112.9106270  98.5161240  12.3398220 112.8479850  98.6074780  10.8299850
 113.1669950  97.8165690  27.5926070 112.4015620  98.3850690  27.5080740
 113.3485910  97.5241900  26.6994300 116.2558360  98.1928920  12.2178830
 115.7068460  98.6398220  12.8621570 116.8777620  97.6878170  12.7416500
 120.3093300  99.5471020  28.1501090 121.0502770  99.8846780  27.6468550
 119.5465980  99.7163080  27.5970860 108.1455090  94.5524290  28.9540620
 108.1860430  94.2538160  29.8625850 109.0000590  94.9531900  28.7948140
 111.9233480  97.1519840  14.1144130 112.3449900  96.9859710  14.9575520
 112.0484320  96.3420070  13.6199270 110.0860900  93.1316390  26.9215110
 109.5557360  92.6407340  26.2938450 110.7548970  93.5600590  26.3873040
 114.4361120  96.1757450  11.3621230 114.9566780  95.4606470  10.9962380
 115.0829520  96.8143320  11.6621740 118.9838960  97.5985850  26.6856300
 119.3979980  97.7530930  27.5346720 118.0489960  97.7241070  26.8482080
 119.4561130  94.9382010  28.6895450 120.0381900  94.1834330  28.6015930
 119.6322900  95.4689450  27.9126930 110.5733200  90.0978760  27.0012400
 110.4790070  89.4799510  26.2763270 109.9930590  90.8245050  26.7742310
 113.3394640  88.6552000  24.0339790 112.8911940  88.6776260  23.1885340
 112.7059840  88.2571020  24.6310090 113.7454190  97.5506330  24.6552230
 114.1642300  98.3939060  24.4828470 112.8262820  97.6878370  24.4259010
 116.0818090  95.2822510  26.0390070 116.2014300  94.6863650  26.7784910
 116.9412090  95.3192200  25.6191370 118.4205990  95.8359700  24.6152580
 117.8941210  96.3602320  24.0117720 118.7637330  96.4687090  25.2462310
 110.8192380  93.2253070  11.0602290 110.6181440  92.3620430  11.4215630
 110.6484430  93.1386430  10.1223890 111.5961610 103.8559340  25.7709960
 111.0582700 104.5805400  25.4518660 111.8495570 103.3789680  24.9807300
 112.8486860  91.8243860  27.2965890 113.4386550  91.5159710  27.9843710
 112.0307100  91.3523610  27.4525790 117.6680290  91.4409670  27.5298910
 116.9795810  90.7791210  27.4648900 118.3886310  90.9947940  27.9747370
 118.2980690  88.0361300  13.5889170 118.5782980  87.1929200  13.9448590
 117.5246420  88.2684410  14.1027920 109.6175180  90.3253690  11.0480170
 109.9201080  90.3321120  10.1399320 110.3569770  89.9751550  11.5447830
 114.4523820 105.0910550  26.0296610 114.3782520 105.9945690  26.3368980
 113.5502660 104.7722450  26.0018680 112.8360110  89.2688310  12.0336370
 112.4882110  88.5912300  11.4538820 113.0372880  88.8077820  12.8479760
 115.0009150 104.2569060  13.6522970 115.8959940 104.5954030  13.6741730
 115.0326780 103.5348470  13.0247250 108.6405310  99.6296110  11.8809970
 109.0780180 100.1725780  12.5367550 109.1253040  98.8043060  11.8906310
 105.8551110 102.4185140  19.3330230 106.1854120 101.5506200  19.1008870
 106.2842110 102.6243660  20.1635190 110.4513030 100.7494150  16.9932200
 110.1508570 100.6259120  17.8936110 110.3450520  99.8902740  16.5847930
 106.3441320 103.2855730  22.0711860 105.9072310 103.4656530  22.9036010
 106.9119000 104.0430350  21.9293580 121.9803500 102.7872730  26.3589170
 121.3805490 102.8465290  25.6153090 122.1097400 101.8477710  26.4886020
 123.2204950 100.5290550  11.6958880 122.3897910 100.5967200  12.1666110
 123.3976780 101.4194670  11.3925740 122.6761410  97.2738030  14.1993080
 123.4380320  97.8434680  14.3052770 122.6915780  96.7065230  14.9701390
 106.1765750  95.7975960  18.4300740 105.5214590  95.5287600  17.7860440
 107.0143700  95.6880440  17.9802720 123.6821380  98.1288130  19.0435010
 124.0530210  97.3455450  18.6370980 124.3223310  98.8177230  18.8652310
 120.6655140  99.5124710  24.4565330 119.8514980  99.9421870  24.7191120
 121.0729340 100.1243120  23.8434380 122.7280580  97.5672400  11.3565600
 123.0029420  98.4751280  11.2284820 122.5391320  97.5034930  12.2927590
 119.1256190  90.5917250  12.6519230 119.5441070  90.4048230  11.8115890
 118.8192250  89.7396300  12.9622160 122.6245920  95.5041390  16.3495030
 122.2489520  94.7369320  15.9176320 121.8949040  95.8864090  16.8369960
 122.0145540  94.6512910  25.9834550 121.7831630  94.4225660  25.0832500
 122.2750090  95.5712460  25.9379440 120.4533610  89.8769340  28.7614250
 121.3303790  89.8852740  29.1448250 120.4654450  89.1400180  28.1506600
 105.3903830  93.0074890  14.3726070 104.4867910  93.2705090  14.1977730
 105.8744450  93.2786060  13.5926030 121.8996880  93.7298880  19.6502270
 122.4234360  93.2361530  19.0192440 122.4856300  93.8649240  20.3949840
 122.0786600  93.8138750  23.1721820 121.1289310  93.7802290  23.2866810
 122.2599610  94.7238860  22.9371590 107.9331040  92.0640430  12.2820450
 108.6422740  91.6423650  11.7967730 107.2170980  92.1315660  11.6503800
 107.5805200  88.1179760  11.3223100 108.3033330  88.6588700  11.6404320
 107.8529720  87.8443180  10.4464640 121.3896850  92.9872230  15.5894680
 121.8855970  92.7543100  16.3743560 121.1912920  92.1484070  15.1732320
 107.2697390  87.3685950  21.2245720 107.9173580  86.8183330  20.7840880
 107.6899230  87.6229100  22.0461530 122.8184010  91.6233180  18.1232360
 122.7083290  91.4689220  19.0614630 123.5791600  91.0954120  17.8807770
 121.1649730  87.5627310  24.5815360 121.8021950  88.1761450  24.9474550
 121.3124620  87.5987970  23.6364590 123.7074280  89.4541100  11.3638500
 124.6323590  89.3222280  11.1556790 123.6850070  89.5333920  12.3174950
 123.7812770  90.2251760  13.9895210 122.9864270  90.1596880  14.5188120
 123.9856050  91.1602400  13.9780560 120.7231190 104.2643310  17.9833600
 121.3190260 103.9427880  17.3068020 120.9809340 103.7915130  18.7746870
 107.0229390  87.5241620  23.9671040 106.6744210  87.9805440  24.7329220
 106.6917090  86.6298750  24.0493470 108.6293760 100.6961220  28.1324230
 108.5863390 100.3254130  29.0138690 108.7604770 101.6338790  28.2726050
 112.3299790 102.2520810  23.7333950 112.0891150 102.5195370  22.8464470
 113.2702430 102.4226540  23.7884810 114.5354210  88.7153500  27.4890460
 114.4743100  89.3075330  28.2385870 115.4754590  88.6079460  27.3440720
 117.1728770  88.3723560  27.1282750 117.7869180  88.6902850  26.4663830
 117.7178330  87.8872150  27.7478610 123.5903950 104.2715190  24.5344590
 123.0962230 104.6684060  23.8171720 122.9817240 103.6464400  24.9281870
 107.6950030  87.0517820  27.2421810 108.2433020  86.8705870  26.4787920
 107.7605340  86.2611930  27.7778120 108.4681790 103.6423470  25.2522010
 107.8742110 103.5108170  25.9912050 108.4605630 102.8061610  24.7864110
 117.9136810  86.9355700  23.4552040 117.0396650  87.2690810  23.2524970
 117.8047560  86.4628880  24.2803910 118.8208790  89.1426570  24.8393760
 118.4922150  88.3278330  24.4595490 119.7691090  89.0996380  24.7159450
 121.2743400 104.9138610  21.8131330 120.8146370 105.6654420  21.4389350
 120.6455860 104.1945080  21.7546130 108.0994020 101.0081850  24.2030050
 107.3728080 100.3887140  24.1356000 108.1603170 101.4022460  23.3328130
 111.7039120 103.2226850  20.9879460 112.2204140 102.6114210  20.4627720
 112.3536500 103.7255630  21.4790470 114.4434620 104.1135340  21.8148440
 114.7312430 103.8589640  20.9381450 114.9557840 103.5612700  22.4054010
 115.6611630  87.8525540  22.3944950 114.8783420  88.3271040  22.6741710
 115.3674560  86.9480370  22.2858130 120.2132700  88.5548640  20.4394040
 120.6540790  88.4993740  19.5915640 119.9440290  89.4706650  20.5104220
 122.0771270  88.1863880  18.4502860 122.0159670  87.2425100  18.3033880
 122.8563300  88.2943970  18.9956320 106.3824020 104.3256240  17.4126810
 106.2146060 103.6926920  18.1108700 105.5158530 104.5315640  17.0621000
 107.0052040  88.1573020  14.9158670 107.7631400  88.2701900  14.3422700
 106.5429210  88.9942220  14.8702100 113.5465850  90.2712290  17.9060980
 112.7340360  89.8969180  17.5656860 114.0507490  89.5157370  18.2082170
 118.0490830  86.9354740  19.1444050 118.6520200  87.5074950  19.6192570
 117.3083820  87.4994180  18.9217950 121.1925430  87.3376300  14.4184330
 121.3876060  88.2359750  14.6851760 120.4055300  87.1063380  14.9117280
 107.9886720 103.0189470  14.8576950 107.4634340 103.3997500  14.1538910
 107.9131300 103.6440240  15.5786660 109.3777190  88.6837070  13.4560640
 109.9069950  87.8966870  13.3268590 110.0105510  89.3628260  13.6896170
 111.5715030  88.4212210  16.5106030 110.9417770  87.7199520  16.6776160
 111.0320170  89.1816340  16.2939190 114.5106980 105.0351440  29.1816640
 115.4374290 104.7995710  29.2252600 114.4957410 105.8623440  28.7002670
 122.7452040 104.5777010  16.1790890 122.9204230 103.8914750  15.5351810
 122.0473610 105.1024060  15.7867560 111.6970590  87.6996190  28.9458520
 111.4154860  88.2029790  28.1819340 112.0790290  86.9017940  28.5800650
 110.5879690 104.9671850  13.7326200 111.3198510 104.6831130  13.1850090
 110.8473360 104.7285130  14.6225580 109.7494480 101.0836580  13.7372530
 109.1203360 101.5521680  14.2858360 109.8642310 100.2385800  14.1718720
 121.0784540 104.2621300  29.0057680 121.8709860 103.7670530  28.7983640
 121.3717690 104.9411440  29.6133290 115.3362240  96.9121260   1.7683000
 114.5604340  96.4321700   2.0581570 115.9875170  96.2326910   1.5939160
 109.3528070  97.2241070   2.6458760 108.5212950  96.9689780   3.0455270
 109.9609050  97.2951840   3.3816680 109.3329330 101.2581160   2.8416780
 109.6357370 100.3678900   2.6627000 110.0772920 101.8151380   2.6139030
 114.7771230  99.5878450   1.7753160 114.7079510  98.6468390   1.6142290
 115.5391090  99.6779860   2.3475730 106.9677900  90.1932970   4.1009780
 106.7880740  89.2958720   4.3812540 106.5657980  90.7404840   4.7756730
 107.5864570  92.6893470   2.7092120 108.2674680  92.9531840   3.3279520
 107.2712620  91.8494340   3.0430130 111.7789140  93.7360830   1.7964710
 112.2867360  94.2341800   2.4369730 112.3102380  92.9596030   1.6204070
 123.8800070  91.9066020   5.4994060 123.1752240  92.2947730   4.9809170
 124.1457990  92.6016310   6.1014990 110.0625240  88.3759390   6.0628130
 110.0643680  88.8931780   5.2574030 109.2329550  87.8989570   6.0398060
 111.3128090  98.0154570   4.2401630 110.9797470  98.6423490   4.8822700
 111.4894770  98.5416450   3.4603300 109.7440570  90.0869350   4.0698580
 110.0857380  90.9311400   3.7752450 108.8056380  90.2353090   4.1863920
 110.5247190  99.9835370   6.0550810 111.1421190 100.6586450   5.7735260
 109.6640310 100.3923350   5.9638310 121.4424780 101.4474780   3.9705450
 120.7588300 102.1173890   3.9622120 121.9819070 101.6455430   3.2050310
 122.8948920  91.2754440   2.0987180 121.9473830  91.3093420   2.2302610
 123.2198910  92.0893390   2.4836540 118.9783520 103.2918910   2.6850630
 118.9910680 102.8881200   1.8172890 118.4258740 104.0666200   2.5812060
 118.3768960  98.1948750   4.0133240 118.7937750  97.9808860   3.1786700
 119.1008780  98.4521540   4.5841860 122.3231060  96.5935970   4.1049480
 121.4949690  96.6629060   3.6299610 122.9181540  97.1790280   3.6365310
 119.2873070  93.3805290   5.0504350 118.8744250  94.2059000   5.3044340
 118.5549020  92.7950330   4.8580710 110.1334480  92.9408400   3.6922060
 110.6849070  93.0503740   2.9175310 110.6477990  93.3146000   4.4077290
 119.9773170 103.4264620   5.7385330 119.5003730 104.2336810   5.5457940
 119.2934960 102.7742950   5.8911540 110.9805990  99.5914440   8.7270030
 110.0834520  99.8154410   8.9743430 111.0058860  99.7149380   7.7781430
 109.8077210  96.4627760   7.3027400 109.6684980  97.3350560   7.6714800
 108.9258570  96.1200570   7.1575340 111.6057560 102.4049460   9.5112550
 111.5772990 102.8092410   8.6440980 111.4422530 101.4759820   9.3484150
 123.5572380 103.1876560  10.8076720 124.0332100 103.6659450  11.4865800
 124.1779540 103.1194050  10.0822220 105.7595860  98.2325310   3.2198310
 105.8376280  98.3674080   2.2754030 106.3737540  97.5241200   3.4126430
 122.9605630 100.3789410   7.9676730 123.0868690 100.1401290   7.0493910
 123.0027010  99.5473950   8.4398810 116.8222370 104.0817410   6.5371540
 117.3367040 103.9925420   7.3393970 115.9791450 104.4277110   6.8299450
 122.8129640  92.4321870   8.9326470 122.1973910  92.9401540   8.4041930
 122.4926060  91.5320200   8.8752410 105.8155380  99.2739480   5.7592770
 105.9786420  98.8044840   4.9412140 106.2807830  98.7663040   6.4241610
 114.8743960  91.2713760   6.3988660 114.4123330  91.4796780   7.2108600
 114.4722070  90.4573110   6.0959330 119.8748470  92.4922710   7.5285320
 119.0242060  92.1928460   7.8494390 119.7150260  92.7364720   6.6169140
 116.9698180  93.9924460   9.6284110 117.2951590  93.1588210   9.2886340
 117.7578510  94.5152980   9.7762440 112.6250050  88.9492570   2.6542940
 112.9222380  89.8555400   2.5734960 113.1735610  88.4611350   2.0402510
 112.8187580  94.4264390   9.1894860 112.7231180  93.4859120   9.0395260
 113.6619560  94.6479460   8.7942930 107.9498120  90.8378060   7.3428640
 107.5561510  91.6853270   7.5501420 107.2616520  90.2004430   7.5337280
 114.5243170  90.9213030  10.4125380 113.8341490  90.7285230  11.0471470
 115.2675470  91.2047670  10.9449680 116.8006140  94.7611470   3.2479300
 116.0687260  95.2698280   3.5969400 116.4030480  93.9441450   2.9468080
 117.2632050  90.2145150   2.6602240 117.2804790  90.6653800   3.5044090
 117.0147630  89.3150790   2.8735680 120.6902800  87.6277330   8.4988620
 121.0148570  86.8966990   9.0246600 120.7259310  87.3090970   7.5969610
 107.3894360  98.6490910   7.9188580 107.0049150  98.0084580   8.5171540
 107.7006550  99.3527030   8.4883310 113.5391500  95.4967450   3.3997200
 113.9061630  95.0226020   4.1458540 113.3496560  96.3709020   3.7405540
 111.3290870  94.5376090   5.7181410 111.0247940  95.4168070   5.9431770
 112.2837330  94.5975880   5.7538850 120.6160640  97.7402440   2.1074650
 121.3359760  98.2357730   1.7170760 120.4142460  97.0620330   1.4628520
 115.9979440  97.8111500   7.9943650 115.9316750  96.8907170   7.7401240
 115.3684580  97.9086940   8.7088290 107.3854600  95.3778830   6.8652770
 107.0269540  96.0432680   7.4526110 107.0909160  94.5462380   7.2365390
 110.5867720  95.8363070   9.7492320 110.2867860  95.9820250   8.8520140
 111.3578960  95.2768360   9.6565710 115.9296170 100.6332070   7.7447450
 115.9440710  99.7013030   7.5266360 115.2221270 100.7191830   8.3837220
 122.1407380  97.2739410   7.0916030 121.4155570  97.8668190   6.8945420
 122.6682840  97.2662950   6.2929400 115.3630070 102.2749640   4.8387950
 116.0072290 102.4809020   5.5161370 115.7259510 101.5138040   4.3858800
 116.6362150 100.2781990   3.5565400 117.2784380  99.5775150   3.6697570
 117.1611500 101.0580430   3.3762290 118.4099770 101.0776890   6.7601460
 118.7456010 101.6643580   7.4379380 117.4900110 100.9469600   6.9899250
 105.9603170  88.8672070   7.5424870 105.2461690  89.0668990   8.1477480
 106.3798210  88.0911640   7.9139670 106.2475760 102.8552330   8.5291400
 106.3566880 101.9147070   8.3886790 105.5956320 103.1207080   7.8805130
 114.2388350 101.1268220   9.9289520 113.9185220 100.4077460  10.4735210
 113.5646710 101.8023290  10.0025580 117.4541950  91.3594380   5.2926320
 117.8222770  90.5389590   5.6205890 116.5940150  91.4196270   5.7081970
 114.4143940  94.0133970   5.5164290 114.9129190  94.4879790   6.1816140
 114.5566890  93.0897490   5.7234320 121.6210800  90.2301930   6.3592680
 121.1184400  90.9707330   6.6986490 122.4367460  90.6185930   6.0429470
 108.3934200 103.9221240  10.3411010 109.1946930 104.2433290  10.7546410
 107.8786020 103.5616820  11.0630920 117.2298830 100.0301110  10.2886420
 116.6236990 100.0532710   9.5482170 116.9252940  99.2984150  10.8253670
 118.6599200 103.7581400   8.8995830 119.6120950 103.6739420   8.8496070
 118.5127420 104.4223110   9.5729620 106.1132010  96.4094700   9.2847060
 106.6171030  95.8301980   9.8563290 105.3739430  96.6934930   9.8223430
 113.1669950  97.8165690   8.8182580 112.4015620  98.3850690   8.7337250
 113.3485910  97.5241900   7.9250810 120.3093300  99.5471020   9.3757600
 121.0502770  99.8846780   8.8725060 119.5465980  99.7163080   8.8227370
 108.1455090  94.5524290  10.1797130 108.1860430  94.2538160  11.0882360
 109.0000590  94.9531900  10.0204650 110.0860900  93.1316390   8.1471620
 109.5557360  92.6407340   7.5194960 110.7548970  93.5600590   7.6129550
 118.9838960  97.5985850   7.9112810 119.3979980  97.7530930   8.7603230
 118.0489960  97.7241070   8.0738590 119.4561130  94.9382010   9.9151960
 120.0381900  94.1834330   9.8272440 119.6322900  95.4689450   9.1383440
 110.5733200  90.0978760   8.2268910 110.4790070  89.4799510   7.5019780
 109.9930590  90.8245050   7.9998820 113.3394640  88.6552000   5.2596300
 112.8911940  88.6776260   4.4141850 112.7059840  88.2571020   5.8566600
 113.7454190  97.5506330   5.8808740 114.1642300  98.3939060   5.7084980
 112.8262820  97.6878370   5.6515520 116.0818090  95.2822510   7.2646580
 116.2014300  94.6863650   8.0041420 116.9412090  95.3192200   6.8447880
 118.4205990  95.8359700   5.8409090 117.8941210  96.3602320   5.2374230
 118.7637330  96.4687090   6.4718820 111.5961610 103.8559340   6.9966470
 111.0582700 104.5805400   6.6775170 111.8495570 103.3789680   6.2063810
 112.8486860  91.8243860   8.5222400 113.4386550  91.5159710   9.2100220
 112.0307100  91.3523610   8.6782300 117.6680290  91.4409670   8.7555420
 116.9795810  90.7791210   8.6905410 118.3886310  90.9947940   9.2003880
 114.4523820 105.0910550   7.2553120 114.3782520 105.9945690   7.5625490
 113.5502660 104.7722450   7.2275190 106.3441320 103.2855730   3.2968370
 105.9072310 103.4656530   4.1292520 106.9119000 104.0430350   3.1550090
 121.9803500 102.7872730   7.5845680 121.3805490 102.8465290   6.8409600
 122.1097400 101.8477710   7.7142530 120.6655140  99.5124710   5.6821840
 119.8514980  99.9421870   5.9447630 121.0729340 100.1243120   5.0690890
 107.2141680  96.1828530   4.1960590 107.5814720  96.0955930   5.0756610
 106.6452500  95.4195080   4.0967450 122.0145540  94.6512910   7.2091060
 121.7831630  94.4225660   6.3089010 122.2750090  95.5712460   7.1635950
 106.7657680  93.0937620   8.1019010 105.8713730  93.0604380   8.4412720
 107.3055230  93.2924410   8.8670260 120.4533610  89.8769340   9.9870760
 121.3303790  89.8852740  10.3704760 120.4654450  89.1400180   9.3763110
 122.0786600  93.8138750   4.3978330 121.1289310  93.7802290   4.5123320
 122.2599610  94.7238860   4.1628100 107.2697390  87.3685950   2.4502230
 107.9173580  86.8183330   2.0097390 107.6899230  87.6229100   3.2718040
 121.1649730  87.5627310   5.8071870 121.8021950  88.1761450   6.1731060
 121.3124620  87.5987970   4.8621100 107.0229390  87.5241620   5.1927550
 106.6744210  87.9805440   5.9585730 106.6917090  86.6298750   5.2749980
 108.6293760 100.6961220   9.3580740 108.5863390 100.3254130  10.2395200
 108.7604770 101.6338790   9.4982560 112.3299790 102.2520810   4.9590460
 112.0891150 102.5195370   4.0720980 113.2702430 102.4226540   5.0141320
 114.5354210  88.7153500   8.7146970 114.4743100  89.3075330   9.4642380
 115.4754590  88.6079460   8.5697230 117.1728770  88.3723560   8.3539260
 117.7869180  88.6902850   7.6920340 117.7178330  87.8872150   8.9735120
 123.5903950 104.2715190   5.7601100 123.0962230 104.6684060   5.0428230
 122.9817240 103.6464400   6.1538380 107.6950030  87.0517820   8.4678320
 108.2433020  86.8705870   7.7044430 107.7605340  86.2611930   9.0034630
 108.4681790 103.6423470   6.4778520 107.8742110 103.5108170   7.2168560
 108.4605630 102.8061610   6.0120620 117.9136810  86.9355700   4.6808550
 117.0396650  87.2690810   4.4781480 117.8047560  86.4628880   5.5060420
 118.8208790  89.1426570   6.0650270 118.4922150  88.3278330   5.6852000
 119.7691090  89.0996380   5.9415960 121.2743400 104.9138610   3.0387840
 120.8146370 105.6654420   2.6645860 120.6455860 104.1945080   2.9802640
 108.0994020 101.0081850   5.4286560 107.3728080 100.3887140   5.3612510
 108.1603170 101.4022460   4.5584640 111.7039120 103.2226850   2.2135970
 112.2204140 102.6114210   1.6884230 112.3536500 103.7255630   2.7046980
 114.4434620 104.1135340   3.0404950 114.7312430 103.8589640   2.1637960
 114.9557840 103.5612700   3.6310520 115.6611630  87.8525540   3.6201460
 114.8783420  88.3271040   3.8998220 115.3674560  86.9480370   3.5114640
 114.5106980 105.0351440  10.4073150 115.4374290 104.7995710  10.4509110
 114.4957410 105.8623440   9.9259180 111.6970590  87.6996190  10.1715030
 111.4154860  88.2029790   9.4075850 112.0790290  86.9017940   9.8057160
 118.2986050  87.1149770  10.7495500 118.1851500  87.4344380  11.6447020
 119.1155790  87.5162280  10.4532780 121.0784540 104.2621300  10.2314190
 121.8709860 103.7670530  10.0240150 121.3717690 104.9411440  10.8389800
 117.2044200  76.3598750 150.0821650 117.1238250  75.4453360 149.8113360
 116.7908620  76.8565820 149.3761360 119.3569670  82.5437960 150.7430050
 118.8951200  81.7725200 151.0717220 120.1695220  82.5704030 151.2482500
 107.7620020  73.4099470 146.6249070 106.8736720  73.7515440 146.5228950
 108.0461210  73.2099790 145.7329900 115.5832980  84.8295970 150.3634040
 114.9644420  85.2853470 149.7928480 116.4384760  84.9847430 149.9623740
 109.9381410  71.9930970 147.6587450 110.0448160  72.8934700 147.9656210
 109.0273770  71.9448940 147.3682100 119.5900520  71.1155780 149.1298350
 120.4110140  70.6252350 149.1723830 119.6234600  71.7053440 149.8830190
 116.4496330  79.7135210 147.7565950 115.8313600  80.1784660 147.1928670
 116.9619580  80.4062690 148.1735460 105.8179530  80.3991740 145.1305580
 105.4407510  80.8878840 144.3990480 106.0752600  81.0717020 145.7612110
 113.4268460  68.8008130 150.5891090 113.7343440  68.2455020 149.8726590
 112.4969160  68.9352590 150.4064080 120.2728940  81.2391640 147.9688720
 120.1625270  80.2965970 148.0938140 120.2697190  81.6007280 148.8551480
 115.8149220  76.8656960 147.3251210 114.8878500  76.7994340 147.5539680
 115.9674040  77.8037090 147.2106450 115.8018300  73.1373960 144.3218370
 114.8621970  73.2987920 144.4070830 116.1201560  73.8559640 143.7754360
 119.8446510  78.4277260 147.8286460 119.2258930  78.0896810 147.1812760
 119.8270960  77.7837020 148.5365650 111.4205860  77.3921700 150.1070940
 111.0162860  76.6798950 149.6116840 111.5068980  77.0474940 150.9958980
 118.0211210  77.6664070 144.8359210 118.4604490  76.8286500 144.6897030
 118.7339630  78.2993470 144.9223350 116.1306590  82.6060140 148.8040450
 116.5702500  83.3484470 148.3895840 116.0693480  82.8486710 149.7279410
 121.6028350  68.9206880 143.1500250 121.2901010  69.0133710 144.0499320
 122.3640820  69.4987910 143.0997680 108.1210490  76.2866680 147.6077590
 108.0008090  77.0128770 146.9958860 107.8111380  75.5169590 147.1305500
 107.0043490  81.1582010 149.8252410 106.5971570  81.2996600 148.9706010
 107.8956500  80.8742170 149.6223620 118.7976770  85.5929260 146.1603460
 118.6377910  85.3032200 147.0585290 118.6323480  84.8169390 145.6248690
 111.2765150  85.3727790 147.9375080 111.1007630  84.4563330 147.7242880
 110.4220890  85.7315080 148.1772880 118.5002900  83.1016820 144.7201460
 117.8068060  83.0994110 144.0603740 119.2425760  82.6776140 144.2895630
 118.0652830  84.7279530 148.7949950 118.5209780  83.9468910 149.1088570
 118.4045350  85.4386350 149.3391130 110.5874150  69.6301750 150.9901260
 110.1442300  70.4111290 150.6585780 111.1459140  69.9531640 151.6972200
 113.7032970  69.2512450 145.8707090 113.0787150  69.2472320 146.5960400
 113.6163090  68.3843410 145.4743060 110.3788370  74.7535320 148.7182510
 110.1529290  74.5372490 149.6229130 109.5980900  75.1863780 148.3728480
 117.6086130  74.7598690 147.3173160 117.0095020  75.4834490 147.1336780
 118.1565740  74.6975470 146.5349610 116.2151000  73.3962230 149.3476440
 116.6080570  73.7134430 148.5345130 116.5767850  72.5174110 149.4620960
 105.4385400  73.9283150 142.7809360 105.3560070  74.8713910 142.9224350
 105.0868460  73.7858060 141.9021710 109.0885910  72.5448670 150.8073920
 108.7485960  73.0223900 151.5640970 108.3263230  72.0913790 150.4475020
 113.3003680  73.6634260 144.8386470 113.4216500  73.6220740 145.7872290
 112.9152190  74.5258410 144.6833200 112.3125180  75.9735400 144.2369770
 111.7442080  75.5253650 143.6105680 113.0214180  76.3328180 143.7034920
 106.4031990  71.4667650 149.7238590 106.1178910  71.1023320 150.5617210
 106.3410850  70.7348110 149.1101730 109.8572660  79.9693590 146.5096180
 109.0834920  79.4291210 146.3494900 110.5867290  79.4500200 146.1713940
 116.0770580  70.3596910 146.4451960 115.2635190  69.8610080 146.3697270
 115.8832530  71.1995160 146.0288310 118.7918970  74.7316560 144.7414120
 119.6798590  75.0433790 144.5665460 118.7624060  73.8588810 144.3494700
 109.9010060  79.6373970 150.1474990 110.4188730  78.8342230 150.0931880
 109.4494080  79.5753110 150.9891820 114.7879560  80.9040250 145.4202290
 115.1295260  81.6482480 144.9245610 113.9592270  81.2171370 145.7827120
 121.0633240  76.0428400 144.2093980 120.9796960  76.4742620 143.3590420
 121.7827430  76.5026750 144.6420800 122.0920490  82.8970660 146.9376110
 121.4496650  82.2426280 147.2119830 121.7051150  83.3025750 146.1616780
 117.6706970  80.2256090 150.7847800 118.0230790  79.6284220 150.1249170
 116.7869300  79.9000320 150.9556050 113.7570250  80.9853780 148.1918210
 114.4441380  81.5322990 148.5725800 112.9702670  81.5294510 148.2267820
 105.8962650  76.6026600 143.6835290 106.7657500  76.8851400 143.9671210
 105.4052970  77.4162470 143.5684100 113.0597460  77.9899810 147.8043570
 113.5160240  78.8005060 148.0303760 112.7085670  77.6722950 148.6362060
 108.9609240  68.3337460 148.2766090 108.8323870  68.3255360 149.2251010
 108.1371260  68.6720550 147.9257100 120.4817870  81.7887120 143.4752460
 120.2555450  81.0717560 144.0677100 120.0914070  81.5399560 142.6374210
 106.2633900  85.8153980 144.2496920 106.6231540  86.4143320 143.5954190
 106.1226240  86.3613870 145.0231950 120.0634120  79.7059060 145.1366620
 119.7755820  80.1671750 145.9244500 120.8586290  79.2456830 145.4050840
 112.2802520  83.1985180 145.0670590 112.2712620  83.9314870 144.4515100
 111.3600880  82.9516760 145.1597550 107.8809160  78.4200070 145.8117350
 107.2737110  79.1598970 145.8212650 108.3558510  78.5099430 144.9855550
 120.8203980  71.5407830 146.2961800 120.1917140  71.6453500 145.5820030
 120.3255900  71.7604610 147.0855680 115.2662120  83.2613420 143.7295780
 115.3674100  83.0577410 142.7997760 114.3663860  83.0071700 143.9343560
 112.7888010  73.8193780 147.7119680 112.0804160  74.2880120 148.1533290
 113.0732490  73.1615790 148.3464870 116.8203440  70.5444440 149.1515470
 116.6971220  70.5630570 148.2024980 117.7688000  70.5923380 149.2713870
 113.9080230  85.7799740 148.4243450 114.1621730  85.7421130 147.5022820
 112.9592710  85.6533070 148.4171700 110.9923030  72.1278860 145.0870390
 111.8413560  72.5649010 145.0210580 110.6254300  72.4399120 145.9142450
 119.9132810  76.6991620 150.0001960 118.9722950  76.7141850 150.1749650
 120.2276880  75.9127580 150.4462260 109.8914450  78.3811220 143.5605920
 110.6577720  78.2692580 144.1231350 109.9689140  77.6849190 142.9082690
 108.5861210  75.8136290 144.2438810 108.6664800  74.8663800 144.3556210
 109.4780960  76.1443170 144.3499470 109.3875920  85.9631680 151.3473350
 110.1238400  85.4147140 151.6181920 109.7716840  86.8287690 151.2079340
 106.2721400  82.0305250 147.2214860 105.3461180  82.2726390 147.2120270
 106.7377830  82.8579510 147.0999610 112.4978230  85.1361990 143.1698920
 113.2906840  85.4250820 142.7180710 111.9782580  84.7054160 142.4911400
 121.5508400  84.3632120 144.5935660 121.2649910  83.9497260 143.7789840
 121.3527950  85.2919830 144.4736180 113.0155630  80.3565400 143.0341270
 112.9106270  79.7417750 143.7602650 112.8479850  79.8331290 142.2504280
 116.2558360  79.4185430 143.6383260 115.7068460  79.8654730 144.2826000
 116.8777620  78.9134680 144.1620930 111.9233480  78.3776350 145.5348560
 112.3449900  78.2116220 146.3779950 112.0484320  77.5676580 145.0403700
 114.4361120  77.4013960 142.7825660 114.9566780  76.6862980 142.4166810
 115.0829520  78.0399830 143.0826170 110.8192380  74.4509580 142.4806720
 110.6181440  73.5876940 142.8420060 110.6484430  74.3642940 141.5428320
 118.2980690  69.2617810 145.0093600 118.5782980  68.4185710 145.3653020
 117.5246420  69.4940920 145.5232350 109.6175180  71.5510200 142.4684600
 109.9201080  71.5577630 141.5603750 110.3569770  71.2008060 142.9652260
 112.8360110  70.4944820 143.4540800 112.4882110  69.8168810 142.8743250
 113.0372880  70.0334330 144.2684190 115.0009150  85.4825570 145.0727400
 115.8959940  85.8210540 145.0946160 115.0326780  84.7604980 144.4451680
 108.6405310  80.8552620 143.3014400 109.0780180  81.3982290 143.9571980
 109.1253040  80.0299570 143.3110740 105.8551110  83.6441650 150.7534660
 106.1854120  82.7762710 150.5213300 106.2842110  83.8500170 151.5839620
 110.4513030  81.9750660 148.4136630 110.1508570  81.8515630 149.3140540
 110.3450520  81.1159250 148.0052360 123.2204950  81.7547060 143.1163310
 122.3897910  81.8223710 143.5870540 123.3976780  82.6451180 142.8130170
 122.6761410  78.4994540 145.6197510 123.4380320  79.0691190 145.7257200
 122.6915780  77.9321740 146.3905820 106.1765750  77.0232470 149.8505170
 105.5214590  76.7544110 149.2064870 107.0143700  76.9136950 149.4007150
 123.6821380  79.3544640 150.4639440 124.0530210  78.5711960 150.0575410
 124.3223310  80.0433740 150.2856740 122.7280580  78.7928910 142.7770030
 123.0029420  79.7007790 142.6489250 122.5391320  78.7291440 143.7132020
 119.1256190  71.8173760 144.0723660 119.5441070  71.6304740 143.2320320
 118.8192250  70.9652810 144.3826590 122.6245920  76.7297900 147.7699460
 122.2489520  75.9625830 147.3380750 121.8949040  77.1120600 148.2574390
 105.3903830  74.2331400 145.7930500 104.4867910  74.4961600 145.6182160
 105.8744450  74.5042570 145.0130460 107.9331040  73.2896940 143.7024880
 108.6422740  72.8680160 143.2172160 107.2170980  73.3572170 143.0708230
 107.5805200  69.3436270 142.7427530 108.3033330  69.8845210 143.0608750
 107.8529720  69.0699690 141.8669070 121.3896850  74.2128740 147.0099110
 121.8855970  73.9799610 147.7947990 121.1912920  73.3740580 146.5936750
 122.8184010  72.8489690 149.5436790 122.7083290  72.6945730 150.4819060
 123.5791600  72.3210630 149.3012200 123.7074280  70.6797610 142.7842930
 124.6323590  70.5478790 142.5761220 123.6850070  70.7590430 143.7379380
 123.7812770  71.4508270 145.4099640 122.9864270  71.3853390 145.9392550
 123.9856050  72.3858910 145.3984990 120.7231190  85.4899820 149.4038030
 121.3190260  85.1684390 148.7272450 120.9809340  85.0171640 150.1951300
 122.0771270  69.4120390 149.8707290 122.0159670  68.4681610 149.7238310
 122.8563300  69.5200480 150.4160750 106.3824020  85.5512750 148.8331240
 106.2146060  84.9183430 149.5313130 105.5158530  85.7572150 148.4825430
 107.0052040  69.3829530 146.3363100 107.7631400  69.4958410 145.7627130
 106.5429210  70.2198730 146.2906530 113.5465850  71.4968800 149.3265410
 112.7340360  71.1225690 148.9861290 114.0507490  70.7413880 149.6286600
 118.0490830  68.1611250 150.5648480 118.6520200  68.7331460 151.0397000
 117.3083820  68.7250690 150.3422380 121.1925430  68.5632810 145.8388760
 121.3876060  69.4616260 146.1056190 120.4055300  68.3319890 146.3321710
 107.9886720  84.2445980 146.2781380 107.4634340  84.6254010 145.5743340
 107.9131300  84.8696750 146.9991090 109.3777190  69.9093580 144.8765070
 109.9069950  69.1223380 144.7473020 110.0105510  70.5884770 145.1100600
 111.5715030  69.6468720 147.9310460 110.9417770  68.9456030 148.0980590
 111.0320170  70.4072850 147.7143620 122.7452040  85.8033520 147.5995320
 122.9204230  85.1171260 146.9556240 122.0473610  86.3280570 147.2071990
 110.5879690  86.1928360 145.1530630 111.3198510  85.9087640 144.6054520
 110.8473360  85.9541640 146.0430010 109.7494480  82.3093090 145.1576960
 109.1203360  82.7778190 145.7062790 109.8642310  81.4642310 145.5923150
 117.2044200  76.3598750 131.3078160 117.1238250  75.4453360 131.0369870
 116.7908620  76.8565820 130.6017870 119.3569670  82.5437960 131.9686560
 118.8951200  81.7725200 132.2973730 120.1695220  82.5704030 132.4739010
 105.7253030  76.0105120 133.7345280 106.2969140  75.2427320 133.7348920
 105.7254570  76.3093880 132.8251890 115.5832980  84.8295970 131.5890550
 114.9644420  85.2853470 131.0184990 116.4384760  84.9847430 131.1880250
 114.7771230  80.8134960 133.1957590 114.7079510  79.8724900 133.0346720
 115.5391090  80.9036370 133.7680160 106.9677900  71.4189480 135.5214210
 106.7880740  70.5215230 135.8016970 106.5657980  71.9661350 136.1961160
 115.8076400  73.6205340 133.4226520 116.1841220  72.7477220 133.3100190
 115.7095910  73.9564040 132.5316960 119.5900520  71.1155780 130.3554860
 120.4110140  70.6252350 130.3980340 119.6234600  71.7053440 131.1086700
 107.5864570  73.9149980 134.1296550 108.2674680  74.1788350 134.7483950
 107.2712620  73.0750850 134.4634560 123.8800070  73.1322530 136.9198490
 123.1752240  73.5204240 136.4013600 124.1457990  73.8272820 137.5219420
 110.0625240  69.6015900 137.4832560 110.0643680  70.1188290 136.6778460
 109.2329550  69.1246080 137.4602490 116.4496330  79.7135210 128.9822460
 115.8313600  80.1784660 128.4185180 116.9619580  80.4062690 129.3991970
 111.3128090  79.2411080 135.6606060 110.9797470  79.8680000 136.3027130
 111.4894770  79.7672960 134.8807730 119.8262000  73.0556160 133.1282400
 119.1217570  73.3441050 133.7085510 120.1874160  73.8656270 132.7681960
 109.7440570  71.3125860 135.4903010 110.0857380  72.1567910 135.1956880
 108.8056380  71.4609600 135.6068350 110.5247190  81.2091880 137.4755240
 111.1421190  81.8842960 137.1939690 109.6640310  81.6179860 137.3842740
 121.4424780  82.6731290 135.3909880 120.7588300  83.3430400 135.3826550
 121.9819070  82.8711940 134.6254740 122.8948920  72.5010950 133.5191610
 121.9473830  72.5349930 133.6507040 123.2198910  73.3149900 133.9040970
 113.4268460  68.8008130 131.8147600 113.7343440  68.2455020 131.0983100
 112.4969160  68.9352590 131.6320590 118.9783520  84.5175420 134.1055060
 118.9910680  84.1137710 133.2377320 118.4258740  85.2922710 134.0016490
 120.2728940  81.2391640 129.1945230 120.1625270  80.2965970 129.3194650
 120.2697190  81.6007280 130.0807990 118.3768960  79.4205260 135.4337670
 118.7937750  79.2065370 134.5991130 119.1008780  79.6778050 136.0046290
 115.8018300  73.1373960 125.5474880 114.8621970  73.2987920 125.6327340
 116.1201560  73.8559640 125.0010870 122.3231060  77.8192480 135.5253910
 121.4949690  77.8885570 135.0504040 122.9181540  78.4046790 135.0569740
 119.8446510  78.4277260 129.0542970 119.2258930  78.0896810 128.4069270
 119.8270960  77.7837020 129.7622160 119.2873070  74.6061800 136.4708780
 118.8744250  75.4315510 136.7248770 118.5549020  74.0206840 136.2785140
 110.1334480  74.1664910 135.1126490 110.6849070  74.2760250 134.3379740
 110.6477990  74.5402510 135.8281720 119.9773170  84.6521130 137.1589760
 119.5003730  85.4593320 136.9662370 119.2934960  83.9999460 137.3115970
 110.9805990  80.8170950 140.1474460 110.0834520  81.0410920 140.3947860
 111.0058860  80.9405890 139.1985860 109.8077210  77.6884270 138.7231830
 109.6684980  78.5607070 139.0919230 108.9258570  77.3457080 138.5779770
 116.1306590  82.6060140 130.0296960 116.5702500  83.3484470 129.6152350
 116.0693480  82.8486710 130.9535920 111.6057560  83.6305970 140.9316980
 111.5772990  84.0348920 140.0645410 111.4422530  82.7016330 140.7688580
 121.6028350  68.9206880 124.3756760 121.2901010  69.0133710 125.2755830
 122.3640820  69.4987910 124.3254190 123.5572380  84.4133070 142.2281150
 124.0332100  84.8915960 142.9070230 124.1779540  84.3450560 141.5026650
 105.7595860  79.4581820 134.6402740 105.8376280  79.5930590 133.6958460
 106.3737540  78.7497710 134.8330860 122.9605630  81.6045920 139.3881160
 123.0868690  81.3657800 138.4698340 123.0027010  80.7730460 139.8603240
 116.8222370  85.3073920 137.9575970 117.3367040  85.2181930 138.7598400
 115.9791450  85.6533620 138.2503880 118.7976770  85.5929260 127.3859970
 118.6377910  85.3032200 128.2841800 118.6323480  84.8169390 126.8505200
 111.2765150  85.3727790 129.1631590 111.1007630  84.4563330 128.9499390
 110.4220890  85.7315080 129.4029390 118.5002900  83.1016820 125.9457970
 117.8068060  83.0994110 125.2860250 119.2425760  82.6776140 125.5152140
 118.0652830  84.7279530 130.0206460 118.5209780  83.9468910 130.3345080
 118.4045350  85.4386350 130.5647640 122.8129640  73.6578380 140.3530900
 122.1973910  74.1658050 139.8246360 122.4926060  72.7576710 140.2956840
 105.8155380  80.4995990 137.1797200 105.9786420  80.0301350 136.3616570
 106.2807830  79.9919550 137.8446040 114.8743960  72.4970270 137.8193090
 114.4123330  72.7053290 138.6313030 114.4722070  71.6829620 137.5163760
 119.8748470  73.7179220 138.9489750 119.0242060  73.4184970 139.2698820
 119.7150260  73.9621230 138.0373570 116.9698180  75.2180970 141.0488540
 117.2951590  74.3844720 140.7090770 117.7578510  75.7409490 141.1966870
 113.7032970  69.2512450 127.0963600 113.0787150  69.2472320 127.8216910
 113.6163090  68.3843410 126.6999570 112.6250050  70.1749080 134.0747370
 112.9222380  71.0811910 133.9939390 113.1735610  69.6867860 133.4606940
 110.3788370  74.7535320 129.9439020 110.1529290  74.5372490 130.8485640
 109.5980900  75.1863780 129.5984990 117.6086130  74.7598690 128.5429670
 117.0095020  75.4834490 128.3593290 118.1565740  74.6975470 127.7606120
 112.8187580  75.6520900 140.6099290 112.7231180  74.7115630 140.4599690
 113.6619560  75.8735970 140.2147360 116.2151000  73.3962230 130.5732950
 116.6080570  73.7134430 129.7601640 116.5767850  72.5174110 130.6877470
 107.9498120  72.0634570 138.7633070 107.5561510  72.9109780 138.9705850
 107.2616520  71.4260940 138.9541710 114.5243170  72.1469540 141.8329810
 113.8341490  71.9541740 142.4675900 115.2675470  72.4304180 142.3654110
 105.2515170  69.9863030 132.7963150 104.9628220  70.5565890 133.5088130
 105.9960930  69.5067480 133.1594380 105.4385400  73.9283150 124.0065870
 105.3560070  74.8713910 124.1480860 105.0868460  73.7858060 123.1278220
 116.8006140  75.9867980 134.6683730 116.0687260  76.4954790 135.0173830
 116.4030480  75.1697960 134.3672510 113.2383530  72.6622180 133.0736220
 113.2419590  72.2212130 132.2240760 114.1334650  72.9839510 133.1808040
 109.0885910  72.5448670 132.0330430 108.7485960  73.0223900 132.7897480
 108.3263230  72.0913790 131.6731530 113.3003680  73.6634260 126.0642980
 113.4216500  73.6220740 127.0128800 112.9152190  74.5258410 125.9089710
 117.2632050  71.4401660 134.0806670 117.2804790  71.8910310 134.9248520
 117.0147630  70.5407300 134.2940110 112.3125180  75.9735400 125.4626280
 111.7442080  75.5253650 124.8362190 113.0214180  76.3328180 124.9291430
 120.6902800  68.8533840 139.9193050 121.0148570  68.1223500 140.4451030
 120.7259310  68.5347480 139.0174040 107.3894360  79.8747420 139.3393010
 107.0049150  79.2341090 139.9375970 107.7006550  80.5783540 139.9087740
 113.5391500  76.7223960 134.8201630 113.9061630  76.2482530 135.5662970
 113.3496560  77.5965530 135.1609970 111.3290870  75.7632600 137.1385840
 111.0247940  76.6424580 137.3636200 112.2837330  75.8232390 137.1743280
 120.6160640  78.9658950 133.5279080 121.3359760  79.4614240 133.1375190
 120.4142460  78.2876840 132.8832950 116.0770580  70.3596910 127.6708470
 115.2635190  69.8610080 127.5953780 115.8832530  71.1995160 127.2544820
 115.9979440  79.0368010 139.4148080 115.9316750  78.1163680 139.1605670
 115.3684580  79.1343450 140.1292720 118.7918970  74.7316560 125.9670630
 119.6798590  75.0433790 125.7921970 118.7624060  73.8588810 125.5751210
 107.3854600  76.6035340 138.2857200 107.0269540  77.2689190 138.8730540
 107.0909160  75.7718890 138.6569820 110.5867720  77.0619580 141.1696750
 110.2867860  77.2076760 140.2724570 111.3578960  76.5024870 141.0770140
 115.9296170  81.8588580 139.1651880 115.9440710  80.9269540 138.9470790
 115.2221270  81.9448340 139.8041650 121.0633240  76.0428400 125.4350490
 120.9796960  76.4742620 124.5846930 121.7827430  76.5026750 125.8677310
 122.1407380  78.4995920 138.5120460 121.4155570  79.0924700 138.3149850
 122.6682840  78.4919460 137.7133830 122.0920490  82.8970660 128.1632620
 121.4496650  82.2426280 128.4376340 121.7051150  83.3025750 127.3873290
 117.6706970  80.2256090 132.0104310 118.0230790  79.6284220 131.3505680
 116.7869300  79.9000320 132.1812560 115.3630070  83.5006150 136.2592380
 116.0072290  83.7065530 136.9365800 115.7259510  82.7394550 135.8063230
 116.6362150  81.5038500 134.9769830 117.2784380  80.8031660 135.0902000
 117.1611500  82.2836940 134.7966720 120.4817870  81.7887120 124.7008970
 120.2555450  81.0717560 125.2933610 120.0914070  81.5399560 123.8630720
 118.4099770  82.3033400 138.1805890 118.7456010  82.8900090 138.8583810
 117.4900110  82.1726110 138.4103680 106.2633900  85.8153980 125.4753430
 106.6231540  86.4143320 124.8210700 106.1226240  86.3613870 126.2488460
 105.9603170  70.0928580 138.9629300 105.2461690  70.2925500 139.5681910
 106.3798210  69.3168150 139.3344100 120.0634120  79.7059060 126.3623130
 119.7755820  80.1671750 127.1501010 120.8586290  79.2456830 126.6307350
 106.2475760  84.0808840 139.9495830 106.3566880  83.1403580 139.8091220
 105.5956320  84.3463590 139.3009560 114.2388350  82.3524730 141.3493950
 113.9185220  81.6333970 141.8939640 113.5646710  83.0279800 141.4230010
 117.4541950  72.5850890 136.7130750 117.8222770  71.7646100 137.0410320
 116.5940150  72.6452780 137.1286400 120.8203980  71.5407830 127.5218310
 120.1917140  71.6453500 126.8076540 120.3255900  71.7604610 128.3112190
 115.2662120  83.2613420 124.9552290 115.3674100  83.0577410 124.0254270
 114.3663860  83.0071700 125.1600070 112.7888010  73.8193780 128.9376190
 112.0804160  74.2880120 129.3789800 113.0732490  73.1615790 129.5721380
 114.4143940  75.2390480 136.9368720 114.9129190  75.7136300 137.6020570
 114.5566890  74.3154000 137.1438750 116.8203440  70.5444440 130.3771980
 116.6971220  70.5630570 129.4281490 117.7688000  70.5923380 130.4970380
 113.9080230  85.7799740 129.6499960 114.1621730  85.7421130 128.7279330
 112.9592710  85.6533070 129.6428210 110.9923030  72.1278860 126.3126900
 111.8413560  72.5649010 126.2467090 110.6254300  72.4399120 127.1398960
 121.6210800  71.4558440 137.7797110 121.1184400  72.1963840 138.1190920
 122.4367460  71.8442440 137.4633900 119.9132810  76.6991620 131.2258470
 118.9722950  76.7141850 131.4006160 120.2276880  75.9127580 131.6718770
 109.8914450  78.3811220 124.7862430 110.6577720  78.2692580 125.3487860
 109.9689140  77.6849190 124.1339200 121.9158390  83.8700470 132.9012730
 122.0405810  84.6931640 133.3736540 122.7823950  83.6591200 132.5536880
 109.3875920  85.9631680 132.5729860 110.1238400  85.4147140 132.8438430
 109.7716840  86.8287690 132.4335850 108.3934200  85.1477750 141.7615440
 109.1946930  85.4689800 142.1750840 107.8786020  84.7873330 142.4835350
 112.4978230  85.1361990 124.3955430 113.2906840  85.4250820 123.9437220
 111.9782580  84.7054160 123.7167910 117.2298830  81.2557620 141.7090850
 116.6236990  81.2789220 140.9686600 116.9252940  80.5240660 142.2458100
 118.6599200  84.9837910 140.3200260 119.6120950  84.8995930 140.2700500
 118.5127420  85.6479620 140.9934050 121.5508400  84.3632120 125.8192170
 121.2649910  83.9497260 125.0046350 121.3527950  85.2919830 125.6992690
 106.1132010  77.6351210 140.7051490 106.6171030  77.0558490 141.2767720
 105.3739430  77.9191440 141.2427860 113.1669950  79.0422200 140.2387010
 112.4015620  79.6107200 140.1541680 113.3485910  78.7498410 139.3455240
 120.3093300  80.7727530 140.7962030 121.0502770  81.1103290 140.2929490
 119.5465980  80.9419590 140.2431800 108.1455090  75.7780800 141.6001560
 108.1860430  75.4794670 142.5086790 109.0000590  76.1788410 141.4409080
 110.0860900  74.3572900 139.5676050 109.5557360  73.8663850 138.9399390
 110.7548970  74.7857100 139.0333980 118.9838960  78.8242360 139.3317240
 119.3979980  78.9787440 140.1807660 118.0489960  78.9497580 139.4943020
 119.4561130  76.1638520 141.3356390 120.0381900  75.4090840 141.2476870
 119.6322900  76.6945960 140.5587870 110.5733200  71.3235270 139.6473340
 110.4790070  70.7056020 138.9224210 109.9930590  72.0501560 139.4203250
 113.3394640  69.8808510 136.6800730 112.8911940  69.9032770 135.8346280
 112.7059840  69.4827530 137.2771030 113.7454190  78.7762840 137.3013170
 114.1642300  79.6195570 137.1289410 112.8262820  78.9134880 137.0719950
 116.0818090  76.5079020 138.6851010 116.2014300  75.9120160 139.4245850
 116.9412090  76.5448710 138.2652310 118.4205990  77.0616210 137.2613520
 117.8941210  77.5858830 136.6578660 118.7637330  77.6943600 137.8923250
 110.8192380  74.4509580 123.7063230 110.6181440  73.5876940 124.0676570
 110.6484430  74.3642940 122.7684830 111.5961610  85.0815850 138.4170900
 111.0582700  85.8061910 138.0979600 111.8495570  84.6046190 137.6268240
 112.8486860  73.0500370 139.9426830 113.4386550  72.7416220 140.6304650
 112.0307100  72.5780120 140.0986730 117.6680290  72.6666180 140.1759850
 116.9795810  72.0047720 140.1109840 118.3886310  72.2204450 140.6208310
 118.2980690  69.2617810 126.2350110 118.5782980  68.4185710 126.5909530
 117.5246420  69.4940920 126.7488860 109.6175180  71.5510200 123.6941110
 109.9201080  71.5577630 122.7860260 110.3569770  71.2008060 124.1908770
 114.4523820  86.3167060 138.6757550 114.3782520  87.2202200 138.9829920
 113.5502660  85.9978960 138.6479620 112.8360110  70.4944820 124.6797310
 112.4882110  69.8168810 124.0999760 113.0372880  70.0334330 125.4940700
 115.0009150  85.4825570 126.2983910 115.8959940  85.8210540 126.3202670
 115.0326780  84.7604980 125.6708190 121.9803500  84.0129240 139.0050110
 121.3805490  84.0721800 138.2614030 122.1097400  83.0734220 139.1346960
 123.2204950  81.7547060 124.3419820 122.3897910  81.8223710 124.8127050
 123.3976780  82.6451180 124.0386680 122.6761410  78.4994540 126.8454020
 123.4380320  79.0691190 126.9513710 122.6915780  77.9321740 127.6162330
 123.6821380  79.3544640 131.6895950 124.0530210  78.5711960 131.2831920
 124.3223310  80.0433740 131.5113250 120.6655140  80.7381220 137.1026270
 119.8514980  81.1678380 137.3652060 121.0729340  81.3499630 136.4895320
 122.7280580  78.7928910 124.0026540 123.0029420  79.7007790 123.8745760
 122.5391320  78.7291440 124.9388530 119.1256190  71.8173760 125.2980170
 119.5441070  71.6304740 124.4576830 118.8192250  70.9652810 125.6083100
 122.6245920  76.7297900 128.9955970 122.2489520  75.9625830 128.5637260
 121.8949040  77.1120600 129.4830900 107.2141680  77.4085040 135.6165020
 107.5814720  77.3212440 136.4961040 106.6452500  76.6451590 135.5171880
 122.0145540  75.8769420 138.6295490 121.7831630  75.6482170 137.7293440
 122.2750090  76.7968970 138.5840380 106.7657680  74.3194130 139.5223440
 105.8713730  74.2860890 139.8617150 107.3055230  74.5180920 140.2874690
 120.4533610  71.1025850 141.4075190 121.3303790  71.1109250 141.7909190
 120.4654450  70.3656690 140.7967540 121.8996880  74.9555390 132.2963210
 122.4234360  74.4618040 131.6653380 122.4856300  75.0905750 133.0410780
 122.0786600  75.0395260 135.8182760 121.1289310  75.0058800 135.9327750
 122.2599610  75.9495370 135.5832530 107.5805200  69.3436270 123.9684040
 108.3033330  69.8845210 124.2865260 107.8529720  69.0699690 123.0925580
 121.3896850  74.2128740 128.2355620 121.8855970  73.9799610 129.0204500
 121.1912920  73.3740580 127.8193260 107.2697390  68.5942460 133.8706660
 107.9173580  68.0439840 133.4301820 107.6899230  68.8485610 134.6922470
 122.8184010  72.8489690 130.7693300 122.7083290  72.6945730 131.7075570
 123.5791600  72.3210630 130.5268710 121.1649730  68.7883820 137.2276300
 121.8021950  69.4017960 137.5935490 121.3124620  68.8244480 136.2825530
 123.7074280  70.6797610 124.0099440 124.6323590  70.5478790 123.8017730
 123.6850070  70.7590430 124.9635890 123.7812770  71.4508270 126.6356150
 122.9864270  71.3853390 127.1649060 123.9856050  72.3858910 126.6241500
 120.7231190  85.4899820 130.6294540 121.3190260  85.1684390 129.9528960
 120.9809340  85.0171640 131.4207810 107.0229390  68.7498130 136.6131980
 106.6744210  69.2061950 137.3790160 106.6917090  67.8555260 136.6954410
 108.6293760  81.9217730 140.7785170 108.5863390  81.5510640 141.6599630
 108.7604770  82.8595300 140.9186990 112.3299790  83.4777320 136.3794890
 112.0891150  83.7451880 135.4925410 113.2702430  83.6483050 136.4345750
 114.5354210  69.9410010 140.1351400 114.4743100  70.5331840 140.8846810
 115.4754590  69.8335970 139.9901660 117.1728770  69.5980070 139.7743690
 117.7869180  69.9159360 139.1124770 117.7178330  69.1128660 140.3939550
 123.5903950  85.4971700 137.1805530 123.0962230  85.8940570 136.4632660
 122.9817240  84.8720910 137.5742810 107.6950030  68.2774330 139.8882750
 108.2433020  68.0962380 139.1248860 107.7605340  67.4868440 140.4239060
 108.4681790  84.8679980 137.8982950 107.8742110  84.7364680 138.6372990
 108.4605630  84.0318120 137.4325050 117.9136810  68.1612210 136.1012980
 117.0396650  68.4947320 135.8985910 117.8047560  67.6885390 136.9264850
 118.8208790  70.3683080 137.4854700 118.4922150  69.5534840 137.1056430
 119.7691090  70.3252890 137.3620390 121.2743400  86.1395120 134.4592270
 120.8146370  86.8910930 134.0850290 120.6455860  85.4201590 134.4007070
 108.0994020  82.2338360 136.8490990 107.3728080  81.6143650 136.7816940
 108.1603170  82.6278970 135.9789070 111.7039120  84.4483360 133.6340400
 112.2204140  83.8370720 133.1088660 112.3536500  84.9512140 134.1251410
 114.4434620  85.3391850 134.4609380 114.7312430  85.0846150 133.5842390
 114.9557840  84.7869210 135.0514950 115.6611630  69.0782050 135.0405890
 114.8783420  69.5527550 135.3202650 115.3674560  68.1736880 134.9319070
 120.2132700  69.7805150 133.0854980 120.6540790  69.7250250 132.2376580
 119.9440290  70.6963160 133.1565160 122.0771270  69.4120390 131.0963800
 122.0159670  68.4681610 130.9494820 122.8563300  69.5200480 131.6417260
 107.0052040  69.3829530 127.5619610 107.7631400  69.4958410 126.9883640
 106.5429210  70.2198730 127.5163040 113.5465850  71.4968800 130.5521920
 112.7340360  71.1225690 130.2117800 114.0507490  70.7413880 130.8543110
 118.0490830  68.1611250 131.7904990 118.6520200  68.7331460 132.2653510
 117.3083820  68.7250690 131.5678890 121.1925430  68.5632810 127.0645270
 121.3876060  69.4616260 127.3312700 120.4055300  68.3319890 127.5578220
 109.3777190  69.9093580 126.1021580 109.9069950  69.1223380 125.9729530
 110.0105510  70.5884770 126.3357110 114.5106980  86.2607950 141.8277580
 115.4374290  86.0252220 141.8713540 114.4957410  87.0879950 141.3463610
 122.7452040  85.8033520 128.8251830 122.9204230  85.1171260 128.1812750
 122.0473610  86.3280570 128.4328500 111.6970590  68.9252700 141.5919460
 111.4154860  69.4286300 140.8280280 112.0790290  68.1274450 141.2261590
 110.5879690  86.1928360 126.3787140 111.3198510  85.9087640 125.8311030
 110.8473360  85.9541640 127.2686520 118.2986050  68.3406280 142.1699930
 118.1851500  68.6600890 143.0651450 119.1155790  68.7418790 141.8737210
 121.0784540  85.4877810 141.6518620 121.8709860  84.9927040 141.4444580
 121.3717690  86.1667950 142.2594230 117.2044200  76.3598750 112.5334670
 117.1238250  75.4453360 112.2626380 116.7908620  76.8565820 111.8274380
 115.3362240  78.1377770 114.4143940 114.5604340  77.6578210 114.7042510
 115.9875170  77.4583420 114.2400100 119.3569670  82.5437960 113.1943070
 118.8951200  81.7725200 113.5230240 120.1695220  82.5704030 113.6995520
 109.3329330  82.4837670 115.4877720 109.6357370  81.5935410 115.3087940
 110.0772920  83.0407890 115.2599970 114.7771230  80.8134960 114.4214100
 114.7079510  79.8724900 114.2603230 115.5391090  80.9036370 114.9936670
 109.9381410  71.9930970 110.1100470 110.0448160  72.8934700 110.4169230
 109.0273770  71.9448940 109.8195120 119.5900520  71.1155780 111.5811370
 120.4110140  70.6252350 111.6236850 119.6234600  71.7053440 112.3343210
 111.7789140  74.9617340 114.4425650 112.2867360  75.4598310 115.0830670
 112.3102380  74.1852540 114.2665010 123.8800070  73.1322530 118.1455000
 123.1752240  73.5204240 117.6270110 124.1457990  73.8272820 118.7475930
 110.0625240  69.6015900 118.7089070 110.0643680  70.1188290 117.9034970
 109.2329550  69.1246080 118.6859000 116.4496330  79.7135210 110.2078970
 115.8313600  80.1784660 109.6441690 116.9619580  80.4062690 110.6248480
 111.3128090  79.2411080 116.8862570 110.9797470  79.8680000 117.5283640
 111.4894770  79.7672960 116.1064240 110.5247190  81.2091880 118.7011750
 111.1421190  81.8842960 118.4196200 109.6640310  81.6179860 118.6099250
 105.8179530  80.3991740 107.5818600 105.4407510  80.8878840 106.8503500
 106.0752600  81.0717020 108.2125130 121.4424780  82.6731290 116.6166390
 120.7588300  83.3430400 116.6083060 121.9819070  82.8711940 115.8511250
 122.8948920  72.5010950 114.7448120 121.9473830  72.5349930 114.8763550
 123.2198910  73.3149900 115.1297480 118.9783520  84.5175420 115.3311570
 118.9910680  84.1137710 114.4633830 118.4258740  85.2922710 115.2273000
 118.3768960  79.4205260 116.6594180 118.7937750  79.2065370 115.8247640
 119.1008780  79.6778050 117.2302800 115.8149220  76.8656960 109.7764230
 114.8878500  76.7994340 110.0052700 115.9674040  77.8037090 109.6619470
 115.8018300  73.1373960 106.7731390 114.8621970  73.2987920 106.8583850
 116.1201560  73.8559640 106.2267380 122.3231060  77.8192480 116.7510420
 121.4949690  77.8885570 116.2760550 122.9181540  78.4046790 116.2826250
 111.4205860  77.3921700 112.5583960 111.0162860  76.6798950 112.0629860
 111.5068980  77.0474940 113.4472000 111.8887560  81.0789260 114.7223170
 111.5915850  80.4734730 114.0430950 112.8387380  81.1166570 114.6112530
 119.9773170  84.6521130 118.3846270 119.5003730  85.4593320 118.1918880
 119.2934960  83.9999460 118.5372480 110.9805990  80.8170950 121.3730970
 110.0834520  81.0410920 121.6204370 111.0058860  80.9405890 120.4242370
 109.8077210  77.6884270 119.9488340 109.6684980  78.5607070 120.3175740
 108.9258570  77.3457080 119.8036280 111.6057560  83.6305970 122.1573490
 111.5772990  84.0348920 121.2901920 111.4422530  82.7016330 121.9945090
 108.1210490  76.2866680 110.0590610 108.0008090  77.0128770 109.4471880
 107.8111380  75.5169590 109.5818520 123.5572380  84.4133070 123.4537660
 124.0332100  84.8915960 124.1326740 124.1779540  84.3450560 122.7283160
 107.0043490  81.1582010 112.2765430 106.5971570  81.2996600 111.4219030
 107.8956500  80.8742170 112.0736640 122.9605630  81.6045920 120.6137670
 123.0868690  81.3657800 119.6954850 123.0027010  80.7730460 121.0859750
 116.8222370  85.3073920 119.1832480 117.3367040  85.2181930 119.9854910
 115.9791450  85.6533620 119.4760390 118.7976770  85.5929260 108.6116480
 118.6377910  85.3032200 109.5098310 118.6323480  84.8169390 108.0761710
 118.5002900  83.1016820 107.1714480 117.8068060  83.0994110 106.5116760
 119.2425760  82.6776140 106.7408650 118.0652830  84.7279530 111.2462970
 118.5209780  83.9468910 111.5601590 118.4045350  85.4386350 111.7904150
 122.8129640  73.6578380 121.5787410 122.1973910  74.1658050 121.0502870
 122.4926060  72.7576710 121.5213350 105.8155380  80.4995990 118.4053710
 105.9786420  80.0301350 117.5873080 106.2807830  79.9919550 119.0702550
 110.5874150  69.6301750 113.4414280 110.1442300  70.4111290 113.1098800
 111.1459140  69.9531640 114.1485220 119.8748470  73.7179220 120.1746260
 119.0242060  73.4184970 120.4955330 119.7150260  73.9621230 119.2630080
 113.7032970  69.2512450 108.3220110 113.0787150  69.2472320 109.0473420
 113.6163090  68.3843410 107.9256080 110.3788370  74.7535320 111.1695530
 110.1529290  74.5372490 112.0742150 109.5980900  75.1863780 110.8241500
 117.6086130  74.7598690 109.7686180 117.0095020  75.4834490 109.5849800
 118.1565740  74.6975470 108.9862630 114.5243170  72.1469540 123.0586320
 113.8341490  71.9541740 123.6932410 115.2675470  72.4304180 123.5910620
 105.4385400  73.9283150 105.2322380 105.3560070  74.8713910 105.3737370
 105.0868460  73.7858060 104.3534730 113.3003680  73.6634260 107.2899490
 113.4216500  73.6220740 108.2385310 112.9152190  74.5258410 107.1346220
 112.3125180  75.9735400 106.6882790 111.7442080  75.5253650 106.0618700
 113.0214180  76.3328180 106.1547940 120.6902800  68.8533840 121.1449560
 121.0148570  68.1223500 121.6707540 120.7259310  68.5347480 120.2430550
 107.3894360  79.8747420 120.5649520 107.0049150  79.2341090 121.1632480
 107.7006550  80.5783540 121.1344250 113.5391500  76.7223960 116.0458140
 113.9061630  76.2482530 116.7919480 113.3496560  77.5965530 116.3866480
 111.3290870  75.7632600 118.3642350 111.0247940  76.6424580 118.5892710
 112.2837330  75.8232390 118.3999790 109.8572660  79.9693590 108.9609200
 109.0834920  79.4291210 108.8007920 110.5867290  79.4500200 108.6226960
 120.6160640  78.9658950 114.7535590 121.3359760  79.4614240 114.3631700
 120.4142460  78.2876840 114.1089460 116.0770580  70.3596910 108.8964980
 115.2635190  69.8610080 108.8210290 115.8832530  71.1995160 108.4801330
 109.9010060  79.6373970 112.5988010 110.4188730  78.8342230 112.5444900
 109.4494080  79.5753110 113.4404840 115.9296170  81.8588580 120.3908390
 115.9440710  80.9269540 120.1727300 115.2221270  81.9448340 121.0298160
 122.1407380  78.4995920 119.7376970 121.4155570  79.0924700 119.5406360
 122.6682840  78.4919460 118.9390340 122.0920490  82.8970660 109.3889130
 121.4496650  82.2426280 109.6632850 121.7051150  83.3025750 108.6129800
 117.6706970  80.2256090 113.2360820 118.0230790  79.6284220 112.5762190
 116.7869300  79.9000320 113.4069070 113.7570250  80.9853780 110.6431230
 114.4441380  81.5322990 111.0238820 112.9702670  81.5294510 110.6780840
 105.8962650  76.6026600 106.1348310 106.7657500  76.8851400 106.4184230
 105.4052970  77.4162470 106.0197120 113.0597460  77.9899810 110.2556590
 113.5160240  78.8005060 110.4816780 112.7085670  77.6722950 111.0875080
 115.3630070  83.5006150 117.4848890 116.0072290  83.7065530 118.1622310
 115.7259510  82.7394550 117.0319740 108.9609240  68.3337460 110.7279110
 108.8323870  68.3255360 111.6764030 108.1371260  68.6720550 110.3770120
 116.6362150  81.5038500 116.2026340 117.2784380  80.8031660 116.3158510
 117.1611500  82.2836940 116.0223230 118.4099770  82.3033400 119.4062400
 118.7456010  82.8900090 120.0840320 117.4900110  82.1726110 119.6360190
 105.9603170  70.0928580 120.1885810 105.2461690  70.2925500 120.7938420
 106.3798210  69.3168150 120.5600610 114.2388350  82.3524730 122.5750460
 113.9185220  81.6333970 123.1196150 113.5646710  83.0279800 122.6486520
 107.8809160  78.4200070 108.2630370 107.2737110  79.1598970 108.2725670
 108.3558510  78.5099430 107.4368570 112.7888010  73.8193780 110.1632700
 112.0804160  74.2880120 110.6046310 113.0732490  73.1615790 110.7977890
 110.9923030  72.1278860 107.5383410 111.8413560  72.5649010 107.4723600
 110.6254300  72.4399120 108.3655470 121.6210800  71.4558440 119.0053620
 121.1184400  72.1963840 119.3447430 122.4367460  71.8442440 118.6890410
 119.9132810  76.6991620 112.4514980 118.9722950  76.7141850 112.6262670
 120.2276880  75.9127580 112.8975280 108.5861210  75.8136290 106.6951830
 108.6664800  74.8663800 106.8069230 109.4780960  76.1443170 106.8012490
 121.9158390  83.8700470 114.1269240 122.0405810  84.6931640 114.5993050
 122.7823950  83.6591200 113.7793390 106.2721400  82.0305250 109.6727880
 105.3461180  82.2726390 109.6633290 106.7377830  82.8579510 109.5512630
 108.3934200  85.1477750 122.9871950 109.1946930  85.4689800 123.4007350
 107.8786020  84.7873330 123.7091860 117.2298830  81.2557620 122.9347360
 116.6236990  81.2789220 122.1943110 116.9252940  80.5240660 123.4714610
 118.6599200  84.9837910 121.5456770 119.6120950  84.8995930 121.4957010
 118.5127420  85.6479620 122.2190560 121.5508400  84.3632120 107.0448680
 121.2649910  83.9497260 106.2302860 121.3527950  85.2919830 106.9249200
 116.2558360  79.4185430 106.0896280 115.7068460  79.8654730 106.7339020
 116.8777620  78.9134680 106.6133950 120.3093300  80.7727530 122.0218540
 121.0502770  81.1103290 121.5186000 119.5465980  80.9419590 121.4688310
 108.1455090  75.7780800 122.8258070 108.1860430  75.4794670 123.7343300
 109.0000590  76.1788410 122.6665590 110.0860900  74.3572900 120.7932560
 109.5557360  73.8663850 120.1655900 110.7548970  74.7857100 120.2590490
 114.4361120  77.4013960 105.2338680 114.9566780  76.6862980 104.8679830
 115.0829520  78.0399830 105.5339190 110.5733200  71.3235270 120.8729850
 110.4790070  70.7056020 120.1480720 109.9930590  72.0501560 120.6459760
 110.8192380  74.4509580 104.9319740 110.6181440  73.5876940 105.2933080
 110.6484430  74.3642940 103.9941340 112.8486860  73.0500370 121.1683340
 113.4386550  72.7416220 121.8561160 112.0307100  72.5780120 121.3243240
 117.6680290  72.6666180 121.4016360 116.9795810  72.0047720 121.3366350
 118.3886310  72.2204450 121.8464820 109.6175180  71.5510200 104.9197620
 109.9201080  71.5577630 104.0116770 110.3569770  71.2008060 105.4165280
 114.4523820  86.3167060 119.9014060 114.3782520  87.2202200 120.2086430
 113.5502660  85.9978960 119.8736130 112.8360110  70.4944820 105.9053820
 112.4882110  69.8168810 105.3256270 113.0372880  70.0334330 106.7197210
 105.8551110  83.6441650 113.2047680 106.1854120  82.7762710 112.9726320
 106.2842110  83.8500170 114.0352640 110.4513030  81.9750660 110.8649650
 110.1508570  81.8515630 111.7653560 110.3450520  81.1159250 110.4565380
 121.9803500  84.0129240 120.2306620 121.3805490  84.0721800 119.4870540
 122.1097400  83.0734220 120.3603470 120.6655140  80.7381220 118.3282780
 119.8514980  81.1678380 118.5908570 121.0729340  81.3499630 117.7151830
 122.0145540  75.8769420 119.8552000 121.7831630  75.6482170 118.9549950
 122.2750090  76.7968970 119.8096890 120.4533610  71.1025850 122.6331700
 121.3303790  71.1109250 123.0165700 120.4654450  70.3656690 122.0224050
 121.8996880  74.9555390 113.5219720 122.4234360  74.4618040 112.8909890
 122.4856300  75.0905750 114.2667290 122.0786600  75.0395260 117.0439270
 121.1289310  75.0058800 117.1584260 122.2599610  75.9495370 116.8089040
 107.9331040  73.2896940 106.1537900 108.6422740  72.8680160 105.6685180
 107.2170980  73.3572170 105.5221250 107.5805200  69.3436270 105.1940550
 108.3033330  69.8845210 105.5121770 107.8529720  69.0699690 104.3182090
 121.3896850  74.2128740 109.4612130 121.8855970  73.9799610 110.2461010
 121.1912920  73.3740580 109.0449770 121.1649730  68.7883820 118.4532810
 121.8021950  69.4017960 118.8192000 121.3124620  68.8244480 117.5082040
 120.7231190  85.4899820 111.8551050 121.3190260  85.1684390 111.1785470
 120.9809340  85.0171640 112.6464320 107.0229390  68.7498130 117.8388490
 106.6744210  69.2061950 118.6046670 106.6917090  67.8555260 117.9210920
 108.6293760  81.9217730 122.0041680 108.5863390  81.5510640 122.8856140
 108.7604770  82.8595300 122.1443500 112.3299790  83.4777320 117.6051400
 112.0891150  83.7451880 116.7181920 113.2702430  83.6483050 117.6602260
 114.5354210  69.9410010 121.3607910 114.4743100  70.5331840 122.1103320
 115.4754590  69.8335970 121.2158170 117.1728770  69.5980070 121.0000200
 117.7869180  69.9159360 120.3381280 117.7178330  69.1128660 121.6196060
 123.5903950  85.4971700 118.4062040 123.0962230  85.8940570 117.6889170
 122.9817240  84.8720910 118.7999320 107.6950030  68.2774330 121.1139260
 108.2433020  68.0962380 120.3505370 107.7605340  67.4868440 121.6495570
 117.9136810  68.1612210 117.3269490 117.0396650  68.4947320 117.1242420
 117.8047560  67.6885390 118.1521360 118.8208790  70.3683080 118.7111210
 118.4922150  69.5534840 118.3312940 119.7691090  70.3252890 118.5876900
 121.2743400  86.1395120 115.6848780 120.8146370  86.8910930 115.3106800
 120.6455860  85.4201590 115.6263580 120.2132700  69.7805150 114.3111490
 120.6540790  69.7250250 113.4633090 119.9440290  70.6963160 114.3821670
 118.0490830  68.1611250 113.0161500 118.6520200  68.7331460 113.4910020
 117.3083820  68.7250690 112.7935400 109.3777190  69.9093580 107.3278090
 109.9069950  69.1223380 107.1986040 110.0105510  70.5884770 107.5613620
 111.5715030  69.6468720 110.3823480 110.9417770  68.9456030 110.5493610
 111.0320170  70.4072850 110.1656640 114.5106980  86.2607950 123.0534090
 115.4374290  86.0252220 123.0970050 114.4957410  87.0879950 122.5720120
 122.7452040  85.8033520 110.0508340 122.9204230  85.1171260 109.4069260
 122.0473610  86.3280570 109.6585010 111.6970590  68.9252700 122.8175970
 111.4154860  69.4286300 122.0536790 112.0790290  68.1274450 122.4518100
 118.2986050  68.3406280 123.3956440 118.1851500  68.6600890 124.2907960
 119.1155790  68.7418790 123.0993720 121.0784540  85.4877810 122.8775130
 121.8709860  84.9927040 122.6701090 121.3717690  86.1667950 123.4850740
 115.3362240  78.1377770  95.6400450 114.5604340  77.6578210  95.9299020
 115.9875170  77.4583420  95.4656610 109.3528070  78.4497580  96.5176210
 108.5212950  78.1946290  96.9172720 109.9609050  78.5208350  97.2534130
 107.7620020  73.4099470  90.3018600 106.8736720  73.7515440  90.1998480
 108.0461210  73.2099790  89.4099430 105.7253030  76.0105120  96.1858300
 106.2969140  75.2427320  96.1861940 105.7254570  76.3093880  95.2764910
 115.5832980  84.8295970  94.0403570 114.9644420  85.2853470  93.4698010
 116.4384760  84.9847430  93.6393270 114.7771230  80.8134960  95.6470610
 114.7079510  79.8724900  95.4859740 115.5391090  80.9036370  96.2193180
 106.9677900  71.4189480  97.9727230 106.7880740  70.5215230  98.2529990
 106.5657980  71.9661350  98.6474180 109.9381410  71.9930970  91.3356980
 110.0448160  72.8934700  91.6425740 109.0273770  71.9448940  91.0451630
 107.5864570  73.9149980  96.5809570 108.2674680  74.1788350  97.1996970
 107.2712620  73.0750850  96.9147580 111.7789140  74.9617340  95.6682160
 112.2867360  75.4598310  96.3087180 112.3102380  74.1852540  95.4921520
 111.3128090  79.2411080  98.1119080 110.9797470  79.8680000  98.7540150
 111.4894770  79.7672960  97.3320750 105.8179530  80.3991740  88.8075110
 105.4407510  80.8878840  88.0760010 106.0752600  81.0717020  89.4381640
 113.4268460  68.8008130  94.2660620 113.7343440  68.2455020  93.5496120
 112.4969160  68.9352590  94.0833610 118.3768960  79.4205260  97.8850690
 118.7937750  79.2065370  97.0504150 119.1008780  79.6778050  98.4559310
 115.8149220  76.8656960  91.0020740 114.8878500  76.7994340  91.2309210
 115.9674040  77.8037090  90.8875980 111.4205860  77.3921700  93.7840470
 111.0162860  76.6798950  93.2886370 111.5068980  77.0474940  94.6728510
 111.8887560  81.0789260  95.9479680 111.5915850  80.4734730  95.2687460
 112.8387380  81.1166570  95.8369040 110.1334480  74.1664910  97.5639510
 110.6849070  74.2760250  96.7892760 110.6477990  74.5402510  98.2794740
 119.9773170  84.6521130  99.6102780 119.5003730  85.4593320  99.4175390
 119.2934960  83.9999460  99.7628990 109.8077210  77.6884270 101.1744850
 109.6684980  78.5607070 101.5432250 108.9258570  77.3457080 101.0292790
 108.1210490  76.2866680  91.2847120 108.0008090  77.0128770  90.6728390
 107.8111380  75.5169590  90.8075030 123.5572380  84.4133070 104.6794170
 124.0332100  84.8915960 105.3583250 124.1779540  84.3450560 103.9539670
 105.7595860  79.4581820  97.0915760 105.8376280  79.5930590  96.1471480
 106.3737540  78.7497710  97.2843880 116.8222370  85.3073920 100.4088990
 117.3367040  85.2181930 101.2111420 115.9791450  85.6533620 100.7016900
 105.8155380  80.4995990  99.6310220 105.9786420  80.0301350  98.8129590
 106.2807830  79.9919550 100.2959060 114.8743960  72.4970270 100.2706110
 114.4123330  72.7053290 101.0826050 114.4722070  71.6829620  99.9676780
 110.3788370  74.7535320  92.3952040 110.1529290  74.5372490  93.2998660
 109.5980900  75.1863780  92.0498010 112.8187580  75.6520900 103.0612310
 112.7231180  74.7115630 102.9112710 113.6619560  75.8735970 102.6660380
 107.9498120  72.0634570 101.2146090 107.5561510  72.9109780 101.4218870
 107.2616520  71.4260940 101.4054730 114.5243170  72.1469540 104.2842830
 113.8341490  71.9541740 104.9188920 115.2675470  72.4304180 104.8167130
 105.2515170  69.9863030  95.2476170 104.9628220  70.5565890  95.9601150
 105.9960930  69.5067480  95.6107400 105.4385400  73.9283150  86.4578890
 105.3560070  74.8713910  86.5993880 105.0868460  73.7858060  85.5791240
 109.0885910  72.5448670  94.4843450 108.7485960  73.0223900  95.2410500
 108.3263230  72.0913790  94.1244550 113.5391500  76.7223960  97.2714650
 113.9061630  76.2482530  98.0175990 113.3496560  77.5965530  97.6122990
 106.4031990  71.4667650  93.4008120 106.1178910  71.1023320  94.2386740
 106.3410850  70.7348110  92.7871260 111.3290870  75.7632600  99.5898860
 111.0247940  76.6424580  99.8149220 112.2837330  75.8232390  99.6256300
 109.8572660  79.9693590  90.1865710 109.0834920  79.4291210  90.0264430
 110.5867290  79.4500200  89.8483470 115.9979440  79.0368010 101.8661100
 115.9316750  78.1163680 101.6118690 115.3684580  79.1343450 102.5805740
 109.9010060  79.6373970  93.8244520 110.4188730  78.8342230  93.7701410
 109.4494080  79.5753110  94.6661350 107.3854600  76.6035340 100.7370220
 107.0269540  77.2689190 101.3243560 107.0909160  75.7718890 101.1082840
 115.9296170  81.8588580 101.6164900 115.9440710  80.9269540 101.3983810
 115.2221270  81.9448340 102.2554670 117.6706970  80.2256090  94.4617330
 118.0230790  79.6284220  93.8018700 116.7869300  79.9000320  94.6325580
 105.8962650  76.6026600  87.3604820 106.7657500  76.8851400  87.6440740
 105.4052970  77.4162470  87.2453630 113.0597460  77.9899810  91.4813100
 113.5160240  78.8005060  91.7073290 112.7085670  77.6722950  92.3131590
 115.3630070  83.5006150  98.7105400 116.0072290  83.7065530  99.3878820
 115.7259510  82.7394550  98.2576250 108.9609240  68.3337460  91.9535620
 108.8323870  68.3255360  92.9020540 108.1371260  68.6720550  91.6026630
 116.6362150  81.5038500  97.4282850 117.2784380  80.8031660  97.5415020
 117.1611500  82.2836940  97.2479740 118.4099770  82.3033400 100.6318910
 118.7456010  82.8900090 101.3096830 117.4900110  82.1726110 100.8616700
 106.2633900  85.8153980  87.9266450 106.6231540  86.4143320  87.2723720
 106.1226240  86.3613870  88.7001480 105.9603170  70.0928580 101.4142320
 105.2461690  70.2925500 102.0194930 106.3798210  69.3168150 101.7857120
 107.8809160  78.4200070  89.4886880 107.2737110  79.1598970  89.4982180
 108.3558510  78.5099430  88.6625080 114.4143940  75.2390480  99.3881740
 114.9129190  75.7136300 100.0533590 114.5566890  74.3154000  99.5951770
 106.2721400  82.0305250  90.8984390 105.3461180  82.2726390  90.8889800
 106.7377830  82.8579510  90.7769140 112.4978230  85.1361990  86.8468450
 113.2906840  85.4250820  86.3950240 111.9782580  84.7054160  86.1680930
 118.6599200  84.9837910 102.7713280 119.6120950  84.8995930 102.7213520
 118.5127420  85.6479620 103.4447070 106.1132010  77.6351210 103.1564510
 106.6171030  77.0558490 103.7280740 105.3739430  77.9191440 103.6940880
 116.2558360  79.4185430  87.3152790 115.7068460  79.8654730  87.9595530
 116.8777620  78.9134680  87.8390460 108.1455090  75.7780800 104.0514580
 108.1860430  75.4794670 104.9599810 109.0000590  76.1788410 103.8922100
 110.0860900  74.3572900 102.0189070 109.5557360  73.8663850 101.3912410
 110.7548970  74.7857100 101.4847000 110.5733200  71.3235270 102.0986360
 110.4790070  70.7056020 101.3737230 109.9930590  72.0501560 101.8716270
 113.3394640  69.8808510  99.1313750 112.8911940  69.9032770  98.2859300
 112.7059840  69.4827530  99.7284050 113.7454190  78.7762840  99.7526190
 114.1642300  79.6195570  99.5802430 112.8262820  78.9134880  99.5232970
 116.0818090  76.5079020 101.1364030 116.2014300  75.9120160 101.8758870
 116.9412090  76.5448710 100.7165330 112.8486860  73.0500370 102.3939850
 113.4386550  72.7416220 103.0817670 112.0307100  72.5780120 102.5499750
 114.4523820  86.3167060 101.1270570 114.3782520  87.2202200 101.4342940
 113.5502660  85.9978960 101.0992640 112.8360110  70.4944820  87.1310330
 112.4882110  69.8168810  86.5512780 113.0372880  70.0334330  87.9453720
 110.4513030  81.9750660  92.0906160 110.1508570  81.8515630  92.9910070
 110.3450520  81.1159250  91.6821890 121.9803500  84.0129240 101.4563130
 121.3805490  84.0721800 100.7127050 122.1097400  83.0734220 101.5859980
 106.1765750  77.0232470  93.5274700 105.5214590  76.7544110  92.8834400
 107.0143700  76.9136950  93.0776680 120.6655140  80.7381220  99.5539290
 119.8514980  81.1678380  99.8165080 121.0729340  81.3499630  98.9408340
 107.2141680  77.4085040  98.0678040 107.5814720  77.3212440  98.9474060
 106.6452500  76.6451590  97.9684900 106.7657680  74.3194130 101.9736460
 105.8713730  74.2860890 102.3130170 107.3055230  74.5180920 102.7387710
 105.3903830  74.2331400  89.4700030 104.4867910  74.4961600  89.2951690
 105.8744450  74.5042570  88.6899990 107.5805200  69.3436270  86.4197060
 108.3033330  69.8845210  86.7378280 107.8529720  69.0699690  85.5438600
 123.7074280  70.6797610  86.4612460 124.6323590  70.5478790  86.2530750
 123.6850070  70.7590430  87.4148910 112.3299790  83.4777320  98.8307910
 112.0891150  83.7451880  97.9438430 113.2702430  83.6483050  98.8858770
 114.5354210  69.9410010 102.5864420 114.4743100  70.5331840 103.3359830
 115.4754590  69.8335970 102.4414680 123.5903950  85.4971700  99.6318550
 123.0962230  85.8940570  98.9145680 122.9817240  84.8720910 100.0255830
 108.0994020  82.2338360  99.3004010 107.3728080  81.6143650  99.2329960
 108.1603170  82.6278970  98.4302090 114.4434620  85.3391850  96.9122400
 114.7312430  85.0846150  96.0355410 114.9557840  84.7869210  97.5027970
 115.6611630  69.0782050  97.4918910 114.8783420  69.5527550  97.7715670
 115.3674560  68.1736880  97.3832090 107.0052040  69.3829530  90.0132630
 107.7631400  69.4958410  89.4396660 106.5429210  70.2198730  89.9676060
 118.0490830  68.1611250  94.2418010 118.6520200  68.7331460  94.7166530
 117.3083820  68.7250690  94.0191910 107.9886720  84.2445980  89.9550910
 107.4634340  84.6254010  89.2512870 107.9131300  84.8696750  90.6760620
 109.3777190  69.9093580  88.5534600 109.9069950  69.1223380  88.4242550
 110.0105510  70.5884770  88.7870130 111.5715030  69.6468720  91.6079990
 110.9417770  68.9456030  91.7750120 111.0320170  70.4072850  91.3913150
 111.6970590  68.9252700 104.0432480 111.4154860  69.4286300 103.2793300
 112.0790290  68.1274450 103.6774610 110.5879690  86.1928360  88.8300160
 111.3198510  85.9087640  88.2824050 110.8473360  85.9541640  89.7199540
 121.0784540  85.4877810 104.1031640 121.8709860  84.9927040 103.8957600
 121.3717690  86.1667950 104.7107250 117.2044200  76.3598750  74.9847690
 117.1238250  75.4453360  74.7139400 116.7908620  76.8565820  74.2787400
 107.7620020  73.4099470  71.5275110 106.8736720  73.7515440  71.4254990
 108.0461210  73.2099790  70.6355940 115.5832980  84.8295970  75.2660080
 114.9644420  85.2853470  74.6954520 116.4384760  84.9847430  74.8649780
 114.7771230  80.8134960  76.8727120 114.7079510  79.8724900  76.7116250
 115.5391090  80.9036370  77.4449690 119.5900520  71.1155780  74.0324390
 120.4110140  70.6252350  74.0749870 119.6234600  71.7053440  74.7856230
 107.5864570  73.9149980  77.8066080 108.2674680  74.1788350  78.4253480
 107.2712620  73.0750850  78.1404090 111.3128090  79.2411080  79.3375590
 110.9797470  79.8680000  79.9796660 111.4894770  79.7672960  78.5577260
 113.4268460  68.8008130  75.4917130 113.7343440  68.2455020  74.7752630
 112.4969160  68.9352590  75.3090120 118.3768960  79.4205260  79.1107200
 118.7937750  79.2065370  78.2760660 119.1008780  79.6778050  79.6815820
 115.8149220  76.8656960  72.2277250 114.8878500  76.7994340  72.4565720
 115.9674040  77.8037090  72.1132490 115.8018300  73.1373960  69.2244410
 114.8621970  73.2987920  69.3096870 116.1201560  73.8559640  68.6780400
 122.3231060  77.8192480  79.2023440 121.4949690  77.8885570  78.7273570
 122.9181540  78.4046790  78.7339270 111.8887560  81.0789260  77.1736190
 111.5915850  80.4734730  76.4943970 112.8387380  81.1166570  77.0625550
 116.1306590  82.6060140  73.7066490 116.5702500  83.3484470  73.2921880
 116.0693480  82.8486710  74.6305450 121.6028350  68.9206880  68.0526290
 121.2901010  69.0133710  68.9525360 122.3640820  69.4987910  68.0023720
 116.8222370  85.3073920  81.6345500 117.3367040  85.2181930  82.4367930
 115.9791450  85.6533620  81.9273410 111.2765150  85.3727790  72.8401120
 111.1007630  84.4563330  72.6268920 110.4220890  85.7315080  73.0798920
 114.8743960  72.4970270  81.4962620 114.4123330  72.7053290  82.3082560
 114.4722070  71.6829620  81.1933290 116.9698180  75.2180970  84.7258070
 117.2951590  74.3844720  84.3860300 117.7578510  75.7409490  84.8736400
 113.7032970  69.2512450  70.7733130 113.0787150  69.2472320  71.4986440
 113.6163090  68.3843410  70.3769100 117.6086130  74.7598690  72.2199200
 117.0095020  75.4834490  72.0362820 118.1565740  74.6975470  71.4375650
 116.2151000  73.3962230  74.2502480 116.6080570  73.7134430  73.4371170
 116.5767850  72.5174110  74.3647000 107.9498120  72.0634570  82.4402600
 107.5561510  72.9109780  82.6475380 107.2616520  71.4260940  82.6311240
 114.5243170  72.1469540  85.5099340 113.8341490  71.9541740  86.1445430
 115.2675470  72.4304180  86.0423640 105.4385400  73.9283150  67.6835400
 105.3560070  74.8713910  67.8250390 105.0868460  73.7858060  66.8047750
 116.8006140  75.9867980  78.3453260 116.0687260  76.4954790  78.6943360
 116.4030480  75.1697960  78.0442040 113.3003680  73.6634260  69.7412510
 113.4216500  73.6220740  70.6898330 112.9152190  74.5258410  69.5859240
 112.3125180  75.9735400  69.1395810 111.7442080  75.5253650  68.5131720
 113.0214180  76.3328180  68.6060960 106.4031990  71.4667650  74.6264630
 106.1178910  71.1023320  75.4643250 106.3410850  70.7348110  74.0127770
 111.3290870  75.7632600  80.8155370 111.0247940  76.6424580  81.0405730
 112.2837330  75.8232390  80.8512810 120.6160640  78.9658950  77.2048610
 121.3359760  79.4614240  76.8144720 120.4142460  78.2876840  76.5602480
 116.0770580  70.3596910  71.3478000 115.2635190  69.8610080  71.2723310
 115.8832530  71.1995160  70.9314350 115.9979440  79.0368010  83.0917610
 115.9316750  78.1163680  82.8375200 115.3684580  79.1343450  83.8062250
 118.7918970  74.7316560  69.6440160 119.6798590  75.0433790  69.4691500
 118.7624060  73.8588810  69.2520740 114.7879560  80.9040250  70.3228330
 115.1295260  81.6482480  69.8271650 113.9592270  81.2171370  70.6853160
 107.3854600  76.6035340  81.9626730 107.0269540  77.2689190  82.5500070
 107.0909160  75.7718890  82.3339350 115.9296170  81.8588580  82.8421410
 115.9440710  80.9269540  82.6240320 115.2221270  81.9448340  83.4811180
 122.1407380  78.4995920  82.1889990 121.4155570  79.0924700  81.9919380
 122.6682840  78.4919460  81.3903360 117.6706970  80.2256090  75.6873840
 118.0230790  79.6284220  75.0275210 116.7869300  79.9000320  75.8582090
 113.7570250  80.9853780  73.0944250 114.4441380  81.5322990  73.4751840
 112.9702670  81.5294510  73.1293860 105.8962650  76.6026600  68.5861330
 106.7657500  76.8851400  68.8697250 105.4052970  77.4162470  68.4710140
 115.3630070  83.5006150  79.9361910 116.0072290  83.7065530  80.6135330
 115.7259510  82.7394550  79.4832760 108.9609240  68.3337460  73.1792130
 108.8323870  68.3255360  74.1277050 108.1371260  68.6720550  72.8283140
 116.6362150  81.5038500  78.6539360 117.2784380  80.8031660  78.7671530
 117.1611500  82.2836940  78.4736250 118.4099770  82.3033400  81.8575420
 118.7456010  82.8900090  82.5353340 117.4900110  82.1726110  82.0873210
 105.9603170  70.0928580  82.6398830 105.2461690  70.2925500  83.2451440
 106.3798210  69.3168150  83.0113630 114.2388350  82.3524730  85.0263480
 113.9185220  81.6333970  85.5709170 113.5646710  83.0279800  85.0999540
 112.2802520  83.1985180  69.9696630 112.2712620  83.9314870  69.3541140
 111.3600880  82.9516760  70.0623590 120.8203980  71.5407830  71.1987840
 120.1917140  71.6453500  70.4846070 120.3255900  71.7604610  71.9881720
 115.2662120  83.2613420  68.6321820 115.3674100  83.0577410  67.7023800
 114.3663860  83.0071700  68.8369600 114.4143940  75.2390480  80.6138250
 114.9129190  75.7136300  81.2790100 114.5566890  74.3154000  80.8208280
 116.8203440  70.5444440  74.0541510 116.6971220  70.5630570  73.1051020
 117.7688000  70.5923380  74.1739910 113.9080230  85.7799740  73.3269490
 114.1621730  85.7421130  72.4048860 112.9592710  85.6533070  73.3197740
 110.9923030  72.1278860  69.9896430 111.8413560  72.5649010  69.9236620
 110.6254300  72.4399120  70.8168490 119.9132810  76.6991620  74.9028000
 118.9722950  76.7141850  75.0775690 120.2276880  75.9127580  75.3488300
 109.8914450  78.3811220  68.4631960 110.6577720  78.2692580  69.0257390
 109.9689140  77.6849190  67.8108730 108.5861210  75.8136290  69.1464850
 108.6664800  74.8663800  69.2582250 109.4780960  76.1443170  69.2525510
 112.4978230  85.1361990  68.0724960 113.2906840  85.4250820  67.6206750
 111.9782580  84.7054160  67.3937440 117.2298830  81.2557620  85.3860380
 116.6236990  81.2789220  84.6456130 116.9252940  80.5240660  85.9227630
 118.6599200  84.9837910  83.9969790 119.6120950  84.8995930  83.9470030
 118.5127420  85.6479620  84.6703580 106.1132010  77.6351210  84.3821020
 106.6171030  77.0558490  84.9537250 105.3739430  77.9191440  84.9197390
 113.0155630  80.3565400  67.9367310 112.9106270  79.7417750  68.6628690
 112.8479850  79.8331290  67.1530320 111.9233480  78.3776350  70.4374600
 112.3449900  78.2116220  71.2805990 112.0484320  77.5676580  69.9429740
 114.4361120  77.4013960  67.6851700 114.9566780  76.6862980  67.3192850
 115.0829520  78.0399830  67.9852210 118.9838960  78.8242360  83.0086770
 119.3979980  78.9787440  83.8577190 118.0489960  78.9497580  83.1712550
 110.5733200  71.3235270  83.3242870 110.4790070  70.7056020  82.5993740
 109.9930590  72.0501560  83.0972780 113.3394640  69.8808510  80.3570260
 112.8911940  69.9032770  79.5115810 112.7059840  69.4827530  80.9540560
 113.7454190  78.7762840  80.9782700 114.1642300  79.6195570  80.8058940
 112.8262820  78.9134880  80.7489480 116.0818090  76.5079020  82.3620540
 116.2014300  75.9120160  83.1015380 116.9412090  76.5448710  81.9421840
 111.5961610  85.0815850  82.0940430 111.0582700  85.8061910  81.7749130
 111.8495570  84.6046190  81.3037770 117.6680290  72.6666180  83.8529380
 116.9795810  72.0047720  83.7879370 118.3886310  72.2204450  84.2977840
 118.2980690  69.2617810  69.9119640 118.5782980  68.4185710  70.2679060
 117.5246420  69.4940920  70.4258390 109.6175180  71.5510200  67.3710640
 109.9201080  71.5577630  66.4629790 110.3569770  71.2008060  67.8678300
 114.4523820  86.3167060  82.3527080 114.3782520  87.2202200  82.6599450
 113.5502660  85.9978960  82.3249150 115.0009150  85.4825570  69.9753440
 115.8959940  85.8210540  69.9972200 115.0326780  84.7604980  69.3477720
 108.6405310  80.8552620  68.2040440 109.0780180  81.3982290  68.8598020
 109.1253040  80.0299570  68.2136780 123.6821380  79.3544640  75.3665480
 124.0530210  78.5711960  74.9601450 124.3223310  80.0433740  75.1882780
 120.6655140  80.7381220  80.7795800 119.8514980  81.1678380  81.0421590
 121.0729340  81.3499630  80.1664850 119.1256190  71.8173760  68.9749700
 119.5441070  71.6304740  68.1346360 118.8192250  70.9652810  69.2852630
 122.6245920  76.7297900  72.6725500 122.2489520  75.9625830  72.2406790
 121.8949040  77.1120600  73.1600430 107.2141680  77.4085040  79.2934550
 107.5814720  77.3212440  80.1730570 106.6452500  76.6451590  79.1941410
 106.7657680  74.3194130  83.1992970 105.8713730  74.2860890  83.5386680
 107.3055230  74.5180920  83.9644220 105.3903830  74.2331400  70.6956540
 104.4867910  74.4961600  70.5208200 105.8744450  74.5042570  69.9156500
 121.8996880  74.9555390  75.9732740 122.4234360  74.4618040  75.3422910
 122.4856300  75.0905750  76.7180310 107.9331040  73.2896940  68.6050920
 108.6422740  72.8680160  68.1198200 107.2170980  73.3572170  67.9734270
 107.5805200  69.3436270  67.6453570 108.3033330  69.8845210  67.9634790
 107.8529720  69.0699690  66.7695110 121.3896850  74.2128740  71.9125150
 121.8855970  73.9799610  72.6974030 121.1912920  73.3740580  71.4962790
 122.8184010  72.8489690  74.4462830 122.7083290  72.6945730  75.3845100
 123.5791600  72.3210630  74.2038240 123.7074280  70.6797610  67.6868970
 124.6323590  70.5478790  67.4787260 123.6850070  70.7590430  68.6405420
 123.7812770  71.4508270  70.3125680 122.9864270  71.3853390  70.8418590
 123.9856050  72.3858910  70.3011030 112.3299790  83.4777320  80.0564420
 112.0891150  83.7451880  79.1694940 113.2702430  83.6483050  80.1115280
 114.5354210  69.9410010  83.8120930 114.4743100  70.5331840  84.5616340
 115.4754590  69.8335970  83.6671190 117.1728770  69.5980070  83.4513220
 117.7869180  69.9159360  82.7894300 117.7178330  69.1128660  84.0709080
 107.6950030  68.2774330  83.5652280 108.2433020  68.0962380  82.8018390
 107.7605340  67.4868440  84.1008590 117.9136810  68.1612210  79.7782510
 117.0396650  68.4947320  79.5755440 117.8047560  67.6885390  80.6034380
 114.4434620  85.3391850  78.1378910 114.7312430  85.0846150  77.2611920
 114.9557840  84.7869210  78.7284480 115.6611630  69.0782050  78.7175420
 114.8783420  69.5527550  78.9972180 115.3674560  68.1736880  78.6088600
 122.0771270  69.4120390  74.7733330 122.0159670  68.4681610  74.6264350
 122.8563300  69.5200480  75.3186790 107.0052040  69.3829530  71.2389140
 107.7631400  69.4958410  70.6653170 106.5429210  70.2198730  71.1932570
 118.0490830  68.1611250  75.4674520 118.6520200  68.7331460  75.9423040
 117.3083820  68.7250690  75.2448420 121.1925430  68.5632810  70.7414800
 121.3876060  69.4616260  71.0082230 120.4055300  68.3319890  71.2347750
 109.3777190  69.9093580  69.7791110 109.9069950  69.1223380  69.6499060
 110.0105510  70.5884770  70.0126640 111.6970590  68.9252700  85.2688990
 111.4154860  69.4286300  84.5049810 112.0790290  68.1274450  84.9031120
 110.5879690  86.1928360  70.0556670 111.3198510  85.9087640  69.5080560
 110.8473360  85.9541640  70.9456050 109.3528070  78.4497580  58.9689230
 108.5212950  78.1946290  59.3685740 109.9609050  78.5208350  59.7047150
 109.3329330  82.4837670  59.1647250 109.6357370  81.5935410  58.9857470
 110.0772920  83.0407890  58.9369500 107.7620020  73.4099470  52.7531620
 106.8736720  73.7515440  52.6511500 108.0461210  73.2099790  51.8612450
 115.5832980  84.8295970  56.4916590 114.9644420  85.2853470  55.9211030
 116.4384760  84.9847430  56.0906290 114.7771230  80.8134960  58.0983630
 114.7079510  79.8724900  57.9372760 115.5391090  80.9036370  58.6706200
 109.9381410  71.9930970  53.7870000 110.0448160  72.8934700  54.0938760
 109.0273770  71.9448940  53.4964650 119.5900520  71.1155780  55.2580900
 120.4110140  70.6252350  55.3006380 119.6234600  71.7053440  56.0112740
 111.7789140  74.9617340  58.1195180 112.2867360  75.4598310  58.7600200
 112.3102380  74.1852540  57.9434540 123.8800070  73.1322530  61.8224530
 123.1752240  73.5204240  61.3039640 124.1457990  73.8272820  62.4245460
 110.0625240  69.6015900  62.3858600 110.0643680  70.1188290  61.5804500
 109.2329550  69.1246080  62.3628530 116.4496330  79.7135210  53.8848500
 115.8313600  80.1784660  53.3211220 116.9619580  80.4062690  54.3018010
 111.3128090  79.2411080  60.5632100 110.9797470  79.8680000  61.2053170
 111.4894770  79.7672960  59.7833770 109.7440570  71.3125860  60.3929050
 110.0857380  72.1567910  60.0982920 108.8056380  71.4609600  60.5094390
 110.5247190  81.2091880  62.3781280 111.1421190  81.8842960  62.0965730
 109.6640310  81.6179860  62.2868780 105.8179530  80.3991740  51.2588130
 105.4407510  80.8878840  50.5273030 106.0752600  81.0717020  51.8894660
 121.4424780  82.6731290  60.2935920 120.7588300  83.3430400  60.2852590
 121.9819070  82.8711940  59.5280780 122.8948920  72.5010950  58.4217650
 121.9473830  72.5349930  58.5533080 123.2198910  73.3149900  58.8067010
 113.4268460  68.8008130  56.7173640 113.7343440  68.2455020  56.0009140
 112.4969160  68.9352590  56.5346630 111.4205860  77.3921700  56.2353490
 111.0162860  76.6798950  55.7399390 111.5068980  77.0474940  57.1241530
 111.8887560  81.0789260  58.3992700 111.5915850  80.4734730  57.7200480
 112.8387380  81.1166570  58.2882060 119.9773170  84.6521130  62.0615800
 119.5003730  85.4593320  61.8688410 119.2934960  83.9999460  62.2142010
 110.9805990  80.8170950  65.0500500 110.0834520  81.0410920  65.2973900
 111.0058860  80.9405890  64.1011900 109.8077210  77.6884270  63.6257870
 109.6684980  78.5607070  63.9945270 108.9258570  77.3457080  63.4805810
 116.1306590  82.6060140  54.9323000 116.5702500  83.3484470  54.5178390
 116.0693480  82.8486710  55.8561960 111.6057560  83.6305970  65.8343020
 111.5772990  84.0348920  64.9671450 111.4422530  82.7016330  65.6714620
 108.1210490  76.2866680  53.7360140 108.0008090  77.0128770  53.1241410
 107.8111380  75.5169590  53.2588050 105.7595860  79.4581820  59.5428780
 105.8376280  79.5930590  58.5984500 106.3737540  78.7497710  59.7356900
 107.0043490  81.1582010  55.9534960 106.5971570  81.2996600  55.0988560
 107.8956500  80.8742170  55.7506170 122.9605630  81.6045920  64.2907200
 123.0868690  81.3657800  63.3724380 123.0027010  80.7730460  64.7629280
 116.8222370  85.3073920  62.8602010 117.3367040  85.2181930  63.6624440
 115.9791450  85.6533620  63.1529920 118.7976770  85.5929260  52.2886010
 118.6377910  85.3032200  53.1867840 118.6323480  84.8169390  51.7531240
 111.2765150  85.3727790  54.0657630 111.1007630  84.4563330  53.8525430
 110.4220890  85.7315080  54.3055430 118.5002900  83.1016820  50.8484010
 117.8068060  83.0994110  50.1886290 119.2425760  82.6776140  50.4178180
 122.8129640  73.6578380  65.2556940 122.1973910  74.1658050  64.7272400
 122.4926060  72.7576710  65.1982880 105.8155380  80.4995990  62.0823240
 105.9786420  80.0301350  61.2642610 106.2807830  79.9919550  62.7472080
 110.5874150  69.6301750  57.1183810 110.1442300  70.4111290  56.7868330
 111.1459140  69.9531640  57.8254750 119.8748470  73.7179220  63.8515790
 119.0242060  73.4184970  64.1724860 119.7150260  73.9621230  62.9399610
 113.7032970  69.2512450  51.9989640 113.0787150  69.2472320  52.7242950
 113.6163090  68.3843410  51.6025610 112.6250050  70.1749080  58.9773410
 112.9222380  71.0811910  58.8965430 113.1735610  69.6867860  58.3632980
 105.2515170  69.9863030  57.6989190 104.9628220  70.5565890  58.4114170
 105.9960930  69.5067480  58.0620420 113.2383530  72.6622180  57.9762260
 113.2419590  72.2212130  57.1266800 114.1334650  72.9839510  58.0834080
 109.0885910  72.5448670  56.9356470 108.7485960  73.0223900  57.6923520
 108.3263230  72.0913790  56.5757570 117.2632050  71.4401660  58.9832710
 117.2804790  71.8910310  59.8274560 117.0147630  70.5407300  59.1966150
 120.6902800  68.8533840  64.8219090 121.0148570  68.1223500  65.3477070
 120.7259310  68.5347480  63.9200080 107.3894360  79.8747420  64.2419050
 107.0049150  79.2341090  64.8402010 107.7006550  80.5783540  64.8113780
 113.5391500  76.7223960  59.7227670 113.9061630  76.2482530  60.4689010
 113.3496560  77.5965530  60.0636010 106.4031990  71.4667650  55.8521140
 106.1178910  71.1023320  56.6899760 106.3410850  70.7348110  55.2384280
 109.8572660  79.9693590  52.6378730 109.0834920  79.4291210  52.4777450
 110.5867290  79.4500200  52.2996490 115.9979440  79.0368010  64.3174120
 115.9316750  78.1163680  64.0631710 115.3684580  79.1343450  65.0318760
 109.9010060  79.6373970  56.2757540 110.4188730  78.8342230  56.2214430
 109.4494080  79.5753110  57.1174370 114.7879560  80.9040250  51.5484840
 115.1295260  81.6482480  51.0528160 113.9592270  81.2171370  51.9109670
 110.5867720  77.0619580  66.0722790 110.2867860  77.2076760  65.1750610
 111.3578960  76.5024870  65.9796180 115.9296170  81.8588580  64.0677920
 115.9440710  80.9269540  63.8496830 115.2221270  81.9448340  64.7067690
 121.0633240  76.0428400  50.3376530 120.9796960  76.4742620  49.4872970
 121.7827430  76.5026750  50.7703350 122.1407380  78.4995920  63.4146500
 121.4155570  79.0924700  63.2175890 122.6682840  78.4919460  62.6159870
 113.7570250  80.9853780  54.3200760 114.4441380  81.5322990  54.7008350
 112.9702670  81.5294510  54.3550370 105.8962650  76.6026600  49.8117840
 106.7657500  76.8851400  50.0953760 105.4052970  77.4162470  49.6966650
 115.3630070  83.5006150  61.1618420 116.0072290  83.7065530  61.8391840
 115.7259510  82.7394550  60.7089270 108.9609240  68.3337460  54.4048640
 108.8323870  68.3255360  55.3533560 108.1371260  68.6720550  54.0539650
 116.6362150  81.5038500  59.8795870 117.2784380  80.8031660  59.9928040
 117.1611500  82.2836940  59.6992760 120.4817870  81.7887120  49.6035010
 120.2555450  81.0717560  50.1959650 120.0914070  81.5399560  48.7656760
 118.4099770  82.3033400  63.0831930 118.7456010  82.8900090  63.7609850
 117.4900110  82.1726110  63.3129720 105.9603170  70.0928580  63.8655340
 105.2461690  70.2925500  64.4707950 106.3798210  69.3168150  64.2370140
 120.0634120  79.7059060  51.2649170 119.7755820  80.1671750  52.0527050
 120.8586290  79.2456830  51.5333390 106.2475760  84.0808840  64.8521870
 106.3566880  83.1403580  64.7117260 105.5956320  84.3463590  64.2035600
 114.2388350  82.3524730  66.2519990 113.9185220  81.6333970  66.7965680
 113.5646710  83.0279800  66.3256050 112.2802520  83.1985180  51.1953140
 112.2712620  83.9314870  50.5797650 111.3600880  82.9516760  51.2880100
 107.8809160  78.4200070  51.9399900 107.2737110  79.1598970  51.9495200
 108.3558510  78.5099430  51.1138100 120.8203980  71.5407830  52.4244350
 120.1917140  71.6453500  51.7102580 120.3255900  71.7604610  53.2138230
 115.2662120  83.2613420  49.8578330 115.3674100  83.0577410  48.9280310
 114.3663860  83.0071700  50.0626110 114.4143940  75.2390480  61.8394760
 114.9129190  75.7136300  62.5046610 114.5566890  74.3154000  62.0464790
 116.8203440  70.5444440  55.2798020 116.6971220  70.5630570  54.3307530
 117.7688000  70.5923380  55.3996420 113.9080230  85.7799740  54.5526000
 114.1621730  85.7421130  53.6305370 112.9592710  85.6533070  54.5454250
 110.9923030  72.1278860  51.2152940 111.8413560  72.5649010  51.1493130
 110.6254300  72.4399120  52.0425000 121.6210800  71.4558440  62.6823150
 121.1184400  72.1963840  63.0216960 122.4367460  71.8442440  62.3659940
 109.8914450  78.3811220  49.6888470 110.6577720  78.2692580  50.2513900
 109.9689140  77.6849190  49.0365240 108.5861210  75.8136290  50.3721360
 108.6664800  74.8663800  50.4838760 109.4780960  76.1443170  50.4782020
 109.3875920  85.9631680  57.4755900 110.1238400  85.4147140  57.7464470
 109.7716840  86.8287690  57.3361890 106.2721400  82.0305250  53.3497410
 105.3461180  82.2726390  53.3402820 106.7377830  82.8579510  53.2282160
 108.3934200  85.1477750  66.6641480 109.1946930  85.4689800  67.0776880
 107.8786020  84.7873330  67.3861390 112.4978230  85.1361990  49.2981470
 113.2906840  85.4250820  48.8463260 111.9782580  84.7054160  48.6193950
 121.5508400  84.3632120  50.7218210 121.2649910  83.9497260  49.9072390
 121.3527950  85.2919830  50.6018730 106.1132010  77.6351210  65.6077530
 106.6171030  77.0558490  66.1793760 105.3739430  77.9191440  66.1453900
 113.0155630  80.3565400  49.1623820 112.9106270  79.7417750  49.8885200
 112.8479850  79.8331290  48.3786830 113.1669950  79.0422200  65.1413050
 112.4015620  79.6107200  65.0567720 113.3485910  78.7498410  64.2481280
 108.1455090  75.7780800  66.5027600 108.1860430  75.4794670  67.4112830
 109.0000590  76.1788410  66.3435120 118.9838960  78.8242360  64.2343280
 119.3979980  78.9787440  65.0833700 118.0489960  78.9497580  64.3969060
 119.4561130  76.1638520  66.2382430 120.0381900  75.4090840  66.1502910
 119.6322900  76.6945960  65.4613910 113.7454190  78.7762840  62.2039210
 114.1642300  79.6195570  62.0315450 112.8262820  78.9134880  61.9745990
 110.8192380  74.4509580  48.6089270 110.6181440  73.5876940  48.9702610
 110.6484430  74.3642940  47.6710870 111.5961610  85.0815850  63.3196940
 111.0582700  85.8061910  63.0005640 111.8495570  84.6046190  62.5294280
 118.2980690  69.2617810  51.1376150 118.5782980  68.4185710  51.4935570
 117.5246420  69.4940920  51.6514900 114.4523820  86.3167060  63.5783590
 114.3782520  87.2202200  63.8855960 113.5502660  85.9978960  63.5505660
 115.0009150  85.4825570  51.2009950 115.8959940  85.8210540  51.2228710
 115.0326780  84.7604980  50.5734230 108.6405310  80.8552620  49.4296950
 109.0780180  81.3982290  50.0854530 109.1253040  80.0299570  49.4393290
 105.8551110  83.6441650  56.8817210 106.1854120  82.7762710  56.6495850
 106.2842110  83.8500170  57.7122170 110.4513030  81.9750660  54.5419180
 110.1508570  81.8515630  55.4423090 110.3450520  81.1159250  54.1334910
 106.3441320  84.5112240  59.6198840 105.9072310  84.6913040  60.4522990
 106.9119000  85.2686860  59.4780560 122.6761410  78.4994540  51.7480060
 123.4380320  79.0691190  51.8539750 122.6915780  77.9321740  52.5188370
 120.6655140  80.7381220  62.0052310 119.8514980  81.1678380  62.2678100
 121.0729340  81.3499630  61.3921360 119.1256190  71.8173760  50.2006210
 119.5441070  71.6304740  49.3602870 118.8192250  70.9652810  50.5109140
 122.6245920  76.7297900  53.8982010 122.2489520  75.9625830  53.4663300
 121.8949040  77.1120600  54.3856940 122.0145540  75.8769420  63.5321530
 121.7831630  75.6482170  62.6319480 122.2750090  76.7968970  63.4866420
 120.4533610  71.1025850  66.3101230 121.3303790  71.1109250  66.6935230
 120.4654450  70.3656690  65.6993580 105.3903830  74.2331400  51.9213050
 104.4867910  74.4961600  51.7464710 105.8744450  74.5042570  51.1413010
 122.0786600  75.0395260  60.7208800 121.1289310  75.0058800  60.8353790
 122.2599610  75.9495370  60.4858570 107.9331040  73.2896940  49.8307430
 108.6422740  72.8680160  49.3454710 107.2170980  73.3572170  49.1990780
 121.3896850  74.2128740  53.1381660 121.8855970  73.9799610  53.9230540
 121.1912920  73.3740580  52.7219300 107.2697390  68.5942460  58.7732700
 107.9173580  68.0439840  58.3327860 107.6899230  68.8485610  59.5948510
 122.8184010  72.8489690  55.6719340 122.7083290  72.6945730  56.6101610
 123.5791600  72.3210630  55.4294750 121.1649730  68.7883820  62.1302340
 121.8021950  69.4017960  62.4961530 121.3124620  68.8244480  61.1851570
 123.7812770  71.4508270  51.5382190 122.9864270  71.3853390  52.0675100
 123.9856050  72.3858910  51.5267540 107.0229390  68.7498130  61.5158020
 106.6744210  69.2061950  62.2816200 106.6917090  67.8555260  61.5980450
 108.6293760  81.9217730  65.6811210 108.5863390  81.5510640  66.5625670
 108.7604770  82.8595300  65.8213030 112.3299790  83.4777320  61.2820930
 112.0891150  83.7451880  60.3951450 113.2702430  83.6483050  61.3371790
 107.6950030  68.2774330  64.7908790 108.2433020  68.0962380  64.0274900
 107.7605340  67.4868440  65.3265100 108.4681790  84.8679980  62.8008990
 107.8742110  84.7364680  63.5399030 108.4605630  84.0318120  62.3351090
 117.9136810  68.1612210  61.0039020 117.0396650  68.4947320  60.8011950
 117.8047560  67.6885390  61.8290890 108.0994020  82.2338360  61.7517030
 107.3728080  81.6143650  61.6842980 108.1603170  82.6278970  60.8815110
 111.7039120  84.4483360  58.5366440 112.2204140  83.8370720  58.0114700
 112.3536500  84.9512140  59.0277450 114.4434620  85.3391850  59.3635420
 114.7312430  85.0846150  58.4868430 114.9557840  84.7869210  59.9540990
 115.6611630  69.0782050  59.9431930 114.8783420  69.5527550  60.2228690
 115.3674560  68.1736880  59.8345110 120.2132700  69.7805150  57.9881020
 120.6540790  69.7250250  57.1402620 119.9440290  70.6963160  58.0591200
 122.0771270  69.4120390  55.9989840 122.0159670  68.4681610  55.8520860
 122.8563300  69.5200480  56.5443300 106.3824020  85.5512750  54.9613790
 106.2146060  84.9183430  55.6595680 105.5158530  85.7572150  54.6107980
 118.0490830  68.1611250  56.6931030 118.6520200  68.7331460  57.1679550
 117.3083820  68.7250690  56.4704930 121.1925430  68.5632810  51.9671310
 121.3876060  69.4616260  52.2338740 120.4055300  68.3319890  52.4604260
 107.9886720  84.2445980  52.4063930 107.4634340  84.6254010  51.7025890
 107.9131300  84.8696750  53.1273640 111.5715030  69.6468720  54.0593010
 110.9417770  68.9456030  54.2263140 111.0320170  70.4072850  53.8426170
 114.5106980  86.2607950  66.7303620 115.4374290  86.0252220  66.7739580
 114.4957410  87.0879950  66.2489650 110.5879690  86.1928360  51.2813180
 111.3198510  85.9087640  50.7337070 110.8473360  85.9541640  52.1712560
 109.7494480  82.3093090  51.2859510 109.1203360  82.7778190  51.8345340
 109.8642310  81.4642310  51.7205700 118.2986050  68.3406280  67.0725970
 118.1851500  68.6600890  67.9677490 119.1155790  68.7418790  66.7763250
 117.2044200  76.3598750  37.4360710 117.1238250  75.4453360  37.1652420
 116.7908620  76.8565820  36.7300420 109.3329330  82.4837670  40.3903760
 109.6357370  81.5935410  40.2113980 110.0772920  83.0407890  40.1626010
 107.7620020  73.4099470  33.9788130 106.8736720  73.7515440  33.8768010
 108.0461210  73.2099790  33.0868960 115.8076400  73.6205340  39.5509070
 116.1841220  72.7477220  39.4382740 115.7095910  73.9564040  38.6599510
 119.5900520  71.1155780  36.4837410 120.4110140  70.6252350  36.5262890
 119.6234600  71.7053440  37.2369250 123.8800070  73.1322530  43.0481040
 123.1752240  73.5204240  42.5296150 124.1457990  73.8272820  43.6501970
 110.0625240  69.6015900  43.6115110 110.0643680  70.1188290  42.8061010
 109.2329550  69.1246080  43.5885040 111.3128090  79.2411080  41.7888610
 110.9797470  79.8680000  42.4309680 111.4894770  79.7672960  41.0090280
 119.8262000  73.0556160  39.2564950 119.1217570  73.3441050  39.8368060
 120.1874160  73.8656270  38.8964510 110.5247190  81.2091880  43.6037790
 111.1421190  81.8842960  43.3222240 109.6640310  81.6179860  43.5125290
 121.4424780  82.6731290  41.5192430 120.7588300  83.3430400  41.5109100
 121.9819070  82.8711940  40.7537290 122.8948920  72.5010950  39.6474160
 121.9473830  72.5349930  39.7789590 123.2198910  73.3149900  40.0323520
 115.8149220  76.8656960  34.6790270 114.8878500  76.7994340  34.9078740
 115.9674040  77.8037090  34.5645510 115.8018300  73.1373960  31.6757430
 114.8621970  73.2987920  31.7609890 116.1201560  73.8559640  31.1293420
 122.3231060  77.8192480  41.6536460 121.4949690  77.8885570  41.1786590
 122.9181540  78.4046790  41.1852290 119.2873070  74.6061800  42.5991330
 118.8744250  75.4315510  42.8531320 118.5549020  74.0206840  42.4067690
 111.4205860  77.3921700  37.4610000 111.0162860  76.6798950  36.9655900
 111.5068980  77.0474940  38.3498040 111.8887560  81.0789260  39.6249210
 111.5915850  80.4734730  38.9456990 112.8387380  81.1166570  39.5138570
 119.9773170  84.6521130  43.2872310 119.5003730  85.4593320  43.0944920
 119.2934960  83.9999460  43.4398520 110.9805990  80.8170950  46.2757010
 110.0834520  81.0410920  46.5230410 111.0058860  80.9405890  45.3268410
 118.0211210  77.6664070  32.1898270 118.4604490  76.8286500  32.0436090
 118.7339630  78.2993470  32.2762410 109.8077210  77.6884270  44.8514380
 109.6684980  78.5607070  45.2201780 108.9258570  77.3457080  44.7062320
 111.6057560  83.6305970  47.0599530 111.5772990  84.0348920  46.1927960
 111.4422530  82.7016330  46.8971130 121.6028350  68.9206880  30.5039310
 121.2901010  69.0133710  31.4038380 122.3640820  69.4987910  30.4536740
 108.1210490  76.2866680  34.9616650 108.0008090  77.0128770  34.3497920
 107.8111380  75.5169590  34.4844560 123.5572380  84.4133070  48.3563700
 124.0332100  84.8915960  49.0352780 124.1779540  84.3450560  47.6309200
 111.2765150  85.3727790  35.2914140 111.1007630  84.4563330  35.0781940
 110.4220890  85.7315080  35.5311940 122.8129640  73.6578380  46.4813450
 122.1973910  74.1658050  45.9528910 122.4926060  72.7576710  46.4239390
 105.8155380  80.4995990  43.3079750 105.9786420  80.0301350  42.4899120
 106.2807830  79.9919550  43.9728590 119.8748470  73.7179220  45.0772300
 119.0242060  73.4184970  45.3981370 119.7150260  73.9621230  44.1656120
 116.9698180  75.2180970  47.1771090 117.2951590  74.3844720  46.8373320
 117.7578510  75.7409490  47.3249420 117.6086130  74.7598690  34.6712220
 117.0095020  75.4834490  34.4875840 118.1565740  74.6975470  33.8888670
 112.8187580  75.6520900  46.7381840 112.7231180  74.7115630  46.5882240
 113.6619560  75.8735970  46.3429910 116.2151000  73.3962230  36.7015500
 116.6080570  73.7134430  35.8884190 116.5767850  72.5174110  36.8160020
 107.9498120  72.0634570  44.8915620 107.5561510  72.9109780  45.0988400
 107.2616520  71.4260940  45.0824260 105.2515170  69.9863030  38.9245700
 104.9628220  70.5565890  39.6370680 105.9960930  69.5067480  39.2876930
 105.4385400  73.9283150  30.1348420 105.3560070  74.8713910  30.2763410
 105.0868460  73.7858060  29.2560770 116.8006140  75.9867980  40.7966280
 116.0687260  76.4954790  41.1456380 116.4030480  75.1697960  40.4955060
 117.2632050  71.4401660  40.2089220 117.2804790  71.8910310  41.0531070
 117.0147630  70.5407300  40.4222660 107.3894360  79.8747420  45.4675560
 107.0049150  79.2341090  46.0658520 107.7006550  80.5783540  46.0370290
 106.4031990  71.4667650  37.0777650 106.1178910  71.1023320  37.9156270
 106.3410850  70.7348110  36.4640790 120.6160640  78.9658950  39.6561630
 121.3359760  79.4614240  39.2657740 120.4142460  78.2876840  39.0115500
 116.0770580  70.3596910  33.7991020 115.2635190  69.8610080  33.7236330
 115.8832530  71.1995160  33.3827370 115.9979440  79.0368010  45.5430630
 115.9316750  78.1163680  45.2888220 115.3684580  79.1343450  46.2575270
 118.7918970  74.7316560  32.0953180 119.6798590  75.0433790  31.9204520
 118.7624060  73.8588810  31.7033760 109.9010060  79.6373970  37.5014050
 110.4188730  78.8342230  37.4470940 109.4494080  79.5753110  38.3430880
 114.7879560  80.9040250  32.7741350 115.1295260  81.6482480  32.2784670
 113.9592270  81.2171370  33.1366180 110.5867720  77.0619580  47.2979300
 110.2867860  77.2076760  46.4007120 111.3578960  76.5024870  47.2052690
 121.0633240  76.0428400  31.5633040 120.9796960  76.4742620  30.7129480
 121.7827430  76.5026750  31.9959860 122.1407380  78.4995920  44.6403010
 121.4155570  79.0924700  44.4432400 122.6682840  78.4919460  43.8416380
 113.0597460  77.9899810  35.1582630 113.5160240  78.8005060  35.3842820
 112.7085670  77.6722950  35.9901120 108.9609240  68.3337460  35.6305150
 108.8323870  68.3255360  36.5790070 108.1371260  68.6720550  35.2796160
 120.4817870  81.7887120  30.8291520 120.2555450  81.0717560  31.4216160
 120.0914070  81.5399560  29.9913270 118.4099770  82.3033400  44.3088440
 118.7456010  82.8900090  44.9866360 117.4900110  82.1726110  44.5386230
 114.2388350  82.3524730  47.4776500 113.9185220  81.6333970  48.0222190
 113.5646710  83.0279800  47.5512560 120.8203980  71.5407830  33.6500860
 120.1917140  71.6453500  32.9359090 120.3255900  71.7604610  34.4394740
 115.2662120  83.2613420  31.0834840 115.3674100  83.0577410  30.1536820
 114.3663860  83.0071700  31.2882620 112.7888010  73.8193780  35.0658740
 112.0804160  74.2880120  35.5072350 113.0732490  73.1615790  35.7003930
 116.8203440  70.5444440  36.5054530 116.6971220  70.5630570  35.5564040
 117.7688000  70.5923380  36.6252930 110.9923030  72.1278860  32.4409450
 111.8413560  72.5649010  32.3749640 110.6254300  72.4399120  33.2681510
 121.6210800  71.4558440  43.9079660 121.1184400  72.1963840  44.2473470
 122.4367460  71.8442440  43.5916450 119.9132810  76.6991620  37.3541020
 118.9722950  76.7141850  37.5288710 120.2276880  75.9127580  37.8001320
 112.4978230  85.1361990  30.5237980 113.2906840  85.4250820  30.0719770
 111.9782580  84.7054160  29.8450460 117.2298830  81.2557620  47.8373400
 116.6236990  81.2789220  47.0969150 116.9252940  80.5240660  48.3740650
 118.6599200  84.9837910  46.4482810 119.6120950  84.8995930  46.3983050
 118.5127420  85.6479620  47.1216600 121.5508400  84.3632120  31.9474720
 121.2649910  83.9497260  31.1328900 121.3527950  85.2919830  31.8275240
 106.1132010  77.6351210  46.8334040 106.6171030  77.0558490  47.4050270
 105.3739430  77.9191440  47.3710410 113.0155630  80.3565400  30.3880330
 112.9106270  79.7417750  31.1141710 112.8479850  79.8331290  29.6043340
 113.1669950  79.0422200  46.3669560 112.4015620  79.6107200  46.2824230
 113.3485910  78.7498410  45.4737790 116.2558360  79.4185430  30.9922320
 115.7068460  79.8654730  31.6365060 116.8777620  78.9134680  31.5159990
 120.3093300  80.7727530  46.9244580 121.0502770  81.1103290  46.4212040
 119.5465980  80.9419590  46.3714350 108.1455090  75.7780800  47.7284110
 108.1860430  75.4794670  48.6369340 109.0000590  76.1788410  47.5691630
 110.0860900  74.3572900  45.6958600 109.5557360  73.8663850  45.0681940
 110.7548970  74.7857100  45.1616530 118.9838960  78.8242360  45.4599790
 119.3979980  78.9787440  46.3090210 118.0489960  78.9497580  45.6225570
 119.4561130  76.1638520  47.4638940 120.0381900  75.4090840  47.3759420
 119.6322900  76.6945960  46.6870420 116.0818090  76.5079020  44.8133560
 116.2014300  75.9120160  45.5528400 116.9412090  76.5448710  44.3934860
 118.4205990  77.0616210  43.3896070 117.8941210  77.5858830  42.7861210
 118.7637330  77.6943600  44.0205800 111.5961610  85.0815850  44.5453450
 111.0582700  85.8061910  44.2262150 111.8495570  84.6046190  43.7550790
 118.2980690  69.2617810  32.3632660 118.5782980  68.4185710  32.7192080
 117.5246420  69.4940920  32.8771410 114.4523820  86.3167060  44.8040100
 114.3782520  87.2202200  45.1112470 113.5502660  85.9978960  44.7762170
 110.4513030  81.9750660  35.7675690 110.1508570  81.8515630  36.6679600
 110.3450520  81.1159250  35.3591420 121.9803500  84.0129240  45.1332660
 121.3805490  84.0721800  44.3896580 122.1097400  83.0734220  45.2629510
 123.2204950  81.7547060  30.4702370 122.3897910  81.8223710  30.9409600
 123.3976780  82.6451180  30.1669230 122.6761410  78.4994540  32.9736570
 123.4380320  79.0691190  33.0796260 122.6915780  77.9321740  33.7444880
 123.6821380  79.3544640  37.8178500 124.0530210  78.5711960  37.4114470
 124.3223310  80.0433740  37.6395800 120.6655140  80.7381220  43.2308820
 119.8514980  81.1678380  43.4934610 121.0729340  81.3499630  42.6177870
 122.7280580  78.7928910  30.1309090 123.0029420  79.7007790  30.0028310
 122.5391320  78.7291440  31.0671080 119.1256190  71.8173760  31.4262720
 119.5441070  71.6304740  30.5859380 118.8192250  70.9652810  31.7365650
 122.6245920  76.7297900  35.1238520 122.2489520  75.9625830  34.6919810
 121.8949040  77.1120600  35.6113450 122.0145540  75.8769420  44.7578040
 121.7831630  75.6482170  43.8575990 122.2750090  76.7968970  44.7122930
 120.4533610  71.1025850  47.5357740 121.3303790  71.1109250  47.9191740
 120.4654450  70.3656690  46.9250090 105.3903830  74.2331400  33.1469560
 104.4867910  74.4961600  32.9721220 105.8744450  74.5042570  32.3669520
 121.8996880  74.9555390  38.4245760 122.4234360  74.4618040  37.7935930
 122.4856300  75.0905750  39.1693330 122.0786600  75.0395260  41.9465310
 121.1289310  75.0058800  42.0610300 122.2599610  75.9495370  41.7115080
 121.3896850  74.2128740  34.3638170 121.8855970  73.9799610  35.1487050
 121.1912920  73.3740580  33.9475810 107.2697390  68.5942460  39.9989210
 107.9173580  68.0439840  39.5584370 107.6899230  68.8485610  40.8205020
 122.8184010  72.8489690  36.8975850 122.7083290  72.6945730  37.8358120
 123.5791600  72.3210630  36.6551260 123.7074280  70.6797610  30.1381990
 124.6323590  70.5478790  29.9300280 123.6850070  70.7590430  31.0918440
 123.7812770  71.4508270  32.7638700 122.9864270  71.3853390  33.2931610
 123.9856050  72.3858910  32.7524050 108.6293760  81.9217730  46.9067720
 108.5863390  81.5510640  47.7882180 108.7604770  82.8595300  47.0469540
 123.5903950  85.4971700  43.3088080 123.0962230  85.8940570  42.5915210
 122.9817240  84.8720910  43.7025360 117.9136810  68.1612210  42.2295530
 117.0396650  68.4947320  42.0268460 117.8047560  67.6885390  43.0547400
 121.2743400  86.1395120  40.5874820 120.8146370  86.8910930  40.2132840
 120.6455860  85.4201590  40.5289620 108.0994020  82.2338360  42.9773540
 107.3728080  81.6143650  42.9099490 108.1603170  82.6278970  42.1071620
 111.7039120  84.4483360  39.7622950 112.2204140  83.8370720  39.2371210
 112.3536500  84.9512140  40.2533960 120.2132700  69.7805150  39.2137530
 120.6540790  69.7250250  38.3659130 119.9440290  70.6963160  39.2847710
 122.0771270  69.4120390  37.2246350 122.0159670  68.4681610  37.0777370
 122.8563300  69.5200480  37.7699810 107.0052040  69.3829530  33.6902160
 107.7631400  69.4958410  33.1166190 106.5429210  70.2198730  33.6445590
 118.0490830  68.1611250  37.9187540 118.6520200  68.7331460  38.3936060
 117.3083820  68.7250690  37.6961440 121.1925430  68.5632810  33.1927820
 121.3876060  69.4616260  33.4595250 120.4055300  68.3319890  33.6860770
 111.5715030  69.6468720  35.2849520 110.9417770  68.9456030  35.4519650
 111.0320170  70.4072850  35.0682680 114.5106980  86.2607950  47.9560130
 115.4374290  86.0252220  47.9996090 114.4957410  87.0879950  47.4746160
 122.7452040  85.8033520  34.9534380 122.9204230  85.1171260  34.3095300
 122.0473610  86.3280570  34.5611050 121.0784540  85.4877810  47.7801170
 121.8709860  84.9927040  47.5727130 121.3717690  86.1667950  48.3876780
 117.2044200  76.3598750  18.6617220 117.1238250  75.4453360  18.3908930
 116.7908620  76.8565820  17.9556930 115.3362240  78.1377770  20.5426490
 114.5604340  77.6578210  20.8325060 115.9875170  77.4583420  20.3682650
 109.3528070  78.4497580  21.4202250 108.5212950  78.1946290  21.8198760
 109.9609050  78.5208350  22.1560170 119.3569670  82.5437960  19.3225620
 118.8951200  81.7725200  19.6512790 120.1695220  82.5704030  19.8278070
 109.3329330  82.4837670  21.6160270 109.6357370  81.5935410  21.4370490
 110.0772920  83.0407890  21.3882520 107.7620020  73.4099470  15.2044640
 106.8736720  73.7515440  15.1024520 108.0461210  73.2099790  14.3125470
 105.7253030  76.0105120  21.0884340 106.2969140  75.2427320  21.0887980
 105.7254570  76.3093880  20.1790950 115.5832980  84.8295970  18.9429610
 114.9644420  85.2853470  18.3724050 116.4384760  84.9847430  18.5419310
 114.7771230  80.8134960  20.5496650 114.7079510  79.8724900  20.3885780
 115.5391090  80.9036370  21.1219220 106.9677900  71.4189480  22.8753270
 106.7880740  70.5215230  23.1556030 106.5657980  71.9661350  23.5500220
 115.8076400  73.6205340  20.7765580 116.1841220  72.7477220  20.6639250
 115.7095910  73.9564040  19.8856020 109.9381410  71.9930970  16.2383020
 110.0448160  72.8934700  16.5451780 109.0273770  71.9448940  15.9477670
 119.5900520  71.1155780  17.7093920 120.4110140  70.6252350  17.7519400
 119.6234600  71.7053440  18.4625760 107.5864570  73.9149980  21.4835610
 108.2674680  74.1788350  22.1023010 107.2712620  73.0750850  21.8173620
 111.7789140  74.9617340  20.5708200 112.2867360  75.4598310  21.2113220
 112.3102380  74.1852540  20.3947560 123.8800070  73.1322530  24.2737550
 123.1752240  73.5204240  23.7552660 124.1457990  73.8272820  24.8758480
 110.0625240  69.6015900  24.8371620 110.0643680  70.1188290  24.0317520
 109.2329550  69.1246080  24.8141550 116.4496330  79.7135210  16.3361520
 115.8313600  80.1784660  15.7724240 116.9619580  80.4062690  16.7531030
 111.3128090  79.2411080  23.0145120 110.9797470  79.8680000  23.6566190
 111.4894770  79.7672960  22.2346790 119.8262000  73.0556160  20.4821460
 119.1217570  73.3441050  21.0624570 120.1874160  73.8656270  20.1221020
 109.7440570  71.3125860  22.8442070 110.0857380  72.1567910  22.5495940
 108.8056380  71.4609600  22.9607410 105.8179530  80.3991740  13.7101150
 105.4407510  80.8878840  12.9786050 106.0752600  81.0717020  14.3407680
 121.4424780  82.6731290  22.7448940 120.7588300  83.3430400  22.7365610
 121.9819070  82.8711940  21.9793800 122.8948920  72.5010950  20.8730670
 121.9473830  72.5349930  21.0046100 123.2198910  73.3149900  21.2580030
 113.4268460  68.8008130  19.1686660 113.7343440  68.2455020  18.4522160
 112.4969160  68.9352590  18.9859650 118.9783520  84.5175420  21.4594120
 118.9910680  84.1137710  20.5916380 118.4258740  85.2922710  21.3555550
 120.2728940  81.2391640  16.5484290 120.1625270  80.2965970  16.6733710
 120.2697190  81.6007280  17.4347050 118.3768960  79.4205260  22.7876730
 118.7937750  79.2065370  21.9530190 119.1008780  79.6778050  23.3585350
 115.8149220  76.8656960  15.9046780 114.8878500  76.7994340  16.1335250
 115.9674040  77.8037090  15.7902020 115.8018300  73.1373960  12.9013940
 114.8621970  73.2987920  12.9866400 116.1201560  73.8559640  12.3549930
 122.3231060  77.8192480  22.8792970 121.4949690  77.8885570  22.4043100
 122.9181540  78.4046790  22.4108800 119.8446510  78.4277260  16.4082030
 119.2258930  78.0896810  15.7608330 119.8270960  77.7837020  17.1161220
 119.2873070  74.6061800  23.8247840 118.8744250  75.4315510  24.0787830
 118.5549020  74.0206840  23.6324200 111.4205860  77.3921700  18.6866510
 111.0162860  76.6798950  18.1912410 111.5068980  77.0474940  19.5754550
 111.8887560  81.0789260  20.8505720 111.5915850  80.4734730  20.1713500
 112.8387380  81.1166570  20.7395080 110.1334480  74.1664910  22.4665550
 110.6849070  74.2760250  21.6918800 110.6477990  74.5402510  23.1820780
 119.9773170  84.6521130  24.5128820 119.5003730  85.4593320  24.3201430
 119.2934960  83.9999460  24.6655030 118.0211210  77.6664070  13.4154780
 118.4604490  76.8286500  13.2692600 118.7339630  78.2993470  13.5018920
 116.1306590  82.6060140  17.3836020 116.5702500  83.3484470  16.9691410
 116.0693480  82.8486710  18.3074980 111.6057560  83.6305970  28.2856040
 111.5772990  84.0348920  27.4184470 111.4422530  82.7016330  28.1227640
 121.6028350  68.9206880  11.7295820 121.2901010  69.0133710  12.6294890
 122.3640820  69.4987910  11.6793250 108.1210490  76.2866680  16.1873160
 108.0008090  77.0128770  15.5754430 107.8111380  75.5169590  15.7101070
 123.5572380  84.4133070  29.5820210 124.0332100  84.8915960  30.2609290
 124.1779540  84.3450560  28.8565710 122.9605630  81.6045920  26.7420220
 123.0868690  81.3657800  25.8237400 123.0027010  80.7730460  27.2142300
 116.8222370  85.3073920  25.3115030 117.3367040  85.2181930  26.1137460
 115.9791450  85.6533620  25.6042940 118.7976770  85.5929260  14.7399030
 118.6377910  85.3032200  15.6380860 118.6323480  84.8169390  14.2044260
 111.2765150  85.3727790  16.5170650 111.1007630  84.4563330  16.3038450
 110.4220890  85.7315080  16.7568450 118.5002900  83.1016820  13.2997030
 117.8068060  83.0994110  12.6399310 119.2425760  82.6776140  12.8691200
 118.0652830  84.7279530  17.3745520 118.5209780  83.9468910  17.6884140
 118.4045350  85.4386350  17.9186700 122.8129640  73.6578380  27.7069960
 122.1973910  74.1658050  27.1785420 122.4926060  72.7576710  27.6495900
 110.5874150  69.6301750  19.5696830 110.1442300  70.4111290  19.2381350
 111.1459140  69.9531640  20.2767770 114.8743960  72.4970270  25.1732150
 114.4123330  72.7053290  25.9852090 114.4722070  71.6829620  24.8702820
 119.8748470  73.7179220  26.3028810 119.0242060  73.4184970  26.6237880
 119.7150260  73.9621230  25.3912630 116.9698180  75.2180970  28.4027600
 117.2951590  74.3844720  28.0629830 117.7578510  75.7409490  28.5505930
 113.7032970  69.2512450  14.4502660 113.0787150  69.2472320  15.1755970
 113.6163090  68.3843410  14.0538630 112.6250050  70.1749080  21.4286430
 112.9222380  71.0811910  21.3478450 113.1735610  69.6867860  20.8146000
 110.3788370  74.7535320  17.2978080 110.1529290  74.5372490  18.2024700
 109.5980900  75.1863780  16.9524050 117.6086130  74.7598690  15.8968730
 117.0095020  75.4834490  15.7132350 118.1565740  74.6975470  15.1145180
 116.2151000  73.3962230  17.9272010 116.6080570  73.7134430  17.1140700
 116.5767850  72.5174110  18.0416530 107.9498120  72.0634570  26.1172130
 107.5561510  72.9109780  26.3244910 107.2616520  71.4260940  26.3080770
 105.2515170  69.9863030  20.1502210 104.9628220  70.5565890  20.8627190
 105.9960930  69.5067480  20.5133440 105.4385400  73.9283150  11.3604930
 105.3560070  74.8713910  11.5019920 105.0868460  73.7858060  10.4817280
 116.8006140  75.9867980  22.0222790 116.0687260  76.4954790  22.3712890
 116.4030480  75.1697960  21.7211570 113.2383530  72.6622180  20.4275280
 113.2419590  72.2212130  19.5779820 114.1334650  72.9839510  20.5347100
 109.0885910  72.5448670  19.3869490 108.7485960  73.0223900  20.1436540
 108.3263230  72.0913790  19.0270590 113.3003680  73.6634260  13.4182040
 113.4216500  73.6220740  14.3667860 112.9152190  74.5258410  13.2628770
 117.2632050  71.4401660  21.4345730 117.2804790  71.8910310  22.2787580
 117.0147630  70.5407300  21.6479170 112.3125180  75.9735400  12.8165340
 111.7442080  75.5253650  12.1901250 113.0214180  76.3328180  12.2830490
 120.6902800  68.8533840  27.2732110 121.0148570  68.1223500  27.7990090
 120.7259310  68.5347480  26.3713100 113.5391500  76.7223960  22.1740690
 113.9061630  76.2482530  22.9202030 113.3496560  77.5965530  22.5149030
 106.4031990  71.4667650  18.3034160 106.1178910  71.1023320  19.1412780
 106.3410850  70.7348110  17.6897300 109.8572660  79.9693590  15.0891750
 109.0834920  79.4291210  14.9290470 110.5867290  79.4500200  14.7509510
 120.6160640  78.9658950  20.8818140 121.3359760  79.4614240  20.4914250
 120.4142460  78.2876840  20.2372010 116.0770580  70.3596910  15.0247530
 115.2635190  69.8610080  14.9492840 115.8832530  71.1995160  14.6083880
 115.9979440  79.0368010  26.7687140 115.9316750  78.1163680  26.5144730
 115.3684580  79.1343450  27.4831780 118.7918970  74.7316560  13.3209690
 119.6798590  75.0433790  13.1461030 118.7624060  73.8588810  12.9290270
 109.9010060  79.6373970  18.7270560 110.4188730  78.8342230  18.6727450
 109.4494080  79.5753110  19.5687390 114.7879560  80.9040250  13.9997860
 115.1295260  81.6482480  13.5041180 113.9592270  81.2171370  14.3622690
 115.9296170  81.8588580  26.5190940 115.9440710  80.9269540  26.3009850
 115.2221270  81.9448340  27.1580710 121.0633240  76.0428400  12.7889550
 120.9796960  76.4742620  11.9385990 121.7827430  76.5026750  13.2216370
 122.1407380  78.4995920  25.8659520 121.4155570  79.0924700  25.6688910
 122.6682840  78.4919460  25.0672890 122.0920490  82.8970660  15.5171680
 121.4496650  82.2426280  15.7915400 121.7051150  83.3025750  14.7412350
 117.6706970  80.2256090  19.3643370 118.0230790  79.6284220  18.7044740
 116.7869300  79.9000320  19.5351620 113.7570250  80.9853780  16.7713780
 114.4441380  81.5322990  17.1521370 112.9702670  81.5294510  16.8063390
 105.8962650  76.6026600  12.2630860 106.7657500  76.8851400  12.5466780
 105.4052970  77.4162470  12.1479670 113.0597460  77.9899810  16.3839140
 113.5160240  78.8005060  16.6099330 112.7085670  77.6722950  17.2157630
 115.3630070  83.5006150  23.6131440 116.0072290  83.7065530  24.2904860
 115.7259510  82.7394550  23.1602290 108.9609240  68.3337460  16.8561660
 108.8323870  68.3255360  17.8046580 108.1371260  68.6720550  16.5052670
 116.6362150  81.5038500  22.3308890 117.2784380  80.8031660  22.4441060
 117.1611500  82.2836940  22.1505780 120.4817870  81.7887120  12.0548030
 120.2555450  81.0717560  12.6472670 120.0914070  81.5399560  11.2169780
 118.4099770  82.3033400  25.5344950 118.7456010  82.8900090  26.2122870
 117.4900110  82.1726110  25.7642740 106.2633900  85.8153980  12.8292490
 106.6231540  86.4143320  12.1749760 106.1226240  86.3613870  13.6027520
 105.9603170  70.0928580  26.3168360 105.2461690  70.2925500  26.9220970
 106.3798210  69.3168150  26.6883160 120.0634120  79.7059060  13.7162190
 119.7755820  80.1671750  14.5040070 120.8586290  79.2456830  13.9846410
 114.2388350  82.3524730  28.7033010 113.9185220  81.6333970  29.2478700
 113.5646710  83.0279800  28.7769070 112.2802520  83.1985180  13.6466160
 112.2712620  83.9314870  13.0310670 111.3600880  82.9516760  13.7393120
 107.8809160  78.4200070  14.3912920 107.2737110  79.1598970  14.4008220
 108.3558510  78.5099430  13.5651120 117.4541950  72.5850890  24.0669810
 117.8222770  71.7646100  24.3949380 116.5940150  72.6452780  24.4825460
 120.8203980  71.5407830  14.8757370 120.1917140  71.6453500  14.1615600
 120.3255900  71.7604610  15.6651250 115.2662120  83.2613420  12.3091350
 115.3674100  83.0577410  11.3793330 114.3663860  83.0071700  12.5139130
 112.7888010  73.8193780  16.2915250 112.0804160  74.2880120  16.7328860
 113.0732490  73.1615790  16.9260440 114.4143940  75.2390480  24.2907780
 114.9129190  75.7136300  24.9559630 114.5566890  74.3154000  24.4977810
 116.8203440  70.5444440  17.7311040 116.6971220  70.5630570  16.7820550
 117.7688000  70.5923380  17.8509440 113.9080230  85.7799740  17.0039020
 114.1621730  85.7421130  16.0818390 112.9592710  85.6533070  16.9967270
 110.9923030  72.1278860  13.6665960 111.8413560  72.5649010  13.6006150
 110.6254300  72.4399120  14.4938020 121.6210800  71.4558440  25.1336170
 121.1184400  72.1963840  25.4729980 122.4367460  71.8442440  24.8172960
 119.9132810  76.6991620  18.5797530 118.9722950  76.7141850  18.7545220
 120.2276880  75.9127580  19.0257830 109.8914450  78.3811220  12.1401490
 110.6577720  78.2692580  12.7026920 109.9689140  77.6849190  11.4878260
 108.5861210  75.8136290  12.8234380 108.6664800  74.8663800  12.9351780
 109.4780960  76.1443170  12.9295040 121.9158390  83.8700470  20.2551790
 122.0405810  84.6931640  20.7275600 122.7823950  83.6591200  19.9075940
 109.3875920  85.9631680  19.9268920 110.1238400  85.4147140  20.1977490
 109.7716840  86.8287690  19.7874910 106.2721400  82.0305250  15.8010430
 105.3461180  82.2726390  15.7915840 106.7377830  82.8579510  15.6795180
 112.4978230  85.1361990  11.7494490 113.2906840  85.4250820  11.2976280
 111.9782580  84.7054160  11.0706970 117.2298830  81.2557620  29.0629910
 116.6236990  81.2789220  28.3225660 116.9252940  80.5240660  29.5997160
 118.6599200  84.9837910  27.6739320 119.6120950  84.8995930  27.6239560
 118.5127420  85.6479620  28.3473110 121.5508400  84.3632120  13.1731230
 121.2649910  83.9497260  12.3585410 121.3527950  85.2919830  13.0531750
 113.0155630  80.3565400  11.6136840 112.9106270  79.7417750  12.3398220
 112.8479850  79.8331290  10.8299850 113.1669950  79.0422200  27.5926070
 112.4015620  79.6107200  27.5080740 113.3485910  78.7498410  26.6994300
 116.2558360  79.4185430  12.2178830 115.7068460  79.8654730  12.8621570
 116.8777620  78.9134680  12.7416500 120.3093300  80.7727530  28.1501090
 121.0502770  81.1103290  27.6468550 119.5465980  80.9419590  27.5970860
 111.9233480  78.3776350  14.1144130 112.3449900  78.2116220  14.9575520
 112.0484320  77.5676580  13.6199270 114.4361120  77.4013960  11.3621230
 114.9566780  76.6862980  10.9962380 115.0829520  78.0399830  11.6621740
 118.9838960  78.8242360  26.6856300 119.3979980  78.9787440  27.5346720
 118.0489960  78.9497580  26.8482080 119.4561130  76.1638520  28.6895450
 120.0381900  75.4090840  28.6015930 119.6322900  76.6945960  27.9126930
 110.5733200  71.3235270  27.0012400 110.4790070  70.7056020  26.2763270
 109.9930590  72.0501560  26.7742310 113.3394640  69.8808510  24.0339790
 112.8911940  69.9032770  23.1885340 112.7059840  69.4827530  24.6310090
 113.7454190  78.7762840  24.6552230 114.1642300  79.6195570  24.4828470
 112.8262820  78.9134880  24.4259010 116.0818090  76.5079020  26.0390070
 116.2014300  75.9120160  26.7784910 116.9412090  76.5448710  25.6191370
 118.4205990  77.0616210  24.6152580 117.8941210  77.5858830  24.0117720
 118.7637330  77.6943600  25.2462310 110.8192380  74.4509580  11.0602290
 110.6181440  73.5876940  11.4215630 110.6484430  74.3642940  10.1223890
 111.5961610  85.0815850  25.7709960 111.0582700  85.8061910  25.4518660
 111.8495570  84.6046190  24.9807300 117.6680290  72.6666180  27.5298910
 116.9795810  72.0047720  27.4648900 118.3886310  72.2204450  27.9747370
 118.2980690  69.2617810  13.5889170 118.5782980  68.4185710  13.9448590
 117.5246420  69.4940920  14.1027920 109.6175180  71.5510200  11.0480170
 109.9201080  71.5577630  10.1399320 110.3569770  71.2008060  11.5447830
 114.4523820  86.3167060  26.0296610 114.3782520  87.2202200  26.3368980
 113.5502660  85.9978960  26.0018680 112.8360110  70.4944820  12.0336370
 112.4882110  69.8168810  11.4538820 113.0372880  70.0334330  12.8479760
 115.0009150  85.4825570  13.6522970 115.8959940  85.8210540  13.6741730
 115.0326780  84.7604980  13.0247250 108.6405310  80.8552620  11.8809970
 109.0780180  81.3982290  12.5367550 109.1253040  80.0299570  11.8906310
 110.4513030  81.9750660  16.9932200 110.1508570  81.8515630  17.8936110
 110.3450520  81.1159250  16.5847930 121.9803500  84.0129240  26.3589170
 121.3805490  84.0721800  25.6153090 122.1097400  83.0734220  26.4886020
 123.2204950  81.7547060  11.6958880 122.3897910  81.8223710  12.1666110
 123.3976780  82.6451180  11.3925740 122.6761410  78.4994540  14.1993080
 123.4380320  79.0691190  14.3052770 122.6915780  77.9321740  14.9701390
 123.6821380  79.3544640  19.0435010 124.0530210  78.5711960  18.6370980
 124.3223310  80.0433740  18.8652310 120.6655140  80.7381220  24.4565330
 119.8514980  81.1678380  24.7191120 121.0729340  81.3499630  23.8434380
 122.7280580  78.7928910  11.3565600 123.0029420  79.7007790  11.2284820
 122.5391320  78.7291440  12.2927590 119.1256190  71.8173760  12.6519230
 119.5441070  71.6304740  11.8115890 118.8192250  70.9652810  12.9622160
 122.6245920  76.7297900  16.3495030 122.2489520  75.9625830  15.9176320
 121.8949040  77.1120600  16.8369960 107.2141680  77.4085040  22.9704080
 107.5814720  77.3212440  23.8500100 106.6452500  76.6451590  22.8710940
 122.0145540  75.8769420  25.9834550 121.7831630  75.6482170  25.0832500
 122.2750090  76.7968970  25.9379440 120.4533610  71.1025850  28.7614250
 121.3303790  71.1109250  29.1448250 120.4654450  70.3656690  28.1506600
 105.3903830  74.2331400  14.3726070 104.4867910  74.4961600  14.1977730
 105.8744450  74.5042570  13.5926030 121.8996880  74.9555390  19.6502270
 122.4234360  74.4618040  19.0192440 122.4856300  75.0905750  20.3949840
 122.0786600  75.0395260  23.1721820 121.1289310  75.0058800  23.2866810
 122.2599610  75.9495370  22.9371590 107.9331040  73.2896940  12.2820450
 108.6422740  72.8680160  11.7967730 107.2170980  73.3572170  11.6503800
 107.5805200  69.3436270  11.3223100 108.3033330  69.8845210  11.6404320
 107.8529720  69.0699690  10.4464640 121.3896850  74.2128740  15.5894680
 121.8855970  73.9799610  16.3743560 121.1912920  73.3740580  15.1732320
 107.2697390  68.5942460  21.2245720 107.9173580  68.0439840  20.7840880
 107.6899230  68.8485610  22.0461530 122.8184010  72.8489690  18.1232360
 122.7083290  72.6945730  19.0614630 123.5791600  72.3210630  17.8807770
 121.1649730  68.7883820  24.5815360 121.8021950  69.4017960  24.9474550
 121.3124620  68.8244480  23.6364590 123.7074280  70.6797610  11.3638500
 124.6323590  70.5478790  11.1556790 123.6850070  70.7590430  12.3174950
 123.7812770  71.4508270  13.9895210 122.9864270  71.3853390  14.5188120
 123.9856050  72.3858910  13.9780560 120.7231190  85.4899820  17.9833600
 121.3190260  85.1684390  17.3068020 120.9809340  85.0171640  18.7746870
 107.0229390  68.7498130  23.9671040 106.6744210  69.2061950  24.7329220
 106.6917090  67.8555260  24.0493470 112.3299790  83.4777320  23.7333950
 112.0891150  83.7451880  22.8464470 113.2702430  83.6483050  23.7884810
 117.1728770  69.5980070  27.1282750 117.7869180  69.9159360  26.4663830
 117.7178330  69.1128660  27.7478610 123.5903950  85.4971700  24.5344590
 123.0962230  85.8940570  23.8171720 122.9817240  84.8720910  24.9281870
 108.4681790  84.8679980  25.2522010 107.8742110  84.7364680  25.9912050
 108.4605630  84.0318120  24.7864110 117.9136810  68.1612210  23.4552040
 117.0396650  68.4947320  23.2524970 117.8047560  67.6885390  24.2803910
 118.8208790  70.3683080  24.8393760 118.4922150  69.5534840  24.4595490
 119.7691090  70.3252890  24.7159450 121.2743400  86.1395120  21.8131330
 120.8146370  86.8910930  21.4389350 120.6455860  85.4201590  21.7546130
 111.7039120  84.4483360  20.9879460 112.2204140  83.8370720  20.4627720
 112.3536500  84.9512140  21.4790470 114.4434620  85.3391850  21.8148440
 114.7312430  85.0846150  20.9381450 114.9557840  84.7869210  22.4054010
 115.6611630  69.0782050  22.3944950 114.8783420  69.5527550  22.6741710
 115.3674560  68.1736880  22.2858130 120.2132700  69.7805150  20.4394040
 120.6540790  69.7250250  19.5915640 119.9440290  70.6963160  20.5104220
 122.0771270  69.4120390  18.4502860 122.0159670  68.4681610  18.3033880
 122.8563300  69.5200480  18.9956320 106.3824020  85.5512750  17.4126810
 106.2146060  84.9183430  18.1108700 105.5158530  85.7572150  17.0621000
 107.0052040  69.3829530  14.9158670 107.7631400  69.4958410  14.3422700
 106.5429210  70.2198730  14.8702100 113.5465850  71.4968800  17.9060980
 112.7340360  71.1225690  17.5656860 114.0507490  70.7413880  18.2082170
 118.0490830  68.1611250  19.1444050 118.6520200  68.7331460  19.6192570
 117.3083820  68.7250690  18.9217950 121.1925430  68.5632810  14.4184330
 121.3876060  69.4616260  14.6851760 120.4055300  68.3319890  14.9117280
 107.9886720  84.2445980  14.8576950 107.4634340  84.6254010  14.1538910
 107.9131300  84.8696750  15.5786660 109.3777190  69.9093580  13.4560640
 109.9069950  69.1223380  13.3268590 110.0105510  70.5884770  13.6896170
 111.5715030  69.6468720  16.5106030 110.9417770  68.9456030  16.6776160
 111.0320170  70.4072850  16.2939190 114.5106980  86.2607950  29.1816640
 115.4374290  86.0252220  29.2252600 114.4957410  87.0879950  28.7002670
 122.7452040  85.8033520  16.1790890 122.9204230  85.1171260  15.5351810
 122.0473610  86.3280570  15.7867560 110.5879690  86.1928360  13.7326200
 111.3198510  85.9087640  13.1850090 110.8473360  85.9541640  14.6225580
 109.7494480  82.3093090  13.7372530 109.1203360  82.7778190  14.2858360
 109.8642310  81.4642310  14.1718720 118.2986050  68.3406280  29.5238990
 118.1851500  68.6600890  30.4190510 119.1155790  68.7418790  29.2276270
 121.0784540  85.4877810  29.0057680 121.8709860  84.9927040  28.7983640
 121.3717690  86.1667950  29.6133290 115.3362240  78.1377770   1.7683000
 114.5604340  77.6578210   2.0581570 115.9875170  77.4583420   1.5939160
 109.3528070  78.4497580   2.6458760 108.5212950  78.1946290   3.0455270
 109.9609050  78.5208350   3.3816680 109.3329330  82.4837670   2.8416780
 109.6357370  81.5935410   2.6627000 110.0772920  83.0407890   2.6139030
 114.7771230  80.8134960   1.7753160 114.7079510  79.8724900   1.6142290
 115.5391090  80.9036370   2.3475730 106.9677900  71.4189480   4.1009780
 106.7880740  70.5215230   4.3812540 106.5657980  71.9661350   4.7756730
 107.5864570  73.9149980   2.7092120 108.2674680  74.1788350   3.3279520
 107.2712620  73.0750850   3.0430130 111.7789140  74.9617340   1.7964710
 112.2867360  75.4598310   2.4369730 112.3102380  74.1852540   1.6204070
 123.8800070  73.1322530   5.4994060 123.1752240  73.5204240   4.9809170
 124.1457990  73.8272820   6.1014990 110.0625240  69.6015900   6.0628130
 110.0643680  70.1188290   5.2574030 109.2329550  69.1246080   6.0398060
 111.3128090  79.2411080   4.2401630 110.9797470  79.8680000   4.8822700
 111.4894770  79.7672960   3.4603300 109.7440570  71.3125860   4.0698580
 110.0857380  72.1567910   3.7752450 108.8056380  71.4609600   4.1863920
 110.5247190  81.2091880   6.0550810 111.1421190  81.8842960   5.7735260
 109.6640310  81.6179860   5.9638310 121.4424780  82.6731290   3.9705450
 120.7588300  83.3430400   3.9622120 121.9819070  82.8711940   3.2050310
 122.8948920  72.5010950   2.0987180 121.9473830  72.5349930   2.2302610
 123.2198910  73.3149900   2.4836540 118.9783520  84.5175420   2.6850630
 118.9910680  84.1137710   1.8172890 118.4258740  85.2922710   2.5812060
 118.3768960  79.4205260   4.0133240 118.7937750  79.2065370   3.1786700
 119.1008780  79.6778050   4.5841860 122.3231060  77.8192480   4.1049480
 121.4949690  77.8885570   3.6299610 122.9181540  78.4046790   3.6365310
 119.2873070  74.6061800   5.0504350 118.8744250  75.4315510   5.3044340
 118.5549020  74.0206840   4.8580710 110.1334480  74.1664910   3.6922060
 110.6849070  74.2760250   2.9175310 110.6477990  74.5402510   4.4077290
 119.9773170  84.6521130   5.7385330 119.5003730  85.4593320   5.5457940
 119.2934960  83.9999460   5.8911540 110.9805990  80.8170950   8.7270030
 110.0834520  81.0410920   8.9743430 111.0058860  80.9405890   7.7781430
 109.8077210  77.6884270   7.3027400 109.6684980  78.5607070   7.6714800
 108.9258570  77.3457080   7.1575340 111.6057560  83.6305970   9.5112550
 111.5772990  84.0348920   8.6440980 111.4422530  82.7016330   9.3484150
 123.5572380  84.4133070  10.8076720 124.0332100  84.8915960  11.4865800
 124.1779540  84.3450560  10.0822220 105.7595860  79.4581820   3.2198310
 105.8376280  79.5930590   2.2754030 106.3737540  78.7497710   3.4126430
 122.9605630  81.6045920   7.9676730 123.0868690  81.3657800   7.0493910
 123.0027010  80.7730460   8.4398810 116.8222370  85.3073920   6.5371540
 117.3367040  85.2181930   7.3393970 115.9791450  85.6533620   6.8299450
 122.8129640  73.6578380   8.9326470 122.1973910  74.1658050   8.4041930
 122.4926060  72.7576710   8.8752410 105.8155380  80.4995990   5.7592770
 105.9786420  80.0301350   4.9412140 106.2807830  79.9919550   6.4241610
 114.8743960  72.4970270   6.3988660 114.4123330  72.7053290   7.2108600
 114.4722070  71.6829620   6.0959330 119.8748470  73.7179220   7.5285320
 119.0242060  73.4184970   7.8494390 119.7150260  73.9621230   6.6169140
 116.9698180  75.2180970   9.6284110 117.2951590  74.3844720   9.2886340
 117.7578510  75.7409490   9.7762440 112.6250050  70.1749080   2.6542940
 112.9222380  71.0811910   2.5734960 113.1735610  69.6867860   2.0402510
 112.8187580  75.6520900   9.1894860 112.7231180  74.7115630   9.0395260
 113.6619560  75.8735970   8.7942930 107.9498120  72.0634570   7.3428640
 107.5561510  72.9109780   7.5501420 107.2616520  71.4260940   7.5337280
 114.5243170  72.1469540  10.4125380 113.8341490  71.9541740  11.0471470
 115.2675470  72.4304180  10.9449680 116.8006140  75.9867980   3.2479300
 116.0687260  76.4954790   3.5969400 116.4030480  75.1697960   2.9468080
 117.2632050  71.4401660   2.6602240 117.2804790  71.8910310   3.5044090
 117.0147630  70.5407300   2.8735680 120.6902800  68.8533840   8.4988620
 121.0148570  68.1223500   9.0246600 120.7259310  68.5347480   7.5969610
 107.3894360  79.8747420   7.9188580 107.0049150  79.2341090   8.5171540
 107.7006550  80.5783540   8.4883310 113.5391500  76.7223960   3.3997200
 113.9061630  76.2482530   4.1458540 113.3496560  77.5965530   3.7405540
 111.3290870  75.7632600   5.7181410 111.0247940  76.6424580   5.9431770
 112.2837330  75.8232390   5.7538850 120.6160640  78.9658950   2.1074650
 121.3359760  79.4614240   1.7170760 120.4142460  78.2876840   1.4628520
 115.9979440  79.0368010   7.9943650 115.9316750  78.1163680   7.7401240
 115.3684580  79.1343450   8.7088290 107.3854600  76.6035340   6.8652770
 107.0269540  77.2689190   7.4526110 107.0909160  75.7718890   7.2365390
 110.5867720  77.0619580   9.7492320 110.2867860  77.2076760   8.8520140
 111.3578960  76.5024870   9.6565710 115.9296170  81.8588580   7.7447450
 115.9440710  80.9269540   7.5266360 115.2221270  81.9448340   8.3837220
 122.1407380  78.4995920   7.0916030 121.4155570  79.0924700   6.8945420
 122.6682840  78.4919460   6.2929400 115.3630070  83.5006150   4.8387950
 116.0072290  83.7065530   5.5161370 115.7259510  82.7394550   4.3858800
 116.6362150  81.5038500   3.5565400 117.2784380  80.8031660   3.6697570
 117.1611500  82.2836940   3.3762290 118.4099770  82.3033400   6.7601460
 118.7456010  82.8900090   7.4379380 117.4900110  82.1726110   6.9899250
 105.9603170  70.0928580   7.5424870 105.2461690  70.2925500   8.1477480
 106.3798210  69.3168150   7.9139670 106.2475760  84.0808840   8.5291400
 106.3566880  83.1403580   8.3886790 105.5956320  84.3463590   7.8805130
 114.2388350  82.3524730   9.9289520 113.9185220  81.6333970  10.4735210
 113.5646710  83.0279800  10.0025580 117.4541950  72.5850890   5.2926320
 117.8222770  71.7646100   5.6205890 116.5940150  72.6452780   5.7081970
 114.4143940  75.2390480   5.5164290 114.9129190  75.7136300   6.1816140
 114.5566890  74.3154000   5.7234320 121.6210800  71.4558440   6.3592680
 121.1184400  72.1963840   6.6986490 122.4367460  71.8442440   6.0429470
 108.3934200  85.1477750  10.3411010 109.1946930  85.4689800  10.7546410
 107.8786020  84.7873330  11.0630920 117.2298830  81.2557620  10.2886420
 116.6236990  81.2789220   9.5482170 116.9252940  80.5240660  10.8253670
 118.6599200  84.9837910   8.8995830 119.6120950  84.8995930   8.8496070
 118.5127420  85.6479620   9.5729620 106.1132010  77.6351210   9.2847060
 106.6171030  77.0558490   9.8563290 105.3739430  77.9191440   9.8223430
 113.1669950  79.0422200   8.8182580 112.4015620  79.6107200   8.7337250
 113.3485910  78.7498410   7.9250810 120.3093300  80.7727530   9.3757600
 121.0502770  81.1103290   8.8725060 119.5465980  80.9419590   8.8227370
 108.1455090  75.7780800  10.1797130 108.1860430  75.4794670  11.0882360
 109.0000590  76.1788410  10.0204650 110.0860900  74.3572900   8.1471620
 109.5557360  73.8663850   7.5194960 110.7548970  74.7857100   7.6129550
 118.9838960  78.8242360   7.9112810 119.3979980  78.9787440   8.7603230
 118.0489960  78.9497580   8.0738590 119.4561130  76.1638520   9.9151960
 120.0381900  75.4090840   9.8272440 119.6322900  76.6945960   9.1383440
 110.5733200  71.3235270   8.2268910 110.4790070  70.7056020   7.5019780
 109.9930590  72.0501560   7.9998820 113.3394640  69.8808510   5.2596300
 112.8911940  69.9032770   4.4141850 112.7059840  69.4827530   5.8566600
 113.7454190  78.7762840   5.8808740 114.1642300  79.6195570   5.7084980
 112.8262820  78.9134880   5.6515520 116.0818090  76.5079020   7.2646580
 116.2014300  75.9120160   8.0041420 116.9412090  76.5448710   6.8447880
 118.4205990  77.0616210   5.8409090 117.8941210  77.5858830   5.2374230
 118.7637330  77.6943600   6.4718820 111.5961610  85.0815850   6.9966470
 111.0582700  85.8061910   6.6775170 111.8495570  84.6046190   6.2063810
 112.8486860  73.0500370   8.5222400 113.4386550  72.7416220   9.2100220
 112.0307100  72.5780120   8.6782300 117.6680290  72.6666180   8.7555420
 116.9795810  72.0047720   8.6905410 118.3886310  72.2204450   9.2003880
 114.4523820  86.3167060   7.2553120 114.3782520  87.2202200   7.5625490
 113.5502660  85.9978960   7.2275190 106.3441320  84.5112240   3.2968370
 105.9072310  84.6913040   4.1292520 106.9119000  85.2686860   3.1550090
 121.9803500  84.0129240   7.5845680 121.3805490  84.0721800   6.8409600
 122.1097400  83.0734220   7.7142530 120.6655140  80.7381220   5.6821840
 119.8514980  81.1678380   5.9447630 121.0729340  81.3499630   5.0690890
 107.2141680  77.4085040   4.1960590 107.5814720  77.3212440   5.0756610
 106.6452500  76.6451590   4.0967450 122.0145540  75.8769420   7.2091060
 121.7831630  75.6482170   6.3089010 122.2750090  76.7968970   7.1635950
 106.7657680  74.3194130   8.1019010 105.8713730  74.2860890   8.4412720
 107.3055230  74.5180920   8.8670260 120.4533610  71.1025850   9.9870760
 121.3303790  71.1109250  10.3704760 120.4654450  70.3656690   9.3763110
 122.0786600  75.0395260   4.3978330 121.1289310  75.0058800   4.5123320
 122.2599610  75.9495370   4.1628100 107.2697390  68.5942460   2.4502230
 107.9173580  68.0439840   2.0097390 107.6899230  68.8485610   3.2718040
 121.1649730  68.7883820   5.8071870 121.8021950  69.4017960   6.1731060
 121.3124620  68.8244480   4.8621100 107.0229390  68.7498130   5.1927550
 106.6744210  69.2061950   5.9585730 106.6917090  67.8555260   5.2749980
 108.6293760  81.9217730   9.3580740 108.5863390  81.5510640  10.2395200
 108.7604770  82.8595300   9.4982560 112.3299790  83.4777320   4.9590460
 112.0891150  83.7451880   4.0720980 113.2702430  83.6483050   5.0141320
 114.5354210  69.9410010   8.7146970 114.4743100  70.5331840   9.4642380
 115.4754590  69.8335970   8.5697230 117.1728770  69.5980070   8.3539260
 117.7869180  69.9159360   7.6920340 117.7178330  69.1128660   8.9735120
 123.5903950  85.4971700   5.7601100 123.0962230  85.8940570   5.0428230
 122.9817240  84.8720910   6.1538380 107.6950030  68.2774330   8.4678320
 108.2433020  68.0962380   7.7044430 107.7605340  67.4868440   9.0034630
 108.4681790  84.8679980   6.4778520 107.8742110  84.7364680   7.2168560
 108.4605630  84.0318120   6.0120620 117.9136810  68.1612210   4.6808550
 117.0396650  68.4947320   4.4781480 117.8047560  67.6885390   5.5060420
 118.8208790  70.3683080   6.0650270 118.4922150  69.5534840   5.6852000
 119.7691090  70.3252890   5.9415960 121.2743400  86.1395120   3.0387840
 120.8146370  86.8910930   2.6645860 120.6455860  85.4201590   2.9802640
 108.0994020  82.2338360   5.4286560 107.3728080  81.6143650   5.3612510
 108.1603170  82.6278970   4.5584640 111.7039120  84.4483360   2.2135970
 112.2204140  83.8370720   1.6884230 112.3536500  84.9512140   2.7046980
 114.4434620  85.3391850   3.0404950 114.7312430  85.0846150   2.1637960
 114.9557840  84.7869210   3.6310520 115.6611630  69.0782050   3.6201460
 114.8783420  69.5527550   3.8998220 115.3674560  68.1736880   3.5114640
 114.5106980  86.2607950  10.4073150 115.4374290  86.0252220  10.4509110
 114.4957410  87.0879950   9.9259180 111.6970590  68.9252700  10.1715030
 111.4154860  69.4286300   9.4075850 112.0790290  68.1274450   9.8057160
 118.2986050  68.3406280  10.7495500 118.1851500  68.6600890  11.6447020
 119.1155790  68.7418790  10.4532780 121.0784540  85.4877810  10.2314190
 121.8709860  84.9927040  10.0240150 121.3717690  86.1667950  10.8389800
 117.2044200  57.5855260 150.0821650 117.1238250  56.6709870 149.8113360
 116.7908620  58.0822330 149.3761360 119.3569670  63.7694470 150.7430050
 118.8951200  62.9981710 151.0717220 120.1695220  63.7960540 151.2482500
 107.7620020  54.6355980 146.6249070 106.8736720  54.9771950 146.5228950
 108.0461210  54.4356300 145.7329900 115.5832980  66.0552480 150.3634040
 114.9644420  66.5109980 149.7928480 116.4384760  66.2103940 149.9623740
 109.9381410  53.2187480 147.6587450 110.0448160  54.1191210 147.9656210
 109.0273770  53.1705450 147.3682100 119.5900520  52.3412290 149.1298350
 120.4110140  51.8508860 149.1723830 119.6234600  52.9309950 149.8830190
 116.4496330  60.9391720 147.7565950 115.8313600  61.4041170 147.1928670
 116.9619580  61.6319200 148.1735460 105.8179530  61.6248250 145.1305580
 105.4407510  62.1135350 144.3990480 106.0752600  62.2973530 145.7612110
 113.4268460  50.0264640 150.5891090 113.7343440  49.4711530 149.8726590
 112.4969160  50.1609100 150.4064080 120.2728940  62.4648150 147.9688720
 120.1625270  61.5222480 148.0938140 120.2697190  62.8263790 148.8551480
 115.8149220  58.0913470 147.3251210 114.8878500  58.0250850 147.5539680
 115.9674040  59.0293600 147.2106450 115.8018300  54.3630470 144.3218370
 114.8621970  54.5244430 144.4070830 116.1201560  55.0816150 143.7754360
 119.8446510  59.6533770 147.8286460 119.2258930  59.3153320 147.1812760
 119.8270960  59.0093530 148.5365650 111.4205860  58.6178210 150.1070940
 111.0162860  57.9055460 149.6116840 111.5068980  58.2731450 150.9958980
 118.0211210  58.8920580 144.8359210 118.4604490  58.0543010 144.6897030
 118.7339630  59.5249980 144.9223350 116.1306590  63.8316650 148.8040450
 116.5702500  64.5740980 148.3895840 116.0693480  64.0743220 149.7279410
 121.6028350  50.1463390 143.1500250 121.2901010  50.2390220 144.0499320
 122.3640820  50.7244420 143.0997680 108.1210490  57.5123190 147.6077590
 108.0008090  58.2385280 146.9958860 107.8111380  56.7426100 147.1305500
 107.0043490  62.3838520 149.8252410 106.5971570  62.5253110 148.9706010
 107.8956500  62.0998680 149.6223620 118.7976770  66.8185770 146.1603460
 118.6377910  66.5288710 147.0585290 118.6323480  66.0425900 145.6248690
 111.2765150  66.5984300 147.9375080 111.1007630  65.6819840 147.7242880
 110.4220890  66.9571590 148.1772880 118.5002900  64.3273330 144.7201460
 117.8068060  64.3250620 144.0603740 119.2425760  63.9032650 144.2895630
 118.0652830  65.9536040 148.7949950 118.5209780  65.1725420 149.1088570
 118.4045350  66.6642860 149.3391130 110.5874150  50.8558260 150.9901260
 110.1442300  51.6367800 150.6585780 111.1459140  51.1788150 151.6972200
 113.7032970  50.4768960 145.8707090 113.0787150  50.4728830 146.5960400
 113.6163090  49.6099920 145.4743060 110.3788370  55.9791830 148.7182510
 110.1529290  55.7629000 149.6229130 109.5980900  56.4120290 148.3728480
 117.6086130  55.9855200 147.3173160 117.0095020  56.7091000 147.1336780
 118.1565740  55.9231980 146.5349610 116.2151000  54.6218740 149.3476440
 116.6080570  54.9390940 148.5345130 116.5767850  53.7430620 149.4620960
 105.4385400  55.1539660 142.7809360 105.3560070  56.0970420 142.9224350
 105.0868460  55.0114570 141.9021710 109.0885910  53.7705180 150.8073920
 108.7485960  54.2480410 151.5640970 108.3263230  53.3170300 150.4475020
 113.3003680  54.8890770 144.8386470 113.4216500  54.8477250 145.7872290
 112.9152190  55.7514920 144.6833200 112.3125180  57.1991910 144.2369770
 111.7442080  56.7510160 143.6105680 113.0214180  57.5584690 143.7034920
 106.4031990  52.6924160 149.7238590 106.1178910  52.3279830 150.5617210
 106.3410850  51.9604620 149.1101730 109.8572660  61.1950100 146.5096180
 109.0834920  60.6547720 146.3494900 110.5867290  60.6756710 146.1713940
 116.0770580  51.5853420 146.4451960 115.2635190  51.0866590 146.3697270
 115.8832530  52.4251670 146.0288310 118.7918970  55.9573070 144.7414120
 119.6798590  56.2690300 144.5665460 118.7624060  55.0845320 144.3494700
 109.9010060  60.8630480 150.1474990 110.4188730  60.0598740 150.0931880
 109.4494080  60.8009620 150.9891820 114.7879560  62.1296760 145.4202290
 115.1295260  62.8738990 144.9245610 113.9592270  62.4427880 145.7827120
 121.0633240  57.2684910 144.2093980 120.9796960  57.6999130 143.3590420
 121.7827430  57.7283260 144.6420800 122.0920490  64.1227170 146.9376110
 121.4496650  63.4682790 147.2119830 121.7051150  64.5282260 146.1616780
 117.6706970  61.4512600 150.7847800 118.0230790  60.8540730 150.1249170
 116.7869300  61.1256830 150.9556050 113.7570250  62.2110290 148.1918210
 114.4441380  62.7579500 148.5725800 112.9702670  62.7551020 148.2267820
 105.8962650  57.8283110 143.6835290 106.7657500  58.1107910 143.9671210
 105.4052970  58.6418980 143.5684100 113.0597460  59.2156320 147.8043570
 113.5160240  60.0261570 148.0303760 112.7085670  58.8979460 148.6362060
 108.9609240  49.5593970 148.2766090 108.8323870  49.5511870 149.2251010
 108.1371260  49.8977060 147.9257100 120.4817870  63.0143630 143.4752460
 120.2555450  62.2974070 144.0677100 120.0914070  62.7656070 142.6374210
 106.2633900  67.0410490 144.2496920 106.6231540  67.6399830 143.5954190
 106.1226240  67.5870380 145.0231950 120.0634120  60.9315570 145.1366620
 119.7755820  61.3928260 145.9244500 120.8586290  60.4713340 145.4050840
 112.2802520  64.4241690 145.0670590 112.2712620  65.1571380 144.4515100
 111.3600880  64.1773270 145.1597550 107.8809160  59.6456580 145.8117350
 107.2737110  60.3855480 145.8212650 108.3558510  59.7355940 144.9855550
 120.8203980  52.7664340 146.2961800 120.1917140  52.8710010 145.5820030
 120.3255900  52.9861120 147.0855680 115.2662120  64.4869930 143.7295780
 115.3674100  64.2833920 142.7997760 114.3663860  64.2328210 143.9343560
 112.7888010  55.0450290 147.7119680 112.0804160  55.5136630 148.1533290
 113.0732490  54.3872300 148.3464870 116.8203440  51.7700950 149.1515470
 116.6971220  51.7887080 148.2024980 117.7688000  51.8179890 149.2713870
 113.9080230  67.0056250 148.4243450 114.1621730  66.9677640 147.5022820
 112.9592710  66.8789580 148.4171700 110.9923030  53.3535370 145.0870390
 111.8413560  53.7905520 145.0210580 110.6254300  53.6655630 145.9142450
 119.9132810  57.9248130 150.0001960 118.9722950  57.9398360 150.1749650
 120.2276880  57.1384090 150.4462260 109.8914450  59.6067730 143.5605920
 110.6577720  59.4949090 144.1231350 109.9689140  58.9105700 142.9082690
 108.5861210  57.0392800 144.2438810 108.6664800  56.0920310 144.3556210
 109.4780960  57.3699680 144.3499470 109.3875920  67.1888190 151.3473350
 110.1238400  66.6403650 151.6181920 109.7716840  68.0544200 151.2079340
 106.2721400  63.2561760 147.2214860 105.3461180  63.4982900 147.2120270
 106.7377830  64.0836020 147.0999610 112.4978230  66.3618500 143.1698920
 113.2906840  66.6507330 142.7180710 111.9782580  65.9310670 142.4911400
 121.5508400  65.5888630 144.5935660 121.2649910  65.1753770 143.7789840
 121.3527950  66.5176340 144.4736180 113.0155630  61.5821910 143.0341270
 112.9106270  60.9674260 143.7602650 112.8479850  61.0587800 142.2504280
 116.2558360  60.6441940 143.6383260 115.7068460  61.0911240 144.2826000
 116.8777620  60.1391190 144.1620930 111.9233480  59.6032860 145.5348560
 112.3449900  59.4372730 146.3779950 112.0484320  58.7933090 145.0403700
 114.4361120  58.6270470 142.7825660 114.9566780  57.9119490 142.4166810
 115.0829520  59.2656340 143.0826170 110.8192380  55.6766090 142.4806720
 110.6181440  54.8133450 142.8420060 110.6484430  55.5899450 141.5428320
 118.2980690  50.4874320 145.0093600 118.5782980  49.6442220 145.3653020
 117.5246420  50.7197430 145.5232350 109.6175180  52.7766710 142.4684600
 109.9201080  52.7834140 141.5603750 110.3569770  52.4264570 142.9652260
 112.8360110  51.7201330 143.4540800 112.4882110  51.0425320 142.8743250
 113.0372880  51.2590840 144.2684190 115.0009150  66.7082080 145.0727400
 115.8959940  67.0467050 145.0946160 115.0326780  65.9861490 144.4451680
 108.6405310  62.0809130 143.3014400 109.0780180  62.6238800 143.9571980
 109.1253040  61.2556080 143.3110740 105.8551110  64.8698160 150.7534660
 106.1854120  64.0019220 150.5213300 106.2842110  65.0756680 151.5839620
 110.4513030  63.2007170 148.4136630 110.1508570  63.0772140 149.3140540
 110.3450520  62.3415760 148.0052360 123.2204950  62.9803570 143.1163310
 122.3897910  63.0480220 143.5870540 123.3976780  63.8707690 142.8130170
 122.6761410  59.7251050 145.6197510 123.4380320  60.2947700 145.7257200
 122.6915780  59.1578250 146.3905820 106.1765750  58.2488980 149.8505170
 105.5214590  57.9800620 149.2064870 107.0143700  58.1393460 149.4007150
 123.6821380  60.5801150 150.4639440 124.0530210  59.7968470 150.0575410
 124.3223310  61.2690250 150.2856740 122.7280580  60.0185420 142.7770030
 123.0029420  60.9264300 142.6489250 122.5391320  59.9547950 143.7132020
 119.1256190  53.0430270 144.0723660 119.5441070  52.8561250 143.2320320
 118.8192250  52.1909320 144.3826590 122.6245920  57.9554410 147.7699460
 122.2489520  57.1882340 147.3380750 121.8949040  58.3377110 148.2574390
 105.3903830  55.4587910 145.7930500 104.4867910  55.7218110 145.6182160
 105.8744450  55.7299080 145.0130460 107.9331040  54.5153450 143.7024880
 108.6422740  54.0936670 143.2172160 107.2170980  54.5828680 143.0708230
 107.5805200  50.5692780 142.7427530 108.3033330  51.1101720 143.0608750
 107.8529720  50.2956200 141.8669070 121.3896850  55.4385250 147.0099110
 121.8855970  55.2056120 147.7947990 121.1912920  54.5997090 146.5936750
 122.8184010  54.0746200 149.5436790 122.7083290  53.9202240 150.4819060
 123.5791600  53.5467140 149.3012200 123.7074280  51.9054120 142.7842930
 124.6323590  51.7735300 142.5761220 123.6850070  51.9846940 143.7379380
 123.7812770  52.6764780 145.4099640 122.9864270  52.6109900 145.9392550
 123.9856050  53.6115420 145.3984990 120.7231190  66.7156330 149.4038030
 121.3190260  66.3940900 148.7272450 120.9809340  66.2428150 150.1951300
 122.0771270  50.6376900 149.8707290 122.0159670  49.6938120 149.7238310
 122.8563300  50.7456990 150.4160750 106.3824020  66.7769260 148.8331240
 106.2146060  66.1439940 149.5313130 105.5158530  66.9828660 148.4825430
 107.0052040  50.6086040 146.3363100 107.7631400  50.7214920 145.7627130
 106.5429210  51.4455240 146.2906530 113.5465850  52.7225310 149.3265410
 112.7340360  52.3482200 148.9861290 114.0507490  51.9670390 149.6286600
 118.0490830  49.3867760 150.5648480 118.6520200  49.9587970 151.0397000
 117.3083820  49.9507200 150.3422380 121.1925430  49.7889320 145.8388760
 121.3876060  50.6872770 146.1056190 120.4055300  49.5576400 146.3321710
 107.9886720  65.4702490 146.2781380 107.4634340  65.8510520 145.5743340
 107.9131300  66.0953260 146.9991090 109.3777190  51.1350090 144.8765070
 109.9069950  50.3479890 144.7473020 110.0105510  51.8141280 145.1100600
 111.5715030  50.8725230 147.9310460 110.9417770  50.1712540 148.0980590
 111.0320170  51.6329360 147.7143620 122.7452040  67.0290030 147.5995320
 122.9204230  66.3427770 146.9556240 122.0473610  67.5537080 147.2071990
 110.5879690  67.4184870 145.1530630 111.3198510  67.1344150 144.6054520
 110.8473360  67.1798150 146.0430010 109.7494480  63.5349600 145.1576960
 109.1203360  64.0034700 145.7062790 109.8642310  62.6898820 145.5923150
 117.2044200  57.5855260 131.3078160 117.1238250  56.6709870 131.0369870
 116.7908620  58.0822330 130.6017870 115.3362240  59.3634280 133.1887430
 114.5604340  58.8834720 133.4786000 115.9875170  58.6839930 133.0143590
 109.3528070  59.6754090 134.0663190 108.5212950  59.4202800 134.4659700
 109.9609050  59.7464860 134.8021110 119.3569670  63.7694470 131.9686560
 118.8951200  62.9981710 132.2973730 120.1695220  63.7960540 132.4739010
 107.7620020  54.6355980 127.8505580 106.8736720  54.9771950 127.7485460
 108.0461210  54.4356300 126.9586410 105.7253030  57.2361630 133.7345280
 106.2969140  56.4683830 133.7348920 105.7254570  57.5350390 132.8251890
 115.5832980  66.0552480 131.5890550 114.9644420  66.5109980 131.0184990
 116.4384760  66.2103940 131.1880250 114.7771230  62.0391470 133.1957590
 114.7079510  61.0981410 133.0346720 115.5391090  62.1292880 133.7680160
 106.9677900  52.6445990 135.5214210 106.7880740  51.7471740 135.8016970
 106.5657980  53.1917860 136.1961160 115.8076400  54.8461850 133.4226520
 116.1841220  53.9733730 133.3100190 115.7095910  55.1820550 132.5316960
 109.9381410  53.2187480 128.8843960 110.0448160  54.1191210 129.1912720
 109.0273770  53.1705450 128.5938610 119.5900520  52.3412290 130.3554860
 120.4110140  51.8508860 130.3980340 119.6234600  52.9309950 131.1086700
 107.5864570  55.1406490 134.1296550 108.2674680  55.4044860 134.7483950
 107.2712620  54.3007360 134.4634560 111.7789140  56.1873850 133.2169140
 112.2867360  56.6854820 133.8574160 112.3102380  55.4109050 133.0408500
 123.8800070  54.3579040 136.9198490 123.1752240  54.7460750 136.4013600
 124.1457990  55.0529330 137.5219420 110.0625240  50.8272410 137.4832560
 110.0643680  51.3444800 136.6778460 109.2329550  50.3502590 137.4602490
 111.3128090  60.4667590 135.6606060 110.9797470  61.0936510 136.3027130
 111.4894770  60.9929470 134.8807730 119.8262000  54.2812670 133.1282400
 119.1217570  54.5697560 133.7085510 120.1874160  55.0912780 132.7681960
 109.7440570  52.5382370 135.4903010 110.0857380  53.3824420 135.1956880
 108.8056380  52.6866110 135.6068350 110.5247190  62.4348390 137.4755240
 111.1421190  63.1099470 137.1939690 109.6640310  62.8436370 137.3842740
 105.8179530  61.6248250 126.3562090 105.4407510  62.1135350 125.6246990
 106.0752600  62.2973530 126.9868620 121.4424780  63.8987800 135.3909880
 120.7588300  64.5686910 135.3826550 121.9819070  64.0968450 134.6254740
 122.8948920  53.7267460 133.5191610 121.9473830  53.7606440 133.6507040
 123.2198910  54.5406410 133.9040970 113.4268460  50.0264640 131.8147600
 113.7343440  49.4711530 131.0983100 112.4969160  50.1609100 131.6320590
 118.9783520  65.7431930 134.1055060 118.9910680  65.3394220 133.2377320
 118.4258740  66.5179220 134.0016490 120.2728940  62.4648150 129.1945230
 120.1625270  61.5222480 129.3194650 120.2697190  62.8263790 130.0807990
 118.3768960  60.6461770 135.4337670 118.7937750  60.4321880 134.5991130
 119.1008780  60.9034560 136.0046290 115.8018300  54.3630470 125.5474880
 114.8621970  54.5244430 125.6327340 116.1201560  55.0816150 125.0010870
 122.3231060  59.0448990 135.5253910 121.4949690  59.1142080 135.0504040
 122.9181540  59.6303300 135.0569740 119.8446510  59.6533770 129.0542970
 119.2258930  59.3153320 128.4069270 119.8270960  59.0093530 129.7622160
 119.2873070  55.8318310 136.4708780 118.8744250  56.6572020 136.7248770
 118.5549020  55.2463350 136.2785140 111.4205860  58.6178210 131.3327450
 111.0162860  57.9055460 130.8373350 111.5068980  58.2731450 132.2215490
 111.8887560  62.3045770 133.4966660 111.5915850  61.6991240 132.8174440
 112.8387380  62.3423080 133.3856020 110.1334480  55.3921420 135.1126490
 110.6849070  55.5016760 134.3379740 110.6477990  55.7659020 135.8281720
 119.9773170  65.8777640 137.1589760 119.5003730  66.6849830 136.9662370
 119.2934960  65.2255970 137.3115970 110.9805990  62.0427460 140.1474460
 110.0834520  62.2667430 140.3947860 111.0058860  62.1662400 139.1985860
 118.0211210  58.8920580 126.0615720 118.4604490  58.0543010 125.9153540
 118.7339630  59.5249980 126.1479860 109.8077210  58.9140780 138.7231830
 109.6684980  59.7863580 139.0919230 108.9258570  58.5713590 138.5779770
 116.1306590  63.8316650 130.0296960 116.5702500  64.5740980 129.6152350
 116.0693480  64.0743220 130.9535920 111.6057560  64.8562480 140.9316980
 111.5772990  65.2605430 140.0645410 111.4422530  63.9272840 140.7688580
 121.6028350  50.1463390 124.3756760 121.2901010  50.2390220 125.2755830
 122.3640820  50.7244420 124.3254190 108.1210490  57.5123190 128.8334100
 108.0008090  58.2385280 128.2215370 107.8111380  56.7426100 128.3562010
 123.5572380  65.6389580 142.2281150 124.0332100  66.1172470 142.9070230
 124.1779540  65.5707070 141.5026650 105.7595860  60.6838330 134.6402740
 105.8376280  60.8187100 133.6958460 106.3737540  59.9754220 134.8330860
 122.9605630  62.8302430 139.3881160 123.0868690  62.5914310 138.4698340
 123.0027010  61.9986970 139.8603240 116.8222370  66.5330430 137.9575970
 117.3367040  66.4438440 138.7598400 115.9791450  66.8790130 138.2503880
 118.7976770  66.8185770 127.3859970 118.6377910  66.5288710 128.2841800
 118.6323480  66.0425900 126.8505200 118.5002900  64.3273330 125.9457970
 117.8068060  64.3250620 125.2860250 119.2425760  63.9032650 125.5152140
 118.0652830  65.9536040 130.0206460 118.5209780  65.1725420 130.3345080
 118.4045350  66.6642860 130.5647640 122.8129640  54.8834890 140.3530900
 122.1973910  55.3914560 139.8246360 122.4926060  53.9833220 140.2956840
 105.8155380  61.7252500 137.1797200 105.9786420  61.2557860 136.3616570
 106.2807830  61.2176060 137.8446040 110.5874150  50.8558260 132.2157770
 110.1442300  51.6367800 131.8842290 111.1459140  51.1788150 132.9228710
 114.8743960  53.7226780 137.8193090 114.4123330  53.9309800 138.6313030
 114.4722070  52.9086130 137.5163760 119.8748470  54.9435730 138.9489750
 119.0242060  54.6441480 139.2698820 119.7150260  55.1877740 138.0373570
 116.9698180  56.4437480 141.0488540 117.2951590  55.6101230 140.7090770
 117.7578510  56.9666000 141.1966870 113.7032970  50.4768960 127.0963600
 113.0787150  50.4728830 127.8216910 113.6163090  49.6099920 126.6999570
 112.6250050  51.4005590 134.0747370 112.9222380  52.3068420 133.9939390
 113.1735610  50.9124370 133.4606940 110.3788370  55.9791830 129.9439020
 110.1529290  55.7629000 130.8485640 109.5980900  56.4120290 129.5984990
 117.6086130  55.9855200 128.5429670 117.0095020  56.7091000 128.3593290
 118.1565740  55.9231980 127.7606120 112.8187580  56.8777410 140.6099290
 112.7231180  55.9372140 140.4599690 113.6619560  57.0992480 140.2147360
 116.2151000  54.6218740 130.5732950 116.6080570  54.9390940 129.7601640
 116.5767850  53.7430620 130.6877470 107.9498120  53.2891080 138.7633070
 107.5561510  54.1366290 138.9705850 107.2616520  52.6517450 138.9541710
 114.5243170  53.3726050 141.8329810 113.8341490  53.1798250 142.4675900
 115.2675470  53.6560690 142.3654110 105.2515170  51.2119540 132.7963150
 104.9628220  51.7822400 133.5088130 105.9960930  50.7323990 133.1594380
 116.8006140  57.2124490 134.6683730 116.0687260  57.7211300 135.0173830
 116.4030480  56.3954470 134.3672510 113.2383530  53.8878690 133.0736220
 113.2419590  53.4468640 132.2240760 114.1334650  54.2096020 133.1808040
 109.0885910  53.7705180 132.0330430 108.7485960  54.2480410 132.7897480
 108.3263230  53.3170300 131.6731530 113.3003680  54.8890770 126.0642980
 113.4216500  54.8477250 127.0128800 112.9152190  55.7514920 125.9089710
 117.2632050  52.6658170 134.0806670 117.2804790  53.1166820 134.9248520
 117.0147630  51.7663810 134.2940110 120.6902800  50.0790350 139.9193050
 121.0148570  49.3480010 140.4451030 120.7259310  49.7603990 139.0174040
 107.3894360  61.1003930 139.3393010 107.0049150  60.4597600 139.9375970
 107.7006550  61.8040050 139.9087740 113.5391500  57.9480470 134.8201630
 113.9061630  57.4739040 135.5662970 113.3496560  58.8222040 135.1609970
 106.4031990  52.6924160 130.9495100 106.1178910  52.3279830 131.7873720
 106.3410850  51.9604620 130.3358240 111.3290870  56.9889110 137.1385840
 111.0247940  57.8681090 137.3636200 112.2837330  57.0488900 137.1743280
 120.6160640  60.1915460 133.5279080 121.3359760  60.6870750 133.1375190
 120.4142460  59.5133350 132.8832950 116.0770580  51.5853420 127.6708470
 115.2635190  51.0866590 127.5953780 115.8832530  52.4251670 127.2544820
 115.9979440  60.2624520 139.4148080 115.9316750  59.3420190 139.1605670
 115.3684580  60.3599960 140.1292720 118.7918970  55.9573070 125.9670630
 119.6798590  56.2690300 125.7921970 118.7624060  55.0845320 125.5751210
 107.3854600  57.8291850 138.2857200 107.0269540  58.4945700 138.8730540
 107.0909160  56.9975400 138.6569820 110.5867720  58.2876090 141.1696750
 110.2867860  58.4333270 140.2724570 111.3578960  57.7281380 141.0770140
 115.9296170  63.0845090 139.1651880 115.9440710  62.1526050 138.9470790
 115.2221270  63.1704850 139.8041650 121.0633240  57.2684910 125.4350490
 120.9796960  57.6999130 124.5846930 121.7827430  57.7283260 125.8677310
 122.1407380  59.7252430 138.5120460 121.4155570  60.3181210 138.3149850
 122.6682840  59.7175970 137.7133830 122.0920490  64.1227170 128.1632620
 121.4496650  63.4682790 128.4376340 121.7051150  64.5282260 127.3873290
 117.6706970  61.4512600 132.0104310 118.0230790  60.8540730 131.3505680
 116.7869300  61.1256830 132.1812560 105.8962650  57.8283110 124.9091800
 106.7657500  58.1107910 125.1927720 105.4052970  58.6418980 124.7940610
 115.3630070  64.7262660 136.2592380 116.0072290  64.9322040 136.9365800
 115.7259510  63.9651060 135.8063230 108.9609240  49.5593970 129.5022600
 108.8323870  49.5511870 130.4507520 108.1371260  49.8977060 129.1513610
 116.6362150  62.7295010 134.9769830 117.2784380  62.0288170 135.0902000
 117.1611500  63.5093450 134.7966720 120.4817870  63.0143630 124.7008970
 120.2555450  62.2974070 125.2933610 120.0914070  62.7656070 123.8630720
 118.4099770  63.5289910 138.1805890 118.7456010  64.1156600 138.8583810
 117.4900110  63.3982620 138.4103680 106.2633900  67.0410490 125.4753430
 106.6231540  67.6399830 124.8210700 106.1226240  67.5870380 126.2488460
 105.9603170  51.3185090 138.9629300 105.2461690  51.5182010 139.5681910
 106.3798210  50.5424660 139.3344100 120.0634120  60.9315570 126.3623130
 119.7755820  61.3928260 127.1501010 120.8586290  60.4713340 126.6307350
 106.2475760  65.3065350 139.9495830 106.3566880  64.3660090 139.8091220
 105.5956320  65.5720100 139.3009560 114.2388350  63.5781240 141.3493950
 113.9185220  62.8590480 141.8939640 113.5646710  64.2536310 141.4230010
 107.8809160  59.6456580 127.0373860 107.2737110  60.3855480 127.0469160
 108.3558510  59.7355940 126.2112060 117.4541950  53.8107400 136.7130750
 117.8222770  52.9902610 137.0410320 116.5940150  53.8709290 137.1286400
 120.8203980  52.7664340 127.5218310 120.1917140  52.8710010 126.8076540
 120.3255900  52.9861120 128.3112190 112.7888010  55.0450290 128.9376190
 112.0804160  55.5136630 129.3789800 113.0732490  54.3872300 129.5721380
 114.4143940  56.4646990 136.9368720 114.9129190  56.9392810 137.6020570
 114.5566890  55.5410510 137.1438750 116.8203440  51.7700950 130.3771980
 116.6971220  51.7887080 129.4281490 117.7688000  51.8179890 130.4970380
 113.9080230  67.0056250 129.6499960 114.1621730  66.9677640 128.7279330
 112.9592710  66.8789580 129.6428210 110.9923030  53.3535370 126.3126900
 111.8413560  53.7905520 126.2467090 110.6254300  53.6655630 127.1398960
 121.6210800  52.6814950 137.7797110 121.1184400  53.4220350 138.1190920
 122.4367460  53.0698950 137.4633900 119.9132810  57.9248130 131.2258470
 118.9722950  57.9398360 131.4006160 120.2276880  57.1384090 131.6718770
 109.8914450  59.6067730 124.7862430 110.6577720  59.4949090 125.3487860
 109.9689140  58.9105700 124.1339200 108.5861210  57.0392800 125.4695320
 108.6664800  56.0920310 125.5812720 109.4780960  57.3699680 125.5755980
 121.9158390  65.0956980 132.9012730 122.0405810  65.9188150 133.3736540
 122.7823950  64.8847710 132.5536880 106.2721400  63.2561760 128.4471370
 105.3461180  63.4982900 128.4376780 106.7377830  64.0836020 128.3256120
 108.3934200  66.3734260 141.7615440 109.1946930  66.6946310 142.1750840
 107.8786020  66.0129840 142.4835350 112.4978230  66.3618500 124.3955430
 113.2906840  66.6507330 123.9437220 111.9782580  65.9310670 123.7167910
 117.2298830  62.4814130 141.7090850 116.6236990  62.5045730 140.9686600
 116.9252940  61.7497170 142.2458100 118.6599200  66.2094420 140.3200260
 119.6120950  66.1252440 140.2700500 118.5127420  66.8736130 140.9934050
 121.5508400  65.5888630 125.8192170 121.2649910  65.1753770 125.0046350
 121.3527950  66.5176340 125.6992690 106.1132010  58.8607720 140.7051490
 106.6171030  58.2815000 141.2767720 105.3739430  59.1447950 141.2427860
 113.1669950  60.2678710 140.2387010 112.4015620  60.8363710 140.1541680
 113.3485910  59.9754920 139.3455240 120.3093300  61.9984040 140.7962030
 121.0502770  62.3359800 140.2929490 119.5465980  62.1676100 140.2431800
 108.1455090  57.0037310 141.6001560 108.1860430  56.7051180 142.5086790
 109.0000590  57.4044920 141.4409080 110.0860900  55.5829410 139.5676050
 109.5557360  55.0920360 138.9399390 110.7548970  56.0113610 139.0333980
 118.9838960  60.0498870 139.3317240 119.3979980  60.2043950 140.1807660
 118.0489960  60.1754090 139.4943020 119.4561130  57.3895030 141.3356390
 120.0381900  56.6347350 141.2476870 119.6322900  57.9202470 140.5587870
 110.5733200  52.5491780 139.6473340 110.4790070  51.9312530 138.9224210
 109.9930590  53.2758070 139.4203250 113.3394640  51.1065020 136.6800730
 112.8911940  51.1289280 135.8346280 112.7059840  50.7084040 137.2771030
 113.7454190  60.0019350 137.3013170 114.1642300  60.8452080 137.1289410
 112.8262820  60.1391390 137.0719950 116.0818090  57.7335530 138.6851010
 116.2014300  57.1376670 139.4245850 116.9412090  57.7705220 138.2652310
 118.4205990  58.2872720 137.2613520 117.8941210  58.8115340 136.6578660
 118.7637330  58.9200110 137.8923250 110.8192380  55.6766090 123.7063230
 110.6181440  54.8133450 124.0676570 110.6484430  55.5899450 122.7684830
 111.5961610  66.3072360 138.4170900 111.0582700  67.0318420 138.0979600
 111.8495570  65.8302700 137.6268240 112.8486860  54.2756880 139.9426830
 113.4386550  53.9672730 140.6304650 112.0307100  53.8036630 140.0986730
 117.6680290  53.8922690 140.1759850 116.9795810  53.2304230 140.1109840
 118.3886310  53.4460960 140.6208310 118.2980690  50.4874320 126.2350110
 118.5782980  49.6442220 126.5909530 117.5246420  50.7197430 126.7488860
 109.6175180  52.7766710 123.6941110 109.9201080  52.7834140 122.7860260
 110.3569770  52.4264570 124.1908770 114.4523820  67.5423570 138.6757550
 114.3782520  68.4458710 138.9829920 113.5502660  67.2235470 138.6479620
 112.8360110  51.7201330 124.6797310 112.4882110  51.0425320 124.0999760
 113.0372880  51.2590840 125.4940700 115.0009150  66.7082080 126.2983910
 115.8959940  67.0467050 126.3202670 115.0326780  65.9861490 125.6708190
 108.6405310  62.0809130 124.5270910 109.0780180  62.6238800 125.1828490
 109.1253040  61.2556080 124.5367250 106.3441320  65.7368750 134.7172800
 105.9072310  65.9169550 135.5496950 106.9119000  66.4943370 134.5754520
 121.9803500  65.2385750 139.0050110 121.3805490  65.2978310 138.2614030
 122.1097400  64.2990730 139.1346960 123.2204950  62.9803570 124.3419820
 122.3897910  63.0480220 124.8127050 123.3976780  63.8707690 124.0386680
 122.6761410  59.7251050 126.8454020 123.4380320  60.2947700 126.9513710
 122.6915780  59.1578250 127.6162330 106.1765750  58.2488980 131.0761680
 105.5214590  57.9800620 130.4321380 107.0143700  58.1393460 130.6263660
 123.6821380  60.5801150 131.6895950 124.0530210  59.7968470 131.2831920
 124.3223310  61.2690250 131.5113250 120.6655140  61.9637730 137.1026270
 119.8514980  62.3934890 137.3652060 121.0729340  62.5756140 136.4895320
 122.7280580  60.0185420 124.0026540 123.0029420  60.9264300 123.8745760
 122.5391320  59.9547950 124.9388530 119.1256190  53.0430270 125.2980170
 119.5441070  52.8561250 124.4576830 118.8192250  52.1909320 125.6083100
 122.6245920  57.9554410 128.9955970 122.2489520  57.1882340 128.5637260
 121.8949040  58.3377110 129.4830900 107.2141680  58.6341550 135.6165020
 107.5814720  58.5468950 136.4961040 106.6452500  57.8708100 135.5171880
 122.0145540  57.1025930 138.6295490 121.7831630  56.8738680 137.7293440
 122.2750090  58.0225480 138.5840380 106.7657680  55.5450640 139.5223440
 105.8713730  55.5117400 139.8617150 107.3055230  55.7437430 140.2874690
 120.4533610  52.3282360 141.4075190 121.3303790  52.3365760 141.7909190
 120.4654450  51.5913200 140.7967540 121.8996880  56.1811900 132.2963210
 122.4234360  55.6874550 131.6653380 122.4856300  56.3162260 133.0410780
 122.0786600  56.2651770 135.8182760 121.1289310  56.2315310 135.9327750
 122.2599610  57.1751880 135.5832530 107.9331040  54.5153450 124.9281390
 108.6422740  54.0936670 124.4428670 107.2170980  54.5828680 124.2964740
 107.5805200  50.5692780 123.9684040 108.3033330  51.1101720 124.2865260
 107.8529720  50.2956200 123.0925580 121.3896850  55.4385250 128.2355620
 121.8855970  55.2056120 129.0204500 121.1912920  54.5997090 127.8193260
 107.2697390  49.8198970 133.8706660 107.9173580  49.2696350 133.4301820
 107.6899230  50.0742120 134.6922470 122.8184010  54.0746200 130.7693300
 122.7083290  53.9202240 131.7075570 123.5791600  53.5467140 130.5268710
 121.1649730  50.0140330 137.2276300 121.8021950  50.6274470 137.5935490
 121.3124620  50.0500990 136.2825530 123.7074280  51.9054120 124.0099440
 124.6323590  51.7735300 123.8017730 123.6850070  51.9846940 124.9635890
 123.7812770  52.6764780 126.6356150 122.9864270  52.6109900 127.1649060
 123.9856050  53.6115420 126.6241500 120.7231190  66.7156330 130.6294540
 121.3190260  66.3940900 129.9528960 120.9809340  66.2428150 131.4207810
 107.0229390  49.9754640 136.6131980 106.6744210  50.4318460 137.3790160
 106.6917090  49.0811770 136.6954410 108.6293760  63.1474240 140.7785170
 108.5863390  62.7767150 141.6599630 108.7604770  64.0851810 140.9186990
 112.3299790  64.7033830 136.3794890 112.0891150  64.9708390 135.4925410
 113.2702430  64.8739560 136.4345750 114.5354210  51.1666520 140.1351400
 114.4743100  51.7588350 140.8846810 115.4754590  51.0592480 139.9901660
 117.1728770  50.8236580 139.7743690 117.7869180  51.1415870 139.1124770
 117.7178330  50.3385170 140.3939550 123.5903950  66.7228210 137.1805530
 123.0962230  67.1197080 136.4632660 122.9817240  66.0977420 137.5742810
 107.6950030  49.5030840 139.8882750 108.2433020  49.3218890 139.1248860
 107.7605340  48.7124950 140.4239060 108.4681790  66.0936490 137.8982950
 107.8742110  65.9621190 138.6372990 108.4605630  65.2574630 137.4325050
 117.9136810  49.3868720 136.1012980 117.0396650  49.7203830 135.8985910
 117.8047560  48.9141900 136.9264850 118.8208790  51.5939590 137.4854700
 118.4922150  50.7791350 137.1056430 119.7691090  51.5509400 137.3620390
 121.2743400  67.3651630 134.4592270 120.8146370  68.1167440 134.0850290
 120.6455860  66.6458100 134.4007070 108.0994020  63.4594870 136.8490990
 107.3728080  62.8400160 136.7816940 108.1603170  63.8535480 135.9789070
 114.4434620  66.5648360 134.4609380 114.7312430  66.3102660 133.5842390
 114.9557840  66.0125720 135.0514950 115.6611630  50.3038560 135.0405890
 114.8783420  50.7784060 135.3202650 115.3674560  49.3993390 134.9319070
 120.2132700  51.0061660 133.0854980 120.6540790  50.9506760 132.2376580
 119.9440290  51.9219670 133.1565160 122.0771270  50.6376900 131.0963800
 122.0159670  49.6938120 130.9494820 122.8563300  50.7456990 131.6417260
 107.0052040  50.6086040 127.5619610 107.7631400  50.7214920 126.9883640
 106.5429210  51.4455240 127.5163040 113.5465850  52.7225310 130.5521920
 112.7340360  52.3482200 130.2117800 114.0507490  51.9670390 130.8543110
 118.0490830  49.3867760 131.7904990 118.6520200  49.9587970 132.2653510
 117.3083820  49.9507200 131.5678890 121.1925430  49.7889320 127.0645270
 121.3876060  50.6872770 127.3312700 120.4055300  49.5576400 127.5578220
 109.3777190  51.1350090 126.1021580 109.9069950  50.3479890 125.9729530
 110.0105510  51.8141280 126.3357110 111.5715030  50.8725230 129.1566970
 110.9417770  50.1712540 129.3237100 111.0320170  51.6329360 128.9400130
 114.5106980  67.4864460 141.8277580 115.4374290  67.2508730 141.8713540
 114.4957410  68.3136460 141.3463610 122.7452040  67.0290030 128.8251830
 122.9204230  66.3427770 128.1812750 122.0473610  67.5537080 128.4328500
 111.6970590  50.1509210 141.5919460 111.4154860  50.6542810 140.8280280
 112.0790290  49.3530960 141.2261590 118.2986050  49.5662790 142.1699930
 118.1851500  49.8857400 143.0651450 119.1155790  49.9675300 141.8737210
 121.0784540  66.7134320 141.6518620 121.8709860  66.2183550 141.4444580
 121.3717690  67.3924460 142.2594230 117.2044200  57.5855260 112.5334670
 117.1238250  56.6709870 112.2626380 116.7908620  58.0822330 111.8274380
 115.3362240  59.3634280 114.4143940 114.5604340  58.8834720 114.7042510
 115.9875170  58.6839930 114.2400100 119.3569670  63.7694470 113.1943070
 118.8951200  62.9981710 113.5230240 120.1695220  63.7960540 113.6995520
 115.5832980  66.0552480 112.8147060 114.9644420  66.5109980 112.2441500
 116.4384760  66.2103940 112.4136760 114.7771230  62.0391470 114.4214100
 114.7079510  61.0981410 114.2603230 115.5391090  62.1292880 114.9936670
 106.9677900  52.6445990 116.7470720 106.7880740  51.7471740 117.0273480
 106.5657980  53.1917860 117.4217670 115.8076400  54.8461850 114.6483030
 116.1841220  53.9733730 114.5356700 115.7095910  55.1820550 113.7573470
 111.7789140  56.1873850 114.4425650 112.2867360  56.6854820 115.0830670
 112.3102380  55.4109050 114.2665010 123.8800070  54.3579040 118.1455000
 123.1752240  54.7460750 117.6270110 124.1457990  55.0529330 118.7475930
 110.0625240  50.8272410 118.7089070 110.0643680  51.3444800 117.9034970
 109.2329550  50.3502590 118.6859000 116.4496330  60.9391720 110.2078970
 115.8313600  61.4041170 109.6441690 116.9619580  61.6319200 110.6248480
 109.7440570  52.5382370 116.7159520 110.0857380  53.3824420 116.4213390
 108.8056380  52.6866110 116.8324860 110.5247190  62.4348390 118.7011750
 111.1421190  63.1099470 118.4196200 109.6640310  62.8436370 118.6099250
 121.4424780  63.8987800 116.6166390 120.7588300  64.5686910 116.6083060
 121.9819070  64.0968450 115.8511250 113.4268460  50.0264640 113.0404110
 113.7343440  49.4711530 112.3239610 112.4969160  50.1609100 112.8577100
 118.9783520  65.7431930 115.3311570 118.9910680  65.3394220 114.4633830
 118.4258740  66.5179220 115.2273000 120.2728940  62.4648150 110.4201740
 120.1625270  61.5222480 110.5451160 120.2697190  62.8263790 111.3064500
 118.3768960  60.6461770 116.6594180 118.7937750  60.4321880 115.8247640
 119.1008780  60.9034560 117.2302800 115.8149220  58.0913470 109.7764230
 114.8878500  58.0250850 110.0052700 115.9674040  59.0293600 109.6619470
 122.3231060  59.0448990 116.7510420 121.4949690  59.1142080 116.2760550
 122.9181540  59.6303300 116.2826250 119.8446510  59.6533770 110.2799480
 119.2258930  59.3153320 109.6325780 119.8270960  59.0093530 110.9878670
 119.2873070  55.8318310 117.6965290 118.8744250  56.6572020 117.9505280
 118.5549020  55.2463350 117.5041650 111.4205860  58.6178210 112.5583960
 111.0162860  57.9055460 112.0629860 111.5068980  58.2731450 113.4472000
 111.8887560  62.3045770 114.7223170 111.5915850  61.6991240 114.0430950
 112.8387380  62.3423080 114.6112530 119.9773170  65.8777640 118.3846270
 119.5003730  66.6849830 118.1918880 119.2934960  65.2255970 118.5372480
 110.9805990  62.0427460 121.3730970 110.0834520  62.2667430 121.6204370
 111.0058860  62.1662400 120.4242370 118.0211210  58.8920580 107.2872230
 118.4604490  58.0543010 107.1410050 118.7339630  59.5249980 107.3736370
 116.1306590  63.8316650 111.2553470 116.5702500  64.5740980 110.8408860
 116.0693480  64.0743220 112.1792430 111.6057560  64.8562480 122.1573490
 111.5772990  65.2605430 121.2901920 111.4422530  63.9272840 121.9945090
 121.6028350  50.1463390 105.6013270 121.2901010  50.2390220 106.5012340
 122.3640820  50.7244420 105.5510700 123.5572380  65.6389580 123.4537660
 124.0332100  66.1172470 124.1326740 124.1779540  65.5707070 122.7283160
 122.9605630  62.8302430 120.6137670 123.0868690  62.5914310 119.6954850
 123.0027010  61.9986970 121.0859750 116.8222370  66.5330430 119.1832480
 117.3367040  66.4438440 119.9854910 115.9791450  66.8790130 119.4760390
 111.2765150  66.5984300 110.3888100 111.1007630  65.6819840 110.1755900
 110.4220890  66.9571590 110.6285900 118.5002900  64.3273330 107.1714480
 117.8068060  64.3250620 106.5116760 119.2425760  63.9032650 106.7408650
 118.0652830  65.9536040 111.2462970 118.5209780  65.1725420 111.5601590
 118.4045350  66.6642860 111.7904150 122.8129640  54.8834890 121.5787410
 122.1973910  55.3914560 121.0502870 122.4926060  53.9833220 121.5213350
 110.5874150  50.8558260 113.4414280 110.1442300  51.6367800 113.1098800
 111.1459140  51.1788150 114.1485220 119.8748470  54.9435730 120.1746260
 119.0242060  54.6441480 120.4955330 119.7150260  55.1877740 119.2630080
 116.9698180  56.4437480 122.2745050 117.2951590  55.6101230 121.9347280
 117.7578510  56.9666000 122.4223380 112.6250050  51.4005590 115.3003880
 112.9222380  52.3068420 115.2195900 113.1735610  50.9124370 114.6863450
 110.3788370  55.9791830 111.1695530 110.1529290  55.7629000 112.0742150
 109.5980900  56.4120290 110.8241500 116.2151000  54.6218740 111.7989460
 116.6080570  54.9390940 110.9858150 116.5767850  53.7430620 111.9133980
 107.9498120  53.2891080 119.9889580 107.5561510  54.1366290 120.1962360
 107.2616520  52.6517450 120.1798220 114.5243170  53.3726050 123.0586320
 113.8341490  53.1798250 123.6932410 115.2675470  53.6560690 123.5910620
 105.2515170  51.2119540 114.0219660 104.9628220  51.7822400 114.7344640
 105.9960930  50.7323990 114.3850890 105.4385400  55.1539660 105.2322380
 105.3560070  56.0970420 105.3737370 105.0868460  55.0114570 104.3534730
 116.8006140  57.2124490 115.8940240 116.0687260  57.7211300 116.2430340
 116.4030480  56.3954470 115.5929020 113.2383530  53.8878690 114.2992730
 113.2419590  53.4468640 113.4497270 114.1334650  54.2096020 114.4064550
 109.0885910  53.7705180 113.2586940 108.7485960  54.2480410 114.0153990
 108.3263230  53.3170300 112.8988040 117.2632050  52.6658170 115.3063180
 117.2804790  53.1166820 116.1505030 117.0147630  51.7663810 115.5196620
 120.6902800  50.0790350 121.1449560 121.0148570  49.3480010 121.6707540
 120.7259310  49.7603990 120.2430550 107.3894360  61.1003930 120.5649520
 107.0049150  60.4597600 121.1632480 107.7006550  61.8040050 121.1344250
 106.4031990  52.6924160 112.1751610 106.1178910  52.3279830 113.0130230
 106.3410850  51.9604620 111.5614750 120.6160640  60.1915460 114.7535590
 121.3359760  60.6870750 114.3631700 120.4142460  59.5133350 114.1089460
 118.7918970  55.9573070 107.1927140 119.6798590  56.2690300 107.0178480
 118.7624060  55.0845320 106.8007720 114.7879560  62.1296760 107.8715310
 115.1295260  62.8738990 107.3758630 113.9592270  62.4427880 108.2340140
 115.9296170  63.0845090 120.3908390 115.9440710  62.1526050 120.1727300
 115.2221270  63.1704850 121.0298160 121.0633240  57.2684910 106.6607000
 120.9796960  57.6999130 105.8103440 121.7827430  57.7283260 107.0933820
 122.1407380  59.7252430 119.7376970 121.4155570  60.3181210 119.5406360
 122.6682840  59.7175970 118.9390340 122.0920490  64.1227170 109.3889130
 121.4496650  63.4682790 109.6632850 121.7051150  64.5282260 108.6129800
 117.6706970  61.4512600 113.2360820 118.0230790  60.8540730 112.5762190
 116.7869300  61.1256830 113.4069070 113.7570250  62.2110290 110.6431230
 114.4441380  62.7579500 111.0238820 112.9702670  62.7551020 110.6780840
 113.0597460  59.2156320 110.2556590 113.5160240  60.0261570 110.4816780
 112.7085670  58.8979460 111.0875080 115.3630070  64.7262660 117.4848890
 116.0072290  64.9322040 118.1622310 115.7259510  63.9651060 117.0319740
 108.9609240  49.5593970 110.7279110 108.8323870  49.5511870 111.6764030
 108.1371260  49.8977060 110.3770120 116.6362150  62.7295010 116.2026340
 117.2784380  62.0288170 116.3158510 117.1611500  63.5093450 116.0223230
 120.4817870  63.0143630 105.9265480 120.2555450  62.2974070 106.5190120
 120.0914070  62.7656070 105.0887230 118.4099770  63.5289910 119.4062400
 118.7456010  64.1156600 120.0840320 117.4900110  63.3982620 119.6360190
 106.2633900  67.0410490 106.7009940 106.6231540  67.6399830 106.0467210
 106.1226240  67.5870380 107.4744970 105.9603170  51.3185090 120.1885810
 105.2461690  51.5182010 120.7938420 106.3798210  50.5424660 120.5600610
 120.0634120  60.9315570 107.5879640 119.7755820  61.3928260 108.3757520
 120.8586290  60.4713340 107.8563860 106.2475760  65.3065350 121.1752340
 106.3566880  64.3660090 121.0347730 105.5956320  65.5720100 120.5266070
 114.2388350  63.5781240 122.5750460 113.9185220  62.8590480 123.1196150
 113.5646710  64.2536310 122.6486520 112.2802520  64.4241690 107.5183610
 112.2712620  65.1571380 106.9028120 111.3600880  64.1773270 107.6110570
 117.4541950  53.8107400 117.9387260 117.8222770  52.9902610 118.2666830
 116.5940150  53.8709290 118.3542910 115.2662120  64.4869930 106.1808800
 115.3674100  64.2833920 105.2510780 114.3663860  64.2328210 106.3856580
 116.8203440  51.7700950 111.6028490 116.6971220  51.7887080 110.6538000
 117.7688000  51.8179890 111.7226890 113.9080230  67.0056250 110.8756470
 114.1621730  66.9677640 109.9535840 112.9592710  66.8789580 110.8684720
 121.6210800  52.6814950 119.0053620 121.1184400  53.4220350 119.3447430
 122.4367460  53.0698950 118.6890410 121.9158390  65.0956980 114.1269240
 122.0405810  65.9188150 114.5993050 122.7823950  64.8847710 113.7793390
 109.3875920  67.1888190 113.7986370 110.1238400  66.6403650 114.0694940
 109.7716840  68.0544200 113.6592360 108.3934200  66.3734260 122.9871950
 109.1946930  66.6946310 123.4007350 107.8786020  66.0129840 123.7091860
 112.4978230  66.3618500 105.6211940 113.2906840  66.6507330 105.1693730
 111.9782580  65.9310670 104.9424420 117.2298830  62.4814130 122.9347360
 116.6236990  62.5045730 122.1943110 116.9252940  61.7497170 123.4714610
 118.6599200  66.2094420 121.5456770 119.6120950  66.1252440 121.4957010
 118.5127420  66.8736130 122.2190560 106.1132010  58.8607720 121.9308000
 106.6171030  58.2815000 122.5024230 105.3739430  59.1447950 122.4684370
 116.2558360  60.6441940 106.0896280 115.7068460  61.0911240 106.7339020
 116.8777620  60.1391190 106.6133950 120.3093300  61.9984040 122.0218540
 121.0502770  62.3359800 121.5186000 119.5465980  62.1676100 121.4688310
 108.1455090  57.0037310 122.8258070 108.1860430  56.7051180 123.7343300
 109.0000590  57.4044920 122.6665590 118.9838960  60.0498870 120.5573750
 119.3979980  60.2043950 121.4064170 118.0489960  60.1754090 120.7199530
 119.4561130  57.3895030 122.5612900 120.0381900  56.6347350 122.4733380
 119.6322900  57.9202470 121.7844380 110.5733200  52.5491780 120.8729850
 110.4790070  51.9312530 120.1480720 109.9930590  53.2758070 120.6459760
 113.3394640  51.1065020 117.9057240 112.8911940  51.1289280 117.0602790
 112.7059840  50.7084040 118.5027540 118.4205990  58.2872720 118.4870030
 117.8941210  58.8115340 117.8835170 118.7637330  58.9200110 119.1179760
 111.5961610  66.3072360 119.6427410 111.0582700  67.0318420 119.3236110
 111.8495570  65.8302700 118.8524750 117.6680290  53.8922690 121.4016360
 116.9795810  53.2304230 121.3366350 118.3886310  53.4460960 121.8464820
 118.2980690  50.4874320 107.4606620 118.5782980  49.6442220 107.8166040
 117.5246420  50.7197430 107.9745370 114.4523820  67.5423570 119.9014060
 114.3782520  68.4458710 120.2086430 113.5502660  67.2235470 119.8736130
 115.0009150  66.7082080 107.5240420 115.8959940  67.0467050 107.5459180
 115.0326780  65.9861490 106.8964700 110.4513030  63.2007170 110.8649650
 110.1508570  63.0772140 111.7653560 110.3450520  62.3415760 110.4565380
 106.3441320  65.7368750 115.9429310 105.9072310  65.9169550 116.7753460
 106.9119000  66.4943370 115.8011030 121.9803500  65.2385750 120.2306620
 121.3805490  65.2978310 119.4870540 122.1097400  64.2990730 120.3603470
 123.2204950  62.9803570 105.5676330 122.3897910  63.0480220 106.0383560
 123.3976780  63.8707690 105.2643190 122.6761410  59.7251050 108.0710530
 123.4380320  60.2947700 108.1770220 122.6915780  59.1578250 108.8418840
 123.6821380  60.5801150 112.9152460 124.0530210  59.7968470 112.5088430
 124.3223310  61.2690250 112.7369760 120.6655140  61.9637730 118.3282780
 119.8514980  62.3934890 118.5908570 121.0729340  62.5756140 117.7151830
 122.7280580  60.0185420 105.2283050 123.0029420  60.9264300 105.1002270
 122.5391320  59.9547950 106.1645040 119.1256190  53.0430270 106.5236680
 119.5441070  52.8561250 105.6833340 118.8192250  52.1909320 106.8339610
 122.6245920  57.9554410 110.2212480 122.2489520  57.1882340 109.7893770
 121.8949040  58.3377110 110.7087410 122.0145540  57.1025930 119.8552000
 121.7831630  56.8738680 118.9549950 122.2750090  58.0225480 119.8096890
 106.7657680  55.5450640 120.7479950 105.8713730  55.5117400 121.0873660
 107.3055230  55.7437430 121.5131200 120.4533610  52.3282360 122.6331700
 121.3303790  52.3365760 123.0165700 120.4654450  51.5913200 122.0224050
 105.3903830  55.4587910 108.2443520 104.4867910  55.7218110 108.0695180
 105.8744450  55.7299080 107.4643480 107.5805200  50.5692780 105.1940550
 108.3033330  51.1101720 105.5121770 107.8529720  50.2956200 104.3182090
 107.2697390  49.8198970 115.0963170 107.9173580  49.2696350 114.6558330
 107.6899230  50.0742120 115.9178980 121.1649730  50.0140330 118.4532810
 121.8021950  50.6274470 118.8192000 121.3124620  50.0500990 117.5082040
 123.7812770  52.6764780 107.8612660 122.9864270  52.6109900 108.3905570
 123.9856050  53.6115420 107.8498010 120.7231190  66.7156330 111.8551050
 121.3190260  66.3940900 111.1785470 120.9809340  66.2428150 112.6464320
 107.0229390  49.9754640 117.8388490 106.6744210  50.4318460 118.6046670
 106.6917090  49.0811770 117.9210920 108.6293760  63.1474240 122.0041680
 108.5863390  62.7767150 122.8856140 108.7604770  64.0851810 122.1443500
 112.3299790  64.7033830 117.6051400 112.0891150  64.9708390 116.7181920
 113.2702430  64.8739560 117.6602260 114.5354210  51.1666520 121.3607910
 114.4743100  51.7588350 122.1103320 115.4754590  51.0592480 121.2158170
 117.1728770  50.8236580 121.0000200 117.7869180  51.1415870 120.3381280
 117.7178330  50.3385170 121.6196060 123.5903950  66.7228210 118.4062040
 123.0962230  67.1197080 117.6889170 122.9817240  66.0977420 118.7999320
 107.6950030  49.5030840 121.1139260 108.2433020  49.3218890 120.3505370
 107.7605340  48.7124950 121.6495570 108.4681790  66.0936490 119.1239460
 107.8742110  65.9621190 119.8629500 108.4605630  65.2574630 118.6581560
 117.9136810  49.3868720 117.3269490 117.0396650  49.7203830 117.1242420
 117.8047560  48.9141900 118.1521360 118.8208790  51.5939590 118.7111210
 118.4922150  50.7791350 118.3312940 119.7691090  51.5509400 118.5876900
 121.2743400  67.3651630 115.6848780 120.8146370  68.1167440 115.3106800
 120.6455860  66.6458100 115.6263580 111.7039120  65.6739870 114.8596910
 112.2204140  65.0627230 114.3345170 112.3536500  66.1768650 115.3507920
 114.4434620  66.5648360 115.6865890 114.7312430  66.3102660 114.8098900
 114.9557840  66.0125720 116.2771460 115.6611630  50.3038560 116.2662400
 114.8783420  50.7784060 116.5459160 115.3674560  49.3993390 116.1575580
 106.3824020  66.7769260 111.2844260 106.2146060  66.1439940 111.9826150
 105.5158530  66.9828660 110.9338450 107.0052040  50.6086040 108.7876120
 107.7631400  50.7214920 108.2140150 106.5429210  51.4455240 108.7419550
 118.0490830  49.3867760 113.0161500 118.6520200  49.9587970 113.4910020
 117.3083820  49.9507200 112.7935400 121.1925430  49.7889320 108.2901780
 121.3876060  50.6872770 108.5569210 120.4055300  49.5576400 108.7834730
 107.9886720  65.4702490 108.7294400 107.4634340  65.8510520 108.0256360
 107.9131300  66.0953260 109.4504110 114.5106980  67.4864460 123.0534090
 115.4374290  67.2508730 123.0970050 114.4957410  68.3136460 122.5720120
 111.6970590  50.1509210 122.8175970 111.4154860  50.6542810 122.0536790
 112.0790290  49.3530960 122.4518100 110.5879690  67.4184870 107.6043650
 111.3198510  67.1344150 107.0567540 110.8473360  67.1798150 108.4943030
 118.2986050  49.5662790 123.3956440 118.1851500  49.8857400 124.2907960
 119.1155790  49.9675300 123.0993720 121.0784540  66.7134320 122.8775130
 121.8709860  66.2183550 122.6701090 121.3717690  67.3924460 123.4850740
 117.2044200  57.5855260  93.7591180 117.1238250  56.6709870  93.4882890
 116.7908620  58.0822330  93.0530890 115.3362240  59.3634280  95.6400450
 114.5604340  58.8834720  95.9299020 115.9875170  58.6839930  95.4656610
 119.3569670  63.7694470  94.4199580 118.8951200  62.9981710  94.7486750
 120.1695220  63.7960540  94.9252030 105.7253030  57.2361630  96.1858300
 106.2969140  56.4683830  96.1861940 105.7254570  57.5350390  95.2764910
 115.5832980  66.0552480  94.0403570 114.9644420  66.5109980  93.4698010
 116.4384760  66.2103940  93.6393270 114.7771230  62.0391470  95.6470610
 114.7079510  61.0981410  95.4859740 115.5391090  62.1292880  96.2193180
 115.8076400  54.8461850  95.8739540 116.1841220  53.9733730  95.7613210
 115.7095910  55.1820550  94.9829980 119.5900520  52.3412290  92.8067880
 120.4110140  51.8508860  92.8493360 119.6234600  52.9309950  93.5599720
 110.0625240  50.8272410  99.9345580 110.0643680  51.3444800  99.1291480
 109.2329550  50.3502590  99.9115510 116.4496330  60.9391720  91.4335480
 115.8313600  61.4041170  90.8698200 116.9619580  61.6319200  91.8504990
 105.8179530  61.6248250  88.8075110 105.4407510  62.1135350  88.0760010
 106.0752600  62.2973530  89.4381640 121.4424780  63.8987800  97.8422900
 120.7588300  64.5686910  97.8339570 121.9819070  64.0968450  97.0767760
 113.4268460  50.0264640  94.2660620 113.7343440  49.4711530  93.5496120
 112.4969160  50.1609100  94.0833610 118.9783520  65.7431930  96.5568080
 118.9910680  65.3394220  95.6890340 118.4258740  66.5179220  96.4529510
 118.3768960  60.6461770  97.8850690 118.7937750  60.4321880  97.0504150
 119.1008780  60.9034560  98.4559310 115.8149220  58.0913470  91.0020740
 114.8878500  58.0250850  91.2309210 115.9674040  59.0293600  90.8875980
 111.8887560  62.3045770  95.9479680 111.5915850  61.6991240  95.2687460
 112.8387380  62.3423080  95.8369040 119.9773170  65.8777640  99.6102780
 119.5003730  66.6849830  99.4175390 119.2934960  65.2255970  99.7628990
 118.0211210  58.8920580  88.5128740 118.4604490  58.0543010  88.3666560
 118.7339630  59.5249980  88.5992880 116.1306590  63.8316650  92.4809980
 116.5702500  64.5740980  92.0665370 116.0693480  64.0743220  93.4048940
 116.8222370  66.5330430 100.4088990 117.3367040  66.4438440 101.2111420
 115.9791450  66.8790130 100.7016900 111.2765150  66.5984300  91.6144610
 111.1007630  65.6819840  91.4012410 110.4220890  66.9571590  91.8542410
 118.0652830  65.9536040  92.4719480 118.5209780  65.1725420  92.7858100
 118.4045350  66.6642860  93.0160660 114.8743960  53.7226780 100.2706110
 114.4123330  53.9309800 101.0826050 114.4722070  52.9086130  99.9676780
 116.9698180  56.4437480 103.5001560 117.2951590  55.6101230 103.1603790
 117.7578510  56.9666000 103.6479890 112.6250050  51.4005590  96.5260390
 112.9222380  52.3068420  96.4452410 113.1735610  50.9124370  95.9119960
 117.6086130  55.9855200  90.9942690 117.0095020  56.7091000  90.8106310
 118.1565740  55.9231980  90.2119140 116.2151000  54.6218740  93.0245970
 116.6080570  54.9390940  92.2114660 116.5767850  53.7430620  93.1390490
 107.9498120  53.2891080 101.2146090 107.5561510  54.1366290 101.4218870
 107.2616520  52.6517450 101.4054730 116.8006140  57.2124490  97.1196750
 116.0687260  57.7211300  97.4686850 116.4030480  56.3954470  96.8185530
 113.2383530  53.8878690  95.5249240 113.2419590  53.4468640  94.6753780
 114.1334650  54.2096020  95.6321060 112.3125180  57.1991910  87.9139300
 111.7442080  56.7510160  87.2875210 113.0214180  57.5584690  87.3804450
 113.5391500  57.9480470  97.2714650 113.9061630  57.4739040  98.0175990
 113.3496560  58.8222040  97.6122990 109.8572660  61.1950100  90.1865710
 109.0834920  60.6547720  90.0264430 110.5867290  60.6756710  89.8483470
 120.6160640  60.1915460  95.9792100 121.3359760  60.6870750  95.5888210
 120.4142460  59.5133350  95.3345970 115.9979440  60.2624520 101.8661100
 115.9316750  59.3420190 101.6118690 115.3684580  60.3599960 102.5805740
 118.7918970  55.9573070  88.4183650 119.6798590  56.2690300  88.2434990
 118.7624060  55.0845320  88.0264230 109.9010060  60.8630480  93.8244520
 110.4188730  60.0598740  93.7701410 109.4494080  60.8009620  94.6661350
 115.9296170  63.0845090 101.6164900 115.9440710  62.1526050 101.3983810
 115.2221270  63.1704850 102.2554670 121.0633240  57.2684910  87.8863510
 120.9796960  57.6999130  87.0359950 121.7827430  57.7283260  88.3190330
 117.6706970  61.4512600  94.4617330 118.0230790  60.8540730  93.8018700
 116.7869300  61.1256830  94.6325580 113.7570250  62.2110290  91.8687740
 114.4441380  62.7579500  92.2495330 112.9702670  62.7551020  91.9037350
 105.8962650  57.8283110  87.3604820 106.7657500  58.1107910  87.6440740
 105.4052970  58.6418980  87.2453630 113.0597460  59.2156320  91.4813100
 113.5160240  60.0261570  91.7073290 112.7085670  58.8979460  92.3131590
 115.3630070  64.7262660  98.7105400 116.0072290  64.9322040  99.3878820
 115.7259510  63.9651060  98.2576250 108.9609240  49.5593970  91.9535620
 108.8323870  49.5511870  92.9020540 108.1371260  49.8977060  91.6026630
 116.6362150  62.7295010  97.4282850 117.2784380  62.0288170  97.5415020
 117.1611500  63.5093450  97.2479740 120.4817870  63.0143630  87.1521990
 120.2555450  62.2974070  87.7446630 120.0914070  62.7656070  86.3143740
 118.4099770  63.5289910 100.6318910 118.7456010  64.1156600 101.3096830
 117.4900110  63.3982620 100.8616700 106.2633900  67.0410490  87.9266450
 106.6231540  67.6399830  87.2723720 106.1226240  67.5870380  88.7001480
 105.9603170  51.3185090 101.4142320 105.2461690  51.5182010 102.0194930
 106.3798210  50.5424660 101.7857120 106.2475760  65.3065350 102.4008850
 106.3566880  64.3660090 102.2604240 105.5956320  65.5720100 101.7522580
 114.2388350  63.5781240 103.8006970 113.9185220  62.8590480 104.3452660
 113.5646710  64.2536310 103.8743030 107.8809160  59.6456580  89.4886880
 107.2737110  60.3855480  89.4982180 108.3558510  59.7355940  88.6625080
 120.8203980  52.7664340  89.9731330 120.1917140  52.8710010  89.2589560
 120.3255900  52.9861120  90.7625210 114.4143940  56.4646990  99.3881740
 114.9129190  56.9392810 100.0533590 114.5566890  55.5410510  99.5951770
 116.8203440  51.7700950  92.8285000 116.6971220  51.7887080  91.8794510
 117.7688000  51.8179890  92.9483400 113.9080230  67.0056250  92.1012980
 114.1621730  66.9677640  91.1792350 112.9592710  66.8789580  92.0941230
 108.5861210  57.0392800  87.9208340 108.6664800  56.0920310  88.0325740
 109.4780960  57.3699680  88.0269000 121.9158390  65.0956980  95.3525750
 122.0405810  65.9188150  95.8249560 122.7823950  64.8847710  95.0049900
 106.2721400  63.2561760  90.8984390 105.3461180  63.4982900  90.8889800
 106.7377830  64.0836020  90.7769140 117.2298830  62.4814130 104.1603870
 116.6236990  62.5045730 103.4199620 116.9252940  61.7497170 104.6971120
 118.6599200  66.2094420 102.7713280 119.6120950  66.1252440 102.7213520
 118.5127420  66.8736130 103.4447070 120.3093300  61.9984040 103.2475050
 121.0502770  62.3359800 102.7442510 119.5465980  62.1676100 102.6944820
 111.9233480  59.6032860  89.2118090 112.3449900  59.4372730  90.0549480
 112.0484320  58.7933090  88.7173230 114.4361120  58.6270470  86.4595190
 114.9566780  57.9119490  86.0936340 115.0829520  59.2656340  86.7595700
 118.9838960  60.0498870 101.7830260 119.3979980  60.2043950 102.6320680
 118.0489960  60.1754090 101.9456040 119.4561130  57.3895030 103.7869410
 120.0381900  56.6347350 103.6989890 119.6322900  57.9202470 103.0100890
 113.3394640  51.1065020  99.1313750 112.8911940  51.1289280  98.2859300
 112.7059840  50.7084040  99.7284050 113.7454190  60.0019350  99.7526190
 114.1642300  60.8452080  99.5802430 112.8262820  60.1391390  99.5232970
 116.0818090  57.7335530 101.1364030 116.2014300  57.1376670 101.8758870
 116.9412090  57.7705220 100.7165330 118.4205990  58.2872720  99.7126540
 117.8941210  58.8115340  99.1091680 118.7637330  58.9200110 100.3436270
 110.8192380  55.6766090  86.1576250 110.6181440  54.8133450  86.5189590
 110.6484430  55.5899450  85.2197850 118.2980690  50.4874320  88.6863130
 118.5782980  49.6442220  89.0422550 117.5246420  50.7197430  89.2001880
 109.6175180  52.7766710  86.1454130 109.9201080  52.7834140  85.2373280
 110.3569770  52.4264570  86.6421790 114.4523820  67.5423570 101.1270570
 114.3782520  68.4458710 101.4342940 113.5502660  67.2235470 101.0992640
 110.4513030  63.2007170  92.0906160 110.1508570  63.0772140  92.9910070
 110.3450520  62.3415760  91.6821890 121.9803500  65.2385750 101.4563130
 121.3805490  65.2978310 100.7127050 122.1097400  64.2990730 101.5859980
 123.2204950  62.9803570  86.7932840 122.3897910  63.0480220  87.2640070
 123.3976780  63.8707690  86.4899700 106.1765750  58.2488980  93.5274700
 105.5214590  57.9800620  92.8834400 107.0143700  58.1393460  93.0776680
 120.6655140  61.9637730  99.5539290 119.8514980  62.3934890  99.8165080
 121.0729340  62.5756140  98.9408340 122.7280580  60.0185420  86.4539560
 123.0029420  60.9264300  86.3258780 122.5391320  59.9547950  87.3901550
 119.1256190  53.0430270  87.7493190 119.5441070  52.8561250  86.9089850
 118.8192250  52.1909320  88.0596120 107.9331040  54.5153450  87.3794410
 108.6422740  54.0936670  86.8941690 107.2170980  54.5828680  86.7477760
 107.5805200  50.5692780  86.4197060 108.3033330  51.1101720  86.7378280
 107.8529720  50.2956200  85.5438600 121.3896850  55.4385250  90.6868640
 121.8855970  55.2056120  91.4717520 121.1912920  54.5997090  90.2706280
 107.2697390  49.8198970  96.3219680 107.9173580  49.2696350  95.8814840
 107.6899230  50.0742120  97.1435490 123.7812770  52.6764780  89.0869170
 122.9864270  52.6109900  89.6162080 123.9856050  53.6115420  89.0754520
 107.0229390  49.9754640  99.0645000 106.6744210  50.4318460  99.8303180
 106.6917090  49.0811770  99.1467430 108.6293760  63.1474240 103.2298190
 108.5863390  62.7767150 104.1112650 108.7604770  64.0851810 103.3700010
 114.5354210  51.1666520 102.5864420 114.4743100  51.7588350 103.3359830
 115.4754590  51.0592480 102.4414680 107.6950030  49.5030840 102.3395770
 108.2433020  49.3218890 101.5761880 107.7605340  48.7124950 102.8752080
 106.3824020  66.7769260  92.5100770 106.2146060  66.1439940  93.2082660
 105.5158530  66.9828660  92.1594960 118.0490830  49.3867760  94.2418010
 118.6520200  49.9587970  94.7166530 117.3083820  49.9507200  94.0191910
 121.1925430  49.7889320  89.5158290 121.3876060  50.6872770  89.7825720
 120.4055300  49.5576400  90.0091240 107.9886720  65.4702490  89.9550910
 107.4634340  65.8510520  89.2512870 107.9131300  66.0953260  90.6760620
 114.5106980  67.4864460 104.2790600 115.4374290  67.2508730 104.3226560
 114.4957410  68.3136460 103.7976630 110.5879690  67.4184870  88.8300160
 111.3198510  67.1344150  88.2824050 110.8473360  67.1798150  89.7199540
 109.7494480  63.5349600  88.8346490 109.1203360  64.0034700  89.3832320
 109.8642310  62.6898820  89.2692680 117.2044200  57.5855260  74.9847690
 117.1238250  56.6709870  74.7139400 116.7908620  58.0822330  74.2787400
 109.3528070  59.6754090  77.7432720 108.5212950  59.4202800  78.1429230
 109.9609050  59.7464860  78.4790640 119.3569670  63.7694470  75.6456090
 118.8951200  62.9981710  75.9743260 120.1695220  63.7960540  76.1508540
 107.7620020  54.6355980  71.5275110 106.8736720  54.9771950  71.4254990
 108.0461210  54.4356300  70.6355940 105.7253030  57.2361630  77.4114810
 106.2969140  56.4683830  77.4118450 105.7254570  57.5350390  76.5021420
 115.5832980  66.0552480  75.2660080 114.9644420  66.5109980  74.6954520
 116.4384760  66.2103940  74.8649780 106.9677900  52.6445990  79.1983740
 106.7880740  51.7471740  79.4786500 106.5657980  53.1917860  79.8730690
 107.5864570  55.1406490  77.8066080 108.2674680  55.4044860  78.4253480
 107.2712620  54.3007360  78.1404090 111.7789140  56.1873850  76.8938670
 112.2867360  56.6854820  77.5343690 112.3102380  55.4109050  76.7178030
 110.0625240  50.8272410  81.1602090 110.0643680  51.3444800  80.3547990
 109.2329550  50.3502590  81.1372020 116.4496330  60.9391720  72.6591990
 115.8313600  61.4041170  72.0954710 116.9619580  61.6319200  73.0761500
 109.7440570  52.5382370  79.1672540 110.0857380  53.3824420  78.8726410
 108.8056380  52.6866110  79.2837880 105.8179530  61.6248250  70.0331620
 105.4407510  62.1135350  69.3016520 106.0752600  62.2973530  70.6638150
 121.4424780  63.8987800  79.0679410 120.7588300  64.5686910  79.0596080
 121.9819070  64.0968450  78.3024270 118.9783520  65.7431930  77.7824590
 118.9910680  65.3394220  76.9146850 118.4258740  66.5179220  77.6786020
 120.2728940  62.4648150  72.8714760 120.1625270  61.5222480  72.9964180
 120.2697190  62.8263790  73.7577520 119.8446510  59.6533770  72.7312500
 119.2258930  59.3153320  72.0838800 119.8270960  59.0093530  73.4391690
 111.4205860  58.6178210  75.0096980 111.0162860  57.9055460  74.5142880
 111.5068980  58.2731450  75.8985020 111.8887560  62.3045770  77.1736190
 111.5915850  61.6991240  76.4943970 112.8387380  62.3423080  77.0625550
 110.1334480  55.3921420  78.7896020 110.6849070  55.5016760  78.0149270
 110.6477990  55.7659020  79.5051250 119.9773170  65.8777640  80.8359290
 119.5003730  66.6849830  80.6431900 119.2934960  65.2255970  80.9885500
 118.0211210  58.8920580  69.7385250 118.4604490  58.0543010  69.5923070
 118.7339630  59.5249980  69.8249390 116.1306590  63.8316650  73.7066490
 116.5702500  64.5740980  73.2921880 116.0693480  64.0743220  74.6305450
 121.6028350  50.1463390  68.0526290 121.2901010  50.2390220  68.9525360
 122.3640820  50.7244420  68.0023720 108.1210490  57.5123190  72.5103630
 108.0008090  58.2385280  71.8984900 107.8111380  56.7426100  72.0331540
 123.5572380  65.6389580  85.9050680 124.0332100  66.1172470  86.5839760
 124.1779540  65.5707070  85.1796180 105.7595860  60.6838330  78.3172270
 105.8376280  60.8187100  77.3727990 106.3737540  59.9754220  78.5100390
 107.0043490  62.3838520  74.7278450 106.5971570  62.5253110  73.8732050
 107.8956500  62.0998680  74.5249660 122.9605630  62.8302430  83.0650690
 123.0868690  62.5914310  82.1467870 123.0027010  61.9986970  83.5372770
 116.8222370  66.5330430  81.6345500 117.3367040  66.4438440  82.4367930
 115.9791450  66.8790130  81.9273410 118.7976770  66.8185770  71.0629500
 118.6377910  66.5288710  71.9611330 118.6323480  66.0425900  70.5274730
 111.2765150  66.5984300  72.8401120 111.1007630  65.6819840  72.6268920
 110.4220890  66.9571590  73.0798920 118.5002900  64.3273330  69.6227500
 117.8068060  64.3250620  68.9629780 119.2425760  63.9032650  69.1921670
 118.0652830  65.9536040  73.6975990 118.5209780  65.1725420  74.0114610
 118.4045350  66.6642860  74.2417170 105.8155380  61.7252500  80.8566730
 105.9786420  61.2557860  80.0386100 106.2807830  61.2176060  81.5215570
 114.8743960  53.7226780  81.4962620 114.4123330  53.9309800  82.3082560
 114.4722070  52.9086130  81.1933290 119.8748470  54.9435730  82.6259280
 119.0242060  54.6441480  82.9468350 119.7150260  55.1877740  81.7143100
 116.9698180  56.4437480  84.7258070 117.2951590  55.6101230  84.3860300
 117.7578510  56.9666000  84.8736400 110.3788370  55.9791830  73.6208550
 110.1529290  55.7629000  74.5255170 109.5980900  56.4120290  73.2754520
 112.8187580  56.8777410  84.2868820 112.7231180  55.9372140  84.1369220
 113.6619560  57.0992480  83.8916890 107.9498120  53.2891080  82.4402600
 107.5561510  54.1366290  82.6475380 107.2616520  52.6517450  82.6311240
 105.2515170  51.2119540  76.4732680 104.9628220  51.7822400  77.1857660
 105.9960930  50.7323990  76.8363910 105.4385400  55.1539660  67.6835400
 105.3560070  56.0970420  67.8250390 105.0868460  55.0114570  66.8047750
 109.0885910  53.7705180  75.7099960 108.7485960  54.2480410  76.4667010
 108.3263230  53.3170300  75.3501060 106.4031990  52.6924160  74.6264630
 106.1178910  52.3279830  75.4643250 106.3410850  51.9604620  74.0127770
 111.3290870  56.9889110  80.8155370 111.0247940  57.8681090  81.0405730
 112.2837330  57.0488900  80.8512810 109.8572660  61.1950100  71.4122220
 109.0834920  60.6547720  71.2520940 110.5867290  60.6756710  71.0739980
 109.9010060  60.8630480  75.0501030 110.4188730  60.0598740  74.9957920
 109.4494080  60.8009620  75.8917860 114.7879560  62.1296760  70.3228330
 115.1295260  62.8738990  69.8271650 113.9592270  62.4427880  70.6853160
 107.3854600  57.8291850  81.9626730 107.0269540  58.4945700  82.5500070
 107.0909160  56.9975400  82.3339350 121.0633240  57.2684910  69.1120020
 120.9796960  57.6999130  68.2616460 121.7827430  57.7283260  69.5446840
 122.1407380  59.7252430  82.1889990 121.4155570  60.3181210  81.9919380
 122.6682840  59.7175970  81.3903360 122.0920490  64.1227170  71.8402150
 121.4496650  63.4682790  72.1145870 121.7051150  64.5282260  71.0642820
 117.6706970  61.4512600  75.6873840 118.0230790  60.8540730  75.0275210
 116.7869300  61.1256830  75.8582090 113.7570250  62.2110290  73.0944250
 114.4441380  62.7579500  73.4751840 112.9702670  62.7551020  73.1293860
 105.8962650  57.8283110  68.5861330 106.7657500  58.1107910  68.8697250
 105.4052970  58.6418980  68.4710140 113.0597460  59.2156320  72.7069610
 113.5160240  60.0261570  72.9329800 112.7085670  58.8979460  73.5388100
 108.9609240  49.5593970  73.1792130 108.8323870  49.5511870  74.1277050
 108.1371260  49.8977060  72.8283140 120.4817870  63.0143630  68.3778500
 120.2555450  62.2974070  68.9703140 120.0914070  62.7656070  67.5400250
 118.4099770  63.5289910  81.8575420 118.7456010  64.1156600  82.5353340
 117.4900110  63.3982620  82.0873210 106.2633900  67.0410490  69.1522960
 106.6231540  67.6399830  68.4980230 106.1226240  67.5870380  69.9257990
 105.9603170  51.3185090  82.6398830 105.2461690  51.5182010  83.2451440
 106.3798210  50.5424660  83.0113630 120.0634120  60.9315570  70.0392660
 119.7755820  61.3928260  70.8270540 120.8586290  60.4713340  70.3076880
 106.2475760  65.3065350  83.6265360 106.3566880  64.3660090  83.4860750
 105.5956320  65.5720100  82.9779090 112.2802520  64.4241690  69.9696630
 112.2712620  65.1571380  69.3541140 111.3600880  64.1773270  70.0623590
 107.8809160  59.6456580  70.7143390 107.2737110  60.3855480  70.7238690
 108.3558510  59.7355940  69.8881590 117.4541950  53.8107400  80.3900280
 117.8222770  52.9902610  80.7179850 116.5940150  53.8709290  80.8055930
 115.2662120  64.4869930  68.6321820 115.3674100  64.2833920  67.7023800
 114.3663860  64.2328210  68.8369600 113.9080230  67.0056250  73.3269490
 114.1621730  66.9677640  72.4048860 112.9592710  66.8789580  73.3197740
 109.8914450  59.6067730  68.4631960 110.6577720  59.4949090  69.0257390
 109.9689140  58.9105700  67.8108730 106.2721400  63.2561760  72.1240900
 105.3461180  63.4982900  72.1146310 106.7377830  64.0836020  72.0025650
 112.4978230  66.3618500  68.0724960 113.2906840  66.6507330  67.6206750
 111.9782580  65.9310670  67.3937440 121.5508400  65.5888630  69.4961700
 121.2649910  65.1753770  68.6815880 121.3527950  66.5176340  69.3762220
 106.1132010  58.8607720  84.3821020 106.6171030  58.2815000  84.9537250
 105.3739430  59.1447950  84.9197390 113.0155630  61.5821910  67.9367310
 112.9106270  60.9674260  68.6628690 112.8479850  61.0587800  67.1530320
 116.2558360  60.6441940  68.5409300 115.7068460  61.0911240  69.1852040
 116.8777620  60.1391190  69.0646970 120.3093300  61.9984040  84.4731560
 121.0502770  62.3359800  83.9699020 119.5465980  62.1676100  83.9201330
 108.1455090  57.0037310  85.2771090 108.1860430  56.7051180  86.1856320
 109.0000590  57.4044920  85.1178610 110.0860900  55.5829410  83.2445580
 109.5557360  55.0920360  82.6168920 110.7548970  56.0113610  82.7103510
 118.9838960  60.0498870  83.0086770 119.3979980  60.2043950  83.8577190
 118.0489960  60.1754090  83.1712550 119.4561130  57.3895030  85.0125920
 120.0381900  56.6347350  84.9246400 119.6322900  57.9202470  84.2357400
 110.5733200  52.5491780  83.3242870 110.4790070  51.9312530  82.5993740
 109.9930590  53.2758070  83.0972780 112.8486860  54.2756880  83.6196360
 113.4386550  53.9672730  84.3074180 112.0307100  53.8036630  83.7756260
 117.6680290  53.8922690  83.8529380 116.9795810  53.2304230  83.7879370
 118.3886310  53.4460960  84.2977840 114.4523820  67.5423570  82.3527080
 114.3782520  68.4458710  82.6599450 113.5502660  67.2235470  82.3249150
 115.0009150  66.7082080  69.9753440 115.8959940  67.0467050  69.9972200
 115.0326780  65.9861490  69.3477720 108.6405310  62.0809130  68.2040440
 109.0780180  62.6238800  68.8598020 109.1253040  61.2556080  68.2136780
 110.4513030  63.2007170  73.3162670 110.1508570  63.0772140  74.2166580
 110.3450520  62.3415760  72.9078400 121.9803500  65.2385750  82.6819640
 121.3805490  65.2978310  81.9383560 122.1097400  64.2990730  82.8116490
 123.2204950  62.9803570  68.0189350 122.3897910  63.0480220  68.4896580
 123.3976780  63.8707690  67.7156210 122.6761410  59.7251050  70.5223550
 123.4380320  60.2947700  70.6283240 122.6915780  59.1578250  71.2931860
 106.1765750  58.2488980  74.7531210 105.5214590  57.9800620  74.1090910
 107.0143700  58.1393460  74.3033190 120.6655140  61.9637730  80.7795800
 119.8514980  62.3934890  81.0421590 121.0729340  62.5756140  80.1664850
 122.6245920  57.9554410  72.6725500 122.2489520  57.1882340  72.2406790
 121.8949040  58.3377110  73.1600430 107.2141680  58.6341550  79.2934550
 107.5814720  58.5468950  80.1730570 106.6452500  57.8708100  79.1941410
 106.7657680  55.5450640  83.1992970 105.8713730  55.5117400  83.5386680
 107.3055230  55.7437430  83.9644220 105.3903830  55.4587910  70.6956540
 104.4867910  55.7218110  70.5208200 105.8744450  55.7299080  69.9156500
 107.2697390  49.8198970  77.5476190 107.9173580  49.2696350  77.1071350
 107.6899230  50.0742120  78.3692000 122.8184010  54.0746200  74.4462830
 122.7083290  53.9202240  75.3845100 123.5791600  53.5467140  74.2038240
 123.7074280  51.9054120  67.6868970 124.6323590  51.7735300  67.4787260
 123.6850070  51.9846940  68.6405420 123.7812770  52.6764780  70.3125680
 122.9864270  52.6109900  70.8418590 123.9856050  53.6115420  70.3011030
 120.7231190  66.7156330  74.3064070 121.3190260  66.3940900  73.6298490
 120.9809340  66.2428150  75.0977340 107.0229390  49.9754640  80.2901510
 106.6744210  50.4318460  81.0559690 106.6917090  49.0811770  80.3723940
 123.5903950  66.7228210  80.8575060 123.0962230  67.1197080  80.1402190
 122.9817240  66.0977420  81.2512340 107.6950030  49.5030840  83.5652280
 108.2433020  49.3218890  82.8018390 107.7605340  48.7124950  84.1008590
 121.2743400  67.3651630  78.1361800 120.8146370  68.1167440  77.7619820
 120.6455860  66.6458100  78.0776600 111.7039120  65.6739870  77.3109930
 112.2204140  65.0627230  76.7858190 112.3536500  66.1768650  77.8020940
 114.4434620  66.5648360  78.1378910 114.7312430  66.3102660  77.2611920
 114.9557840  66.0125720  78.7284480 120.2132700  51.0061660  76.7624510
 120.6540790  50.9506760  75.9146110 119.9440290  51.9219670  76.8334690
 122.0771270  50.6376900  74.7733330 122.0159670  49.6938120  74.6264350
 122.8563300  50.7456990  75.3186790 106.3824020  66.7769260  73.7357280
 106.2146060  66.1439940  74.4339170 105.5158530  66.9828660  73.3851470
 118.0490830  49.3867760  75.4674520 118.6520200  49.9587970  75.9423040
 117.3083820  49.9507200  75.2448420 107.9886720  65.4702490  71.1807420
 107.4634340  65.8510520  70.4769380 107.9131300  66.0953260  71.9017130
 122.7452040  67.0290030  72.5021360 122.9204230  66.3427770  71.8582280
 122.0473610  67.5537080  72.1098030 110.5879690  67.4184870  70.0556670
 111.3198510  67.1344150  69.5080560 110.8473360  67.1798150  70.9456050
 109.7494480  63.5349600  70.0603000 109.1203360  64.0034700  70.6088830
 109.8642310  62.6898820  70.4949190 117.2044200  57.5855260  56.2104200
 117.1238250  56.6709870  55.9395910 116.7908620  58.0822330  55.5043910
 115.3362240  59.3634280  58.0913470 114.5604340  58.8834720  58.3812040
 115.9875170  58.6839930  57.9169630 109.3528070  59.6754090  58.9689230
 108.5212950  59.4202800  59.3685740 109.9609050  59.7464860  59.7047150
 119.3569670  63.7694470  56.8712600 118.8951200  62.9981710  57.1999770
 120.1695220  63.7960540  57.3765050 109.3329330  63.7094180  59.1647250
 109.6357370  62.8191920  58.9857470 110.0772920  64.2664400  58.9369500
 107.7620020  54.6355980  52.7531620 106.8736720  54.9771950  52.6511500
 108.0461210  54.4356300  51.8612450 105.7253030  57.2361630  58.6371320
 106.2969140  56.4683830  58.6374960 105.7254570  57.5350390  57.7277930
 115.5832980  66.0552480  56.4916590 114.9644420  66.5109980  55.9211030
 116.4384760  66.2103940  56.0906290 114.7771230  62.0391470  58.0983630
 114.7079510  61.0981410  57.9372760 115.5391090  62.1292880  58.6706200
 115.8076400  54.8461850  58.3252560 116.1841220  53.9733730  58.2126230
 115.7095910  55.1820550  57.4343000 109.9381410  53.2187480  53.7870000
 110.0448160  54.1191210  54.0938760 109.0273770  53.1705450  53.4964650
 119.5900520  52.3412290  55.2580900 120.4110140  51.8508860  55.3006380
 119.6234600  52.9309950  56.0112740 111.7789140  56.1873850  58.1195180
 112.2867360  56.6854820  58.7600200 112.3102380  55.4109050  57.9434540
 123.8800070  54.3579040  61.8224530 123.1752240  54.7460750  61.3039640
 124.1457990  55.0529330  62.4245460 116.4496330  60.9391720  53.8848500
 115.8313600  61.4041170  53.3211220 116.9619580  61.6319200  54.3018010
 119.8262000  54.2812670  58.0308440 119.1217570  54.5697560  58.6111550
 120.1874160  55.0912780  57.6708000 110.5247190  62.4348390  62.3781280
 111.1421190  63.1099470  62.0965730 109.6640310  62.8436370  62.2868780
 105.8179530  61.6248250  51.2588130 105.4407510  62.1135350  50.5273030
 106.0752600  62.2973530  51.8894660 121.4424780  63.8987800  60.2935920
 120.7588300  64.5686910  60.2852590 121.9819070  64.0968450  59.5280780
 122.8948920  53.7267460  58.4217650 121.9473830  53.7606440  58.5533080
 123.2198910  54.5406410  58.8067010 113.4268460  50.0264640  56.7173640
 113.7343440  49.4711530  56.0009140 112.4969160  50.1609100  56.5346630
 118.9783520  65.7431930  59.0081100 118.9910680  65.3394220  58.1403360
 118.4258740  66.5179220  58.9042530 120.2728940  62.4648150  54.0971270
 120.1625270  61.5222480  54.2220690 120.2697190  62.8263790  54.9834030
 118.3768960  60.6461770  60.3363710 118.7937750  60.4321880  59.5017170
 119.1008780  60.9034560  60.9072330 115.8149220  58.0913470  53.4533760
 114.8878500  58.0250850  53.6822230 115.9674040  59.0293600  53.3389000
 115.8018300  54.3630470  50.4500920 114.8621970  54.5244430  50.5353380
 116.1201560  55.0816150  49.9036910 122.3231060  59.0448990  60.4279950
 121.4949690  59.1142080  59.9530080 122.9181540  59.6303300  59.9595780
 119.8446510  59.6533770  53.9569010 119.2258930  59.3153320  53.3095310
 119.8270960  59.0093530  54.6648200 111.4205860  58.6178210  56.2353490
 111.0162860  57.9055460  55.7399390 111.5068980  58.2731450  57.1241530
 111.8887560  62.3045770  58.3992700 111.5915850  61.6991240  57.7200480
 112.8387380  62.3423080  58.2882060 110.1334480  55.3921420  60.0152530
 110.6849070  55.5016760  59.2405780 110.6477990  55.7659020  60.7307760
 119.9773170  65.8777640  62.0615800 119.5003730  66.6849830  61.8688410
 119.2934960  65.2255970  62.2142010 110.9805990  62.0427460  65.0500500
 110.0834520  62.2667430  65.2973900 111.0058860  62.1662400  64.1011900
 118.0211210  58.8920580  50.9641760 118.4604490  58.0543010  50.8179580
 118.7339630  59.5249980  51.0505900 116.1306590  63.8316650  54.9323000
 116.5702500  64.5740980  54.5178390 116.0693480  64.0743220  55.8561960
 111.6057560  64.8562480  65.8343020 111.5772990  65.2605430  64.9671450
 111.4422530  63.9272840  65.6714620 108.1210490  57.5123190  53.7360140
 108.0008090  58.2385280  53.1241410 107.8111380  56.7426100  53.2588050
 123.5572380  65.6389580  67.1307190 124.0332100  66.1172470  67.8096270
 124.1779540  65.5707070  66.4052690 105.7595860  60.6838330  59.5428780
 105.8376280  60.8187100  58.5984500 106.3737540  59.9754220  59.7356900
 107.0043490  62.3838520  55.9534960 106.5971570  62.5253110  55.0988560
 107.8956500  62.0998680  55.7506170 116.8222370  66.5330430  62.8602010
 117.3367040  66.4438440  63.6624440 115.9791450  66.8790130  63.1529920
 111.2765150  66.5984300  54.0657630 111.1007630  65.6819840  53.8525430
 110.4220890  66.9571590  54.3055430 118.0652830  65.9536040  54.9232500
 118.5209780  65.1725420  55.2371120 118.4045350  66.6642860  55.4673680
 105.8155380  61.7252500  62.0823240 105.9786420  61.2557860  61.2642610
 106.2807830  61.2176060  62.7472080 114.8743960  53.7226780  62.7219130
 114.4123330  53.9309800  63.5339070 114.4722070  52.9086130  62.4189800
 112.6250050  51.4005590  58.9773410 112.9222380  52.3068420  58.8965430
 113.1735610  50.9124370  58.3632980 110.3788370  55.9791830  54.8465060
 110.1529290  55.7629000  55.7511680 109.5980900  56.4120290  54.5011030
 117.6086130  55.9855200  53.4455710 117.0095020  56.7091000  53.2619330
 118.1565740  55.9231980  52.6632160 116.2151000  54.6218740  55.4758990
 116.6080570  54.9390940  54.6627680 116.5767850  53.7430620  55.5903510
 107.9498120  53.2891080  63.6659110 107.5561510  54.1366290  63.8731890
 107.2616520  52.6517450  63.8567750 114.5243170  53.3726050  66.7355850
 113.8341490  53.1798250  67.3701940 115.2675470  53.6560690  67.2680150
 105.4385400  55.1539660  48.9091910 105.3560070  56.0970420  49.0506900
 105.0868460  55.0114570  48.0304260 116.8006140  57.2124490  59.5709770
 116.0687260  57.7211300  59.9199870 116.4030480  56.3954470  59.2698550
 113.2383530  53.8878690  57.9762260 113.2419590  53.4468640  57.1266800
 114.1334650  54.2096020  58.0834080 113.3003680  54.8890770  50.9669020
 113.4216500  54.8477250  51.9154840 112.9152190  55.7514920  50.8115750
 117.2632050  52.6658170  58.9832710 117.2804790  53.1166820  59.8274560
 117.0147630  51.7663810  59.1966150 112.3125180  57.1991910  50.3652320
 111.7442080  56.7510160  49.7388230 113.0214180  57.5584690  49.8317470
 107.3894360  61.1003930  64.2419050 107.0049150  60.4597600  64.8402010
 107.7006550  61.8040050  64.8113780 109.8572660  61.1950100  52.6378730
 109.0834920  60.6547720  52.4777450 110.5867290  60.6756710  52.2996490
 120.6160640  60.1915460  58.4305120 121.3359760  60.6870750  58.0401230
 120.4142460  59.5133350  57.7858990 109.9010060  60.8630480  56.2757540
 110.4188730  60.0598740  56.2214430 109.4494080  60.8009620  57.1174370
 114.7879560  62.1296760  51.5484840 115.1295260  62.8738990  51.0528160
 113.9592270  62.4427880  51.9109670 107.3854600  57.8291850  63.1883240
 107.0269540  58.4945700  63.7756580 107.0909160  56.9975400  63.5595860
 115.9296170  63.0845090  64.0677920 115.9440710  62.1526050  63.8496830
 115.2221270  63.1704850  64.7067690 117.6706970  61.4512600  56.9130350
 118.0230790  60.8540730  56.2531720 116.7869300  61.1256830  57.0838600
 113.7570250  62.2110290  54.3200760 114.4441380  62.7579500  54.7008350
 112.9702670  62.7551020  54.3550370 105.8962650  57.8283110  49.8117840
 106.7657500  58.1107910  50.0953760 105.4052970  58.6418980  49.6966650
 113.0597460  59.2156320  53.9326120 113.5160240  60.0261570  54.1586310
 112.7085670  58.8979460  54.7644610 115.3630070  64.7262660  61.1618420
 116.0072290  64.9322040  61.8391840 115.7259510  63.9651060  60.7089270
 116.6362150  62.7295010  59.8795870 117.2784380  62.0288170  59.9928040
 117.1611500  63.5093450  59.6992760 118.4099770  63.5289910  63.0831930
 118.7456010  64.1156600  63.7609850 117.4900110  63.3982620  63.3129720
 105.9603170  51.3185090  63.8655340 105.2461690  51.5182010  64.4707950
 106.3798210  50.5424660  64.2370140 106.2475760  65.3065350  64.8521870
 106.3566880  64.3660090  64.7117260 105.5956320  65.5720100  64.2035600
 114.2388350  63.5781240  66.2519990 113.9185220  62.8590480  66.7965680
 113.5646710  64.2536310  66.3256050 112.2802520  64.4241690  51.1953140
 112.2712620  65.1571380  50.5797650 111.3600880  64.1773270  51.2880100
 107.8809160  59.6456580  51.9399900 107.2737110  60.3855480  51.9495200
 108.3558510  59.7355940  51.1138100 117.4541950  53.8107400  61.6156790
 117.8222770  52.9902610  61.9436360 116.5940150  53.8709290  62.0312440
 112.7888010  55.0450290  53.8402230 112.0804160  55.5136630  54.2815840
 113.0732490  54.3872300  54.4747420 116.8203440  51.7700950  55.2798020
 116.6971220  51.7887080  54.3307530 117.7688000  51.8179890  55.3996420
 113.9080230  67.0056250  54.5526000 114.1621730  66.9677640  53.6305370
 112.9592710  66.8789580  54.5454250 110.9923030  53.3535370  51.2152940
 111.8413560  53.7905520  51.1493130 110.6254300  53.6655630  52.0425000
 121.6210800  52.6814950  62.6823150 121.1184400  53.4220350  63.0216960
 122.4367460  53.0698950  62.3659940 119.9132810  57.9248130  56.1284510
 118.9722950  57.9398360  56.3032200 120.2276880  57.1384090  56.5744810
 109.8914450  59.6067730  49.6888470 110.6577720  59.4949090  50.2513900
 109.9689140  58.9105700  49.0365240 108.5861210  57.0392800  50.3721360
 108.6664800  56.0920310  50.4838760 109.4780960  57.3699680  50.4782020
 109.3875920  67.1888190  57.4755900 110.1238400  66.6403650  57.7464470
 109.7716840  68.0544200  57.3361890 106.2721400  63.2561760  53.3497410
 105.3461180  63.4982900  53.3402820 106.7377830  64.0836020  53.2282160
 108.3934200  66.3734260  66.6641480 109.1946930  66.6946310  67.0776880
 107.8786020  66.0129840  67.3861390 112.4978230  66.3618500  49.2981470
 113.2906840  66.6507330  48.8463260 111.9782580  65.9310670  48.6193950
 117.2298830  62.4814130  66.6116890 116.6236990  62.5045730  65.8712640
 116.9252940  61.7497170  67.1484140 118.6599200  66.2094420  65.2226300
 119.6120950  66.1252440  65.1726540 118.5127420  66.8736130  65.8960090
 106.1132010  58.8607720  65.6077530 106.6171030  58.2815000  66.1793760
 105.3739430  59.1447950  66.1453900 113.0155630  61.5821910  49.1623820
 112.9106270  60.9674260  49.8885200 112.8479850  61.0587800  48.3786830
 108.1455090  57.0037310  66.5027600 108.1860430  56.7051180  67.4112830
 109.0000590  57.4044920  66.3435120 111.9233480  59.6032860  51.6631110
 112.3449900  59.4372730  52.5062500 112.0484320  58.7933090  51.1686250
 114.4361120  58.6270470  48.9108210 114.9566780  57.9119490  48.5449360
 115.0829520  59.2656340  49.2108720 110.5733200  52.5491780  64.5499380
 110.4790070  51.9312530  63.8250250 109.9930590  53.2758070  64.3229290
 113.3394640  51.1065020  61.5826770 112.8911940  51.1289280  60.7372320
 112.7059840  50.7084040  62.1797070 110.8192380  55.6766090  48.6089270
 110.6181440  54.8133450  48.9702610 110.6484430  55.5899450  47.6710870
 111.5961610  66.3072360  63.3196940 111.0582700  67.0318420  63.0005640
 111.8495570  65.8302700  62.5294280 117.6680290  53.8922690  65.0785890
 116.9795810  53.2304230  65.0135880 118.3886310  53.4460960  65.5234350
 118.2980690  50.4874320  51.1376150 118.5782980  49.6442220  51.4935570
 117.5246420  50.7197430  51.6514900 109.6175180  52.7766710  48.5967150
 109.9201080  52.7834140  47.6886300 110.3569770  52.4264570  49.0934810
 108.6405310  62.0809130  49.4296950 109.0780180  62.6238800  50.0854530
 109.1253040  61.2556080  49.4393290 105.8551110  64.8698160  56.8817210
 106.1854120  64.0019220  56.6495850 106.2842110  65.0756680  57.7122170
 110.4513030  63.2007170  54.5419180 110.1508570  63.0772140  55.4423090
 110.3450520  62.3415760  54.1334910 106.3441320  65.7368750  59.6198840
 105.9072310  65.9169550  60.4522990 106.9119000  66.4943370  59.4780560
 121.9803500  65.2385750  63.9076150 121.3805490  65.2978310  63.1640070
 122.1097400  64.2990730  64.0373000 122.6761410  59.7251050  51.7480060
 123.4380320  60.2947700  51.8539750 122.6915780  59.1578250  52.5188370
 106.1765750  58.2488980  55.9787720 105.5214590  57.9800620  55.3347420
 107.0143700  58.1393460  55.5289700 123.6821380  60.5801150  56.5921990
 124.0530210  59.7968470  56.1857960 124.3223310  61.2690250  56.4139290
 120.6655140  61.9637730  62.0052310 119.8514980  62.3934890  62.2678100
 121.0729340  62.5756140  61.3921360 122.6245920  57.9554410  53.8982010
 122.2489520  57.1882340  53.4663300 121.8949040  58.3377110  54.3856940
 107.2141680  58.6341550  60.5191060 107.5814720  58.5468950  61.3987080
 106.6452500  57.8708100  60.4197920 106.7657680  55.5450640  64.4249480
 105.8713730  55.5117400  64.7643190 107.3055230  55.7437430  65.1900730
 120.4533610  52.3282360  66.3101230 121.3303790  52.3365760  66.6935230
 120.4654450  51.5913200  65.6993580 105.3903830  55.4587910  51.9213050
 104.4867910  55.7218110  51.7464710 105.8744450  55.7299080  51.1413010
 121.8996880  56.1811900  57.1989250 122.4234360  55.6874550  56.5679420
 122.4856300  56.3162260  57.9436820 122.0786600  56.2651770  60.7208800
 121.1289310  56.2315310  60.8353790 122.2599610  57.1751880  60.4858570
 107.9331040  54.5153450  49.8307430 108.6422740  54.0936670  49.3454710
 107.2170980  54.5828680  49.1990780 107.5805200  50.5692780  48.8710080
 108.3033330  51.1101720  49.1891300 107.8529720  50.2956200  47.9951620
 122.8184010  54.0746200  55.6719340 122.7083290  53.9202240  56.6101610
 123.5791600  53.5467140  55.4294750 120.7231190  66.7156330  55.5320580
 121.3190260  66.3940900  54.8555000 120.9809340  66.2428150  56.3233850
 108.6293760  63.1474240  65.6811210 108.5863390  62.7767150  66.5625670
 108.7604770  64.0851810  65.8213030 112.3299790  64.7033830  61.2820930
 112.0891150  64.9708390  60.3951450 113.2702430  64.8739560  61.3371790
 123.5903950  66.7228210  62.0831570 123.0962230  67.1197080  61.3658700
 122.9817240  66.0977420  62.4768850 107.6950030  49.5030840  64.7908790
 108.2433020  49.3218890  64.0274900 107.7605340  48.7124950  65.3265100
 108.4681790  66.0936490  62.8008990 107.8742110  65.9621190  63.5399030
 108.4605630  65.2574630  62.3351090 121.2743400  67.3651630  59.3618310
 120.8146370  68.1167440  58.9876330 120.6455860  66.6458100  59.3033110
 108.0994020  63.4594870  61.7517030 107.3728080  62.8400160  61.6842980
 108.1603170  63.8535480  60.8815110 111.7039120  65.6739870  58.5366440
 112.2204140  65.0627230  58.0114700 112.3536500  66.1768650  59.0277450
 114.4434620  66.5648360  59.3635420 114.7312430  66.3102660  58.4868430
 114.9557840  66.0125720  59.9540990 115.6611630  50.3038560  59.9431930
 114.8783420  50.7784060  60.2228690 115.3674560  49.3993390  59.8345110
 120.2132700  51.0061660  57.9881020 120.6540790  50.9506760  57.1402620
 119.9440290  51.9219670  58.0591200 122.0771270  50.6376900  55.9989840
 122.0159670  49.6938120  55.8520860 122.8563300  50.7456990  56.5443300
 106.3824020  66.7769260  54.9613790 106.2146060  66.1439940  55.6595680
 105.5158530  66.9828660  54.6107980 107.0052040  50.6086040  52.4645650
 107.7631400  50.7214920  51.8909680 106.5429210  51.4455240  52.4189080
 113.5465850  52.7225310  55.4547960 112.7340360  52.3482200  55.1143840
 114.0507490  51.9670390  55.7569150 118.0490830  49.3867760  56.6931030
 118.6520200  49.9587970  57.1679550 117.3083820  49.9507200  56.4704930
 121.1925430  49.7889320  51.9671310 121.3876060  50.6872770  52.2338740
 120.4055300  49.5576400  52.4604260 111.6970590  50.1509210  66.4945500
 111.4154860  50.6542810  65.7306320 112.0790290  49.3530960  66.1287630
 109.7494480  63.5349600  51.2859510 109.1203360  64.0034700  51.8345340
 109.8642310  62.6898820  51.7205700 121.0784540  66.7134320  66.5544660
 121.8709860  66.2183550  66.3470620 121.3717690  67.3924460  67.1620270
 117.2044200  57.5855260  37.4360710 117.1238250  56.6709870  37.1652420
 116.7908620  58.0822330  36.7300420 115.3362240  59.3634280  39.3169980
 114.5604340  58.8834720  39.6068550 115.9875170  58.6839930  39.1426140
 109.3528070  59.6754090  40.1945740 108.5212950  59.4202800  40.5942250
 109.9609050  59.7464860  40.9303660 109.3329330  63.7094180  40.3903760
 109.6357370  62.8191920  40.2113980 110.0772920  64.2664400  40.1626010
 107.7620020  54.6355980  33.9788130 106.8736720  54.9771950  33.8768010
 108.0461210  54.4356300  33.0868960 105.7253030  57.2361630  39.8627830
 106.2969140  56.4683830  39.8631470 105.7254570  57.5350390  38.9534440
 115.5832980  66.0552480  37.7173100 114.9644420  66.5109980  37.1467540
 116.4384760  66.2103940  37.3162800 114.7771230  62.0391470  39.3240140
 114.7079510  61.0981410  39.1629270 115.5391090  62.1292880  39.8962710
 106.9677900  52.6445990  41.6496760 106.7880740  51.7471740  41.9299520
 106.5657980  53.1917860  42.3243710 119.5900520  52.3412290  36.4837410
 120.4110140  51.8508860  36.5262890 119.6234600  52.9309950  37.2369250
 107.5864570  55.1406490  40.2579100 108.2674680  55.4044860  40.8766500
 107.2712620  54.3007360  40.5917110 110.0625240  50.8272410  43.6115110
 110.0643680  51.3444800  42.8061010 109.2329550  50.3502590  43.5885040
 116.4496330  60.9391720  35.1105010 115.8313600  61.4041170  34.5467730
 116.9619580  61.6319200  35.5274520 111.3128090  60.4667590  41.7888610
 110.9797470  61.0936510  42.4309680 111.4894770  60.9929470  41.0090280
 119.8262000  54.2812670  39.2564950 119.1217570  54.5697560  39.8368060
 120.1874160  55.0912780  38.8964510 109.7440570  52.5382370  41.6185560
 110.0857380  53.3824420  41.3239430 108.8056380  52.6866110  41.7350900
 110.5247190  62.4348390  43.6037790 111.1421190  63.1099470  43.3222240
 109.6640310  62.8436370  43.5125290 121.4424780  63.8987800  41.5192430
 120.7588300  64.5686910  41.5109100 121.9819070  64.0968450  40.7537290
 122.8948920  53.7267460  39.6474160 121.9473830  53.7606440  39.7789590
 123.2198910  54.5406410  40.0323520 113.4268460  50.0264640  37.9430150
 113.7343440  49.4711530  37.2265650 112.4969160  50.1609100  37.7603140
 118.9783520  65.7431930  40.2337610 118.9910680  65.3394220  39.3659870
 118.4258740  66.5179220  40.1299040 118.3768960  60.6461770  41.5620220
 118.7937750  60.4321880  40.7273680 119.1008780  60.9034560  42.1328840
 115.8149220  58.0913470  34.6790270 114.8878500  58.0250850  34.9078740
 115.9674040  59.0293600  34.5645510 115.8018300  54.3630470  31.6757430
 114.8621970  54.5244430  31.7609890 116.1201560  55.0816150  31.1293420
 122.3231060  59.0448990  41.6536460 121.4949690  59.1142080  41.1786590
 122.9181540  59.6303300  41.1852290 119.2873070  55.8318310  42.5991330
 118.8744250  56.6572020  42.8531320 118.5549020  55.2463350  42.4067690
 111.4205860  58.6178210  37.4610000 111.0162860  57.9055460  36.9655900
 111.5068980  58.2731450  38.3498040 111.8887560  62.3045770  39.6249210
 111.5915850  61.6991240  38.9456990 112.8387380  62.3423080  39.5138570
 119.9773170  65.8777640  43.2872310 119.5003730  66.6849830  43.0944920
 119.2934960  65.2255970  43.4398520 110.9805990  62.0427460  46.2757010
 110.0834520  62.2667430  46.5230410 111.0058860  62.1662400  45.3268410
 118.0211210  58.8920580  32.1898270 118.4604490  58.0543010  32.0436090
 118.7339630  59.5249980  32.2762410 109.8077210  58.9140780  44.8514380
 109.6684980  59.7863580  45.2201780 108.9258570  58.5713590  44.7062320
 116.1306590  63.8316650  36.1579510 116.5702500  64.5740980  35.7434900
 116.0693480  64.0743220  37.0818470 111.6057560  64.8562480  47.0599530
 111.5772990  65.2605430  46.1927960 111.4422530  63.9272840  46.8971130
 121.6028350  50.1463390  30.5039310 121.2901010  50.2390220  31.4038380
 122.3640820  50.7244420  30.4536740 108.1210490  57.5123190  34.9616650
 108.0008090  58.2385280  34.3497920 107.8111380  56.7426100  34.4844560
 105.7595860  60.6838330  40.7685290 105.8376280  60.8187100  39.8241010
 106.3737540  59.9754220  40.9613410 116.8222370  66.5330430  44.0858520
 117.3367040  66.4438440  44.8880950 115.9791450  66.8790130  44.3786430
 118.7976770  66.8185770  33.5142520 118.6377910  66.5288710  34.4124350
 118.6323480  66.0425900  32.9787750 111.2765150  66.5984300  35.2914140
 111.1007630  65.6819840  35.0781940 110.4220890  66.9571590  35.5311940
 118.5002900  64.3273330  32.0740520 117.8068060  64.3250620  31.4142800
 119.2425760  63.9032650  31.6434690 118.0652830  65.9536040  36.1489010
 118.5209780  65.1725420  36.4627630 118.4045350  66.6642860  36.6930190
 105.8155380  61.7252500  43.3079750 105.9786420  61.2557860  42.4899120
 106.2807830  61.2176060  43.9728590 117.6086130  55.9855200  34.6712220
 117.0095020  56.7091000  34.4875840 118.1565740  55.9231980  33.8888670
 112.8187580  56.8777410  46.7381840 112.7231180  55.9372140  46.5882240
 113.6619560  57.0992480  46.3429910 107.9498120  53.2891080  44.8915620
 107.5561510  54.1366290  45.0988400 107.2616520  52.6517450  45.0824260
 114.5243170  53.3726050  47.9612360 113.8341490  53.1798250  48.5958450
 115.2675470  53.6560690  48.4936660 105.2515170  51.2119540  38.9245700
 104.9628220  51.7822400  39.6370680 105.9960930  50.7323990  39.2876930
 105.4385400  55.1539660  30.1348420 105.3560070  56.0970420  30.2763410
 105.0868460  55.0114570  29.2560770 116.8006140  57.2124490  40.7966280
 116.0687260  57.7211300  41.1456380 116.4030480  56.3954470  40.4955060
 117.2632050  52.6658170  40.2089220 117.2804790  53.1166820  41.0531070
 117.0147630  51.7663810  40.4222660 112.3125180  57.1991910  31.5908830
 111.7442080  56.7510160  30.9644740 113.0214180  57.5584690  31.0573980
 107.3894360  61.1003930  45.4675560 107.0049150  60.4597600  46.0658520
 107.7006550  61.8040050  46.0370290 113.5391500  57.9480470  40.9484180
 113.9061630  57.4739040  41.6945520 113.3496560  58.8222040  41.2892520
 106.4031990  52.6924160  37.0777650 106.1178910  52.3279830  37.9156270
 106.3410850  51.9604620  36.4640790 111.3290870  56.9889110  43.2668390
 111.0247940  57.8681090  43.4918750 112.2837330  57.0488900  43.3025830
 109.8572660  61.1950100  33.8635240 109.0834920  60.6547720  33.7033960
 110.5867290  60.6756710  33.5253000 116.0770580  51.5853420  33.7991020
 115.2635190  51.0866590  33.7236330 115.8832530  52.4251670  33.3827370
 115.9979440  60.2624520  45.5430630 115.9316750  59.3420190  45.2888220
 115.3684580  60.3599960  46.2575270 118.7918970  55.9573070  32.0953180
 119.6798590  56.2690300  31.9204520 118.7624060  55.0845320  31.7033760
 109.9010060  60.8630480  37.5014050 110.4188730  60.0598740  37.4470940
 109.4494080  60.8009620  38.3430880 114.7879560  62.1296760  32.7741350
 115.1295260  62.8738990  32.2784670 113.9592270  62.4427880  33.1366180
 107.3854600  57.8291850  44.4139750 107.0269540  58.4945700  45.0013090
 107.0909160  56.9975400  44.7852370 110.5867720  58.2876090  47.2979300
 110.2867860  58.4333270  46.4007120 111.3578960  57.7281380  47.2052690
 115.9296170  63.0845090  45.2934430 115.9440710  62.1526050  45.0753340
 115.2221270  63.1704850  45.9324200 121.0633240  57.2684910  31.5633040
 120.9796960  57.6999130  30.7129480 121.7827430  57.7283260  31.9959860
 122.1407380  59.7252430  44.6403010 121.4155570  60.3181210  44.4432400
 122.6682840  59.7175970  43.8416380 113.7570250  62.2110290  35.5457270
 114.4441380  62.7579500  35.9264860 112.9702670  62.7551020  35.5806880
 113.0597460  59.2156320  35.1582630 113.5160240  60.0261570  35.3842820
 112.7085670  58.8979460  35.9901120 115.3630070  64.7262660  42.3874930
 116.0072290  64.9322040  43.0648350 115.7259510  63.9651060  41.9345780
 116.6362150  62.7295010  41.1052380 117.2784380  62.0288170  41.2184550
 117.1611500  63.5093450  40.9249270 120.4817870  63.0143630  30.8291520
 120.2555450  62.2974070  31.4216160 120.0914070  62.7656070  29.9913270
 118.4099770  63.5289910  44.3088440 118.7456010  64.1156600  44.9866360
 117.4900110  63.3982620  44.5386230 105.9603170  51.3185090  45.0911850
 105.2461690  51.5182010  45.6964460 106.3798210  50.5424660  45.4626650
 114.2388350  63.5781240  47.4776500 113.9185220  62.8590480  48.0222190
 113.5646710  64.2536310  47.5512560 112.2802520  64.4241690  32.4209650
 112.2712620  65.1571380  31.8054160 111.3600880  64.1773270  32.5136610
 107.8809160  59.6456580  33.1656410 107.2737110  60.3855480  33.1751710
 108.3558510  59.7355940  32.3394610 120.8203980  52.7664340  33.6500860
 120.1917140  52.8710010  32.9359090 120.3255900  52.9861120  34.4394740
 115.2662120  64.4869930  31.0834840 115.3674100  64.2833920  30.1536820
 114.3663860  64.2328210  31.2882620 114.4143940  56.4646990  43.0651270
 114.9129190  56.9392810  43.7303120 114.5566890  55.5410510  43.2721300
 113.9080230  67.0056250  35.7782510 114.1621730  66.9677640  34.8561880
 112.9592710  66.8789580  35.7710760 109.8914450  59.6067730  30.9144980
 110.6577720  59.4949090  31.4770410 109.9689140  58.9105700  30.2621750
 108.5861210  57.0392800  31.5977870 108.6664800  56.0920310  31.7095270
 109.4780960  57.3699680  31.7038530 109.3875920  67.1888190  38.7012410
 110.1238400  66.6403650  38.9720980 109.7716840  68.0544200  38.5618400
 121.5508400  65.5888630  31.9474720 121.2649910  65.1753770  31.1328900
 121.3527950  66.5176340  31.8275240 106.1132010  58.8607720  46.8334040
 106.6171030  58.2815000  47.4050270 105.3739430  59.1447950  47.3710410
 113.0155630  61.5821910  30.3880330 112.9106270  60.9674260  31.1141710
 112.8479850  61.0587800  29.6043340 113.1669950  60.2678710  46.3669560
 112.4015620  60.8363710  46.2824230 113.3485910  59.9754920  45.4737790
 116.2558360  60.6441940  30.9922320 115.7068460  61.0911240  31.6365060
 116.8777620  60.1391190  31.5159990 108.1455090  57.0037310  47.7284110
 108.1860430  56.7051180  48.6369340 109.0000590  57.4044920  47.5691630
 111.9233480  59.6032860  32.8887620 112.3449900  59.4372730  33.7319010
 112.0484320  58.7933090  32.3942760 110.0860900  55.5829410  45.6958600
 109.5557360  55.0920360  45.0681940 110.7548970  56.0113610  45.1616530
 114.4361120  58.6270470  30.1364720 114.9566780  57.9119490  29.7705870
 115.0829520  59.2656340  30.4365230 110.5733200  52.5491780  45.7755890
 110.4790070  51.9312530  45.0506760 109.9930590  53.2758070  45.5485800
 113.3394640  51.1065020  42.8083280 112.8911940  51.1289280  41.9628830
 112.7059840  50.7084040  43.4053580 113.7454190  60.0019350  43.4295720
 114.1642300  60.8452080  43.2571960 112.8262820  60.1391390  43.2002500
 116.0818090  57.7335530  44.8133560 116.2014300  57.1376670  45.5528400
 116.9412090  57.7705220  44.3934860 118.4205990  58.2872720  43.3896070
 117.8941210  58.8115340  42.7861210 118.7637330  58.9200110  44.0205800
 110.8192380  55.6766090  29.8345780 110.6181440  54.8133450  30.1959120
 110.6484430  55.5899450  28.8967380 111.5961610  66.3072360  44.5453450
 111.0582700  67.0318420  44.2262150 111.8495570  65.8302700  43.7550790
 112.8486860  54.2756880  46.0709380 113.4386550  53.9672730  46.7587200
 112.0307100  53.8036630  46.2269280 118.2980690  50.4874320  32.3632660
 118.5782980  49.6442220  32.7192080 117.5246420  50.7197430  32.8771410
 110.4513030  63.2007170  35.7675690 110.1508570  63.0772140  36.6679600
 110.3450520  62.3415760  35.3591420 106.3441320  65.7368750  40.8455350
 105.9072310  65.9169550  41.6779500 106.9119000  66.4943370  40.7037070
 123.2204950  62.9803570  30.4702370 122.3897910  63.0480220  30.9409600
 123.3976780  63.8707690  30.1669230 106.1765750  58.2488980  37.2044230
 105.5214590  57.9800620  36.5603930 107.0143700  58.1393460  36.7546210
 120.6655140  61.9637730  43.2308820 119.8514980  62.3934890  43.4934610
 121.0729340  62.5756140  42.6177870 122.7280580  60.0185420  30.1309090
 123.0029420  60.9264300  30.0028310 122.5391320  59.9547950  31.0671080
 119.1256190  53.0430270  31.4262720 119.5441070  52.8561250  30.5859380
 118.8192250  52.1909320  31.7365650 107.2141680  58.6341550  41.7447570
 107.5814720  58.5468950  42.6243590 106.6452500  57.8708100  41.6454430
 106.7657680  55.5450640  45.6505990 105.8713730  55.5117400  45.9899700
 107.3055230  55.7437430  46.4157240 121.8996880  56.1811900  38.4245760
 122.4234360  55.6874550  37.7935930 122.4856300  56.3162260  39.1693330
 122.0786600  56.2651770  41.9465310 121.1289310  56.2315310  42.0610300
 122.2599610  57.1751880  41.7115080 107.9331040  54.5153450  31.0563940
 108.6422740  54.0936670  30.5711220 107.2170980  54.5828680  30.4247290
 121.3896850  55.4385250  34.3638170 121.8855970  55.2056120  35.1487050
 121.1912920  54.5997090  33.9475810 107.2697390  49.8198970  39.9989210
 107.9173580  49.2696350  39.5584370 107.6899230  50.0742120  40.8205020
 122.8184010  54.0746200  36.8975850 122.7083290  53.9202240  37.8358120
 123.5791600  53.5467140  36.6551260 123.7074280  51.9054120  30.1381990
 124.6323590  51.7735300  29.9300280 123.6850070  51.9846940  31.0918440
 123.7812770  52.6764780  32.7638700 122.9864270  52.6109900  33.2931610
 123.9856050  53.6115420  32.7524050 120.7231190  66.7156330  36.7577090
 121.3190260  66.3940900  36.0811510 120.9809340  66.2428150  37.5490360
 107.0229390  49.9754640  42.7414530 106.6744210  50.4318460  43.5072710
 106.6917090  49.0811770  42.8236960 108.6293760  63.1474240  46.9067720
 108.5863390  62.7767150  47.7882180 108.7604770  64.0851810  47.0469540
 112.3299790  64.7033830  42.5077440 112.0891150  64.9708390  41.6207960
 113.2702430  64.8739560  42.5628300 114.5354210  51.1666520  46.2633950
 114.4743100  51.7588350  47.0129360 115.4754590  51.0592480  46.1184210
 107.6950030  49.5030840  46.0165300 108.2433020  49.3218890  45.2531410
 107.7605340  48.7124950  46.5521610 121.2743400  67.3651630  40.5874820
 120.8146370  68.1167440  40.2132840 120.6455860  66.6458100  40.5289620
 108.0994020  63.4594870  42.9773540 107.3728080  62.8400160  42.9099490
 108.1603170  63.8535480  42.1071620 111.7039120  65.6739870  39.7622950
 112.2204140  65.0627230  39.2371210 112.3536500  66.1768650  40.2533960
 114.4434620  66.5648360  40.5891930 114.7312430  66.3102660  39.7124940
 114.9557840  66.0125720  41.1797500 115.6611630  50.3038560  41.1688440
 114.8783420  50.7784060  41.4485200 115.3674560  49.3993390  41.0601620
 120.2132700  51.0061660  39.2137530 120.6540790  50.9506760  38.3659130
 119.9440290  51.9219670  39.2847710 122.0771270  50.6376900  37.2246350
 122.0159670  49.6938120  37.0777370 122.8563300  50.7456990  37.7699810
 118.0490830  49.3867760  37.9187540 118.6520200  49.9587970  38.3936060
 117.3083820  49.9507200  37.6961440 121.1925430  49.7889320  33.1927820
 121.3876060  50.6872770  33.4595250 120.4055300  49.5576400  33.6860770
 122.7452040  67.0290030  34.9534380 122.9204230  66.3427770  34.3095300
 122.0473610  67.5537080  34.5611050 111.6970590  50.1509210  47.7202010
 111.4154860  50.6542810  46.9562830 112.0790290  49.3530960  47.3544140
 117.2044200  57.5855260  18.6617220 117.1238250  56.6709870  18.3908930
 116.7908620  58.0822330  17.9556930 115.3362240  59.3634280  20.5426490
 114.5604340  58.8834720  20.8325060 115.9875170  58.6839930  20.3682650
 109.3528070  59.6754090  21.4202250 108.5212950  59.4202800  21.8198760
 109.9609050  59.7464860  22.1560170 119.3569670  63.7694470  19.3225620
 118.8951200  62.9981710  19.6512790 120.1695220  63.7960540  19.8278070
 109.3329330  63.7094180  21.6160270 109.6357370  62.8191920  21.4370490
 110.0772920  64.2664400  21.3882520 107.7620020  54.6355980  15.2044640
 106.8736720  54.9771950  15.1024520 108.0461210  54.4356300  14.3125470
 105.7253030  57.2361630  21.0884340 106.2969140  56.4683830  21.0887980
 105.7254570  57.5350390  20.1790950 115.5832980  66.0552480  18.9429610
 114.9644420  66.5109980  18.3724050 116.4384760  66.2103940  18.5419310
 114.7771230  62.0391470  20.5496650 114.7079510  61.0981410  20.3885780
 115.5391090  62.1292880  21.1219220 106.9677900  52.6445990  22.8753270
 106.7880740  51.7471740  23.1556030 106.5657980  53.1917860  23.5500220
 115.8076400  54.8461850  20.7765580 116.1841220  53.9733730  20.6639250
 115.7095910  55.1820550  19.8856020 109.9381410  53.2187480  16.2383020
 110.0448160  54.1191210  16.5451780 109.0273770  53.1705450  15.9477670
 119.5900520  52.3412290  17.7093920 120.4110140  51.8508860  17.7519400
 119.6234600  52.9309950  18.4625760 107.5864570  55.1406490  21.4835610
 108.2674680  55.4044860  22.1023010 107.2712620  54.3007360  21.8173620
 111.7789140  56.1873850  20.5708200 112.2867360  56.6854820  21.2113220
 112.3102380  55.4109050  20.3947560 123.8800070  54.3579040  24.2737550
 123.1752240  54.7460750  23.7552660 124.1457990  55.0529330  24.8758480
 110.0625240  50.8272410  24.8371620 110.0643680  51.3444800  24.0317520
 109.2329550  50.3502590  24.8141550 116.4496330  60.9391720  16.3361520
 115.8313600  61.4041170  15.7724240 116.9619580  61.6319200  16.7531030
 111.3128090  60.4667590  23.0145120 110.9797470  61.0936510  23.6566190
 111.4894770  60.9929470  22.2346790 119.8262000  54.2812670  20.4821460
 119.1217570  54.5697560  21.0624570 120.1874160  55.0912780  20.1221020
 109.7440570  52.5382370  22.8442070 110.0857380  53.3824420  22.5495940
 108.8056380  52.6866110  22.9607410 110.5247190  62.4348390  24.8294300
 111.1421190  63.1099470  24.5478750 109.6640310  62.8436370  24.7381800
 105.8179530  61.6248250  13.7101150 105.4407510  62.1135350  12.9786050
 106.0752600  62.2973530  14.3407680 121.4424780  63.8987800  22.7448940
 120.7588300  64.5686910  22.7365610 121.9819070  64.0968450  21.9793800
 122.8948920  53.7267460  20.8730670 121.9473830  53.7606440  21.0046100
 123.2198910  54.5406410  21.2580030 113.4268460  50.0264640  19.1686660
 113.7343440  49.4711530  18.4522160 112.4969160  50.1609100  18.9859650
 118.9783520  65.7431930  21.4594120 118.9910680  65.3394220  20.5916380
 118.4258740  66.5179220  21.3555550 120.2728940  62.4648150  16.5484290
 120.1625270  61.5222480  16.6733710 120.2697190  62.8263790  17.4347050
 118.3768960  60.6461770  22.7876730 118.7937750  60.4321880  21.9530190
 119.1008780  60.9034560  23.3585350 115.8149220  58.0913470  15.9046780
 114.8878500  58.0250850  16.1335250 115.9674040  59.0293600  15.7902020
 115.8018300  54.3630470  12.9013940 114.8621970  54.5244430  12.9866400
 116.1201560  55.0816150  12.3549930 122.3231060  59.0448990  22.8792970
 121.4949690  59.1142080  22.4043100 122.9181540  59.6303300  22.4108800
 119.8446510  59.6533770  16.4082030 119.2258930  59.3153320  15.7608330
 119.8270960  59.0093530  17.1161220 119.2873070  55.8318310  23.8247840
 118.8744250  56.6572020  24.0787830 118.5549020  55.2463350  23.6324200
 111.4205860  58.6178210  18.6866510 111.0162860  57.9055460  18.1912410
 111.5068980  58.2731450  19.5754550 111.8887560  62.3045770  20.8505720
 111.5915850  61.6991240  20.1713500 112.8387380  62.3423080  20.7395080
 110.1334480  55.3921420  22.4665550 110.6849070  55.5016760  21.6918800
 110.6477990  55.7659020  23.1820780 119.9773170  65.8777640  24.5128820
 119.5003730  66.6849830  24.3201430 119.2934960  65.2255970  24.6655030
 110.9805990  62.0427460  27.5013520 110.0834520  62.2667430  27.7486920
 111.0058860  62.1662400  26.5524920 118.0211210  58.8920580  13.4154780
 118.4604490  58.0543010  13.2692600 118.7339630  59.5249980  13.5018920
 109.8077210  58.9140780  26.0770890 109.6684980  59.7863580  26.4458290
 108.9258570  58.5713590  25.9318830 116.1306590  63.8316650  17.3836020
 116.5702500  64.5740980  16.9691410 116.0693480  64.0743220  18.3074980
 121.6028350  50.1463390  11.7295820 121.2901010  50.2390220  12.6294890
 122.3640820  50.7244420  11.6793250 108.1210490  57.5123190  16.1873160
 108.0008090  58.2385280  15.5754430 107.8111380  56.7426100  15.7101070
 123.5572380  65.6389580  29.5820210 124.0332100  66.1172470  30.2609290
 124.1779540  65.5707070  28.8565710 105.7595860  60.6838330  21.9941800
 105.8376280  60.8187100  21.0497520 106.3737540  59.9754220  22.1869920
 107.0043490  62.3838520  18.4047980 106.5971570  62.5253110  17.5501580
 107.8956500  62.0998680  18.2019190 122.9605630  62.8302430  26.7420220
 123.0868690  62.5914310  25.8237400 123.0027010  61.9986970  27.2142300
 116.8222370  66.5330430  25.3115030 117.3367040  66.4438440  26.1137460
 115.9791450  66.8790130  25.6042940 118.7976770  66.8185770  14.7399030
 118.6377910  66.5288710  15.6380860 118.6323480  66.0425900  14.2044260
 111.2765150  66.5984300  16.5170650 111.1007630  65.6819840  16.3038450
 110.4220890  66.9571590  16.7568450 118.5002900  64.3273330  13.2997030
 117.8068060  64.3250620  12.6399310 119.2425760  63.9032650  12.8691200
 118.0652830  65.9536040  17.3745520 118.5209780  65.1725420  17.6884140
 118.4045350  66.6642860  17.9186700 122.8129640  54.8834890  27.7069960
 122.1973910  55.3914560  27.1785420 122.4926060  53.9833220  27.6495900
 105.8155380  61.7252500  24.5336260 105.9786420  61.2557860  23.7155630
 106.2807830  61.2176060  25.1985100 110.5874150  50.8558260  19.5696830
 110.1442300  51.6367800  19.2381350 111.1459140  51.1788150  20.2767770
 114.8743960  53.7226780  25.1732150 114.4123330  53.9309800  25.9852090
 114.4722070  52.9086130  24.8702820 119.8748470  54.9435730  26.3028810
 119.0242060  54.6441480  26.6237880 119.7150260  55.1877740  25.3912630
 116.9698180  56.4437480  28.4027600 117.2951590  55.6101230  28.0629830
 117.7578510  56.9666000  28.5505930 113.7032970  50.4768960  14.4502660
 113.0787150  50.4728830  15.1755970 113.6163090  49.6099920  14.0538630
 112.6250050  51.4005590  21.4286430 112.9222380  52.3068420  21.3478450
 113.1735610  50.9124370  20.8146000 110.3788370  55.9791830  17.2978080
 110.1529290  55.7629000  18.2024700 109.5980900  56.4120290  16.9524050
 117.6086130  55.9855200  15.8968730 117.0095020  56.7091000  15.7132350
 118.1565740  55.9231980  15.1145180 112.8187580  56.8777410  27.9638350
 112.7231180  55.9372140  27.8138750 113.6619560  57.0992480  27.5686420
 116.2151000  54.6218740  17.9272010 116.6080570  54.9390940  17.1140700
 116.5767850  53.7430620  18.0416530 107.9498120  53.2891080  26.1172130
 107.5561510  54.1366290  26.3244910 107.2616520  52.6517450  26.3080770
 114.5243170  53.3726050  29.1868870 113.8341490  53.1798250  29.8214960
 115.2675470  53.6560690  29.7193170 105.2515170  51.2119540  20.1502210
 104.9628220  51.7822400  20.8627190 105.9960930  50.7323990  20.5133440
 105.4385400  55.1539660  11.3604930 105.3560070  56.0970420  11.5019920
 105.0868460  55.0114570  10.4817280 116.8006140  57.2124490  22.0222790
 116.0687260  57.7211300  22.3712890 116.4030480  56.3954470  21.7211570
 113.2383530  53.8878690  20.4275280 113.2419590  53.4468640  19.5779820
 114.1334650  54.2096020  20.5347100 109.0885910  53.7705180  19.3869490
 108.7485960  54.2480410  20.1436540 108.3263230  53.3170300  19.0270590
 113.3003680  54.8890770  13.4182040 113.4216500  54.8477250  14.3667860
 112.9152190  55.7514920  13.2628770 117.2632050  52.6658170  21.4345730
 117.2804790  53.1166820  22.2787580 117.0147630  51.7663810  21.6479170
 112.3125180  57.1991910  12.8165340 111.7442080  56.7510160  12.1901250
 113.0214180  57.5584690  12.2830490 120.6902800  50.0790350  27.2732110
 121.0148570  49.3480010  27.7990090 120.7259310  49.7603990  26.3713100
 107.3894360  61.1003930  26.6932070 107.0049150  60.4597600  27.2915030
 107.7006550  61.8040050  27.2626800 113.5391500  57.9480470  22.1740690
 113.9061630  57.4739040  22.9202030 113.3496560  58.8222040  22.5149030
 106.4031990  52.6924160  18.3034160 106.1178910  52.3279830  19.1412780
 106.3410850  51.9604620  17.6897300 111.3290870  56.9889110  24.4924900
 111.0247940  57.8681090  24.7175260 112.2837330  57.0488900  24.5282340
 109.8572660  61.1950100  15.0891750 109.0834920  60.6547720  14.9290470
 110.5867290  60.6756710  14.7509510 120.6160640  60.1915460  20.8818140
 121.3359760  60.6870750  20.4914250 120.4142460  59.5133350  20.2372010
 116.0770580  51.5853420  15.0247530 115.2635190  51.0866590  14.9492840
 115.8832530  52.4251670  14.6083880 115.9979440  60.2624520  26.7687140
 115.9316750  59.3420190  26.5144730 115.3684580  60.3599960  27.4831780
 118.7918970  55.9573070  13.3209690 119.6798590  56.2690300  13.1461030
 118.7624060  55.0845320  12.9290270 109.9010060  60.8630480  18.7270560
 110.4188730  60.0598740  18.6727450 109.4494080  60.8009620  19.5687390
 114.7879560  62.1296760  13.9997860 115.1295260  62.8738990  13.5041180
 113.9592270  62.4427880  14.3622690 107.3854600  57.8291850  25.6396260
 107.0269540  58.4945700  26.2269600 107.0909160  56.9975400  26.0108880
 110.5867720  58.2876090  28.5235810 110.2867860  58.4333270  27.6263630
 111.3578960  57.7281380  28.4309200 115.9296170  63.0845090  26.5190940
 115.9440710  62.1526050  26.3009850 115.2221270  63.1704850  27.1580710
 121.0633240  57.2684910  12.7889550 120.9796960  57.6999130  11.9385990
 121.7827430  57.7283260  13.2216370 122.1407380  59.7252430  25.8659520
 121.4155570  60.3181210  25.6688910 122.6682840  59.7175970  25.0672890
 122.0920490  64.1227170  15.5171680 121.4496650  63.4682790  15.7915400
 121.7051150  64.5282260  14.7412350 117.6706970  61.4512600  19.3643370
 118.0230790  60.8540730  18.7044740 116.7869300  61.1256830  19.5351620
 113.7570250  62.2110290  16.7713780 114.4441380  62.7579500  17.1521370
 112.9702670  62.7551020  16.8063390 105.8962650  57.8283110  12.2630860
 106.7657500  58.1107910  12.5466780 105.4052970  58.6418980  12.1479670
 113.0597460  59.2156320  16.3839140 113.5160240  60.0261570  16.6099330
 112.7085670  58.8979460  17.2157630 115.3630070  64.7262660  23.6131440
 116.0072290  64.9322040  24.2904860 115.7259510  63.9651060  23.1602290
 108.9609240  49.5593970  16.8561660 108.8323870  49.5511870  17.8046580
 108.1371260  49.8977060  16.5052670 116.6362150  62.7295010  22.3308890
 117.2784380  62.0288170  22.4441060 117.1611500  63.5093450  22.1505780
 120.4817870  63.0143630  12.0548030 120.2555450  62.2974070  12.6472670
 120.0914070  62.7656070  11.2169780 118.4099770  63.5289910  25.5344950
 118.7456010  64.1156600  26.2122870 117.4900110  63.3982620  25.7642740
 106.2633900  67.0410490  12.8292490 106.6231540  67.6399830  12.1749760
 106.1226240  67.5870380  13.6027520 105.9603170  51.3185090  26.3168360
 105.2461690  51.5182010  26.9220970 106.3798210  50.5424660  26.6883160
 120.0634120  60.9315570  13.7162190 119.7755820  61.3928260  14.5040070
 120.8586290  60.4713340  13.9846410 106.2475760  65.3065350  27.3034890
 106.3566880  64.3660090  27.1630280 105.5956320  65.5720100  26.6548620
 112.2802520  64.4241690  13.6466160 112.2712620  65.1571380  13.0310670
 111.3600880  64.1773270  13.7393120 107.8809160  59.6456580  14.3912920
 107.2737110  60.3855480  14.4008220 108.3558510  59.7355940  13.5651120
 117.4541950  53.8107400  24.0669810 117.8222770  52.9902610  24.3949380
 116.5940150  53.8709290  24.4825460 120.8203980  52.7664340  14.8757370
 120.1917140  52.8710010  14.1615600 120.3255900  52.9861120  15.6651250
 115.2662120  64.4869930  12.3091350 115.3674100  64.2833920  11.3793330
 114.3663860  64.2328210  12.5139130 112.7888010  55.0450290  16.2915250
 112.0804160  55.5136630  16.7328860 113.0732490  54.3872300  16.9260440
 114.4143940  56.4646990  24.2907780 114.9129190  56.9392810  24.9559630
 114.5566890  55.5410510  24.4977810 116.8203440  51.7700950  17.7311040
 116.6971220  51.7887080  16.7820550 117.7688000  51.8179890  17.8509440
 113.9080230  67.0056250  17.0039020 114.1621730  66.9677640  16.0818390
 112.9592710  66.8789580  16.9967270 110.9923030  53.3535370  13.6665960
 111.8413560  53.7905520  13.6006150 110.6254300  53.6655630  14.4938020
 121.6210800  52.6814950  25.1336170 121.1184400  53.4220350  25.4729980
 122.4367460  53.0698950  24.8172960 119.9132810  57.9248130  18.5797530
 118.9722950  57.9398360  18.7545220 120.2276880  57.1384090  19.0257830
 109.8914450  59.6067730  12.1401490 110.6577720  59.4949090  12.7026920
 109.9689140  58.9105700  11.4878260 108.5861210  57.0392800  12.8234380
 108.6664800  56.0920310  12.9351780 109.4780960  57.3699680  12.9295040
 121.9158390  65.0956980  20.2551790 122.0405810  65.9188150  20.7275600
 122.7823950  64.8847710  19.9075940 109.3875920  67.1888190  19.9268920
 110.1238400  66.6403650  20.1977490 109.7716840  68.0544200  19.7874910
 106.2721400  63.2561760  15.8010430 105.3461180  63.4982900  15.7915840
 106.7377830  64.0836020  15.6795180 112.4978230  66.3618500  11.7494490
 113.2906840  66.6507330  11.2976280 111.9782580  65.9310670  11.0706970
 117.2298830  62.4814130  29.0629910 116.6236990  62.5045730  28.3225660
 116.9252940  61.7497170  29.5997160 118.6599200  66.2094420  27.6739320
 119.6120950  66.1252440  27.6239560 118.5127420  66.8736130  28.3473110
 121.5508400  65.5888630  13.1731230 121.2649910  65.1753770  12.3585410
 121.3527950  66.5176340  13.0531750 106.1132010  58.8607720  28.0590550
 106.6171030  58.2815000  28.6306780 105.3739430  59.1447950  28.5966920
 113.0155630  61.5821910  11.6136840 112.9106270  60.9674260  12.3398220
 112.8479850  61.0587800  10.8299850 113.1669950  60.2678710  27.5926070
 112.4015620  60.8363710  27.5080740 113.3485910  59.9754920  26.6994300
 116.2558360  60.6441940  12.2178830 115.7068460  61.0911240  12.8621570
 116.8777620  60.1391190  12.7416500 120.3093300  61.9984040  28.1501090
 121.0502770  62.3359800  27.6468550 119.5465980  62.1676100  27.5970860
 108.1455090  57.0037310  28.9540620 108.1860430  56.7051180  29.8625850
 109.0000590  57.4044920  28.7948140 111.9233480  59.6032860  14.1144130
 112.3449900  59.4372730  14.9575520 112.0484320  58.7933090  13.6199270
 110.0860900  55.5829410  26.9215110 109.5557360  55.0920360  26.2938450
 110.7548970  56.0113610  26.3873040 114.4361120  58.6270470  11.3621230
 114.9566780  57.9119490  10.9962380 115.0829520  59.2656340  11.6621740
 118.9838960  60.0498870  26.6856300 119.3979980  60.2043950  27.5346720
 118.0489960  60.1754090  26.8482080 119.4561130  57.3895030  28.6895450
 120.0381900  56.6347350  28.6015930 119.6322900  57.9202470  27.9126930
 110.5733200  52.5491780  27.0012400 110.4790070  51.9312530  26.2763270
 109.9930590  53.2758070  26.7742310 113.3394640  51.1065020  24.0339790
 112.8911940  51.1289280  23.1885340 112.7059840  50.7084040  24.6310090
 113.7454190  60.0019350  24.6552230 114.1642300  60.8452080  24.4828470
 112.8262820  60.1391390  24.4259010 116.0818090  57.7335530  26.0390070
 116.2014300  57.1376670  26.7784910 116.9412090  57.7705220  25.6191370
 118.4205990  58.2872720  24.6152580 117.8941210  58.8115340  24.0117720
 118.7637330  58.9200110  25.2462310 110.8192380  55.6766090  11.0602290
 110.6181440  54.8133450  11.4215630 110.6484430  55.5899450  10.1223890
 112.8486860  54.2756880  27.2965890 113.4386550  53.9672730  27.9843710
 112.0307100  53.8036630  27.4525790 117.6680290  53.8922690  27.5298910
 116.9795810  53.2304230  27.4648900 118.3886310  53.4460960  27.9747370
 118.2980690  50.4874320  13.5889170 118.5782980  49.6442220  13.9448590
 117.5246420  50.7197430  14.1027920 109.6175180  52.7766710  11.0480170
 109.9201080  52.7834140  10.1399320 110.3569770  52.4264570  11.5447830
 112.8360110  51.7201330  12.0336370 112.4882110  51.0425320  11.4538820
 113.0372880  51.2590840  12.8479760 115.0009150  66.7082080  13.6522970
 115.8959940  67.0467050  13.6741730 115.0326780  65.9861490  13.0247250
 108.6405310  62.0809130  11.8809970 109.0780180  62.6238800  12.5367550
 109.1253040  61.2556080  11.8906310 105.8551110  64.8698160  19.3330230
 106.1854120  64.0019220  19.1008870 106.2842110  65.0756680  20.1635190
 110.4513030  63.2007170  16.9932200 110.1508570  63.0772140  17.8936110
 110.3450520  62.3415760  16.5847930 106.3441320  65.7368750  22.0711860
 105.9072310  65.9169550  22.9036010 106.9119000  66.4943370  21.9293580
 121.9803500  65.2385750  26.3589170 121.3805490  65.2978310  25.6153090
 122.1097400  64.2990730  26.4886020 123.2204950  62.9803570  11.6958880
 122.3897910  63.0480220  12.1666110 123.3976780  63.8707690  11.3925740
 122.6761410  59.7251050  14.1993080 123.4380320  60.2947700  14.3052770
 122.6915780  59.1578250  14.9701390 106.1765750  58.2488980  18.4300740
 105.5214590  57.9800620  17.7860440 107.0143700  58.1393460  17.9802720
 123.6821380  60.5801150  19.0435010 124.0530210  59.7968470  18.6370980
 124.3223310  61.2690250  18.8652310 120.6655140  61.9637730  24.4565330
 119.8514980  62.3934890  24.7191120 121.0729340  62.5756140  23.8434380
 122.7280580  60.0185420  11.3565600 123.0029420  60.9264300  11.2284820
 122.5391320  59.9547950  12.2927590 119.1256190  53.0430270  12.6519230
 119.5441070  52.8561250  11.8115890 118.8192250  52.1909320  12.9622160
 122.6245920  57.9554410  16.3495030 122.2489520  57.1882340  15.9176320
 121.8949040  58.3377110  16.8369960 107.2141680  58.6341550  22.9704080
 107.5814720  58.5468950  23.8500100 106.6452500  57.8708100  22.8710940
 122.0145540  57.1025930  25.9834550 121.7831630  56.8738680  25.0832500
 122.2750090  58.0225480  25.9379440 106.7657680  55.5450640  26.8762500
 105.8713730  55.5117400  27.2156210 107.3055230  55.7437430  27.6413750
 120.4533610  52.3282360  28.7614250 121.3303790  52.3365760  29.1448250
 120.4654450  51.5913200  28.1506600 105.3903830  55.4587910  14.3726070
 104.4867910  55.7218110  14.1977730 105.8744450  55.7299080  13.5926030
 121.8996880  56.1811900  19.6502270 122.4234360  55.6874550  19.0192440
 122.4856300  56.3162260  20.3949840 122.0786600  56.2651770  23.1721820
 121.1289310  56.2315310  23.2866810 122.2599610  57.1751880  22.9371590
 107.9331040  54.5153450  12.2820450 108.6422740  54.0936670  11.7967730
 107.2170980  54.5828680  11.6503800 107.5805200  50.5692780  11.3223100
 108.3033330  51.1101720  11.6404320 107.8529720  50.2956200  10.4464640
 121.3896850  55.4385250  15.5894680 121.8855970  55.2056120  16.3743560
 121.1912920  54.5997090  15.1732320 107.2697390  49.8198970  21.2245720
 107.9173580  49.2696350  20.7840880 107.6899230  50.0742120  22.0461530
 122.8184010  54.0746200  18.1232360 122.7083290  53.9202240  19.0614630
 123.5791600  53.5467140  17.8807770 121.1649730  50.0140330  24.5815360
 121.8021950  50.6274470  24.9474550 121.3124620  50.0500990  23.6364590
 123.7074280  51.9054120  11.3638500 124.6323590  51.7735300  11.1556790
 123.6850070  51.9846940  12.3174950 123.7812770  52.6764780  13.9895210
 122.9864270  52.6109900  14.5188120 123.9856050  53.6115420  13.9780560
 120.7231190  66.7156330  17.9833600 121.3190260  66.3940900  17.3068020
 120.9809340  66.2428150  18.7746870 107.0229390  49.9754640  23.9671040
 106.6744210  50.4318460  24.7329220 106.6917090  49.0811770  24.0493470
 108.6293760  63.1474240  28.1324230 108.5863390  62.7767150  29.0138690
 108.7604770  64.0851810  28.2726050 112.3299790  64.7033830  23.7333950
 112.0891150  64.9708390  22.8464470 113.2702430  64.8739560  23.7884810
 114.5354210  51.1666520  27.4890460 114.4743100  51.7588350  28.2385870
 115.4754590  51.0592480  27.3440720 117.1728770  50.8236580  27.1282750
 117.7869180  51.1415870  26.4663830 117.7178330  50.3385170  27.7478610
 123.5903950  66.7228210  24.5344590 123.0962230  67.1197080  23.8171720
 122.9817240  66.0977420  24.9281870 108.4681790  66.0936490  25.2522010
 107.8742110  65.9621190  25.9912050 108.4605630  65.2574630  24.7864110
 117.9136810  49.3868720  23.4552040 117.0396650  49.7203830  23.2524970
 117.8047560  48.9141900  24.2803910 118.8208790  51.5939590  24.8393760
 118.4922150  50.7791350  24.4595490 119.7691090  51.5509400  24.7159450
 121.2743400  67.3651630  21.8131330 120.8146370  68.1167440  21.4389350
 120.6455860  66.6458100  21.7546130 108.0994020  63.4594870  24.2030050
 107.3728080  62.8400160  24.1356000 108.1603170  63.8535480  23.3328130
 111.7039120  65.6739870  20.9879460 112.2204140  65.0627230  20.4627720
 112.3536500  66.1768650  21.4790470 114.4434620  66.5648360  21.8148440
 114.7312430  66.3102660  20.9381450 114.9557840  66.0125720  22.4054010
 115.6611630  50.3038560  22.3944950 114.8783420  50.7784060  22.6741710
 115.3674560  49.3993390  22.2858130 120.2132700  51.0061660  20.4394040
 120.6540790  50.9506760  19.5915640 119.9440290  51.9219670  20.5104220
 122.0771270  50.6376900  18.4502860 122.0159670  49.6938120  18.3033880
 122.8563300  50.7456990  18.9956320 106.3824020  66.7769260  17.4126810
 106.2146060  66.1439940  18.1108700 105.5158530  66.9828660  17.0621000
 107.0052040  50.6086040  14.9158670 107.7631400  50.7214920  14.3422700
 106.5429210  51.4455240  14.8702100 113.5465850  52.7225310  17.9060980
 112.7340360  52.3482200  17.5656860 114.0507490  51.9670390  18.2082170
 118.0490830  49.3867760  19.1444050 118.6520200  49.9587970  19.6192570
 117.3083820  49.9507200  18.9217950 121.1925430  49.7889320  14.4184330
 121.3876060  50.6872770  14.6851760 120.4055300  49.5576400  14.9117280
 107.9886720  65.4702490  14.8576950 107.4634340  65.8510520  14.1538910
 107.9131300  66.0953260  15.5786660 109.3777190  51.1350090  13.4560640
 109.9069950  50.3479890  13.3268590 110.0105510  51.8141280  13.6896170
 111.5715030  50.8725230  16.5106030 110.9417770  50.1712540  16.6776160
 111.0320170  51.6329360  16.2939190 122.7452040  67.0290030  16.1790890
 122.9204230  66.3427770  15.5351810 122.0473610  67.5537080  15.7867560
 110.5879690  67.4184870  13.7326200 111.3198510  67.1344150  13.1850090
 110.8473360  67.1798150  14.6225580 109.7494480  63.5349600  13.7372530
 109.1203360  64.0034700  14.2858360 109.8642310  62.6898820  14.1718720
 118.2986050  49.5662790  29.5238990 118.1851500  49.8857400  30.4190510
 119.1155790  49.9675300  29.2276270 121.0784540  66.7134320  29.0057680
 121.8709860  66.2183550  28.7983640 121.3717690  67.3924460  29.6133290
 115.3362240  59.3634280   1.7683000 114.5604340  58.8834720   2.0581570
 115.9875170  58.6839930   1.5939160 109.3528070  59.6754090   2.6458760
 108.5212950  59.4202800   3.0455270 109.9609050  59.7464860   3.3816680
 109.3329330  63.7094180   2.8416780 109.6357370  62.8191920   2.6627000
 110.0772920  64.2664400   2.6139030 114.7771230  62.0391470   1.7753160
 114.7079510  61.0981410   1.6142290 115.5391090  62.1292880   2.3475730
 106.9677900  52.6445990   4.1009780 106.7880740  51.7471740   4.3812540
 106.5657980  53.1917860   4.7756730 107.5864570  55.1406490   2.7092120
 108.2674680  55.4044860   3.3279520 107.2712620  54.3007360   3.0430130
 111.7789140  56.1873850   1.7964710 112.2867360  56.6854820   2.4369730
 112.3102380  55.4109050   1.6204070 123.8800070  54.3579040   5.4994060
 123.1752240  54.7460750   4.9809170 124.1457990  55.0529330   6.1014990
 110.0625240  50.8272410   6.0628130 110.0643680  51.3444800   5.2574030
 109.2329550  50.3502590   6.0398060 111.3128090  60.4667590   4.2401630
 110.9797470  61.0936510   4.8822700 111.4894770  60.9929470   3.4603300
 109.7440570  52.5382370   4.0698580 110.0857380  53.3824420   3.7752450
 108.8056380  52.6866110   4.1863920 110.5247190  62.4348390   6.0550810
 111.1421190  63.1099470   5.7735260 109.6640310  62.8436370   5.9638310
 121.4424780  63.8987800   3.9705450 120.7588300  64.5686910   3.9622120
 121.9819070  64.0968450   3.2050310 122.8948920  53.7267460   2.0987180
 121.9473830  53.7606440   2.2302610 123.2198910  54.5406410   2.4836540
 118.9783520  65.7431930   2.6850630 118.9910680  65.3394220   1.8172890
 118.4258740  66.5179220   2.5812060 118.3768960  60.6461770   4.0133240
 118.7937750  60.4321880   3.1786700 119.1008780  60.9034560   4.5841860
 122.3231060  59.0448990   4.1049480 121.4949690  59.1142080   3.6299610
 122.9181540  59.6303300   3.6365310 119.2873070  55.8318310   5.0504350
 118.8744250  56.6572020   5.3044340 118.5549020  55.2463350   4.8580710
 110.1334480  55.3921420   3.6922060 110.6849070  55.5016760   2.9175310
 110.6477990  55.7659020   4.4077290 119.9773170  65.8777640   5.7385330
 119.5003730  66.6849830   5.5457940 119.2934960  65.2255970   5.8911540
 110.9805990  62.0427460   8.7270030 110.0834520  62.2667430   8.9743430
 111.0058860  62.1662400   7.7781430 109.8077210  58.9140780   7.3027400
 109.6684980  59.7863580   7.6714800 108.9258570  58.5713590   7.1575340
 111.6057560  64.8562480   9.5112550 111.5772990  65.2605430   8.6440980
 111.4422530  63.9272840   9.3484150 123.5572380  65.6389580  10.8076720
 124.0332100  66.1172470  11.4865800 124.1779540  65.5707070  10.0822220
 105.7595860  60.6838330   3.2198310 105.8376280  60.8187100   2.2754030
 106.3737540  59.9754220   3.4126430 122.9605630  62.8302430   7.9676730
 123.0868690  62.5914310   7.0493910 123.0027010  61.9986970   8.4398810
 116.8222370  66.5330430   6.5371540 117.3367040  66.4438440   7.3393970
 115.9791450  66.8790130   6.8299450 122.8129640  54.8834890   8.9326470
 122.1973910  55.3914560   8.4041930 122.4926060  53.9833220   8.8752410
 105.8155380  61.7252500   5.7592770 105.9786420  61.2557860   4.9412140
 106.2807830  61.2176060   6.4241610 114.8743960  53.7226780   6.3988660
 114.4123330  53.9309800   7.2108600 114.4722070  52.9086130   6.0959330
 119.8748470  54.9435730   7.5285320 119.0242060  54.6441480   7.8494390
 119.7150260  55.1877740   6.6169140 116.9698180  56.4437480   9.6284110
 117.2951590  55.6101230   9.2886340 117.7578510  56.9666000   9.7762440
 112.6250050  51.4005590   2.6542940 112.9222380  52.3068420   2.5734960
 113.1735610  50.9124370   2.0402510 112.8187580  56.8777410   9.1894860
 112.7231180  55.9372140   9.0395260 113.6619560  57.0992480   8.7942930
 107.9498120  53.2891080   7.3428640 107.5561510  54.1366290   7.5501420
 107.2616520  52.6517450   7.5337280 114.5243170  53.3726050  10.4125380
 113.8341490  53.1798250  11.0471470 115.2675470  53.6560690  10.9449680
 116.8006140  57.2124490   3.2479300 116.0687260  57.7211300   3.5969400
 116.4030480  56.3954470   2.9468080 117.2632050  52.6658170   2.6602240
 117.2804790  53.1166820   3.5044090 117.0147630  51.7663810   2.8735680
 120.6902800  50.0790350   8.4988620 121.0148570  49.3480010   9.0246600
 120.7259310  49.7603990   7.5969610 107.3894360  61.1003930   7.9188580
 107.0049150  60.4597600   8.5171540 107.7006550  61.8040050   8.4883310
 113.5391500  57.9480470   3.3997200 113.9061630  57.4739040   4.1458540
 113.3496560  58.8222040   3.7405540 111.3290870  56.9889110   5.7181410
 111.0247940  57.8681090   5.9431770 112.2837330  57.0488900   5.7538850
 120.6160640  60.1915460   2.1074650 121.3359760  60.6870750   1.7170760
 120.4142460  59.5133350   1.4628520 115.9979440  60.2624520   7.9943650
 115.9316750  59.3420190   7.7401240 115.3684580  60.3599960   8.7088290
 107.3854600  57.8291850   6.8652770 107.0269540  58.4945700   7.4526110
 107.0909160  56.9975400   7.2365390 110.5867720  58.2876090   9.7492320
 110.2867860  58.4333270   8.8520140 111.3578960  57.7281380   9.6565710
 115.9296170  63.0845090   7.7447450 115.9440710  62.1526050   7.5266360
 115.2221270  63.1704850   8.3837220 122.1407380  59.7252430   7.0916030
 121.4155570  60.3181210   6.8945420 122.6682840  59.7175970   6.2929400
 115.3630070  64.7262660   4.8387950 116.0072290  64.9322040   5.5161370
 115.7259510  63.9651060   4.3858800 116.6362150  62.7295010   3.5565400
 117.2784380  62.0288170   3.6697570 117.1611500  63.5093450   3.3762290
 118.4099770  63.5289910   6.7601460 118.7456010  64.1156600   7.4379380
 117.4900110  63.3982620   6.9899250 105.9603170  51.3185090   7.5424870
 105.2461690  51.5182010   8.1477480 106.3798210  50.5424660   7.9139670
 106.2475760  65.3065350   8.5291400 106.3566880  64.3660090   8.3886790
 105.5956320  65.5720100   7.8805130 114.2388350  63.5781240   9.9289520
 113.9185220  62.8590480  10.4735210 113.5646710  64.2536310  10.0025580
 117.4541950  53.8107400   5.2926320 117.8222770  52.9902610   5.6205890
 116.5940150  53.8709290   5.7081970 114.4143940  56.4646990   5.5164290
 114.9129190  56.9392810   6.1816140 114.5566890  55.5410510   5.7234320
 121.6210800  52.6814950   6.3592680 121.1184400  53.4220350   6.6986490
 122.4367460  53.0698950   6.0429470 108.3934200  66.3734260  10.3411010
 109.1946930  66.6946310  10.7546410 107.8786020  66.0129840  11.0630920
 117.2298830  62.4814130  10.2886420 116.6236990  62.5045730   9.5482170
 116.9252940  61.7497170  10.8253670 118.6599200  66.2094420   8.8995830
 119.6120950  66.1252440   8.8496070 118.5127420  66.8736130   9.5729620
 106.1132010  58.8607720   9.2847060 106.6171030  58.2815000   9.8563290
 105.3739430  59.1447950   9.8223430 113.1669950  60.2678710   8.8182580
 112.4015620  60.8363710   8.7337250 113.3485910  59.9754920   7.9250810
 120.3093300  61.9984040   9.3757600 121.0502770  62.3359800   8.8725060
 119.5465980  62.1676100   8.8227370 108.1455090  57.0037310  10.1797130
 108.1860430  56.7051180  11.0882360 109.0000590  57.4044920  10.0204650
 110.0860900  55.5829410   8.1471620 109.5557360  55.0920360   7.5194960
 110.7548970  56.0113610   7.6129550 118.9838960  60.0498870   7.9112810
 119.3979980  60.2043950   8.7603230 118.0489960  60.1754090   8.0738590
 119.4561130  57.3895030   9.9151960 120.0381900  56.6347350   9.8272440
 119.6322900  57.9202470   9.1383440 110.5733200  52.5491780   8.2268910
 110.4790070  51.9312530   7.5019780 109.9930590  53.2758070   7.9998820
 113.3394640  51.1065020   5.2596300 112.8911940  51.1289280   4.4141850
 112.7059840  50.7084040   5.8566600 113.7454190  60.0019350   5.8808740
 114.1642300  60.8452080   5.7084980 112.8262820  60.1391390   5.6515520
 116.0818090  57.7335530   7.2646580 116.2014300  57.1376670   8.0041420
 116.9412090  57.7705220   6.8447880 118.4205990  58.2872720   5.8409090
 117.8941210  58.8115340   5.2374230 118.7637330  58.9200110   6.4718820
 111.5961610  66.3072360   6.9966470 111.0582700  67.0318420   6.6775170
 111.8495570  65.8302700   6.2063810 112.8486860  54.2756880   8.5222400
 113.4386550  53.9672730   9.2100220 112.0307100  53.8036630   8.6782300
 117.6680290  53.8922690   8.7555420 116.9795810  53.2304230   8.6905410
 118.3886310  53.4460960   9.2003880 114.4523820  67.5423570   7.2553120
 114.3782520  68.4458710   7.5625490 113.5502660  67.2235470   7.2275190
 106.3441320  65.7368750   3.2968370 105.9072310  65.9169550   4.1292520
 106.9119000  66.4943370   3.1550090 121.9803500  65.2385750   7.5845680
 121.3805490  65.2978310   6.8409600 122.1097400  64.2990730   7.7142530
 120.6655140  61.9637730   5.6821840 119.8514980  62.3934890   5.9447630
 121.0729340  62.5756140   5.0690890 107.2141680  58.6341550   4.1960590
 107.5814720  58.5468950   5.0756610 106.6452500  57.8708100   4.0967450
 122.0145540  57.1025930   7.2091060 121.7831630  56.8738680   6.3089010
 122.2750090  58.0225480   7.1635950 106.7657680  55.5450640   8.1019010
 105.8713730  55.5117400   8.4412720 107.3055230  55.7437430   8.8670260
 120.4533610  52.3282360   9.9870760 121.3303790  52.3365760  10.3704760
 120.4654450  51.5913200   9.3763110 122.0786600  56.2651770   4.3978330
 121.1289310  56.2315310   4.5123320 122.2599610  57.1751880   4.1628100
 107.2697390  49.8198970   2.4502230 107.9173580  49.2696350   2.0097390
 107.6899230  50.0742120   3.2718040 121.1649730  50.0140330   5.8071870
 121.8021950  50.6274470   6.1731060 121.3124620  50.0500990   4.8621100
 107.0229390  49.9754640   5.1927550 106.6744210  50.4318460   5.9585730
 106.6917090  49.0811770   5.2749980 108.6293760  63.1474240   9.3580740
 108.5863390  62.7767150  10.2395200 108.7604770  64.0851810   9.4982560
 112.3299790  64.7033830   4.9590460 112.0891150  64.9708390   4.0720980
 113.2702430  64.8739560   5.0141320 114.5354210  51.1666520   8.7146970
 114.4743100  51.7588350   9.4642380 115.4754590  51.0592480   8.5697230
 117.1728770  50.8236580   8.3539260 117.7869180  51.1415870   7.6920340
 117.7178330  50.3385170   8.9735120 123.5903950  66.7228210   5.7601100
 123.0962230  67.1197080   5.0428230 122.9817240  66.0977420   6.1538380
 107.6950030  49.5030840   8.4678320 108.2433020  49.3218890   7.7044430
 107.7605340  48.7124950   9.0034630 108.4681790  66.0936490   6.4778520
 107.8742110  65.9621190   7.2168560 108.4605630  65.2574630   6.0120620
 117.9136810  49.3868720   4.6808550 117.0396650  49.7203830   4.4781480
 117.8047560  48.9141900   5.5060420 118.8208790  51.5939590   6.0650270
 118.4922150  50.7791350   5.6852000 119.7691090  51.5509400   5.9415960
 121.2743400  67.3651630   3.0387840 120.8146370  68.1167440   2.6645860
 120.6455860  66.6458100   2.9802640 108.0994020  63.4594870   5.4286560
 107.3728080  62.8400160   5.3612510 108.1603170  63.8535480   4.5584640
 111.7039120  65.6739870   2.2135970 112.2204140  65.0627230   1.6884230
 112.3536500  66.1768650   2.7046980 114.4434620  66.5648360   3.0404950
 114.7312430  66.3102660   2.1637960 114.9557840  66.0125720   3.6310520
 115.6611630  50.3038560   3.6201460 114.8783420  50.7784060   3.8998220
 115.3674560  49.3993390   3.5114640 114.5106980  67.4864460  10.4073150
 115.4374290  67.2508730  10.4509110 114.4957410  68.3136460   9.9259180
 111.6970590  50.1509210  10.1715030 111.4154860  50.6542810   9.4075850
 112.0790290  49.3530960   9.8057160 118.2986050  49.5662790  10.7495500
 118.1851500  49.8857400  11.6447020 119.1155790  49.9675300  10.4532780
 121.0784540  66.7134320  10.2314190 121.8709860  66.2183550  10.0240150
 121.3717690  67.3924460  10.8389800 117.2044200  38.8111770 150.0821650
 117.1238250  37.8966380 149.8113360 116.7908620  39.3078840 149.3761360
 119.3569670  44.9950980 150.7430050 118.8951200  44.2238220 151.0717220
 120.1695220  45.0217050 151.2482500 107.7620020  35.8612490 146.6249070
 106.8736720  36.2028460 146.5228950 108.0461210  35.6612810 145.7329900
 115.5832980  47.2808990 150.3634040 114.9644420  47.7366490 149.7928480
 116.4384760  47.4360450 149.9623740 109.9381410  34.4443990 147.6587450
 110.0448160  35.3447720 147.9656210 109.0273770  34.3961960 147.3682100
 119.5900520  33.5668800 149.1298350 120.4110140  33.0765370 149.1723830
 119.6234600  34.1566460 149.8830190 116.4496330  42.1648230 147.7565950
 115.8313600  42.6297680 147.1928670 116.9619580  42.8575710 148.1735460
 105.8179530  42.8504760 145.1305580 105.4407510  43.3391860 144.3990480
 106.0752600  43.5230040 145.7612110 113.4268460  31.2521150 150.5891090
 113.7343440  30.6968040 149.8726590 112.4969160  31.3865610 150.4064080
 120.2728940  43.6904660 147.9688720 120.1625270  42.7478990 148.0938140
 120.2697190  44.0520300 148.8551480 115.8149220  39.3169980 147.3251210
 114.8878500  39.2507360 147.5539680 115.9674040  40.2550110 147.2106450
 115.8018300  35.5886980 144.3218370 114.8621970  35.7500940 144.4070830
 116.1201560  36.3072660 143.7754360 119.8446510  40.8790280 147.8286460
 119.2258930  40.5409830 147.1812760 119.8270960  40.2350040 148.5365650
 111.4205860  39.8434720 150.1070940 111.0162860  39.1311970 149.6116840
 111.5068980  39.4987960 150.9958980 118.0211210  40.1177090 144.8359210
 118.4604490  39.2799520 144.6897030 118.7339630  40.7506490 144.9223350
 116.1306590  45.0573160 148.8040450 116.5702500  45.7997490 148.3895840
 116.0693480  45.2999730 149.7279410 121.6028350  31.3719900 143.1500250
 121.2901010  31.4646730 144.0499320 122.3640820  31.9500930 143.0997680
 108.1210490  38.7379700 147.6077590 108.0008090  39.4641790 146.9958860
 107.8111380  37.9682610 147.1305500 107.0043490  43.6095030 149.8252410
 106.5971570  43.7509620 148.9706010 107.8956500  43.3255190 149.6223620
 118.7976770  48.0442280 146.1603460 118.6377910  47.7545220 147.0585290
 118.6323480  47.2682410 145.6248690 111.2765150  47.8240810 147.9375080
 111.1007630  46.9076350 147.7242880 110.4220890  48.1828100 148.1772880
 118.5002900  45.5529840 144.7201460 117.8068060  45.5507130 144.0603740
 119.2425760  45.1289160 144.2895630 118.0652830  47.1792550 148.7949950
 118.5209780  46.3981930 149.1088570 118.4045350  47.8899370 149.3391130
 110.5874150  32.0814770 150.9901260 110.1442300  32.8624310 150.6585780
 111.1459140  32.4044660 151.6972200 113.7032970  31.7025470 145.8707090
 113.0787150  31.6985340 146.5960400 113.6163090  30.8356430 145.4743060
 110.3788370  37.2048340 148.7182510 110.1529290  36.9885510 149.6229130
 109.5980900  37.6376800 148.3728480 117.6086130  37.2111710 147.3173160
 117.0095020  37.9347510 147.1336780 118.1565740  37.1488490 146.5349610
 116.2151000  35.8475250 149.3476440 116.6080570  36.1647450 148.5345130
 116.5767850  34.9687130 149.4620960 105.4385400  36.3796170 142.7809360
 105.3560070  37.3226930 142.9224350 105.0868460  36.2371080 141.9021710
 109.0885910  34.9961690 150.8073920 108.7485960  35.4736920 151.5640970
 108.3263230  34.5426810 150.4475020 113.3003680  36.1147280 144.8386470
 113.4216500  36.0733760 145.7872290 112.9152190  36.9771430 144.6833200
 112.3125180  38.4248420 144.2369770 111.7442080  37.9766670 143.6105680
 113.0214180  38.7841200 143.7034920 106.4031990  33.9180670 149.7238590
 106.1178910  33.5536340 150.5617210 106.3410850  33.1861130 149.1101730
 109.8572660  42.4206610 146.5096180 109.0834920  41.8804230 146.3494900
 110.5867290  41.9013220 146.1713940 116.0770580  32.8109930 146.4451960
 115.2635190  32.3123100 146.3697270 115.8832530  33.6508180 146.0288310
 118.7918970  37.1829580 144.7414120 119.6798590  37.4946810 144.5665460
 118.7624060  36.3101830 144.3494700 109.9010060  42.0886990 150.1474990
 110.4188730  41.2855250 150.0931880 109.4494080  42.0266130 150.9891820
 114.7879560  43.3553270 145.4202290 115.1295260  44.0995500 144.9245610
 113.9592270  43.6684390 145.7827120 121.0633240  38.4941420 144.2093980
 120.9796960  38.9255640 143.3590420 121.7827430  38.9539770 144.6420800
 122.0920490  45.3483680 146.9376110 121.4496650  44.6939300 147.2119830
 121.7051150  45.7538770 146.1616780 117.6706970  42.6769110 150.7847800
 118.0230790  42.0797240 150.1249170 116.7869300  42.3513340 150.9556050
 113.7570250  43.4366800 148.1918210 114.4441380  43.9836010 148.5725800
 112.9702670  43.9807530 148.2267820 105.8962650  39.0539620 143.6835290
 106.7657500  39.3364420 143.9671210 105.4052970  39.8675490 143.5684100
 113.0597460  40.4412830 147.8043570 113.5160240  41.2518080 148.0303760
 112.7085670  40.1235970 148.6362060 108.9609240  30.7850480 148.2766090
 108.8323870  30.7768380 149.2251010 108.1371260  31.1233570 147.9257100
 120.4817870  44.2400140 143.4752460 120.2555450  43.5230580 144.0677100
 120.0914070  43.9912580 142.6374210 106.2633900  48.2667000 144.2496920
 106.6231540  48.8656340 143.5954190 106.1226240  48.8126890 145.0231950
 120.0634120  42.1572080 145.1366620 119.7755820  42.6184770 145.9244500
 120.8586290  41.6969850 145.4050840 112.2802520  45.6498200 145.0670590
 112.2712620  46.3827890 144.4515100 111.3600880  45.4029780 145.1597550
 107.8809160  40.8713090 145.8117350 107.2737110  41.6111990 145.8212650
 108.3558510  40.9612450 144.9855550 120.8203980  33.9920850 146.2961800
 120.1917140  34.0966520 145.5820030 120.3255900  34.2117630 147.0855680
 115.2662120  45.7126440 143.7295780 115.3674100  45.5090430 142.7997760
 114.3663860  45.4584720 143.9343560 112.7888010  36.2706800 147.7119680
 112.0804160  36.7393140 148.1533290 113.0732490  35.6128810 148.3464870
 116.8203440  32.9957460 149.1515470 116.6971220  33.0143590 148.2024980
 117.7688000  33.0436400 149.2713870 113.9080230  48.2312760 148.4243450
 114.1621730  48.1934150 147.5022820 112.9592710  48.1046090 148.4171700
 110.9923030  34.5791880 145.0870390 111.8413560  35.0162030 145.0210580
 110.6254300  34.8912140 145.9142450 119.9132810  39.1504640 150.0001960
 118.9722950  39.1654870 150.1749650 120.2276880  38.3640600 150.4462260
 109.8914450  40.8324240 143.5605920 110.6577720  40.7205600 144.1231350
 109.9689140  40.1362210 142.9082690 108.5861210  38.2649310 144.2438810
 108.6664800  37.3176820 144.3556210 109.4780960  38.5956190 144.3499470
 109.3875920  48.4144700 151.3473350 110.1238400  47.8660160 151.6181920
 109.7716840  49.2800710 151.2079340 106.2721400  44.4818270 147.2214860
 105.3461180  44.7239410 147.2120270 106.7377830  45.3092530 147.0999610
 112.4978230  47.5875010 143.1698920 113.2906840  47.8763840 142.7180710
 111.9782580  47.1567180 142.4911400 121.5508400  46.8145140 144.5935660
 121.2649910  46.4010280 143.7789840 121.3527950  47.7432850 144.4736180
 113.0155630  42.8078420 143.0341270 112.9106270  42.1930770 143.7602650
 112.8479850  42.2844310 142.2504280 116.2558360  41.8698450 143.6383260
 115.7068460  42.3167750 144.2826000 116.8777620  41.3647700 144.1620930
 111.9233480  40.8289370 145.5348560 112.3449900  40.6629240 146.3779950
 112.0484320  40.0189600 145.0403700 114.4361120  39.8526980 142.7825660
 114.9566780  39.1376000 142.4166810 115.0829520  40.4912850 143.0826170
 110.8192380  36.9022600 142.4806720 110.6181440  36.0389960 142.8420060
 110.6484430  36.8155960 141.5428320 118.2980690  31.7130830 145.0093600
 118.5782980  30.8698730 145.3653020 117.5246420  31.9453940 145.5232350
 109.6175180  34.0023220 142.4684600 109.9201080  34.0090650 141.5603750
 110.3569770  33.6521080 142.9652260 112.8360110  32.9457840 143.4540800
 112.4882110  32.2681830 142.8743250 113.0372880  32.4847350 144.2684190
 115.0009150  47.9338590 145.0727400 115.8959940  48.2723560 145.0946160
 115.0326780  47.2118000 144.4451680 108.6405310  43.3065640 143.3014400
 109.0780180  43.8495310 143.9571980 109.1253040  42.4812590 143.3110740
 105.8551110  46.0954670 150.7534660 106.1854120  45.2275730 150.5213300
 106.2842110  46.3013190 151.5839620 110.4513030  44.4263680 148.4136630
 110.1508570  44.3028650 149.3140540 110.3450520  43.5672270 148.0052360
 123.2204950  44.2060080 143.1163310 122.3897910  44.2736730 143.5870540
 123.3976780  45.0964200 142.8130170 122.6761410  40.9507560 145.6197510
 123.4380320  41.5204210 145.7257200 122.6915780  40.3834760 146.3905820
 106.1765750  39.4745490 149.8505170 105.5214590  39.2057130 149.2064870
 107.0143700  39.3649970 149.4007150 123.6821380  41.8057660 150.4639440
 124.0530210  41.0224980 150.0575410 124.3223310  42.4946760 150.2856740
 122.7280580  41.2441930 142.7770030 123.0029420  42.1520810 142.6489250
 122.5391320  41.1804460 143.7132020 119.1256190  34.2686780 144.0723660
 119.5441070  34.0817760 143.2320320 118.8192250  33.4165830 144.3826590
 122.6245920  39.1810920 147.7699460 122.2489520  38.4138850 147.3380750
 121.8949040  39.5633620 148.2574390 105.3903830  36.6844420 145.7930500
 104.4867910  36.9474620 145.6182160 105.8744450  36.9555590 145.0130460
 107.9331040  35.7409960 143.7024880 108.6422740  35.3193180 143.2172160
 107.2170980  35.8085190 143.0708230 107.5805200  31.7949290 142.7427530
 108.3033330  32.3358230 143.0608750 107.8529720  31.5212710 141.8669070
 121.3896850  36.6641760 147.0099110 121.8855970  36.4312630 147.7947990
 121.1912920  35.8253600 146.5936750 122.8184010  35.3002710 149.5436790
 122.7083290  35.1458750 150.4819060 123.5791600  34.7723650 149.3012200
 123.7074280  33.1310630 142.7842930 124.6323590  32.9991810 142.5761220
 123.6850070  33.2103450 143.7379380 123.7812770  33.9021290 145.4099640
 122.9864270  33.8366410 145.9392550 123.9856050  34.8371930 145.3984990
 120.7231190  47.9412840 149.4038030 121.3190260  47.6197410 148.7272450
 120.9809340  47.4684660 150.1951300 122.0771270  31.8633410 149.8707290
 122.0159670  30.9194630 149.7238310 122.8563300  31.9713500 150.4160750
 106.3824020  48.0025770 148.8331240 106.2146060  47.3696450 149.5313130
 105.5158530  48.2085170 148.4825430 107.0052040  31.8342550 146.3363100
 107.7631400  31.9471430 145.7627130 106.5429210  32.6711750 146.2906530
 113.5465850  33.9481820 149.3265410 112.7340360  33.5738710 148.9861290
 114.0507490  33.1926900 149.6286600 118.0490830  30.6124270 150.5648480
 118.6520200  31.1844480 151.0397000 117.3083820  31.1763710 150.3422380
 121.1925430  31.0145830 145.8388760 121.3876060  31.9129280 146.1056190
 120.4055300  30.7832910 146.3321710 107.9886720  46.6959000 146.2781380
 107.4634340  47.0767030 145.5743340 107.9131300  47.3209770 146.9991090
 109.3777190  32.3606600 144.8765070 109.9069950  31.5736400 144.7473020
 110.0105510  33.0397790 145.1100600 111.5715030  32.0981740 147.9310460
 110.9417770  31.3969050 148.0980590 111.0320170  32.8585870 147.7143620
 122.7452040  48.2546540 147.5995320 122.9204230  47.5684280 146.9556240
 122.0473610  48.7793590 147.2071990 110.5879690  48.6441380 145.1530630
 111.3198510  48.3600660 144.6054520 110.8473360  48.4054660 146.0430010
 109.7494480  44.7606110 145.1576960 109.1203360  45.2291210 145.7062790
 109.8642310  43.9155330 145.5923150 117.2044200  38.8111770 131.3078160
 117.1238250  37.8966380 131.0369870 116.7908620  39.3078840 130.6017870
 115.3362240  40.5890790 133.1887430 114.5604340  40.1091230 133.4786000
 115.9875170  39.9096440 133.0143590 109.3528070  40.9010600 134.0663190
 108.5212950  40.6459310 134.4659700 109.9609050  40.9721370 134.8021110
 119.3569670  44.9950980 131.9686560 118.8951200  44.2238220 132.2973730
 120.1695220  45.0217050 132.4739010 109.3329330  44.9350690 134.2621210
 109.6357370  44.0448430 134.0831430 110.0772920  45.4920910 134.0343460
 107.7620020  35.8612490 127.8505580 106.8736720  36.2028460 127.7485460
 108.0461210  35.6612810 126.9586410 105.7253030  38.4618140 133.7345280
 106.2969140  37.6940340 133.7348920 105.7254570  38.7606900 132.8251890
 115.5832980  47.2808990 131.5890550 114.9644420  47.7366490 131.0184990
 116.4384760  47.4360450 131.1880250 114.7771230  43.2647980 133.1957590
 114.7079510  42.3237920 133.0346720 115.5391090  43.3549390 133.7680160
 106.9677900  33.8702500 135.5214210 106.7880740  32.9728250 135.8016970
 106.5657980  34.4174370 136.1961160 115.8076400  36.0718360 133.4226520
 116.1841220  35.1990240 133.3100190 115.7095910  36.4077060 132.5316960
 109.9381410  34.4443990 128.8843960 110.0448160  35.3447720 129.1912720
 109.0273770  34.3961960 128.5938610 119.5900520  33.5668800 130.3554860
 120.4110140  33.0765370 130.3980340 119.6234600  34.1566460 131.1086700
 107.5864570  36.3663000 134.1296550 108.2674680  36.6301370 134.7483950
 107.2712620  35.5263870 134.4634560 111.7789140  37.4130360 133.2169140
 112.2867360  37.9111330 133.8574160 112.3102380  36.6365560 133.0408500
 123.8800070  35.5835550 136.9198490 123.1752240  35.9717260 136.4013600
 124.1457990  36.2785840 137.5219420 110.0625240  32.0528920 137.4832560
 110.0643680  32.5701310 136.6778460 109.2329550  31.5759100 137.4602490
 116.4496330  42.1648230 128.9822460 115.8313600  42.6297680 128.4185180
 116.9619580  42.8575710 129.3991970 111.3128090  41.6924100 135.6606060
 110.9797470  42.3193020 136.3027130 111.4894770  42.2185980 134.8807730
 119.8262000  35.5069180 133.1282400 119.1217570  35.7954070 133.7085510
 120.1874160  36.3169290 132.7681960 109.7440570  33.7638880 135.4903010
 110.0857380  34.6080930 135.1956880 108.8056380  33.9122620 135.6068350
 110.5247190  43.6604900 137.4755240 111.1421190  44.3355980 137.1939690
 109.6640310  44.0692880 137.3842740 105.8179530  42.8504760 126.3562090
 105.4407510  43.3391860 125.6246990 106.0752600  43.5230040 126.9868620
 121.4424780  45.1244310 135.3909880 120.7588300  45.7943420 135.3826550
 121.9819070  45.3224960 134.6254740 122.8948920  34.9523970 133.5191610
 121.9473830  34.9862950 133.6507040 123.2198910  35.7662920 133.9040970
 113.4268460  31.2521150 131.8147600 113.7343440  30.6968040 131.0983100
 112.4969160  31.3865610 131.6320590 118.9783520  46.9688440 134.1055060
 118.9910680  46.5650730 133.2377320 118.4258740  47.7435730 134.0016490
 120.2728940  43.6904660 129.1945230 120.1625270  42.7478990 129.3194650
 120.2697190  44.0520300 130.0807990 118.3768960  41.8718280 135.4337670
 118.7937750  41.6578390 134.5991130 119.1008780  42.1291070 136.0046290
 115.8149220  39.3169980 128.5507720 114.8878500  39.2507360 128.7796190
 115.9674040  40.2550110 128.4362960 115.8018300  35.5886980 125.5474880
 114.8621970  35.7500940 125.6327340 116.1201560  36.3072660 125.0010870
 122.3231060  40.2705500 135.5253910 121.4949690  40.3398590 135.0504040
 122.9181540  40.8559810 135.0569740 119.8446510  40.8790280 129.0542970
 119.2258930  40.5409830 128.4069270 119.8270960  40.2350040 129.7622160
 119.2873070  37.0574820 136.4708780 118.8744250  37.8828530 136.7248770
 118.5549020  36.4719860 136.2785140 111.4205860  39.8434720 131.3327450
 111.0162860  39.1311970 130.8373350 111.5068980  39.4987960 132.2215490
 111.8887560  43.5302280 133.4966660 111.5915850  42.9247750 132.8174440
 112.8387380  43.5679590 133.3856020 110.1334480  36.6177930 135.1126490
 110.6849070  36.7273270 134.3379740 110.6477990  36.9915530 135.8281720
 119.9773170  47.1034150 137.1589760 119.5003730  47.9106340 136.9662370
 119.2934960  46.4512480 137.3115970 110.9805990  43.2683970 140.1474460
 110.0834520  43.4923940 140.3947860 111.0058860  43.3918910 139.1985860
 118.0211210  40.1177090 126.0615720 118.4604490  39.2799520 125.9153540
 118.7339630  40.7506490 126.1479860 109.8077210  40.1397290 138.7231830
 109.6684980  41.0120090 139.0919230 108.9258570  39.7970100 138.5779770
 116.1306590  45.0573160 130.0296960 116.5702500  45.7997490 129.6152350
 116.0693480  45.2999730 130.9535920 111.6057560  46.0818990 140.9316980
 111.5772990  46.4861940 140.0645410 111.4422530  45.1529350 140.7688580
 121.6028350  31.3719900 124.3756760 121.2901010  31.4646730 125.2755830
 122.3640820  31.9500930 124.3254190 108.1210490  38.7379700 128.8334100
 108.0008090  39.4641790 128.2215370 107.8111380  37.9682610 128.3562010
 123.5572380  46.8646090 142.2281150 124.0332100  47.3428980 142.9070230
 124.1779540  46.7963580 141.5026650 105.7595860  41.9094840 134.6402740
 105.8376280  42.0443610 133.6958460 106.3737540  41.2010730 134.8330860
 107.0043490  43.6095030 131.0508920 106.5971570  43.7509620 130.1962520
 107.8956500  43.3255190 130.8480130 122.9605630  44.0558940 139.3881160
 123.0868690  43.8170820 138.4698340 123.0027010  43.2243480 139.8603240
 116.8222370  47.7586940 137.9575970 117.3367040  47.6694950 138.7598400
 115.9791450  48.1046640 138.2503880 118.7976770  48.0442280 127.3859970
 118.6377910  47.7545220 128.2841800 118.6323480  47.2682410 126.8505200
 111.2765150  47.8240810 129.1631590 111.1007630  46.9076350 128.9499390
 110.4220890  48.1828100 129.4029390 118.5002900  45.5529840 125.9457970
 117.8068060  45.5507130 125.2860250 119.2425760  45.1289160 125.5152140
 118.0652830  47.1792550 130.0206460 118.5209780  46.3981930 130.3345080
 118.4045350  47.8899370 130.5647640 122.8129640  36.1091400 140.3530900
 122.1973910  36.6171070 139.8246360 122.4926060  35.2089730 140.2956840
 105.8155380  42.9509010 137.1797200 105.9786420  42.4814370 136.3616570
 106.2807830  42.4432570 137.8446040 110.5874150  32.0814770 132.2157770
 110.1442300  32.8624310 131.8842290 111.1459140  32.4044660 132.9228710
 114.8743960  34.9483290 137.8193090 114.4123330  35.1566310 138.6313030
 114.4722070  34.1342640 137.5163760 119.8748470  36.1692240 138.9489750
 119.0242060  35.8697990 139.2698820 119.7150260  36.4134250 138.0373570
 116.9698180  37.6693990 141.0488540 117.2951590  36.8357740 140.7090770
 117.7578510  38.1922510 141.1966870 113.7032970  31.7025470 127.0963600
 113.0787150  31.6985340 127.8216910 113.6163090  30.8356430 126.6999570
 112.6250050  32.6262100 134.0747370 112.9222380  33.5324930 133.9939390
 113.1735610  32.1380880 133.4606940 110.3788370  37.2048340 129.9439020
 110.1529290  36.9885510 130.8485640 109.5980900  37.6376800 129.5984990
 117.6086130  37.2111710 128.5429670 117.0095020  37.9347510 128.3593290
 118.1565740  37.1488490 127.7606120 112.8187580  38.1033920 140.6099290
 112.7231180  37.1628650 140.4599690 113.6619560  38.3248990 140.2147360
 116.2151000  35.8475250 130.5732950 116.6080570  36.1647450 129.7601640
 116.5767850  34.9687130 130.6877470 107.9498120  34.5147590 138.7633070
 107.5561510  35.3622800 138.9705850 107.2616520  33.8773960 138.9541710
 114.5243170  34.5982560 141.8329810 113.8341490  34.4054760 142.4675900
 115.2675470  34.8817200 142.3654110 105.2515170  32.4376050 132.7963150
 104.9628220  33.0078910 133.5088130 105.9960930  31.9580500 133.1594380
 105.4385400  36.3796170 124.0065870 105.3560070  37.3226930 124.1480860
 105.0868460  36.2371080 123.1278220 116.8006140  38.4381000 134.6683730
 116.0687260  38.9467810 135.0173830 116.4030480  37.6210980 134.3672510
 113.2383530  35.1135200 133.0736220 113.2419590  34.6725150 132.2240760
 114.1334650  35.4352530 133.1808040 109.0885910  34.9961690 132.0330430
 108.7485960  35.4736920 132.7897480 108.3263230  34.5426810 131.6731530
 113.3003680  36.1147280 126.0642980 113.4216500  36.0733760 127.0128800
 112.9152190  36.9771430 125.9089710 117.2632050  33.8914680 134.0806670
 117.2804790  34.3423330 134.9248520 117.0147630  32.9920320 134.2940110
 112.3125180  38.4248420 125.4626280 111.7442080  37.9766670 124.8362190
 113.0214180  38.7841200 124.9291430 120.6902800  31.3046860 139.9193050
 121.0148570  30.5736520 140.4451030 120.7259310  30.9860500 139.0174040
 107.3894360  42.3260440 139.3393010 107.0049150  41.6854110 139.9375970
 107.7006550  43.0296560 139.9087740 113.5391500  39.1736980 134.8201630
 113.9061630  38.6995550 135.5662970 113.3496560  40.0478550 135.1609970
 106.4031990  33.9180670 130.9495100 106.1178910  33.5536340 131.7873720
 106.3410850  33.1861130 130.3358240 111.3290870  38.2145620 137.1385840
 111.0247940  39.0937600 137.3636200 112.2837330  38.2745410 137.1743280
 109.8572660  42.4206610 127.7352690 109.0834920  41.8804230 127.5751410
 110.5867290  41.9013220 127.3970450 120.6160640  41.4171970 133.5279080
 121.3359760  41.9127260 133.1375190 120.4142460  40.7389860 132.8832950
 116.0770580  32.8109930 127.6708470 115.2635190  32.3123100 127.5953780
 115.8832530  33.6508180 127.2544820 115.9979440  41.4881030 139.4148080
 115.9316750  40.5676700 139.1605670 115.3684580  41.5856470 140.1292720
 118.7918970  37.1829580 125.9670630 119.6798590  37.4946810 125.7921970
 118.7624060  36.3101830 125.5751210 109.9010060  42.0886990 131.3731500
 110.4188730  41.2855250 131.3188390 109.4494080  42.0266130 132.2148330
 114.7879560  43.3553270 126.6458800 115.1295260  44.0995500 126.1502120
 113.9592270  43.6684390 127.0083630 107.3854600  39.0548360 138.2857200
 107.0269540  39.7202210 138.8730540 107.0909160  38.2231910 138.6569820
 110.5867720  39.5132600 141.1696750 110.2867860  39.6589780 140.2724570
 111.3578960  38.9537890 141.0770140 115.9296170  44.3101600 139.1651880
 115.9440710  43.3782560 138.9470790 115.2221270  44.3961360 139.8041650
 121.0633240  38.4941420 125.4350490 120.9796960  38.9255640 124.5846930
 121.7827430  38.9539770 125.8677310 122.1407380  40.9508940 138.5120460
 121.4155570  41.5437720 138.3149850 122.6682840  40.9432480 137.7133830
 122.0920490  45.3483680 128.1632620 121.4496650  44.6939300 128.4376340
 121.7051150  45.7538770 127.3873290 117.6706970  42.6769110 132.0104310
 118.0230790  42.0797240 131.3505680 116.7869300  42.3513340 132.1812560
 113.7570250  43.4366800 129.4174720 114.4441380  43.9836010 129.7982310
 112.9702670  43.9807530 129.4524330 105.8962650  39.0539620 124.9091800
 106.7657500  39.3364420 125.1927720 105.4052970  39.8675490 124.7940610
 113.0597460  40.4412830 129.0300080 113.5160240  41.2518080 129.2560270
 112.7085670  40.1235970 129.8618570 115.3630070  45.9519170 136.2592380
 116.0072290  46.1578550 136.9365800 115.7259510  45.1907570 135.8063230
 108.9609240  30.7850480 129.5022600 108.8323870  30.7768380 130.4507520
 108.1371260  31.1233570 129.1513610 116.6362150  43.9551520 134.9769830
 117.2784380  43.2544680 135.0902000 117.1611500  44.7349960 134.7966720
 120.4817870  44.2400140 124.7008970 120.2555450  43.5230580 125.2933610
 120.0914070  43.9912580 123.8630720 118.4099770  44.7546420 138.1805890
 118.7456010  45.3413110 138.8583810 117.4900110  44.6239130 138.4103680
 106.2633900  48.2667000 125.4753430 106.6231540  48.8656340 124.8210700
 106.1226240  48.8126890 126.2488460 105.9603170  32.5441600 138.9629300
 105.2461690  32.7438520 139.5681910 106.3798210  31.7681170 139.3344100
 120.0634120  42.1572080 126.3623130 119.7755820  42.6184770 127.1501010
 120.8586290  41.6969850 126.6307350 106.2475760  46.5321860 139.9495830
 106.3566880  45.5916600 139.8091220 105.5956320  46.7976610 139.3009560
 114.2388350  44.8037750 141.3493950 113.9185220  44.0846990 141.8939640
 113.5646710  45.4792820 141.4230010 112.2802520  45.6498200 126.2927100
 112.2712620  46.3827890 125.6771610 111.3600880  45.4029780 126.3854060
 107.8809160  40.8713090 127.0373860 107.2737110  41.6111990 127.0469160
 108.3558510  40.9612450 126.2112060 117.4541950  35.0363910 136.7130750
 117.8222770  34.2159120 137.0410320 116.5940150  35.0965800 137.1286400
 120.8203980  33.9920850 127.5218310 120.1917140  34.0966520 126.8076540
 120.3255900  34.2117630 128.3112190 115.2662120  45.7126440 124.9552290
 115.3674100  45.5090430 124.0254270 114.3663860  45.4584720 125.1600070
 112.7888010  36.2706800 128.9376190 112.0804160  36.7393140 129.3789800
 113.0732490  35.6128810 129.5721380 114.4143940  37.6903500 136.9368720
 114.9129190  38.1649320 137.6020570 114.5566890  36.7667020 137.1438750
 116.8203440  32.9957460 130.3771980 116.6971220  33.0143590 129.4281490
 117.7688000  33.0436400 130.4970380 113.9080230  48.2312760 129.6499960
 114.1621730  48.1934150 128.7279330 112.9592710  48.1046090 129.6428210
 110.9923030  34.5791880 126.3126900 111.8413560  35.0162030 126.2467090
 110.6254300  34.8912140 127.1398960 121.6210800  33.9071460 137.7797110
 121.1184400  34.6476860 138.1190920 122.4367460  34.2955460 137.4633900
 119.9132810  39.1504640 131.2258470 118.9722950  39.1654870 131.4006160
 120.2276880  38.3640600 131.6718770 109.8914450  40.8324240 124.7862430
 110.6577720  40.7205600 125.3487860 109.9689140  40.1362210 124.1339200
 108.5861210  38.2649310 125.4695320 108.6664800  37.3176820 125.5812720
 109.4780960  38.5956190 125.5755980 121.9158390  46.3213490 132.9012730
 122.0405810  47.1444660 133.3736540 122.7823950  46.1104220 132.5536880
 109.3875920  48.4144700 132.5729860 110.1238400  47.8660160 132.8438430
 109.7716840  49.2800710 132.4335850 106.2721400  44.4818270 128.4471370
 105.3461180  44.7239410 128.4376780 106.7377830  45.3092530 128.3256120
 108.3934200  47.5990770 141.7615440 109.1946930  47.9202820 142.1750840
 107.8786020  47.2386350 142.4835350 112.4978230  47.5875010 124.3955430
 113.2906840  47.8763840 123.9437220 111.9782580  47.1567180 123.7167910
 117.2298830  43.7070640 141.7090850 116.6236990  43.7302240 140.9686600
 116.9252940  42.9753680 142.2458100 118.6599200  47.4350930 140.3200260
 119.6120950  47.3508950 140.2700500 118.5127420  48.0992640 140.9934050
 121.5508400  46.8145140 125.8192170 121.2649910  46.4010280 125.0046350
 121.3527950  47.7432850 125.6992690 106.1132010  40.0864230 140.7051490
 106.6171030  39.5071510 141.2767720 105.3739430  40.3704460 141.2427860
 113.0155630  42.8078420 124.2597780 112.9106270  42.1930770 124.9859160
 112.8479850  42.2844310 123.4760790 113.1669950  41.4935220 140.2387010
 112.4015620  42.0620220 140.1541680 113.3485910  41.2011430 139.3455240
 116.2558360  41.8698450 124.8639770 115.7068460  42.3167750 125.5082510
 116.8777620  41.3647700 125.3877440 120.3093300  43.2240550 140.7962030
 121.0502770  43.5616310 140.2929490 119.5465980  43.3932610 140.2431800
 108.1455090  38.2293820 141.6001560 108.1860430  37.9307690 142.5086790
 109.0000590  38.6301430 141.4409080 111.9233480  40.8289370 126.7605070
 112.3449900  40.6629240 127.6036460 112.0484320  40.0189600 126.2660210
 110.0860900  36.8085920 139.5676050 109.5557360  36.3176870 138.9399390
 110.7548970  37.2370120 139.0333980 114.4361120  39.8526980 124.0082170
 114.9566780  39.1376000 123.6423320 115.0829520  40.4912850 124.3082680
 118.9838960  41.2755380 139.3317240 119.3979980  41.4300460 140.1807660
 118.0489960  41.4010600 139.4943020 119.4561130  38.6151540 141.3356390
 120.0381900  37.8603860 141.2476870 119.6322900  39.1458980 140.5587870
 110.5733200  33.7748290 139.6473340 110.4790070  33.1569040 138.9224210
 109.9930590  34.5014580 139.4203250 113.3394640  32.3321530 136.6800730
 112.8911940  32.3545790 135.8346280 112.7059840  31.9340550 137.2771030
 113.7454190  41.2275860 137.3013170 114.1642300  42.0708590 137.1289410
 112.8262820  41.3647900 137.0719950 116.0818090  38.9592040 138.6851010
 116.2014300  38.3633180 139.4245850 116.9412090  38.9961730 138.2652310
 118.4205990  39.5129230 137.2613520 117.8941210  40.0371850 136.6578660
 118.7637330  40.1456620 137.8923250 110.8192380  36.9022600 123.7063230
 110.6181440  36.0389960 124.0676570 110.6484430  36.8155960 122.7684830
 111.5961610  47.5328870 138.4170900 111.0582700  48.2574930 138.0979600
 111.8495570  47.0559210 137.6268240 112.8486860  35.5013390 139.9426830
 113.4386550  35.1929240 140.6304650 112.0307100  35.0293140 140.0986730
 117.6680290  35.1179200 140.1759850 116.9795810  34.4560740 140.1109840
 118.3886310  34.6717470 140.6208310 118.2980690  31.7130830 126.2350110
 118.5782980  30.8698730 126.5909530 117.5246420  31.9453940 126.7488860
 109.6175180  34.0023220 123.6941110 109.9201080  34.0090650 122.7860260
 110.3569770  33.6521080 124.1908770 114.4523820  48.7680080 138.6757550
 114.3782520  49.6715220 138.9829920 113.5502660  48.4491980 138.6479620
 112.8360110  32.9457840 124.6797310 112.4882110  32.2681830 124.0999760
 113.0372880  32.4847350 125.4940700 115.0009150  47.9338590 126.2983910
 115.8959940  48.2723560 126.3202670 115.0326780  47.2118000 125.6708190
 108.6405310  43.3065640 124.5270910 109.0780180  43.8495310 125.1828490
 109.1253040  42.4812590 124.5367250 105.8551110  46.0954670 131.9791170
 106.1854120  45.2275730 131.7469810 106.2842110  46.3013190 132.8096130
 110.4513030  44.4263680 129.6393140 110.1508570  44.3028650 130.5397050
 110.3450520  43.5672270 129.2308870 106.3441320  46.9625260 134.7172800
 105.9072310  47.1426060 135.5496950 106.9119000  47.7199880 134.5754520
 121.9803500  46.4642260 139.0050110 121.3805490  46.5234820 138.2614030
 122.1097400  45.5247240 139.1346960 123.2204950  44.2060080 124.3419820
 122.3897910  44.2736730 124.8127050 123.3976780  45.0964200 124.0386680
 122.6761410  40.9507560 126.8454020 123.4380320  41.5204210 126.9513710
 122.6915780  40.3834760 127.6162330 106.1765750  39.4745490 131.0761680
 105.5214590  39.2057130 130.4321380 107.0143700  39.3649970 130.6263660
 123.6821380  41.8057660 131.6895950 124.0530210  41.0224980 131.2831920
 124.3223310  42.4946760 131.5113250 120.6655140  43.1894240 137.1026270
 119.8514980  43.6191400 137.3652060 121.0729340  43.8012650 136.4895320
 122.7280580  41.2441930 124.0026540 123.0029420  42.1520810 123.8745760
 122.5391320  41.1804460 124.9388530 119.1256190  34.2686780 125.2980170
 119.5441070  34.0817760 124.4576830 118.8192250  33.4165830 125.6083100
 122.6245920  39.1810920 128.9955970 122.2489520  38.4138850 128.5637260
 121.8949040  39.5633620 129.4830900 107.2141680  39.8598060 135.6165020
 107.5814720  39.7725460 136.4961040 106.6452500  39.0964610 135.5171880
 122.0145540  38.3282440 138.6295490 121.7831630  38.0995190 137.7293440
 122.2750090  39.2481990 138.5840380 106.7657680  36.7707150 139.5223440
 105.8713730  36.7373910 139.8617150 107.3055230  36.9693940 140.2874690
 120.4533610  33.5538870 141.4075190 121.3303790  33.5622270 141.7909190
 120.4654450  32.8169710 140.7967540 105.3903830  36.6844420 127.0187010
 104.4867910  36.9474620 126.8438670 105.8744450  36.9555590 126.2386970
 121.8996880  37.4068410 132.2963210 122.4234360  36.9131060 131.6653380
 122.4856300  37.5418770 133.0410780 122.0786600  37.4908280 135.8182760
 121.1289310  37.4571820 135.9327750 122.2599610  38.4008390 135.5832530
 107.9331040  35.7409960 124.9281390 108.6422740  35.3193180 124.4428670
 107.2170980  35.8085190 124.2964740 107.5805200  31.7949290 123.9684040
 108.3033330  32.3358230 124.2865260 107.8529720  31.5212710 123.0925580
 121.3896850  36.6641760 128.2355620 121.8855970  36.4312630 129.0204500
 121.1912920  35.8253600 127.8193260 107.2697390  31.0455480 133.8706660
 107.9173580  30.4952860 133.4301820 107.6899230  31.2998630 134.6922470
 122.8184010  35.3002710 130.7693300 122.7083290  35.1458750 131.7075570
 123.5791600  34.7723650 130.5268710 121.1649730  31.2396840 137.2276300
 121.8021950  31.8530980 137.5935490 121.3124620  31.2757500 136.2825530
 123.7074280  33.1310630 124.0099440 124.6323590  32.9991810 123.8017730
 123.6850070  33.2103450 124.9635890 123.7812770  33.9021290 126.6356150
 122.9864270  33.8366410 127.1649060 123.9856050  34.8371930 126.6241500
 120.7231190  47.9412840 130.6294540 121.3190260  47.6197410 129.9528960
 120.9809340  47.4684660 131.4207810 107.0229390  31.2011150 136.6131980
 106.6744210  31.6574970 137.3790160 106.6917090  30.3068280 136.6954410
 108.6293760  44.3730750 140.7785170 108.5863390  44.0023660 141.6599630
 108.7604770  45.3108320 140.9186990 112.3299790  45.9290340 136.3794890
 112.0891150  46.1964900 135.4925410 113.2702430  46.0996070 136.4345750
 114.5354210  32.3923030 140.1351400 114.4743100  32.9844860 140.8846810
 115.4754590  32.2848990 139.9901660 117.1728770  32.0493090 139.7743690
 117.7869180  32.3672380 139.1124770 117.7178330  31.5641680 140.3939550
 123.5903950  47.9484720 137.1805530 123.0962230  48.3453590 136.4632660
 122.9817240  47.3233930 137.5742810 107.6950030  30.7287350 139.8882750
 108.2433020  30.5475400 139.1248860 107.7605340  29.9381460 140.4239060
 108.4681790  47.3193000 137.8982950 107.8742110  47.1877700 138.6372990
 108.4605630  46.4831140 137.4325050 117.9136810  30.6125230 136.1012980
 117.0396650  30.9460340 135.8985910 117.8047560  30.1398410 136.9264850
 118.8208790  32.8196100 137.4854700 118.4922150  32.0047860 137.1056430
 119.7691090  32.7765910 137.3620390 121.2743400  48.5908140 134.4592270
 120.8146370  49.3423950 134.0850290 120.6455860  47.8714610 134.4007070
 108.0994020  44.6851380 136.8490990 107.3728080  44.0656670 136.7816940
 108.1603170  45.0791990 135.9789070 111.7039120  46.8996380 133.6340400
 112.2204140  46.2883740 133.1088660 112.3536500  47.4025160 134.1251410
 114.4434620  47.7904870 134.4609380 114.7312430  47.5359170 133.5842390
 114.9557840  47.2382230 135.0514950 115.6611630  31.5295070 135.0405890
 114.8783420  32.0040570 135.3202650 115.3674560  30.6249900 134.9319070
 120.2132700  32.2318170 133.0854980 120.6540790  32.1763270 132.2376580
 119.9440290  33.1476180 133.1565160 122.0771270  31.8633410 131.0963800
 122.0159670  30.9194630 130.9494820 122.8563300  31.9713500 131.6417260
 106.3824020  48.0025770 130.0587750 106.2146060  47.3696450 130.7569640
 105.5158530  48.2085170 129.7081940 107.0052040  31.8342550 127.5619610
 107.7631400  31.9471430 126.9883640 106.5429210  32.6711750 127.5163040
 113.5465850  33.9481820 130.5521920 112.7340360  33.5738710 130.2117800
 114.0507490  33.1926900 130.8543110 118.0490830  30.6124270 131.7904990
 118.6520200  31.1844480 132.2653510 117.3083820  31.1763710 131.5678890
 121.1925430  31.0145830 127.0645270 121.3876060  31.9129280 127.3312700
 120.4055300  30.7832910 127.5578220 107.9886720  46.6959000 127.5037890
 107.4634340  47.0767030 126.7999850 107.9131300  47.3209770 128.2247600
 109.3777190  32.3606600 126.1021580 109.9069950  31.5736400 125.9729530
 110.0105510  33.0397790 126.3357110 111.5715030  32.0981740 129.1566970
 110.9417770  31.3969050 129.3237100 111.0320170  32.8585870 128.9400130
 114.5106980  48.7120970 141.8277580 115.4374290  48.4765240 141.8713540
 114.4957410  49.5392970 141.3463610 122.7452040  48.2546540 128.8251830
 122.9204230  47.5684280 128.1812750 122.0473610  48.7793590 128.4328500
 111.6970590  31.3765720 141.5919460 111.4154860  31.8799320 140.8280280
 112.0790290  30.5787470 141.2261590 110.5879690  48.6441380 126.3787140
 111.3198510  48.3600660 125.8311030 110.8473360  48.4054660 127.2686520
 109.7494480  44.7606110 126.3833470 109.1203360  45.2291210 126.9319300
 109.8642310  43.9155330 126.8179660 118.2986050  30.7919300 142.1699930
 118.1851500  31.1113910 143.0651450 119.1155790  31.1931810 141.8737210
 121.0784540  47.9390830 141.6518620 121.8709860  47.4440060 141.4444580
 121.3717690  48.6180970 142.2594230 117.2044200  38.8111770 112.5334670
 117.1238250  37.8966380 112.2626380 116.7908620  39.3078840 111.8274380
 119.3569670  44.9950980 113.1943070 118.8951200  44.2238220 113.5230240
 120.1695220  45.0217050 113.6995520 109.3329330  44.9350690 115.4877720
 109.6357370  44.0448430 115.3087940 110.0772920  45.4920910 115.2599970
 107.7620020  35.8612490 109.0762090 106.8736720  36.2028460 108.9741970
 108.0461210  35.6612810 108.1842920 105.7253030  38.4618140 114.9601790
 106.2969140  37.6940340 114.9605430 105.7254570  38.7606900 114.0508400
 115.5832980  47.2808990 112.8147060 114.9644420  47.7366490 112.2441500
 116.4384760  47.4360450 112.4136760 115.8076400  36.0718360 114.6483030
 116.1841220  35.1990240 114.5356700 115.7095910  36.4077060 113.7573470
 109.9381410  34.4443990 110.1100470 110.0448160  35.3447720 110.4169230
 109.0273770  34.3961960 109.8195120 119.5900520  33.5668800 111.5811370
 120.4110140  33.0765370 111.6236850 119.6234600  34.1566460 112.3343210
 123.8800070  35.5835550 118.1455000 123.1752240  35.9717260 117.6270110
 124.1457990  36.2785840 118.7475930 110.0625240  32.0528920 118.7089070
 110.0643680  32.5701310 117.9034970 109.2329550  31.5759100 118.6859000
 116.4496330  42.1648230 110.2078970 115.8313600  42.6297680 109.6441690
 116.9619580  42.8575710 110.6248480 119.8262000  35.5069180 114.3538910
 119.1217570  35.7954070 114.9342020 120.1874160  36.3169290 113.9938470
 110.5247190  43.6604900 118.7011750 111.1421190  44.3355980 118.4196200
 109.6640310  44.0692880 118.6099250 105.8179530  42.8504760 107.5818600
 105.4407510  43.3391860 106.8503500 106.0752600  43.5230040 108.2125130
 121.4424780  45.1244310 116.6166390 120.7588300  45.7943420 116.6083060
 121.9819070  45.3224960 115.8511250 122.8948920  34.9523970 114.7448120
 121.9473830  34.9862950 114.8763550 123.2198910  35.7662920 115.1297480
 113.4268460  31.2521150 113.0404110 113.7343440  30.6968040 112.3239610
 112.4969160  31.3865610 112.8577100 118.9783520  46.9688440 115.3311570
 118.9910680  46.5650730 114.4633830 118.4258740  47.7435730 115.2273000
 118.3768960  41.8718280 116.6594180 118.7937750  41.6578390 115.8247640
 119.1008780  42.1291070 117.2302800 115.8149220  39.3169980 109.7764230
 114.8878500  39.2507360 110.0052700 115.9674040  40.2550110 109.6619470
 122.3231060  40.2705500 116.7510420 121.4949690  40.3398590 116.2760550
 122.9181540  40.8559810 116.2826250 119.2873070  37.0574820 117.6965290
 118.8744250  37.8828530 117.9505280 118.5549020  36.4719860 117.5041650
 119.9773170  47.1034150 118.3846270 119.5003730  47.9106340 118.1918880
 119.2934960  46.4512480 118.5372480 110.9805990  43.2683970 121.3730970
 110.0834520  43.4923940 121.6204370 111.0058860  43.3918910 120.4242370
 109.8077210  40.1397290 119.9488340 109.6684980  41.0120090 120.3175740
 108.9258570  39.7970100 119.8036280 116.1306590  45.0573160 111.2553470
 116.5702500  45.7997490 110.8408860 116.0693480  45.2999730 112.1792430
 111.6057560  46.0818990 122.1573490 111.5772990  46.4861940 121.2901920
 111.4422530  45.1529350 121.9945090 121.6028350  31.3719900 105.6013270
 121.2901010  31.4646730 106.5012340 122.3640820  31.9500930 105.5510700
 123.5572380  46.8646090 123.4537660 124.0332100  47.3428980 124.1326740
 124.1779540  46.7963580 122.7283160 105.7595860  41.9094840 115.8659250
 105.8376280  42.0443610 114.9214970 106.3737540  41.2010730 116.0587370
 107.0043490  43.6095030 112.2765430 106.5971570  43.7509620 111.4219030
 107.8956500  43.3255190 112.0736640 122.9605630  44.0558940 120.6137670
 123.0868690  43.8170820 119.6954850 123.0027010  43.2243480 121.0859750
 116.8222370  47.7586940 119.1832480 117.3367040  47.6694950 119.9854910
 115.9791450  48.1046640 119.4760390 118.7976770  48.0442280 108.6116480
 118.6377910  47.7545220 109.5098310 118.6323480  47.2682410 108.0761710
 111.2765150  47.8240810 110.3888100 111.1007630  46.9076350 110.1755900
 110.4220890  48.1828100 110.6285900 118.5002900  45.5529840 107.1714480
 117.8068060  45.5507130 106.5116760 119.2425760  45.1289160 106.7408650
 118.0652830  47.1792550 111.2462970 118.5209780  46.3981930 111.5601590
 118.4045350  47.8899370 111.7904150 122.8129640  36.1091400 121.5787410
 122.1973910  36.6171070 121.0502870 122.4926060  35.2089730 121.5213350
 105.8155380  42.9509010 118.4053710 105.9786420  42.4814370 117.5873080
 106.2807830  42.4432570 119.0702550 114.8743960  34.9483290 119.0449600
 114.4123330  35.1566310 119.8569540 114.4722070  34.1342640 118.7420270
 119.8748470  36.1692240 120.1746260 119.0242060  35.8697990 120.4955330
 119.7150260  36.4134250 119.2630080 116.9698180  37.6693990 122.2745050
 117.2951590  36.8357740 121.9347280 117.7578510  38.1922510 122.4223380
 112.6250050  32.6262100 115.3003880 112.9222380  33.5324930 115.2195900
 113.1735610  32.1380880 114.6863450 112.8187580  38.1033920 121.8355800
 112.7231180  37.1628650 121.6856200 113.6619560  38.3248990 121.4403870
 116.2151000  35.8475250 111.7989460 116.6080570  36.1647450 110.9858150
 116.5767850  34.9687130 111.9133980 107.9498120  34.5147590 119.9889580
 107.5561510  35.3622800 120.1962360 107.2616520  33.8773960 120.1798220
 114.5243170  34.5982560 123.0586320 113.8341490  34.4054760 123.6932410
 115.2675470  34.8817200 123.5910620 105.4385400  36.3796170 105.2322380
 105.3560070  37.3226930 105.3737370 105.0868460  36.2371080 104.3534730
 116.8006140  38.4381000 115.8940240 116.0687260  38.9467810 116.2430340
 116.4030480  37.6210980 115.5929020 113.2383530  35.1135200 114.2992730
 113.2419590  34.6725150 113.4497270 114.1334650  35.4352530 114.4064550
 117.2632050  33.8914680 115.3063180 117.2804790  34.3423330 116.1505030
 117.0147630  32.9920320 115.5196620 120.6902800  31.3046860 121.1449560
 121.0148570  30.5736520 121.6707540 120.7259310  30.9860500 120.2430550
 107.3894360  42.3260440 120.5649520 107.0049150  41.6854110 121.1632480
 107.7006550  43.0296560 121.1344250 120.6160640  41.4171970 114.7535590
 121.3359760  41.9127260 114.3631700 120.4142460  40.7389860 114.1089460
 115.9979440  41.4881030 120.6404590 115.9316750  40.5676700 120.3862180
 115.3684580  41.5856470 121.3549230 114.7879560  43.3553270 107.8715310
 115.1295260  44.0995500 107.3758630 113.9592270  43.6684390 108.2340140
 107.3854600  39.0548360 119.5113710 107.0269540  39.7202210 120.0987050
 107.0909160  38.2231910 119.8826330 110.5867720  39.5132600 122.3953260
 110.2867860  39.6589780 121.4981080 111.3578960  38.9537890 122.3026650
 115.9296170  44.3101600 120.3908390 115.9440710  43.3782560 120.1727300
 115.2221270  44.3961360 121.0298160 122.1407380  40.9508940 119.7376970
 121.4155570  41.5437720 119.5406360 122.6682840  40.9432480 118.9390340
 117.6706970  42.6769110 113.2360820 118.0230790  42.0797240 112.5762190
 116.7869300  42.3513340 113.4069070 105.8962650  39.0539620 106.1348310
 106.7657500  39.3364420 106.4184230 105.4052970  39.8675490 106.0197120
 115.3630070  45.9519170 117.4848890 116.0072290  46.1578550 118.1622310
 115.7259510  45.1907570 117.0319740 116.6362150  43.9551520 116.2026340
 117.2784380  43.2544680 116.3158510 117.1611500  44.7349960 116.0223230
 118.4099770  44.7546420 119.4062400 118.7456010  45.3413110 120.0840320
 117.4900110  44.6239130 119.6360190 106.2633900  48.2667000 106.7009940
 106.6231540  48.8656340 106.0467210 106.1226240  48.8126890 107.4744970
 105.9603170  32.5441600 120.1885810 105.2461690  32.7438520 120.7938420
 106.3798210  31.7681170 120.5600610 106.2475760  46.5321860 121.1752340
 106.3566880  45.5916600 121.0347730 105.5956320  46.7976610 120.5266070
 114.2388350  44.8037750 122.5750460 113.9185220  44.0846990 123.1196150
 113.5646710  45.4792820 122.6486520 112.2802520  45.6498200 107.5183610
 112.2712620  46.3827890 106.9028120 111.3600880  45.4029780 107.6110570
 107.8809160  40.8713090 108.2630370 107.2737110  41.6111990 108.2725670
 108.3558510  40.9612450 107.4368570 117.4541950  35.0363910 117.9387260
 117.8222770  34.2159120 118.2666830 116.5940150  35.0965800 118.3542910
 120.8203980  33.9920850 108.7474820 120.1917140  34.0966520 108.0333050
 120.3255900  34.2117630 109.5368700 115.2662120  45.7126440 106.1808800
 115.3674100  45.5090430 105.2510780 114.3663860  45.4584720 106.3856580
 112.7888010  36.2706800 110.1632700 112.0804160  36.7393140 110.6046310
 113.0732490  35.6128810 110.7977890 114.4143940  37.6903500 118.1625230
 114.9129190  38.1649320 118.8277080 114.5566890  36.7667020 118.3695260
 113.9080230  48.2312760 110.8756470 114.1621730  48.1934150 109.9535840
 112.9592710  48.1046090 110.8684720 121.6210800  33.9071460 119.0053620
 121.1184400  34.6476860 119.3447430 122.4367460  34.2955460 118.6890410
 119.9132810  39.1504640 112.4514980 118.9722950  39.1654870 112.6262670
 120.2276880  38.3640600 112.8975280 109.8914450  40.8324240 106.0118940
 110.6577720  40.7205600 106.5744370 109.9689140  40.1362210 105.3595710
 108.5861210  38.2649310 106.6951830 108.6664800  37.3176820 106.8069230
 109.4780960  38.5956190 106.8012490 121.9158390  46.3213490 114.1269240
 122.0405810  47.1444660 114.5993050 122.7823950  46.1104220 113.7793390
 109.3875920  48.4144700 113.7986370 110.1238400  47.8660160 114.0694940
 109.7716840  49.2800710 113.6592360 106.2721400  44.4818270 109.6727880
 105.3461180  44.7239410 109.6633290 106.7377830  45.3092530 109.5512630
 108.3934200  47.5990770 122.9871950 109.1946930  47.9202820 123.4007350
 107.8786020  47.2386350 123.7091860 112.4978230  47.5875010 105.6211940
 113.2906840  47.8763840 105.1693730 111.9782580  47.1567180 104.9424420
 117.2298830  43.7070640 122.9347360 116.6236990  43.7302240 122.1943110
 116.9252940  42.9753680 123.4714610 118.6599200  47.4350930 121.5456770
 119.6120950  47.3508950 121.4957010 118.5127420  48.0992640 122.2190560
 121.5508400  46.8145140 107.0448680 121.2649910  46.4010280 106.2302860
 121.3527950  47.7432850 106.9249200 106.1132010  40.0864230 121.9308000
 106.6171030  39.5071510 122.5024230 105.3739430  40.3704460 122.4684370
 113.0155630  42.8078420 105.4854290 112.9106270  42.1930770 106.2115670
 112.8479850  42.2844310 104.7017300 113.1669950  41.4935220 121.4643520
 112.4015620  42.0620220 121.3798190 113.3485910  41.2011430 120.5711750
 116.2558360  41.8698450 106.0896280 115.7068460  42.3167750 106.7339020
 116.8777620  41.3647700 106.6133950 120.3093300  43.2240550 122.0218540
 121.0502770  43.5616310 121.5186000 119.5465980  43.3932610 121.4688310
 108.1455090  38.2293820 122.8258070 108.1860430  37.9307690 123.7343300
 109.0000590  38.6301430 122.6665590 111.9233480  40.8289370 107.9861580
 112.3449900  40.6629240 108.8292970 112.0484320  40.0189600 107.4916720
 110.0860900  36.8085920 120.7932560 109.5557360  36.3176870 120.1655900
 110.7548970  37.2370120 120.2590490 118.9838960  41.2755380 120.5573750
 119.3979980  41.4300460 121.4064170 118.0489960  41.4010600 120.7199530
 119.4561130  38.6151540 122.5612900 120.0381900  37.8603860 122.4733380
 119.6322900  39.1458980 121.7844380 110.5733200  33.7748290 120.8729850
 110.4790070  33.1569040 120.1480720 109.9930590  34.5014580 120.6459760
 113.3394640  32.3321530 117.9057240 112.8911940  32.3545790 117.0602790
 112.7059840  31.9340550 118.5027540 113.7454190  41.2275860 118.5269680
 114.1642300  42.0708590 118.3545920 112.8262820  41.3647900 118.2976460
 116.0818090  38.9592040 119.9107520 116.2014300  38.3633180 120.6502360
 116.9412090  38.9961730 119.4908820 118.4205990  39.5129230 118.4870030
 117.8941210  40.0371850 117.8835170 118.7637330  40.1456620 119.1179760
 111.5961610  47.5328870 119.6427410 111.0582700  48.2574930 119.3236110
 111.8495570  47.0559210 118.8524750 112.8486860  35.5013390 121.1683340
 113.4386550  35.1929240 121.8561160 112.0307100  35.0293140 121.3243240
 117.6680290  35.1179200 121.4016360 116.9795810  34.4560740 121.3366350
 118.3886310  34.6717470 121.8464820 114.4523820  48.7680080 119.9014060
 114.3782520  49.6715220 120.2086430 113.5502660  48.4491980 119.8736130
 115.0009150  47.9338590 107.5240420 115.8959940  48.2723560 107.5459180
 115.0326780  47.2118000 106.8964700 108.6405310  43.3065640 105.7527420
 109.0780180  43.8495310 106.4085000 109.1253040  42.4812590 105.7623760
 105.8551110  46.0954670 113.2047680 106.1854120  45.2275730 112.9726320
 106.2842110  46.3013190 114.0352640 110.4513030  44.4263680 110.8649650
 110.1508570  44.3028650 111.7653560 110.3450520  43.5672270 110.4565380
 106.3441320  46.9625260 115.9429310 105.9072310  47.1426060 116.7753460
 106.9119000  47.7199880 115.8011030 121.9803500  46.4642260 120.2306620
 121.3805490  46.5234820 119.4870540 122.1097400  45.5247240 120.3603470
 106.1765750  39.4745490 112.3018190 105.5214590  39.2057130 111.6577890
 107.0143700  39.3649970 111.8520170 123.6821380  41.8057660 112.9152460
 124.0530210  41.0224980 112.5088430 124.3223310  42.4946760 112.7369760
 120.6655140  43.1894240 118.3282780 119.8514980  43.6191400 118.5908570
 121.0729340  43.8012650 117.7151830 107.2141680  39.8598060 116.8421530
 107.5814720  39.7725460 117.7217550 106.6452500  39.0964610 116.7428390
 122.0145540  38.3282440 119.8552000 121.7831630  38.0995190 118.9549950
 122.2750090  39.2481990 119.8096890 106.7657680  36.7707150 120.7479950
 105.8713730  36.7373910 121.0873660 107.3055230  36.9693940 121.5131200
 120.4533610  33.5538870 122.6331700 121.3303790  33.5622270 123.0165700
 120.4654450  32.8169710 122.0224050 105.3903830  36.6844420 108.2443520
 104.4867910  36.9474620 108.0695180 105.8744450  36.9555590 107.4643480
 121.8996880  37.4068410 113.5219720 122.4234360  36.9131060 112.8909890
 122.4856300  37.5418770 114.2667290 122.0786600  37.4908280 117.0439270
 121.1289310  37.4571820 117.1584260 122.2599610  38.4008390 116.8089040
 107.9331040  35.7409960 106.1537900 108.6422740  35.3193180 105.6685180
 107.2170980  35.8085190 105.5221250 107.5805200  31.7949290 105.1940550
 108.3033330  32.3358230 105.5121770 107.8529720  31.5212710 104.3182090
 122.8184010  35.3002710 111.9949810 122.7083290  35.1458750 112.9332080
 123.5791600  34.7723650 111.7525220 121.1649730  31.2396840 118.4532810
 121.8021950  31.8530980 118.8192000 121.3124620  31.2757500 117.5082040
 123.7074280  33.1310630 105.2355950 124.6323590  32.9991810 105.0274240
 123.6850070  33.2103450 106.1892400 123.7812770  33.9021290 107.8612660
 122.9864270  33.8366410 108.3905570 123.9856050  34.8371930 107.8498010
 120.7231190  47.9412840 111.8551050 121.3190260  47.6197410 111.1785470
 120.9809340  47.4684660 112.6464320 108.6293760  44.3730750 122.0041680
 108.5863390  44.0023660 122.8856140 108.7604770  45.3108320 122.1443500
 112.3299790  45.9290340 117.6051400 112.0891150  46.1964900 116.7181920
 113.2702430  46.0996070 117.6602260 114.5354210  32.3923030 121.3607910
 114.4743100  32.9844860 122.1103320 115.4754590  32.2848990 121.2158170
 117.1728770  32.0493090 121.0000200 117.7869180  32.3672380 120.3381280
 117.7178330  31.5641680 121.6196060 123.5903950  47.9484720 118.4062040
 123.0962230  48.3453590 117.6889170 122.9817240  47.3233930 118.7999320
 107.6950030  30.7287350 121.1139260 108.2433020  30.5475400 120.3505370
 107.7605340  29.9381460 121.6495570 108.4681790  47.3193000 119.1239460
 107.8742110  47.1877700 119.8629500 108.4605630  46.4831140 118.6581560
 117.9136810  30.6125230 117.3269490 117.0396650  30.9460340 117.1242420
 117.8047560  30.1398410 118.1521360 118.8208790  32.8196100 118.7111210
 118.4922150  32.0047860 118.3312940 119.7691090  32.7765910 118.5876900
 121.2743400  48.5908140 115.6848780 120.8146370  49.3423950 115.3106800
 120.6455860  47.8714610 115.6263580 108.0994020  44.6851380 118.0747500
 107.3728080  44.0656670 118.0073450 108.1603170  45.0791990 117.2045580
 111.7039120  46.8996380 114.8596910 112.2204140  46.2883740 114.3345170
 112.3536500  47.4025160 115.3507920 114.4434620  47.7904870 115.6865890
 114.7312430  47.5359170 114.8098900 114.9557840  47.2382230 116.2771460
 115.6611630  31.5295070 116.2662400 114.8783420  32.0040570 116.5459160
 115.3674560  30.6249900 116.1575580 120.2132700  32.2318170 114.3111490
 120.6540790  32.1763270 113.4633090 119.9440290  33.1476180 114.3821670
 122.0771270  31.8633410 112.3220310 122.0159670  30.9194630 112.1751330
 122.8563300  31.9713500 112.8673770 106.3824020  48.0025770 111.2844260
 106.2146060  47.3696450 111.9826150 105.5158530  48.2085170 110.9338450
 107.0052040  31.8342550 108.7876120 107.7631400  31.9471430 108.2140150
 106.5429210  32.6711750 108.7419550 113.5465850  33.9481820 111.7778430
 112.7340360  33.5738710 111.4374310 114.0507490  33.1926900 112.0799620
 118.0490830  30.6124270 113.0161500 118.6520200  31.1844480 113.4910020
 117.3083820  31.1763710 112.7935400 121.1925430  31.0145830 108.2901780
 121.3876060  31.9129280 108.5569210 120.4055300  30.7832910 108.7834730
 107.9886720  46.6959000 108.7294400 107.4634340  47.0767030 108.0256360
 107.9131300  47.3209770 109.4504110 111.5715030  32.0981740 110.3823480
 110.9417770  31.3969050 110.5493610 111.0320170  32.8585870 110.1656640
 114.5106980  48.7120970 123.0534090 115.4374290  48.4765240 123.0970050
 114.4957410  49.5392970 122.5720120 122.7452040  48.2546540 110.0508340
 122.9204230  47.5684280 109.4069260 122.0473610  48.7793590 109.6585010
 111.6970590  31.3765720 122.8175970 111.4154860  31.8799320 122.0536790
 112.0790290  30.5787470 122.4518100 110.5879690  48.6441380 107.6043650
 111.3198510  48.3600660 107.0567540 110.8473360  48.4054660 108.4943030
 109.7494480  44.7606110 107.6089980 109.1203360  45.2291210 108.1575810
 109.8642310  43.9155330 108.0436170 118.2986050  30.7919300 123.3956440
 118.1851500  31.1113910 124.2907960 119.1155790  31.1931810 123.0993720
 121.0784540  47.9390830 122.8775130 121.8709860  47.4440060 122.6701090
 121.3717690  48.6180970 123.4850740 117.2044200  38.8111770  93.7591180
 117.1238250  37.8966380  93.4882890 116.7908620  39.3078840  93.0530890
 109.3329330  44.9350690  96.7134230 109.6357370  44.0448430  96.5344450
 110.0772920  45.4920910  96.4856480 115.5832980  47.2808990  94.0403570
 114.9644420  47.7366490  93.4698010 116.4384760  47.4360450  93.6393270
 106.9677900  33.8702500  97.9727230 106.7880740  32.9728250  98.2529990
 106.5657980  34.4174370  98.6474180 119.5900520  33.5668800  92.8067880
 120.4110140  33.0765370  92.8493360 119.6234600  34.1566460  93.5599720
 110.0625240  32.0528920  99.9345580 110.0643680  32.5701310  99.1291480
 109.2329550  31.5759100  99.9115510 116.4496330  42.1648230  91.4335480
 115.8313600  42.6297680  90.8698200 116.9619580  42.8575710  91.8504990
 109.7440570  33.7638880  97.9416030 110.0857380  34.6080930  97.6469900
 108.8056380  33.9122620  98.0581370 110.5247190  43.6604900  99.9268260
 111.1421190  44.3355980  99.6452710 109.6640310  44.0692880  99.8355760
 122.8948920  34.9523970  95.9704630 121.9473830  34.9862950  96.1020060
 123.2198910  35.7662920  96.3553990 120.2728940  43.6904660  91.6458250
 120.1625270  42.7478990  91.7707670 120.2697190  44.0520300  92.5321010
 115.8149220  39.3169980  91.0020740 114.8878500  39.2507360  91.2309210
 115.9674040  40.2550110  90.8875980 115.8018300  35.5886980  87.9987900
 114.8621970  35.7500940  88.0840360 116.1201560  36.3072660  87.4523890
 119.8446510  40.8790280  91.5055990 119.2258930  40.5409830  90.8582290
 119.8270960  40.2350040  92.2135180 111.8887560  43.5302280  95.9479680
 111.5915850  42.9247750  95.2687460 112.8387380  43.5679590  95.8369040
 110.9805990  43.2683970 102.5987480 110.0834520  43.4923940 102.8460880
 111.0058860  43.3918910 101.6498880 118.0211210  40.1177090  88.5128740
 118.4604490  39.2799520  88.3666560 118.7339630  40.7506490  88.5992880
 116.1306590  45.0573160  92.4809980 116.5702500  45.7997490  92.0665370
 116.0693480  45.2999730  93.4048940 111.6057560  46.0818990 103.3830000
 111.5772990  46.4861940 102.5158430 111.4422530  45.1529350 103.2201600
 121.6028350  31.3719900  86.8269780 121.2901010  31.4646730  87.7268850
 122.3640820  31.9500930  86.7767210 107.0043490  43.6095030  93.5021940
 106.5971570  43.7509620  92.6475540 107.8956500  43.3255190  93.2993150
 118.7976770  48.0442280  89.8372990 118.6377910  47.7545220  90.7354820
 118.6323480  47.2682410  89.3018220 118.5002900  45.5529840  88.3970990
 117.8068060  45.5507130  87.7373270 119.2425760  45.1289160  87.9665160
 118.0652830  47.1792550  92.4719480 118.5209780  46.3981930  92.7858100
 118.4045350  47.8899370  93.0160660 105.8155380  42.9509010  99.6310220
 105.9786420  42.4814370  98.8129590 106.2807830  42.4432570 100.2959060
 117.6086130  37.2111710  90.9942690 117.0095020  37.9347510  90.8106310
 118.1565740  37.1488490  90.2119140 107.9498120  34.5147590 101.2146090
 107.5561510  35.3622800 101.4218870 107.2616520  33.8773960 101.4054730
 113.3003680  36.1147280  88.5156000 113.4216500  36.0733760  89.4641820
 112.9152190  36.9771430  88.3602730 112.3125180  38.4248420  87.9139300
 111.7442080  37.9766670  87.2875210 113.0214180  38.7841200  87.3804450
 120.6902800  31.3046860 102.3706070 121.0148570  30.5736520 102.8964050
 120.7259310  30.9860500 101.4687060 107.3894360  42.3260440 101.7906030
 107.0049150  41.6854110 102.3888990 107.7006550  43.0296560 102.3600760
 116.0770580  32.8109930  90.1221490 115.2635190  32.3123100  90.0466800
 115.8832530  33.6508180  89.7057840 118.7918970  37.1829580  88.4183650
 119.6798590  37.4946810  88.2434990 118.7624060  36.3101830  88.0264230
 109.9010060  42.0886990  93.8244520 110.4188730  41.2855250  93.7701410
 109.4494080  42.0266130  94.6661350 114.7879560  43.3553270  89.0971820
 115.1295260  44.0995500  88.6015140 113.9592270  43.6684390  89.4596650
 121.0633240  38.4941420  87.8863510 120.9796960  38.9255640  87.0359950
 121.7827430  38.9539770  88.3190330 122.0920490  45.3483680  90.6145640
 121.4496650  44.6939300  90.8889360 121.7051150  45.7538770  89.8386310
 113.7570250  43.4366800  91.8687740 114.4441380  43.9836010  92.2495330
 112.9702670  43.9807530  91.9037350 113.0597460  40.4412830  91.4813100
 113.5160240  41.2518080  91.7073290 112.7085670  40.1235970  92.3131590
 120.4817870  44.2400140  87.1521990 120.2555450  43.5230580  87.7446630
 120.0914070  43.9912580  86.3143740 106.2633900  48.2667000  87.9266450
 106.6231540  48.8656340  87.2723720 106.1226240  48.8126890  88.7001480
 105.9603170  32.5441600 101.4142320 105.2461690  32.7438520 102.0194930
 106.3798210  31.7681170 101.7857120 120.0634120  42.1572080  88.8136150
 119.7755820  42.6184770  89.6014030 120.8586290  41.6969850  89.0820370
 106.2475760  46.5321860 102.4008850 106.3566880  45.5916600 102.2604240
 105.5956320  46.7976610 101.7522580 112.2802520  45.6498200  88.7440120
 112.2712620  46.3827890  88.1284630 111.3600880  45.4029780  88.8367080
 120.8203980  33.9920850  89.9731330 120.1917140  34.0966520  89.2589560
 120.3255900  34.2117630  90.7625210 115.2662120  45.7126440  87.4065310
 115.3674100  45.5090430  86.4767290 114.3663860  45.4584720  87.6113090
 116.8203440  32.9957460  92.8285000 116.6971220  33.0143590  91.8794510
 117.7688000  33.0436400  92.9483400 119.9132810  39.1504640  93.6771490
 118.9722950  39.1654870  93.8519180 120.2276880  38.3640600  94.1231790
 109.3875920  48.4144700  95.0242880 110.1238400  47.8660160  95.2951450
 109.7716840  49.2800710  94.8848870 106.2721400  44.4818270  90.8984390
 105.3461180  44.7239410  90.8889800 106.7377830  45.3092530  90.7769140
 108.3934200  47.5990770 104.2128460 109.1946930  47.9202820 104.6263860
 107.8786020  47.2386350 104.9348370 121.5508400  46.8145140  88.2705190
 121.2649910  46.4010280  87.4559370 121.3527950  47.7432850  88.1505710
 106.1132010  40.0864230 103.1564510 106.6171030  39.5071510 103.7280740
 105.3739430  40.3704460 103.6940880 113.0155630  42.8078420  86.7110800
 112.9106270  42.1930770  87.4372180 112.8479850  42.2844310  85.9273810
 116.2558360  41.8698450  87.3152790 115.7068460  42.3167750  87.9595530
 116.8777620  41.3647700  87.8390460 108.1455090  38.2293820 104.0514580
 108.1860430  37.9307690 104.9599810 109.0000590  38.6301430 103.8922100
 111.9233480  40.8289370  89.2118090 112.3449900  40.6629240  90.0549480
 112.0484320  40.0189600  88.7173230 114.4361120  39.8526980  86.4595190
 114.9566780  39.1376000  86.0936340 115.0829520  40.4912850  86.7595700
 111.5961610  47.5328870 100.8683920 111.0582700  48.2574930 100.5492620
 111.8495570  47.0559210 100.0781260 118.2980690  31.7130830  88.6863130
 118.5782980  30.8698730  89.0422550 117.5246420  31.9453940  89.2001880
 114.4523820  48.7680080 101.1270570 114.3782520  49.6715220 101.4342940
 113.5502660  48.4491980 101.0992640 112.8360110  32.9457840  87.1310330
 112.4882110  32.2681830  86.5512780 113.0372880  32.4847350  87.9453720
 105.8551110  46.0954670  94.4304190 106.1854120  45.2275730  94.1982830
 106.2842110  46.3013190  95.2609150 110.4513030  44.4263680  92.0906160
 110.1508570  44.3028650  92.9910070 110.3450520  43.5672270  91.6821890
 106.3441320  46.9625260  97.1685820 105.9072310  47.1426060  98.0009970
 106.9119000  47.7199880  97.0267540 123.2204950  44.2060080  86.7932840
 122.3897910  44.2736730  87.2640070 123.3976780  45.0964200  86.4899700
 122.6761410  40.9507560  89.2967040 123.4380320  41.5204210  89.4026730
 122.6915780  40.3834760  90.0675350 122.7280580  41.2441930  86.4539560
 123.0029420  42.1520810  86.3258780 122.5391320  41.1804460  87.3901550
 119.1256190  34.2686780  87.7493190 119.5441070  34.0817760  86.9089850
 118.8192250  33.4165830  88.0596120 122.6245920  39.1810920  91.4468990
 122.2489520  38.4138850  91.0150280 121.8949040  39.5633620  91.9343920
 106.7657680  36.7707150 101.9736460 105.8713730  36.7373910 102.3130170
 107.3055230  36.9693940 102.7387710 120.4533610  33.5538870 103.8588210
 121.3303790  33.5622270 104.2422210 120.4654450  32.8169710 103.2480560
 121.8996880  37.4068410  94.7476230 122.4234360  36.9131060  94.1166400
 122.4856300  37.5418770  95.4923800 107.5805200  31.7949290  86.4197060
 108.3033330  32.3358230  86.7378280 107.8529720  31.5212710  85.5438600
 121.3896850  36.6641760  90.6868640 121.8855970  36.4312630  91.4717520
 121.1912920  35.8253600  90.2706280 107.2697390  31.0455480  96.3219680
 107.9173580  30.4952860  95.8814840 107.6899230  31.2998630  97.1435490
 122.8184010  35.3002710  93.2206320 122.7083290  35.1458750  94.1588590
 123.5791600  34.7723650  92.9781730 121.1649730  31.2396840  99.6789320
 121.8021950  31.8530980 100.0448510 121.3124620  31.2757500  98.7338550
 123.7074280  33.1310630  86.4612460 124.6323590  32.9991810  86.2530750
 123.6850070  33.2103450  87.4148910 123.7812770  33.9021290  89.0869170
 122.9864270  33.8366410  89.6162080 123.9856050  34.8371930  89.0754520
 120.7231190  47.9412840  93.0807560 121.3190260  47.6197410  92.4041980
 120.9809340  47.4684660  93.8720830 107.0229390  31.2011150  99.0645000
 106.6744210  31.6574970  99.8303180 106.6917090  30.3068280  99.1467430
 108.6293760  44.3730750 103.2298190 108.5863390  44.0023660 104.1112650
 108.7604770  45.3108320 103.3700010 112.3299790  45.9290340  98.8307910
 112.0891150  46.1964900  97.9438430 113.2702430  46.0996070  98.8858770
 107.6950030  30.7287350 102.3395770 108.2433020  30.5475400 101.5761880
 107.7605340  29.9381460 102.8752080 108.4681790  47.3193000 100.3495970
 107.8742110  47.1877700 101.0886010 108.4605630  46.4831140  99.8838070
 117.9136810  30.6125230  98.5526000 117.0396650  30.9460340  98.3498930
 117.8047560  30.1398410  99.3777870 108.0994020  44.6851380  99.3004010
 107.3728080  44.0656670  99.2329960 108.1603170  45.0791990  98.4302090
 111.7039120  46.8996380  96.0853420 112.2204140  46.2883740  95.5601680
 112.3536500  47.4025160  96.5764430 114.4434620  47.7904870  96.9122400
 114.7312430  47.5359170  96.0355410 114.9557840  47.2382230  97.5027970
 115.6611630  31.5295070  97.4918910 114.8783420  32.0040570  97.7715670
 115.3674560  30.6249900  97.3832090 120.2132700  32.2318170  95.5368000
 120.6540790  32.1763270  94.6889600 119.9440290  33.1476180  95.6078180
 122.0771270  31.8633410  93.5476820 122.0159670  30.9194630  93.4007840
 122.8563300  31.9713500  94.0930280 118.0490830  30.6124270  94.2418010
 118.6520200  31.1844480  94.7166530 117.3083820  31.1763710  94.0191910
 121.1925430  31.0145830  89.5158290 121.3876060  31.9129280  89.7825720
 120.4055300  30.7832910  90.0091240 107.9886720  46.6959000  89.9550910
 107.4634340  47.0767030  89.2512870 107.9131300  47.3209770  90.6760620
 114.5106980  48.7120970 104.2790600 115.4374290  48.4765240 104.3226560
 114.4957410  49.5392970 103.7976630 122.7452040  48.2546540  91.2764850
 122.9204230  47.5684280  90.6325770 122.0473610  48.7793590  90.8841520
 109.7494480  44.7606110  88.8346490 109.1203360  45.2291210  89.3832320
 109.8642310  43.9155330  89.2692680 118.2986050  30.7919300 104.6212950
 118.1851500  31.1113910 105.5164470 119.1155790  31.1931810 104.3250230
 117.2044200  38.8111770  74.9847690 117.1238250  37.8966380  74.7139400
 116.7908620  39.3078840  74.2787400 119.3569670  44.9950980  75.6456090
 118.8951200  44.2238220  75.9743260 120.1695220  45.0217050  76.1508540
 115.5832980  47.2808990  75.2660080 114.9644420  47.7366490  74.6954520
 116.4384760  47.4360450  74.8649780 114.7771230  43.2647980  76.8727120
 114.7079510  42.3237920  76.7116250 115.5391090  43.3549390  77.4449690
 115.8076400  36.0718360  77.0996050 116.1841220  35.1990240  76.9869720
 115.7095910  36.4077060  76.2086490 119.5900520  33.5668800  74.0324390
 120.4110140  33.0765370  74.0749870 119.6234600  34.1566460  74.7856230
 119.8262000  35.5069180  76.8051930 119.1217570  35.7954070  77.3855040
 120.1874160  36.3169290  76.4451490 122.8948920  34.9523970  77.1961140
 121.9473830  34.9862950  77.3276570 123.2198910  35.7662920  77.5810500
 113.4268460  31.2521150  75.4917130 113.7343440  30.6968040  74.7752630
 112.4969160  31.3865610  75.3090120 118.3768960  41.8718280  79.1107200
 118.7937750  41.6578390  78.2760660 119.1008780  42.1291070  79.6815820
 110.9805990  43.2683970  83.8243990 110.0834520  43.4923940  84.0717390
 111.0058860  43.3918910  82.8755390 111.6057560  46.0818990  84.6086510
 111.5772990  46.4861940  83.7414940 111.4422530  45.1529350  84.4458110
 121.6028350  31.3719900  68.0526290 121.2901010  31.4646730  68.9525360
 122.3640820  31.9500930  68.0023720 108.1210490  38.7379700  72.5103630
 108.0008090  39.4641790  71.8984900 107.8111380  37.9682610  72.0331540
 123.5572380  46.8646090  85.9050680 124.0332100  47.3428980  86.5839760
 124.1779540  46.7963580  85.1796180 122.9605630  44.0558940  83.0650690
 123.0868690  43.8170820  82.1467870 123.0027010  43.2243480  83.5372770
 111.2765150  47.8240810  72.8401120 111.1007630  46.9076350  72.6268920
 110.4220890  48.1828100  73.0798920 116.9698180  37.6693990  84.7258070
 117.2951590  36.8357740  84.3860300 117.7578510  38.1922510  84.8736400
 117.6086130  37.2111710  72.2199200 117.0095020  37.9347510  72.0362820
 118.1565740  37.1488490  71.4375650 114.5243170  34.5982560  85.5099340
 113.8341490  34.4054760  86.1445430 115.2675470  34.8817200  86.0423640
 105.4385400  36.3796170  67.6835400 105.3560070  37.3226930  67.8250390
 105.0868460  36.2371080  66.8047750 116.8006140  38.4381000  78.3453260
 116.0687260  38.9467810  78.6943360 116.4030480  37.6210980  78.0442040
 117.2632050  33.8914680  77.7576200 117.2804790  34.3423330  78.6018050
 117.0147630  32.9920320  77.9709640 112.3125180  38.4248420  69.1395810
 111.7442080  37.9766670  68.5131720 113.0214180  38.7841200  68.6060960
 120.6902800  31.3046860  83.5962580 121.0148570  30.5736520  84.1220560
 120.7259310  30.9860500  82.6943570 107.3894360  42.3260440  83.0162540
 107.0049150  41.6854110  83.6145500 107.7006550  43.0296560  83.5857270
 109.8572660  42.4206610  71.4122220 109.0834920  41.8804230  71.2520940
 110.5867290  41.9013220  71.0739980 120.6160640  41.4171970  77.2048610
 121.3359760  41.9127260  76.8144720 120.4142460  40.7389860  76.5602480
 118.7918970  37.1829580  69.6440160 119.6798590  37.4946810  69.4691500
 118.7624060  36.3101830  69.2520740 115.9296170  44.3101600  82.8421410
 115.9440710  43.3782560  82.6240320 115.2221270  44.3961360  83.4811180
 113.7570250  43.4366800  73.0944250 114.4441380  43.9836010  73.4751840
 112.9702670  43.9807530  73.1293860 105.8962650  39.0539620  68.5861330
 106.7657500  39.3364420  68.8697250 105.4052970  39.8675490  68.4710140
 113.0597460  40.4412830  72.7069610 113.5160240  41.2518080  72.9329800
 112.7085670  40.1235970  73.5388100 115.3630070  45.9519170  79.9361910
 116.0072290  46.1578550  80.6135330 115.7259510  45.1907570  79.4832760
 116.6362150  43.9551520  78.6539360 117.2784380  43.2544680  78.7671530
 117.1611500  44.7349960  78.4736250 106.2475760  46.5321860  83.6265360
 106.3566880  45.5916600  83.4860750 105.5956320  46.7976610  82.9779090
 114.2388350  44.8037750  85.0263480 113.9185220  44.0846990  85.5709170
 113.5646710  45.4792820  85.0999540 107.8809160  40.8713090  70.7143390
 107.2737110  41.6111990  70.7238690 108.3558510  40.9612450  69.8881590
 117.4541950  35.0363910  80.3900280 117.8222770  34.2159120  80.7179850
 116.5940150  35.0965800  80.8055930 120.8203980  33.9920850  71.1987840
 120.1917140  34.0966520  70.4846070 120.3255900  34.2117630  71.9881720
 119.9132810  39.1504640  74.9028000 118.9722950  39.1654870  75.0775690
 120.2276880  38.3640600  75.3488300 109.8914450  40.8324240  68.4631960
 110.6577720  40.7205600  69.0257390 109.9689140  40.1362210  67.8108730
 108.5861210  38.2649310  69.1464850 108.6664800  37.3176820  69.2582250
 109.4780960  38.5956190  69.2525510 121.9158390  46.3213490  76.5782260
 122.0405810  47.1444660  77.0506070 122.7823950  46.1104220  76.2306410
 109.3875920  48.4144700  76.2499390 110.1238400  47.8660160  76.5207960
 109.7716840  49.2800710  76.1105380 108.3934200  47.5990770  85.4384970
 109.1946930  47.9202820  85.8520370 107.8786020  47.2386350  86.1604880
 117.2298830  43.7070640  85.3860380 116.6236990  43.7302240  84.6456130
 116.9252940  42.9753680  85.9227630 121.5508400  46.8145140  69.4961700
 121.2649910  46.4010280  68.6815880 121.3527950  47.7432850  69.3762220
 120.3093300  43.2240550  84.4731560 121.0502770  43.5616310  83.9699020
 119.5465980  43.3932610  83.9201330 111.9233480  40.8289370  70.4374600
 112.3449900  40.6629240  71.2805990 112.0484320  40.0189600  69.9429740
 114.4361120  39.8526980  67.6851700 114.9566780  39.1376000  67.3192850
 115.0829520  40.4912850  67.9852210 118.9838960  41.2755380  83.0086770
 119.3979980  41.4300460  83.8577190 118.0489960  41.4010600  83.1712550
 119.4561130  38.6151540  85.0125920 120.0381900  37.8603860  84.9246400
 119.6322900  39.1458980  84.2357400 118.4205990  39.5129230  80.9383050
 117.8941210  40.0371850  80.3348190 118.7637330  40.1456620  81.5692780
 110.8192380  36.9022600  67.3832760 110.6181440  36.0389960  67.7446100
 110.6484430  36.8155960  66.4454360 111.5961610  47.5328870  82.0940430
 111.0582700  48.2574930  81.7749130 111.8495570  47.0559210  81.3037770
 117.6680290  35.1179200  83.8529380 116.9795810  34.4560740  83.7879370
 118.3886310  34.6717470  84.2977840 109.6175180  34.0023220  67.3710640
 109.9201080  34.0090650  66.4629790 110.3569770  33.6521080  67.8678300
 114.4523820  48.7680080  82.3527080 114.3782520  49.6715220  82.6599450
 113.5502660  48.4491980  82.3249150 108.6405310  43.3065640  68.2040440
 109.0780180  43.8495310  68.8598020 109.1253040  42.4812590  68.2136780
 110.4513030  44.4263680  73.3162670 110.1508570  44.3028650  74.2166580
 110.3450520  43.5672270  72.9078400 106.1765750  39.4745490  74.7531210
 105.5214590  39.2057130  74.1090910 107.0143700  39.3649970  74.3033190
 123.6821380  41.8057660  75.3665480 124.0530210  41.0224980  74.9601450
 124.3223310  42.4946760  75.1882780 119.1256190  34.2686780  68.9749700
 119.5441070  34.0817760  68.1346360 118.8192250  33.4165830  69.2852630
 122.6245920  39.1810920  72.6725500 122.2489520  38.4138850  72.2406790
 121.8949040  39.5633620  73.1600430 121.8996880  37.4068410  75.9732740
 122.4234360  36.9131060  75.3422910 122.4856300  37.5418770  76.7180310
 121.3896850  36.6641760  71.9125150 121.8855970  36.4312630  72.6974030
 121.1912920  35.8253600  71.4962790 122.8184010  35.3002710  74.4462830
 122.7083290  35.1458750  75.3845100 123.5791600  34.7723650  74.2038240
 121.1649730  31.2396840  80.9045830 121.8021950  31.8530980  81.2705020
 121.3124620  31.2757500  79.9595060 123.7074280  33.1310630  67.6868970
 124.6323590  32.9991810  67.4787260 123.6850070  33.2103450  68.6405420
 123.7812770  33.9021290  70.3125680 122.9864270  33.8366410  70.8418590
 123.9856050  34.8371930  70.3011030 120.7231190  47.9412840  74.3064070
 121.3190260  47.6197410  73.6298490 120.9809340  47.4684660  75.0977340
 108.6293760  44.3730750  84.4554700 108.5863390  44.0023660  85.3369160
 108.7604770  45.3108320  84.5956520 112.3299790  45.9290340  80.0564420
 112.0891150  46.1964900  79.1694940 113.2702430  46.0996070  80.1115280
 117.1728770  32.0493090  83.4513220 117.7869180  32.3672380  82.7894300
 117.7178330  31.5641680  84.0709080 123.5903950  47.9484720  80.8575060
 123.0962230  48.3453590  80.1402190 122.9817240  47.3233930  81.2512340
 107.6950030  30.7287350  83.5652280 108.2433020  30.5475400  82.8018390
 107.7605340  29.9381460  84.1008590 108.4681790  47.3193000  81.5752480
 107.8742110  47.1877700  82.3142520 108.4605630  46.4831140  81.1094580
 117.9136810  30.6125230  79.7782510 117.0396650  30.9460340  79.5755440
 117.8047560  30.1398410  80.6034380 118.8208790  32.8196100  81.1624230
 118.4922150  32.0047860  80.7825960 119.7691090  32.7765910  81.0389920
 111.7039120  46.8996380  77.3109930 112.2204140  46.2883740  76.7858190
 112.3536500  47.4025160  77.8020940 114.4434620  47.7904870  78.1378910
 114.7312430  47.5359170  77.2611920 114.9557840  47.2382230  78.7284480
 115.6611630  31.5295070  78.7175420 114.8783420  32.0040570  78.9972180
 115.3674560  30.6249900  78.6088600 120.2132700  32.2318170  76.7624510
 120.6540790  32.1763270  75.9146110 119.9440290  33.1476180  76.8334690
 122.0771270  31.8633410  74.7733330 122.0159670  30.9194630  74.6264350
 122.8563300  31.9713500  75.3186790 106.3824020  48.0025770  73.7357280
 106.2146060  47.3696450  74.4339170 105.5158530  48.2085170  73.3851470
 118.0490830  30.6124270  75.4674520 118.6520200  31.1844480  75.9423040
 117.3083820  31.1763710  75.2448420 121.1925430  31.0145830  70.7414800
 121.3876060  31.9129280  71.0082230 120.4055300  30.7832910  71.2347750
 111.5715030  32.0981740  72.8336500 110.9417770  31.3969050  73.0006630
 111.0320170  32.8585870  72.6169660 122.7452040  48.2546540  72.5021360
 122.9204230  47.5684280  71.8582280 122.0473610  48.7793590  72.1098030
 110.5879690  48.6441380  70.0556670 111.3198510  48.3600660  69.5080560
 110.8473360  48.4054660  70.9456050 109.7494480  44.7606110  70.0603000
 109.1203360  45.2291210  70.6088830 109.8642310  43.9155330  70.4949190
 118.2986050  30.7919300  85.8469460 118.1851500  31.1113910  86.7420980
 119.1155790  31.1931810  85.5506740 117.2044200  38.8111770  56.2104200
 117.1238250  37.8966380  55.9395910 116.7908620  39.3078840  55.5043910
 115.3362240  40.5890790  58.0913470 114.5604340  40.1091230  58.3812040
 115.9875170  39.9096440  57.9169630 109.3528070  40.9010600  58.9689230
 108.5212950  40.6459310  59.3685740 109.9609050  40.9721370  59.7047150
 109.3329330  44.9350690  59.1647250 109.6357370  44.0448430  58.9857470
 110.0772920  45.4920910  58.9369500 105.7253030  38.4618140  58.6371320
 106.2969140  37.6940340  58.6374960 105.7254570  38.7606900  57.7277930
 115.5832980  47.2808990  56.4916590 114.9644420  47.7366490  55.9211030
 116.4384760  47.4360450  56.0906290 114.7771230  43.2647980  58.0983630
 114.7079510  42.3237920  57.9372760 115.5391090  43.3549390  58.6706200
 106.9677900  33.8702500  60.4240250 106.7880740  32.9728250  60.7043010
 106.5657980  34.4174370  61.0987200 115.8076400  36.0718360  58.3252560
 116.1841220  35.1990240  58.2126230 115.7095910  36.4077060  57.4343000
 119.5900520  33.5668800  55.2580900 120.4110140  33.0765370  55.3006380
 119.6234600  34.1566460  56.0112740 107.5864570  36.3663000  59.0322590
 108.2674680  36.6301370  59.6509990 107.2712620  35.5263870  59.3660600
 111.7789140  37.4130360  58.1195180 112.2867360  37.9111330  58.7600200
 112.3102380  36.6365560  57.9434540 123.8800070  35.5835550  61.8224530
 123.1752240  35.9717260  61.3039640 124.1457990  36.2785840  62.4245460
 110.0625240  32.0528920  62.3858600 110.0643680  32.5701310  61.5804500
 109.2329550  31.5759100  62.3628530 111.3128090  41.6924100  60.5632100
 110.9797470  42.3193020  61.2053170 111.4894770  42.2185980  59.7833770
 119.8262000  35.5069180  58.0308440 119.1217570  35.7954070  58.6111550
 120.1874160  36.3169290  57.6708000 109.7440570  33.7638880  60.3929050
 110.0857380  34.6080930  60.0982920 108.8056380  33.9122620  60.5094390
 110.5247190  43.6604900  62.3781280 111.1421190  44.3355980  62.0965730
 109.6640310  44.0692880  62.2868780 105.8179530  42.8504760  51.2588130
 105.4407510  43.3391860  50.5273030 106.0752600  43.5230040  51.8894660
 122.8948920  34.9523970  58.4217650 121.9473830  34.9862950  58.5533080
 123.2198910  35.7662920  58.8067010 113.4268460  31.2521150  56.7173640
 113.7343440  30.6968040  56.0009140 112.4969160  31.3865610  56.5346630
 118.9783520  46.9688440  59.0081100 118.9910680  46.5650730  58.1403360
 118.4258740  47.7435730  58.9042530 118.3768960  41.8718280  60.3363710
 118.7937750  41.6578390  59.5017170 119.1008780  42.1291070  60.9072330
 115.8149220  39.3169980  53.4533760 114.8878500  39.2507360  53.6822230
 115.9674040  40.2550110  53.3389000 115.8018300  35.5886980  50.4500920
 114.8621970  35.7500940  50.5353380 116.1201560  36.3072660  49.9036910
 122.3231060  40.2705500  60.4279950 121.4949690  40.3398590  59.9530080
 122.9181540  40.8559810  59.9595780 119.2873070  37.0574820  61.3734820
 118.8744250  37.8828530  61.6274810 118.5549020  36.4719860  61.1811180
 111.4205860  39.8434720  56.2353490 111.0162860  39.1311970  55.7399390
 111.5068980  39.4987960  57.1241530 111.8887560  43.5302280  58.3992700
 111.5915850  42.9247750  57.7200480 112.8387380  43.5679590  58.2882060
 110.1334480  36.6177930  60.0152530 110.6849070  36.7273270  59.2405780
 110.6477990  36.9915530  60.7307760 110.9805990  43.2683970  65.0500500
 110.0834520  43.4923940  65.2973900 111.0058860  43.3918910  64.1011900
 118.0211210  40.1177090  50.9641760 118.4604490  39.2799520  50.8179580
 118.7339630  40.7506490  51.0505900 109.8077210  40.1397290  63.6257870
 109.6684980  41.0120090  63.9945270 108.9258570  39.7970100  63.4805810
 111.6057560  46.0818990  65.8343020 111.5772990  46.4861940  64.9671450
 111.4422530  45.1529350  65.6714620 121.6028350  31.3719900  49.2782800
 121.2901010  31.4646730  50.1781870 122.3640820  31.9500930  49.2280230
 108.1210490  38.7379700  53.7360140 108.0008090  39.4641790  53.1241410
 107.8111380  37.9682610  53.2588050 105.7595860  41.9094840  59.5428780
 105.8376280  42.0443610  58.5984500 106.3737540  41.2010730  59.7356900
 107.0043490  43.6095030  55.9534960 106.5971570  43.7509620  55.0988560
 107.8956500  43.3255190  55.7506170 122.8129640  36.1091400  65.2556940
 122.1973910  36.6171070  64.7272400 122.4926060  35.2089730  65.1982880
 105.8155380  42.9509010  62.0823240 105.9786420  42.4814370  61.2642610
 106.2807830  42.4432570  62.7472080 110.5874150  32.0814770  57.1183810
 110.1442300  32.8624310  56.7868330 111.1459140  32.4044660  57.8254750
 114.8743960  34.9483290  62.7219130 114.4123330  35.1566310  63.5339070
 114.4722070  34.1342640  62.4189800 119.8748470  36.1692240  63.8515790
 119.0242060  35.8697990  64.1724860 119.7150260  36.4134250  62.9399610
 116.9698180  37.6693990  65.9514580 117.2951590  36.8357740  65.6116810
 117.7578510  38.1922510  66.0992910 112.6250050  32.6262100  58.9773410
 112.9222380  33.5324930  58.8965430 113.1735610  32.1380880  58.3632980
 117.6086130  37.2111710  53.4455710 117.0095020  37.9347510  53.2619330
 118.1565740  37.1488490  52.6632160 112.8187580  38.1033920  65.5125330
 112.7231180  37.1628650  65.3625730 113.6619560  38.3248990  65.1173400
 116.2151000  35.8475250  55.4758990 116.6080570  36.1647450  54.6627680
 116.5767850  34.9687130  55.5903510 116.8006140  38.4381000  59.5709770
 116.0687260  38.9467810  59.9199870 116.4030480  37.6210980  59.2698550
 113.2383530  35.1135200  57.9762260 113.2419590  34.6725150  57.1266800
 114.1334650  35.4352530  58.0834080 117.2632050  33.8914680  58.9832710
 117.2804790  34.3423330  59.8274560 117.0147630  32.9920320  59.1966150
 112.3125180  38.4248420  50.3652320 111.7442080  37.9766670  49.7388230
 113.0214180  38.7841200  49.8317470 120.6902800  31.3046860  64.8219090
 121.0148570  30.5736520  65.3477070 120.7259310  30.9860500  63.9200080
 107.3894360  42.3260440  64.2419050 107.0049150  41.6854110  64.8402010
 107.7006550  43.0296560  64.8113780 113.5391500  39.1736980  59.7227670
 113.9061630  38.6995550  60.4689010 113.3496560  40.0478550  60.0636010
 111.3290870  38.2145620  62.0411880 111.0247940  39.0937600  62.2662240
 112.2837330  38.2745410  62.0769320 109.8572660  42.4206610  52.6378730
 109.0834920  41.8804230  52.4777450 110.5867290  41.9013220  52.2996490
 116.0770580  32.8109930  52.5734510 115.2635190  32.3123100  52.4979820
 115.8832530  33.6508180  52.1570860 115.9979440  41.4881030  64.3174120
 115.9316750  40.5676700  64.0631710 115.3684580  41.5856470  65.0318760
 118.7918970  37.1829580  50.8696670 119.6798590  37.4946810  50.6948010
 118.7624060  36.3101830  50.4777250 109.9010060  42.0886990  56.2757540
 110.4188730  41.2855250  56.2214430 109.4494080  42.0266130  57.1174370
 114.7879560  43.3553270  51.5484840 115.1295260  44.0995500  51.0528160
 113.9592270  43.6684390  51.9109670 107.3854600  39.0548360  63.1883240
 107.0269540  39.7202210  63.7756580 107.0909160  38.2231910  63.5595860
 110.5867720  39.5132600  66.0722790 110.2867860  39.6589780  65.1750610
 111.3578960  38.9537890  65.9796180 121.0633240  38.4941420  50.3376530
 120.9796960  38.9255640  49.4872970 121.7827430  38.9539770  50.7703350
 122.1407380  40.9508940  63.4146500 121.4155570  41.5437720  63.2175890
 122.6682840  40.9432480  62.6159870 113.7570250  43.4366800  54.3200760
 114.4441380  43.9836010  54.7008350 112.9702670  43.9807530  54.3550370
 105.8962650  39.0539620  49.8117840 106.7657500  39.3364420  50.0953760
 105.4052970  39.8675490  49.6966650 113.0597460  40.4412830  53.9326120
 113.5160240  41.2518080  54.1586310 112.7085670  40.1235970  54.7644610
 115.3630070  45.9519170  61.1618420 116.0072290  46.1578550  61.8391840
 115.7259510  45.1907570  60.7089270 116.6362150  43.9551520  59.8795870
 117.2784380  43.2544680  59.9928040 117.1611500  44.7349960  59.6992760
 106.2633900  48.2667000  50.3779470 106.6231540  48.8656340  49.7236740
 106.1226240  48.8126890  51.1514500 106.2475760  46.5321860  64.8521870
 106.3566880  45.5916600  64.7117260 105.5956320  46.7976610  64.2035600
 107.8809160  40.8713090  51.9399900 107.2737110  41.6111990  51.9495200
 108.3558510  40.9612450  51.1138100 117.4541950  35.0363910  61.6156790
 117.8222770  34.2159120  61.9436360 116.5940150  35.0965800  62.0312440
 120.8203980  33.9920850  52.4244350 120.1917140  34.0966520  51.7102580
 120.3255900  34.2117630  53.2138230 114.4143940  37.6903500  61.8394760
 114.9129190  38.1649320  62.5046610 114.5566890  36.7667020  62.0464790
 116.8203440  32.9957460  55.2798020 116.6971220  33.0143590  54.3307530
 117.7688000  33.0436400  55.3996420 121.6210800  33.9071460  62.6823150
 121.1184400  34.6476860  63.0216960 122.4367460  34.2955460  62.3659940
 119.9132810  39.1504640  56.1284510 118.9722950  39.1654870  56.3032200
 120.2276880  38.3640600  56.5744810 109.8914450  40.8324240  49.6888470
 110.6577720  40.7205600  50.2513900 109.9689140  40.1362210  49.0365240
 108.5861210  38.2649310  50.3721360 108.6664800  37.3176820  50.4838760
 109.4780960  38.5956190  50.4782020 106.2721400  44.4818270  53.3497410
 105.3461180  44.7239410  53.3402820 106.7377830  45.3092530  53.2282160
 108.3934200  47.5990770  66.6641480 109.1946930  47.9202820  67.0776880
 107.8786020  47.2386350  67.3861390 106.1132010  40.0864230  65.6077530
 106.6171030  39.5071510  66.1793760 105.3739430  40.3704460  66.1453900
 113.0155630  42.8078420  49.1623820 112.9106270  42.1930770  49.8885200
 112.8479850  42.2844310  48.3786830 113.1669950  41.4935220  65.1413050
 112.4015620  42.0620220  65.0567720 113.3485910  41.2011430  64.2481280
 116.2558360  41.8698450  49.7665810 115.7068460  42.3167750  50.4108550
 116.8777620  41.3647700  50.2903480 108.1455090  38.2293820  66.5027600
 108.1860430  37.9307690  67.4112830 109.0000590  38.6301430  66.3435120
 111.9233480  40.8289370  51.6631110 112.3449900  40.6629240  52.5062500
 112.0484320  40.0189600  51.1686250 110.0860900  36.8085920  64.4702090
 109.5557360  36.3176870  63.8425430 110.7548970  37.2370120  63.9360020
 114.4361120  39.8526980  48.9108210 114.9566780  39.1376000  48.5449360
 115.0829520  40.4912850  49.2108720 118.9838960  41.2755380  64.2343280
 119.3979980  41.4300460  65.0833700 118.0489960  41.4010600  64.3969060
 119.4561130  38.6151540  66.2382430 120.0381900  37.8603860  66.1502910
 119.6322900  39.1458980  65.4613910 110.5733200  33.7748290  64.5499380
 110.4790070  33.1569040  63.8250250 109.9930590  34.5014580  64.3229290
 113.3394640  32.3321530  61.5826770 112.8911940  32.3545790  60.7372320
 112.7059840  31.9340550  62.1797070 113.7454190  41.2275860  62.2039210
 114.1642300  42.0708590  62.0315450 112.8262820  41.3647900  61.9745990
 116.0818090  38.9592040  63.5877050 116.2014300  38.3633180  64.3271890
 116.9412090  38.9961730  63.1678350 118.4205990  39.5129230  62.1639560
 117.8941210  40.0371850  61.5604700 118.7637330  40.1456620  62.7949290
 110.8192380  36.9022600  48.6089270 110.6181440  36.0389960  48.9702610
 110.6484430  36.8155960  47.6710870 111.5961610  47.5328870  63.3196940
 111.0582700  48.2574930  63.0005640 111.8495570  47.0559210  62.5294280
 112.8486860  35.5013390  64.8452870 113.4386550  35.1929240  65.5330690
 112.0307100  35.0293140  65.0012770 117.6680290  35.1179200  65.0785890
 116.9795810  34.4560740  65.0135880 118.3886310  34.6717470  65.5234350
 118.2980690  31.7130830  51.1376150 118.5782980  30.8698730  51.4935570
 117.5246420  31.9453940  51.6514900 108.6405310  43.3065640  49.4296950
 109.0780180  43.8495310  50.0854530 109.1253040  42.4812590  49.4393290
 122.6761410  40.9507560  51.7480060 123.4380320  41.5204210  51.8539750
 122.6915780  40.3834760  52.5188370 106.1765750  39.4745490  55.9787720
 105.5214590  39.2057130  55.3347420 107.0143700  39.3649970  55.5289700
 122.7280580  41.2441930  48.9052580 123.0029420  42.1520810  48.7771800
 122.5391320  41.1804460  49.8414570 119.1256190  34.2686780  50.2006210
 119.5441070  34.0817760  49.3602870 118.8192250  33.4165830  50.5109140
 122.6245920  39.1810920  53.8982010 122.2489520  38.4138850  53.4663300
 121.8949040  39.5633620  54.3856940 107.2141680  39.8598060  60.5191060
 107.5814720  39.7725460  61.3987080 106.6452500  39.0964610  60.4197920
 122.0145540  38.3282440  63.5321530 121.7831630  38.0995190  62.6319480
 122.2750090  39.2481990  63.4866420 106.7657680  36.7707150  64.4249480
 105.8713730  36.7373910  64.7643190 107.3055230  36.9693940  65.1900730
 120.4533610  33.5538870  66.3101230 121.3303790  33.5622270  66.6935230
 120.4654450  32.8169710  65.6993580 121.8996880  37.4068410  57.1989250
 122.4234360  36.9131060  56.5679420 122.4856300  37.5418770  57.9436820
 122.0786600  37.4908280  60.7208800 121.1289310  37.4571820  60.8353790
 122.2599610  38.4008390  60.4858570 121.3896850  36.6641760  53.1381660
 121.8855970  36.4312630  53.9230540 121.1912920  35.8253600  52.7219300
 107.2697390  31.0455480  58.7732700 107.9173580  30.4952860  58.3327860
 107.6899230  31.2998630  59.5948510 122.8184010  35.3002710  55.6719340
 122.7083290  35.1458750  56.6101610 123.5791600  34.7723650  55.4294750
 121.1649730  31.2396840  62.1302340 121.8021950  31.8530980  62.4961530
 121.3124620  31.2757500  61.1851570 123.7074280  33.1310630  48.9125480
 124.6323590  32.9991810  48.7043770 123.6850070  33.2103450  49.8661930
 123.7812770  33.9021290  51.5382190 122.9864270  33.8366410  52.0675100
 123.9856050  34.8371930  51.5267540 120.7231190  47.9412840  55.5320580
 121.3190260  47.6197410  54.8555000 120.9809340  47.4684660  56.3233850
 108.6293760  44.3730750  65.6811210 108.5863390  44.0023660  66.5625670
 108.7604770  45.3108320  65.8213030 112.3299790  45.9290340  61.2820930
 112.0891150  46.1964900  60.3951450 113.2702430  46.0996070  61.3371790
 114.5354210  32.3923030  65.0377440 114.4743100  32.9844860  65.7872850
 115.4754590  32.2848990  64.8927700 117.1728770  32.0493090  64.6769730
 117.7869180  32.3672380  64.0150810 117.7178330  31.5641680  65.2965590
 108.4681790  47.3193000  62.8008990 107.8742110  47.1877700  63.5399030
 108.4605630  46.4831140  62.3351090 117.9136810  30.6125230  61.0039020
 117.0396650  30.9460340  60.8011950 117.8047560  30.1398410  61.8290890
 118.8208790  32.8196100  62.3880740 118.4922150  32.0047860  62.0082470
 119.7691090  32.7765910  62.2646430 108.0994020  44.6851380  61.7517030
 107.3728080  44.0656670  61.6842980 108.1603170  45.0791990  60.8815110
 111.7039120  46.8996380  58.5366440 112.2204140  46.2883740  58.0114700
 112.3536500  47.4025160  59.0277450 114.4434620  47.7904870  59.3635420
 114.7312430  47.5359170  58.4868430 114.9557840  47.2382230  59.9540990
 115.6611630  31.5295070  59.9431930 114.8783420  32.0040570  60.2228690
 115.3674560  30.6249900  59.8345110 120.2132700  32.2318170  57.9881020
 120.6540790  32.1763270  57.1402620 119.9440290  33.1476180  58.0591200
 122.0771270  31.8633410  55.9989840 122.0159670  30.9194630  55.8520860
 122.8563300  31.9713500  56.5443300 118.0490830  30.6124270  56.6931030
 118.6520200  31.1844480  57.1679550 117.3083820  31.1763710  56.4704930
 121.1925430  31.0145830  51.9671310 121.3876060  31.9129280  52.2338740
 120.4055300  30.7832910  52.4604260 122.7452040  48.2546540  53.7277870
 122.9204230  47.5684280  53.0838790 122.0473610  48.7793590  53.3354540
 111.6970590  31.3765720  66.4945500 111.4154860  31.8799320  65.7306320
 112.0790290  30.5787470  66.1287630 118.2986050  30.7919300  67.0725970
 118.1851500  31.1113910  67.9677490 119.1155790  31.1931810  66.7763250
 117.2044200  38.8111770  37.4360710 117.1238250  37.8966380  37.1652420
 116.7908620  39.3078840  36.7300420 115.3362240  40.5890790  39.3169980
 114.5604340  40.1091230  39.6068550 115.9875170  39.9096440  39.1426140
 109.3528070  40.9010600  40.1945740 108.5212950  40.6459310  40.5942250
 109.9609050  40.9721370  40.9303660 119.3569670  44.9950980  38.0969110
 118.8951200  44.2238220  38.4256280 120.1695220  45.0217050  38.6021560
 109.3329330  44.9350690  40.3903760 109.6357370  44.0448430  40.2113980
 110.0772920  45.4920910  40.1626010 107.7620020  35.8612490  33.9788130
 106.8736720  36.2028460  33.8768010 108.0461210  35.6612810  33.0868960
 105.7253030  38.4618140  39.8627830 106.2969140  37.6940340  39.8631470
 105.7254570  38.7606900  38.9534440 115.5832980  47.2808990  37.7173100
 114.9644420  47.7366490  37.1467540 116.4384760  47.4360450  37.3162800
 114.7771230  43.2647980  39.3240140 114.7079510  42.3237920  39.1629270
 115.5391090  43.3549390  39.8962710 106.9677900  33.8702500  41.6496760
 106.7880740  32.9728250  41.9299520 106.5657980  34.4174370  42.3243710
 115.8076400  36.0718360  39.5509070 116.1841220  35.1990240  39.4382740
 115.7095910  36.4077060  38.6599510 109.9381410  34.4443990  35.0126510
 110.0448160  35.3447720  35.3195270 109.0273770  34.3961960  34.7221160
 119.5900520  33.5668800  36.4837410 120.4110140  33.0765370  36.5262890
 119.6234600  34.1566460  37.2369250 107.5864570  36.3663000  40.2579100
 108.2674680  36.6301370  40.8766500 107.2712620  35.5263870  40.5917110
 111.7789140  37.4130360  39.3451690 112.2867360  37.9111330  39.9856710
 112.3102380  36.6365560  39.1691050 123.8800070  35.5835550  43.0481040
 123.1752240  35.9717260  42.5296150 124.1457990  36.2785840  43.6501970
 110.0625240  32.0528920  43.6115110 110.0643680  32.5701310  42.8061010
 109.2329550  31.5759100  43.5885040 116.4496330  42.1648230  35.1105010
 115.8313600  42.6297680  34.5467730 116.9619580  42.8575710  35.5274520
 111.3128090  41.6924100  41.7888610 110.9797470  42.3193020  42.4309680
 111.4894770  42.2185980  41.0090280 119.8262000  35.5069180  39.2564950
 119.1217570  35.7954070  39.8368060 120.1874160  36.3169290  38.8964510
 109.7440570  33.7638880  41.6185560 110.0857380  34.6080930  41.3239430
 108.8056380  33.9122620  41.7350900 110.5247190  43.6604900  43.6037790
 111.1421190  44.3355980  43.3222240 109.6640310  44.0692880  43.5125290
 105.8179530  42.8504760  32.4844640 105.4407510  43.3391860  31.7529540
 106.0752600  43.5230040  33.1151170 121.4424780  45.1244310  41.5192430
 120.7588300  45.7943420  41.5109100 121.9819070  45.3224960  40.7537290
 122.8948920  34.9523970  39.6474160 121.9473830  34.9862950  39.7789590
 123.2198910  35.7662920  40.0323520 113.4268460  31.2521150  37.9430150
 113.7343440  30.6968040  37.2265650 112.4969160  31.3865610  37.7603140
 118.9783520  46.9688440  40.2337610 118.9910680  46.5650730  39.3659870
 118.4258740  47.7435730  40.1299040 120.2728940  43.6904660  35.3227780
 120.1625270  42.7478990  35.4477200 120.2697190  44.0520300  36.2090540
 118.3768960  41.8718280  41.5620220 118.7937750  41.6578390  40.7273680
 119.1008780  42.1291070  42.1328840 115.8149220  39.3169980  34.6790270
 114.8878500  39.2507360  34.9078740 115.9674040  40.2550110  34.5645510
 115.8018300  35.5886980  31.6757430 114.8621970  35.7500940  31.7609890
 116.1201560  36.3072660  31.1293420 122.3231060  40.2705500  41.6536460
 121.4949690  40.3398590  41.1786590 122.9181540  40.8559810  41.1852290
 119.8446510  40.8790280  35.1825520 119.2258930  40.5409830  34.5351820
 119.8270960  40.2350040  35.8904710 119.2873070  37.0574820  42.5991330
 118.8744250  37.8828530  42.8531320 118.5549020  36.4719860  42.4067690
 111.4205860  39.8434720  37.4610000 111.0162860  39.1311970  36.9655900
 111.5068980  39.4987960  38.3498040 111.8887560  43.5302280  39.6249210
 111.5915850  42.9247750  38.9456990 112.8387380  43.5679590  39.5138570
 110.1334480  36.6177930  41.2409040 110.6849070  36.7273270  40.4662290
 110.6477990  36.9915530  41.9564270 110.9805990  43.2683970  46.2757010
 110.0834520  43.4923940  46.5230410 111.0058860  43.3918910  45.3268410
 118.0211210  40.1177090  32.1898270 118.4604490  39.2799520  32.0436090
 118.7339630  40.7506490  32.2762410 109.8077210  40.1397290  44.8514380
 109.6684980  41.0120090  45.2201780 108.9258570  39.7970100  44.7062320
 116.1306590  45.0573160  36.1579510 116.5702500  45.7997490  35.7434900
 116.0693480  45.2999730  37.0818470 111.6057560  46.0818990  47.0599530
 111.5772990  46.4861940  46.1927960 111.4422530  45.1529350  46.8971130
 121.6028350  31.3719900  30.5039310 121.2901010  31.4646730  31.4038380
 122.3640820  31.9500930  30.4536740 108.1210490  38.7379700  34.9616650
 108.0008090  39.4641790  34.3497920 107.8111380  37.9682610  34.4844560
 123.5572380  46.8646090  48.3563700 124.0332100  47.3428980  49.0352780
 124.1779540  46.7963580  47.6309200 107.0043490  43.6095030  37.1791470
 106.5971570  43.7509620  36.3245070 107.8956500  43.3255190  36.9762680
 122.9605630  44.0558940  45.5163710 123.0868690  43.8170820  44.5980890
 123.0027010  43.2243480  45.9885790 116.8222370  47.7586940  44.0858520
 117.3367040  47.6694950  44.8880950 115.9791450  48.1046640  44.3786430
 118.7976770  48.0442280  33.5142520 118.6377910  47.7545220  34.4124350
 118.6323480  47.2682410  32.9787750 118.5002900  45.5529840  32.0740520
 117.8068060  45.5507130  31.4142800 119.2425760  45.1289160  31.6434690
 118.0652830  47.1792550  36.1489010 118.5209780  46.3981930  36.4627630
 118.4045350  47.8899370  36.6930190 122.8129640  36.1091400  46.4813450
 122.1973910  36.6171070  45.9528910 122.4926060  35.2089730  46.4239390
 110.5874150  32.0814770  38.3440320 110.1442300  32.8624310  38.0124840
 111.1459140  32.4044660  39.0511260 114.8743960  34.9483290  43.9475640
 114.4123330  35.1566310  44.7595580 114.4722070  34.1342640  43.6446310
 119.8748470  36.1692240  45.0772300 119.0242060  35.8697990  45.3981370
 119.7150260  36.4134250  44.1656120 116.9698180  37.6693990  47.1771090
 117.2951590  36.8357740  46.8373320 117.7578510  38.1922510  47.3249420
 113.7032970  31.7025470  33.2246150 113.0787150  31.6985340  33.9499460
 113.6163090  30.8356430  32.8282120 112.6250050  32.6262100  40.2029920
 112.9222380  33.5324930  40.1221940 113.1735610  32.1380880  39.5889490
 110.3788370  37.2048340  36.0721570 110.1529290  36.9885510  36.9768190
 109.5980900  37.6376800  35.7267540 117.6086130  37.2111710  34.6712220
 117.0095020  37.9347510  34.4875840 118.1565740  37.1488490  33.8888670
 112.8187580  38.1033920  46.7381840 112.7231180  37.1628650  46.5882240
 113.6619560  38.3248990  46.3429910 116.2151000  35.8475250  36.7015500
 116.6080570  36.1647450  35.8884190 116.5767850  34.9687130  36.8160020
 107.9498120  34.5147590  44.8915620 107.5561510  35.3622800  45.0988400
 107.2616520  33.8773960  45.0824260 114.5243170  34.5982560  47.9612360
 113.8341490  34.4054760  48.5958450 115.2675470  34.8817200  48.4936660
 105.2515170  32.4376050  38.9245700 104.9628220  33.0078910  39.6370680
 105.9960930  31.9580500  39.2876930 105.4385400  36.3796170  30.1348420
 105.3560070  37.3226930  30.2763410 105.0868460  36.2371080  29.2560770
 116.8006140  38.4381000  40.7966280 116.0687260  38.9467810  41.1456380
 116.4030480  37.6210980  40.4955060 113.2383530  35.1135200  39.2018770
 113.2419590  34.6725150  38.3523310 114.1334650  35.4352530  39.3090590
 109.0885910  34.9961690  38.1612980 108.7485960  35.4736920  38.9180030
 108.3263230  34.5426810  37.8014080 113.3003680  36.1147280  32.1925530
 113.4216500  36.0733760  33.1411350 112.9152190  36.9771430  32.0372260
 117.2632050  33.8914680  40.2089220 117.2804790  34.3423330  41.0531070
 117.0147630  32.9920320  40.4222660 112.3125180  38.4248420  31.5908830
 111.7442080  37.9766670  30.9644740 113.0214180  38.7841200  31.0573980
 120.6902800  31.3046860  46.0475600 121.0148570  30.5736520  46.5733580
 120.7259310  30.9860500  45.1456590 107.3894360  42.3260440  45.4675560
 107.0049150  41.6854110  46.0658520 107.7006550  43.0296560  46.0370290
 113.5391500  39.1736980  40.9484180 113.9061630  38.6995550  41.6945520
 113.3496560  40.0478550  41.2892520 106.4031990  33.9180670  37.0777650
 106.1178910  33.5536340  37.9156270 106.3410850  33.1861130  36.4640790
 111.3290870  38.2145620  43.2668390 111.0247940  39.0937600  43.4918750
 112.2837330  38.2745410  43.3025830 109.8572660  42.4206610  33.8635240
 109.0834920  41.8804230  33.7033960 110.5867290  41.9013220  33.5253000
 120.6160640  41.4171970  39.6561630 121.3359760  41.9127260  39.2657740
 120.4142460  40.7389860  39.0115500 116.0770580  32.8109930  33.7991020
 115.2635190  32.3123100  33.7236330 115.8832530  33.6508180  33.3827370
 115.9979440  41.4881030  45.5430630 115.9316750  40.5676700  45.2888220
 115.3684580  41.5856470  46.2575270 118.7918970  37.1829580  32.0953180
 119.6798590  37.4946810  31.9204520 118.7624060  36.3101830  31.7033760
 109.9010060  42.0886990  37.5014050 110.4188730  41.2855250  37.4470940
 109.4494080  42.0266130  38.3430880 114.7879560  43.3553270  32.7741350
 115.1295260  44.0995500  32.2784670 113.9592270  43.6684390  33.1366180
 107.3854600  39.0548360  44.4139750 107.0269540  39.7202210  45.0013090
 107.0909160  38.2231910  44.7852370 110.5867720  39.5132600  47.2979300
 110.2867860  39.6589780  46.4007120 111.3578960  38.9537890  47.2052690
 115.9296170  44.3101600  45.2934430 115.9440710  43.3782560  45.0753340
 115.2221270  44.3961360  45.9324200 121.0633240  38.4941420  31.5633040
 120.9796960  38.9255640  30.7129480 121.7827430  38.9539770  31.9959860
 122.1407380  40.9508940  44.6403010 121.4155570  41.5437720  44.4432400
 122.6682840  40.9432480  43.8416380 122.0920490  45.3483680  34.2915170
 121.4496650  44.6939300  34.5658890 121.7051150  45.7538770  33.5155840
 117.6706970  42.6769110  38.1386860 118.0230790  42.0797240  37.4788230
 116.7869300  42.3513340  38.3095110 113.7570250  43.4366800  35.5457270
 114.4441380  43.9836010  35.9264860 112.9702670  43.9807530  35.5806880
 105.8962650  39.0539620  31.0374350 106.7657500  39.3364420  31.3210270
 105.4052970  39.8675490  30.9223160 113.0597460  40.4412830  35.1582630
 113.5160240  41.2518080  35.3842820 112.7085670  40.1235970  35.9901120
 115.3630070  45.9519170  42.3874930 116.0072290  46.1578550  43.0648350
 115.7259510  45.1907570  41.9345780 108.9609240  30.7850480  35.6305150
 108.8323870  30.7768380  36.5790070 108.1371260  31.1233570  35.2796160
 116.6362150  43.9551520  41.1052380 117.2784380  43.2544680  41.2184550
 117.1611500  44.7349960  40.9249270 120.4817870  44.2400140  30.8291520
 120.2555450  43.5230580  31.4216160 120.0914070  43.9912580  29.9913270
 118.4099770  44.7546420  44.3088440 118.7456010  45.3413110  44.9866360
 117.4900110  44.6239130  44.5386230 105.9603170  32.5441600  45.0911850
 105.2461690  32.7438520  45.6964460 106.3798210  31.7681170  45.4626650
 120.0634120  42.1572080  32.4905680 119.7755820  42.6184770  33.2783560
 120.8586290  41.6969850  32.7589900 114.2388350  44.8037750  47.4776500
 113.9185220  44.0846990  48.0222190 113.5646710  45.4792820  47.5512560
 112.2802520  45.6498200  32.4209650 112.2712620  46.3827890  31.8054160
 111.3600880  45.4029780  32.5136610 107.8809160  40.8713090  33.1656410
 107.2737110  41.6111990  33.1751710 108.3558510  40.9612450  32.3394610
 117.4541950  35.0363910  42.8413300 117.8222770  34.2159120  43.1692870
 116.5940150  35.0965800  43.2568950 120.8203980  33.9920850  33.6500860
 120.1917140  34.0966520  32.9359090 120.3255900  34.2117630  34.4394740
 115.2662120  45.7126440  31.0834840 115.3674100  45.5090430  30.1536820
 114.3663860  45.4584720  31.2882620 112.7888010  36.2706800  35.0658740
 112.0804160  36.7393140  35.5072350 113.0732490  35.6128810  35.7003930
 114.4143940  37.6903500  43.0651270 114.9129190  38.1649320  43.7303120
 114.5566890  36.7667020  43.2721300 116.8203440  32.9957460  36.5054530
 116.6971220  33.0143590  35.5564040 117.7688000  33.0436400  36.6252930
 113.9080230  48.2312760  35.7782510 114.1621730  48.1934150  34.8561880
 112.9592710  48.1046090  35.7710760 110.9923030  34.5791880  32.4409450
 111.8413560  35.0162030  32.3749640 110.6254300  34.8912140  33.2681510
 121.6210800  33.9071460  43.9079660 121.1184400  34.6476860  44.2473470
 122.4367460  34.2955460  43.5916450 119.9132810  39.1504640  37.3541020
 118.9722950  39.1654870  37.5288710 120.2276880  38.3640600  37.8001320
 109.8914450  40.8324240  30.9144980 110.6577720  40.7205600  31.4770410
 109.9689140  40.1362210  30.2621750 108.5861210  38.2649310  31.5977870
 108.6664800  37.3176820  31.7095270 109.4780960  38.5956190  31.7038530
 121.9158390  46.3213490  39.0295280 122.0405810  47.1444660  39.5019090
 122.7823950  46.1104220  38.6819430 109.3875920  48.4144700  38.7012410
 110.1238400  47.8660160  38.9720980 109.7716840  49.2800710  38.5618400
 106.2721400  44.4818270  34.5753920 105.3461180  44.7239410  34.5659330
 106.7377830  45.3092530  34.4538670 108.3934200  47.5990770  47.8897990
 109.1946930  47.9202820  48.3033390 107.8786020  47.2386350  48.6117900
 117.2298830  43.7070640  47.8373400 116.6236990  43.7302240  47.0969150
 116.9252940  42.9753680  48.3740650 121.5508400  46.8145140  31.9474720
 121.2649910  46.4010280  31.1328900 121.3527950  47.7432850  31.8275240
 106.1132010  40.0864230  46.8334040 106.6171030  39.5071510  47.4050270
 105.3739430  40.3704460  47.3710410 113.0155630  42.8078420  30.3880330
 112.9106270  42.1930770  31.1141710 112.8479850  42.2844310  29.6043340
 113.1669950  41.4935220  46.3669560 112.4015620  42.0620220  46.2824230
 113.3485910  41.2011430  45.4737790 116.2558360  41.8698450  30.9922320
 115.7068460  42.3167750  31.6365060 116.8777620  41.3647700  31.5159990
 120.3093300  43.2240550  46.9244580 121.0502770  43.5616310  46.4212040
 119.5465980  43.3932610  46.3714350 108.1455090  38.2293820  47.7284110
 108.1860430  37.9307690  48.6369340 109.0000590  38.6301430  47.5691630
 111.9233480  40.8289370  32.8887620 112.3449900  40.6629240  33.7319010
 112.0484320  40.0189600  32.3942760 110.0860900  36.8085920  45.6958600
 109.5557360  36.3176870  45.0681940 110.7548970  37.2370120  45.1616530
 114.4361120  39.8526980  30.1364720 114.9566780  39.1376000  29.7705870
 115.0829520  40.4912850  30.4365230 118.9838960  41.2755380  45.4599790
 119.3979980  41.4300460  46.3090210 118.0489960  41.4010600  45.6225570
 119.4561130  38.6151540  47.4638940 120.0381900  37.8603860  47.3759420
 119.6322900  39.1458980  46.6870420 110.5733200  33.7748290  45.7755890
 110.4790070  33.1569040  45.0506760 109.9930590  34.5014580  45.5485800
 113.3394640  32.3321530  42.8083280 112.8911940  32.3545790  41.9628830
 112.7059840  31.9340550  43.4053580 113.7454190  41.2275860  43.4295720
 114.1642300  42.0708590  43.2571960 112.8262820  41.3647900  43.2002500
 116.0818090  38.9592040  44.8133560 116.2014300  38.3633180  45.5528400
 116.9412090  38.9961730  44.3934860 118.4205990  39.5129230  43.3896070
 117.8941210  40.0371850  42.7861210 118.7637330  40.1456620  44.0205800
 110.8192380  36.9022600  29.8345780 110.6181440  36.0389960  30.1959120
 110.6484430  36.8155960  28.8967380 111.5961610  47.5328870  44.5453450
 111.0582700  48.2574930  44.2262150 111.8495570  47.0559210  43.7550790
 112.8486860  35.5013390  46.0709380 113.4386550  35.1929240  46.7587200
 112.0307100  35.0293140  46.2269280 117.6680290  35.1179200  46.3042400
 116.9795810  34.4560740  46.2392390 118.3886310  34.6717470  46.7490860
 118.2980690  31.7130830  32.3632660 118.5782980  30.8698730  32.7192080
 117.5246420  31.9453940  32.8771410 109.6175180  34.0023220  29.8223660
 109.9201080  34.0090650  28.9142810 110.3569770  33.6521080  30.3191320
 114.4523820  48.7680080  44.8040100 114.3782520  49.6715220  45.1112470
 113.5502660  48.4491980  44.7762170 112.8360110  32.9457840  30.8079860
 112.4882110  32.2681830  30.2282310 113.0372880  32.4847350  31.6223250
 115.0009150  47.9338590  32.4266460 115.8959940  48.2723560  32.4485220
 115.0326780  47.2118000  31.7990740 108.6405310  43.3065640  30.6553460
 109.0780180  43.8495310  31.3111040 109.1253040  42.4812590  30.6649800
 110.4513030  44.4263680  35.7675690 110.1508570  44.3028650  36.6679600
 110.3450520  43.5672270  35.3591420 121.9803500  46.4642260  45.1332660
 121.3805490  46.5234820  44.3896580 122.1097400  45.5247240  45.2629510
 123.2204950  44.2060080  30.4702370 122.3897910  44.2736730  30.9409600
 123.3976780  45.0964200  30.1669230 122.6761410  40.9507560  32.9736570
 123.4380320  41.5204210  33.0796260 122.6915780  40.3834760  33.7444880
 106.1765750  39.4745490  37.2044230 105.5214590  39.2057130  36.5603930
 107.0143700  39.3649970  36.7546210 123.6821380  41.8057660  37.8178500
 124.0530210  41.0224980  37.4114470 124.3223310  42.4946760  37.6395800
 120.6655140  43.1894240  43.2308820 119.8514980  43.6191400  43.4934610
 121.0729340  43.8012650  42.6177870 122.7280580  41.2441930  30.1309090
 123.0029420  42.1520810  30.0028310 122.5391320  41.1804460  31.0671080
 119.1256190  34.2686780  31.4262720 119.5441070  34.0817760  30.5859380
 118.8192250  33.4165830  31.7365650 122.6245920  39.1810920  35.1238520
 122.2489520  38.4138850  34.6919810 121.8949040  39.5633620  35.6113450
 107.2141680  39.8598060  41.7447570 107.5814720  39.7725460  42.6243590
 106.6452500  39.0964610  41.6454430 122.0145540  38.3282440  44.7578040
 121.7831630  38.0995190  43.8575990 122.2750090  39.2481990  44.7122930
 120.4533610  33.5538870  47.5357740 121.3303790  33.5622270  47.9191740
 120.4654450  32.8169710  46.9250090 105.3903830  36.6844420  33.1469560
 104.4867910  36.9474620  32.9721220 105.8744450  36.9555590  32.3669520
 121.8996880  37.4068410  38.4245760 122.4234360  36.9131060  37.7935930
 122.4856300  37.5418770  39.1693330 122.0786600  37.4908280  41.9465310
 121.1289310  37.4571820  42.0610300 122.2599610  38.4008390  41.7115080
 107.9331040  35.7409960  31.0563940 108.6422740  35.3193180  30.5711220
 107.2170980  35.8085190  30.4247290 107.5805200  31.7949290  30.0966590
 108.3033330  32.3358230  30.4147810 107.8529720  31.5212710  29.2208130
 121.3896850  36.6641760  34.3638170 121.8855970  36.4312630  35.1487050
 121.1912920  35.8253600  33.9475810 107.2697390  31.0455480  39.9989210
 107.9173580  30.4952860  39.5584370 107.6899230  31.2998630  40.8205020
 122.8184010  35.3002710  36.8975850 122.7083290  35.1458750  37.8358120
 123.5791600  34.7723650  36.6551260 121.1649730  31.2396840  43.3558850
 121.8021950  31.8530980  43.7218040 121.3124620  31.2757500  42.4108080
 123.7074280  33.1310630  30.1381990 124.6323590  32.9991810  29.9300280
 123.6850070  33.2103450  31.0918440 123.7812770  33.9021290  32.7638700
 122.9864270  33.8366410  33.2931610 123.9856050  34.8371930  32.7524050
 120.7231190  47.9412840  36.7577090 121.3190260  47.6197410  36.0811510
 120.9809340  47.4684660  37.5490360 107.0229390  31.2011150  42.7414530
 106.6744210  31.6574970  43.5072710 106.6917090  30.3068280  42.8236960
 108.6293760  44.3730750  46.9067720 108.5863390  44.0023660  47.7882180
 108.7604770  45.3108320  47.0469540 112.3299790  45.9290340  42.5077440
 112.0891150  46.1964900  41.6207960 113.2702430  46.0996070  42.5628300
 114.5354210  32.3923030  46.2633950 114.4743100  32.9844860  47.0129360
 115.4754590  32.2848990  46.1184210 117.1728770  32.0493090  45.9026240
 117.7869180  32.3672380  45.2407320 117.7178330  31.5641680  46.5222100
 123.5903950  47.9484720  43.3088080 123.0962230  48.3453590  42.5915210
 122.9817240  47.3233930  43.7025360 107.6950030  30.7287350  46.0165300
 108.2433020  30.5475400  45.2531410 107.7605340  29.9381460  46.5521610
 108.4681790  47.3193000  44.0265500 107.8742110  47.1877700  44.7655540
 108.4605630  46.4831140  43.5607600 117.9136810  30.6125230  42.2295530
 117.0396650  30.9460340  42.0268460 117.8047560  30.1398410  43.0547400
 118.8208790  32.8196100  43.6137250 118.4922150  32.0047860  43.2338980
 119.7691090  32.7765910  43.4902940 121.2743400  48.5908140  40.5874820
 120.8146370  49.3423950  40.2132840 120.6455860  47.8714610  40.5289620
 111.7039120  46.8996380  39.7622950 112.2204140  46.2883740  39.2371210
 112.3536500  47.4025160  40.2533960 114.4434620  47.7904870  40.5891930
 114.7312430  47.5359170  39.7124940 114.9557840  47.2382230  41.1797500
 115.6611630  31.5295070  41.1688440 114.8783420  32.0040570  41.4485200
 115.3674560  30.6249900  41.0601620 120.2132700  32.2318170  39.2137530
 120.6540790  32.1763270  38.3659130 119.9440290  33.1476180  39.2847710
 122.0771270  31.8633410  37.2246350 122.0159670  30.9194630  37.0777370
 122.8563300  31.9713500  37.7699810 106.3824020  48.0025770  36.1870300
 106.2146060  47.3696450  36.8852190 105.5158530  48.2085170  35.8364490
 107.0052040  31.8342550  33.6902160 107.7631400  31.9471430  33.1166190
 106.5429210  32.6711750  33.6445590 113.5465850  33.9481820  36.6804470
 112.7340360  33.5738710  36.3400350 114.0507490  33.1926900  36.9825660
 118.0490830  30.6124270  37.9187540 118.6520200  31.1844480  38.3936060
 117.3083820  31.1763710  37.6961440 121.1925430  31.0145830  33.1927820
 121.3876060  31.9129280  33.4595250 120.4055300  30.7832910  33.6860770
 109.3777190  32.3606600  32.2304130 109.9069950  31.5736400  32.1012080
 110.0105510  33.0397790  32.4639660 111.5715030  32.0981740  35.2849520
 110.9417770  31.3969050  35.4519650 111.0320170  32.8585870  35.0682680
 114.5106980  48.7120970  47.9560130 115.4374290  48.4765240  47.9996090
 114.4957410  49.5392970  47.4746160 122.7452040  48.2546540  34.9534380
 122.9204230  47.5684280  34.3095300 122.0473610  48.7793590  34.5611050
 111.6970590  31.3765720  47.7202010 111.4154860  31.8799320  46.9562830
 112.0790290  30.5787470  47.3544140 109.7494480  44.7606110  32.5116020
 109.1203360  45.2291210  33.0601850 109.8642310  43.9155330  32.9462210
 118.2986050  30.7919300  48.2982480 118.1851500  31.1113910  49.1934000
 119.1155790  31.1931810  48.0019760 117.2044200  38.8111770  18.6617220
 117.1238250  37.8966380  18.3908930 116.7908620  39.3078840  17.9556930
 115.3362240  40.5890790  20.5426490 114.5604340  40.1091230  20.8325060
 115.9875170  39.9096440  20.3682650 109.3528070  40.9010600  21.4202250
 108.5212950  40.6459310  21.8198760 109.9609050  40.9721370  22.1560170
 119.3569670  44.9950980  19.3225620 118.8951200  44.2238220  19.6512790
 120.1695220  45.0217050  19.8278070 109.3329330  44.9350690  21.6160270
 109.6357370  44.0448430  21.4370490 110.0772920  45.4920910  21.3882520
 107.7620020  35.8612490  15.2044640 106.8736720  36.2028460  15.1024520
 108.0461210  35.6612810  14.3125470 105.7253030  38.4618140  21.0884340
 106.2969140  37.6940340  21.0887980 105.7254570  38.7606900  20.1790950
 115.5832980  47.2808990  18.9429610 114.9644420  47.7366490  18.3724050
 116.4384760  47.4360450  18.5419310 114.7771230  43.2647980  20.5496650
 114.7079510  42.3237920  20.3885780 115.5391090  43.3549390  21.1219220
 106.9677900  33.8702500  22.8753270 106.7880740  32.9728250  23.1556030
 106.5657980  34.4174370  23.5500220 115.8076400  36.0718360  20.7765580
 116.1841220  35.1990240  20.6639250 115.7095910  36.4077060  19.8856020
 109.9381410  34.4443990  16.2383020 110.0448160  35.3447720  16.5451780
 109.0273770  34.3961960  15.9477670 119.5900520  33.5668800  17.7093920
 120.4110140  33.0765370  17.7519400 119.6234600  34.1566460  18.4625760
 107.5864570  36.3663000  21.4835610 108.2674680  36.6301370  22.1023010
 107.2712620  35.5263870  21.8173620 111.7789140  37.4130360  20.5708200
 112.2867360  37.9111330  21.2113220 112.3102380  36.6365560  20.3947560
 123.8800070  35.5835550  24.2737550 123.1752240  35.9717260  23.7552660
 124.1457990  36.2785840  24.8758480 110.0625240  32.0528920  24.8371620
 110.0643680  32.5701310  24.0317520 109.2329550  31.5759100  24.8141550
 116.4496330  42.1648230  16.3361520 115.8313600  42.6297680  15.7724240
 116.9619580  42.8575710  16.7531030 111.3128090  41.6924100  23.0145120
 110.9797470  42.3193020  23.6566190 111.4894770  42.2185980  22.2346790
 119.8262000  35.5069180  20.4821460 119.1217570  35.7954070  21.0624570
 120.1874160  36.3169290  20.1221020 109.7440570  33.7638880  22.8442070
 110.0857380  34.6080930  22.5495940 108.8056380  33.9122620  22.9607410
 110.5247190  43.6604900  24.8294300 111.1421190  44.3355980  24.5478750
 109.6640310  44.0692880  24.7381800 105.8179530  42.8504760  13.7101150
 105.4407510  43.3391860  12.9786050 106.0752600  43.5230040  14.3407680
 121.4424780  45.1244310  22.7448940 120.7588300  45.7943420  22.7365610
 121.9819070  45.3224960  21.9793800 122.8948920  34.9523970  20.8730670
 121.9473830  34.9862950  21.0046100 123.2198910  35.7662920  21.2580030
 113.4268460  31.2521150  19.1686660 113.7343440  30.6968040  18.4522160
 112.4969160  31.3865610  18.9859650 118.9783520  46.9688440  21.4594120
 118.9910680  46.5650730  20.5916380 118.4258740  47.7435730  21.3555550
 120.2728940  43.6904660  16.5484290 120.1625270  42.7478990  16.6733710
 120.2697190  44.0520300  17.4347050 118.3768960  41.8718280  22.7876730
 118.7937750  41.6578390  21.9530190 119.1008780  42.1291070  23.3585350
 115.8149220  39.3169980  15.9046780 114.8878500  39.2507360  16.1335250
 115.9674040  40.2550110  15.7902020 115.8018300  35.5886980  12.9013940
 114.8621970  35.7500940  12.9866400 116.1201560  36.3072660  12.3549930
 122.3231060  40.2705500  22.8792970 121.4949690  40.3398590  22.4043100
 122.9181540  40.8559810  22.4108800 119.8446510  40.8790280  16.4082030
 119.2258930  40.5409830  15.7608330 119.8270960  40.2350040  17.1161220
 119.2873070  37.0574820  23.8247840 118.8744250  37.8828530  24.0787830
 118.5549020  36.4719860  23.6324200 111.4205860  39.8434720  18.6866510
 111.0162860  39.1311970  18.1912410 111.5068980  39.4987960  19.5754550
 111.8887560  43.5302280  20.8505720 111.5915850  42.9247750  20.1713500
 112.8387380  43.5679590  20.7395080 110.1334480  36.6177930  22.4665550
 110.6849070  36.7273270  21.6918800 110.6477990  36.9915530  23.1820780
 119.9773170  47.1034150  24.5128820 119.5003730  47.9106340  24.3201430
 119.2934960  46.4512480  24.6655030 110.9805990  43.2683970  27.5013520
 110.0834520  43.4923940  27.7486920 111.0058860  43.3918910  26.5524920
 118.0211210  40.1177090  13.4154780 118.4604490  39.2799520  13.2692600
 118.7339630  40.7506490  13.5018920 109.8077210  40.1397290  26.0770890
 109.6684980  41.0120090  26.4458290 108.9258570  39.7970100  25.9318830
 116.1306590  45.0573160  17.3836020 116.5702500  45.7997490  16.9691410
 116.0693480  45.2999730  18.3074980 111.6057560  46.0818990  28.2856040
 111.5772990  46.4861940  27.4184470 111.4422530  45.1529350  28.1227640
 121.6028350  31.3719900  11.7295820 121.2901010  31.4646730  12.6294890
 122.3640820  31.9500930  11.6793250 108.1210490  38.7379700  16.1873160
 108.0008090  39.4641790  15.5754430 107.8111380  37.9682610  15.7101070
 123.5572380  46.8646090  29.5820210 124.0332100  47.3428980  30.2609290
 124.1779540  46.7963580  28.8565710 105.7595860  41.9094840  21.9941800
 105.8376280  42.0443610  21.0497520 106.3737540  41.2010730  22.1869920
 107.0043490  43.6095030  18.4047980 106.5971570  43.7509620  17.5501580
 107.8956500  43.3255190  18.2019190 122.9605630  44.0558940  26.7420220
 123.0868690  43.8170820  25.8237400 123.0027010  43.2243480  27.2142300
 116.8222370  47.7586940  25.3115030 117.3367040  47.6694950  26.1137460
 115.9791450  48.1046640  25.6042940 118.7976770  48.0442280  14.7399030
 118.6377910  47.7545220  15.6380860 118.6323480  47.2682410  14.2044260
 111.2765150  47.8240810  16.5170650 111.1007630  46.9076350  16.3038450
 110.4220890  48.1828100  16.7568450 118.5002900  45.5529840  13.2997030
 117.8068060  45.5507130  12.6399310 119.2425760  45.1289160  12.8691200
 118.0652830  47.1792550  17.3745520 118.5209780  46.3981930  17.6884140
 118.4045350  47.8899370  17.9186700 122.8129640  36.1091400  27.7069960
 122.1973910  36.6171070  27.1785420 122.4926060  35.2089730  27.6495900
 105.8155380  42.9509010  24.5336260 105.9786420  42.4814370  23.7155630
 106.2807830  42.4432570  25.1985100 110.5874150  32.0814770  19.5696830
 110.1442300  32.8624310  19.2381350 111.1459140  32.4044660  20.2767770
 114.8743960  34.9483290  25.1732150 114.4123330  35.1566310  25.9852090
 114.4722070  34.1342640  24.8702820 119.8748470  36.1692240  26.3028810
 119.0242060  35.8697990  26.6237880 119.7150260  36.4134250  25.3912630
 116.9698180  37.6693990  28.4027600 117.2951590  36.8357740  28.0629830
 117.7578510  38.1922510  28.5505930 113.7032970  31.7025470  14.4502660
 113.0787150  31.6985340  15.1755970 113.6163090  30.8356430  14.0538630
 112.6250050  32.6262100  21.4286430 112.9222380  33.5324930  21.3478450
 113.1735610  32.1380880  20.8146000 110.3788370  37.2048340  17.2978080
 110.1529290  36.9885510  18.2024700 109.5980900  37.6376800  16.9524050
 117.6086130  37.2111710  15.8968730 117.0095020  37.9347510  15.7132350
 118.1565740  37.1488490  15.1145180 112.8187580  38.1033920  27.9638350
 112.7231180  37.1628650  27.8138750 113.6619560  38.3248990  27.5686420
 116.2151000  35.8475250  17.9272010 116.6080570  36.1647450  17.1140700
 116.5767850  34.9687130  18.0416530 107.9498120  34.5147590  26.1172130
 107.5561510  35.3622800  26.3244910 107.2616520  33.8773960  26.3080770
 114.5243170  34.5982560  29.1868870 113.8341490  34.4054760  29.8214960
 115.2675470  34.8817200  29.7193170 105.2515170  32.4376050  20.1502210
 104.9628220  33.0078910  20.8627190 105.9960930  31.9580500  20.5133440
 105.4385400  36.3796170  11.3604930 105.3560070  37.3226930  11.5019920
 105.0868460  36.2371080  10.4817280 116.8006140  38.4381000  22.0222790
 116.0687260  38.9467810  22.3712890 116.4030480  37.6210980  21.7211570
 113.2383530  35.1135200  20.4275280 113.2419590  34.6725150  19.5779820
 114.1334650  35.4352530  20.5347100 109.0885910  34.9961690  19.3869490
 108.7485960  35.4736920  20.1436540 108.3263230  34.5426810  19.0270590
 113.3003680  36.1147280  13.4182040 113.4216500  36.0733760  14.3667860
 112.9152190  36.9771430  13.2628770 117.2632050  33.8914680  21.4345730
 117.2804790  34.3423330  22.2787580 117.0147630  32.9920320  21.6479170
 112.3125180  38.4248420  12.8165340 111.7442080  37.9766670  12.1901250
 113.0214180  38.7841200  12.2830490 120.6902800  31.3046860  27.2732110
 121.0148570  30.5736520  27.7990090 120.7259310  30.9860500  26.3713100
 107.3894360  42.3260440  26.6932070 107.0049150  41.6854110  27.2915030
 107.7006550  43.0296560  27.2626800 113.5391500  39.1736980  22.1740690
 113.9061630  38.6995550  22.9202030 113.3496560  40.0478550  22.5149030
 106.4031990  33.9180670  18.3034160 106.1178910  33.5536340  19.1412780
 106.3410850  33.1861130  17.6897300 111.3290870  38.2145620  24.4924900
 111.0247940  39.0937600  24.7175260 112.2837330  38.2745410  24.5282340
 109.8572660  42.4206610  15.0891750 109.0834920  41.8804230  14.9290470
 110.5867290  41.9013220  14.7509510 120.6160640  41.4171970  20.8818140
 121.3359760  41.9127260  20.4914250 120.4142460  40.7389860  20.2372010
 116.0770580  32.8109930  15.0247530 115.2635190  32.3123100  14.9492840
 115.8832530  33.6508180  14.6083880 115.9979440  41.4881030  26.7687140
 115.9316750  40.5676700  26.5144730 115.3684580  41.5856470  27.4831780
 118.7918970  37.1829580  13.3209690 119.6798590  37.4946810  13.1461030
 118.7624060  36.3101830  12.9290270 109.9010060  42.0886990  18.7270560
 110.4188730  41.2855250  18.6727450 109.4494080  42.0266130  19.5687390
 114.7879560  43.3553270  13.9997860 115.1295260  44.0995500  13.5041180
 113.9592270  43.6684390  14.3622690 107.3854600  39.0548360  25.6396260
 107.0269540  39.7202210  26.2269600 107.0909160  38.2231910  26.0108880
 110.5867720  39.5132600  28.5235810 110.2867860  39.6589780  27.6263630
 111.3578960  38.9537890  28.4309200 115.9296170  44.3101600  26.5190940
 115.9440710  43.3782560  26.3009850 115.2221270  44.3961360  27.1580710
 121.0633240  38.4941420  12.7889550 120.9796960  38.9255640  11.9385990
 121.7827430  38.9539770  13.2216370 122.1407380  40.9508940  25.8659520
 121.4155570  41.5437720  25.6688910 122.6682840  40.9432480  25.0672890
 122.0920490  45.3483680  15.5171680 121.4496650  44.6939300  15.7915400
 121.7051150  45.7538770  14.7412350 117.6706970  42.6769110  19.3643370
 118.0230790  42.0797240  18.7044740 116.7869300  42.3513340  19.5351620
 113.7570250  43.4366800  16.7713780 114.4441380  43.9836010  17.1521370
 112.9702670  43.9807530  16.8063390 105.8962650  39.0539620  12.2630860
 106.7657500  39.3364420  12.5466780 105.4052970  39.8675490  12.1479670
 113.0597460  40.4412830  16.3839140 113.5160240  41.2518080  16.6099330
 112.7085670  40.1235970  17.2157630 115.3630070  45.9519170  23.6131440
 116.0072290  46.1578550  24.2904860 115.7259510  45.1907570  23.1602290
 108.9609240  30.7850480  16.8561660 108.8323870  30.7768380  17.8046580
 108.1371260  31.1233570  16.5052670 116.6362150  43.9551520  22.3308890
 117.2784380  43.2544680  22.4441060 117.1611500  44.7349960  22.1505780
 120.4817870  44.2400140  12.0548030 120.2555450  43.5230580  12.6472670
 120.0914070  43.9912580  11.2169780 118.4099770  44.7546420  25.5344950
 118.7456010  45.3413110  26.2122870 117.4900110  44.6239130  25.7642740
 106.2633900  48.2667000  12.8292490 106.6231540  48.8656340  12.1749760
 106.1226240  48.8126890  13.6027520 105.9603170  32.5441600  26.3168360
 105.2461690  32.7438520  26.9220970 106.3798210  31.7681170  26.6883160
 120.0634120  42.1572080  13.7162190 119.7755820  42.6184770  14.5040070
 120.8586290  41.6969850  13.9846410 106.2475760  46.5321860  27.3034890
 106.3566880  45.5916600  27.1630280 105.5956320  46.7976610  26.6548620
 114.2388350  44.8037750  28.7033010 113.9185220  44.0846990  29.2478700
 113.5646710  45.4792820  28.7769070 112.2802520  45.6498200  13.6466160
 112.2712620  46.3827890  13.0310670 111.3600880  45.4029780  13.7393120
 107.8809160  40.8713090  14.3912920 107.2737110  41.6111990  14.4008220
 108.3558510  40.9612450  13.5651120 117.4541950  35.0363910  24.0669810
 117.8222770  34.2159120  24.3949380 116.5940150  35.0965800  24.4825460
 120.8203980  33.9920850  14.8757370 120.1917140  34.0966520  14.1615600
 120.3255900  34.2117630  15.6651250 115.2662120  45.7126440  12.3091350
 115.3674100  45.5090430  11.3793330 114.3663860  45.4584720  12.5139130
 112.7888010  36.2706800  16.2915250 112.0804160  36.7393140  16.7328860
 113.0732490  35.6128810  16.9260440 114.4143940  37.6903500  24.2907780
 114.9129190  38.1649320  24.9559630 114.5566890  36.7667020  24.4977810
 116.8203440  32.9957460  17.7311040 116.6971220  33.0143590  16.7820550
 117.7688000  33.0436400  17.8509440 113.9080230  48.2312760  17.0039020
 114.1621730  48.1934150  16.0818390 112.9592710  48.1046090  16.9967270
 110.9923030  34.5791880  13.6665960 111.8413560  35.0162030  13.6006150
 110.6254300  34.8912140  14.4938020 121.6210800  33.9071460  25.1336170
 121.1184400  34.6476860  25.4729980 122.4367460  34.2955460  24.8172960
 119.9132810  39.1504640  18.5797530 118.9722950  39.1654870  18.7545220
 120.2276880  38.3640600  19.0257830 109.8914450  40.8324240  12.1401490
 110.6577720  40.7205600  12.7026920 109.9689140  40.1362210  11.4878260
 108.5861210  38.2649310  12.8234380 108.6664800  37.3176820  12.9351780
 109.4780960  38.5956190  12.9295040 121.9158390  46.3213490  20.2551790
 122.0405810  47.1444660  20.7275600 122.7823950  46.1104220  19.9075940
 109.3875920  48.4144700  19.9268920 110.1238400  47.8660160  20.1977490
 109.7716840  49.2800710  19.7874910 106.2721400  44.4818270  15.8010430
 105.3461180  44.7239410  15.7915840 106.7377830  45.3092530  15.6795180
 112.4978230  47.5875010  11.7494490 113.2906840  47.8763840  11.2976280
 111.9782580  47.1567180  11.0706970 117.2298830  43.7070640  29.0629910
 116.6236990  43.7302240  28.3225660 116.9252940  42.9753680  29.5997160
 118.6599200  47.4350930  27.6739320 119.6120950  47.3508950  27.6239560
 118.5127420  48.0992640  28.3473110 121.5508400  46.8145140  13.1731230
 121.2649910  46.4010280  12.3585410 121.3527950  47.7432850  13.0531750
 106.1132010  40.0864230  28.0590550 106.6171030  39.5071510  28.6306780
 105.3739430  40.3704460  28.5966920 113.0155630  42.8078420  11.6136840
 112.9106270  42.1930770  12.3398220 112.8479850  42.2844310  10.8299850
 113.1669950  41.4935220  27.5926070 112.4015620  42.0620220  27.5080740
 113.3485910  41.2011430  26.6994300 116.2558360  41.8698450  12.2178830
 115.7068460  42.3167750  12.8621570 116.8777620  41.3647700  12.7416500
 120.3093300  43.2240550  28.1501090 121.0502770  43.5616310  27.6468550
 119.5465980  43.3932610  27.5970860 108.1455090  38.2293820  28.9540620
 108.1860430  37.9307690  29.8625850 109.0000590  38.6301430  28.7948140
 111.9233480  40.8289370  14.1144130 112.3449900  40.6629240  14.9575520
 112.0484320  40.0189600  13.6199270 110.0860900  36.8085920  26.9215110
 109.5557360  36.3176870  26.2938450 110.7548970  37.2370120  26.3873040
 114.4361120  39.8526980  11.3621230 114.9566780  39.1376000  10.9962380
 115.0829520  40.4912850  11.6621740 118.9838960  41.2755380  26.6856300
 119.3979980  41.4300460  27.5346720 118.0489960  41.4010600  26.8482080
 119.4561130  38.6151540  28.6895450 120.0381900  37.8603860  28.6015930
 119.6322900  39.1458980  27.9126930 110.5733200  33.7748290  27.0012400
 110.4790070  33.1569040  26.2763270 109.9930590  34.5014580  26.7742310
 113.3394640  32.3321530  24.0339790 112.8911940  32.3545790  23.1885340
 112.7059840  31.9340550  24.6310090 113.7454190  41.2275860  24.6552230
 114.1642300  42.0708590  24.4828470 112.8262820  41.3647900  24.4259010
 116.0818090  38.9592040  26.0390070 116.2014300  38.3633180  26.7784910
 116.9412090  38.9961730  25.6191370 118.4205990  39.5129230  24.6152580
 117.8941210  40.0371850  24.0117720 118.7637330  40.1456620  25.2462310
 110.8192380  36.9022600  11.0602290 110.6181440  36.0389960  11.4215630
 110.6484430  36.8155960  10.1223890 111.5961610  47.5328870  25.7709960
 111.0582700  48.2574930  25.4518660 111.8495570  47.0559210  24.9807300
 112.8486860  35.5013390  27.2965890 113.4386550  35.1929240  27.9843710
 112.0307100  35.0293140  27.4525790 117.6680290  35.1179200  27.5298910
 116.9795810  34.4560740  27.4648900 118.3886310  34.6717470  27.9747370
 118.2980690  31.7130830  13.5889170 118.5782980  30.8698730  13.9448590
 117.5246420  31.9453940  14.1027920 109.6175180  34.0023220  11.0480170
 109.9201080  34.0090650  10.1399320 110.3569770  33.6521080  11.5447830
 114.4523820  48.7680080  26.0296610 114.3782520  49.6715220  26.3368980
 113.5502660  48.4491980  26.0018680 112.8360110  32.9457840  12.0336370
 112.4882110  32.2681830  11.4538820 113.0372880  32.4847350  12.8479760
 115.0009150  47.9338590  13.6522970 115.8959940  48.2723560  13.6741730
 115.0326780  47.2118000  13.0247250 108.6405310  43.3065640  11.8809970
 109.0780180  43.8495310  12.5367550 109.1253040  42.4812590  11.8906310
 105.8551110  46.0954670  19.3330230 106.1854120  45.2275730  19.1008870
 106.2842110  46.3013190  20.1635190 110.4513030  44.4263680  16.9932200
 110.1508570  44.3028650  17.8936110 110.3450520  43.5672270  16.5847930
 106.3441320  46.9625260  22.0711860 105.9072310  47.1426060  22.9036010
 106.9119000  47.7199880  21.9293580 121.9803500  46.4642260  26.3589170
 121.3805490  46.5234820  25.6153090 122.1097400  45.5247240  26.4886020
 123.2204950  44.2060080  11.6958880 122.3897910  44.2736730  12.1666110
 123.3976780  45.0964200  11.3925740 122.6761410  40.9507560  14.1993080
 123.4380320  41.5204210  14.3052770 122.6915780  40.3834760  14.9701390
 106.1765750  39.4745490  18.4300740 105.5214590  39.2057130  17.7860440
 107.0143700  39.3649970  17.9802720 123.6821380  41.8057660  19.0435010
 124.0530210  41.0224980  18.6370980 124.3223310  42.4946760  18.8652310
 120.6655140  43.1894240  24.4565330 119.8514980  43.6191400  24.7191120
 121.0729340  43.8012650  23.8434380 122.7280580  41.2441930  11.3565600
 123.0029420  42.1520810  11.2284820 122.5391320  41.1804460  12.2927590
 119.1256190  34.2686780  12.6519230 119.5441070  34.0817760  11.8115890
 118.8192250  33.4165830  12.9622160 122.6245920  39.1810920  16.3495030
 122.2489520  38.4138850  15.9176320 121.8949040  39.5633620  16.8369960
 107.2141680  39.8598060  22.9704080 107.5814720  39.7725460  23.8500100
 106.6452500  39.0964610  22.8710940 122.0145540  38.3282440  25.9834550
 121.7831630  38.0995190  25.0832500 122.2750090  39.2481990  25.9379440
 106.7657680  36.7707150  26.8762500 105.8713730  36.7373910  27.2156210
 107.3055230  36.9693940  27.6413750 120.4533610  33.5538870  28.7614250
 121.3303790  33.5622270  29.1448250 120.4654450  32.8169710  28.1506600
 105.3903830  36.6844420  14.3726070 104.4867910  36.9474620  14.1977730
 105.8744450  36.9555590  13.5926030 121.8996880  37.4068410  19.6502270
 122.4234360  36.9131060  19.0192440 122.4856300  37.5418770  20.3949840
 122.0786600  37.4908280  23.1721820 121.1289310  37.4571820  23.2866810
 122.2599610  38.4008390  22.9371590 107.9331040  35.7409960  12.2820450
 108.6422740  35.3193180  11.7967730 107.2170980  35.8085190  11.6503800
 107.5805200  31.7949290  11.3223100 108.3033330  32.3358230  11.6404320
 107.8529720  31.5212710  10.4464640 121.3896850  36.6641760  15.5894680
 121.8855970  36.4312630  16.3743560 121.1912920  35.8253600  15.1732320
 107.2697390  31.0455480  21.2245720 107.9173580  30.4952860  20.7840880
 107.6899230  31.2998630  22.0461530 122.8184010  35.3002710  18.1232360
 122.7083290  35.1458750  19.0614630 123.5791600  34.7723650  17.8807770
 121.1649730  31.2396840  24.5815360 121.8021950  31.8530980  24.9474550
 121.3124620  31.2757500  23.6364590 123.7074280  33.1310630  11.3638500
 124.6323590  32.9991810  11.1556790 123.6850070  33.2103450  12.3174950
 123.7812770  33.9021290  13.9895210 122.9864270  33.8366410  14.5188120
 123.9856050  34.8371930  13.9780560 120.7231190  47.9412840  17.9833600
 121.3190260  47.6197410  17.3068020 120.9809340  47.4684660  18.7746870
 107.0229390  31.2011150  23.9671040 106.6744210  31.6574970  24.7329220
 106.6917090  30.3068280  24.0493470 108.6293760  44.3730750  28.1324230
 108.5863390  44.0023660  29.0138690 108.7604770  45.3108320  28.2726050
 112.3299790  45.9290340  23.7333950 112.0891150  46.1964900  22.8464470
 113.2702430  46.0996070  23.7884810 114.5354210  32.3923030  27.4890460
 114.4743100  32.9844860  28.2385870 115.4754590  32.2848990  27.3440720
 117.1728770  32.0493090  27.1282750 117.7869180  32.3672380  26.4663830
 117.7178330  31.5641680  27.7478610 123.5903950  47.9484720  24.5344590
 123.0962230  48.3453590  23.8171720 122.9817240  47.3233930  24.9281870
 107.6950030  30.7287350  27.2421810 108.2433020  30.5475400  26.4787920
 107.7605340  29.9381460  27.7778120 108.4681790  47.3193000  25.2522010
 107.8742110  47.1877700  25.9912050 108.4605630  46.4831140  24.7864110
 117.9136810  30.6125230  23.4552040 117.0396650  30.9460340  23.2524970
 117.8047560  30.1398410  24.2803910 118.8208790  32.8196100  24.8393760
 118.4922150  32.0047860  24.4595490 119.7691090  32.7765910  24.7159450
 121.2743400  48.5908140  21.8131330 120.8146370  49.3423950  21.4389350
 120.6455860  47.8714610  21.7546130 108.0994020  44.6851380  24.2030050
 107.3728080  44.0656670  24.1356000 108.1603170  45.0791990  23.3328130
 111.7039120  46.8996380  20.9879460 112.2204140  46.2883740  20.4627720
 112.3536500  47.4025160  21.4790470 114.4434620  47.7904870  21.8148440
 114.7312430  47.5359170  20.9381450 114.9557840  47.2382230  22.4054010
 115.6611630  31.5295070  22.3944950 114.8783420  32.0040570  22.6741710
 115.3674560  30.6249900  22.2858130 120.2132700  32.2318170  20.4394040
 120.6540790  32.1763270  19.5915640 119.9440290  33.1476180  20.5104220
 122.0771270  31.8633410  18.4502860 122.0159670  30.9194630  18.3033880
 122.8563300  31.9713500  18.9956320 106.3824020  48.0025770  17.4126810
 106.2146060  47.3696450  18.1108700 105.5158530  48.2085170  17.0621000
 107.0052040  31.8342550  14.9158670 107.7631400  31.9471430  14.3422700
 106.5429210  32.6711750  14.8702100 113.5465850  33.9481820  17.9060980
 112.7340360  33.5738710  17.5656860 114.0507490  33.1926900  18.2082170
 118.0490830  30.6124270  19.1444050 118.6520200  31.1844480  19.6192570
 117.3083820  31.1763710  18.9217950 121.1925430  31.0145830  14.4184330
 121.3876060  31.9129280  14.6851760 120.4055300  30.7832910  14.9117280
 107.9886720  46.6959000  14.8576950 107.4634340  47.0767030  14.1538910
 107.9131300  47.3209770  15.5786660 109.3777190  32.3606600  13.4560640
 109.9069950  31.5736400  13.3268590 110.0105510  33.0397790  13.6896170
 111.5715030  32.0981740  16.5106030 110.9417770  31.3969050  16.6776160
 111.0320170  32.8585870  16.2939190 122.7452040  48.2546540  16.1790890
 122.9204230  47.5684280  15.5351810 122.0473610  48.7793590  15.7867560
 111.6970590  31.3765720  28.9458520 111.4154860  31.8799320  28.1819340
 112.0790290  30.5787470  28.5800650 110.5879690  48.6441380  13.7326200
 111.3198510  48.3600660  13.1850090 110.8473360  48.4054660  14.6225580
 109.7494480  44.7606110  13.7372530 109.1203360  45.2291210  14.2858360
 109.8642310  43.9155330  14.1718720 118.2986050  30.7919300  29.5238990
 118.1851500  31.1113910  30.4190510 119.1155790  31.1931810  29.2276270
 121.0784540  47.9390830  29.0057680 121.8709860  47.4440060  28.7983640
 121.3717690  48.6180970  29.6133290 115.3362240  40.5890790   1.7683000
 114.5604340  40.1091230   2.0581570 115.9875170  39.9096440   1.5939160
 109.3528070  40.9010600   2.6458760 108.5212950  40.6459310   3.0455270
 109.9609050  40.9721370   3.3816680 109.3329330  44.9350690   2.8416780
 109.6357370  44.0448430   2.6627000 110.0772920  45.4920910   2.6139030
 114.7771230  43.2647980   1.7753160 114.7079510  42.3237920   1.6142290
 115.5391090  43.3549390   2.3475730 106.9677900  33.8702500   4.1009780
 106.7880740  32.9728250   4.3812540 106.5657980  34.4174370   4.7756730
 107.5864570  36.3663000   2.7092120 108.2674680  36.6301370   3.3279520
 107.2712620  35.5263870   3.0430130 111.7789140  37.4130360   1.7964710
 112.2867360  37.9111330   2.4369730 112.3102380  36.6365560   1.6204070
 123.8800070  35.5835550   5.4994060 123.1752240  35.9717260   4.9809170
 124.1457990  36.2785840   6.1014990 110.0625240  32.0528920   6.0628130
 110.0643680  32.5701310   5.2574030 109.2329550  31.5759100   6.0398060
 111.3128090  41.6924100   4.2401630 110.9797470  42.3193020   4.8822700
 111.4894770  42.2185980   3.4603300 109.7440570  33.7638880   4.0698580
 110.0857380  34.6080930   3.7752450 108.8056380  33.9122620   4.1863920
 110.5247190  43.6604900   6.0550810 111.1421190  44.3355980   5.7735260
 109.6640310  44.0692880   5.9638310 121.4424780  45.1244310   3.9705450
 120.7588300  45.7943420   3.9622120 121.9819070  45.3224960   3.2050310
 122.8948920  34.9523970   2.0987180 121.9473830  34.9862950   2.2302610
 123.2198910  35.7662920   2.4836540 118.9783520  46.9688440   2.6850630
 118.9910680  46.5650730   1.8172890 118.4258740  47.7435730   2.5812060
 118.3768960  41.8718280   4.0133240 118.7937750  41.6578390   3.1786700
 119.1008780  42.1291070   4.5841860 122.3231060  40.2705500   4.1049480
 121.4949690  40.3398590   3.6299610 122.9181540  40.8559810   3.6365310
 119.2873070  37.0574820   5.0504350 118.8744250  37.8828530   5.3044340
 118.5549020  36.4719860   4.8580710 110.1334480  36.6177930   3.6922060
 110.6849070  36.7273270   2.9175310 110.6477990  36.9915530   4.4077290
 119.9773170  47.1034150   5.7385330 119.5003730  47.9106340   5.5457940
 119.2934960  46.4512480   5.8911540 110.9805990  43.2683970   8.7270030
 110.0834520  43.4923940   8.9743430 111.0058860  43.3918910   7.7781430
 109.8077210  40.1397290   7.3027400 109.6684980  41.0120090   7.6714800
 108.9258570  39.7970100   7.1575340 111.6057560  46.0818990   9.5112550
 111.5772990  46.4861940   8.6440980 111.4422530  45.1529350   9.3484150
 123.5572380  46.8646090  10.8076720 124.0332100  47.3428980  11.4865800
 124.1779540  46.7963580  10.0822220 105.7595860  41.9094840   3.2198310
 105.8376280  42.0443610   2.2754030 106.3737540  41.2010730   3.4126430
 122.9605630  44.0558940   7.9676730 123.0868690  43.8170820   7.0493910
 123.0027010  43.2243480   8.4398810 116.8222370  47.7586940   6.5371540
 117.3367040  47.6694950   7.3393970 115.9791450  48.1046640   6.8299450
 122.8129640  36.1091400   8.9326470 122.1973910  36.6171070   8.4041930
 122.4926060  35.2089730   8.8752410 105.8155380  42.9509010   5.7592770
 105.9786420  42.4814370   4.9412140 106.2807830  42.4432570   6.4241610
 114.8743960  34.9483290   6.3988660 114.4123330  35.1566310   7.2108600
 114.4722070  34.1342640   6.0959330 119.8748470  36.1692240   7.5285320
 119.0242060  35.8697990   7.8494390 119.7150260  36.4134250   6.6169140
 116.9698180  37.6693990   9.6284110 117.2951590  36.8357740   9.2886340
 117.7578510  38.1922510   9.7762440 112.6250050  32.6262100   2.6542940
 112.9222380  33.5324930   2.5734960 113.1735610  32.1380880   2.0402510
 112.8187580  38.1033920   9.1894860 112.7231180  37.1628650   9.0395260
 113.6619560  38.3248990   8.7942930 107.9498120  34.5147590   7.3428640
 107.5561510  35.3622800   7.5501420 107.2616520  33.8773960   7.5337280
 114.5243170  34.5982560  10.4125380 113.8341490  34.4054760  11.0471470
 115.2675470  34.8817200  10.9449680 116.8006140  38.4381000   3.2479300
 116.0687260  38.9467810   3.5969400 116.4030480  37.6210980   2.9468080
 117.2632050  33.8914680   2.6602240 117.2804790  34.3423330   3.5044090
 117.0147630  32.9920320   2.8735680 120.6902800  31.3046860   8.4988620
 121.0148570  30.5736520   9.0246600 120.7259310  30.9860500   7.5969610
 107.3894360  42.3260440   7.9188580 107.0049150  41.6854110   8.5171540
 107.7006550  43.0296560   8.4883310 113.5391500  39.1736980   3.3997200
 113.9061630  38.6995550   4.1458540 113.3496560  40.0478550   3.7405540
 111.3290870  38.2145620   5.7181410 111.0247940  39.0937600   5.9431770
 112.2837330  38.2745410   5.7538850 120.6160640  41.4171970   2.1074650
 121.3359760  41.9127260   1.7170760 120.4142460  40.7389860   1.4628520
 115.9979440  41.4881030   7.9943650 115.9316750  40.5676700   7.7401240
 115.3684580  41.5856470   8.7088290 107.3854600  39.0548360   6.8652770
 107.0269540  39.7202210   7.4526110 107.0909160  38.2231910   7.2365390
 110.5867720  39.5132600   9.7492320 110.2867860  39.6589780   8.8520140
 111.3578960  38.9537890   9.6565710 115.9296170  44.3101600   7.7447450
 115.9440710  43.3782560   7.5266360 115.2221270  44.3961360   8.3837220
 122.1407380  40.9508940   7.0916030 121.4155570  41.5437720   6.8945420
 122.6682840  40.9432480   6.2929400 115.3630070  45.9519170   4.8387950
 116.0072290  46.1578550   5.5161370 115.7259510  45.1907570   4.3858800
 116.6362150  43.9551520   3.5565400 117.2784380  43.2544680   3.6697570
 117.1611500  44.7349960   3.3762290 118.4099770  44.7546420   6.7601460
 118.7456010  45.3413110   7.4379380 117.4900110  44.6239130   6.9899250
 105.9603170  32.5441600   7.5424870 105.2461690  32.7438520   8.1477480
 106.3798210  31.7681170   7.9139670 106.2475760  46.5321860   8.5291400
 106.3566880  45.5916600   8.3886790 105.5956320  46.7976610   7.8805130
 114.2388350  44.8037750   9.9289520 113.9185220  44.0846990  10.4735210
 113.5646710  45.4792820  10.0025580 117.4541950  35.0363910   5.2926320
 117.8222770  34.2159120   5.6205890 116.5940150  35.0965800   5.7081970
 114.4143940  37.6903500   5.5164290 114.9129190  38.1649320   6.1816140
 114.5566890  36.7667020   5.7234320 121.6210800  33.9071460   6.3592680
 121.1184400  34.6476860   6.6986490 122.4367460  34.2955460   6.0429470
 108.3934200  47.5990770  10.3411010 109.1946930  47.9202820  10.7546410
 107.8786020  47.2386350  11.0630920 117.2298830  43.7070640  10.2886420
 116.6236990  43.7302240   9.5482170 116.9252940  42.9753680  10.8253670
 118.6599200  47.4350930   8.8995830 119.6120950  47.3508950   8.8496070
 118.5127420  48.0992640   9.5729620 106.1132010  40.0864230   9.2847060
 106.6171030  39.5071510   9.8563290 105.3739430  40.3704460   9.8223430
 113.1669950  41.4935220   8.8182580 112.4015620  42.0620220   8.7337250
 113.3485910  41.2011430   7.9250810 120.3093300  43.2240550   9.3757600
 121.0502770  43.5616310   8.8725060 119.5465980  43.3932610   8.8227370
 108.1455090  38.2293820  10.1797130 108.1860430  37.9307690  11.0882360
 109.0000590  38.6301430  10.0204650 110.0860900  36.8085920   8.1471620
 109.5557360  36.3176870   7.5194960 110.7548970  37.2370120   7.6129550
 118.9838960  41.2755380   7.9112810 119.3979980  41.4300460   8.7603230
 118.0489960  41.4010600   8.0738590 119.4561130  38.6151540   9.9151960
 120.0381900  37.8603860   9.8272440 119.6322900  39.1458980   9.1383440
 110.5733200  33.7748290   8.2268910 110.4790070  33.1569040   7.5019780
 109.9930590  34.5014580   7.9998820 113.3394640  32.3321530   5.2596300
 112.8911940  32.3545790   4.4141850 112.7059840  31.9340550   5.8566600
 113.7454190  41.2275860   5.8808740 114.1642300  42.0708590   5.7084980
 112.8262820  41.3647900   5.6515520 116.0818090  38.9592040   7.2646580
 116.2014300  38.3633180   8.0041420 116.9412090  38.9961730   6.8447880
 118.4205990  39.5129230   5.8409090 117.8941210  40.0371850   5.2374230
 118.7637330  40.1456620   6.4718820 111.5961610  47.5328870   6.9966470
 111.0582700  48.2574930   6.6775170 111.8495570  47.0559210   6.2063810
 112.8486860  35.5013390   8.5222400 113.4386550  35.1929240   9.2100220
 112.0307100  35.0293140   8.6782300 117.6680290  35.1179200   8.7555420
 116.9795810  34.4560740   8.6905410 118.3886310  34.6717470   9.2003880
 114.4523820  48.7680080   7.2553120 114.3782520  49.6715220   7.5625490
 113.5502660  48.4491980   7.2275190 106.3441320  46.9625260   3.2968370
 105.9072310  47.1426060   4.1292520 106.9119000  47.7199880   3.1550090
 121.9803500  46.4642260   7.5845680 121.3805490  46.5234820   6.8409600
 122.1097400  45.5247240   7.7142530 120.6655140  43.1894240   5.6821840
 119.8514980  43.6191400   5.9447630 121.0729340  43.8012650   5.0690890
 107.2141680  39.8598060   4.1960590 107.5814720  39.7725460   5.0756610
 106.6452500  39.0964610   4.0967450 122.0145540  38.3282440   7.2091060
 121.7831630  38.0995190   6.3089010 122.2750090  39.2481990   7.1635950
 106.7657680  36.7707150   8.1019010 105.8713730  36.7373910   8.4412720
 107.3055230  36.9693940   8.8670260 120.4533610  33.5538870   9.9870760
 121.3303790  33.5622270  10.3704760 120.4654450  32.8169710   9.3763110
 122.0786600  37.4908280   4.3978330 121.1289310  37.4571820   4.5123320
 122.2599610  38.4008390   4.1628100 107.2697390  31.0455480   2.4502230
 107.9173580  30.4952860   2.0097390 107.6899230  31.2998630   3.2718040
 121.1649730  31.2396840   5.8071870 121.8021950  31.8530980   6.1731060
 121.3124620  31.2757500   4.8621100 107.0229390  31.2011150   5.1927550
 106.6744210  31.6574970   5.9585730 106.6917090  30.3068280   5.2749980
 108.6293760  44.3730750   9.3580740 108.5863390  44.0023660  10.2395200
 108.7604770  45.3108320   9.4982560 112.3299790  45.9290340   4.9590460
 112.0891150  46.1964900   4.0720980 113.2702430  46.0996070   5.0141320
 114.5354210  32.3923030   8.7146970 114.4743100  32.9844860   9.4642380
 115.4754590  32.2848990   8.5697230 117.1728770  32.0493090   8.3539260
 117.7869180  32.3672380   7.6920340 117.7178330  31.5641680   8.9735120
 123.5903950  47.9484720   5.7601100 123.0962230  48.3453590   5.0428230
 122.9817240  47.3233930   6.1538380 107.6950030  30.7287350   8.4678320
 108.2433020  30.5475400   7.7044430 107.7605340  29.9381460   9.0034630
 108.4681790  47.3193000   6.4778520 107.8742110  47.1877700   7.2168560
 108.4605630  46.4831140   6.0120620 117.9136810  30.6125230   4.6808550
 117.0396650  30.9460340   4.4781480 117.8047560  30.1398410   5.5060420
 118.8208790  32.8196100   6.0650270 118.4922150  32.0047860   5.6852000
 119.7691090  32.7765910   5.9415960 121.2743400  48.5908140   3.0387840
 120.8146370  49.3423950   2.6645860 120.6455860  47.8714610   2.9802640
 108.0994020  44.6851380   5.4286560 107.3728080  44.0656670   5.3612510
 108.1603170  45.0791990   4.5584640 111.7039120  46.8996380   2.2135970
 112.2204140  46.2883740   1.6884230 112.3536500  47.4025160   2.7046980
 114.4434620  47.7904870   3.0404950 114.7312430  47.5359170   2.1637960
 114.9557840  47.2382230   3.6310520 115.6611630  31.5295070   3.6201460
 114.8783420  32.0040570   3.8998220 115.3674560  30.6249900   3.5114640
 114.5106980  48.7120970  10.4073150 115.4374290  48.4765240  10.4509110
 114.4957410  49.5392970   9.9259180 111.6970590  31.3765720  10.1715030
 111.4154860  31.8799320   9.4075850 112.0790290  30.5787470   9.8057160
 118.2986050  30.7919300  10.7495500 118.1851500  31.1113910  11.6447020
 119.1155790  31.1931810  10.4532780 121.0784540  47.9390830  10.2314190
 121.8709860  47.4440060  10.0240150 121.3717690  48.6180970  10.8389800
 117.2044200  20.0368280 150.0821650 117.1238250  19.1222890 149.8113360
 116.7908620  20.5335350 149.3761360 119.3569670  26.2207490 150.7430050
 118.8951200  25.4494730 151.0717220 120.1695220  26.2473560 151.2482500
 107.7620020  17.0869000 146.6249070 106.8736720  17.4284970 146.5228950
 108.0461210  16.8869320 145.7329900 115.5832980  28.5065500 150.3634040
 114.9644420  28.9623000 149.7928480 116.4384760  28.6616960 149.9623740
 109.9381410  15.6700500 147.6587450 110.0448160  16.5704230 147.9656210
 109.0273770  15.6218470 147.3682100 119.5900520  14.7925310 149.1298350
 120.4110140  14.3021880 149.1723830 119.6234600  15.3822970 149.8830190
 116.4496330  23.3904740 147.7565950 115.8313600  23.8554190 147.1928670
 116.9619580  24.0832220 148.1735460 105.8179530  24.0761270 145.1305580
 105.4407510  24.5648370 144.3990480 106.0752600  24.7486550 145.7612110
 113.4268460  12.4777660 150.5891090 113.7343440  11.9224550 149.8726590
 112.4969160  12.6122120 150.4064080 120.2728940  24.9161170 147.9688720
 120.1625270  23.9735500 148.0938140 120.2697190  25.2776810 148.8551480
 115.8149220  20.5426490 147.3251210 114.8878500  20.4763870 147.5539680
 115.9674040  21.4806620 147.2106450 115.8018300  16.8143490 144.3218370
 114.8621970  16.9757450 144.4070830 116.1201560  17.5329170 143.7754360
 119.8446510  22.1046790 147.8286460 119.2258930  21.7666340 147.1812760
 119.8270960  21.4606550 148.5365650 111.4205860  21.0691230 150.1070940
 111.0162860  20.3568480 149.6116840 111.5068980  20.7244470 150.9958980
 118.0211210  21.3433600 144.8359210 118.4604490  20.5056030 144.6897030
 118.7339630  21.9763000 144.9223350 116.1306590  26.2829670 148.8040450
 116.5702500  27.0254000 148.3895840 116.0693480  26.5256240 149.7279410
 121.6028350  12.5976410 143.1500250 121.2901010  12.6903240 144.0499320
 122.3640820  13.1757440 143.0997680 108.1210490  19.9636210 147.6077590
 108.0008090  20.6898300 146.9958860 107.8111380  19.1939120 147.1305500
 107.0043490  24.8351540 149.8252410 106.5971570  24.9766130 148.9706010
 107.8956500  24.5511700 149.6223620 118.7976770  29.2698790 146.1603460
 118.6377910  28.9801730 147.0585290 118.6323480  28.4938920 145.6248690
 111.2765150  29.0497320 147.9375080 111.1007630  28.1332860 147.7242880
 110.4220890  29.4084610 148.1772880 118.5002900  26.7786350 144.7201460
 117.8068060  26.7763640 144.0603740 119.2425760  26.3545670 144.2895630
 118.0652830  28.4049060 148.7949950 118.5209780  27.6238440 149.1088570
 118.4045350  29.1155880 149.3391130 110.5874150  13.3071280 150.9901260
 110.1442300  14.0880820 150.6585780 111.1459140  13.6301170 151.6972200
 113.7032970  12.9281980 145.8707090 113.0787150  12.9241850 146.5960400
 113.6163090  12.0612940 145.4743060 110.3788370  18.4304850 148.7182510
 110.1529290  18.2142020 149.6229130 109.5980900  18.8633310 148.3728480
 117.6086130  18.4368220 147.3173160 117.0095020  19.1604020 147.1336780
 118.1565740  18.3745000 146.5349610 116.2151000  17.0731760 149.3476440
 116.6080570  17.3903960 148.5345130 116.5767850  16.1943640 149.4620960
 105.4385400  17.6052680 142.7809360 105.3560070  18.5483440 142.9224350
 105.0868460  17.4627590 141.9021710 109.0885910  16.2218200 150.8073920
 108.7485960  16.6993430 151.5640970 108.3263230  15.7683320 150.4475020
 113.3003680  17.3403790 144.8386470 113.4216500  17.2990270 145.7872290
 112.9152190  18.2027940 144.6833200 112.3125180  19.6504930 144.2369770
 111.7442080  19.2023180 143.6105680 113.0214180  20.0097710 143.7034920
 106.4031990  15.1437180 149.7238590 106.1178910  14.7792850 150.5617210
 106.3410850  14.4117640 149.1101730 109.8572660  23.6463120 146.5096180
 109.0834920  23.1060740 146.3494900 110.5867290  23.1269730 146.1713940
 116.0770580  14.0366440 146.4451960 115.2635190  13.5379610 146.3697270
 115.8832530  14.8764690 146.0288310 118.7918970  18.4086090 144.7414120
 119.6798590  18.7203320 144.5665460 118.7624060  17.5358340 144.3494700
 109.9010060  23.3143500 150.1474990 110.4188730  22.5111760 150.0931880
 109.4494080  23.2522640 150.9891820 114.7879560  24.5809780 145.4202290
 115.1295260  25.3252010 144.9245610 113.9592270  24.8940900 145.7827120
 121.0633240  19.7197930 144.2093980 120.9796960  20.1512150 143.3590420
 121.7827430  20.1796280 144.6420800 122.0920490  26.5740190 146.9376110
 121.4496650  25.9195810 147.2119830 121.7051150  26.9795280 146.1616780
 117.6706970  23.9025620 150.7847800 118.0230790  23.3053750 150.1249170
 116.7869300  23.5769850 150.9556050 113.7570250  24.6623310 148.1918210
 114.4441380  25.2092520 148.5725800 112.9702670  25.2064040 148.2267820
 105.8962650  20.2796130 143.6835290 106.7657500  20.5620930 143.9671210
 105.4052970  21.0932000 143.5684100 113.0597460  21.6669340 147.8043570
 113.5160240  22.4774590 148.0303760 112.7085670  21.3492480 148.6362060
 108.9609240  12.0106990 148.2766090 108.8323870  12.0024890 149.2251010
 108.1371260  12.3490080 147.9257100 120.4817870  25.4656650 143.4752460
 120.2555450  24.7487090 144.0677100 120.0914070  25.2169090 142.6374210
 106.2633900  29.4923510 144.2496920 106.6231540  30.0912850 143.5954190
 106.1226240  30.0383400 145.0231950 120.0634120  23.3828590 145.1366620
 119.7755820  23.8441280 145.9244500 120.8586290  22.9226360 145.4050840
 112.2802520  26.8754710 145.0670590 112.2712620  27.6084400 144.4515100
 111.3600880  26.6286290 145.1597550 107.8809160  22.0969600 145.8117350
 107.2737110  22.8368500 145.8212650 108.3558510  22.1868960 144.9855550
 120.8203980  15.2177360 146.2961800 120.1917140  15.3223030 145.5820030
 120.3255900  15.4374140 147.0855680 115.2662120  26.9382950 143.7295780
 115.3674100  26.7346940 142.7997760 114.3663860  26.6841230 143.9343560
 112.7888010  17.4963310 147.7119680 112.0804160  17.9649650 148.1533290
 113.0732490  16.8385320 148.3464870 116.8203440  14.2213970 149.1515470
 116.6971220  14.2400100 148.2024980 117.7688000  14.2692910 149.2713870
 113.9080230  29.4569270 148.4243450 114.1621730  29.4190660 147.5022820
 112.9592710  29.3302600 148.4171700 110.9923030  15.8048390 145.0870390
 111.8413560  16.2418540 145.0210580 110.6254300  16.1168650 145.9142450
 119.9132810  20.3761150 150.0001960 118.9722950  20.3911380 150.1749650
 120.2276880  19.5897110 150.4462260 109.8914450  22.0580750 143.5605920
 110.6577720  21.9462110 144.1231350 109.9689140  21.3618720 142.9082690
 108.5861210  19.4905820 144.2438810 108.6664800  18.5433330 144.3556210
 109.4780960  19.8212700 144.3499470 109.3875920  29.6401210 151.3473350
 110.1238400  29.0916670 151.6181920 109.7716840  30.5057220 151.2079340
 106.2721400  25.7074780 147.2214860 105.3461180  25.9495920 147.2120270
 106.7377830  26.5349040 147.0999610 112.4978230  28.8131520 143.1698920
 113.2906840  29.1020350 142.7180710 111.9782580  28.3823690 142.4911400
 121.5508400  28.0401650 144.5935660 121.2649910  27.6266790 143.7789840
 121.3527950  28.9689360 144.4736180 113.0155630  24.0334930 143.0341270
 112.9106270  23.4187280 143.7602650 112.8479850  23.5100820 142.2504280
 116.2558360  23.0954960 143.6383260 115.7068460  23.5424260 144.2826000
 116.8777620  22.5904210 144.1620930 111.9233480  22.0545880 145.5348560
 112.3449900  21.8885750 146.3779950 112.0484320  21.2446110 145.0403700
 114.4361120  21.0783490 142.7825660 114.9566780  20.3632510 142.4166810
 115.0829520  21.7169360 143.0826170 110.8192380  18.1279110 142.4806720
 110.6181440  17.2646470 142.8420060 110.6484430  18.0412470 141.5428320
 118.2980690  12.9387340 145.0093600 118.5782980  12.0955240 145.3653020
 117.5246420  13.1710450 145.5232350 109.6175180  15.2279730 142.4684600
 109.9201080  15.2347160 141.5603750 110.3569770  14.8777590 142.9652260
 112.8360110  14.1714350 143.4540800 112.4882110  13.4938340 142.8743250
 113.0372880  13.7103860 144.2684190 115.0009150  29.1595100 145.0727400
 115.8959940  29.4980070 145.0946160 115.0326780  28.4374510 144.4451680
 108.6405310  24.5322150 143.3014400 109.0780180  25.0751820 143.9571980
 109.1253040  23.7069100 143.3110740 105.8551110  27.3211180 150.7534660
 106.1854120  26.4532240 150.5213300 106.2842110  27.5269700 151.5839620
 110.4513030  25.6520190 148.4136630 110.1508570  25.5285160 149.3140540
 110.3450520  24.7928780 148.0052360 123.2204950  25.4316590 143.1163310
 122.3897910  25.4993240 143.5870540 123.3976780  26.3220710 142.8130170
 122.6761410  22.1764070 145.6197510 123.4380320  22.7460720 145.7257200
 122.6915780  21.6091270 146.3905820 106.1765750  20.7002000 149.8505170
 105.5214590  20.4313640 149.2064870 107.0143700  20.5906480 149.4007150
 123.6821380  23.0314170 150.4639440 124.0530210  22.2481490 150.0575410
 124.3223310  23.7203270 150.2856740 122.7280580  22.4698440 142.7770030
 123.0029420  23.3777320 142.6489250 122.5391320  22.4060970 143.7132020
 119.1256190  15.4943290 144.0723660 119.5441070  15.3074270 143.2320320
 118.8192250  14.6422340 144.3826590 122.6245920  20.4067430 147.7699460
 122.2489520  19.6395360 147.3380750 121.8949040  20.7890130 148.2574390
 105.3903830  17.9100930 145.7930500 104.4867910  18.1731130 145.6182160
 105.8744450  18.1812100 145.0130460 107.9331040  16.9666470 143.7024880
 108.6422740  16.5449690 143.2172160 107.2170980  17.0341700 143.0708230
 107.5805200  13.0205800 142.7427530 108.3033330  13.5614740 143.0608750
 107.8529720  12.7469220 141.8669070 121.3896850  17.8898270 147.0099110
 121.8855970  17.6569140 147.7947990 121.1912920  17.0510110 146.5936750
 122.8184010  16.5259220 149.5436790 122.7083290  16.3715260 150.4819060
 123.5791600  15.9980160 149.3012200 123.7074280  14.3567140 142.7842930
 124.6323590  14.2248320 142.5761220 123.6850070  14.4359960 143.7379380
 123.7812770  15.1277800 145.4099640 122.9864270  15.0622920 145.9392550
 123.9856050  16.0628440 145.3984990 120.7231190  29.1669350 149.4038030
 121.3190260  28.8453920 148.7272450 120.9809340  28.6941170 150.1951300
 122.0771270  13.0889920 149.8707290 122.0159670  12.1451140 149.7238310
 122.8563300  13.1970010 150.4160750 106.3824020  29.2282280 148.8331240
 106.2146060  28.5952960 149.5313130 105.5158530  29.4341680 148.4825430
 107.0052040  13.0599060 146.3363100 107.7631400  13.1727940 145.7627130
 106.5429210  13.8968260 146.2906530 113.5465850  15.1738330 149.3265410
 112.7340360  14.7995220 148.9861290 114.0507490  14.4183410 149.6286600
 118.0490830  11.8380780 150.5648480 118.6520200  12.4100990 151.0397000
 117.3083820  12.4020220 150.3422380 121.1925430  12.2402340 145.8388760
 121.3876060  13.1385790 146.1056190 120.4055300  12.0089420 146.3321710
 107.9886720  27.9215510 146.2781380 107.4634340  28.3023540 145.5743340
 107.9131300  28.5466280 146.9991090 109.3777190  13.5863110 144.8765070
 109.9069950  12.7992910 144.7473020 110.0105510  14.2654300 145.1100600
 111.5715030  13.3238250 147.9310460 110.9417770  12.6225560 148.0980590
 111.0320170  14.0842380 147.7143620 122.7452040  29.4803050 147.5995320
 122.9204230  28.7940790 146.9556240 122.0473610  30.0050100 147.2071990
 110.5879690  29.8697890 145.1530630 111.3198510  29.5857170 144.6054520
 110.8473360  29.6311170 146.0430010 109.7494480  25.9862620 145.1576960
 109.1203360  26.4547720 145.7062790 109.8642310  25.1411840 145.5923150
 117.2044200  20.0368280 131.3078160 117.1238250  19.1222890 131.0369870
 116.7908620  20.5335350 130.6017870 115.3362240  21.8147300 133.1887430
 114.5604340  21.3347740 133.4786000 115.9875170  21.1352950 133.0143590
 109.3528070  22.1267110 134.0663190 108.5212950  21.8715820 134.4659700
 109.9609050  22.1977880 134.8021110 119.3569670  26.2207490 131.9686560
 118.8951200  25.4494730 132.2973730 120.1695220  26.2473560 132.4739010
 109.3329330  26.1607200 134.2621210 109.6357370  25.2704940 134.0831430
 110.0772920  26.7177420 134.0343460 107.7620020  17.0869000 127.8505580
 106.8736720  17.4284970 127.7485460 108.0461210  16.8869320 126.9586410
 105.7253030  19.6874650 133.7345280 106.2969140  18.9196850 133.7348920
 105.7254570  19.9863410 132.8251890 115.5832980  28.5065500 131.5890550
 114.9644420  28.9623000 131.0184990 116.4384760  28.6616960 131.1880250
 114.7771230  24.4904490 133.1957590 114.7079510  23.5494430 133.0346720
 115.5391090  24.5805900 133.7680160 106.9677900  15.0959010 135.5214210
 106.7880740  14.1984760 135.8016970 106.5657980  15.6430880 136.1961160
 115.8076400  17.2974870 133.4226520 116.1841220  16.4246750 133.3100190
 115.7095910  17.6333570 132.5316960 109.9381410  15.6700500 128.8843960
 110.0448160  16.5704230 129.1912720 109.0273770  15.6218470 128.5938610
 119.5900520  14.7925310 130.3554860 120.4110140  14.3021880 130.3980340
 119.6234600  15.3822970 131.1086700 107.5864570  17.5919510 134.1296550
 108.2674680  17.8557880 134.7483950 107.2712620  16.7520380 134.4634560
 111.7789140  18.6386870 133.2169140 112.2867360  19.1367840 133.8574160
 112.3102380  17.8622070 133.0408500 123.8800070  16.8092060 136.9198490
 123.1752240  17.1973770 136.4013600 124.1457990  17.5042350 137.5219420
 110.0625240  13.2785430 137.4832560 110.0643680  13.7957820 136.6778460
 109.2329550  12.8015610 137.4602490 116.4496330  23.3904740 128.9822460
 115.8313600  23.8554190 128.4185180 116.9619580  24.0832220 129.3991970
 111.3128090  22.9180610 135.6606060 110.9797470  23.5449530 136.3027130
 111.4894770  23.4442490 134.8807730 119.8262000  16.7325690 133.1282400
 119.1217570  17.0210580 133.7085510 120.1874160  17.5425800 132.7681960
 109.7440570  14.9895390 135.4903010 110.0857380  15.8337440 135.1956880
 108.8056380  15.1379130 135.6068350 110.5247190  24.8861410 137.4755240
 111.1421190  25.5612490 137.1939690 109.6640310  25.2949390 137.3842740
 105.8179530  24.0761270 126.3562090 105.4407510  24.5648370 125.6246990
 106.0752600  24.7486550 126.9868620 121.4424780  26.3500820 135.3909880
 120.7588300  27.0199930 135.3826550 121.9819070  26.5481470 134.6254740
 122.8948920  16.1780480 133.5191610 121.9473830  16.2119460 133.6507040
 123.2198910  16.9919430 133.9040970 113.4268460  12.4777660 131.8147600
 113.7343440  11.9224550 131.0983100 112.4969160  12.6122120 131.6320590
 118.9783520  28.1944950 134.1055060 118.9910680  27.7907240 133.2377320
 118.4258740  28.9692240 134.0016490 120.2728940  24.9161170 129.1945230
 120.1625270  23.9735500 129.3194650 120.2697190  25.2776810 130.0807990
 118.3768960  23.0974790 135.4337670 118.7937750  22.8834900 134.5991130
 119.1008780  23.3547580 136.0046290 115.8149220  20.5426490 128.5507720
 114.8878500  20.4763870 128.7796190 115.9674040  21.4806620 128.4362960
 115.8018300  16.8143490 125.5474880 114.8621970  16.9757450 125.6327340
 116.1201560  17.5329170 125.0010870 122.3231060  21.4962010 135.5253910
 121.4949690  21.5655100 135.0504040 122.9181540  22.0816320 135.0569740
 119.8446510  22.1046790 129.0542970 119.2258930  21.7666340 128.4069270
 119.8270960  21.4606550 129.7622160 119.2873070  18.2831330 136.4708780
 118.8744250  19.1085040 136.7248770 118.5549020  17.6976370 136.2785140
 111.4205860  21.0691230 131.3327450 111.0162860  20.3568480 130.8373350
 111.5068980  20.7244470 132.2215490 111.8887560  24.7558790 133.4966660
 111.5915850  24.1504260 132.8174440 112.8387380  24.7936100 133.3856020
 110.1334480  17.8434440 135.1126490 110.6849070  17.9529780 134.3379740
 110.6477990  18.2172040 135.8281720 119.9773170  28.3290660 137.1589760
 119.5003730  29.1362850 136.9662370 119.2934960  27.6768990 137.3115970
 110.9805990  24.4940480 140.1474460 110.0834520  24.7180450 140.3947860
 111.0058860  24.6175420 139.1985860 118.0211210  21.3433600 126.0615720
 118.4604490  20.5056030 125.9153540 118.7339630  21.9763000 126.1479860
 109.8077210  21.3653800 138.7231830 109.6684980  22.2376600 139.0919230
 108.9258570  21.0226610 138.5779770 116.1306590  26.2829670 130.0296960
 116.5702500  27.0254000 129.6152350 116.0693480  26.5256240 130.9535920
 111.6057560  27.3075500 140.9316980 111.5772990  27.7118450 140.0645410
 111.4422530  26.3785860 140.7688580 121.6028350  12.5976410 124.3756760
 121.2901010  12.6903240 125.2755830 122.3640820  13.1757440 124.3254190
 108.1210490  19.9636210 128.8334100 108.0008090  20.6898300 128.2215370
 107.8111380  19.1939120 128.3562010 123.5572380  28.0902600 142.2281150
 124.0332100  28.5685490 142.9070230 124.1779540  28.0220090 141.5026650
 105.7595860  23.1351350 134.6402740 105.8376280  23.2700120 133.6958460
 106.3737540  22.4267240 134.8330860 107.0043490  24.8351540 131.0508920
 106.5971570  24.9766130 130.1962520 107.8956500  24.5511700 130.8480130
 122.9605630  25.2815450 139.3881160 123.0868690  25.0427330 138.4698340
 123.0027010  24.4499990 139.8603240 116.8222370  28.9843450 137.9575970
 117.3367040  28.8951460 138.7598400 115.9791450  29.3303150 138.2503880
 118.7976770  29.2698790 127.3859970 118.6377910  28.9801730 128.2841800
 118.6323480  28.4938920 126.8505200 111.2765150  29.0497320 129.1631590
 111.1007630  28.1332860 128.9499390 110.4220890  29.4084610 129.4029390
 118.5002900  26.7786350 125.9457970 117.8068060  26.7763640 125.2860250
 119.2425760  26.3545670 125.5152140 118.0652830  28.4049060 130.0206460
 118.5209780  27.6238440 130.3345080 118.4045350  29.1155880 130.5647640
 122.8129640  17.3347910 140.3530900 122.1973910  17.8427580 139.8246360
 122.4926060  16.4346240 140.2956840 105.8155380  24.1765520 137.1797200
 105.9786420  23.7070880 136.3616570 106.2807830  23.6689080 137.8446040
 110.5874150  13.3071280 132.2157770 110.1442300  14.0880820 131.8842290
 111.1459140  13.6301170 132.9228710 114.8743960  16.1739800 137.8193090
 114.4123330  16.3822820 138.6313030 114.4722070  15.3599150 137.5163760
 119.8748470  17.3948750 138.9489750 119.0242060  17.0954500 139.2698820
 119.7150260  17.6390760 138.0373570 116.9698180  18.8950500 141.0488540
 117.2951590  18.0614250 140.7090770 117.7578510  19.4179020 141.1966870
 113.7032970  12.9281980 127.0963600 113.0787150  12.9241850 127.8216910
 113.6163090  12.0612940 126.6999570 112.6250050  13.8518610 134.0747370
 112.9222380  14.7581440 133.9939390 113.1735610  13.3637390 133.4606940
 110.3788370  18.4304850 129.9439020 110.1529290  18.2142020 130.8485640
 109.5980900  18.8633310 129.5984990 117.6086130  18.4368220 128.5429670
 117.0095020  19.1604020 128.3593290 118.1565740  18.3745000 127.7606120
 112.8187580  19.3290430 140.6099290 112.7231180  18.3885160 140.4599690
 113.6619560  19.5505500 140.2147360 116.2151000  17.0731760 130.5732950
 116.6080570  17.3903960 129.7601640 116.5767850  16.1943640 130.6877470
 107.9498120  15.7404100 138.7633070 107.5561510  16.5879310 138.9705850
 107.2616520  15.1030470 138.9541710 114.5243170  15.8239070 141.8329810
 113.8341490  15.6311270 142.4675900 115.2675470  16.1073710 142.3654110
 105.2515170  13.6632560 132.7963150 104.9628220  14.2335420 133.5088130
 105.9960930  13.1837010 133.1594380 105.4385400  17.6052680 124.0065870
 105.3560070  18.5483440 124.1480860 105.0868460  17.4627590 123.1278220
 116.8006140  19.6637510 134.6683730 116.0687260  20.1724320 135.0173830
 116.4030480  18.8467490 134.3672510 113.2383530  16.3391710 133.0736220
 113.2419590  15.8981660 132.2240760 114.1334650  16.6609040 133.1808040
 109.0885910  16.2218200 132.0330430 108.7485960  16.6993430 132.7897480
 108.3263230  15.7683320 131.6731530 113.3003680  17.3403790 126.0642980
 113.4216500  17.2990270 127.0128800 112.9152190  18.2027940 125.9089710
 117.2632050  15.1171190 134.0806670 117.2804790  15.5679840 134.9248520
 117.0147630  14.2176830 134.2940110 112.3125180  19.6504930 125.4626280
 111.7442080  19.2023180 124.8362190 113.0214180  20.0097710 124.9291430
 120.6902800  12.5303370 139.9193050 121.0148570  11.7993030 140.4451030
 120.7259310  12.2117010 139.0174040 107.3894360  23.5516950 139.3393010
 107.0049150  22.9110620 139.9375970 107.7006550  24.2553070 139.9087740
 113.5391500  20.3993490 134.8201630 113.9061630  19.9252060 135.5662970
 113.3496560  21.2735060 135.1609970 106.4031990  15.1437180 130.9495100
 106.1178910  14.7792850 131.7873720 106.3410850  14.4117640 130.3358240
 111.3290870  19.4402130 137.1385840 111.0247940  20.3194110 137.3636200
 112.2837330  19.5001920 137.1743280 109.8572660  23.6463120 127.7352690
 109.0834920  23.1060740 127.5751410 110.5867290  23.1269730 127.3970450
 120.6160640  22.6428480 133.5279080 121.3359760  23.1383770 133.1375190
 120.4142460  21.9646370 132.8832950 116.0770580  14.0366440 127.6708470
 115.2635190  13.5379610 127.5953780 115.8832530  14.8764690 127.2544820
 115.9979440  22.7137540 139.4148080 115.9316750  21.7933210 139.1605670
 115.3684580  22.8112980 140.1292720 118.7918970  18.4086090 125.9670630
 119.6798590  18.7203320 125.7921970 118.7624060  17.5358340 125.5751210
 109.9010060  23.3143500 131.3731500 110.4188730  22.5111760 131.3188390
 109.4494080  23.2522640 132.2148330 114.7879560  24.5809780 126.6458800
 115.1295260  25.3252010 126.1502120 113.9592270  24.8940900 127.0083630
 107.3854600  20.2804870 138.2857200 107.0269540  20.9458720 138.8730540
 107.0909160  19.4488420 138.6569820 110.5867720  20.7389110 141.1696750
 110.2867860  20.8846290 140.2724570 111.3578960  20.1794400 141.0770140
 115.9296170  25.5358110 139.1651880 115.9440710  24.6039070 138.9470790
 115.2221270  25.6217870 139.8041650 121.0633240  19.7197930 125.4350490
 120.9796960  20.1512150 124.5846930 121.7827430  20.1796280 125.8677310
 122.1407380  22.1765450 138.5120460 121.4155570  22.7694230 138.3149850
 122.6682840  22.1688990 137.7133830 122.0920490  26.5740190 128.1632620
 121.4496650  25.9195810 128.4376340 121.7051150  26.9795280 127.3873290
 117.6706970  23.9025620 132.0104310 118.0230790  23.3053750 131.3505680
 116.7869300  23.5769850 132.1812560 113.7570250  24.6623310 129.4174720
 114.4441380  25.2092520 129.7982310 112.9702670  25.2064040 129.4524330
 105.8962650  20.2796130 124.9091800 106.7657500  20.5620930 125.1927720
 105.4052970  21.0932000 124.7940610 113.0597460  21.6669340 129.0300080
 113.5160240  22.4774590 129.2560270 112.7085670  21.3492480 129.8618570
 115.3630070  27.1775680 136.2592380 116.0072290  27.3835060 136.9365800
 115.7259510  26.4164080 135.8063230 108.9609240  12.0106990 129.5022600
 108.8323870  12.0024890 130.4507520 108.1371260  12.3490080 129.1513610
 116.6362150  25.1808030 134.9769830 117.2784380  24.4801190 135.0902000
 117.1611500  25.9606470 134.7966720 120.4817870  25.4656650 124.7008970
 120.2555450  24.7487090 125.2933610 120.0914070  25.2169090 123.8630720
 118.4099770  25.9802930 138.1805890 118.7456010  26.5669620 138.8583810
 117.4900110  25.8495640 138.4103680 106.2633900  29.4923510 125.4753430
 106.6231540  30.0912850 124.8210700 106.1226240  30.0383400 126.2488460
 105.9603170  13.7698110 138.9629300 105.2461690  13.9695030 139.5681910
 106.3798210  12.9937680 139.3344100 120.0634120  23.3828590 126.3623130
 119.7755820  23.8441280 127.1501010 120.8586290  22.9226360 126.6307350
 106.2475760  27.7578370 139.9495830 106.3566880  26.8173110 139.8091220
 105.5956320  28.0233120 139.3009560 114.2388350  26.0294260 141.3493950
 113.9185220  25.3103500 141.8939640 113.5646710  26.7049330 141.4230010
 112.2802520  26.8754710 126.2927100 112.2712620  27.6084400 125.6771610
 111.3600880  26.6286290 126.3854060 107.8809160  22.0969600 127.0373860
 107.2737110  22.8368500 127.0469160 108.3558510  22.1868960 126.2112060
 117.4541950  16.2620420 136.7130750 117.8222770  15.4415630 137.0410320
 116.5940150  16.3222310 137.1286400 120.8203980  15.2177360 127.5218310
 120.1917140  15.3223030 126.8076540 120.3255900  15.4374140 128.3112190
 115.2662120  26.9382950 124.9552290 115.3674100  26.7346940 124.0254270
 114.3663860  26.6841230 125.1600070 112.7888010  17.4963310 128.9376190
 112.0804160  17.9649650 129.3789800 113.0732490  16.8385320 129.5721380
 114.4143940  18.9160010 136.9368720 114.9129190  19.3905830 137.6020570
 114.5566890  17.9923530 137.1438750 116.8203440  14.2213970 130.3771980
 116.6971220  14.2400100 129.4281490 117.7688000  14.2692910 130.4970380
 113.9080230  29.4569270 129.6499960 114.1621730  29.4190660 128.7279330
 112.9592710  29.3302600 129.6428210 110.9923030  15.8048390 126.3126900
 111.8413560  16.2418540 126.2467090 110.6254300  16.1168650 127.1398960
 121.6210800  15.1327970 137.7797110 121.1184400  15.8733370 138.1190920
 122.4367460  15.5211970 137.4633900 119.9132810  20.3761150 131.2258470
 118.9722950  20.3911380 131.4006160 120.2276880  19.5897110 131.6718770
 109.8914450  22.0580750 124.7862430 110.6577720  21.9462110 125.3487860
 109.9689140  21.3618720 124.1339200 108.5861210  19.4905820 125.4695320
 108.6664800  18.5433330 125.5812720 109.4780960  19.8212700 125.5755980
 121.9158390  27.5470000 132.9012730 122.0405810  28.3701170 133.3736540
 122.7823950  27.3360730 132.5536880 109.3875920  29.6401210 132.5729860
 110.1238400  29.0916670 132.8438430 109.7716840  30.5057220 132.4335850
 106.2721400  25.7074780 128.4471370 105.3461180  25.9495920 128.4376780
 106.7377830  26.5349040 128.3256120 108.3934200  28.8247280 141.7615440
 109.1946930  29.1459330 142.1750840 107.8786020  28.4642860 142.4835350
 112.4978230  28.8131520 124.3955430 113.2906840  29.1020350 123.9437220
 111.9782580  28.3823690 123.7167910 117.2298830  24.9327150 141.7090850
 116.6236990  24.9558750 140.9686600 116.9252940  24.2010190 142.2458100
 118.6599200  28.6607440 140.3200260 119.6120950  28.5765460 140.2700500
 118.5127420  29.3249150 140.9934050 121.5508400  28.0401650 125.8192170
 121.2649910  27.6266790 125.0046350 121.3527950  28.9689360 125.6992690
 106.1132010  21.3120740 140.7051490 106.6171030  20.7328020 141.2767720
 105.3739430  21.5960970 141.2427860 113.0155630  24.0334930 124.2597780
 112.9106270  23.4187280 124.9859160 112.8479850  23.5100820 123.4760790
 113.1669950  22.7191730 140.2387010 112.4015620  23.2876730 140.1541680
 113.3485910  22.4267940 139.3455240 116.2558360  23.0954960 124.8639770
 115.7068460  23.5424260 125.5082510 116.8777620  22.5904210 125.3877440
 120.3093300  24.4497060 140.7962030 121.0502770  24.7872820 140.2929490
 119.5465980  24.6189120 140.2431800 108.1455090  19.4550330 141.6001560
 108.1860430  19.1564200 142.5086790 109.0000590  19.8557940 141.4409080
 111.9233480  22.0545880 126.7605070 112.3449900  21.8885750 127.6036460
 112.0484320  21.2446110 126.2660210 110.0860900  18.0342430 139.5676050
 109.5557360  17.5433380 138.9399390 110.7548970  18.4626630 139.0333980
 114.4361120  21.0783490 124.0082170 114.9566780  20.3632510 123.6423320
 115.0829520  21.7169360 124.3082680 118.9838960  22.5011890 139.3317240
 119.3979980  22.6556970 140.1807660 118.0489960  22.6267110 139.4943020
 119.4561130  19.8408050 141.3356390 120.0381900  19.0860370 141.2476870
 119.6322900  20.3715490 140.5587870 110.5733200  15.0004800 139.6473340
 110.4790070  14.3825550 138.9224210 109.9930590  15.7271090 139.4203250
 113.3394640  13.5578040 136.6800730 112.8911940  13.5802300 135.8346280
 112.7059840  13.1597060 137.2771030 113.7454190  22.4532370 137.3013170
 114.1642300  23.2965100 137.1289410 112.8262820  22.5904410 137.0719950
 116.0818090  20.1848550 138.6851010 116.2014300  19.5889690 139.4245850
 116.9412090  20.2218240 138.2652310 118.4205990  20.7385740 137.2613520
 117.8941210  21.2628360 136.6578660 118.7637330  21.3713130 137.8923250
 110.8192380  18.1279110 123.7063230 110.6181440  17.2646470 124.0676570
 110.6484430  18.0412470 122.7684830 111.5961610  28.7585380 138.4170900
 111.0582700  29.4831440 138.0979600 111.8495570  28.2815720 137.6268240
 112.8486860  16.7269900 139.9426830 113.4386550  16.4185750 140.6304650
 112.0307100  16.2549650 140.0986730 117.6680290  16.3435710 140.1759850
 116.9795810  15.6817250 140.1109840 118.3886310  15.8973980 140.6208310
 118.2980690  12.9387340 126.2350110 118.5782980  12.0955240 126.5909530
 117.5246420  13.1710450 126.7488860 109.6175180  15.2279730 123.6941110
 109.9201080  15.2347160 122.7860260 110.3569770  14.8777590 124.1908770
 114.4523820  29.9936590 138.6757550 114.3782520  30.8971730 138.9829920
 113.5502660  29.6748490 138.6479620 112.8360110  14.1714350 124.6797310
 112.4882110  13.4938340 124.0999760 113.0372880  13.7103860 125.4940700
 115.0009150  29.1595100 126.2983910 115.8959940  29.4980070 126.3202670
 115.0326780  28.4374510 125.6708190 108.6405310  24.5322150 124.5270910
 109.0780180  25.0751820 125.1828490 109.1253040  23.7069100 124.5367250
 105.8551110  27.3211180 131.9791170 106.1854120  26.4532240 131.7469810
 106.2842110  27.5269700 132.8096130 110.4513030  25.6520190 129.6393140
 110.1508570  25.5285160 130.5397050 110.3450520  24.7928780 129.2308870
 106.3441320  28.1881770 134.7172800 105.9072310  28.3682570 135.5496950
 106.9119000  28.9456390 134.5754520 121.9803500  27.6898770 139.0050110
 121.3805490  27.7491330 138.2614030 122.1097400  26.7503750 139.1346960
 123.2204950  25.4316590 124.3419820 122.3897910  25.4993240 124.8127050
 123.3976780  26.3220710 124.0386680 122.6761410  22.1764070 126.8454020
 123.4380320  22.7460720 126.9513710 122.6915780  21.6091270 127.6162330
 106.1765750  20.7002000 131.0761680 105.5214590  20.4313640 130.4321380
 107.0143700  20.5906480 130.6263660 123.6821380  23.0314170 131.6895950
 124.0530210  22.2481490 131.2831920 124.3223310  23.7203270 131.5113250
 120.6655140  24.4150750 137.1026270 119.8514980  24.8447910 137.3652060
 121.0729340  25.0269160 136.4895320 122.7280580  22.4698440 124.0026540
 123.0029420  23.3777320 123.8745760 122.5391320  22.4060970 124.9388530
 119.1256190  15.4943290 125.2980170 119.5441070  15.3074270 124.4576830
 118.8192250  14.6422340 125.6083100 122.6245920  20.4067430 128.9955970
 122.2489520  19.6395360 128.5637260 121.8949040  20.7890130 129.4830900
 107.2141680  21.0854570 135.6165020 107.5814720  20.9981970 136.4961040
 106.6452500  20.3221120 135.5171880 122.0145540  19.5538950 138.6295490
 121.7831630  19.3251700 137.7293440 122.2750090  20.4738500 138.5840380
 106.7657680  17.9963660 139.5223440 105.8713730  17.9630420 139.8617150
 107.3055230  18.1950450 140.2874690 120.4533610  14.7795380 141.4075190
 121.3303790  14.7878780 141.7909190 120.4654450  14.0426220 140.7967540
 105.3903830  17.9100930 127.0187010 104.4867910  18.1731130 126.8438670
 105.8744450  18.1812100 126.2386970 121.8996880  18.6324920 132.2963210
 122.4234360  18.1387570 131.6653380 122.4856300  18.7675280 133.0410780
 122.0786600  18.7164790 135.8182760 121.1289310  18.6828330 135.9327750
 122.2599610  19.6264900 135.5832530 107.9331040  16.9666470 124.9281390
 108.6422740  16.5449690 124.4428670 107.2170980  17.0341700 124.2964740
 107.5805200  13.0205800 123.9684040 108.3033330  13.5614740 124.2865260
 107.8529720  12.7469220 123.0925580 121.3896850  17.8898270 128.2355620
 121.8855970  17.6569140 129.0204500 121.1912920  17.0510110 127.8193260
 107.2697390  12.2711990 133.8706660 107.9173580  11.7209370 133.4301820
 107.6899230  12.5255140 134.6922470 122.8184010  16.5259220 130.7693300
 122.7083290  16.3715260 131.7075570 123.5791600  15.9980160 130.5268710
 121.1649730  12.4653350 137.2276300 121.8021950  13.0787490 137.5935490
 121.3124620  12.5014010 136.2825530 123.7074280  14.3567140 124.0099440
 124.6323590  14.2248320 123.8017730 123.6850070  14.4359960 124.9635890
 123.7812770  15.1277800 126.6356150 122.9864270  15.0622920 127.1649060
 123.9856050  16.0628440 126.6241500 120.7231190  29.1669350 130.6294540
 121.3190260  28.8453920 129.9528960 120.9809340  28.6941170 131.4207810
 107.0229390  12.4267660 136.6131980 106.6744210  12.8831480 137.3790160
 106.6917090  11.5324790 136.6954410 108.6293760  25.5987260 140.7785170
 108.5863390  25.2280170 141.6599630 108.7604770  26.5364830 140.9186990
 112.3299790  27.1546850 136.3794890 112.0891150  27.4221410 135.4925410
 113.2702430  27.3252580 136.4345750 114.5354210  13.6179540 140.1351400
 114.4743100  14.2101370 140.8846810 115.4754590  13.5105500 139.9901660
 117.1728770  13.2749600 139.7743690 117.7869180  13.5928890 139.1124770
 117.7178330  12.7898190 140.3939550 123.5903950  29.1741230 137.1805530
 123.0962230  29.5710100 136.4632660 122.9817240  28.5490440 137.5742810
 107.6950030  11.9543860 139.8882750 108.2433020  11.7731910 139.1248860
 107.7605340  11.1637970 140.4239060 108.4681790  28.5449510 137.8982950
 107.8742110  28.4134210 138.6372990 108.4605630  27.7087650 137.4325050
 117.9136810  11.8381740 136.1012980 117.0396650  12.1716850 135.8985910
 117.8047560  11.3654920 136.9264850 118.8208790  14.0452610 137.4854700
 118.4922150  13.2304370 137.1056430 119.7691090  14.0022420 137.3620390
 121.2743400  29.8164650 134.4592270 120.8146370  30.5680460 134.0850290
 120.6455860  29.0971120 134.4007070 108.0994020  25.9107890 136.8490990
 107.3728080  25.2913180 136.7816940 108.1603170  26.3048500 135.9789070
 111.7039120  28.1252890 133.6340400 112.2204140  27.5140250 133.1088660
 112.3536500  28.6281670 134.1251410 114.4434620  29.0161380 134.4609380
 114.7312430  28.7615680 133.5842390 114.9557840  28.4638740 135.0514950
 115.6611630  12.7551580 135.0405890 114.8783420  13.2297080 135.3202650
 115.3674560  11.8506410 134.9319070 120.2132700  13.4574680 133.0854980
 120.6540790  13.4019780 132.2376580 119.9440290  14.3732690 133.1565160
 122.0771270  13.0889920 131.0963800 122.0159670  12.1451140 130.9494820
 122.8563300  13.1970010 131.6417260 106.3824020  29.2282280 130.0587750
 106.2146060  28.5952960 130.7569640 105.5158530  29.4341680 129.7081940
 107.0052040  13.0599060 127.5619610 107.7631400  13.1727940 126.9883640
 106.5429210  13.8968260 127.5163040 113.5465850  15.1738330 130.5521920
 112.7340360  14.7995220 130.2117800 114.0507490  14.4183410 130.8543110
 118.0490830  11.8380780 131.7904990 118.6520200  12.4100990 132.2653510
 117.3083820  12.4020220 131.5678890 121.1925430  12.2402340 127.0645270
 121.3876060  13.1385790 127.3312700 120.4055300  12.0089420 127.5578220
 107.9886720  27.9215510 127.5037890 107.4634340  28.3023540 126.7999850
 107.9131300  28.5466280 128.2247600 109.3777190  13.5863110 126.1021580
 109.9069950  12.7992910 125.9729530 110.0105510  14.2654300 126.3357110
 111.5715030  13.3238250 129.1566970 110.9417770  12.6225560 129.3237100
 111.0320170  14.0842380 128.9400130 114.5106980  29.9377480 141.8277580
 115.4374290  29.7021750 141.8713540 114.4957410  30.7649480 141.3463610
 122.7452040  29.4803050 128.8251830 122.9204230  28.7940790 128.1812750
 122.0473610  30.0050100 128.4328500 111.6970590  12.6022230 141.5919460
 111.4154860  13.1055830 140.8280280 112.0790290  11.8043980 141.2261590
 110.5879690  29.8697890 126.3787140 111.3198510  29.5857170 125.8311030
 110.8473360  29.6311170 127.2686520 109.7494480  25.9862620 126.3833470
 109.1203360  26.4547720 126.9319300 109.8642310  25.1411840 126.8179660
 118.2986050  12.0175810 142.1699930 118.1851500  12.3370420 143.0651450
 119.1155790  12.4188320 141.8737210 121.0784540  29.1647340 141.6518620
 121.8709860  28.6696570 141.4444580 121.3717690  29.8437480 142.2594230
 117.2044200  20.0368280 112.5334670 117.1238250  19.1222890 112.2626380
 116.7908620  20.5335350 111.8274380 115.3362240  21.8147300 114.4143940
 114.5604340  21.3347740 114.7042510 115.9875170  21.1352950 114.2400100
 109.3528070  22.1267110 115.2919700 108.5212950  21.8715820 115.6916210
 109.9609050  22.1977880 116.0277620 119.3569670  26.2207490 113.1943070
 118.8951200  25.4494730 113.5230240 120.1695220  26.2473560 113.6995520
 109.3329330  26.1607200 115.4877720 109.6357370  25.2704940 115.3087940
 110.0772920  26.7177420 115.2599970 107.7620020  17.0869000 109.0762090
 106.8736720  17.4284970 108.9741970 108.0461210  16.8869320 108.1842920
 105.7253030  19.6874650 114.9601790 106.2969140  18.9196850 114.9605430
 105.7254570  19.9863410 114.0508400 115.5832980  28.5065500 112.8147060
 114.9644420  28.9623000 112.2441500 116.4384760  28.6616960 112.4136760
 114.7771230  24.4904490 114.4214100 114.7079510  23.5494430 114.2603230
 115.5391090  24.5805900 114.9936670 106.9677900  15.0959010 116.7470720
 106.7880740  14.1984760 117.0273480 106.5657980  15.6430880 117.4217670
 115.8076400  17.2974870 114.6483030 116.1841220  16.4246750 114.5356700
 115.7095910  17.6333570 113.7573470 109.9381410  15.6700500 110.1100470
 110.0448160  16.5704230 110.4169230 109.0273770  15.6218470 109.8195120
 119.5900520  14.7925310 111.5811370 120.4110140  14.3021880 111.6236850
 119.6234600  15.3822970 112.3343210 107.5864570  17.5919510 115.3553060
 108.2674680  17.8557880 115.9740460 107.2712620  16.7520380 115.6891070
 111.7789140  18.6386870 114.4425650 112.2867360  19.1367840 115.0830670
 112.3102380  17.8622070 114.2665010 123.8800070  16.8092060 118.1455000
 123.1752240  17.1973770 117.6270110 124.1457990  17.5042350 118.7475930
 110.0625240  13.2785430 118.7089070 110.0643680  13.7957820 117.9034970
 109.2329550  12.8015610 118.6859000 116.4496330  23.3904740 110.2078970
 115.8313600  23.8554190 109.6441690 116.9619580  24.0832220 110.6248480
 111.3128090  22.9180610 116.8862570 110.9797470  23.5449530 117.5283640
 111.4894770  23.4442490 116.1064240 119.8262000  16.7325690 114.3538910
 119.1217570  17.0210580 114.9342020 120.1874160  17.5425800 113.9938470
 109.7440570  14.9895390 116.7159520 110.0857380  15.8337440 116.4213390
 108.8056380  15.1379130 116.8324860 110.5247190  24.8861410 118.7011750
 111.1421190  25.5612490 118.4196200 109.6640310  25.2949390 118.6099250
 105.8179530  24.0761270 107.5818600 105.4407510  24.5648370 106.8503500
 106.0752600  24.7486550 108.2125130 121.4424780  26.3500820 116.6166390
 120.7588300  27.0199930 116.6083060 121.9819070  26.5481470 115.8511250
 122.8948920  16.1780480 114.7448120 121.9473830  16.2119460 114.8763550
 123.2198910  16.9919430 115.1297480 113.4268460  12.4777660 113.0404110
 113.7343440  11.9224550 112.3239610 112.4969160  12.6122120 112.8577100
 118.9783520  28.1944950 115.3311570 118.9910680  27.7907240 114.4633830
 118.4258740  28.9692240 115.2273000 120.2728940  24.9161170 110.4201740
 120.1625270  23.9735500 110.5451160 120.2697190  25.2776810 111.3064500
 118.3768960  23.0974790 116.6594180 118.7937750  22.8834900 115.8247640
 119.1008780  23.3547580 117.2302800 115.8149220  20.5426490 109.7764230
 114.8878500  20.4763870 110.0052700 115.9674040  21.4806620 109.6619470
 115.8018300  16.8143490 106.7731390 114.8621970  16.9757450 106.8583850
 116.1201560  17.5329170 106.2267380 122.3231060  21.4962010 116.7510420
 121.4949690  21.5655100 116.2760550 122.9181540  22.0816320 116.2826250
 119.8446510  22.1046790 110.2799480 119.2258930  21.7666340 109.6325780
 119.8270960  21.4606550 110.9878670 119.2873070  18.2831330 117.6965290
 118.8744250  19.1085040 117.9505280 118.5549020  17.6976370 117.5041650
 111.4205860  21.0691230 112.5583960 111.0162860  20.3568480 112.0629860
 111.5068980  20.7244470 113.4472000 111.8887560  24.7558790 114.7223170
 111.5915850  24.1504260 114.0430950 112.8387380  24.7936100 114.6112530
 110.1334480  17.8434440 116.3383000 110.6849070  17.9529780 115.5636250
 110.6477990  18.2172040 117.0538230 119.9773170  28.3290660 118.3846270
 119.5003730  29.1362850 118.1918880 119.2934960  27.6768990 118.5372480
 110.9805990  24.4940480 121.3730970 110.0834520  24.7180450 121.6204370
 111.0058860  24.6175420 120.4242370 118.0211210  21.3433600 107.2872230
 118.4604490  20.5056030 107.1410050 118.7339630  21.9763000 107.3736370
 109.8077210  21.3653800 119.9488340 109.6684980  22.2376600 120.3175740
 108.9258570  21.0226610 119.8036280 116.1306590  26.2829670 111.2553470
 116.5702500  27.0254000 110.8408860 116.0693480  26.5256240 112.1792430
 111.6057560  27.3075500 122.1573490 111.5772990  27.7118450 121.2901920
 111.4422530  26.3785860 121.9945090 121.6028350  12.5976410 105.6013270
 121.2901010  12.6903240 106.5012340 122.3640820  13.1757440 105.5510700
 108.1210490  19.9636210 110.0590610 108.0008090  20.6898300 109.4471880
 107.8111380  19.1939120 109.5818520 123.5572380  28.0902600 123.4537660
 124.0332100  28.5685490 124.1326740 124.1779540  28.0220090 122.7283160
 105.7595860  23.1351350 115.8659250 105.8376280  23.2700120 114.9214970
 106.3737540  22.4267240 116.0587370 107.0043490  24.8351540 112.2765430
 106.5971570  24.9766130 111.4219030 107.8956500  24.5511700 112.0736640
 122.9605630  25.2815450 120.6137670 123.0868690  25.0427330 119.6954850
 123.0027010  24.4499990 121.0859750 116.8222370  28.9843450 119.1832480
 117.3367040  28.8951460 119.9854910 115.9791450  29.3303150 119.4760390
 118.7976770  29.2698790 108.6116480 118.6377910  28.9801730 109.5098310
 118.6323480  28.4938920 108.0761710 111.2765150  29.0497320 110.3888100
 111.1007630  28.1332860 110.1755900 110.4220890  29.4084610 110.6285900
 118.5002900  26.7786350 107.1714480 117.8068060  26.7763640 106.5116760
 119.2425760  26.3545670 106.7408650 118.0652830  28.4049060 111.2462970
 118.5209780  27.6238440 111.5601590 118.4045350  29.1155880 111.7904150
 122.8129640  17.3347910 121.5787410 122.1973910  17.8427580 121.0502870
 122.4926060  16.4346240 121.5213350 105.8155380  24.1765520 118.4053710
 105.9786420  23.7070880 117.5873080 106.2807830  23.6689080 119.0702550
 110.5874150  13.3071280 113.4414280 110.1442300  14.0880820 113.1098800
 111.1459140  13.6301170 114.1485220 114.8743960  16.1739800 119.0449600
 114.4123330  16.3822820 119.8569540 114.4722070  15.3599150 118.7420270
 119.8748470  17.3948750 120.1746260 119.0242060  17.0954500 120.4955330
 119.7150260  17.6390760 119.2630080 116.9698180  18.8950500 122.2745050
 117.2951590  18.0614250 121.9347280 117.7578510  19.4179020 122.4223380
 113.7032970  12.9281980 108.3220110 113.0787150  12.9241850 109.0473420
 113.6163090  12.0612940 107.9256080 112.6250050  13.8518610 115.3003880
 112.9222380  14.7581440 115.2195900 113.1735610  13.3637390 114.6863450
 110.3788370  18.4304850 111.1695530 110.1529290  18.2142020 112.0742150
 109.5980900  18.8633310 110.8241500 117.6086130  18.4368220 109.7686180
 117.0095020  19.1604020 109.5849800 118.1565740  18.3745000 108.9862630
 112.8187580  19.3290430 121.8355800 112.7231180  18.3885160 121.6856200
 113.6619560  19.5505500 121.4403870 116.2151000  17.0731760 111.7989460
 116.6080570  17.3903960 110.9858150 116.5767850  16.1943640 111.9133980
 107.9498120  15.7404100 119.9889580 107.5561510  16.5879310 120.1962360
 107.2616520  15.1030470 120.1798220 114.5243170  15.8239070 123.0586320
 113.8341490  15.6311270 123.6932410 115.2675470  16.1073710 123.5910620
 105.2515170  13.6632560 114.0219660 104.9628220  14.2335420 114.7344640
 105.9960930  13.1837010 114.3850890 105.4385400  17.6052680 105.2322380
 105.3560070  18.5483440 105.3737370 105.0868460  17.4627590 104.3534730
 116.8006140  19.6637510 115.8940240 116.0687260  20.1724320 116.2430340
 116.4030480  18.8467490 115.5929020 113.2383530  16.3391710 114.2992730
 113.2419590  15.8981660 113.4497270 114.1334650  16.6609040 114.4064550
 109.0885910  16.2218200 113.2586940 108.7485960  16.6993430 114.0153990
 108.3263230  15.7683320 112.8988040 113.3003680  17.3403790 107.2899490
 113.4216500  17.2990270 108.2385310 112.9152190  18.2027940 107.1346220
 117.2632050  15.1171190 115.3063180 117.2804790  15.5679840 116.1505030
 117.0147630  14.2176830 115.5196620 112.3125180  19.6504930 106.6882790
 111.7442080  19.2023180 106.0618700 113.0214180  20.0097710 106.1547940
 120.6902800  12.5303370 121.1449560 121.0148570  11.7993030 121.6707540
 120.7259310  12.2117010 120.2430550 107.3894360  23.5516950 120.5649520
 107.0049150  22.9110620 121.1632480 107.7006550  24.2553070 121.1344250
 113.5391500  20.3993490 116.0458140 113.9061630  19.9252060 116.7919480
 113.3496560  21.2735060 116.3866480 106.4031990  15.1437180 112.1751610
 106.1178910  14.7792850 113.0130230 106.3410850  14.4117640 111.5614750
 111.3290870  19.4402130 118.3642350 111.0247940  20.3194110 118.5892710
 112.2837330  19.5001920 118.3999790 109.8572660  23.6463120 108.9609200
 109.0834920  23.1060740 108.8007920 110.5867290  23.1269730 108.6226960
 120.6160640  22.6428480 114.7535590 121.3359760  23.1383770 114.3631700
 120.4142460  21.9646370 114.1089460 116.0770580  14.0366440 108.8964980
 115.2635190  13.5379610 108.8210290 115.8832530  14.8764690 108.4801330
 115.9979440  22.7137540 120.6404590 115.9316750  21.7933210 120.3862180
 115.3684580  22.8112980 121.3549230 118.7918970  18.4086090 107.1927140
 119.6798590  18.7203320 107.0178480 118.7624060  17.5358340 106.8007720
 109.9010060  23.3143500 112.5988010 110.4188730  22.5111760 112.5444900
 109.4494080  23.2522640 113.4404840 114.7879560  24.5809780 107.8715310
 115.1295260  25.3252010 107.3758630 113.9592270  24.8940900 108.2340140
 107.3854600  20.2804870 119.5113710 107.0269540  20.9458720 120.0987050
 107.0909160  19.4488420 119.8826330 110.5867720  20.7389110 122.3953260
 110.2867860  20.8846290 121.4981080 111.3578960  20.1794400 122.3026650
 115.9296170  25.5358110 120.3908390 115.9440710  24.6039070 120.1727300
 115.2221270  25.6217870 121.0298160 121.0633240  19.7197930 106.6607000
 120.9796960  20.1512150 105.8103440 121.7827430  20.1796280 107.0933820
 122.1407380  22.1765450 119.7376970 121.4155570  22.7694230 119.5406360
 122.6682840  22.1688990 118.9390340 122.0920490  26.5740190 109.3889130
 121.4496650  25.9195810 109.6632850 121.7051150  26.9795280 108.6129800
 117.6706970  23.9025620 113.2360820 118.0230790  23.3053750 112.5762190
 116.7869300  23.5769850 113.4069070 113.7570250  24.6623310 110.6431230
 114.4441380  25.2092520 111.0238820 112.9702670  25.2064040 110.6780840
 105.8962650  20.2796130 106.1348310 106.7657500  20.5620930 106.4184230
 105.4052970  21.0932000 106.0197120 113.0597460  21.6669340 110.2556590
 113.5160240  22.4774590 110.4816780 112.7085670  21.3492480 111.0875080
 115.3630070  27.1775680 117.4848890 116.0072290  27.3835060 118.1622310
 115.7259510  26.4164080 117.0319740 108.9609240  12.0106990 110.7279110
 108.8323870  12.0024890 111.6764030 108.1371260  12.3490080 110.3770120
 116.6362150  25.1808030 116.2026340 117.2784380  24.4801190 116.3158510
 117.1611500  25.9606470 116.0223230 120.4817870  25.4656650 105.9265480
 120.2555450  24.7487090 106.5190120 120.0914070  25.2169090 105.0887230
 118.4099770  25.9802930 119.4062400 118.7456010  26.5669620 120.0840320
 117.4900110  25.8495640 119.6360190 106.2633900  29.4923510 106.7009940
 106.6231540  30.0912850 106.0467210 106.1226240  30.0383400 107.4744970
 105.9603170  13.7698110 120.1885810 105.2461690  13.9695030 120.7938420
 106.3798210  12.9937680 120.5600610 120.0634120  23.3828590 107.5879640
 119.7755820  23.8441280 108.3757520 120.8586290  22.9226360 107.8563860
 106.2475760  27.7578370 121.1752340 106.3566880  26.8173110 121.0347730
 105.5956320  28.0233120 120.5266070 114.2388350  26.0294260 122.5750460
 113.9185220  25.3103500 123.1196150 113.5646710  26.7049330 122.6486520
 112.2802520  26.8754710 107.5183610 112.2712620  27.6084400 106.9028120
 111.3600880  26.6286290 107.6110570 107.8809160  22.0969600 108.2630370
 107.2737110  22.8368500 108.2725670 108.3558510  22.1868960 107.4368570
 117.4541950  16.2620420 117.9387260 117.8222770  15.4415630 118.2666830
 116.5940150  16.3222310 118.3542910 120.8203980  15.2177360 108.7474820
 120.1917140  15.3223030 108.0333050 120.3255900  15.4374140 109.5368700
 115.2662120  26.9382950 106.1808800 115.3674100  26.7346940 105.2510780
 114.3663860  26.6841230 106.3856580 112.7888010  17.4963310 110.1632700
 112.0804160  17.9649650 110.6046310 113.0732490  16.8385320 110.7977890
 114.4143940  18.9160010 118.1625230 114.9129190  19.3905830 118.8277080
 114.5566890  17.9923530 118.3695260 116.8203440  14.2213970 111.6028490
 116.6971220  14.2400100 110.6538000 117.7688000  14.2692910 111.7226890
 113.9080230  29.4569270 110.8756470 114.1621730  29.4190660 109.9535840
 112.9592710  29.3302600 110.8684720 110.9923030  15.8048390 107.5383410
 111.8413560  16.2418540 107.4723600 110.6254300  16.1168650 108.3655470
 121.6210800  15.1327970 119.0053620 121.1184400  15.8733370 119.3447430
 122.4367460  15.5211970 118.6890410 119.9132810  20.3761150 112.4514980
 118.9722950  20.3911380 112.6262670 120.2276880  19.5897110 112.8975280
 109.8914450  22.0580750 106.0118940 110.6577720  21.9462110 106.5744370
 109.9689140  21.3618720 105.3595710 108.5861210  19.4905820 106.6951830
 108.6664800  18.5433330 106.8069230 109.4780960  19.8212700 106.8012490
 121.9158390  27.5470000 114.1269240 122.0405810  28.3701170 114.5993050
 122.7823950  27.3360730 113.7793390 106.2721400  25.7074780 109.6727880
 105.3461180  25.9495920 109.6633290 106.7377830  26.5349040 109.5512630
 108.3934200  28.8247280 122.9871950 109.1946930  29.1459330 123.4007350
 107.8786020  28.4642860 123.7091860 117.2298830  24.9327150 122.9347360
 116.6236990  24.9558750 122.1943110 116.9252940  24.2010190 123.4714610
 118.6599200  28.6607440 121.5456770 119.6120950  28.5765460 121.4957010
 118.5127420  29.3249150 122.2190560 121.5508400  28.0401650 107.0448680
 121.2649910  27.6266790 106.2302860 121.3527950  28.9689360 106.9249200
 106.1132010  21.3120740 121.9308000 106.6171030  20.7328020 122.5024230
 105.3739430  21.5960970 122.4684370 113.0155630  24.0334930 105.4854290
 112.9106270  23.4187280 106.2115670 112.8479850  23.5100820 104.7017300
 113.1669950  22.7191730 121.4643520 112.4015620  23.2876730 121.3798190
 113.3485910  22.4267940 120.5711750 116.2558360  23.0954960 106.0896280
 115.7068460  23.5424260 106.7339020 116.8777620  22.5904210 106.6133950
 120.3093300  24.4497060 122.0218540 121.0502770  24.7872820 121.5186000
 119.5465980  24.6189120 121.4688310 108.1455090  19.4550330 122.8258070
 108.1860430  19.1564200 123.7343300 109.0000590  19.8557940 122.6665590
 111.9233480  22.0545880 107.9861580 112.3449900  21.8885750 108.8292970
 112.0484320  21.2446110 107.4916720 110.0860900  18.0342430 120.7932560
 109.5557360  17.5433380 120.1655900 110.7548970  18.4626630 120.2590490
 114.4361120  21.0783490 105.2338680 114.9566780  20.3632510 104.8679830
 115.0829520  21.7169360 105.5339190 118.9838960  22.5011890 120.5573750
 119.3979980  22.6556970 121.4064170 118.0489960  22.6267110 120.7199530
 119.4561130  19.8408050 122.5612900 120.0381900  19.0860370 122.4733380
 119.6322900  20.3715490 121.7844380 110.5733200  15.0004800 120.8729850
 110.4790070  14.3825550 120.1480720 109.9930590  15.7271090 120.6459760
 113.3394640  13.5578040 117.9057240 112.8911940  13.5802300 117.0602790
 112.7059840  13.1597060 118.5027540 113.7454190  22.4532370 118.5269680
 114.1642300  23.2965100 118.3545920 112.8262820  22.5904410 118.2976460
 116.0818090  20.1848550 119.9107520 116.2014300  19.5889690 120.6502360
 116.9412090  20.2218240 119.4908820 118.4205990  20.7385740 118.4870030
 117.8941210  21.2628360 117.8835170 118.7637330  21.3713130 119.1179760
 110.8192380  18.1279110 104.9319740 110.6181440  17.2646470 105.2933080
 110.6484430  18.0412470 103.9941340 111.5961610  28.7585380 119.6427410
 111.0582700  29.4831440 119.3236110 111.8495570  28.2815720 118.8524750
 112.8486860  16.7269900 121.1683340 113.4386550  16.4185750 121.8561160
 112.0307100  16.2549650 121.3243240 117.6680290  16.3435710 121.4016360
 116.9795810  15.6817250 121.3366350 118.3886310  15.8973980 121.8464820
 118.2980690  12.9387340 107.4606620 118.5782980  12.0955240 107.8166040
 117.5246420  13.1710450 107.9745370 109.6175180  15.2279730 104.9197620
 109.9201080  15.2347160 104.0116770 110.3569770  14.8777590 105.4165280
 114.4523820  29.9936590 119.9014060 114.3782520  30.8971730 120.2086430
 113.5502660  29.6748490 119.8736130 112.8360110  14.1714350 105.9053820
 112.4882110  13.4938340 105.3256270 113.0372880  13.7103860 106.7197210
 115.0009150  29.1595100 107.5240420 115.8959940  29.4980070 107.5459180
 115.0326780  28.4374510 106.8964700 108.6405310  24.5322150 105.7527420
 109.0780180  25.0751820 106.4085000 109.1253040  23.7069100 105.7623760
 105.8551110  27.3211180 113.2047680 106.1854120  26.4532240 112.9726320
 106.2842110  27.5269700 114.0352640 110.4513030  25.6520190 110.8649650
 110.1508570  25.5285160 111.7653560 110.3450520  24.7928780 110.4565380
 106.3441320  28.1881770 115.9429310 105.9072310  28.3682570 116.7753460
 106.9119000  28.9456390 115.8011030 121.9803500  27.6898770 120.2306620
 121.3805490  27.7491330 119.4870540 122.1097400  26.7503750 120.3603470
 123.2204950  25.4316590 105.5676330 122.3897910  25.4993240 106.0383560
 123.3976780  26.3220710 105.2643190 122.6761410  22.1764070 108.0710530
 123.4380320  22.7460720 108.1770220 122.6915780  21.6091270 108.8418840
 106.1765750  20.7002000 112.3018190 105.5214590  20.4313640 111.6577890
 107.0143700  20.5906480 111.8520170 123.6821380  23.0314170 112.9152460
 124.0530210  22.2481490 112.5088430 124.3223310  23.7203270 112.7369760
 120.6655140  24.4150750 118.3282780 119.8514980  24.8447910 118.5908570
 121.0729340  25.0269160 117.7151830 122.7280580  22.4698440 105.2283050
 123.0029420  23.3777320 105.1002270 122.5391320  22.4060970 106.1645040
 119.1256190  15.4943290 106.5236680 119.5441070  15.3074270 105.6833340
 118.8192250  14.6422340 106.8339610 122.6245920  20.4067430 110.2212480
 122.2489520  19.6395360 109.7893770 121.8949040  20.7890130 110.7087410
 107.2141680  21.0854570 116.8421530 107.5814720  20.9981970 117.7217550
 106.6452500  20.3221120 116.7428390 122.0145540  19.5538950 119.8552000
 121.7831630  19.3251700 118.9549950 122.2750090  20.4738500 119.8096890
 106.7657680  17.9963660 120.7479950 105.8713730  17.9630420 121.0873660
 107.3055230  18.1950450 121.5131200 120.4533610  14.7795380 122.6331700
 121.3303790  14.7878780 123.0165700 120.4654450  14.0426220 122.0224050
 105.3903830  17.9100930 108.2443520 104.4867910  18.1731130 108.0695180
 105.8744450  18.1812100 107.4643480 121.8996880  18.6324920 113.5219720
 122.4234360  18.1387570 112.8909890 122.4856300  18.7675280 114.2667290
 122.0786600  18.7164790 117.0439270 121.1289310  18.6828330 117.1584260
 122.2599610  19.6264900 116.8089040 107.9331040  16.9666470 106.1537900
 108.6422740  16.5449690 105.6685180 107.2170980  17.0341700 105.5221250
 107.5805200  13.0205800 105.1940550 108.3033330  13.5614740 105.5121770
 107.8529720  12.7469220 104.3182090 121.3896850  17.8898270 109.4612130
 121.8855970  17.6569140 110.2461010 121.1912920  17.0510110 109.0449770
 107.2697390  12.2711990 115.0963170 107.9173580  11.7209370 114.6558330
 107.6899230  12.5255140 115.9178980 122.8184010  16.5259220 111.9949810
 122.7083290  16.3715260 112.9332080 123.5791600  15.9980160 111.7525220
 121.1649730  12.4653350 118.4532810 121.8021950  13.0787490 118.8192000
 121.3124620  12.5014010 117.5082040 123.7074280  14.3567140 105.2355950
 124.6323590  14.2248320 105.0274240 123.6850070  14.4359960 106.1892400
 123.7812770  15.1277800 107.8612660 122.9864270  15.0622920 108.3905570
 123.9856050  16.0628440 107.8498010 120.7231190  29.1669350 111.8551050
 121.3190260  28.8453920 111.1785470 120.9809340  28.6941170 112.6464320
 107.0229390  12.4267660 117.8388490 106.6744210  12.8831480 118.6046670
 106.6917090  11.5324790 117.9210920 108.6293760  25.5987260 122.0041680
 108.5863390  25.2280170 122.8856140 108.7604770  26.5364830 122.1443500
 112.3299790  27.1546850 117.6051400 112.0891150  27.4221410 116.7181920
 113.2702430  27.3252580 117.6602260 114.5354210  13.6179540 121.3607910
 114.4743100  14.2101370 122.1103320 115.4754590  13.5105500 121.2158170
 117.1728770  13.2749600 121.0000200 117.7869180  13.5928890 120.3381280
 117.7178330  12.7898190 121.6196060 123.5903950  29.1741230 118.4062040
 123.0962230  29.5710100 117.6889170 122.9817240  28.5490440 118.7999320
 107.6950030  11.9543860 121.1139260 108.2433020  11.7731910 120.3505370
 107.7605340  11.1637970 121.6495570 108.4681790  28.5449510 119.1239460
 107.8742110  28.4134210 119.8629500 108.4605630  27.7087650 118.6581560
 117.9136810  11.8381740 117.3269490 117.0396650  12.1716850 117.1242420
 117.8047560  11.3654920 118.1521360 118.8208790  14.0452610 118.7111210
 118.4922150  13.2304370 118.3312940 119.7691090  14.0022420 118.5876900
 121.2743400  29.8164650 115.6848780 120.8146370  30.5680460 115.3106800
 120.6455860  29.0971120 115.6263580 108.0994020  25.9107890 118.0747500
 107.3728080  25.2913180 118.0073450 108.1603170  26.3048500 117.2045580
 111.7039120  28.1252890 114.8596910 112.2204140  27.5140250 114.3345170
 112.3536500  28.6281670 115.3507920 114.4434620  29.0161380 115.6865890
 114.7312430  28.7615680 114.8098900 114.9557840  28.4638740 116.2771460
 115.6611630  12.7551580 116.2662400 114.8783420  13.2297080 116.5459160
 115.3674560  11.8506410 116.1575580 120.2132700  13.4574680 114.3111490
 120.6540790  13.4019780 113.4633090 119.9440290  14.3732690 114.3821670
 122.0771270  13.0889920 112.3220310 122.0159670  12.1451140 112.1751330
 122.8563300  13.1970010 112.8673770 107.0052040  13.0599060 108.7876120
 107.7631400  13.1727940 108.2140150 106.5429210  13.8968260 108.7419550
 113.5465850  15.1738330 111.7778430 112.7340360  14.7995220 111.4374310
 114.0507490  14.4183410 112.0799620 118.0490830  11.8380780 113.0161500
 118.6520200  12.4100990 113.4910020 117.3083820  12.4020220 112.7935400
 121.1925430  12.2402340 108.2901780 121.3876060  13.1385790 108.5569210
 120.4055300  12.0089420 108.7834730 107.9886720  27.9215510 108.7294400
 107.4634340  28.3023540 108.0256360 107.9131300  28.5466280 109.4504110
 109.3777190  13.5863110 107.3278090 109.9069950  12.7992910 107.1986040
 110.0105510  14.2654300 107.5613620 111.5715030  13.3238250 110.3823480
 110.9417770  12.6225560 110.5493610 111.0320170  14.0842380 110.1656640
 114.5106980  29.9377480 123.0534090 115.4374290  29.7021750 123.0970050
 114.4957410  30.7649480 122.5720120 122.7452040  29.4803050 110.0508340
 122.9204230  28.7940790 109.4069260 122.0473610  30.0050100 109.6585010
 111.6970590  12.6022230 122.8175970 111.4154860  13.1055830 122.0536790
 112.0790290  11.8043980 122.4518100 110.5879690  29.8697890 107.6043650
 111.3198510  29.5857170 107.0567540 110.8473360  29.6311170 108.4943030
 109.7494480  25.9862620 107.6089980 109.1203360  26.4547720 108.1575810
 109.8642310  25.1411840 108.0436170 118.2986050  12.0175810 123.3956440
 118.1851500  12.3370420 124.2907960 119.1155790  12.4188320 123.0993720
 121.0784540  29.1647340 122.8775130 121.8709860  28.6696570 122.6701090
 121.3717690  29.8437480 123.4850740 117.2044200  20.0368280  93.7591180
 117.1238250  19.1222890  93.4882890 116.7908620  20.5335350  93.0530890
 115.3362240  21.8147300  95.6400450 114.5604340  21.3347740  95.9299020
 115.9875170  21.1352950  95.4656610 109.3528070  22.1267110  96.5176210
 108.5212950  21.8715820  96.9172720 109.9609050  22.1977880  97.2534130
 119.3569670  26.2207490  94.4199580 118.8951200  25.4494730  94.7486750
 120.1695220  26.2473560  94.9252030 109.3329330  26.1607200  96.7134230
 109.6357370  25.2704940  96.5344450 110.0772920  26.7177420  96.4856480
 107.7620020  17.0869000  90.3018600 106.8736720  17.4284970  90.1998480
 108.0461210  16.8869320  89.4099430 105.7253030  19.6874650  96.1858300
 106.2969140  18.9196850  96.1861940 105.7254570  19.9863410  95.2764910
 115.5832980  28.5065500  94.0403570 114.9644420  28.9623000  93.4698010
 116.4384760  28.6616960  93.6393270 114.7771230  24.4904490  95.6470610
 114.7079510  23.5494430  95.4859740 115.5391090  24.5805900  96.2193180
 106.9677900  15.0959010  97.9727230 106.7880740  14.1984760  98.2529990
 106.5657980  15.6430880  98.6474180 115.8076400  17.2974870  95.8739540
 116.1841220  16.4246750  95.7613210 115.7095910  17.6333570  94.9829980
 109.9381410  15.6700500  91.3356980 110.0448160  16.5704230  91.6425740
 109.0273770  15.6218470  91.0451630 119.5900520  14.7925310  92.8067880
 120.4110140  14.3021880  92.8493360 119.6234600  15.3822970  93.5599720
 107.5864570  17.5919510  96.5809570 108.2674680  17.8557880  97.1996970
 107.2712620  16.7520380  96.9147580 111.7789140  18.6386870  95.6682160
 112.2867360  19.1367840  96.3087180 112.3102380  17.8622070  95.4921520
 123.8800070  16.8092060  99.3711510 123.1752240  17.1973770  98.8526620
 124.1457990  17.5042350  99.9732440 110.0625240  13.2785430  99.9345580
 110.0643680  13.7957820  99.1291480 109.2329550  12.8015610  99.9115510
 116.4496330  23.3904740  91.4335480 115.8313600  23.8554190  90.8698200
 116.9619580  24.0832220  91.8504990 111.3128090  22.9180610  98.1119080
 110.9797470  23.5449530  98.7540150 111.4894770  23.4442490  97.3320750
 119.8262000  16.7325690  95.5795420 119.1217570  17.0210580  96.1598530
 120.1874160  17.5425800  95.2194980 109.7440570  14.9895390  97.9416030
 110.0857380  15.8337440  97.6469900 108.8056380  15.1379130  98.0581370
 110.5247190  24.8861410  99.9268260 111.1421190  25.5612490  99.6452710
 109.6640310  25.2949390  99.8355760 121.4424780  26.3500820  97.8422900
 120.7588300  27.0199930  97.8339570 121.9819070  26.5481470  97.0767760
 122.8948920  16.1780480  95.9704630 121.9473830  16.2119460  96.1020060
 123.2198910  16.9919430  96.3553990 113.4268460  12.4777660  94.2660620
 113.7343440  11.9224550  93.5496120 112.4969160  12.6122120  94.0833610
 118.9783520  28.1944950  96.5568080 118.9910680  27.7907240  95.6890340
 118.4258740  28.9692240  96.4529510 120.2728940  24.9161170  91.6458250
 120.1625270  23.9735500  91.7707670 120.2697190  25.2776810  92.5321010
 118.3768960  23.0974790  97.8850690 118.7937750  22.8834900  97.0504150
 119.1008780  23.3547580  98.4559310 115.8149220  20.5426490  91.0020740
 114.8878500  20.4763870  91.2309210 115.9674040  21.4806620  90.8875980
 115.8018300  16.8143490  87.9987900 114.8621970  16.9757450  88.0840360
 116.1201560  17.5329170  87.4523890 122.3231060  21.4962010  97.9766930
 121.4949690  21.5655100  97.5017060 122.9181540  22.0816320  97.5082760
 119.8446510  22.1046790  91.5055990 119.2258930  21.7666340  90.8582290
 119.8270960  21.4606550  92.2135180 119.2873070  18.2831330  98.9221800
 118.8744250  19.1085040  99.1761790 118.5549020  17.6976370  98.7298160
 111.4205860  21.0691230  93.7840470 111.0162860  20.3568480  93.2886370
 111.5068980  20.7244470  94.6728510 111.8887560  24.7558790  95.9479680
 111.5915850  24.1504260  95.2687460 112.8387380  24.7936100  95.8369040
 110.1334480  17.8434440  97.5639510 110.6849070  17.9529780  96.7892760
 110.6477990  18.2172040  98.2794740 119.9773170  28.3290660  99.6102780
 119.5003730  29.1362850  99.4175390 119.2934960  27.6768990  99.7628990
 110.9805990  24.4940480 102.5987480 110.0834520  24.7180450 102.8460880
 111.0058860  24.6175420 101.6498880 118.0211210  21.3433600  88.5128740
 118.4604490  20.5056030  88.3666560 118.7339630  21.9763000  88.5992880
 109.8077210  21.3653800 101.1744850 109.6684980  22.2376600 101.5432250
 108.9258570  21.0226610 101.0292790 116.1306590  26.2829670  92.4809980
 116.5702500  27.0254000  92.0665370 116.0693480  26.5256240  93.4048940
 111.6057560  27.3075500 103.3830000 111.5772990  27.7118450 102.5158430
 111.4422530  26.3785860 103.2201600 121.6028350  12.5976410  86.8269780
 121.2901010  12.6903240  87.7268850 122.3640820  13.1757440  86.7767210
 108.1210490  19.9636210  91.2847120 108.0008090  20.6898300  90.6728390
 107.8111380  19.1939120  90.8075030 123.5572380  28.0902600 104.6794170
 124.0332100  28.5685490 105.3583250 124.1779540  28.0220090 103.9539670
 105.7595860  23.1351350  97.0915760 105.8376280  23.2700120  96.1471480
 106.3737540  22.4267240  97.2843880 107.0043490  24.8351540  93.5021940
 106.5971570  24.9766130  92.6475540 107.8956500  24.5511700  93.2993150
 122.9605630  25.2815450 101.8394180 123.0868690  25.0427330 100.9211360
 123.0027010  24.4499990 102.3116260 116.8222370  28.9843450 100.4088990
 117.3367040  28.8951460 101.2111420 115.9791450  29.3303150 100.7016900
 118.7976770  29.2698790  89.8372990 118.6377910  28.9801730  90.7354820
 118.6323480  28.4938920  89.3018220 118.5002900  26.7786350  88.3970990
 117.8068060  26.7763640  87.7373270 119.2425760  26.3545670  87.9665160
 118.0652830  28.4049060  92.4719480 118.5209780  27.6238440  92.7858100
 118.4045350  29.1155880  93.0160660 122.8129640  17.3347910 102.8043920
 122.1973910  17.8427580 102.2759380 122.4926060  16.4346240 102.7469860
 110.5874150  13.3071280  94.6670790 110.1442300  14.0880820  94.3355310
 111.1459140  13.6301170  95.3741730 114.8743960  16.1739800 100.2706110
 114.4123330  16.3822820 101.0826050 114.4722070  15.3599150  99.9676780
 119.8748470  17.3948750 101.4002770 119.0242060  17.0954500 101.7211840
 119.7150260  17.6390760 100.4886590 116.9698180  18.8950500 103.5001560
 117.2951590  18.0614250 103.1603790 117.7578510  19.4179020 103.6479890
 113.7032970  12.9281980  89.5476620 113.0787150  12.9241850  90.2729930
 113.6163090  12.0612940  89.1512590 112.6250050  13.8518610  96.5260390
 112.9222380  14.7581440  96.4452410 113.1735610  13.3637390  95.9119960
 110.3788370  18.4304850  92.3952040 110.1529290  18.2142020  93.2998660
 109.5980900  18.8633310  92.0498010 117.6086130  18.4368220  90.9942690
 117.0095020  19.1604020  90.8106310 118.1565740  18.3745000  90.2119140
 112.8187580  19.3290430 103.0612310 112.7231180  18.3885160 102.9112710
 113.6619560  19.5505500 102.6660380 116.2151000  17.0731760  93.0245970
 116.6080570  17.3903960  92.2114660 116.5767850  16.1943640  93.1390490
 107.9498120  15.7404100 101.2146090 107.5561510  16.5879310 101.4218870
 107.2616520  15.1030470 101.4054730 114.5243170  15.8239070 104.2842830
 113.8341490  15.6311270 104.9188920 115.2675470  16.1073710 104.8167130
 105.2515170  13.6632560  95.2476170 104.9628220  14.2335420  95.9601150
 105.9960930  13.1837010  95.6107400 116.8006140  19.6637510  97.1196750
 116.0687260  20.1724320  97.4686850 116.4030480  18.8467490  96.8185530
 113.2383530  16.3391710  95.5249240 113.2419590  15.8981660  94.6753780
 114.1334650  16.6609040  95.6321060 109.0885910  16.2218200  94.4843450
 108.7485960  16.6993430  95.2410500 108.3263230  15.7683320  94.1244550
 113.3003680  17.3403790  88.5156000 113.4216500  17.2990270  89.4641820
 112.9152190  18.2027940  88.3602730 117.2632050  15.1171190  96.5319690
 117.2804790  15.5679840  97.3761540 117.0147630  14.2176830  96.7453130
 112.3125180  19.6504930  87.9139300 111.7442080  19.2023180  87.2875210
 113.0214180  20.0097710  87.3804450 120.6902800  12.5303370 102.3706070
 121.0148570  11.7993030 102.8964050 120.7259310  12.2117010 101.4687060
 107.3894360  23.5516950 101.7906030 107.0049150  22.9110620 102.3888990
 107.7006550  24.2553070 102.3600760 113.5391500  20.3993490  97.2714650
 113.9061630  19.9252060  98.0175990 113.3496560  21.2735060  97.6122990
 106.4031990  15.1437180  93.4008120 106.1178910  14.7792850  94.2386740
 106.3410850  14.4117640  92.7871260 111.3290870  19.4402130  99.5898860
 111.0247940  20.3194110  99.8149220 112.2837330  19.5001920  99.6256300
 109.8572660  23.6463120  90.1865710 109.0834920  23.1060740  90.0264430
 110.5867290  23.1269730  89.8483470 120.6160640  22.6428480  95.9792100
 121.3359760  23.1383770  95.5888210 120.4142460  21.9646370  95.3345970
 116.0770580  14.0366440  90.1221490 115.2635190  13.5379610  90.0466800
 115.8832530  14.8764690  89.7057840 115.9979440  22.7137540 101.8661100
 115.9316750  21.7933210 101.6118690 115.3684580  22.8112980 102.5805740
 118.7918970  18.4086090  88.4183650 119.6798590  18.7203320  88.2434990
 118.7624060  17.5358340  88.0264230 109.9010060  23.3143500  93.8244520
 110.4188730  22.5111760  93.7701410 109.4494080  23.2522640  94.6661350
 114.7879560  24.5809780  89.0971820 115.1295260  25.3252010  88.6015140
 113.9592270  24.8940900  89.4596650 107.3854600  20.2804870 100.7370220
 107.0269540  20.9458720 101.3243560 107.0909160  19.4488420 101.1082840
 110.5867720  20.7389110 103.6209770 110.2867860  20.8846290 102.7237590
 111.3578960  20.1794400 103.5283160 115.9296170  25.5358110 101.6164900
 115.9440710  24.6039070 101.3983810 115.2221270  25.6217870 102.2554670
 121.0633240  19.7197930  87.8863510 120.9796960  20.1512150  87.0359950
 121.7827430  20.1796280  88.3190330 122.1407380  22.1765450 100.9633480
 121.4155570  22.7694230 100.7662870 122.6682840  22.1688990 100.1646850
 122.0920490  26.5740190  90.6145640 121.4496650  25.9195810  90.8889360
 121.7051150  26.9795280  89.8386310 117.6706970  23.9025620  94.4617330
 118.0230790  23.3053750  93.8018700 116.7869300  23.5769850  94.6325580
 113.7570250  24.6623310  91.8687740 114.4441380  25.2092520  92.2495330
 112.9702670  25.2064040  91.9037350 113.0597460  21.6669340  91.4813100
 113.5160240  22.4774590  91.7073290 112.7085670  21.3492480  92.3131590
 115.3630070  27.1775680  98.7105400 116.0072290  27.3835060  99.3878820
 115.7259510  26.4164080  98.2576250 108.9609240  12.0106990  91.9535620
 108.8323870  12.0024890  92.9020540 108.1371260  12.3490080  91.6026630
 116.6362150  25.1808030  97.4282850 117.2784380  24.4801190  97.5415020
 117.1611500  25.9606470  97.2479740 120.4817870  25.4656650  87.1521990
 120.2555450  24.7487090  87.7446630 120.0914070  25.2169090  86.3143740
 118.4099770  25.9802930 100.6318910 118.7456010  26.5669620 101.3096830
 117.4900110  25.8495640 100.8616700 105.9603170  13.7698110 101.4142320
 105.2461690  13.9695030 102.0194930 106.3798210  12.9937680 101.7857120
 120.0634120  23.3828590  88.8136150 119.7755820  23.8441280  89.6014030
 120.8586290  22.9226360  89.0820370 106.2475760  27.7578370 102.4008850
 106.3566880  26.8173110 102.2604240 105.5956320  28.0233120 101.7522580
 114.2388350  26.0294260 103.8006970 113.9185220  25.3103500 104.3452660
 113.5646710  26.7049330 103.8743030 112.2802520  26.8754710  88.7440120
 112.2712620  27.6084400  88.1284630 111.3600880  26.6286290  88.8367080
 107.8809160  22.0969600  89.4886880 107.2737110  22.8368500  89.4982180
 108.3558510  22.1868960  88.6625080 117.4541950  16.2620420  99.1643770
 117.8222770  15.4415630  99.4923340 116.5940150  16.3222310  99.5799420
 120.8203980  15.2177360  89.9731330 120.1917140  15.3223030  89.2589560
 120.3255900  15.4374140  90.7625210 115.2662120  26.9382950  87.4065310
 115.3674100  26.7346940  86.4767290 114.3663860  26.6841230  87.6113090
 112.7888010  17.4963310  91.3889210 112.0804160  17.9649650  91.8302820
 113.0732490  16.8385320  92.0234400 114.4143940  18.9160010  99.3881740
 114.9129190  19.3905830 100.0533590 114.5566890  17.9923530  99.5951770
 116.8203440  14.2213970  92.8285000 116.6971220  14.2400100  91.8794510
 117.7688000  14.2692910  92.9483400 110.9923030  15.8048390  88.7639920
 111.8413560  16.2418540  88.6980110 110.6254300  16.1168650  89.5911980
 121.6210800  15.1327970 100.2310130 121.1184400  15.8733370 100.5703940
 122.4367460  15.5211970  99.9146920 119.9132810  20.3761150  93.6771490
 118.9722950  20.3911380  93.8519180 120.2276880  19.5897110  94.1231790
 109.8914450  22.0580750  87.2375450 110.6577720  21.9462110  87.8000880
 109.9689140  21.3618720  86.5852220 108.5861210  19.4905820  87.9208340
 108.6664800  18.5433330  88.0325740 109.4780960  19.8212700  88.0269000
 121.9158390  27.5470000  95.3525750 122.0405810  28.3701170  95.8249560
 122.7823950  27.3360730  95.0049900 106.2721400  25.7074780  90.8984390
 105.3461180  25.9495920  90.8889800 106.7377830  26.5349040  90.7769140
 108.3934200  28.8247280 104.2128460 109.1946930  29.1459330 104.6263860
 107.8786020  28.4642860 104.9348370 112.4978230  28.8131520  86.8468450
 113.2906840  29.1020350  86.3950240 111.9782580  28.3823690  86.1680930
 117.2298830  24.9327150 104.1603870 116.6236990  24.9558750 103.4199620
 116.9252940  24.2010190 104.6971120 118.6599200  28.6607440 102.7713280
 119.6120950  28.5765460 102.7213520 118.5127420  29.3249150 103.4447070
 121.5508400  28.0401650  88.2705190 121.2649910  27.6266790  87.4559370
 121.3527950  28.9689360  88.1505710 106.1132010  21.3120740 103.1564510
 106.6171030  20.7328020 103.7280740 105.3739430  21.5960970 103.6940880
 113.0155630  24.0334930  86.7110800 112.9106270  23.4187280  87.4372180
 112.8479850  23.5100820  85.9273810 113.1669950  22.7191730 102.6900030
 112.4015620  23.2876730 102.6054700 113.3485910  22.4267940 101.7968260
 116.2558360  23.0954960  87.3152790 115.7068460  23.5424260  87.9595530
 116.8777620  22.5904210  87.8390460 120.3093300  24.4497060 103.2475050
 121.0502770  24.7872820 102.7442510 119.5465980  24.6189120 102.6944820
 108.1455090  19.4550330 104.0514580 108.1860430  19.1564200 104.9599810
 109.0000590  19.8557940 103.8922100 111.9233480  22.0545880  89.2118090
 112.3449900  21.8885750  90.0549480 112.0484320  21.2446110  88.7173230
 110.0860900  18.0342430 102.0189070 109.5557360  17.5433380 101.3912410
 110.7548970  18.4626630 101.4847000 114.4361120  21.0783490  86.4595190
 114.9566780  20.3632510  86.0936340 115.0829520  21.7169360  86.7595700
 118.9838960  22.5011890 101.7830260 119.3979980  22.6556970 102.6320680
 118.0489960  22.6267110 101.9456040 119.4561130  19.8408050 103.7869410
 120.0381900  19.0860370 103.6989890 119.6322900  20.3715490 103.0100890
 110.5733200  15.0004800 102.0986360 110.4790070  14.3825550 101.3737230
 109.9930590  15.7271090 101.8716270 113.3394640  13.5578040  99.1313750
 112.8911940  13.5802300  98.2859300 112.7059840  13.1597060  99.7284050
 113.7454190  22.4532370  99.7526190 114.1642300  23.2965100  99.5802430
 112.8262820  22.5904410  99.5232970 116.0818090  20.1848550 101.1364030
 116.2014300  19.5889690 101.8758870 116.9412090  20.2218240 100.7165330
 118.4205990  20.7385740  99.7126540 117.8941210  21.2628360  99.1091680
 118.7637330  21.3713130 100.3436270 110.8192380  18.1279110  86.1576250
 110.6181440  17.2646470  86.5189590 110.6484430  18.0412470  85.2197850
 111.5961610  28.7585380 100.8683920 111.0582700  29.4831440 100.5492620
 111.8495570  28.2815720 100.0781260 112.8486860  16.7269900 102.3939850
 113.4386550  16.4185750 103.0817670 112.0307100  16.2549650 102.5499750
 117.6680290  16.3435710 102.6272870 116.9795810  15.6817250 102.5622860
 118.3886310  15.8973980 103.0721330 118.2980690  12.9387340  88.6863130
 118.5782980  12.0955240  89.0422550 117.5246420  13.1710450  89.2001880
 109.6175180  15.2279730  86.1454130 109.9201080  15.2347160  85.2373280
 110.3569770  14.8777590  86.6421790 112.8360110  14.1714350  87.1310330
 112.4882110  13.4938340  86.5512780 113.0372880  13.7103860  87.9453720
 115.0009150  29.1595100  88.7496930 115.8959940  29.4980070  88.7715690
 115.0326780  28.4374510  88.1221210 108.6405310  24.5322150  86.9783930
 109.0780180  25.0751820  87.6341510 109.1253040  23.7069100  86.9880270
 106.3441320  28.1881770  97.1685820 105.9072310  28.3682570  98.0009970
 106.9119000  28.9456390  97.0267540 121.9803500  27.6898770 101.4563130
 121.3805490  27.7491330 100.7127050 122.1097400  26.7503750 101.5859980
 123.2204950  25.4316590  86.7932840 122.3897910  25.4993240  87.2640070
 123.3976780  26.3220710  86.4899700 122.6761410  22.1764070  89.2967040
 123.4380320  22.7460720  89.4026730 122.6915780  21.6091270  90.0675350
 106.1765750  20.7002000  93.5274700 105.5214590  20.4313640  92.8834400
 107.0143700  20.5906480  93.0776680 123.6821380  23.0314170  94.1408970
 124.0530210  22.2481490  93.7344940 124.3223310  23.7203270  93.9626270
 120.6655140  24.4150750  99.5539290 119.8514980  24.8447910  99.8165080
 121.0729340  25.0269160  98.9408340 122.7280580  22.4698440  86.4539560
 123.0029420  23.3777320  86.3258780 122.5391320  22.4060970  87.3901550
 119.1256190  15.4943290  87.7493190 119.5441070  15.3074270  86.9089850
 118.8192250  14.6422340  88.0596120 122.6245920  20.4067430  91.4468990
 122.2489520  19.6395360  91.0150280 121.8949040  20.7890130  91.9343920
 107.2141680  21.0854570  98.0678040 107.5814720  20.9981970  98.9474060
 106.6452500  20.3221120  97.9684900 122.0145540  19.5538950 101.0808510
 121.7831630  19.3251700 100.1806460 122.2750090  20.4738500 101.0353400
 106.7657680  17.9963660 101.9736460 105.8713730  17.9630420 102.3130170
 107.3055230  18.1950450 102.7387710 120.4533610  14.7795380 103.8588210
 121.3303790  14.7878780 104.2422210 120.4654450  14.0426220 103.2480560
 105.3903830  17.9100930  89.4700030 104.4867910  18.1731130  89.2951690
 105.8744450  18.1812100  88.6899990 121.8996880  18.6324920  94.7476230
 122.4234360  18.1387570  94.1166400 122.4856300  18.7675280  95.4923800
 122.0786600  18.7164790  98.2695780 121.1289310  18.6828330  98.3840770
 122.2599610  19.6264900  98.0345550 107.9331040  16.9666470  87.3794410
 108.6422740  16.5449690  86.8941690 107.2170980  17.0341700  86.7477760
 107.5805200  13.0205800  86.4197060 108.3033330  13.5614740  86.7378280
 107.8529720  12.7469220  85.5438600 121.3896850  17.8898270  90.6868640
 121.8855970  17.6569140  91.4717520 121.1912920  17.0510110  90.2706280
 107.2697390  12.2711990  96.3219680 107.9173580  11.7209370  95.8814840
 107.6899230  12.5255140  97.1435490 122.8184010  16.5259220  93.2206320
 122.7083290  16.3715260  94.1588590 123.5791600  15.9980160  92.9781730
 121.1649730  12.4653350  99.6789320 121.8021950  13.0787490 100.0448510
 121.3124620  12.5014010  98.7338550 123.7074280  14.3567140  86.4612460
 124.6323590  14.2248320  86.2530750 123.6850070  14.4359960  87.4148910
 123.7812770  15.1277800  89.0869170 122.9864270  15.0622920  89.6162080
 123.9856050  16.0628440  89.0754520 120.7231190  29.1669350  93.0807560
 121.3190260  28.8453920  92.4041980 120.9809340  28.6941170  93.8720830
 107.0229390  12.4267660  99.0645000 106.6744210  12.8831480  99.8303180
 106.6917090  11.5324790  99.1467430 108.6293760  25.5987260 103.2298190
 108.5863390  25.2280170 104.1112650 108.7604770  26.5364830 103.3700010
 112.3299790  27.1546850  98.8307910 112.0891150  27.4221410  97.9438430
 113.2702430  27.3252580  98.8858770 114.5354210  13.6179540 102.5864420
 114.4743100  14.2101370 103.3359830 115.4754590  13.5105500 102.4414680
 117.1728770  13.2749600 102.2256710 117.7869180  13.5928890 101.5637790
 117.7178330  12.7898190 102.8452570 123.5903950  29.1741230  99.6318550
 123.0962230  29.5710100  98.9145680 122.9817240  28.5490440 100.0255830
 107.6950030  11.9543860 102.3395770 108.2433020  11.7731910 101.5761880
 107.7605340  11.1637970 102.8752080 108.4681790  28.5449510 100.3495970
 107.8742110  28.4134210 101.0886010 108.4605630  27.7087650  99.8838070
 117.9136810  11.8381740  98.5526000 117.0396650  12.1716850  98.3498930
 117.8047560  11.3654920  99.3777870 118.8208790  14.0452610  99.9367720
 118.4922150  13.2304370  99.5569450 119.7691090  14.0022420  99.8133410
 121.2743400  29.8164650  96.9105290 120.8146370  30.5680460  96.5363310
 120.6455860  29.0971120  96.8520090 108.0994020  25.9107890  99.3004010
 107.3728080  25.2913180  99.2329960 108.1603170  26.3048500  98.4302090
 114.4434620  29.0161380  96.9122400 114.7312430  28.7615680  96.0355410
 114.9557840  28.4638740  97.5027970 115.6611630  12.7551580  97.4918910
 114.8783420  13.2297080  97.7715670 115.3674560  11.8506410  97.3832090
 120.2132700  13.4574680  95.5368000 120.6540790  13.4019780  94.6889600
 119.9440290  14.3732690  95.6078180 122.0771270  13.0889920  93.5476820
 122.0159670  12.1451140  93.4007840 122.8563300  13.1970010  94.0930280
 107.0052040  13.0599060  90.0132630 107.7631400  13.1727940  89.4396660
 106.5429210  13.8968260  89.9676060 113.5465850  15.1738330  93.0034940
 112.7340360  14.7995220  92.6630820 114.0507490  14.4183410  93.3056130
 118.0490830  11.8380780  94.2418010 118.6520200  12.4100990  94.7166530
 117.3083820  12.4020220  94.0191910 121.1925430  12.2402340  89.5158290
 121.3876060  13.1385790  89.7825720 120.4055300  12.0089420  90.0091240
 109.3777190  13.5863110  88.5534600 109.9069950  12.7992910  88.4242550
 110.0105510  14.2654300  88.7870130 111.5715030  13.3238250  91.6079990
 110.9417770  12.6225560  91.7750120 111.0320170  14.0842380  91.3913150
 122.7452040  29.4803050  91.2764850 122.9204230  28.7940790  90.6325770
 122.0473610  30.0050100  90.8841520 111.6970590  12.6022230 104.0432480
 111.4154860  13.1055830 103.2793300 112.0790290  11.8043980 103.6774610
 109.7494480  25.9862620  88.8346490 109.1203360  26.4547720  89.3832320
 109.8642310  25.1411840  89.2692680 118.2986050  12.0175810 104.6212950
 118.1851500  12.3370420 105.5164470 119.1155790  12.4188320 104.3250230
 121.0784540  29.1647340 104.1031640 121.8709860  28.6696570 103.8957600
 121.3717690  29.8437480 104.7107250 117.2044200  20.0368280  74.9847690
 117.1238250  19.1222890  74.7139400 116.7908620  20.5335350  74.2787400
 115.3362240  21.8147300  76.8656960 114.5604340  21.3347740  77.1555530
 115.9875170  21.1352950  76.6913120 109.3528070  22.1267110  77.7432720
 108.5212950  21.8715820  78.1429230 109.9609050  22.1977880  78.4790640
 119.3569670  26.2207490  75.6456090 118.8951200  25.4494730  75.9743260
 120.1695220  26.2473560  76.1508540 107.7620020  17.0869000  71.5275110
 106.8736720  17.4284970  71.4254990 108.0461210  16.8869320  70.6355940
 105.7253030  19.6874650  77.4114810 106.2969140  18.9196850  77.4118450
 105.7254570  19.9863410  76.5021420 115.5832980  28.5065500  75.2660080
 114.9644420  28.9623000  74.6954520 116.4384760  28.6616960  74.8649780
 114.7771230  24.4904490  76.8727120 114.7079510  23.5494430  76.7116250
 115.5391090  24.5805900  77.4449690 106.9677900  15.0959010  79.1983740
 106.7880740  14.1984760  79.4786500 106.5657980  15.6430880  79.8730690
 115.8076400  17.2974870  77.0996050 116.1841220  16.4246750  76.9869720
 115.7095910  17.6333570  76.2086490 109.9381410  15.6700500  72.5613490
 110.0448160  16.5704230  72.8682250 109.0273770  15.6218470  72.2708140
 119.5900520  14.7925310  74.0324390 120.4110140  14.3021880  74.0749870
 119.6234600  15.3822970  74.7856230 107.5864570  17.5919510  77.8066080
 108.2674680  17.8557880  78.4253480 107.2712620  16.7520380  78.1404090
 111.7789140  18.6386870  76.8938670 112.2867360  19.1367840  77.5343690
 112.3102380  17.8622070  76.7178030 123.8800070  16.8092060  80.5968020
 123.1752240  17.1973770  80.0783130 124.1457990  17.5042350  81.1988950
 110.0625240  13.2785430  81.1602090 110.0643680  13.7957820  80.3547990
 109.2329550  12.8015610  81.1372020 116.4496330  23.3904740  72.6591990
 115.8313600  23.8554190  72.0954710 116.9619580  24.0832220  73.0761500
 111.3128090  22.9180610  79.3375590 110.9797470  23.5449530  79.9796660
 111.4894770  23.4442490  78.5577260 119.8262000  16.7325690  76.8051930
 119.1217570  17.0210580  77.3855040 120.1874160  17.5425800  76.4451490
 109.7440570  14.9895390  79.1672540 110.0857380  15.8337440  78.8726410
 108.8056380  15.1379130  79.2837880 110.5247190  24.8861410  81.1524770
 111.1421190  25.5612490  80.8709220 109.6640310  25.2949390  81.0612270
 105.8179530  24.0761270  70.0331620 105.4407510  24.5648370  69.3016520
 106.0752600  24.7486550  70.6638150 121.4424780  26.3500820  79.0679410
 120.7588300  27.0199930  79.0596080 121.9819070  26.5481470  78.3024270
 122.8948920  16.1780480  77.1961140 121.9473830  16.2119460  77.3276570
 123.2198910  16.9919430  77.5810500 113.4268460  12.4777660  75.4917130
 113.7343440  11.9224550  74.7752630 112.4969160  12.6122120  75.3090120
 118.9783520  28.1944950  77.7824590 118.9910680  27.7907240  76.9146850
 118.4258740  28.9692240  77.6786020 120.2728940  24.9161170  72.8714760
 120.1625270  23.9735500  72.9964180 120.2697190  25.2776810  73.7577520
 118.3768960  23.0974790  79.1107200 118.7937750  22.8834900  78.2760660
 119.1008780  23.3547580  79.6815820 115.8149220  20.5426490  72.2277250
 114.8878500  20.4763870  72.4565720 115.9674040  21.4806620  72.1132490
 115.8018300  16.8143490  69.2244410 114.8621970  16.9757450  69.3096870
 116.1201560  17.5329170  68.6780400 122.3231060  21.4962010  79.2023440
 121.4949690  21.5655100  78.7273570 122.9181540  22.0816320  78.7339270
 119.8446510  22.1046790  72.7312500 119.2258930  21.7666340  72.0838800
 119.8270960  21.4606550  73.4391690 119.2873070  18.2831330  80.1478310
 118.8744250  19.1085040  80.4018300 118.5549020  17.6976370  79.9554670
 111.4205860  21.0691230  75.0096980 111.0162860  20.3568480  74.5142880
 111.5068980  20.7244470  75.8985020 111.8887560  24.7558790  77.1736190
 111.5915850  24.1504260  76.4943970 112.8387380  24.7936100  77.0625550
 110.1334480  17.8434440  78.7896020 110.6849070  17.9529780  78.0149270
 110.6477990  18.2172040  79.5051250 119.9773170  28.3290660  80.8359290
 119.5003730  29.1362850  80.6431900 119.2934960  27.6768990  80.9885500
 110.9805990  24.4940480  83.8243990 110.0834520  24.7180450  84.0717390
 111.0058860  24.6175420  82.8755390 118.0211210  21.3433600  69.7385250
 118.4604490  20.5056030  69.5923070 118.7339630  21.9763000  69.8249390
 109.8077210  21.3653800  82.4001360 109.6684980  22.2376600  82.7688760
 108.9258570  21.0226610  82.2549300 116.1306590  26.2829670  73.7066490
 116.5702500  27.0254000  73.2921880 116.0693480  26.5256240  74.6305450
 111.6057560  27.3075500  84.6086510 111.5772990  27.7118450  83.7414940
 111.4422530  26.3785860  84.4458110 121.6028350  12.5976410  68.0526290
 121.2901010  12.6903240  68.9525360 122.3640820  13.1757440  68.0023720
 108.1210490  19.9636210  72.5103630 108.0008090  20.6898300  71.8984900
 107.8111380  19.1939120  72.0331540 123.5572380  28.0902600  85.9050680
 124.0332100  28.5685490  86.5839760 124.1779540  28.0220090  85.1796180
 122.9605630  25.2815450  83.0650690 123.0868690  25.0427330  82.1467870
 123.0027010  24.4499990  83.5372770 116.8222370  28.9843450  81.6345500
 117.3367040  28.8951460  82.4367930 115.9791450  29.3303150  81.9273410
 118.7976770  29.2698790  71.0629500 118.6377910  28.9801730  71.9611330
 118.6323480  28.4938920  70.5274730 111.2765150  29.0497320  72.8401120
 111.1007630  28.1332860  72.6268920 110.4220890  29.4084610  73.0798920
 118.5002900  26.7786350  69.6227500 117.8068060  26.7763640  68.9629780
 119.2425760  26.3545670  69.1921670 118.0652830  28.4049060  73.6975990
 118.5209780  27.6238440  74.0114610 118.4045350  29.1155880  74.2417170
 122.8129640  17.3347910  84.0300430 122.1973910  17.8427580  83.5015890
 122.4926060  16.4346240  83.9726370 110.5874150  13.3071280  75.8927300
 110.1442300  14.0880820  75.5611820 111.1459140  13.6301170  76.5998240
 114.8743960  16.1739800  81.4962620 114.4123330  16.3822820  82.3082560
 114.4722070  15.3599150  81.1933290 119.8748470  17.3948750  82.6259280
 119.0242060  17.0954500  82.9468350 119.7150260  17.6390760  81.7143100
 116.9698180  18.8950500  84.7258070 117.2951590  18.0614250  84.3860300
 117.7578510  19.4179020  84.8736400 113.7032970  12.9281980  70.7733130
 113.0787150  12.9241850  71.4986440 113.6163090  12.0612940  70.3769100
 112.6250050  13.8518610  77.7516900 112.9222380  14.7581440  77.6708920
 113.1735610  13.3637390  77.1376470 110.3788370  18.4304850  73.6208550
 110.1529290  18.2142020  74.5255170 109.5980900  18.8633310  73.2754520
 117.6086130  18.4368220  72.2199200 117.0095020  19.1604020  72.0362820
 118.1565740  18.3745000  71.4375650 112.8187580  19.3290430  84.2868820
 112.7231180  18.3885160  84.1369220 113.6619560  19.5505500  83.8916890
 116.2151000  17.0731760  74.2502480 116.6080570  17.3903960  73.4371170
 116.5767850  16.1943640  74.3647000 107.9498120  15.7404100  82.4402600
 107.5561510  16.5879310  82.6475380 107.2616520  15.1030470  82.6311240
 114.5243170  15.8239070  85.5099340 113.8341490  15.6311270  86.1445430
 115.2675470  16.1073710  86.0423640 105.2515170  13.6632560  76.4732680
 104.9628220  14.2335420  77.1857660 105.9960930  13.1837010  76.8363910
 105.4385400  17.6052680  67.6835400 105.3560070  18.5483440  67.8250390
 105.0868460  17.4627590  66.8047750 116.8006140  19.6637510  78.3453260
 116.0687260  20.1724320  78.6943360 116.4030480  18.8467490  78.0442040
 113.2383530  16.3391710  76.7505750 113.2419590  15.8981660  75.9010290
 114.1334650  16.6609040  76.8577570 109.0885910  16.2218200  75.7099960
 108.7485960  16.6993430  76.4667010 108.3263230  15.7683320  75.3501060
 113.3003680  17.3403790  69.7412510 113.4216500  17.2990270  70.6898330
 112.9152190  18.2027940  69.5859240 117.2632050  15.1171190  77.7576200
 117.2804790  15.5679840  78.6018050 117.0147630  14.2176830  77.9709640
 112.3125180  19.6504930  69.1395810 111.7442080  19.2023180  68.5131720
 113.0214180  20.0097710  68.6060960 120.6902800  12.5303370  83.5962580
 121.0148570  11.7993030  84.1220560 120.7259310  12.2117010  82.6943570
 113.5391500  20.3993490  78.4971160 113.9061630  19.9252060  79.2432500
 113.3496560  21.2735060  78.8379500 106.4031990  15.1437180  74.6264630
 106.1178910  14.7792850  75.4643250 106.3410850  14.4117640  74.0127770
 111.3290870  19.4402130  80.8155370 111.0247940  20.3194110  81.0405730
 112.2837330  19.5001920  80.8512810 109.8572660  23.6463120  71.4122220
 109.0834920  23.1060740  71.2520940 110.5867290  23.1269730  71.0739980
 120.6160640  22.6428480  77.2048610 121.3359760  23.1383770  76.8144720
 120.4142460  21.9646370  76.5602480 116.0770580  14.0366440  71.3478000
 115.2635190  13.5379610  71.2723310 115.8832530  14.8764690  70.9314350
 115.9979440  22.7137540  83.0917610 115.9316750  21.7933210  82.8375200
 115.3684580  22.8112980  83.8062250 118.7918970  18.4086090  69.6440160
 119.6798590  18.7203320  69.4691500 118.7624060  17.5358340  69.2520740
 114.7879560  24.5809780  70.3228330 115.1295260  25.3252010  69.8271650
 113.9592270  24.8940900  70.6853160 110.5867720  20.7389110  84.8466280
 110.2867860  20.8846290  83.9494100 111.3578960  20.1794400  84.7539670
 115.9296170  25.5358110  82.8421410 115.9440710  24.6039070  82.6240320
 115.2221270  25.6217870  83.4811180 121.0633240  19.7197930  69.1120020
 120.9796960  20.1512150  68.2616460 121.7827430  20.1796280  69.5446840
 122.1407380  22.1765450  82.1889990 121.4155570  22.7694230  81.9919380
 122.6682840  22.1688990  81.3903360 122.0920490  26.5740190  71.8402150
 121.4496650  25.9195810  72.1145870 121.7051150  26.9795280  71.0642820
 117.6706970  23.9025620  75.6873840 118.0230790  23.3053750  75.0275210
 116.7869300  23.5769850  75.8582090 113.7570250  24.6623310  73.0944250
 114.4441380  25.2092520  73.4751840 112.9702670  25.2064040  73.1293860
 105.8962650  20.2796130  68.5861330 106.7657500  20.5620930  68.8697250
 105.4052970  21.0932000  68.4710140 113.0597460  21.6669340  72.7069610
 113.5160240  22.4774590  72.9329800 112.7085670  21.3492480  73.5388100
 115.3630070  27.1775680  79.9361910 116.0072290  27.3835060  80.6135330
 115.7259510  26.4164080  79.4832760 108.9609240  12.0106990  73.1792130
 108.8323870  12.0024890  74.1277050 108.1371260  12.3490080  72.8283140
 116.6362150  25.1808030  78.6539360 117.2784380  24.4801190  78.7671530
 117.1611500  25.9606470  78.4736250 120.4817870  25.4656650  68.3778500
 120.2555450  24.7487090  68.9703140 120.0914070  25.2169090  67.5400250
 118.4099770  25.9802930  81.8575420 118.7456010  26.5669620  82.5353340
 117.4900110  25.8495640  82.0873210 106.2633900  29.4923510  69.1522960
 106.6231540  30.0912850  68.4980230 106.1226240  30.0383400  69.9257990
 105.9603170  13.7698110  82.6398830 105.2461690  13.9695030  83.2451440
 106.3798210  12.9937680  83.0113630 120.0634120  23.3828590  70.0392660
 119.7755820  23.8441280  70.8270540 120.8586290  22.9226360  70.3076880
 106.2475760  27.7578370  83.6265360 106.3566880  26.8173110  83.4860750
 105.5956320  28.0233120  82.9779090 114.2388350  26.0294260  85.0263480
 113.9185220  25.3103500  85.5709170 113.5646710  26.7049330  85.0999540
 112.2802520  26.8754710  69.9696630 112.2712620  27.6084400  69.3541140
 111.3600880  26.6286290  70.0623590 107.8809160  22.0969600  70.7143390
 107.2737110  22.8368500  70.7238690 108.3558510  22.1868960  69.8881590
 117.4541950  16.2620420  80.3900280 117.8222770  15.4415630  80.7179850
 116.5940150  16.3222310  80.8055930 120.8203980  15.2177360  71.1987840
 120.1917140  15.3223030  70.4846070 120.3255900  15.4374140  71.9881720
 115.2662120  26.9382950  68.6321820 115.3674100  26.7346940  67.7023800
 114.3663860  26.6841230  68.8369600 112.7888010  17.4963310  72.6145720
 112.0804160  17.9649650  73.0559330 113.0732490  16.8385320  73.2490910
 114.4143940  18.9160010  80.6138250 114.9129190  19.3905830  81.2790100
 114.5566890  17.9923530  80.8208280 116.8203440  14.2213970  74.0541510
 116.6971220  14.2400100  73.1051020 117.7688000  14.2692910  74.1739910
 113.9080230  29.4569270  73.3269490 114.1621730  29.4190660  72.4048860
 112.9592710  29.3302600  73.3197740 110.9923030  15.8048390  69.9896430
 111.8413560  16.2418540  69.9236620 110.6254300  16.1168650  70.8168490
 121.6210800  15.1327970  81.4566640 121.1184400  15.8733370  81.7960450
 122.4367460  15.5211970  81.1403430 119.9132810  20.3761150  74.9028000
 118.9722950  20.3911380  75.0775690 120.2276880  19.5897110  75.3488300
 109.8914450  22.0580750  68.4631960 110.6577720  21.9462110  69.0257390
 109.9689140  21.3618720  67.8108730 108.5861210  19.4905820  69.1464850
 108.6664800  18.5433330  69.2582250 109.4780960  19.8212700  69.2525510
 121.9158390  27.5470000  76.5782260 122.0405810  28.3701170  77.0506070
 122.7823950  27.3360730  76.2306410 108.3934200  28.8247280  85.4384970
 109.1946930  29.1459330  85.8520370 107.8786020  28.4642860  86.1604880
 112.4978230  28.8131520  68.0724960 113.2906840  29.1020350  67.6206750
 111.9782580  28.3823690  67.3937440 117.2298830  24.9327150  85.3860380
 116.6236990  24.9558750  84.6456130 116.9252940  24.2010190  85.9227630
 118.6599200  28.6607440  83.9969790 119.6120950  28.5765460  83.9470030
 118.5127420  29.3249150  84.6703580 121.5508400  28.0401650  69.4961700
 121.2649910  27.6266790  68.6815880 121.3527950  28.9689360  69.3762220
 113.0155630  24.0334930  67.9367310 112.9106270  23.4187280  68.6628690
 112.8479850  23.5100820  67.1530320 113.1669950  22.7191730  83.9156540
 112.4015620  23.2876730  83.8311210 113.3485910  22.4267940  83.0224770
 116.2558360  23.0954960  68.5409300 115.7068460  23.5424260  69.1852040
 116.8777620  22.5904210  69.0646970 120.3093300  24.4497060  84.4731560
 121.0502770  24.7872820  83.9699020 119.5465980  24.6189120  83.9201330
 111.9233480  22.0545880  70.4374600 112.3449900  21.8885750  71.2805990
 112.0484320  21.2446110  69.9429740 110.0860900  18.0342430  83.2445580
 109.5557360  17.5433380  82.6168920 110.7548970  18.4626630  82.7103510
 114.4361120  21.0783490  67.6851700 114.9566780  20.3632510  67.3192850
 115.0829520  21.7169360  67.9852210 118.9838960  22.5011890  83.0086770
 119.3979980  22.6556970  83.8577190 118.0489960  22.6267110  83.1712550
 119.4561130  19.8408050  85.0125920 120.0381900  19.0860370  84.9246400
 119.6322900  20.3715490  84.2357400 110.5733200  15.0004800  83.3242870
 110.4790070  14.3825550  82.5993740 109.9930590  15.7271090  83.0972780
 113.3394640  13.5578040  80.3570260 112.8911940  13.5802300  79.5115810
 112.7059840  13.1597060  80.9540560 113.7454190  22.4532370  80.9782700
 114.1642300  23.2965100  80.8058940 112.8262820  22.5904410  80.7489480
 116.0818090  20.1848550  82.3620540 116.2014300  19.5889690  83.1015380
 116.9412090  20.2218240  81.9421840 118.4205990  20.7385740  80.9383050
 117.8941210  21.2628360  80.3348190 118.7637330  21.3713130  81.5692780
 110.8192380  18.1279110  67.3832760 110.6181440  17.2646470  67.7446100
 110.6484430  18.0412470  66.4454360 112.8486860  16.7269900  83.6196360
 113.4386550  16.4185750  84.3074180 112.0307100  16.2549650  83.7756260
 117.6680290  16.3435710  83.8529380 116.9795810  15.6817250  83.7879370
 118.3886310  15.8973980  84.2977840 118.2980690  12.9387340  69.9119640
 118.5782980  12.0955240  70.2679060 117.5246420  13.1710450  70.4258390
 109.6175180  15.2279730  67.3710640 109.9201080  15.2347160  66.4629790
 110.3569770  14.8777590  67.8678300 112.8360110  14.1714350  68.3566840
 112.4882110  13.4938340  67.7769290 113.0372880  13.7103860  69.1710230
 108.6405310  24.5322150  68.2040440 109.0780180  25.0751820  68.8598020
 109.1253040  23.7069100  68.2136780 121.9803500  27.6898770  82.6819640
 121.3805490  27.7491330  81.9383560 122.1097400  26.7503750  82.8116490
 123.2204950  25.4316590  68.0189350 122.3897910  25.4993240  68.4896580
 123.3976780  26.3220710  67.7156210 122.6761410  22.1764070  70.5223550
 123.4380320  22.7460720  70.6283240 122.6915780  21.6091270  71.2931860
 106.1765750  20.7002000  74.7531210 105.5214590  20.4313640  74.1090910
 107.0143700  20.5906480  74.3033190 123.6821380  23.0314170  75.3665480
 124.0530210  22.2481490  74.9601450 124.3223310  23.7203270  75.1882780
 120.6655140  24.4150750  80.7795800 119.8514980  24.8447910  81.0421590
 121.0729340  25.0269160  80.1664850 122.7280580  22.4698440  67.6796070
 123.0029420  23.3777320  67.5515290 122.5391320  22.4060970  68.6158060
 119.1256190  15.4943290  68.9749700 119.5441070  15.3074270  68.1346360
 118.8192250  14.6422340  69.2852630 122.6245920  20.4067430  72.6725500
 122.2489520  19.6395360  72.2406790 121.8949040  20.7890130  73.1600430
 107.2141680  21.0854570  79.2934550 107.5814720  20.9981970  80.1730570
 106.6452500  20.3221120  79.1941410 122.0145540  19.5538950  82.3065020
 121.7831630  19.3251700  81.4062970 122.2750090  20.4738500  82.2609910
 120.4533610  14.7795380  85.0844720 121.3303790  14.7878780  85.4678720
 120.4654450  14.0426220  84.4737070 105.3903830  17.9100930  70.6956540
 104.4867910  18.1731130  70.5208200 105.8744450  18.1812100  69.9156500
 121.8996880  18.6324920  75.9732740 122.4234360  18.1387570  75.3422910
 122.4856300  18.7675280  76.7180310 122.0786600  18.7164790  79.4952290
 121.1289310  18.6828330  79.6097280 122.2599610  19.6264900  79.2602060
 107.9331040  16.9666470  68.6050920 108.6422740  16.5449690  68.1198200
 107.2170980  17.0341700  67.9734270 107.5805200  13.0205800  67.6453570
 108.3033330  13.5614740  67.9634790 107.8529720  12.7469220  66.7695110
 121.3896850  17.8898270  71.9125150 121.8855970  17.6569140  72.6974030
 121.1912920  17.0510110  71.4962790 107.2697390  12.2711990  77.5476190
 107.9173580  11.7209370  77.1071350 107.6899230  12.5255140  78.3692000
 122.8184010  16.5259220  74.4462830 122.7083290  16.3715260  75.3845100
 123.5791600  15.9980160  74.2038240 121.1649730  12.4653350  80.9045830
 121.8021950  13.0787490  81.2705020 121.3124620  12.5014010  79.9595060
 123.7074280  14.3567140  67.6868970 124.6323590  14.2248320  67.4787260
 123.6850070  14.4359960  68.6405420 123.7812770  15.1277800  70.3125680
 122.9864270  15.0622920  70.8418590 123.9856050  16.0628440  70.3011030
 120.7231190  29.1669350  74.3064070 121.3190260  28.8453920  73.6298490
 120.9809340  28.6941170  75.0977340 107.0229390  12.4267660  80.2901510
 106.6744210  12.8831480  81.0559690 106.6917090  11.5324790  80.3723940
 108.6293760  25.5987260  84.4554700 108.5863390  25.2280170  85.3369160
 108.7604770  26.5364830  84.5956520 112.3299790  27.1546850  80.0564420
 112.0891150  27.4221410  79.1694940 113.2702430  27.3252580  80.1115280
 114.5354210  13.6179540  83.8120930 114.4743100  14.2101370  84.5616340
 115.4754590  13.5105500  83.6671190 117.1728770  13.2749600  83.4513220
 117.7869180  13.5928890  82.7894300 117.7178330  12.7898190  84.0709080
 123.5903950  29.1741230  80.8575060 123.0962230  29.5710100  80.1402190
 122.9817240  28.5490440  81.2512340 107.6950030  11.9543860  83.5652280
 108.2433020  11.7731910  82.8018390 107.7605340  11.1637970  84.1008590
 117.9136810  11.8381740  79.7782510 117.0396650  12.1716850  79.5755440
 117.8047560  11.3654920  80.6034380 118.8208790  14.0452610  81.1624230
 118.4922150  13.2304370  80.7825960 119.7691090  14.0022420  81.0389920
 121.2743400  29.8164650  78.1361800 120.8146370  30.5680460  77.7619820
 120.6455860  29.0971120  78.0776600 111.7039120  28.1252890  77.3109930
 112.2204140  27.5140250  76.7858190 112.3536500  28.6281670  77.8020940
 114.4434620  29.0161380  78.1378910 114.7312430  28.7615680  77.2611920
 114.9557840  28.4638740  78.7284480 115.6611630  12.7551580  78.7175420
 114.8783420  13.2297080  78.9972180 115.3674560  11.8506410  78.6088600
 120.2132700  13.4574680  76.7624510 120.6540790  13.4019780  75.9146110
 119.9440290  14.3732690  76.8334690 122.0771270  13.0889920  74.7733330
 122.0159670  12.1451140  74.6264350 122.8563300  13.1970010  75.3186790
 107.0052040  13.0599060  71.2389140 107.7631400  13.1727940  70.6653170
 106.5429210  13.8968260  71.1932570 113.5465850  15.1738330  74.2291450
 112.7340360  14.7995220  73.8887330 114.0507490  14.4183410  74.5312640
 118.0490830  11.8380780  75.4674520 118.6520200  12.4100990  75.9423040
 117.3083820  12.4020220  75.2448420 121.1925430  12.2402340  70.7414800
 121.3876060  13.1385790  71.0082230 120.4055300  12.0089420  71.2347750
 109.3777190  13.5863110  69.7791110 109.9069950  12.7992910  69.6499060
 110.0105510  14.2654300  70.0126640 111.5715030  13.3238250  72.8336500
 110.9417770  12.6225560  73.0006630 111.0320170  14.0842380  72.6169660
 114.5106980  29.9377480  85.5047110 115.4374290  29.7021750  85.5483070
 114.4957410  30.7649480  85.0233140 122.7452040  29.4803050  72.5021360
 122.9204230  28.7940790  71.8582280 122.0473610  30.0050100  72.1098030
 111.6970590  12.6022230  85.2688990 111.4154860  13.1055830  84.5049810
 112.0790290  11.8043980  84.9031120 110.5879690  29.8697890  70.0556670
 111.3198510  29.5857170  69.5080560 110.8473360  29.6311170  70.9456050
 109.7494480  25.9862620  70.0603000 109.1203360  26.4547720  70.6088830
 109.8642310  25.1411840  70.4949190 118.2986050  12.0175810  85.8469460
 118.1851500  12.3370420  86.7420980 119.1155790  12.4188320  85.5506740
 121.0784540  29.1647340  85.3288150 121.8709860  28.6696570  85.1214110
 121.3717690  29.8437480  85.9363760 117.2044200  20.0368280  56.2104200
 117.1238250  19.1222890  55.9395910 116.7908620  20.5335350  55.5043910
 115.3362240  21.8147300  58.0913470 114.5604340  21.3347740  58.3812040
 115.9875170  21.1352950  57.9169630 119.3569670  26.2207490  56.8712600
 118.8951200  25.4494730  57.1999770 120.1695220  26.2473560  57.3765050
 107.7620020  17.0869000  52.7531620 106.8736720  17.4284970  52.6511500
 108.0461210  16.8869320  51.8612450 115.5832980  28.5065500  56.4916590
 114.9644420  28.9623000  55.9211030 116.4384760  28.6616960  56.0906290
 114.7771230  24.4904490  58.0983630 114.7079510  23.5494430  57.9372760
 115.5391090  24.5805900  58.6706200 106.9677900  15.0959010  60.4240250
 106.7880740  14.1984760  60.7043010 106.5657980  15.6430880  61.0987200
 115.8076400  17.2974870  58.3252560 116.1841220  16.4246750  58.2126230
 115.7095910  17.6333570  57.4343000 109.9381410  15.6700500  53.7870000
 110.0448160  16.5704230  54.0938760 109.0273770  15.6218470  53.4964650
 119.5900520  14.7925310  55.2580900 120.4110140  14.3021880  55.3006380
 119.6234600  15.3822970  56.0112740 107.5864570  17.5919510  59.0322590
 108.2674680  17.8557880  59.6509990 107.2712620  16.7520380  59.3660600
 111.7789140  18.6386870  58.1195180 112.2867360  19.1367840  58.7600200
 112.3102380  17.8622070  57.9434540 123.8800070  16.8092060  61.8224530
 123.1752240  17.1973770  61.3039640 124.1457990  17.5042350  62.4245460
 110.0625240  13.2785430  62.3858600 110.0643680  13.7957820  61.5804500
 109.2329550  12.8015610  62.3628530 116.4496330  23.3904740  53.8848500
 115.8313600  23.8554190  53.3211220 116.9619580  24.0832220  54.3018010
 119.8262000  16.7325690  58.0308440 119.1217570  17.0210580  58.6111550
 120.1874160  17.5425800  57.6708000 109.7440570  14.9895390  60.3929050
 110.0857380  15.8337440  60.0982920 108.8056380  15.1379130  60.5094390
 105.8179530  24.0761270  51.2588130 105.4407510  24.5648370  50.5273030
 106.0752600  24.7486550  51.8894660 121.4424780  26.3500820  60.2935920
 120.7588300  27.0199930  60.2852590 121.9819070  26.5481470  59.5280780
 122.8948920  16.1780480  58.4217650 121.9473830  16.2119460  58.5533080
 123.2198910  16.9919430  58.8067010 113.4268460  12.4777660  56.7173640
 113.7343440  11.9224550  56.0009140 112.4969160  12.6122120  56.5346630
 118.9783520  28.1944950  59.0081100 118.9910680  27.7907240  58.1403360
 118.4258740  28.9692240  58.9042530 120.2728940  24.9161170  54.0971270
 120.1625270  23.9735500  54.2220690 120.2697190  25.2776810  54.9834030
 118.3768960  23.0974790  60.3363710 118.7937750  22.8834900  59.5017170
 119.1008780  23.3547580  60.9072330 115.8149220  20.5426490  53.4533760
 114.8878500  20.4763870  53.6822230 115.9674040  21.4806620  53.3389000
 115.8018300  16.8143490  50.4500920 114.8621970  16.9757450  50.5353380
 116.1201560  17.5329170  49.9036910 122.3231060  21.4962010  60.4279950
 121.4949690  21.5655100  59.9530080 122.9181540  22.0816320  59.9595780
 119.8446510  22.1046790  53.9569010 119.2258930  21.7666340  53.3095310
 119.8270960  21.4606550  54.6648200 119.2873070  18.2831330  61.3734820
 118.8744250  19.1085040  61.6274810 118.5549020  17.6976370  61.1811180
 111.4205860  21.0691230  56.2353490 111.0162860  20.3568480  55.7399390
 111.5068980  20.7244470  57.1241530 111.8887560  24.7558790  58.3992700
 111.5915850  24.1504260  57.7200480 112.8387380  24.7936100  58.2882060
 110.1334480  17.8434440  60.0152530 110.6849070  17.9529780  59.2405780
 110.6477990  18.2172040  60.7307760 119.9773170  28.3290660  62.0615800
 119.5003730  29.1362850  61.8688410 119.2934960  27.6768990  62.2142010
 110.9805990  24.4940480  65.0500500 110.0834520  24.7180450  65.2973900
 111.0058860  24.6175420  64.1011900 118.0211210  21.3433600  50.9641760
 118.4604490  20.5056030  50.8179580 118.7339630  21.9763000  51.0505900
 109.8077210  21.3653800  63.6257870 109.6684980  22.2376600  63.9945270
 108.9258570  21.0226610  63.4805810 116.1306590  26.2829670  54.9323000
 116.5702500  27.0254000  54.5178390 116.0693480  26.5256240  55.8561960
 111.6057560  27.3075500  65.8343020 111.5772990  27.7118450  64.9671450
 111.4422530  26.3785860  65.6714620 121.6028350  12.5976410  49.2782800
 121.2901010  12.6903240  50.1781870 122.3640820  13.1757440  49.2280230
 108.1210490  19.9636210  53.7360140 108.0008090  20.6898300  53.1241410
 107.8111380  19.1939120  53.2588050 123.5572380  28.0902600  67.1307190
 124.0332100  28.5685490  67.8096270 124.1779540  28.0220090  66.4052690
 107.0043490  24.8351540  55.9534960 106.5971570  24.9766130  55.0988560
 107.8956500  24.5511700  55.7506170 122.9605630  25.2815450  64.2907200
 123.0868690  25.0427330  63.3724380 123.0027010  24.4499990  64.7629280
 116.8222370  28.9843450  62.8602010 117.3367040  28.8951460  63.6624440
 115.9791450  29.3303150  63.1529920 118.7976770  29.2698790  52.2886010
 118.6377910  28.9801730  53.1867840 118.6323480  28.4938920  51.7531240
 111.2765150  29.0497320  54.0657630 111.1007630  28.1332860  53.8525430
 110.4220890  29.4084610  54.3055430 118.5002900  26.7786350  50.8484010
 117.8068060  26.7763640  50.1886290 119.2425760  26.3545670  50.4178180
 118.0652830  28.4049060  54.9232500 118.5209780  27.6238440  55.2371120
 118.4045350  29.1155880  55.4673680 122.8129640  17.3347910  65.2556940
 122.1973910  17.8427580  64.7272400 122.4926060  16.4346240  65.1982880
 110.5874150  13.3071280  57.1183810 110.1442300  14.0880820  56.7868330
 111.1459140  13.6301170  57.8254750 114.8743960  16.1739800  62.7219130
 114.4123330  16.3822820  63.5339070 114.4722070  15.3599150  62.4189800
 119.8748470  17.3948750  63.8515790 119.0242060  17.0954500  64.1724860
 119.7150260  17.6390760  62.9399610 116.9698180  18.8950500  65.9514580
 117.2951590  18.0614250  65.6116810 117.7578510  19.4179020  66.0992910
 113.7032970  12.9281980  51.9989640 113.0787150  12.9241850  52.7242950
 113.6163090  12.0612940  51.6025610 112.6250050  13.8518610  58.9773410
 112.9222380  14.7581440  58.8965430 113.1735610  13.3637390  58.3632980
 110.3788370  18.4304850  54.8465060 110.1529290  18.2142020  55.7511680
 109.5980900  18.8633310  54.5011030 117.6086130  18.4368220  53.4455710
 117.0095020  19.1604020  53.2619330 118.1565740  18.3745000  52.6632160
 112.8187580  19.3290430  65.5125330 112.7231180  18.3885160  65.3625730
 113.6619560  19.5505500  65.1173400 116.2151000  17.0731760  55.4758990
 116.6080570  17.3903960  54.6627680 116.5767850  16.1943640  55.5903510
 107.9498120  15.7404100  63.6659110 107.5561510  16.5879310  63.8731890
 107.2616520  15.1030470  63.8567750 114.5243170  15.8239070  66.7355850
 113.8341490  15.6311270  67.3701940 115.2675470  16.1073710  67.2680150
 105.2515170  13.6632560  57.6989190 104.9628220  14.2335420  58.4114170
 105.9960930  13.1837010  58.0620420 105.4385400  17.6052680  48.9091910
 105.3560070  18.5483440  49.0506900 105.0868460  17.4627590  48.0304260
 116.8006140  19.6637510  59.5709770 116.0687260  20.1724320  59.9199870
 116.4030480  18.8467490  59.2698550 113.2383530  16.3391710  57.9762260
 113.2419590  15.8981660  57.1266800 114.1334650  16.6609040  58.0834080
 109.0885910  16.2218200  56.9356470 108.7485960  16.6993430  57.6923520
 108.3263230  15.7683320  56.5757570 113.3003680  17.3403790  50.9669020
 113.4216500  17.2990270  51.9154840 112.9152190  18.2027940  50.8115750
 117.2632050  15.1171190  58.9832710 117.2804790  15.5679840  59.8274560
 117.0147630  14.2176830  59.1966150 112.3125180  19.6504930  50.3652320
 111.7442080  19.2023180  49.7388230 113.0214180  20.0097710  49.8317470
 120.6902800  12.5303370  64.8219090 121.0148570  11.7993030  65.3477070
 120.7259310  12.2117010  63.9200080 113.5391500  20.3993490  59.7227670
 113.9061630  19.9252060  60.4689010 113.3496560  21.2735060  60.0636010
 106.4031990  15.1437180  55.8521140 106.1178910  14.7792850  56.6899760
 106.3410850  14.4117640  55.2384280 111.3290870  19.4402130  62.0411880
 111.0247940  20.3194110  62.2662240 112.2837330  19.5001920  62.0769320
 109.8572660  23.6463120  52.6378730 109.0834920  23.1060740  52.4777450
 110.5867290  23.1269730  52.2996490 120.6160640  22.6428480  58.4305120
 121.3359760  23.1383770  58.0401230 120.4142460  21.9646370  57.7858990
 116.0770580  14.0366440  52.5734510 115.2635190  13.5379610  52.4979820
 115.8832530  14.8764690  52.1570860 115.9979440  22.7137540  64.3174120
 115.9316750  21.7933210  64.0631710 115.3684580  22.8112980  65.0318760
 118.7918970  18.4086090  50.8696670 119.6798590  18.7203320  50.6948010
 118.7624060  17.5358340  50.4777250 109.9010060  23.3143500  56.2757540
 110.4188730  22.5111760  56.2214430 109.4494080  23.2522640  57.1174370
 114.7879560  24.5809780  51.5484840 115.1295260  25.3252010  51.0528160
 113.9592270  24.8940900  51.9109670 110.5867720  20.7389110  66.0722790
 110.2867860  20.8846290  65.1750610 111.3578960  20.1794400  65.9796180
 115.9296170  25.5358110  64.0677920 115.9440710  24.6039070  63.8496830
 115.2221270  25.6217870  64.7067690 121.0633240  19.7197930  50.3376530
 120.9796960  20.1512150  49.4872970 121.7827430  20.1796280  50.7703350
 122.1407380  22.1765450  63.4146500 121.4155570  22.7694230  63.2175890
 122.6682840  22.1688990  62.6159870 122.0920490  26.5740190  53.0658660
 121.4496650  25.9195810  53.3402380 121.7051150  26.9795280  52.2899330
 117.6706970  23.9025620  56.9130350 118.0230790  23.3053750  56.2531720
 116.7869300  23.5769850  57.0838600 113.7570250  24.6623310  54.3200760
 114.4441380  25.2092520  54.7008350 112.9702670  25.2064040  54.3550370
 105.8962650  20.2796130  49.8117840 106.7657500  20.5620930  50.0953760
 105.4052970  21.0932000  49.6966650 113.0597460  21.6669340  53.9326120
 113.5160240  22.4774590  54.1586310 112.7085670  21.3492480  54.7644610
 115.3630070  27.1775680  61.1618420 116.0072290  27.3835060  61.8391840
 115.7259510  26.4164080  60.7089270 108.9609240  12.0106990  54.4048640
 108.8323870  12.0024890  55.3533560 108.1371260  12.3490080  54.0539650
 116.6362150  25.1808030  59.8795870 117.2784380  24.4801190  59.9928040
 117.1611500  25.9606470  59.6992760 120.4817870  25.4656650  49.6035010
 120.2555450  24.7487090  50.1959650 120.0914070  25.2169090  48.7656760
 118.4099770  25.9802930  63.0831930 118.7456010  26.5669620  63.7609850
 117.4900110  25.8495640  63.3129720 105.9603170  13.7698110  63.8655340
 105.2461690  13.9695030  64.4707950 106.3798210  12.9937680  64.2370140
 120.0634120  23.3828590  51.2649170 119.7755820  23.8441280  52.0527050
 120.8586290  22.9226360  51.5333390 114.2388350  26.0294260  66.2519990
 113.9185220  25.3103500  66.7965680 113.5646710  26.7049330  66.3256050
 112.2802520  26.8754710  51.1953140 112.2712620  27.6084400  50.5797650
 111.3600880  26.6286290  51.2880100 107.8809160  22.0969600  51.9399900
 107.2737110  22.8368500  51.9495200 108.3558510  22.1868960  51.1138100
 117.4541950  16.2620420  61.6156790 117.8222770  15.4415630  61.9436360
 116.5940150  16.3222310  62.0312440 120.8203980  15.2177360  52.4244350
 120.1917140  15.3223030  51.7102580 120.3255900  15.4374140  53.2138230
 115.2662120  26.9382950  49.8578330 115.3674100  26.7346940  48.9280310
 114.3663860  26.6841230  50.0626110 112.7888010  17.4963310  53.8402230
 112.0804160  17.9649650  54.2815840 113.0732490  16.8385320  54.4747420
 114.4143940  18.9160010  61.8394760 114.9129190  19.3905830  62.5046610
 114.5566890  17.9923530  62.0464790 116.8203440  14.2213970  55.2798020
 116.6971220  14.2400100  54.3307530 117.7688000  14.2692910  55.3996420
 113.9080230  29.4569270  54.5526000 114.1621730  29.4190660  53.6305370
 112.9592710  29.3302600  54.5454250 110.9923030  15.8048390  51.2152940
 111.8413560  16.2418540  51.1493130 110.6254300  16.1168650  52.0425000
 121.6210800  15.1327970  62.6823150 121.1184400  15.8733370  63.0216960
 122.4367460  15.5211970  62.3659940 119.9132810  20.3761150  56.1284510
 118.9722950  20.3911380  56.3032200 120.2276880  19.5897110  56.5744810
 109.8914450  22.0580750  49.6888470 110.6577720  21.9462110  50.2513900
 109.9689140  21.3618720  49.0365240 108.5861210  19.4905820  50.3721360
 108.6664800  18.5433330  50.4838760 109.4780960  19.8212700  50.4782020
 121.9158390  27.5470000  57.8038770 122.0405810  28.3701170  58.2762580
 122.7823950  27.3360730  57.4562920 109.3875920  29.6401210  57.4755900
 110.1238400  29.0916670  57.7464470 109.7716840  30.5057220  57.3361890
 106.2721400  25.7074780  53.3497410 105.3461180  25.9495920  53.3402820
 106.7377830  26.5349040  53.2282160 112.4978230  28.8131520  49.2981470
 113.2906840  29.1020350  48.8463260 111.9782580  28.3823690  48.6193950
 117.2298830  24.9327150  66.6116890 116.6236990  24.9558750  65.8712640
 116.9252940  24.2010190  67.1484140 118.6599200  28.6607440  65.2226300
 119.6120950  28.5765460  65.1726540 118.5127420  29.3249150  65.8960090
 121.5508400  28.0401650  50.7218210 121.2649910  27.6266790  49.9072390
 121.3527950  28.9689360  50.6018730 113.0155630  24.0334930  49.1623820
 112.9106270  23.4187280  49.8885200 112.8479850  23.5100820  48.3786830
 113.1669950  22.7191730  65.1413050 112.4015620  23.2876730  65.0567720
 113.3485910  22.4267940  64.2481280 116.2558360  23.0954960  49.7665810
 115.7068460  23.5424260  50.4108550 116.8777620  22.5904210  50.2903480
 120.3093300  24.4497060  65.6988070 121.0502770  24.7872820  65.1955530
 119.5465980  24.6189120  65.1457840 108.1455090  19.4550330  66.5027600
 108.1860430  19.1564200  67.4112830 109.0000590  19.8557940  66.3435120
 111.9233480  22.0545880  51.6631110 112.3449900  21.8885750  52.5062500
 112.0484320  21.2446110  51.1686250 110.0860900  18.0342430  64.4702090
 109.5557360  17.5433380  63.8425430 110.7548970  18.4626630  63.9360020
 114.4361120  21.0783490  48.9108210 114.9566780  20.3632510  48.5449360
 115.0829520  21.7169360  49.2108720 118.9838960  22.5011890  64.2343280
 119.3979980  22.6556970  65.0833700 118.0489960  22.6267110  64.3969060
 119.4561130  19.8408050  66.2382430 120.0381900  19.0860370  66.1502910
 119.6322900  20.3715490  65.4613910 110.5733200  15.0004800  64.5499380
 110.4790070  14.3825550  63.8250250 109.9930590  15.7271090  64.3229290
 113.3394640  13.5578040  61.5826770 112.8911940  13.5802300  60.7372320
 112.7059840  13.1597060  62.1797070 113.7454190  22.4532370  62.2039210
 114.1642300  23.2965100  62.0315450 112.8262820  22.5904410  61.9745990
 116.0818090  20.1848550  63.5877050 116.2014300  19.5889690  64.3271890
 116.9412090  20.2218240  63.1678350 118.4205990  20.7385740  62.1639560
 117.8941210  21.2628360  61.5604700 118.7637330  21.3713130  62.7949290
 110.8192380  18.1279110  48.6089270 110.6181440  17.2646470  48.9702610
 110.6484430  18.0412470  47.6710870 112.8486860  16.7269900  64.8452870
 113.4386550  16.4185750  65.5330690 112.0307100  16.2549650  65.0012770
 117.6680290  16.3435710  65.0785890 116.9795810  15.6817250  65.0135880
 118.3886310  15.8973980  65.5234350 118.2980690  12.9387340  51.1376150
 118.5782980  12.0955240  51.4935570 117.5246420  13.1710450  51.6514900
 109.6175180  15.2279730  48.5967150 109.9201080  15.2347160  47.6886300
 110.3569770  14.8777590  49.0934810 114.4523820  29.9936590  63.5783590
 114.3782520  30.8971730  63.8855960 113.5502660  29.6748490  63.5505660
 112.8360110  14.1714350  49.5823350 112.4882110  13.4938340  49.0025800
 113.0372880  13.7103860  50.3966740 115.0009150  29.1595100  51.2009950
 115.8959940  29.4980070  51.2228710 115.0326780  28.4374510  50.5734230
 108.6405310  24.5322150  49.4296950 109.0780180  25.0751820  50.0854530
 109.1253040  23.7069100  49.4393290 105.8551110  27.3211180  56.8817210
 106.1854120  26.4532240  56.6495850 106.2842110  27.5269700  57.7122170
 110.4513030  25.6520190  54.5419180 110.1508570  25.5285160  55.4423090
 110.3450520  24.7928780  54.1334910 121.9803500  27.6898770  63.9076150
 121.3805490  27.7491330  63.1640070 122.1097400  26.7503750  64.0373000
 123.2204950  25.4316590  49.2445860 122.3897910  25.4993240  49.7153090
 123.3976780  26.3220710  48.9412720 122.6761410  22.1764070  51.7480060
 123.4380320  22.7460720  51.8539750 122.6915780  21.6091270  52.5188370
 106.1765750  20.7002000  55.9787720 105.5214590  20.4313640  55.3347420
 107.0143700  20.5906480  55.5289700 123.6821380  23.0314170  56.5921990
 124.0530210  22.2481490  56.1857960 124.3223310  23.7203270  56.4139290
 120.6655140  24.4150750  62.0052310 119.8514980  24.8447910  62.2678100
 121.0729340  25.0269160  61.3921360 122.7280580  22.4698440  48.9052580
 123.0029420  23.3777320  48.7771800 122.5391320  22.4060970  49.8414570
 119.1256190  15.4943290  50.2006210 119.5441070  15.3074270  49.3602870
 118.8192250  14.6422340  50.5109140 122.6245920  20.4067430  53.8982010
 122.2489520  19.6395360  53.4663300 121.8949040  20.7890130  54.3856940
 122.0145540  19.5538950  63.5321530 121.7831630  19.3251700  62.6319480
 122.2750090  20.4738500  63.4866420 120.4533610  14.7795380  66.3101230
 121.3303790  14.7878780  66.6935230 120.4654450  14.0426220  65.6993580
 105.3903830  17.9100930  51.9213050 104.4867910  18.1731130  51.7464710
 105.8744450  18.1812100  51.1413010 121.8996880  18.6324920  57.1989250
 122.4234360  18.1387570  56.5679420 122.4856300  18.7675280  57.9436820
 122.0786600  18.7164790  60.7208800 121.1289310  18.6828330  60.8353790
 122.2599610  19.6264900  60.4858570 107.9331040  16.9666470  49.8307430
 108.6422740  16.5449690  49.3454710 107.2170980  17.0341700  49.1990780
 107.5805200  13.0205800  48.8710080 108.3033330  13.5614740  49.1891300
 107.8529720  12.7469220  47.9951620 121.3896850  17.8898270  53.1381660
 121.8855970  17.6569140  53.9230540 121.1912920  17.0510110  52.7219300
 107.2697390  12.2711990  58.7732700 107.9173580  11.7209370  58.3327860
 107.6899230  12.5255140  59.5948510 122.8184010  16.5259220  55.6719340
 122.7083290  16.3715260  56.6101610 123.5791600  15.9980160  55.4294750
 121.1649730  12.4653350  62.1302340 121.8021950  13.0787490  62.4961530
 121.3124620  12.5014010  61.1851570 123.7074280  14.3567140  48.9125480
 124.6323590  14.2248320  48.7043770 123.6850070  14.4359960  49.8661930
 123.7812770  15.1277800  51.5382190 122.9864270  15.0622920  52.0675100
 123.9856050  16.0628440  51.5267540 120.7231190  29.1669350  55.5320580
 121.3190260  28.8453920  54.8555000 120.9809340  28.6941170  56.3233850
 107.0229390  12.4267660  61.5158020 106.6744210  12.8831480  62.2816200
 106.6917090  11.5324790  61.5980450 114.5354210  13.6179540  65.0377440
 114.4743100  14.2101370  65.7872850 115.4754590  13.5105500  64.8927700
 117.1728770  13.2749600  64.6769730 117.7869180  13.5928890  64.0150810
 117.7178330  12.7898190  65.2965590 123.5903950  29.1741230  62.0831570
 123.0962230  29.5710100  61.3658700 122.9817240  28.5490440  62.4768850
 107.6950030  11.9543860  64.7908790 108.2433020  11.7731910  64.0274900
 107.7605340  11.1637970  65.3265100 117.9136810  11.8381740  61.0039020
 117.0396650  12.1716850  60.8011950 117.8047560  11.3654920  61.8290890
 118.8208790  14.0452610  62.3880740 118.4922150  13.2304370  62.0082470
 119.7691090  14.0022420  62.2646430 121.2743400  29.8164650  59.3618310
 120.8146370  30.5680460  58.9876330 120.6455860  29.0971120  59.3033110
 111.7039120  28.1252890  58.5366440 112.2204140  27.5140250  58.0114700
 112.3536500  28.6281670  59.0277450 114.4434620  29.0161380  59.3635420
 114.7312430  28.7615680  58.4868430 114.9557840  28.4638740  59.9540990
 115.6611630  12.7551580  59.9431930 114.8783420  13.2297080  60.2228690
 115.3674560  11.8506410  59.8345110 120.2132700  13.4574680  57.9881020
 120.6540790  13.4019780  57.1402620 119.9440290  14.3732690  58.0591200
 122.0771270  13.0889920  55.9989840 122.0159670  12.1451140  55.8520860
 122.8563300  13.1970010  56.5443300 106.3824020  29.2282280  54.9613790
 106.2146060  28.5952960  55.6595680 105.5158530  29.4341680  54.6107980
 107.0052040  13.0599060  52.4645650 107.7631400  13.1727940  51.8909680
 106.5429210  13.8968260  52.4189080 113.5465850  15.1738330  55.4547960
 112.7340360  14.7995220  55.1143840 114.0507490  14.4183410  55.7569150
 118.0490830  11.8380780  56.6931030 118.6520200  12.4100990  57.1679550
 117.3083820  12.4020220  56.4704930 121.1925430  12.2402340  51.9671310
 121.3876060  13.1385790  52.2338740 120.4055300  12.0089420  52.4604260
 107.9886720  27.9215510  52.4063930 107.4634340  28.3023540  51.7025890
 107.9131300  28.5466280  53.1273640 109.3777190  13.5863110  51.0047620
 109.9069950  12.7992910  50.8755570 110.0105510  14.2654300  51.2383150
 111.5715030  13.3238250  54.0593010 110.9417770  12.6225560  54.2263140
 111.0320170  14.0842380  53.8426170 114.5106980  29.9377480  66.7303620
 115.4374290  29.7021750  66.7739580 114.4957410  30.7649480  66.2489650
 122.7452040  29.4803050  53.7277870 122.9204230  28.7940790  53.0838790
 122.0473610  30.0050100  53.3354540 111.6970590  12.6022230  66.4945500
 111.4154860  13.1055830  65.7306320 112.0790290  11.8043980  66.1287630
 109.7494480  25.9862620  51.2859510 109.1203360  26.4547720  51.8345340
 109.8642310  25.1411840  51.7205700 118.2986050  12.0175810  67.0725970
 118.1851500  12.3370420  67.9677490 119.1155790  12.4188320  66.7763250
 121.0784540  29.1647340  66.5544660 121.8709860  28.6696570  66.3470620
 121.3717690  29.8437480  67.1620270 117.2044200  20.0368280  37.4360710
 117.1238250  19.1222890  37.1652420 116.7908620  20.5335350  36.7300420
 115.3362240  21.8147300  39.3169980 114.5604340  21.3347740  39.6068550
 115.9875170  21.1352950  39.1426140 109.3528070  22.1267110  40.1945740
 108.5212950  21.8715820  40.5942250 109.9609050  22.1977880  40.9303660
 119.3569670  26.2207490  38.0969110 118.8951200  25.4494730  38.4256280
 120.1695220  26.2473560  38.6021560 109.3329330  26.1607200  40.3903760
 109.6357370  25.2704940  40.2113980 110.0772920  26.7177420  40.1626010
 107.7620020  17.0869000  33.9788130 106.8736720  17.4284970  33.8768010
 108.0461210  16.8869320  33.0868960 105.7253030  19.6874650  39.8627830
 106.2969140  18.9196850  39.8631470 105.7254570  19.9863410  38.9534440
 115.5832980  28.5065500  37.7173100 114.9644420  28.9623000  37.1467540
 116.4384760  28.6616960  37.3162800 114.7771230  24.4904490  39.3240140
 114.7079510  23.5494430  39.1629270 115.5391090  24.5805900  39.8962710
 106.9677900  15.0959010  41.6496760 106.7880740  14.1984760  41.9299520
 106.5657980  15.6430880  42.3243710 115.8076400  17.2974870  39.5509070
 116.1841220  16.4246750  39.4382740 115.7095910  17.6333570  38.6599510
 109.9381410  15.6700500  35.0126510 110.0448160  16.5704230  35.3195270
 109.0273770  15.6218470  34.7221160 119.5900520  14.7925310  36.4837410
 120.4110140  14.3021880  36.5262890 119.6234600  15.3822970  37.2369250
 107.5864570  17.5919510  40.2579100 108.2674680  17.8557880  40.8766500
 107.2712620  16.7520380  40.5917110 111.7789140  18.6386870  39.3451690
 112.2867360  19.1367840  39.9856710 112.3102380  17.8622070  39.1691050
 123.8800070  16.8092060  43.0481040 123.1752240  17.1973770  42.5296150
 124.1457990  17.5042350  43.6501970 110.0625240  13.2785430  43.6115110
 110.0643680  13.7957820  42.8061010 109.2329550  12.8015610  43.5885040
 116.4496330  23.3904740  35.1105010 115.8313600  23.8554190  34.5467730
 116.9619580  24.0832220  35.5274520 111.3128090  22.9180610  41.7888610
 110.9797470  23.5449530  42.4309680 111.4894770  23.4442490  41.0090280
 119.8262000  16.7325690  39.2564950 119.1217570  17.0210580  39.8368060
 120.1874160  17.5425800  38.8964510 109.7440570  14.9895390  41.6185560
 110.0857380  15.8337440  41.3239430 108.8056380  15.1379130  41.7350900
 110.5247190  24.8861410  43.6037790 111.1421190  25.5612490  43.3222240
 109.6640310  25.2949390  43.5125290 105.8179530  24.0761270  32.4844640
 105.4407510  24.5648370  31.7529540 106.0752600  24.7486550  33.1151170
 121.4424780  26.3500820  41.5192430 120.7588300  27.0199930  41.5109100
 121.9819070  26.5481470  40.7537290 122.8948920  16.1780480  39.6474160
 121.9473830  16.2119460  39.7789590 123.2198910  16.9919430  40.0323520
 113.4268460  12.4777660  37.9430150 113.7343440  11.9224550  37.2265650
 112.4969160  12.6122120  37.7603140 118.9783520  28.1944950  40.2337610
 118.9910680  27.7907240  39.3659870 118.4258740  28.9692240  40.1299040
 120.2728940  24.9161170  35.3227780 120.1625270  23.9735500  35.4477200
 120.2697190  25.2776810  36.2090540 118.3768960  23.0974790  41.5620220
 118.7937750  22.8834900  40.7273680 119.1008780  23.3547580  42.1328840
 115.8149220  20.5426490  34.6790270 114.8878500  20.4763870  34.9078740
 115.9674040  21.4806620  34.5645510 115.8018300  16.8143490  31.6757430
 114.8621970  16.9757450  31.7609890 116.1201560  17.5329170  31.1293420
 122.3231060  21.4962010  41.6536460 121.4949690  21.5655100  41.1786590
 122.9181540  22.0816320  41.1852290 119.8446510  22.1046790  35.1825520
 119.2258930  21.7666340  34.5351820 119.8270960  21.4606550  35.8904710
 119.2873070  18.2831330  42.5991330 118.8744250  19.1085040  42.8531320
 118.5549020  17.6976370  42.4067690 111.4205860  21.0691230  37.4610000
 111.0162860  20.3568480  36.9655900 111.5068980  20.7244470  38.3498040
 111.8887560  24.7558790  39.6249210 111.5915850  24.1504260  38.9456990
 112.8387380  24.7936100  39.5138570 110.1334480  17.8434440  41.2409040
 110.6849070  17.9529780  40.4662290 110.6477990  18.2172040  41.9564270
 119.9773170  28.3290660  43.2872310 119.5003730  29.1362850  43.0944920
 119.2934960  27.6768990  43.4398520 110.9805990  24.4940480  46.2757010
 110.0834520  24.7180450  46.5230410 111.0058860  24.6175420  45.3268410
 118.0211210  21.3433600  32.1898270 118.4604490  20.5056030  32.0436090
 118.7339630  21.9763000  32.2762410 109.8077210  21.3653800  44.8514380
 109.6684980  22.2376600  45.2201780 108.9258570  21.0226610  44.7062320
 116.1306590  26.2829670  36.1579510 116.5702500  27.0254000  35.7434900
 116.0693480  26.5256240  37.0818470 111.6057560  27.3075500  47.0599530
 111.5772990  27.7118450  46.1927960 111.4422530  26.3785860  46.8971130
 121.6028350  12.5976410  30.5039310 121.2901010  12.6903240  31.4038380
 122.3640820  13.1757440  30.4536740 108.1210490  19.9636210  34.9616650
 108.0008090  20.6898300  34.3497920 107.8111380  19.1939120  34.4844560
 123.5572380  28.0902600  48.3563700 124.0332100  28.5685490  49.0352780
 124.1779540  28.0220090  47.6309200 105.7595860  23.1351350  40.7685290
 105.8376280  23.2700120  39.8241010 106.3737540  22.4267240  40.9613410
 107.0043490  24.8351540  37.1791470 106.5971570  24.9766130  36.3245070
 107.8956500  24.5511700  36.9762680 122.9605630  25.2815450  45.5163710
 123.0868690  25.0427330  44.5980890 123.0027010  24.4499990  45.9885790
 116.8222370  28.9843450  44.0858520 117.3367040  28.8951460  44.8880950
 115.9791450  29.3303150  44.3786430 118.7976770  29.2698790  33.5142520
 118.6377910  28.9801730  34.4124350 118.6323480  28.4938920  32.9787750
 111.2765150  29.0497320  35.2914140 111.1007630  28.1332860  35.0781940
 110.4220890  29.4084610  35.5311940 118.5002900  26.7786350  32.0740520
 117.8068060  26.7763640  31.4142800 119.2425760  26.3545670  31.6434690
 118.0652830  28.4049060  36.1489010 118.5209780  27.6238440  36.4627630
 118.4045350  29.1155880  36.6930190 122.8129640  17.3347910  46.4813450
 122.1973910  17.8427580  45.9528910 122.4926060  16.4346240  46.4239390
 105.8155380  24.1765520  43.3079750 105.9786420  23.7070880  42.4899120
 106.2807830  23.6689080  43.9728590 110.5874150  13.3071280  38.3440320
 110.1442300  14.0880820  38.0124840 111.1459140  13.6301170  39.0511260
 114.8743960  16.1739800  43.9475640 114.4123330  16.3822820  44.7595580
 114.4722070  15.3599150  43.6446310 119.8748470  17.3948750  45.0772300
 119.0242060  17.0954500  45.3981370 119.7150260  17.6390760  44.1656120
 116.9698180  18.8950500  47.1771090 117.2951590  18.0614250  46.8373320
 117.7578510  19.4179020  47.3249420 113.7032970  12.9281980  33.2246150
 113.0787150  12.9241850  33.9499460 113.6163090  12.0612940  32.8282120
 112.6250050  13.8518610  40.2029920 112.9222380  14.7581440  40.1221940
 113.1735610  13.3637390  39.5889490 110.3788370  18.4304850  36.0721570
 110.1529290  18.2142020  36.9768190 109.5980900  18.8633310  35.7267540
 117.6086130  18.4368220  34.6712220 117.0095020  19.1604020  34.4875840
 118.1565740  18.3745000  33.8888670 112.8187580  19.3290430  46.7381840
 112.7231180  18.3885160  46.5882240 113.6619560  19.5505500  46.3429910
 116.2151000  17.0731760  36.7015500 116.6080570  17.3903960  35.8884190
 116.5767850  16.1943640  36.8160020 107.9498120  15.7404100  44.8915620
 107.5561510  16.5879310  45.0988400 107.2616520  15.1030470  45.0824260
 114.5243170  15.8239070  47.9612360 113.8341490  15.6311270  48.5958450
 115.2675470  16.1073710  48.4936660 105.2515170  13.6632560  38.9245700
 104.9628220  14.2335420  39.6370680 105.9960930  13.1837010  39.2876930
 105.4385400  17.6052680  30.1348420 105.3560070  18.5483440  30.2763410
 105.0868460  17.4627590  29.2560770 116.8006140  19.6637510  40.7966280
 116.0687260  20.1724320  41.1456380 116.4030480  18.8467490  40.4955060
 113.2383530  16.3391710  39.2018770 113.2419590  15.8981660  38.3523310
 114.1334650  16.6609040  39.3090590 109.0885910  16.2218200  38.1612980
 108.7485960  16.6993430  38.9180030 108.3263230  15.7683320  37.8014080
 113.3003680  17.3403790  32.1925530 113.4216500  17.2990270  33.1411350
 112.9152190  18.2027940  32.0372260 117.2632050  15.1171190  40.2089220
 117.2804790  15.5679840  41.0531070 117.0147630  14.2176830  40.4222660
 112.3125180  19.6504930  31.5908830 111.7442080  19.2023180  30.9644740
 113.0214180  20.0097710  31.0573980 120.6902800  12.5303370  46.0475600
 121.0148570  11.7993030  46.5733580 120.7259310  12.2117010  45.1456590
 107.3894360  23.5516950  45.4675560 107.0049150  22.9110620  46.0658520
 107.7006550  24.2553070  46.0370290 113.5391500  20.3993490  40.9484180
 113.9061630  19.9252060  41.6945520 113.3496560  21.2735060  41.2892520
 106.4031990  15.1437180  37.0777650 106.1178910  14.7792850  37.9156270
 106.3410850  14.4117640  36.4640790 111.3290870  19.4402130  43.2668390
 111.0247940  20.3194110  43.4918750 112.2837330  19.5001920  43.3025830
 109.8572660  23.6463120  33.8635240 109.0834920  23.1060740  33.7033960
 110.5867290  23.1269730  33.5253000 120.6160640  22.6428480  39.6561630
 121.3359760  23.1383770  39.2657740 120.4142460  21.9646370  39.0115500
 116.0770580  14.0366440  33.7991020 115.2635190  13.5379610  33.7236330
 115.8832530  14.8764690  33.3827370 115.9979440  22.7137540  45.5430630
 115.9316750  21.7933210  45.2888220 115.3684580  22.8112980  46.2575270
 118.7918970  18.4086090  32.0953180 119.6798590  18.7203320  31.9204520
 118.7624060  17.5358340  31.7033760 109.9010060  23.3143500  37.5014050
 110.4188730  22.5111760  37.4470940 109.4494080  23.2522640  38.3430880
 114.7879560  24.5809780  32.7741350 115.1295260  25.3252010  32.2784670
 113.9592270  24.8940900  33.1366180 107.3854600  20.2804870  44.4139750
 107.0269540  20.9458720  45.0013090 107.0909160  19.4488420  44.7852370
 110.5867720  20.7389110  47.2979300 110.2867860  20.8846290  46.4007120
 111.3578960  20.1794400  47.2052690 115.9296170  25.5358110  45.2934430
 115.9440710  24.6039070  45.0753340 115.2221270  25.6217870  45.9324200
 121.0633240  19.7197930  31.5633040 120.9796960  20.1512150  30.7129480
 121.7827430  20.1796280  31.9959860 122.1407380  22.1765450  44.6403010
 121.4155570  22.7694230  44.4432400 122.6682840  22.1688990  43.8416380
 122.0920490  26.5740190  34.2915170 121.4496650  25.9195810  34.5658890
 121.7051150  26.9795280  33.5155840 117.6706970  23.9025620  38.1386860
 118.0230790  23.3053750  37.4788230 116.7869300  23.5769850  38.3095110
 113.7570250  24.6623310  35.5457270 114.4441380  25.2092520  35.9264860
 112.9702670  25.2064040  35.5806880 105.8962650  20.2796130  31.0374350
 106.7657500  20.5620930  31.3210270 105.4052970  21.0932000  30.9223160
 113.0597460  21.6669340  35.1582630 113.5160240  22.4774590  35.3842820
 112.7085670  21.3492480  35.9901120 115.3630070  27.1775680  42.3874930
 116.0072290  27.3835060  43.0648350 115.7259510  26.4164080  41.9345780
 108.9609240  12.0106990  35.6305150 108.8323870  12.0024890  36.5790070
 108.1371260  12.3490080  35.2796160 116.6362150  25.1808030  41.1052380
 117.2784380  24.4801190  41.2184550 117.1611500  25.9606470  40.9249270
 120.4817870  25.4656650  30.8291520 120.2555450  24.7487090  31.4216160
 120.0914070  25.2169090  29.9913270 118.4099770  25.9802930  44.3088440
 118.7456010  26.5669620  44.9866360 117.4900110  25.8495640  44.5386230
 106.2633900  29.4923510  31.6035980 106.6231540  30.0912850  30.9493250
 106.1226240  30.0383400  32.3771010 105.9603170  13.7698110  45.0911850
 105.2461690  13.9695030  45.6964460 106.3798210  12.9937680  45.4626650
 120.0634120  23.3828590  32.4905680 119.7755820  23.8441280  33.2783560
 120.8586290  22.9226360  32.7589900 106.2475760  27.7578370  46.0778380
 106.3566880  26.8173110  45.9373770 105.5956320  28.0233120  45.4292110
 114.2388350  26.0294260  47.4776500 113.9185220  25.3103500  48.0222190
 113.5646710  26.7049330  47.5512560 112.2802520  26.8754710  32.4209650
 112.2712620  27.6084400  31.8054160 111.3600880  26.6286290  32.5136610
 107.8809160  22.0969600  33.1656410 107.2737110  22.8368500  33.1751710
 108.3558510  22.1868960  32.3394610 117.4541950  16.2620420  42.8413300
 117.8222770  15.4415630  43.1692870 116.5940150  16.3222310  43.2568950
 120.8203980  15.2177360  33.6500860 120.1917140  15.3223030  32.9359090
 120.3255900  15.4374140  34.4394740 115.2662120  26.9382950  31.0834840
 115.3674100  26.7346940  30.1536820 114.3663860  26.6841230  31.2882620
 112.7888010  17.4963310  35.0658740 112.0804160  17.9649650  35.5072350
 113.0732490  16.8385320  35.7003930 114.4143940  18.9160010  43.0651270
 114.9129190  19.3905830  43.7303120 114.5566890  17.9923530  43.2721300
 116.8203440  14.2213970  36.5054530 116.6971220  14.2400100  35.5564040
 117.7688000  14.2692910  36.6252930 113.9080230  29.4569270  35.7782510
 114.1621730  29.4190660  34.8561880 112.9592710  29.3302600  35.7710760
 110.9923030  15.8048390  32.4409450 111.8413560  16.2418540  32.3749640
 110.6254300  16.1168650  33.2681510 121.6210800  15.1327970  43.9079660
 121.1184400  15.8733370  44.2473470 122.4367460  15.5211970  43.5916450
 119.9132810  20.3761150  37.3541020 118.9722950  20.3911380  37.5288710
 120.2276880  19.5897110  37.8001320 109.8914450  22.0580750  30.9144980
 110.6577720  21.9462110  31.4770410 109.9689140  21.3618720  30.2621750
 108.5861210  19.4905820  31.5977870 108.6664800  18.5433330  31.7095270
 109.4780960  19.8212700  31.7038530 121.9158390  27.5470000  39.0295280
 122.0405810  28.3701170  39.5019090 122.7823950  27.3360730  38.6819430
 109.3875920  29.6401210  38.7012410 110.1238400  29.0916670  38.9720980
 109.7716840  30.5057220  38.5618400 106.2721400  25.7074780  34.5753920
 105.3461180  25.9495920  34.5659330 106.7377830  26.5349040  34.4538670
 108.3934200  28.8247280  47.8897990 109.1946930  29.1459330  48.3033390
 107.8786020  28.4642860  48.6117900 112.4978230  28.8131520  30.5237980
 113.2906840  29.1020350  30.0719770 111.9782580  28.3823690  29.8450460
 117.2298830  24.9327150  47.8373400 116.6236990  24.9558750  47.0969150
 116.9252940  24.2010190  48.3740650 118.6599200  28.6607440  46.4482810
 119.6120950  28.5765460  46.3983050 118.5127420  29.3249150  47.1216600
 121.5508400  28.0401650  31.9474720 121.2649910  27.6266790  31.1328900
 121.3527950  28.9689360  31.8275240 106.1132010  21.3120740  46.8334040
 106.6171030  20.7328020  47.4050270 105.3739430  21.5960970  47.3710410
 113.0155630  24.0334930  30.3880330 112.9106270  23.4187280  31.1141710
 112.8479850  23.5100820  29.6043340 113.1669950  22.7191730  46.3669560
 112.4015620  23.2876730  46.2824230 113.3485910  22.4267940  45.4737790
 116.2558360  23.0954960  30.9922320 115.7068460  23.5424260  31.6365060
 116.8777620  22.5904210  31.5159990 120.3093300  24.4497060  46.9244580
 121.0502770  24.7872820  46.4212040 119.5465980  24.6189120  46.3714350
 108.1455090  19.4550330  47.7284110 108.1860430  19.1564200  48.6369340
 109.0000590  19.8557940  47.5691630 111.9233480  22.0545880  32.8887620
 112.3449900  21.8885750  33.7319010 112.0484320  21.2446110  32.3942760
 110.0860900  18.0342430  45.6958600 109.5557360  17.5433380  45.0681940
 110.7548970  18.4626630  45.1616530 114.4361120  21.0783490  30.1364720
 114.9566780  20.3632510  29.7705870 115.0829520  21.7169360  30.4365230
 118.9838960  22.5011890  45.4599790 119.3979980  22.6556970  46.3090210
 118.0489960  22.6267110  45.6225570 119.4561130  19.8408050  47.4638940
 120.0381900  19.0860370  47.3759420 119.6322900  20.3715490  46.6870420
 110.5733200  15.0004800  45.7755890 110.4790070  14.3825550  45.0506760
 109.9930590  15.7271090  45.5485800 113.3394640  13.5578040  42.8083280
 112.8911940  13.5802300  41.9628830 112.7059840  13.1597060  43.4053580
 113.7454190  22.4532370  43.4295720 114.1642300  23.2965100  43.2571960
 112.8262820  22.5904410  43.2002500 116.0818090  20.1848550  44.8133560
 116.2014300  19.5889690  45.5528400 116.9412090  20.2218240  44.3934860
 118.4205990  20.7385740  43.3896070 117.8941210  21.2628360  42.7861210
 118.7637330  21.3713130  44.0205800 110.8192380  18.1279110  29.8345780
 110.6181440  17.2646470  30.1959120 110.6484430  18.0412470  28.8967380
 111.5961610  28.7585380  44.5453450 111.0582700  29.4831440  44.2262150
 111.8495570  28.2815720  43.7550790 112.8486860  16.7269900  46.0709380
 113.4386550  16.4185750  46.7587200 112.0307100  16.2549650  46.2269280
 117.6680290  16.3435710  46.3042400 116.9795810  15.6817250  46.2392390
 118.3886310  15.8973980  46.7490860 118.2980690  12.9387340  32.3632660
 118.5782980  12.0955240  32.7192080 117.5246420  13.1710450  32.8771410
 109.6175180  15.2279730  29.8223660 109.9201080  15.2347160  28.9142810
 110.3569770  14.8777590  30.3191320 114.4523820  29.9936590  44.8040100
 114.3782520  30.8971730  45.1112470 113.5502660  29.6748490  44.7762170
 112.8360110  14.1714350  30.8079860 112.4882110  13.4938340  30.2282310
 113.0372880  13.7103860  31.6223250 115.0009150  29.1595100  32.4266460
 115.8959940  29.4980070  32.4485220 115.0326780  28.4374510  31.7990740
 108.6405310  24.5322150  30.6553460 109.0780180  25.0751820  31.3111040
 109.1253040  23.7069100  30.6649800 105.8551110  27.3211180  38.1073720
 106.1854120  26.4532240  37.8752360 106.2842110  27.5269700  38.9378680
 110.4513030  25.6520190  35.7675690 110.1508570  25.5285160  36.6679600
 110.3450520  24.7928780  35.3591420 106.3441320  28.1881770  40.8455350
 105.9072310  28.3682570  41.6779500 106.9119000  28.9456390  40.7037070
 121.9803500  27.6898770  45.1332660 121.3805490  27.7491330  44.3896580
 122.1097400  26.7503750  45.2629510 123.2204950  25.4316590  30.4702370
 122.3897910  25.4993240  30.9409600 123.3976780  26.3220710  30.1669230
 122.6761410  22.1764070  32.9736570 123.4380320  22.7460720  33.0796260
 122.6915780  21.6091270  33.7444880 106.1765750  20.7002000  37.2044230
 105.5214590  20.4313640  36.5603930 107.0143700  20.5906480  36.7546210
 123.6821380  23.0314170  37.8178500 124.0530210  22.2481490  37.4114470
 124.3223310  23.7203270  37.6395800 120.6655140  24.4150750  43.2308820
 119.8514980  24.8447910  43.4934610 121.0729340  25.0269160  42.6177870
 122.7280580  22.4698440  30.1309090 123.0029420  23.3777320  30.0028310
 122.5391320  22.4060970  31.0671080 119.1256190  15.4943290  31.4262720
 119.5441070  15.3074270  30.5859380 118.8192250  14.6422340  31.7365650
 122.6245920  20.4067430  35.1238520 122.2489520  19.6395360  34.6919810
 121.8949040  20.7890130  35.6113450 107.2141680  21.0854570  41.7447570
 107.5814720  20.9981970  42.6243590 106.6452500  20.3221120  41.6454430
 122.0145540  19.5538950  44.7578040 121.7831630  19.3251700  43.8575990
 122.2750090  20.4738500  44.7122930 106.7657680  17.9963660  45.6505990
 105.8713730  17.9630420  45.9899700 107.3055230  18.1950450  46.4157240
 120.4533610  14.7795380  47.5357740 121.3303790  14.7878780  47.9191740
 120.4654450  14.0426220  46.9250090 105.3903830  17.9100930  33.1469560
 104.4867910  18.1731130  32.9721220 105.8744450  18.1812100  32.3669520
 121.8996880  18.6324920  38.4245760 122.4234360  18.1387570  37.7935930
 122.4856300  18.7675280  39.1693330 122.0786600  18.7164790  41.9465310
 121.1289310  18.6828330  42.0610300 122.2599610  19.6264900  41.7115080
 107.9331040  16.9666470  31.0563940 108.6422740  16.5449690  30.5711220
 107.2170980  17.0341700  30.4247290 107.5805200  13.0205800  30.0966590
 108.3033330  13.5614740  30.4147810 107.8529720  12.7469220  29.2208130
 121.3896850  17.8898270  34.3638170 121.8855970  17.6569140  35.1487050
 121.1912920  17.0510110  33.9475810 107.2697390  12.2711990  39.9989210
 107.9173580  11.7209370  39.5584370 107.6899230  12.5255140  40.8205020
 122.8184010  16.5259220  36.8975850 122.7083290  16.3715260  37.8358120
 123.5791600  15.9980160  36.6551260 121.1649730  12.4653350  43.3558850
 121.8021950  13.0787490  43.7218040 121.3124620  12.5014010  42.4108080
 123.7074280  14.3567140  30.1381990 124.6323590  14.2248320  29.9300280
 123.6850070  14.4359960  31.0918440 123.7812770  15.1277800  32.7638700
 122.9864270  15.0622920  33.2931610 123.9856050  16.0628440  32.7524050
 120.7231190  29.1669350  36.7577090 121.3190260  28.8453920  36.0811510
 120.9809340  28.6941170  37.5490360 107.0229390  12.4267660  42.7414530
 106.6744210  12.8831480  43.5072710 106.6917090  11.5324790  42.8236960
 108.6293760  25.5987260  46.9067720 108.5863390  25.2280170  47.7882180
 108.7604770  26.5364830  47.0469540 112.3299790  27.1546850  42.5077440
 112.0891150  27.4221410  41.6207960 113.2702430  27.3252580  42.5628300
 114.5354210  13.6179540  46.2633950 114.4743100  14.2101370  47.0129360
 115.4754590  13.5105500  46.1184210 117.1728770  13.2749600  45.9026240
 117.7869180  13.5928890  45.2407320 117.7178330  12.7898190  46.5222100
 123.5903950  29.1741230  43.3088080 123.0962230  29.5710100  42.5915210
 122.9817240  28.5490440  43.7025360 107.6950030  11.9543860  46.0165300
 108.2433020  11.7731910  45.2531410 107.7605340  11.1637970  46.5521610
 108.4681790  28.5449510  44.0265500 107.8742110  28.4134210  44.7655540
 108.4605630  27.7087650  43.5607600 117.9136810  11.8381740  42.2295530
 117.0396650  12.1716850  42.0268460 117.8047560  11.3654920  43.0547400
 118.8208790  14.0452610  43.6137250 118.4922150  13.2304370  43.2338980
 119.7691090  14.0022420  43.4902940 121.2743400  29.8164650  40.5874820
 120.8146370  30.5680460  40.2132840 120.6455860  29.0971120  40.5289620
 108.0994020  25.9107890  42.9773540 107.3728080  25.2913180  42.9099490
 108.1603170  26.3048500  42.1071620 111.7039120  28.1252890  39.7622950
 112.2204140  27.5140250  39.2371210 112.3536500  28.6281670  40.2533960
 114.4434620  29.0161380  40.5891930 114.7312430  28.7615680  39.7124940
 114.9557840  28.4638740  41.1797500 115.6611630  12.7551580  41.1688440
 114.8783420  13.2297080  41.4485200 115.3674560  11.8506410  41.0601620
 120.2132700  13.4574680  39.2137530 120.6540790  13.4019780  38.3659130
 119.9440290  14.3732690  39.2847710 122.0771270  13.0889920  37.2246350
 122.0159670  12.1451140  37.0777370 122.8563300  13.1970010  37.7699810
 106.3824020  29.2282280  36.1870300 106.2146060  28.5952960  36.8852190
 105.5158530  29.4341680  35.8364490 107.0052040  13.0599060  33.6902160
 107.7631400  13.1727940  33.1166190 106.5429210  13.8968260  33.6445590
 113.5465850  15.1738330  36.6804470 112.7340360  14.7995220  36.3400350
 114.0507490  14.4183410  36.9825660 118.0490830  11.8380780  37.9187540
 118.6520200  12.4100990  38.3936060 117.3083820  12.4020220  37.6961440
 121.1925430  12.2402340  33.1927820 121.3876060  13.1385790  33.4595250
 120.4055300  12.0089420  33.6860770 107.9886720  27.9215510  33.6320440
 107.4634340  28.3023540  32.9282400 107.9131300  28.5466280  34.3530150
 109.3777190  13.5863110  32.2304130 109.9069950  12.7992910  32.1012080
 110.0105510  14.2654300  32.4639660 111.5715030  13.3238250  35.2849520
 110.9417770  12.6225560  35.4519650 111.0320170  14.0842380  35.0682680
 114.5106980  29.9377480  47.9560130 115.4374290  29.7021750  47.9996090
 114.4957410  30.7649480  47.4746160 122.7452040  29.4803050  34.9534380
 122.9204230  28.7940790  34.3095300 122.0473610  30.0050100  34.5611050
 111.6970590  12.6022230  47.7202010 111.4154860  13.1055830  46.9562830
 112.0790290  11.8043980  47.3544140 110.5879690  29.8697890  32.5069690
 111.3198510  29.5857170  31.9593580 110.8473360  29.6311170  33.3969070
 109.7494480  25.9862620  32.5116020 109.1203360  26.4547720  33.0601850
 109.8642310  25.1411840  32.9462210 118.2986050  12.0175810  48.2982480
 118.1851500  12.3370420  49.1934000 119.1155790  12.4188320  48.0019760
 121.0784540  29.1647340  47.7801170 121.8709860  28.6696570  47.5727130
 121.3717690  29.8437480  48.3876780 117.2044200  20.0368280  18.6617220
 117.1238250  19.1222890  18.3908930 116.7908620  20.5335350  17.9556930
 115.3362240  21.8147300  20.5426490 114.5604340  21.3347740  20.8325060
 115.9875170  21.1352950  20.3682650 109.3528070  22.1267110  21.4202250
 108.5212950  21.8715820  21.8198760 109.9609050  22.1977880  22.1560170
 119.3569670  26.2207490  19.3225620 118.8951200  25.4494730  19.6512790
 120.1695220  26.2473560  19.8278070 109.3329330  26.1607200  21.6160270
 109.6357370  25.2704940  21.4370490 110.0772920  26.7177420  21.3882520
 107.7620020  17.0869000  15.2044640 106.8736720  17.4284970  15.1024520
 108.0461210  16.8869320  14.3125470 105.7253030  19.6874650  21.0884340
 106.2969140  18.9196850  21.0887980 105.7254570  19.9863410  20.1790950
 115.5832980  28.5065500  18.9429610 114.9644420  28.9623000  18.3724050
 116.4384760  28.6616960  18.5419310 114.7771230  24.4904490  20.5496650
 114.7079510  23.5494430  20.3885780 115.5391090  24.5805900  21.1219220
 106.9677900  15.0959010  22.8753270 106.7880740  14.1984760  23.1556030
 106.5657980  15.6430880  23.5500220 115.8076400  17.2974870  20.7765580
 116.1841220  16.4246750  20.6639250 115.7095910  17.6333570  19.8856020
 109.9381410  15.6700500  16.2383020 110.0448160  16.5704230  16.5451780
 109.0273770  15.6218470  15.9477670 119.5900520  14.7925310  17.7093920
 120.4110140  14.3021880  17.7519400 119.6234600  15.3822970  18.4625760
 107.5864570  17.5919510  21.4835610 108.2674680  17.8557880  22.1023010
 107.2712620  16.7520380  21.8173620 111.7789140  18.6386870  20.5708200
 112.2867360  19.1367840  21.2113220 112.3102380  17.8622070  20.3947560
 123.8800070  16.8092060  24.2737550 123.1752240  17.1973770  23.7552660
 124.1457990  17.5042350  24.8758480 110.0625240  13.2785430  24.8371620
 110.0643680  13.7957820  24.0317520 109.2329550  12.8015610  24.8141550
 116.4496330  23.3904740  16.3361520 115.8313600  23.8554190  15.7724240
 116.9619580  24.0832220  16.7531030 111.3128090  22.9180610  23.0145120
 110.9797470  23.5449530  23.6566190 111.4894770  23.4442490  22.2346790
 119.8262000  16.7325690  20.4821460 119.1217570  17.0210580  21.0624570
 120.1874160  17.5425800  20.1221020 109.7440570  14.9895390  22.8442070
 110.0857380  15.8337440  22.5495940 108.8056380  15.1379130  22.9607410
 110.5247190  24.8861410  24.8294300 111.1421190  25.5612490  24.5478750
 109.6640310  25.2949390  24.7381800 105.8179530  24.0761270  13.7101150
 105.4407510  24.5648370  12.9786050 106.0752600  24.7486550  14.3407680
 121.4424780  26.3500820  22.7448940 120.7588300  27.0199930  22.7365610
 121.9819070  26.5481470  21.9793800 122.8948920  16.1780480  20.8730670
 121.9473830  16.2119460  21.0046100 123.2198910  16.9919430  21.2580030
 113.4268460  12.4777660  19.1686660 113.7343440  11.9224550  18.4522160
 112.4969160  12.6122120  18.9859650 118.9783520  28.1944950  21.4594120
 118.9910680  27.7907240  20.5916380 118.4258740  28.9692240  21.3555550
 120.2728940  24.9161170  16.5484290 120.1625270  23.9735500  16.6733710
 120.2697190  25.2776810  17.4347050 118.3768960  23.0974790  22.7876730
 118.7937750  22.8834900  21.9530190 119.1008780  23.3547580  23.3585350
 115.8149220  20.5426490  15.9046780 114.8878500  20.4763870  16.1335250
 115.9674040  21.4806620  15.7902020 115.8018300  16.8143490  12.9013940
 114.8621970  16.9757450  12.9866400 116.1201560  17.5329170  12.3549930
 122.3231060  21.4962010  22.8792970 121.4949690  21.5655100  22.4043100
 122.9181540  22.0816320  22.4108800 119.8446510  22.1046790  16.4082030
 119.2258930  21.7666340  15.7608330 119.8270960  21.4606550  17.1161220
 119.2873070  18.2831330  23.8247840 118.8744250  19.1085040  24.0787830
 118.5549020  17.6976370  23.6324200 111.4205860  21.0691230  18.6866510
 111.0162860  20.3568480  18.1912410 111.5068980  20.7244470  19.5754550
 111.8887560  24.7558790  20.8505720 111.5915850  24.1504260  20.1713500
 112.8387380  24.7936100  20.7395080 110.1334480  17.8434440  22.4665550
 110.6849070  17.9529780  21.6918800 110.6477990  18.2172040  23.1820780
 119.9773170  28.3290660  24.5128820 119.5003730  29.1362850  24.3201430
 119.2934960  27.6768990  24.6655030 110.9805990  24.4940480  27.5013520
 110.0834520  24.7180450  27.7486920 111.0058860  24.6175420  26.5524920
 118.0211210  21.3433600  13.4154780 118.4604490  20.5056030  13.2692600
 118.7339630  21.9763000  13.5018920 109.8077210  21.3653800  26.0770890
 109.6684980  22.2376600  26.4458290 108.9258570  21.0226610  25.9318830
 116.1306590  26.2829670  17.3836020 116.5702500  27.0254000  16.9691410
 116.0693480  26.5256240  18.3074980 111.6057560  27.3075500  28.2856040
 111.5772990  27.7118450  27.4184470 111.4422530  26.3785860  28.1227640
 121.6028350  12.5976410  11.7295820 121.2901010  12.6903240  12.6294890
 122.3640820  13.1757440  11.6793250 108.1210490  19.9636210  16.1873160
 108.0008090  20.6898300  15.5754430 107.8111380  19.1939120  15.7101070
 123.5572380  28.0902600  29.5820210 124.0332100  28.5685490  30.2609290
 124.1779540  28.0220090  28.8565710 105.7595860  23.1351350  21.9941800
 105.8376280  23.2700120  21.0497520 106.3737540  22.4267240  22.1869920
 107.0043490  24.8351540  18.4047980 106.5971570  24.9766130  17.5501580
 107.8956500  24.5511700  18.2019190 122.9605630  25.2815450  26.7420220
 123.0868690  25.0427330  25.8237400 123.0027010  24.4499990  27.2142300
 116.8222370  28.9843450  25.3115030 117.3367040  28.8951460  26.1137460
 115.9791450  29.3303150  25.6042940 118.7976770  29.2698790  14.7399030
 118.6377910  28.9801730  15.6380860 118.6323480  28.4938920  14.2044260
 111.2765150  29.0497320  16.5170650 111.1007630  28.1332860  16.3038450
 110.4220890  29.4084610  16.7568450 118.5002900  26.7786350  13.2997030
 117.8068060  26.7763640  12.6399310 119.2425760  26.3545670  12.8691200
 118.0652830  28.4049060  17.3745520 118.5209780  27.6238440  17.6884140
 118.4045350  29.1155880  17.9186700 122.8129640  17.3347910  27.7069960
 122.1973910  17.8427580  27.1785420 122.4926060  16.4346240  27.6495900
 105.8155380  24.1765520  24.5336260 105.9786420  23.7070880  23.7155630
 106.2807830  23.6689080  25.1985100 110.5874150  13.3071280  19.5696830
 110.1442300  14.0880820  19.2381350 111.1459140  13.6301170  20.2767770
 114.8743960  16.1739800  25.1732150 114.4123330  16.3822820  25.9852090
 114.4722070  15.3599150  24.8702820 119.8748470  17.3948750  26.3028810
 119.0242060  17.0954500  26.6237880 119.7150260  17.6390760  25.3912630
 116.9698180  18.8950500  28.4027600 117.2951590  18.0614250  28.0629830
 117.7578510  19.4179020  28.5505930 113.7032970  12.9281980  14.4502660
 113.0787150  12.9241850  15.1755970 113.6163090  12.0612940  14.0538630
 112.6250050  13.8518610  21.4286430 112.9222380  14.7581440  21.3478450
 113.1735610  13.3637390  20.8146000 110.3788370  18.4304850  17.2978080
 110.1529290  18.2142020  18.2024700 109.5980900  18.8633310  16.9524050
 117.6086130  18.4368220  15.8968730 117.0095020  19.1604020  15.7132350
 118.1565740  18.3745000  15.1145180 112.8187580  19.3290430  27.9638350
 112.7231180  18.3885160  27.8138750 113.6619560  19.5505500  27.5686420
 116.2151000  17.0731760  17.9272010 116.6080570  17.3903960  17.1140700
 116.5767850  16.1943640  18.0416530 107.9498120  15.7404100  26.1172130
 107.5561510  16.5879310  26.3244910 107.2616520  15.1030470  26.3080770
 114.5243170  15.8239070  29.1868870 113.8341490  15.6311270  29.8214960
 115.2675470  16.1073710  29.7193170 105.2515170  13.6632560  20.1502210
 104.9628220  14.2335420  20.8627190 105.9960930  13.1837010  20.5133440
 105.4385400  17.6052680  11.3604930 105.3560070  18.5483440  11.5019920
 105.0868460  17.4627590  10.4817280 116.8006140  19.6637510  22.0222790
 116.0687260  20.1724320  22.3712890 116.4030480  18.8467490  21.7211570
 113.2383530  16.3391710  20.4275280 113.2419590  15.8981660  19.5779820
 114.1334650  16.6609040  20.5347100 109.0885910  16.2218200  19.3869490
 108.7485960  16.6993430  20.1436540 108.3263230  15.7683320  19.0270590
 113.3003680  17.3403790  13.4182040 113.4216500  17.2990270  14.3667860
 112.9152190  18.2027940  13.2628770 117.2632050  15.1171190  21.4345730
 117.2804790  15.5679840  22.2787580 117.0147630  14.2176830  21.6479170
 112.3125180  19.6504930  12.8165340 111.7442080  19.2023180  12.1901250
 113.0214180  20.0097710  12.2830490 120.6902800  12.5303370  27.2732110
 121.0148570  11.7993030  27.7990090 120.7259310  12.2117010  26.3713100
 107.3894360  23.5516950  26.6932070 107.0049150  22.9110620  27.2915030
 107.7006550  24.2553070  27.2626800 113.5391500  20.3993490  22.1740690
 113.9061630  19.9252060  22.9202030 113.3496560  21.2735060  22.5149030
 106.4031990  15.1437180  18.3034160 106.1178910  14.7792850  19.1412780
 106.3410850  14.4117640  17.6897300 111.3290870  19.4402130  24.4924900
 111.0247940  20.3194110  24.7175260 112.2837330  19.5001920  24.5282340
 109.8572660  23.6463120  15.0891750 109.0834920  23.1060740  14.9290470
 110.5867290  23.1269730  14.7509510 120.6160640  22.6428480  20.8818140
 121.3359760  23.1383770  20.4914250 120.4142460  21.9646370  20.2372010
 116.0770580  14.0366440  15.0247530 115.2635190  13.5379610  14.9492840
 115.8832530  14.8764690  14.6083880 115.9979440  22.7137540  26.7687140
 115.9316750  21.7933210  26.5144730 115.3684580  22.8112980  27.4831780
 118.7918970  18.4086090  13.3209690 119.6798590  18.7203320  13.1461030
 118.7624060  17.5358340  12.9290270 109.9010060  23.3143500  18.7270560
 110.4188730  22.5111760  18.6727450 109.4494080  23.2522640  19.5687390
 114.7879560  24.5809780  13.9997860 115.1295260  25.3252010  13.5041180
 113.9592270  24.8940900  14.3622690 107.3854600  20.2804870  25.6396260
 107.0269540  20.9458720  26.2269600 107.0909160  19.4488420  26.0108880
 110.5867720  20.7389110  28.5235810 110.2867860  20.8846290  27.6263630
 111.3578960  20.1794400  28.4309200 115.9296170  25.5358110  26.5190940
 115.9440710  24.6039070  26.3009850 115.2221270  25.6217870  27.1580710
 121.0633240  19.7197930  12.7889550 120.9796960  20.1512150  11.9385990
 121.7827430  20.1796280  13.2216370 122.1407380  22.1765450  25.8659520
 121.4155570  22.7694230  25.6688910 122.6682840  22.1688990  25.0672890
 122.0920490  26.5740190  15.5171680 121.4496650  25.9195810  15.7915400
 121.7051150  26.9795280  14.7412350 117.6706970  23.9025620  19.3643370
 118.0230790  23.3053750  18.7044740 116.7869300  23.5769850  19.5351620
 113.7570250  24.6623310  16.7713780 114.4441380  25.2092520  17.1521370
 112.9702670  25.2064040  16.8063390 105.8962650  20.2796130  12.2630860
 106.7657500  20.5620930  12.5466780 105.4052970  21.0932000  12.1479670
 113.0597460  21.6669340  16.3839140 113.5160240  22.4774590  16.6099330
 112.7085670  21.3492480  17.2157630 115.3630070  27.1775680  23.6131440
 116.0072290  27.3835060  24.2904860 115.7259510  26.4164080  23.1602290
 108.9609240  12.0106990  16.8561660 108.8323870  12.0024890  17.8046580
 108.1371260  12.3490080  16.5052670 116.6362150  25.1808030  22.3308890
 117.2784380  24.4801190  22.4441060 117.1611500  25.9606470  22.1505780
 120.4817870  25.4656650  12.0548030 120.2555450  24.7487090  12.6472670
 120.0914070  25.2169090  11.2169780 118.4099770  25.9802930  25.5344950
 118.7456010  26.5669620  26.2122870 117.4900110  25.8495640  25.7642740
 106.2633900  29.4923510  12.8292490 106.6231540  30.0912850  12.1749760
 106.1226240  30.0383400  13.6027520 105.9603170  13.7698110  26.3168360
 105.2461690  13.9695030  26.9220970 106.3798210  12.9937680  26.6883160
 120.0634120  23.3828590  13.7162190 119.7755820  23.8441280  14.5040070
 120.8586290  22.9226360  13.9846410 106.2475760  27.7578370  27.3034890
 106.3566880  26.8173110  27.1630280 105.5956320  28.0233120  26.6548620
 114.2388350  26.0294260  28.7033010 113.9185220  25.3103500  29.2478700
 113.5646710  26.7049330  28.7769070 112.2802520  26.8754710  13.6466160
 112.2712620  27.6084400  13.0310670 111.3600880  26.6286290  13.7393120
 107.8809160  22.0969600  14.3912920 107.2737110  22.8368500  14.4008220
 108.3558510  22.1868960  13.5651120 117.4541950  16.2620420  24.0669810
 117.8222770  15.4415630  24.3949380 116.5940150  16.3222310  24.4825460
 120.8203980  15.2177360  14.8757370 120.1917140  15.3223030  14.1615600
 120.3255900  15.4374140  15.6651250 115.2662120  26.9382950  12.3091350
 115.3674100  26.7346940  11.3793330 114.3663860  26.6841230  12.5139130
 112.7888010  17.4963310  16.2915250 112.0804160  17.9649650  16.7328860
 113.0732490  16.8385320  16.9260440 114.4143940  18.9160010  24.2907780
 114.9129190  19.3905830  24.9559630 114.5566890  17.9923530  24.4977810
 116.8203440  14.2213970  17.7311040 116.6971220  14.2400100  16.7820550
 117.7688000  14.2692910  17.8509440 113.9080230  29.4569270  17.0039020
 114.1621730  29.4190660  16.0818390 112.9592710  29.3302600  16.9967270
 110.9923030  15.8048390  13.6665960 111.8413560  16.2418540  13.6006150
 110.6254300  16.1168650  14.4938020 121.6210800  15.1327970  25.1336170
 121.1184400  15.8733370  25.4729980 122.4367460  15.5211970  24.8172960
 119.9132810  20.3761150  18.5797530 118.9722950  20.3911380  18.7545220
 120.2276880  19.5897110  19.0257830 109.8914450  22.0580750  12.1401490
 110.6577720  21.9462110  12.7026920 109.9689140  21.3618720  11.4878260
 108.5861210  19.4905820  12.8234380 108.6664800  18.5433330  12.9351780
 109.4780960  19.8212700  12.9295040 121.9158390  27.5470000  20.2551790
 122.0405810  28.3701170  20.7275600 122.7823950  27.3360730  19.9075940
 109.3875920  29.6401210  19.9268920 110.1238400  29.0916670  20.1977490
 109.7716840  30.5057220  19.7874910 106.2721400  25.7074780  15.8010430
 105.3461180  25.9495920  15.7915840 106.7377830  26.5349040  15.6795180
 108.3934200  28.8247280  29.1154500 109.1946930  29.1459330  29.5289900
 107.8786020  28.4642860  29.8374410 112.4978230  28.8131520  11.7494490
 113.2906840  29.1020350  11.2976280 111.9782580  28.3823690  11.0706970
 117.2298830  24.9327150  29.0629910 116.6236990  24.9558750  28.3225660
 116.9252940  24.2010190  29.5997160 118.6599200  28.6607440  27.6739320
 119.6120950  28.5765460  27.6239560 118.5127420  29.3249150  28.3473110
 121.5508400  28.0401650  13.1731230 121.2649910  27.6266790  12.3585410
 121.3527950  28.9689360  13.0531750 106.1132010  21.3120740  28.0590550
 106.6171030  20.7328020  28.6306780 105.3739430  21.5960970  28.5966920
 113.0155630  24.0334930  11.6136840 112.9106270  23.4187280  12.3398220
 112.8479850  23.5100820  10.8299850 113.1669950  22.7191730  27.5926070
 112.4015620  23.2876730  27.5080740 113.3485910  22.4267940  26.6994300
 116.2558360  23.0954960  12.2178830 115.7068460  23.5424260  12.8621570
 116.8777620  22.5904210  12.7416500 120.3093300  24.4497060  28.1501090
 121.0502770  24.7872820  27.6468550 119.5465980  24.6189120  27.5970860
 108.1455090  19.4550330  28.9540620 108.1860430  19.1564200  29.8625850
 109.0000590  19.8557940  28.7948140 111.9233480  22.0545880  14.1144130
 112.3449900  21.8885750  14.9575520 112.0484320  21.2446110  13.6199270
 110.0860900  18.0342430  26.9215110 109.5557360  17.5433380  26.2938450
 110.7548970  18.4626630  26.3873040 114.4361120  21.0783490  11.3621230
 114.9566780  20.3632510  10.9962380 115.0829520  21.7169360  11.6621740
 118.9838960  22.5011890  26.6856300 119.3979980  22.6556970  27.5346720
 118.0489960  22.6267110  26.8482080 119.4561130  19.8408050  28.6895450
 120.0381900  19.0860370  28.6015930 119.6322900  20.3715490  27.9126930
 110.5733200  15.0004800  27.0012400 110.4790070  14.3825550  26.2763270
 109.9930590  15.7271090  26.7742310 113.3394640  13.5578040  24.0339790
 112.8911940  13.5802300  23.1885340 112.7059840  13.1597060  24.6310090
 113.7454190  22.4532370  24.6552230 114.1642300  23.2965100  24.4828470
 112.8262820  22.5904410  24.4259010 116.0818090  20.1848550  26.0390070
 116.2014300  19.5889690  26.7784910 116.9412090  20.2218240  25.6191370
 118.4205990  20.7385740  24.6152580 117.8941210  21.2628360  24.0117720
 118.7637330  21.3713130  25.2462310 110.8192380  18.1279110  11.0602290
 110.6181440  17.2646470  11.4215630 110.6484430  18.0412470  10.1223890
 111.5961610  28.7585380  25.7709960 111.0582700  29.4831440  25.4518660
 111.8495570  28.2815720  24.9807300 112.8486860  16.7269900  27.2965890
 113.4386550  16.4185750  27.9843710 112.0307100  16.2549650  27.4525790
 117.6680290  16.3435710  27.5298910 116.9795810  15.6817250  27.4648900
 118.3886310  15.8973980  27.9747370 118.2980690  12.9387340  13.5889170
 118.5782980  12.0955240  13.9448590 117.5246420  13.1710450  14.1027920
 109.6175180  15.2279730  11.0480170 109.9201080  15.2347160  10.1399320
 110.3569770  14.8777590  11.5447830 114.4523820  29.9936590  26.0296610
 114.3782520  30.8971730  26.3368980 113.5502660  29.6748490  26.0018680
 112.8360110  14.1714350  12.0336370 112.4882110  13.4938340  11.4538820
 113.0372880  13.7103860  12.8479760 115.0009150  29.1595100  13.6522970
 115.8959940  29.4980070  13.6741730 115.0326780  28.4374510  13.0247250
 108.6405310  24.5322150  11.8809970 109.0780180  25.0751820  12.5367550
 109.1253040  23.7069100  11.8906310 105.8551110  27.3211180  19.3330230
 106.1854120  26.4532240  19.1008870 106.2842110  27.5269700  20.1635190
 110.4513030  25.6520190  16.9932200 110.1508570  25.5285160  17.8936110
 110.3450520  24.7928780  16.5847930 106.3441320  28.1881770  22.0711860
 105.9072310  28.3682570  22.9036010 106.9119000  28.9456390  21.9293580
 121.9803500  27.6898770  26.3589170 121.3805490  27.7491330  25.6153090
 122.1097400  26.7503750  26.4886020 123.2204950  25.4316590  11.6958880
 122.3897910  25.4993240  12.1666110 123.3976780  26.3220710  11.3925740
 122.6761410  22.1764070  14.1993080 123.4380320  22.7460720  14.3052770
 122.6915780  21.6091270  14.9701390 106.1765750  20.7002000  18.4300740
 105.5214590  20.4313640  17.7860440 107.0143700  20.5906480  17.9802720
 123.6821380  23.0314170  19.0435010 124.0530210  22.2481490  18.6370980
 124.3223310  23.7203270  18.8652310 120.6655140  24.4150750  24.4565330
 119.8514980  24.8447910  24.7191120 121.0729340  25.0269160  23.8434380
 122.7280580  22.4698440  11.3565600 123.0029420  23.3777320  11.2284820
 122.5391320  22.4060970  12.2927590 119.1256190  15.4943290  12.6519230
 119.5441070  15.3074270  11.8115890 118.8192250  14.6422340  12.9622160
 122.6245920  20.4067430  16.3495030 122.2489520  19.6395360  15.9176320
 121.8949040  20.7890130  16.8369960 107.2141680  21.0854570  22.9704080
 107.5814720  20.9981970  23.8500100 106.6452500  20.3221120  22.8710940
 122.0145540  19.5538950  25.9834550 121.7831630  19.3251700  25.0832500
 122.2750090  20.4738500  25.9379440 106.7657680  17.9963660  26.8762500
 105.8713730  17.9630420  27.2156210 107.3055230  18.1950450  27.6413750
 120.4533610  14.7795380  28.7614250 121.3303790  14.7878780  29.1448250
 120.4654450  14.0426220  28.1506600 105.3903830  17.9100930  14.3726070
 104.4867910  18.1731130  14.1977730 105.8744450  18.1812100  13.5926030
 121.8996880  18.6324920  19.6502270 122.4234360  18.1387570  19.0192440
 122.4856300  18.7675280  20.3949840 122.0786600  18.7164790  23.1721820
 121.1289310  18.6828330  23.2866810 122.2599610  19.6264900  22.9371590
 107.9331040  16.9666470  12.2820450 108.6422740  16.5449690  11.7967730
 107.2170980  17.0341700  11.6503800 107.5805200  13.0205800  11.3223100
 108.3033330  13.5614740  11.6404320 107.8529720  12.7469220  10.4464640
 121.3896850  17.8898270  15.5894680 121.8855970  17.6569140  16.3743560
 121.1912920  17.0510110  15.1732320 107.2697390  12.2711990  21.2245720
 107.9173580  11.7209370  20.7840880 107.6899230  12.5255140  22.0461530
 122.8184010  16.5259220  18.1232360 122.7083290  16.3715260  19.0614630
 123.5791600  15.9980160  17.8807770 121.1649730  12.4653350  24.5815360
 121.8021950  13.0787490  24.9474550 121.3124620  12.5014010  23.6364590
 123.7074280  14.3567140  11.3638500 124.6323590  14.2248320  11.1556790
 123.6850070  14.4359960  12.3174950 123.7812770  15.1277800  13.9895210
 122.9864270  15.0622920  14.5188120 123.9856050  16.0628440  13.9780560
 120.7231190  29.1669350  17.9833600 121.3190260  28.8453920  17.3068020
 120.9809340  28.6941170  18.7746870 107.0229390  12.4267660  23.9671040
 106.6744210  12.8831480  24.7329220 106.6917090  11.5324790  24.0493470
 108.6293760  25.5987260  28.1324230 108.5863390  25.2280170  29.0138690
 108.7604770  26.5364830  28.2726050 112.3299790  27.1546850  23.7333950
 112.0891150  27.4221410  22.8464470 113.2702430  27.3252580  23.7884810
 114.5354210  13.6179540  27.4890460 114.4743100  14.2101370  28.2385870
 115.4754590  13.5105500  27.3440720 117.1728770  13.2749600  27.1282750
 117.7869180  13.5928890  26.4663830 117.7178330  12.7898190  27.7478610
 123.5903950  29.1741230  24.5344590 123.0962230  29.5710100  23.8171720
 122.9817240  28.5490440  24.9281870 107.6950030  11.9543860  27.2421810
 108.2433020  11.7731910  26.4787920 107.7605340  11.1637970  27.7778120
 108.4681790  28.5449510  25.2522010 107.8742110  28.4134210  25.9912050
 108.4605630  27.7087650  24.7864110 117.9136810  11.8381740  23.4552040
 117.0396650  12.1716850  23.2524970 117.8047560  11.3654920  24.2803910
 118.8208790  14.0452610  24.8393760 118.4922150  13.2304370  24.4595490
 119.7691090  14.0022420  24.7159450 121.2743400  29.8164650  21.8131330
 120.8146370  30.5680460  21.4389350 120.6455860  29.0971120  21.7546130
 108.0994020  25.9107890  24.2030050 107.3728080  25.2913180  24.1356000
 108.1603170  26.3048500  23.3328130 111.7039120  28.1252890  20.9879460
 112.2204140  27.5140250  20.4627720 112.3536500  28.6281670  21.4790470
 114.4434620  29.0161380  21.8148440 114.7312430  28.7615680  20.9381450
 114.9557840  28.4638740  22.4054010 115.6611630  12.7551580  22.3944950
 114.8783420  13.2297080  22.6741710 115.3674560  11.8506410  22.2858130
 120.2132700  13.4574680  20.4394040 120.6540790  13.4019780  19.5915640
 119.9440290  14.3732690  20.5104220 122.0771270  13.0889920  18.4502860
 122.0159670  12.1451140  18.3033880 122.8563300  13.1970010  18.9956320
 106.3824020  29.2282280  17.4126810 106.2146060  28.5952960  18.1108700
 105.5158530  29.4341680  17.0621000 107.0052040  13.0599060  14.9158670
 107.7631400  13.1727940  14.3422700 106.5429210  13.8968260  14.8702100
 113.5465850  15.1738330  17.9060980 112.7340360  14.7995220  17.5656860
 114.0507490  14.4183410  18.2082170 118.0490830  11.8380780  19.1444050
 118.6520200  12.4100990  19.6192570 117.3083820  12.4020220  18.9217950
 121.1925430  12.2402340  14.4184330 121.3876060  13.1385790  14.6851760
 120.4055300  12.0089420  14.9117280 107.9886720  27.9215510  14.8576950
 107.4634340  28.3023540  14.1538910 107.9131300  28.5466280  15.5786660
 109.3777190  13.5863110  13.4560640 109.9069950  12.7992910  13.3268590
 110.0105510  14.2654300  13.6896170 111.5715030  13.3238250  16.5106030
 110.9417770  12.6225560  16.6776160 111.0320170  14.0842380  16.2939190
 114.5106980  29.9377480  29.1816640 115.4374290  29.7021750  29.2252600
 114.4957410  30.7649480  28.7002670 122.7452040  29.4803050  16.1790890
 122.9204230  28.7940790  15.5351810 122.0473610  30.0050100  15.7867560
 111.6970590  12.6022230  28.9458520 111.4154860  13.1055830  28.1819340
 112.0790290  11.8043980  28.5800650 110.5879690  29.8697890  13.7326200
 111.3198510  29.5857170  13.1850090 110.8473360  29.6311170  14.6225580
 109.7494480  25.9862620  13.7372530 109.1203360  26.4547720  14.2858360
 109.8642310  25.1411840  14.1718720 118.2986050  12.0175810  29.5238990
 118.1851500  12.3370420  30.4190510 119.1155790  12.4188320  29.2276270
 121.0784540  29.1647340  29.0057680 121.8709860  28.6696570  28.7983640
 121.3717690  29.8437480  29.6133290 115.3362240  21.8147300   1.7683000
 114.5604340  21.3347740   2.0581570 115.9875170  21.1352950   1.5939160
 109.3528070  22.1267110   2.6458760 108.5212950  21.8715820   3.0455270
 109.9609050  22.1977880   3.3816680 109.3329330  26.1607200   2.8416780
 109.6357370  25.2704940   2.6627000 110.0772920  26.7177420   2.6139030
 114.7771230  24.4904490   1.7753160 114.7079510  23.5494430   1.6142290
 115.5391090  24.5805900   2.3475730 106.9677900  15.0959010   4.1009780
 106.7880740  14.1984760   4.3812540 106.5657980  15.6430880   4.7756730
 107.5864570  17.5919510   2.7092120 108.2674680  17.8557880   3.3279520
 107.2712620  16.7520380   3.0430130 111.7789140  18.6386870   1.7964710
 112.2867360  19.1367840   2.4369730 112.3102380  17.8622070   1.6204070
 123.8800070  16.8092060   5.4994060 123.1752240  17.1973770   4.9809170
 124.1457990  17.5042350   6.1014990 110.0625240  13.2785430   6.0628130
 110.0643680  13.7957820   5.2574030 109.2329550  12.8015610   6.0398060
 111.3128090  22.9180610   4.2401630 110.9797470  23.5449530   4.8822700
 111.4894770  23.4442490   3.4603300 109.7440570  14.9895390   4.0698580
 110.0857380  15.8337440   3.7752450 108.8056380  15.1379130   4.1863920
 110.5247190  24.8861410   6.0550810 111.1421190  25.5612490   5.7735260
 109.6640310  25.2949390   5.9638310 121.4424780  26.3500820   3.9705450
 120.7588300  27.0199930   3.9622120 121.9819070  26.5481470   3.2050310
 122.8948920  16.1780480   2.0987180 121.9473830  16.2119460   2.2302610
 123.2198910  16.9919430   2.4836540 118.9783520  28.1944950   2.6850630
 118.9910680  27.7907240   1.8172890 118.4258740  28.9692240   2.5812060
 118.3768960  23.0974790   4.0133240 118.7937750  22.8834900   3.1786700
 119.1008780  23.3547580   4.5841860 122.3231060  21.4962010   4.1049480
 121.4949690  21.5655100   3.6299610 122.9181540  22.0816320   3.6365310
 119.2873070  18.2831330   5.0504350 118.8744250  19.1085040   5.3044340
 118.5549020  17.6976370   4.8580710 110.1334480  17.8434440   3.6922060
 110.6849070  17.9529780   2.9175310 110.6477990  18.2172040   4.4077290
 119.9773170  28.3290660   5.7385330 119.5003730  29.1362850   5.5457940
 119.2934960  27.6768990   5.8911540 110.9805990  24.4940480   8.7270030
 110.0834520  24.7180450   8.9743430 111.0058860  24.6175420   7.7781430
 109.8077210  21.3653800   7.3027400 109.6684980  22.2376600   7.6714800
 108.9258570  21.0226610   7.1575340 111.6057560  27.3075500   9.5112550
 111.5772990  27.7118450   8.6440980 111.4422530  26.3785860   9.3484150
 123.5572380  28.0902600  10.8076720 124.0332100  28.5685490  11.4865800
 124.1779540  28.0220090  10.0822220 105.7595860  23.1351350   3.2198310
 105.8376280  23.2700120   2.2754030 106.3737540  22.4267240   3.4126430
 122.9605630  25.2815450   7.9676730 123.0868690  25.0427330   7.0493910
 123.0027010  24.4499990   8.4398810 116.8222370  28.9843450   6.5371540
 117.3367040  28.8951460   7.3393970 115.9791450  29.3303150   6.8299450
 122.8129640  17.3347910   8.9326470 122.1973910  17.8427580   8.4041930
 122.4926060  16.4346240   8.8752410 105.8155380  24.1765520   5.7592770
 105.9786420  23.7070880   4.9412140 106.2807830  23.6689080   6.4241610
 114.8743960  16.1739800   6.3988660 114.4123330  16.3822820   7.2108600
 114.4722070  15.3599150   6.0959330 119.8748470  17.3948750   7.5285320
 119.0242060  17.0954500   7.8494390 119.7150260  17.6390760   6.6169140
 116.9698180  18.8950500   9.6284110 117.2951590  18.0614250   9.2886340
 117.7578510  19.4179020   9.7762440 112.6250050  13.8518610   2.6542940
 112.9222380  14.7581440   2.5734960 113.1735610  13.3637390   2.0402510
 112.8187580  19.3290430   9.1894860 112.7231180  18.3885160   9.0395260
 113.6619560  19.5505500   8.7942930 107.9498120  15.7404100   7.3428640
 107.5561510  16.5879310   7.5501420 107.2616520  15.1030470   7.5337280
 114.5243170  15.8239070  10.4125380 113.8341490  15.6311270  11.0471470
 115.2675470  16.1073710  10.9449680 116.8006140  19.6637510   3.2479300
 116.0687260  20.1724320   3.5969400 116.4030480  18.8467490   2.9468080
 117.2632050  15.1171190   2.6602240 117.2804790  15.5679840   3.5044090
 117.0147630  14.2176830   2.8735680 120.6902800  12.5303370   8.4988620
 121.0148570  11.7993030   9.0246600 120.7259310  12.2117010   7.5969610
 107.3894360  23.5516950   7.9188580 107.0049150  22.9110620   8.5171540
 107.7006550  24.2553070   8.4883310 113.5391500  20.3993490   3.3997200
 113.9061630  19.9252060   4.1458540 113.3496560  21.2735060   3.7405540
 111.3290870  19.4402130   5.7181410 111.0247940  20.3194110   5.9431770
 112.2837330  19.5001920   5.7538850 120.6160640  22.6428480   2.1074650
 121.3359760  23.1383770   1.7170760 120.4142460  21.9646370   1.4628520
 115.9979440  22.7137540   7.9943650 115.9316750  21.7933210   7.7401240
 115.3684580  22.8112980   8.7088290 107.3854600  20.2804870   6.8652770
 107.0269540  20.9458720   7.4526110 107.0909160  19.4488420   7.2365390
 110.5867720  20.7389110   9.7492320 110.2867860  20.8846290   8.8520140
 111.3578960  20.1794400   9.6565710 115.9296170  25.5358110   7.7447450
 115.9440710  24.6039070   7.5266360 115.2221270  25.6217870   8.3837220
 122.1407380  22.1765450   7.0916030 121.4155570  22.7694230   6.8945420
 122.6682840  22.1688990   6.2929400 115.3630070  27.1775680   4.8387950
 116.0072290  27.3835060   5.5161370 115.7259510  26.4164080   4.3858800
 116.6362150  25.1808030   3.5565400 117.2784380  24.4801190   3.6697570
 117.1611500  25.9606470   3.3762290 118.4099770  25.9802930   6.7601460
 118.7456010  26.5669620   7.4379380 117.4900110  25.8495640   6.9899250
 105.9603170  13.7698110   7.5424870 105.2461690  13.9695030   8.1477480
 106.3798210  12.9937680   7.9139670 106.2475760  27.7578370   8.5291400
 106.3566880  26.8173110   8.3886790 105.5956320  28.0233120   7.8805130
 114.2388350  26.0294260   9.9289520 113.9185220  25.3103500  10.4735210
 113.5646710  26.7049330  10.0025580 117.4541950  16.2620420   5.2926320
 117.8222770  15.4415630   5.6205890 116.5940150  16.3222310   5.7081970
 114.4143940  18.9160010   5.5164290 114.9129190  19.3905830   6.1816140
 114.5566890  17.9923530   5.7234320 121.6210800  15.1327970   6.3592680
 121.1184400  15.8733370   6.6986490 122.4367460  15.5211970   6.0429470
 108.3934200  28.8247280  10.3411010 109.1946930  29.1459330  10.7546410
 107.8786020  28.4642860  11.0630920 117.2298830  24.9327150  10.2886420
 116.6236990  24.9558750   9.5482170 116.9252940  24.2010190  10.8253670
 118.6599200  28.6607440   8.8995830 119.6120950  28.5765460   8.8496070
 118.5127420  29.3249150   9.5729620 106.1132010  21.3120740   9.2847060
 106.6171030  20.7328020   9.8563290 105.3739430  21.5960970   9.8223430
 113.1669950  22.7191730   8.8182580 112.4015620  23.2876730   8.7337250
 113.3485910  22.4267940   7.9250810 120.3093300  24.4497060   9.3757600
 121.0502770  24.7872820   8.8725060 119.5465980  24.6189120   8.8227370
 108.1455090  19.4550330  10.1797130 108.1860430  19.1564200  11.0882360
 109.0000590  19.8557940  10.0204650 110.0860900  18.0342430   8.1471620
 109.5557360  17.5433380   7.5194960 110.7548970  18.4626630   7.6129550
 118.9838960  22.5011890   7.9112810 119.3979980  22.6556970   8.7603230
 118.0489960  22.6267110   8.0738590 119.4561130  19.8408050   9.9151960
 120.0381900  19.0860370   9.8272440 119.6322900  20.3715490   9.1383440
 110.5733200  15.0004800   8.2268910 110.4790070  14.3825550   7.5019780
 109.9930590  15.7271090   7.9998820 113.3394640  13.5578040   5.2596300
 112.8911940  13.5802300   4.4141850 112.7059840  13.1597060   5.8566600
 113.7454190  22.4532370   5.8808740 114.1642300  23.2965100   5.7084980
 112.8262820  22.5904410   5.6515520 116.0818090  20.1848550   7.2646580
 116.2014300  19.5889690   8.0041420 116.9412090  20.2218240   6.8447880
 118.4205990  20.7385740   5.8409090 117.8941210  21.2628360   5.2374230
 118.7637330  21.3713130   6.4718820 111.5961610  28.7585380   6.9966470
 111.0582700  29.4831440   6.6775170 111.8495570  28.2815720   6.2063810
 112.8486860  16.7269900   8.5222400 113.4386550  16.4185750   9.2100220
 112.0307100  16.2549650   8.6782300 117.6680290  16.3435710   8.7555420
 116.9795810  15.6817250   8.6905410 118.3886310  15.8973980   9.2003880
 114.4523820  29.9936590   7.2553120 114.3782520  30.8971730   7.5625490
 113.5502660  29.6748490   7.2275190 106.3441320  28.1881770   3.2968370
 105.9072310  28.3682570   4.1292520 106.9119000  28.9456390   3.1550090
 121.9803500  27.6898770   7.5845680 121.3805490  27.7491330   6.8409600
 122.1097400  26.7503750   7.7142530 120.6655140  24.4150750   5.6821840
 119.8514980  24.8447910   5.9447630 121.0729340  25.0269160   5.0690890
 107.2141680  21.0854570   4.1960590 107.5814720  20.9981970   5.0756610
 106.6452500  20.3221120   4.0967450 122.0145540  19.5538950   7.2091060
 121.7831630  19.3251700   6.3089010 122.2750090  20.4738500   7.1635950
 106.7657680  17.9963660   8.1019010 105.8713730  17.9630420   8.4412720
 107.3055230  18.1950450   8.8670260 120.4533610  14.7795380   9.9870760
 121.3303790  14.7878780  10.3704760 120.4654450  14.0426220   9.3763110
 122.0786600  18.7164790   4.3978330 121.1289310  18.6828330   4.5123320
 122.2599610  19.6264900   4.1628100 107.2697390  12.2711990   2.4502230
 107.9173580  11.7209370   2.0097390 107.6899230  12.5255140   3.2718040
 121.1649730  12.4653350   5.8071870 121.8021950  13.0787490   6.1731060
 121.3124620  12.5014010   4.8621100 107.0229390  12.4267660   5.1927550
 106.6744210  12.8831480   5.9585730 106.6917090  11.5324790   5.2749980
 108.6293760  25.5987260   9.3580740 108.5863390  25.2280170  10.2395200
 108.7604770  26.5364830   9.4982560 112.3299790  27.1546850   4.9590460
 112.0891150  27.4221410   4.0720980 113.2702430  27.3252580   5.0141320
 114.5354210  13.6179540   8.7146970 114.4743100  14.2101370   9.4642380
 115.4754590  13.5105500   8.5697230 117.1728770  13.2749600   8.3539260
 117.7869180  13.5928890   7.6920340 117.7178330  12.7898190   8.9735120
 123.5903950  29.1741230   5.7601100 123.0962230  29.5710100   5.0428230
 122.9817240  28.5490440   6.1538380 107.6950030  11.9543860   8.4678320
 108.2433020  11.7731910   7.7044430 107.7605340  11.1637970   9.0034630
 108.4681790  28.5449510   6.4778520 107.8742110  28.4134210   7.2168560
 108.4605630  27.7087650   6.0120620 117.9136810  11.8381740   4.6808550
 117.0396650  12.1716850   4.4781480 117.8047560  11.3654920   5.5060420
 118.8208790  14.0452610   6.0650270 118.4922150  13.2304370   5.6852000
 119.7691090  14.0022420   5.9415960 121.2743400  29.8164650   3.0387840
 120.8146370  30.5680460   2.6645860 120.6455860  29.0971120   2.9802640
 108.0994020  25.9107890   5.4286560 107.3728080  25.2913180   5.3612510
 108.1603170  26.3048500   4.5584640 111.7039120  28.1252890   2.2135970
 112.2204140  27.5140250   1.6884230 112.3536500  28.6281670   2.7046980
 114.4434620  29.0161380   3.0404950 114.7312430  28.7615680   2.1637960
 114.9557840  28.4638740   3.6310520 115.6611630  12.7551580   3.6201460
 114.8783420  13.2297080   3.8998220 115.3674560  11.8506410   3.5114640
 114.5106980  29.9377480  10.4073150 115.4374290  29.7021750  10.4509110
 114.4957410  30.7649480   9.9259180 111.6970590  12.6022230  10.1715030
 111.4154860  13.1055830   9.4075850 112.0790290  11.8043980   9.8057160
 118.2986050  12.0175810  10.7495500 118.1851500  12.3370420  11.6447020
 119.1155790  12.4188320  10.4532780 121.0784540  29.1647340  10.2314190
 121.8709860  28.6696570  10.0240150 121.3717690  29.8437480  10.8389800
 119.3569670   7.4464000 150.7430050 118.8951200   6.6751240 151.0717220
 120.1695220   7.4730070 151.2482500 115.5832980   9.7322010 150.3634040
 114.9644420  10.1879510 149.7928480 116.4384760   9.8873470 149.9623740
 116.4496330   4.6161250 147.7565950 115.8313600   5.0810700 147.1928670
 116.9619580   5.3088730 148.1735460 105.8179530   5.3017780 145.1305580
 105.4407510   5.7904880 144.3990480 106.0752600   5.9743060 145.7612110
 120.2728940   6.1417680 147.9688720 120.1625270   5.1992010 148.0938140
 120.2697190   6.5033320 148.8551480 115.8149220   1.7683000 147.3251210
 114.8878500   1.7020380 147.5539680 115.9674040   2.7063130 147.2106450
 119.8446510   3.3303300 147.8286460 119.2258930   2.9922850 147.1812760
 119.8270960   2.6863060 148.5365650 118.0211210   2.5690110 144.8359210
 118.4604490   1.7312540 144.6897030 118.7339630   3.2019510 144.9223350
 116.1306590   7.5086180 148.8040450 116.5702500   8.2510510 148.3895840
 116.0693480   7.7512750 149.7279410 107.0043490   6.0608050 149.8252410
 106.5971570   6.2022640 148.9706010 107.8956500   5.7768210 149.6223620
 118.7976770  10.4955300 146.1603460 118.6377910  10.2058240 147.0585290
 118.6323480   9.7195430 145.6248690 111.2765150  10.2753830 147.9375080
 111.1007630   9.3589370 147.7242880 110.4220890  10.6341120 148.1772880
 118.5002900   8.0042860 144.7201460 117.8068060   8.0020150 144.0603740
 119.2425760   7.5802180 144.2895630 118.0652830   9.6305570 148.7949950
 118.5209780   8.8494950 149.1088570 118.4045350  10.3412390 149.3391130
 109.8572660   4.8719630 146.5096180 109.0834920   4.3317250 146.3494900
 110.5867290   4.3526240 146.1713940 109.9010060   4.5400010 150.1474990
 110.4188730   3.7368270 150.0931880 109.4494080   4.4779150 150.9891820
 114.7879560   5.8066290 145.4202290 115.1295260   6.5508520 144.9245610
 113.9592270   6.1197410 145.7827120 122.0920490   7.7996700 146.9376110
 121.4496650   7.1452320 147.2119830 121.7051150   8.2051790 146.1616780
 117.6706970   5.1282130 150.7847800 118.0230790   4.5310260 150.1249170
 116.7869300   4.8026360 150.9556050 113.7570250   5.8879820 148.1918210
 114.4441380   6.4349030 148.5725800 112.9702670   6.4320550 148.2267820
 113.0597460   2.8925850 147.8043570 113.5160240   3.7031100 148.0303760
 112.7085670   2.5748990 148.6362060 120.4817870   6.6913160 143.4752460
 120.2555450   5.9743600 144.0677100 120.0914070   6.4425600 142.6374210
 106.2633900  10.7180020 144.2496920 106.6231540  11.3169360 143.5954190
 106.1226240  11.2639910 145.0231950 120.0634120   4.6085100 145.1366620
 119.7755820   5.0697790 145.9244500 120.8586290   4.1482870 145.4050840
 112.2802520   8.1011220 145.0670590 112.2712620   8.8340910 144.4515100
 111.3600880   7.8542800 145.1597550 107.8809160   3.3226110 145.8117350
 107.2737110   4.0625010 145.8212650 108.3558510   3.4125470 144.9855550
 115.2662120   8.1639460 143.7295780 115.3674100   7.9603450 142.7997760
 114.3663860   7.9097740 143.9343560 113.9080230  10.6825780 148.4243450
 114.1621730  10.6447170 147.5022820 112.9592710  10.5559110 148.4171700
 109.8914450   3.2837260 143.5605920 110.6577720   3.1718620 144.1231350
 109.9689140   2.5875230 142.9082690 109.3875920  10.8657720 151.3473350
 110.1238400  10.3173180 151.6181920 109.7716840  11.7313730 151.2079340
 106.2721400   6.9331290 147.2214860 105.3461180   7.1752430 147.2120270
 106.7377830   7.7605550 147.0999610 112.4978230  10.0388030 143.1698920
 113.2906840  10.3276860 142.7180710 111.9782580   9.6080200 142.4911400
 121.5508400   9.2658160 144.5935660 121.2649910   8.8523300 143.7789840
 121.3527950  10.1945870 144.4736180 113.0155630   5.2591440 143.0341270
 112.9106270   4.6443790 143.7602650 112.8479850   4.7357330 142.2504280
 116.2558360   4.3211470 143.6383260 115.7068460   4.7680770 144.2826000
 116.8777620   3.8160720 144.1620930 111.9233480   3.2802390 145.5348560
 112.3449900   3.1142260 146.3779950 112.0484320   2.4702620 145.0403700
 115.0009150  10.3851610 145.0727400 115.8959940  10.7236580 145.0946160
 115.0326780   9.6631020 144.4451680 108.6405310   5.7578660 143.3014400
 109.0780180   6.3008330 143.9571980 109.1253040   4.9325610 143.3110740
 105.8551110   8.5467690 150.7534660 106.1854120   7.6788750 150.5213300
 106.2842110   8.7526210 151.5839620 110.4513030   6.8776700 148.4136630
 110.1508570   6.7541670 149.3140540 110.3450520   6.0185290 148.0052360
 123.2204950   6.6573100 143.1163310 122.3897910   6.7249750 143.5870540
 123.3976780   7.5477220 142.8130170 122.6761410   3.4020580 145.6197510
 123.4380320   3.9717230 145.7257200 122.6915780   2.8347780 146.3905820
 106.1765750   1.9258510 149.8505170 105.5214590   1.6570150 149.2064870
 107.0143700   1.8162990 149.4007150 123.6821380   4.2570680 150.4639440
 124.0530210   3.4738000 150.0575410 124.3223310   4.9459780 150.2856740
 122.7280580   3.6954950 142.7770030 123.0029420   4.6033830 142.6489250
 122.5391320   3.6317480 143.7132020 120.7231190  10.3925860 149.4038030
 121.3190260  10.0710430 148.7272450 120.9809340   9.9197680 150.1951300
 106.3824020  10.4538790 148.8331240 106.2146060   9.8209470 149.5313130
 105.5158530  10.6598190 148.4825430 107.9886720   9.1472020 146.2781380
 107.4634340   9.5280050 145.5743340 107.9131300   9.7722790 146.9991090
 122.7452040  10.7059560 147.5995320 122.9204230  10.0197300 146.9556240
 122.0473610  11.2306610 147.2071990 110.5879690  11.0954400 145.1530630
 111.3198510  10.8113680 144.6054520 110.8473360  10.8567680 146.0430010
 109.7494480   7.2119130 145.1576960 109.1203360   7.6804230 145.7062790
 109.8642310   6.3668350 145.5923150 115.3362240   3.0403810 133.1887430
 114.5604340   2.5604250 133.4786000 115.9875170   2.3609460 133.0143590
 109.3528070   3.3523620 134.0663190 108.5212950   3.0972330 134.4659700
 109.9609050   3.4234390 134.8021110 119.3569670   7.4464000 131.9686560
 118.8951200   6.6751240 132.2973730 120.1695220   7.4730070 132.4739010
 109.3329330   7.3863710 134.2621210 109.6357370   6.4961450 134.0831430
 110.0772920   7.9433930 134.0343460 115.5832980   9.7322010 131.5890550
 114.9644420  10.1879510 131.0184990 116.4384760   9.8873470 131.1880250
 114.7771230   5.7161000 133.1957590 114.7079510   4.7750940 133.0346720
 115.5391090   5.8062410 133.7680160 116.4496330   4.6161250 128.9822460
 115.8313600   5.0810700 128.4185180 116.9619580   5.3088730 129.3991970
 111.3128090   4.1437120 135.6606060 110.9797470   4.7706040 136.3027130
 111.4894770   4.6699000 134.8807730 110.5247190   6.1117920 137.4755240
 111.1421190   6.7869000 137.1939690 109.6640310   6.5205900 137.3842740
 105.8179530   5.3017780 126.3562090 105.4407510   5.7904880 125.6246990
 106.0752600   5.9743060 126.9868620 121.4424780   7.5757330 135.3909880
 120.7588300   8.2456440 135.3826550 121.9819070   7.7737980 134.6254740
 118.9783520   9.4201460 134.1055060 118.9910680   9.0163750 133.2377320
 118.4258740  10.1948750 134.0016490 120.2728940   6.1417680 129.1945230
 120.1625270   5.1992010 129.3194650 120.2697190   6.5033320 130.0807990
 118.3768960   4.3231300 135.4337670 118.7937750   4.1091410 134.5991130
 119.1008780   4.5804090 136.0046290 115.8149220   1.7683000 128.5507720
 114.8878500   1.7020380 128.7796190 115.9674040   2.7063130 128.4362960
 122.3231060   2.7218520 135.5253910 121.4949690   2.7911610 135.0504040
 122.9181540   3.3072830 135.0569740 119.8446510   3.3303300 129.0542970
 119.2258930   2.9922850 128.4069270 119.8270960   2.6863060 129.7622160
 111.8887560   5.9815300 133.4966660 111.5915850   5.3760770 132.8174440
 112.8387380   6.0192610 133.3856020 119.9773170   9.5547170 137.1589760
 119.5003730  10.3619360 136.9662370 119.2934960   8.9025500 137.3115970
 110.9805990   5.7196990 140.1474460 110.0834520   5.9436960 140.3947860
 111.0058860   5.8431930 139.1985860 118.0211210   2.5690110 126.0615720
 118.4604490   1.7312540 125.9153540 118.7339630   3.2019510 126.1479860
 109.8077210   2.5910310 138.7231830 109.6684980   3.4633110 139.0919230
 108.9258570   2.2483120 138.5779770 116.1306590   7.5086180 130.0296960
 116.5702500   8.2510510 129.6152350 116.0693480   7.7512750 130.9535920
 111.6057560   8.5332010 140.9316980 111.5772990   8.9374960 140.0645410
 111.4422530   7.6042370 140.7688580 123.5572380   9.3159110 142.2281150
 124.0332100   9.7942000 142.9070230 124.1779540   9.2476600 141.5026650
 105.7595860   4.3607860 134.6402740 105.8376280   4.4956630 133.6958460
 106.3737540   3.6523750 134.8330860 107.0043490   6.0608050 131.0508920
 106.5971570   6.2022640 130.1962520 107.8956500   5.7768210 130.8480130
 122.9605630   6.5071960 139.3881160 123.0868690   6.2683840 138.4698340
 123.0027010   5.6756500 139.8603240 116.8222370  10.2099960 137.9575970
 117.3367040  10.1207970 138.7598400 115.9791450  10.5559660 138.2503880
 118.7976770  10.4955300 127.3859970 118.6377910  10.2058240 128.2841800
 118.6323480   9.7195430 126.8505200 111.2765150  10.2753830 129.1631590
 111.1007630   9.3589370 128.9499390 110.4220890  10.6341120 129.4029390
 118.5002900   8.0042860 125.9457970 117.8068060   8.0020150 125.2860250
 119.2425760   7.5802180 125.5152140 118.0652830   9.6305570 130.0206460
 118.5209780   8.8494950 130.3345080 118.4045350  10.3412390 130.5647640
 105.8155380   5.4022030 137.1797200 105.9786420   4.9327390 136.3616570
 106.2807830   4.8945590 137.8446040 107.3894360   4.7773460 139.3393010
 107.0049150   4.1367130 139.9375970 107.7006550   5.4809580 139.9087740
 109.8572660   4.8719630 127.7352690 109.0834920   4.3317250 127.5751410
 110.5867290   4.3526240 127.3970450 120.6160640   3.8684990 133.5279080
 121.3359760   4.3640280 133.1375190 120.4142460   3.1902880 132.8832950
 115.9979440   3.9394050 139.4148080 115.9316750   3.0189720 139.1605670
 115.3684580   4.0369490 140.1292720 109.9010060   4.5400010 131.3731500
 110.4188730   3.7368270 131.3188390 109.4494080   4.4779150 132.2148330
 114.7879560   5.8066290 126.6458800 115.1295260   6.5508520 126.1502120
 113.9592270   6.1197410 127.0083630 115.9296170   6.7614620 139.1651880
 115.9440710   5.8295580 138.9470790 115.2221270   6.8474380 139.8041650
 122.1407380   3.4021960 138.5120460 121.4155570   3.9950740 138.3149850
 122.6682840   3.3945500 137.7133830 122.0920490   7.7996700 128.1632620
 121.4496650   7.1452320 128.4376340 121.7051150   8.2051790 127.3873290
 117.6706970   5.1282130 132.0104310 118.0230790   4.5310260 131.3505680
 116.7869300   4.8026360 132.1812560 113.7570250   5.8879820 129.4174720
 114.4441380   6.4349030 129.7982310 112.9702670   6.4320550 129.4524330
 113.0597460   2.8925850 129.0300080 113.5160240   3.7031100 129.2560270
 112.7085670   2.5748990 129.8618570 115.3630070   8.4032190 136.2592380
 116.0072290   8.6091570 136.9365800 115.7259510   7.6420590 135.8063230
 116.6362150   6.4064540 134.9769830 117.2784380   5.7057700 135.0902000
 117.1611500   7.1862980 134.7966720 120.4817870   6.6913160 124.7008970
 120.2555450   5.9743600 125.2933610 120.0914070   6.4425600 123.8630720
 118.4099770   7.2059440 138.1805890 118.7456010   7.7926130 138.8583810
 117.4900110   7.0752150 138.4103680 106.2633900  10.7180020 125.4753430
 106.6231540  11.3169360 124.8210700 106.1226240  11.2639910 126.2488460
 120.0634120   4.6085100 126.3623130 119.7755820   5.0697790 127.1501010
 120.8586290   4.1482870 126.6307350 106.2475760   8.9834880 139.9495830
 106.3566880   8.0429620 139.8091220 105.5956320   9.2489630 139.3009560
 114.2388350   7.2550770 141.3493950 113.9185220   6.5360010 141.8939640
 113.5646710   7.9305840 141.4230010 112.2802520   8.1011220 126.2927100
 112.2712620   8.8340910 125.6771610 111.3600880   7.8542800 126.3854060
 107.8809160   3.3226110 127.0373860 107.2737110   4.0625010 127.0469160
 108.3558510   3.4125470 126.2112060 115.2662120   8.1639460 124.9552290
 115.3674100   7.9603450 124.0254270 114.3663860   7.9097740 125.1600070
 113.9080230  10.6825780 129.6499960 114.1621730  10.6447170 128.7279330
 112.9592710  10.5559110 129.6428210 109.8914450   3.2837260 124.7862430
 110.6577720   3.1718620 125.3487860 109.9689140   2.5875230 124.1339200
 121.9158390   8.7726510 132.9012730 122.0405810   9.5957680 133.3736540
 122.7823950   8.5617240 132.5536880 109.3875920  10.8657720 132.5729860
 110.1238400  10.3173180 132.8438430 109.7716840  11.7313730 132.4335850
 106.2721400   6.9331290 128.4471370 105.3461180   7.1752430 128.4376780
 106.7377830   7.7605550 128.3256120 108.3934200  10.0503790 141.7615440
 109.1946930  10.3715840 142.1750840 107.8786020   9.6899370 142.4835350
 112.4978230  10.0388030 124.3955430 113.2906840  10.3276860 123.9437220
 111.9782580   9.6080200 123.7167910 117.2298830   6.1583660 141.7090850
 116.6236990   6.1815260 140.9686600 116.9252940   5.4266700 142.2458100
 118.6599200   9.8863950 140.3200260 119.6120950   9.8021970 140.2700500
 118.5127420  10.5505660 140.9934050 121.5508400   9.2658160 125.8192170
 121.2649910   8.8523300 125.0046350 121.3527950  10.1945870 125.6992690
 106.1132010   2.5377250 140.7051490 106.6171030   1.9584530 141.2767720
 105.3739430   2.8217480 141.2427860 113.0155630   5.2591440 124.2597780
 112.9106270   4.6443790 124.9859160 112.8479850   4.7357330 123.4760790
 113.1669950   3.9448240 140.2387010 112.4015620   4.5133240 140.1541680
 113.3485910   3.6524450 139.3455240 116.2558360   4.3211470 124.8639770
 115.7068460   4.7680770 125.5082510 116.8777620   3.8160720 125.3877440
 120.3093300   5.6753570 140.7962030 121.0502770   6.0129330 140.2929490
 119.5465980   5.8445630 140.2431800 111.9233480   3.2802390 126.7605070
 112.3449900   3.1142260 127.6036460 112.0484320   2.4702620 126.2660210
 118.9838960   3.7268400 139.3317240 119.3979980   3.8813480 140.1807660
 118.0489960   3.8523620 139.4943020 113.7454190   3.6788880 137.3013170
 114.1642300   4.5221610 137.1289410 112.8262820   3.8160920 137.0719950
 118.4205990   1.9642250 137.2613520 117.8941210   2.4884870 136.6578660
 118.7637330   2.5969640 137.8923250 111.5961610   9.9841890 138.4170900
 111.0582700  10.7087950 138.0979600 111.8495570   9.5072230 137.6268240
 114.4523820  11.2193100 138.6757550 114.3782520  12.1228240 138.9829920
 113.5502660  10.9005000 138.6479620 115.0009150  10.3851610 126.2983910
 115.8959940  10.7236580 126.3202670 115.0326780   9.6631020 125.6708190
 108.6405310   5.7578660 124.5270910 109.0780180   6.3008330 125.1828490
 109.1253040   4.9325610 124.5367250 105.8551110   8.5467690 131.9791170
 106.1854120   7.6788750 131.7469810 106.2842110   8.7526210 132.8096130
 110.4513030   6.8776700 129.6393140 110.1508570   6.7541670 130.5397050
 110.3450520   6.0185290 129.2308870 106.3441320   9.4138280 134.7172800
 105.9072310   9.5939080 135.5496950 106.9119000  10.1712900 134.5754520
 121.9803500   8.9155280 139.0050110 121.3805490   8.9747840 138.2614030
 122.1097400   7.9760260 139.1346960 123.2204950   6.6573100 124.3419820
 122.3897910   6.7249750 124.8127050 123.3976780   7.5477220 124.0386680
 122.6761410   3.4020580 126.8454020 123.4380320   3.9717230 126.9513710
 122.6915780   2.8347780 127.6162330 106.1765750   1.9258510 131.0761680
 105.5214590   1.6570150 130.4321380 107.0143700   1.8162990 130.6263660
 123.6821380   4.2570680 131.6895950 124.0530210   3.4738000 131.2831920
 124.3223310   4.9459780 131.5113250 120.6655140   5.6407260 137.1026270
 119.8514980   6.0704420 137.3652060 121.0729340   6.2525670 136.4895320
 122.7280580   3.6954950 124.0026540 123.0029420   4.6033830 123.8745760
 122.5391320   3.6317480 124.9388530 120.7231190  10.3925860 130.6294540
 121.3190260  10.0710430 129.9528960 120.9809340   9.9197680 131.4207810
 108.6293760   6.8243770 140.7785170 108.5863390   6.4536680 141.6599630
 108.7604770   7.7621340 140.9186990 112.3299790   8.3803360 136.3794890
 112.0891150   8.6477920 135.4925410 113.2702430   8.5509090 136.4345750
 123.5903950  10.3997740 137.1805530 123.0962230  10.7966610 136.4632660
 122.9817240   9.7746950 137.5742810 108.4681790   9.7706020 137.8982950
 107.8742110   9.6390720 138.6372990 108.4605630   8.9344160 137.4325050
 121.2743400  11.0421160 134.4592270 120.8146370  11.7936970 134.0850290
 120.6455860  10.3227630 134.4007070 108.0994020   7.1364400 136.8490990
 107.3728080   6.5169690 136.7816940 108.1603170   7.5305010 135.9789070
 111.7039120   9.3509400 133.6340400 112.2204140   8.7396760 133.1088660
 112.3536500   9.8538180 134.1251410 114.4434620  10.2417890 134.4609380
 114.7312430   9.9872190 133.5842390 114.9557840   9.6895250 135.0514950
 106.3824020  10.4538790 130.0587750 106.2146060   9.8209470 130.7569640
 105.5158530  10.6598190 129.7081940 107.9886720   9.1472020 127.5037890
 107.4634340   9.5280050 126.7999850 107.9131300   9.7722790 128.2247600
 114.5106980  11.1633990 141.8277580 115.4374290  10.9278260 141.8713540
 114.4957410  11.9905990 141.3463610 122.7452040  10.7059560 128.8251830
 122.9204230  10.0197300 128.1812750 122.0473610  11.2306610 128.4328500
 110.5879690  11.0954400 126.3787140 111.3198510  10.8113680 125.8311030
 110.8473360  10.8567680 127.2686520 109.7494480   7.2119130 126.3833470
 109.1203360   7.6804230 126.9319300 109.8642310   6.3668350 126.8179660
 121.0784540  10.3903850 141.6518620 121.8709860   9.8953080 141.4444580
 121.3717690  11.0693990 142.2594230 115.3362240   3.0403810 114.4143940
 114.5604340   2.5604250 114.7042510 115.9875170   2.3609460 114.2400100
 109.3528070   3.3523620 115.2919700 108.5212950   3.0972330 115.6916210
 109.9609050   3.4234390 116.0277620 119.3569670   7.4464000 113.1943070
 118.8951200   6.6751240 113.5230240 120.1695220   7.4730070 113.6995520
 109.3329330   7.3863710 115.4877720 109.6357370   6.4961450 115.3087940
 110.0772920   7.9433930 115.2599970 115.5832980   9.7322010 112.8147060
 114.9644420  10.1879510 112.2441500 116.4384760   9.8873470 112.4136760
 114.7771230   5.7161000 114.4214100 114.7079510   4.7750940 114.2603230
 115.5391090   5.8062410 114.9936670 116.4496330   4.6161250 110.2078970
 115.8313600   5.0810700 109.6441690 116.9619580   5.3088730 110.6248480
 111.3128090   4.1437120 116.8862570 110.9797470   4.7706040 117.5283640
 111.4894770   4.6699000 116.1064240 110.5247190   6.1117920 118.7011750
 111.1421190   6.7869000 118.4196200 109.6640310   6.5205900 118.6099250
 105.8179530   5.3017780 107.5818600 105.4407510   5.7904880 106.8503500
 106.0752600   5.9743060 108.2125130 121.4424780   7.5757330 116.6166390
 120.7588300   8.2456440 116.6083060 121.9819070   7.7737980 115.8511250
 118.9783520   9.4201460 115.3311570 118.9910680   9.0163750 114.4633830
 118.4258740  10.1948750 115.2273000 120.2728940   6.1417680 110.4201740
 120.1625270   5.1992010 110.5451160 120.2697190   6.5033320 111.3064500
 118.3768960   4.3231300 116.6594180 118.7937750   4.1091410 115.8247640
 119.1008780   4.5804090 117.2302800 115.8149220   1.7683000 109.7764230
 114.8878500   1.7020380 110.0052700 115.9674040   2.7063130 109.6619470
 122.3231060   2.7218520 116.7510420 121.4949690   2.7911610 116.2760550
 122.9181540   3.3072830 116.2826250 119.8446510   3.3303300 110.2799480
 119.2258930   2.9922850 109.6325780 119.8270960   2.6863060 110.9878670
 111.8887560   5.9815300 114.7223170 111.5915850   5.3760770 114.0430950
 112.8387380   6.0192610 114.6112530 119.9773170   9.5547170 118.3846270
 119.5003730  10.3619360 118.1918880 119.2934960   8.9025500 118.5372480
 110.9805990   5.7196990 121.3730970 110.0834520   5.9436960 121.6204370
 111.0058860   5.8431930 120.4242370 118.0211210   2.5690110 107.2872230
 118.4604490   1.7312540 107.1410050 118.7339630   3.2019510 107.3736370
 109.8077210   2.5910310 119.9488340 109.6684980   3.4633110 120.3175740
 108.9258570   2.2483120 119.8036280 116.1306590   7.5086180 111.2553470
 116.5702500   8.2510510 110.8408860 116.0693480   7.7512750 112.1792430
 111.6057560   8.5332010 122.1573490 111.5772990   8.9374960 121.2901920
 111.4422530   7.6042370 121.9945090 123.5572380   9.3159110 123.4537660
 124.0332100   9.7942000 124.1326740 124.1779540   9.2476600 122.7283160
 105.7595860   4.3607860 115.8659250 105.8376280   4.4956630 114.9214970
 106.3737540   3.6523750 116.0587370 107.0043490   6.0608050 112.2765430
 106.5971570   6.2022640 111.4219030 107.8956500   5.7768210 112.0736640
 122.9605630   6.5071960 120.6137670 123.0868690   6.2683840 119.6954850
 123.0027010   5.6756500 121.0859750 116.8222370  10.2099960 119.1832480
 117.3367040  10.1207970 119.9854910 115.9791450  10.5559660 119.4760390
 118.7976770  10.4955300 108.6116480 118.6377910  10.2058240 109.5098310
 118.6323480   9.7195430 108.0761710 111.2765150  10.2753830 110.3888100
 111.1007630   9.3589370 110.1755900 110.4220890  10.6341120 110.6285900
 118.5002900   8.0042860 107.1714480 117.8068060   8.0020150 106.5116760
 119.2425760   7.5802180 106.7408650 118.0652830   9.6305570 111.2462970
 118.5209780   8.8494950 111.5601590 118.4045350  10.3412390 111.7904150
 105.8155380   5.4022030 118.4053710 105.9786420   4.9327390 117.5873080
 106.2807830   4.8945590 119.0702550 107.3894360   4.7773460 120.5649520
 107.0049150   4.1367130 121.1632480 107.7006550   5.4809580 121.1344250
 109.8572660   4.8719630 108.9609200 109.0834920   4.3317250 108.8007920
 110.5867290   4.3526240 108.6226960 120.6160640   3.8684990 114.7535590
 121.3359760   4.3640280 114.3631700 120.4142460   3.1902880 114.1089460
 115.9979440   3.9394050 120.6404590 115.9316750   3.0189720 120.3862180
 115.3684580   4.0369490 121.3549230 109.9010060   4.5400010 112.5988010
 110.4188730   3.7368270 112.5444900 109.4494080   4.4779150 113.4404840
 114.7879560   5.8066290 107.8715310 115.1295260   6.5508520 107.3758630
 113.9592270   6.1197410 108.2340140 115.9296170   6.7614620 120.3908390
 115.9440710   5.8295580 120.1727300 115.2221270   6.8474380 121.0298160
 122.1407380   3.4021960 119.7376970 121.4155570   3.9950740 119.5406360
 122.6682840   3.3945500 118.9390340 122.0920490   7.7996700 109.3889130
 121.4496650   7.1452320 109.6632850 121.7051150   8.2051790 108.6129800
 117.6706970   5.1282130 113.2360820 118.0230790   4.5310260 112.5762190
 116.7869300   4.8026360 113.4069070 113.7570250   5.8879820 110.6431230
 114.4441380   6.4349030 111.0238820 112.9702670   6.4320550 110.6780840
 113.0597460   2.8925850 110.2556590 113.5160240   3.7031100 110.4816780
 112.7085670   2.5748990 111.0875080 115.3630070   8.4032190 117.4848890
 116.0072290   8.6091570 118.1622310 115.7259510   7.6420590 117.0319740
 116.6362150   6.4064540 116.2026340 117.2784380   5.7057700 116.3158510
 117.1611500   7.1862980 116.0223230 120.4817870   6.6913160 105.9265480
 120.2555450   5.9743600 106.5190120 120.0914070   6.4425600 105.0887230
 118.4099770   7.2059440 119.4062400 118.7456010   7.7926130 120.0840320
 117.4900110   7.0752150 119.6360190 106.2633900  10.7180020 106.7009940
 106.6231540  11.3169360 106.0467210 106.1226240  11.2639910 107.4744970
 120.0634120   4.6085100 107.5879640 119.7755820   5.0697790 108.3757520
 120.8586290   4.1482870 107.8563860 106.2475760   8.9834880 121.1752340
 106.3566880   8.0429620 121.0347730 105.5956320   9.2489630 120.5266070
 114.2388350   7.2550770 122.5750460 113.9185220   6.5360010 123.1196150
 113.5646710   7.9305840 122.6486520 112.2802520   8.1011220 107.5183610
 112.2712620   8.8340910 106.9028120 111.3600880   7.8542800 107.6110570
 107.8809160   3.3226110 108.2630370 107.2737110   4.0625010 108.2725670
 108.3558510   3.4125470 107.4368570 115.2662120   8.1639460 106.1808800
 115.3674100   7.9603450 105.2510780 114.3663860   7.9097740 106.3856580
 113.9080230  10.6825780 110.8756470 114.1621730  10.6447170 109.9535840
 112.9592710  10.5559110 110.8684720 109.8914450   3.2837260 106.0118940
 110.6577720   3.1718620 106.5744370 109.9689140   2.5875230 105.3595710
 121.9158390   8.7726510 114.1269240 122.0405810   9.5957680 114.5993050
 122.7823950   8.5617240 113.7793390 109.3875920  10.8657720 113.7986370
 110.1238400  10.3173180 114.0694940 109.7716840  11.7313730 113.6592360
 106.2721400   6.9331290 109.6727880 105.3461180   7.1752430 109.6633290
 106.7377830   7.7605550 109.5512630 108.3934200  10.0503790 122.9871950
 109.1946930  10.3715840 123.4007350 107.8786020   9.6899370 123.7091860
 112.4978230  10.0388030 105.6211940 113.2906840  10.3276860 105.1693730
 111.9782580   9.6080200 104.9424420 117.2298830   6.1583660 122.9347360
 116.6236990   6.1815260 122.1943110 116.9252940   5.4266700 123.4714610
 118.6599200   9.8863950 121.5456770 119.6120950   9.8021970 121.4957010
 118.5127420  10.5505660 122.2190560 121.5508400   9.2658160 107.0448680
 121.2649910   8.8523300 106.2302860 121.3527950  10.1945870 106.9249200
 106.1132010   2.5377250 121.9308000 106.6171030   1.9584530 122.5024230
 105.3739430   2.8217480 122.4684370 113.0155630   5.2591440 105.4854290
 112.9106270   4.6443790 106.2115670 112.8479850   4.7357330 104.7017300
 113.1669950   3.9448240 121.4643520 112.4015620   4.5133240 121.3798190
 113.3485910   3.6524450 120.5711750 116.2558360   4.3211470 106.0896280
 115.7068460   4.7680770 106.7339020 116.8777620   3.8160720 106.6133950
 120.3093300   5.6753570 122.0218540 121.0502770   6.0129330 121.5186000
 119.5465980   5.8445630 121.4688310 111.9233480   3.2802390 107.9861580
 112.3449900   3.1142260 108.8292970 112.0484320   2.4702620 107.4916720
 118.9838960   3.7268400 120.5573750 119.3979980   3.8813480 121.4064170
 118.0489960   3.8523620 120.7199530 113.7454190   3.6788880 118.5269680
 114.1642300   4.5221610 118.3545920 112.8262820   3.8160920 118.2976460
 118.4205990   1.9642250 118.4870030 117.8941210   2.4884870 117.8835170
 118.7637330   2.5969640 119.1179760 111.5961610   9.9841890 119.6427410
 111.0582700  10.7087950 119.3236110 111.8495570   9.5072230 118.8524750
 114.4523820  11.2193100 119.9014060 114.3782520  12.1228240 120.2086430
 113.5502660  10.9005000 119.8736130 115.0009150  10.3851610 107.5240420
 115.8959940  10.7236580 107.5459180 115.0326780   9.6631020 106.8964700
 108.6405310   5.7578660 105.7527420 109.0780180   6.3008330 106.4085000
 109.1253040   4.9325610 105.7623760 105.8551110   8.5467690 113.2047680
 106.1854120   7.6788750 112.9726320 106.2842110   8.7526210 114.0352640
 110.4513030   6.8776700 110.8649650 110.1508570   6.7541670 111.7653560
 110.3450520   6.0185290 110.4565380 106.3441320   9.4138280 115.9429310
 105.9072310   9.5939080 116.7753460 106.9119000  10.1712900 115.8011030
 121.9803500   8.9155280 120.2306620 121.3805490   8.9747840 119.4870540
 122.1097400   7.9760260 120.3603470 123.2204950   6.6573100 105.5676330
 122.3897910   6.7249750 106.0383560 123.3976780   7.5477220 105.2643190
 122.6761410   3.4020580 108.0710530 123.4380320   3.9717230 108.1770220
 122.6915780   2.8347780 108.8418840 106.1765750   1.9258510 112.3018190
 105.5214590   1.6570150 111.6577890 107.0143700   1.8162990 111.8520170
 123.6821380   4.2570680 112.9152460 124.0530210   3.4738000 112.5088430
 124.3223310   4.9459780 112.7369760 120.6655140   5.6407260 118.3282780
 119.8514980   6.0704420 118.5908570 121.0729340   6.2525670 117.7151830
 122.7280580   3.6954950 105.2283050 123.0029420   4.6033830 105.1002270
 122.5391320   3.6317480 106.1645040 120.7231190  10.3925860 111.8551050
 121.3190260  10.0710430 111.1785470 120.9809340   9.9197680 112.6464320
 108.6293760   6.8243770 122.0041680 108.5863390   6.4536680 122.8856140
 108.7604770   7.7621340 122.1443500 112.3299790   8.3803360 117.6051400
 112.0891150   8.6477920 116.7181920 113.2702430   8.5509090 117.6602260
 123.5903950  10.3997740 118.4062040 123.0962230  10.7966610 117.6889170
 122.9817240   9.7746950 118.7999320 108.4681790   9.7706020 119.1239460
 107.8742110   9.6390720 119.8629500 108.4605630   8.9344160 118.6581560
 121.2743400  11.0421160 115.6848780 120.8146370  11.7936970 115.3106800
 120.6455860  10.3227630 115.6263580 108.0994020   7.1364400 118.0747500
 107.3728080   6.5169690 118.0073450 108.1603170   7.5305010 117.2045580
 111.7039120   9.3509400 114.8596910 112.2204140   8.7396760 114.3345170
 112.3536500   9.8538180 115.3507920 114.4434620  10.2417890 115.6865890
 114.7312430   9.9872190 114.8098900 114.9557840   9.6895250 116.2771460
 106.3824020  10.4538790 111.2844260 106.2146060   9.8209470 111.9826150
 105.5158530  10.6598190 110.9338450 107.9886720   9.1472020 108.7294400
 107.4634340   9.5280050 108.0256360 107.9131300   9.7722790 109.4504110
 114.5106980  11.1633990 123.0534090 115.4374290  10.9278260 123.0970050
 114.4957410  11.9905990 122.5720120 122.7452040  10.7059560 110.0508340
 122.9204230  10.0197300 109.4069260 122.0473610  11.2306610 109.6585010
 110.5879690  11.0954400 107.6043650 111.3198510  10.8113680 107.0567540
 110.8473360  10.8567680 108.4943030 109.7494480   7.2119130 107.6089980
 109.1203360   7.6804230 108.1575810 109.8642310   6.3668350 108.0436170
 121.0784540  10.3903850 122.8775130 121.8709860   9.8953080 122.6701090
 121.3717690  11.0693990 123.4850740 115.3362240   3.0403810  95.6400450
 114.5604340   2.5604250  95.9299020 115.9875170   2.3609460  95.4656610
 109.3528070   3.3523620  96.5176210 108.5212950   3.0972330  96.9172720
 109.9609050   3.4234390  97.2534130 119.3569670   7.4464000  94.4199580
 118.8951200   6.6751240  94.7486750 120.1695220   7.4730070  94.9252030
 109.3329330   7.3863710  96.7134230 109.6357370   6.4961450  96.5344450
 110.0772920   7.9433930  96.4856480 115.5832980   9.7322010  94.0403570
 114.9644420  10.1879510  93.4698010 116.4384760   9.8873470  93.6393270
 114.7771230   5.7161000  95.6470610 114.7079510   4.7750940  95.4859740
 115.5391090   5.8062410  96.2193180 116.4496330   4.6161250  91.4335480
 115.8313600   5.0810700  90.8698200 116.9619580   5.3088730  91.8504990
 111.3128090   4.1437120  98.1119080 110.9797470   4.7706040  98.7540150
 111.4894770   4.6699000  97.3320750 110.5247190   6.1117920  99.9268260
 111.1421190   6.7869000  99.6452710 109.6640310   6.5205900  99.8355760
 105.8179530   5.3017780  88.8075110 105.4407510   5.7904880  88.0760010
 106.0752600   5.9743060  89.4381640 121.4424780   7.5757330  97.8422900
 120.7588300   8.2456440  97.8339570 121.9819070   7.7737980  97.0767760
 118.9783520   9.4201460  96.5568080 118.9910680   9.0163750  95.6890340
 118.4258740  10.1948750  96.4529510 120.2728940   6.1417680  91.6458250
 120.1625270   5.1992010  91.7707670 120.2697190   6.5033320  92.5321010
 118.3768960   4.3231300  97.8850690 118.7937750   4.1091410  97.0504150
 119.1008780   4.5804090  98.4559310 115.8149220   1.7683000  91.0020740
 114.8878500   1.7020380  91.2309210 115.9674040   2.7063130  90.8875980
 122.3231060   2.7218520  97.9766930 121.4949690   2.7911610  97.5017060
 122.9181540   3.3072830  97.5082760 119.8446510   3.3303300  91.5055990
 119.2258930   2.9922850  90.8582290 119.8270960   2.6863060  92.2135180
 111.8887560   5.9815300  95.9479680 111.5915850   5.3760770  95.2687460
 112.8387380   6.0192610  95.8369040 119.9773170   9.5547170  99.6102780
 119.5003730  10.3619360  99.4175390 119.2934960   8.9025500  99.7628990
 110.9805990   5.7196990 102.5987480 110.0834520   5.9436960 102.8460880
 111.0058860   5.8431930 101.6498880 118.0211210   2.5690110  88.5128740
 118.4604490   1.7312540  88.3666560 118.7339630   3.2019510  88.5992880
 109.8077210   2.5910310 101.1744850 109.6684980   3.4633110 101.5432250
 108.9258570   2.2483120 101.0292790 116.1306590   7.5086180  92.4809980
 116.5702500   8.2510510  92.0665370 116.0693480   7.7512750  93.4048940
 111.6057560   8.5332010 103.3830000 111.5772990   8.9374960 102.5158430
 111.4422530   7.6042370 103.2201600 123.5572380   9.3159110 104.6794170
 124.0332100   9.7942000 105.3583250 124.1779540   9.2476600 103.9539670
 105.7595860   4.3607860  97.0915760 105.8376280   4.4956630  96.1471480
 106.3737540   3.6523750  97.2843880 107.0043490   6.0608050  93.5021940
 106.5971570   6.2022640  92.6475540 107.8956500   5.7768210  93.2993150
 122.9605630   6.5071960 101.8394180 123.0868690   6.2683840 100.9211360
 123.0027010   5.6756500 102.3116260 116.8222370  10.2099960 100.4088990
 117.3367040  10.1207970 101.2111420 115.9791450  10.5559660 100.7016900
 118.7976770  10.4955300  89.8372990 118.6377910  10.2058240  90.7354820
 118.6323480   9.7195430  89.3018220 111.2765150  10.2753830  91.6144610
 111.1007630   9.3589370  91.4012410 110.4220890  10.6341120  91.8542410
 118.5002900   8.0042860  88.3970990 117.8068060   8.0020150  87.7373270
 119.2425760   7.5802180  87.9665160 118.0652830   9.6305570  92.4719480
 118.5209780   8.8494950  92.7858100 118.4045350  10.3412390  93.0160660
 105.8155380   5.4022030  99.6310220 105.9786420   4.9327390  98.8129590
 106.2807830   4.8945590 100.2959060 107.3894360   4.7773460 101.7906030
 107.0049150   4.1367130 102.3888990 107.7006550   5.4809580 102.3600760
 109.8572660   4.8719630  90.1865710 109.0834920   4.3317250  90.0264430
 110.5867290   4.3526240  89.8483470 120.6160640   3.8684990  95.9792100
 121.3359760   4.3640280  95.5888210 120.4142460   3.1902880  95.3345970
 115.9979440   3.9394050 101.8661100 115.9316750   3.0189720 101.6118690
 115.3684580   4.0369490 102.5805740 109.9010060   4.5400010  93.8244520
 110.4188730   3.7368270  93.7701410 109.4494080   4.4779150  94.6661350
 114.7879560   5.8066290  89.0971820 115.1295260   6.5508520  88.6015140
 113.9592270   6.1197410  89.4596650 115.9296170   6.7614620 101.6164900
 115.9440710   5.8295580 101.3983810 115.2221270   6.8474380 102.2554670
 122.1407380   3.4021960 100.9633480 121.4155570   3.9950740 100.7662870
 122.6682840   3.3945500 100.1646850 122.0920490   7.7996700  90.6145640
 121.4496650   7.1452320  90.8889360 121.7051150   8.2051790  89.8386310
 117.6706970   5.1282130  94.4617330 118.0230790   4.5310260  93.8018700
 116.7869300   4.8026360  94.6325580 113.7570250   5.8879820  91.8687740
 114.4441380   6.4349030  92.2495330 112.9702670   6.4320550  91.9037350
 113.0597460   2.8925850  91.4813100 113.5160240   3.7031100  91.7073290
 112.7085670   2.5748990  92.3131590 115.3630070   8.4032190  98.7105400
 116.0072290   8.6091570  99.3878820 115.7259510   7.6420590  98.2576250
 116.6362150   6.4064540  97.4282850 117.2784380   5.7057700  97.5415020
 117.1611500   7.1862980  97.2479740 120.4817870   6.6913160  87.1521990
 120.2555450   5.9743600  87.7446630 120.0914070   6.4425600  86.3143740
 118.4099770   7.2059440 100.6318910 118.7456010   7.7926130 101.3096830
 117.4900110   7.0752150 100.8616700 106.2633900  10.7180020  87.9266450
 106.6231540  11.3169360  87.2723720 106.1226240  11.2639910  88.7001480
 120.0634120   4.6085100  88.8136150 119.7755820   5.0697790  89.6014030
 120.8586290   4.1482870  89.0820370 106.2475760   8.9834880 102.4008850
 106.3566880   8.0429620 102.2604240 105.5956320   9.2489630 101.7522580
 114.2388350   7.2550770 103.8006970 113.9185220   6.5360010 104.3452660
 113.5646710   7.9305840 103.8743030 112.2802520   8.1011220  88.7440120
 112.2712620   8.8340910  88.1284630 111.3600880   7.8542800  88.8367080
 107.8809160   3.3226110  89.4886880 107.2737110   4.0625010  89.4982180
 108.3558510   3.4125470  88.6625080 115.2662120   8.1639460  87.4065310
 115.3674100   7.9603450  86.4767290 114.3663860   7.9097740  87.6113090
 113.9080230  10.6825780  92.1012980 114.1621730  10.6447170  91.1792350
 112.9592710  10.5559110  92.0941230 109.8914450   3.2837260  87.2375450
 110.6577720   3.1718620  87.8000880 109.9689140   2.5875230  86.5852220
 121.9158390   8.7726510  95.3525750 122.0405810   9.5957680  95.8249560
 122.7823950   8.5617240  95.0049900 109.3875920  10.8657720  95.0242880
 110.1238400  10.3173180  95.2951450 109.7716840  11.7313730  94.8848870
 106.2721400   6.9331290  90.8984390 105.3461180   7.1752430  90.8889800
 106.7377830   7.7605550  90.7769140 108.3934200  10.0503790 104.2128460
 109.1946930  10.3715840 104.6263860 107.8786020   9.6899370 104.9348370
 112.4978230  10.0388030  86.8468450 113.2906840  10.3276860  86.3950240
 111.9782580   9.6080200  86.1680930 117.2298830   6.1583660 104.1603870
 116.6236990   6.1815260 103.4199620 116.9252940   5.4266700 104.6971120
 118.6599200   9.8863950 102.7713280 119.6120950   9.8021970 102.7213520
 118.5127420  10.5505660 103.4447070 121.5508400   9.2658160  88.2705190
 121.2649910   8.8523300  87.4559370 121.3527950  10.1945870  88.1505710
 106.1132010   2.5377250 103.1564510 106.6171030   1.9584530 103.7280740
 105.3739430   2.8217480 103.6940880 113.0155630   5.2591440  86.7110800
 112.9106270   4.6443790  87.4372180 112.8479850   4.7357330  85.9273810
 113.1669950   3.9448240 102.6900030 112.4015620   4.5133240 102.6054700
 113.3485910   3.6524450 101.7968260 116.2558360   4.3211470  87.3152790
 115.7068460   4.7680770  87.9595530 116.8777620   3.8160720  87.8390460
 120.3093300   5.6753570 103.2475050 121.0502770   6.0129330 102.7442510
 119.5465980   5.8445630 102.6944820 111.9233480   3.2802390  89.2118090
 112.3449900   3.1142260  90.0549480 112.0484320   2.4702620  88.7173230
 118.9838960   3.7268400 101.7830260 119.3979980   3.8813480 102.6320680
 118.0489960   3.8523620 101.9456040 113.7454190   3.6788880  99.7526190
 114.1642300   4.5221610  99.5802430 112.8262820   3.8160920  99.5232970
 118.4205990   1.9642250  99.7126540 117.8941210   2.4884870  99.1091680
 118.7637330   2.5969640 100.3436270 111.5961610   9.9841890 100.8683920
 111.0582700  10.7087950 100.5492620 111.8495570   9.5072230 100.0781260
 114.4523820  11.2193100 101.1270570 114.3782520  12.1228240 101.4342940
 113.5502660  10.9005000 101.0992640 115.0009150  10.3851610  88.7496930
 115.8959940  10.7236580  88.7715690 115.0326780   9.6631020  88.1221210
 108.6405310   5.7578660  86.9783930 109.0780180   6.3008330  87.6341510
 109.1253040   4.9325610  86.9880270 105.8551110   8.5467690  94.4304190
 106.1854120   7.6788750  94.1982830 106.2842110   8.7526210  95.2609150
 110.4513030   6.8776700  92.0906160 110.1508570   6.7541670  92.9910070
 110.3450520   6.0185290  91.6821890 106.3441320   9.4138280  97.1685820
 105.9072310   9.5939080  98.0009970 106.9119000  10.1712900  97.0267540
 121.9803500   8.9155280 101.4563130 121.3805490   8.9747840 100.7127050
 122.1097400   7.9760260 101.5859980 123.2204950   6.6573100  86.7932840
 122.3897910   6.7249750  87.2640070 123.3976780   7.5477220  86.4899700
 122.6761410   3.4020580  89.2967040 123.4380320   3.9717230  89.4026730
 122.6915780   2.8347780  90.0675350 106.1765750   1.9258510  93.5274700
 105.5214590   1.6570150  92.8834400 107.0143700   1.8162990  93.0776680
 123.6821380   4.2570680  94.1408970 124.0530210   3.4738000  93.7344940
 124.3223310   4.9459780  93.9626270 120.6655140   5.6407260  99.5539290
 119.8514980   6.0704420  99.8165080 121.0729340   6.2525670  98.9408340
 122.7280580   3.6954950  86.4539560 123.0029420   4.6033830  86.3258780
 122.5391320   3.6317480  87.3901550 120.7231190  10.3925860  93.0807560
 121.3190260  10.0710430  92.4041980 120.9809340   9.9197680  93.8720830
 108.6293760   6.8243770 103.2298190 108.5863390   6.4536680 104.1112650
 108.7604770   7.7621340 103.3700010 112.3299790   8.3803360  98.8307910
 112.0891150   8.6477920  97.9438430 113.2702430   8.5509090  98.8858770
 123.5903950  10.3997740  99.6318550 123.0962230  10.7966610  98.9145680
 122.9817240   9.7746950 100.0255830 108.4681790   9.7706020 100.3495970
 107.8742110   9.6390720 101.0886010 108.4605630   8.9344160  99.8838070
 121.2743400  11.0421160  96.9105290 120.8146370  11.7936970  96.5363310
 120.6455860  10.3227630  96.8520090 108.0994020   7.1364400  99.3004010
 107.3728080   6.5169690  99.2329960 108.1603170   7.5305010  98.4302090
 111.7039120   9.3509400  96.0853420 112.2204140   8.7396760  95.5601680
 112.3536500   9.8538180  96.5764430 114.4434620  10.2417890  96.9122400
 114.7312430   9.9872190  96.0355410 114.9557840   9.6895250  97.5027970
 106.3824020  10.4538790  92.5100770 106.2146060   9.8209470  93.2082660
 105.5158530  10.6598190  92.1594960 107.9886720   9.1472020  89.9550910
 107.4634340   9.5280050  89.2512870 107.9131300   9.7722790  90.6760620
 114.5106980  11.1633990 104.2790600 115.4374290  10.9278260 104.3226560
 114.4957410  11.9905990 103.7976630 122.7452040  10.7059560  91.2764850
 122.9204230  10.0197300  90.6325770 122.0473610  11.2306610  90.8841520
 110.5879690  11.0954400  88.8300160 111.3198510  10.8113680  88.2824050
 110.8473360  10.8567680  89.7199540 109.7494480   7.2119130  88.8346490
 109.1203360   7.6804230  89.3832320 109.8642310   6.3668350  89.2692680
 121.0784540  10.3903850 104.1031640 121.8709860   9.8953080 103.8957600
 121.3717690  11.0693990 104.7107250 115.3362240   3.0403810  76.8656960
 114.5604340   2.5604250  77.1555530 115.9875170   2.3609460  76.6913120
 109.3528070   3.3523620  77.7432720 108.5212950   3.0972330  78.1429230
 109.9609050   3.4234390  78.4790640 119.3569670   7.4464000  75.6456090
 118.8951200   6.6751240  75.9743260 120.1695220   7.4730070  76.1508540
 109.3329330   7.3863710  77.9390740 109.6357370   6.4961450  77.7600960
 110.0772920   7.9433930  77.7112990 115.5832980   9.7322010  75.2660080
 114.9644420  10.1879510  74.6954520 116.4384760   9.8873470  74.8649780
 114.7771230   5.7161000  76.8727120 114.7079510   4.7750940  76.7116250
 115.5391090   5.8062410  77.4449690 116.4496330   4.6161250  72.6591990
 115.8313600   5.0810700  72.0954710 116.9619580   5.3088730  73.0761500
 111.3128090   4.1437120  79.3375590 110.9797470   4.7706040  79.9796660
 111.4894770   4.6699000  78.5577260 110.5247190   6.1117920  81.1524770
 111.1421190   6.7869000  80.8709220 109.6640310   6.5205900  81.0612270
 105.8179530   5.3017780  70.0331620 105.4407510   5.7904880  69.3016520
 106.0752600   5.9743060  70.6638150 121.4424780   7.5757330  79.0679410
 120.7588300   8.2456440  79.0596080 121.9819070   7.7737980  78.3024270
 118.9783520   9.4201460  77.7824590 118.9910680   9.0163750  76.9146850
 118.4258740  10.1948750  77.6786020 120.2728940   6.1417680  72.8714760
 120.1625270   5.1992010  72.9964180 120.2697190   6.5033320  73.7577520
 118.3768960   4.3231300  79.1107200 118.7937750   4.1091410  78.2760660
 119.1008780   4.5804090  79.6815820 115.8149220   1.7683000  72.2277250
 114.8878500   1.7020380  72.4565720 115.9674040   2.7063130  72.1132490
 122.3231060   2.7218520  79.2023440 121.4949690   2.7911610  78.7273570
 122.9181540   3.3072830  78.7339270 119.8446510   3.3303300  72.7312500
 119.2258930   2.9922850  72.0838800 119.8270960   2.6863060  73.4391690
 111.8887560   5.9815300  77.1736190 111.5915850   5.3760770  76.4943970
 112.8387380   6.0192610  77.0625550 119.9773170   9.5547170  80.8359290
 119.5003730  10.3619360  80.6431900 119.2934960   8.9025500  80.9885500
 110.9805990   5.7196990  83.8243990 110.0834520   5.9436960  84.0717390
 111.0058860   5.8431930  82.8755390 118.0211210   2.5690110  69.7385250
 118.4604490   1.7312540  69.5923070 118.7339630   3.2019510  69.8249390
 109.8077210   2.5910310  82.4001360 109.6684980   3.4633110  82.7688760
 108.9258570   2.2483120  82.2549300 116.1306590   7.5086180  73.7066490
 116.5702500   8.2510510  73.2921880 116.0693480   7.7512750  74.6305450
 111.6057560   8.5332010  84.6086510 111.5772990   8.9374960  83.7414940
 111.4422530   7.6042370  84.4458110 123.5572380   9.3159110  85.9050680
 124.0332100   9.7942000  86.5839760 124.1779540   9.2476600  85.1796180
 105.7595860   4.3607860  78.3172270 105.8376280   4.4956630  77.3727990
 106.3737540   3.6523750  78.5100390 107.0043490   6.0608050  74.7278450
 106.5971570   6.2022640  73.8732050 107.8956500   5.7768210  74.5249660
 122.9605630   6.5071960  83.0650690 123.0868690   6.2683840  82.1467870
 123.0027010   5.6756500  83.5372770 116.8222370  10.2099960  81.6345500
 117.3367040  10.1207970  82.4367930 115.9791450  10.5559660  81.9273410
 118.7976770  10.4955300  71.0629500 118.6377910  10.2058240  71.9611330
 118.6323480   9.7195430  70.5274730 111.2765150  10.2753830  72.8401120
 111.1007630   9.3589370  72.6268920 110.4220890  10.6341120  73.0798920
 118.5002900   8.0042860  69.6227500 117.8068060   8.0020150  68.9629780
 119.2425760   7.5802180  69.1921670 118.0652830   9.6305570  73.6975990
 118.5209780   8.8494950  74.0114610 118.4045350  10.3412390  74.2417170
 105.8155380   5.4022030  80.8566730 105.9786420   4.9327390  80.0386100
 106.2807830   4.8945590  81.5215570 107.3894360   4.7773460  83.0162540
 107.0049150   4.1367130  83.6145500 107.7006550   5.4809580  83.5857270
 109.8572660   4.8719630  71.4122220 109.0834920   4.3317250  71.2520940
 110.5867290   4.3526240  71.0739980 120.6160640   3.8684990  77.2048610
 121.3359760   4.3640280  76.8144720 120.4142460   3.1902880  76.5602480
 115.9979440   3.9394050  83.0917610 115.9316750   3.0189720  82.8375200
 115.3684580   4.0369490  83.8062250 109.9010060   4.5400010  75.0501030
 110.4188730   3.7368270  74.9957920 109.4494080   4.4779150  75.8917860
 114.7879560   5.8066290  70.3228330 115.1295260   6.5508520  69.8271650
 113.9592270   6.1197410  70.6853160 115.9296170   6.7614620  82.8421410
 115.9440710   5.8295580  82.6240320 115.2221270   6.8474380  83.4811180
 122.1407380   3.4021960  82.1889990 121.4155570   3.9950740  81.9919380
 122.6682840   3.3945500  81.3903360 122.0920490   7.7996700  71.8402150
 121.4496650   7.1452320  72.1145870 121.7051150   8.2051790  71.0642820
 117.6706970   5.1282130  75.6873840 118.0230790   4.5310260  75.0275210
 116.7869300   4.8026360  75.8582090 113.7570250   5.8879820  73.0944250
 114.4441380   6.4349030  73.4751840 112.9702670   6.4320550  73.1293860
 113.0597460   2.8925850  72.7069610 113.5160240   3.7031100  72.9329800
 112.7085670   2.5748990  73.5388100 115.3630070   8.4032190  79.9361910
 116.0072290   8.6091570  80.6135330 115.7259510   7.6420590  79.4832760
 116.6362150   6.4064540  78.6539360 117.2784380   5.7057700  78.7671530
 117.1611500   7.1862980  78.4736250 120.4817870   6.6913160  68.3778500
 120.2555450   5.9743600  68.9703140 120.0914070   6.4425600  67.5400250
 118.4099770   7.2059440  81.8575420 118.7456010   7.7926130  82.5353340
 117.4900110   7.0752150  82.0873210 106.2633900  10.7180020  69.1522960
 106.6231540  11.3169360  68.4980230 106.1226240  11.2639910  69.9257990
 120.0634120   4.6085100  70.0392660 119.7755820   5.0697790  70.8270540
 120.8586290   4.1482870  70.3076880 106.2475760   8.9834880  83.6265360
 106.3566880   8.0429620  83.4860750 105.5956320   9.2489630  82.9779090
 114.2388350   7.2550770  85.0263480 113.9185220   6.5360010  85.5709170
 113.5646710   7.9305840  85.0999540 112.2802520   8.1011220  69.9696630
 112.2712620   8.8340910  69.3541140 111.3600880   7.8542800  70.0623590
 107.8809160   3.3226110  70.7143390 107.2737110   4.0625010  70.7238690
 108.3558510   3.4125470  69.8881590 115.2662120   8.1639460  68.6321820
 115.3674100   7.9603450  67.7023800 114.3663860   7.9097740  68.8369600
 113.9080230  10.6825780  73.3269490 114.1621730  10.6447170  72.4048860
 112.9592710  10.5559110  73.3197740 109.8914450   3.2837260  68.4631960
 110.6577720   3.1718620  69.0257390 109.9689140   2.5875230  67.8108730
 121.9158390   8.7726510  76.5782260 122.0405810   9.5957680  77.0506070
 122.7823950   8.5617240  76.2306410 109.3875920  10.8657720  76.2499390
 110.1238400  10.3173180  76.5207960 109.7716840  11.7313730  76.1105380
 106.2721400   6.9331290  72.1240900 105.3461180   7.1752430  72.1146310
 106.7377830   7.7605550  72.0025650 108.3934200  10.0503790  85.4384970
 109.1946930  10.3715840  85.8520370 107.8786020   9.6899370  86.1604880
 112.4978230  10.0388030  68.0724960 113.2906840  10.3276860  67.6206750
 111.9782580   9.6080200  67.3937440 117.2298830   6.1583660  85.3860380
 116.6236990   6.1815260  84.6456130 116.9252940   5.4266700  85.9227630
 118.6599200   9.8863950  83.9969790 119.6120950   9.8021970  83.9470030
 118.5127420  10.5505660  84.6703580 121.5508400   9.2658160  69.4961700
 121.2649910   8.8523300  68.6815880 121.3527950  10.1945870  69.3762220
 106.1132010   2.5377250  84.3821020 106.6171030   1.9584530  84.9537250
 105.3739430   2.8217480  84.9197390 113.0155630   5.2591440  67.9367310
 112.9106270   4.6443790  68.6628690 112.8479850   4.7357330  67.1530320
 113.1669950   3.9448240  83.9156540 112.4015620   4.5133240  83.8311210
 113.3485910   3.6524450  83.0224770 116.2558360   4.3211470  68.5409300
 115.7068460   4.7680770  69.1852040 116.8777620   3.8160720  69.0646970
 120.3093300   5.6753570  84.4731560 121.0502770   6.0129330  83.9699020
 119.5465980   5.8445630  83.9201330 111.9233480   3.2802390  70.4374600
 112.3449900   3.1142260  71.2805990 112.0484320   2.4702620  69.9429740
 118.9838960   3.7268400  83.0086770 119.3979980   3.8813480  83.8577190
 118.0489960   3.8523620  83.1712550 113.7454190   3.6788880  80.9782700
 114.1642300   4.5221610  80.8058940 112.8262820   3.8160920  80.7489480
 118.4205990   1.9642250  80.9383050 117.8941210   2.4884870  80.3348190
 118.7637330   2.5969640  81.5692780 111.5961610   9.9841890  82.0940430
 111.0582700  10.7087950  81.7749130 111.8495570   9.5072230  81.3037770
 114.4523820  11.2193100  82.3527080 114.3782520  12.1228240  82.6599450
 113.5502660  10.9005000  82.3249150 115.0009150  10.3851610  69.9753440
 115.8959940  10.7236580  69.9972200 115.0326780   9.6631020  69.3477720
 108.6405310   5.7578660  68.2040440 109.0780180   6.3008330  68.8598020
 109.1253040   4.9325610  68.2136780 105.8551110   8.5467690  75.6560700
 106.1854120   7.6788750  75.4239340 106.2842110   8.7526210  76.4865660
 110.4513030   6.8776700  73.3162670 110.1508570   6.7541670  74.2166580
 110.3450520   6.0185290  72.9078400 106.3441320   9.4138280  78.3942330
 105.9072310   9.5939080  79.2266480 106.9119000  10.1712900  78.2524050
 121.9803500   8.9155280  82.6819640 121.3805490   8.9747840  81.9383560
 122.1097400   7.9760260  82.8116490 123.2204950   6.6573100  68.0189350
 122.3897910   6.7249750  68.4896580 123.3976780   7.5477220  67.7156210
 122.6761410   3.4020580  70.5223550 123.4380320   3.9717230  70.6283240
 122.6915780   2.8347780  71.2931860 106.1765750   1.9258510  74.7531210
 105.5214590   1.6570150  74.1090910 107.0143700   1.8162990  74.3033190
 123.6821380   4.2570680  75.3665480 124.0530210   3.4738000  74.9601450
 124.3223310   4.9459780  75.1882780 120.6655140   5.6407260  80.7795800
 119.8514980   6.0704420  81.0421590 121.0729340   6.2525670  80.1664850
 122.7280580   3.6954950  67.6796070 123.0029420   4.6033830  67.5515290
 122.5391320   3.6317480  68.6158060 120.7231190  10.3925860  74.3064070
 121.3190260  10.0710430  73.6298490 120.9809340   9.9197680  75.0977340
 108.6293760   6.8243770  84.4554700 108.5863390   6.4536680  85.3369160
 108.7604770   7.7621340  84.5956520 112.3299790   8.3803360  80.0564420
 112.0891150   8.6477920  79.1694940 113.2702430   8.5509090  80.1115280
 123.5903950  10.3997740  80.8575060 123.0962230  10.7966610  80.1402190
 122.9817240   9.7746950  81.2512340 108.4681790   9.7706020  81.5752480
 107.8742110   9.6390720  82.3142520 108.4605630   8.9344160  81.1094580
 121.2743400  11.0421160  78.1361800 120.8146370  11.7936970  77.7619820
 120.6455860  10.3227630  78.0776600 108.0994020   7.1364400  80.5260520
 107.3728080   6.5169690  80.4586470 108.1603170   7.5305010  79.6558600
 111.7039120   9.3509400  77.3109930 112.2204140   8.7396760  76.7858190
 112.3536500   9.8538180  77.8020940 114.4434620  10.2417890  78.1378910
 114.7312430   9.9872190  77.2611920 114.9557840   9.6895250  78.7284480
 106.3824020  10.4538790  73.7357280 106.2146060   9.8209470  74.4339170
 105.5158530  10.6598190  73.3851470 107.9886720   9.1472020  71.1807420
 107.4634340   9.5280050  70.4769380 107.9131300   9.7722790  71.9017130
 114.5106980  11.1633990  85.5047110 115.4374290  10.9278260  85.5483070
 114.4957410  11.9905990  85.0233140 122.7452040  10.7059560  72.5021360
 122.9204230  10.0197300  71.8582280 122.0473610  11.2306610  72.1098030
 110.5879690  11.0954400  70.0556670 111.3198510  10.8113680  69.5080560
 110.8473360  10.8567680  70.9456050 109.7494480   7.2119130  70.0603000
 109.1203360   7.6804230  70.6088830 109.8642310   6.3668350  70.4949190
 121.0784540  10.3903850  85.3288150 121.8709860   9.8953080  85.1214110
 121.3717690  11.0693990  85.9363760 115.3362240   3.0403810  58.0913470
 114.5604340   2.5604250  58.3812040 115.9875170   2.3609460  57.9169630
 109.3528070   3.3523620  58.9689230 108.5212950   3.0972330  59.3685740
 109.9609050   3.4234390  59.7047150 119.3569670   7.4464000  56.8712600
 118.8951200   6.6751240  57.1999770 120.1695220   7.4730070  57.3765050
 109.3329330   7.3863710  59.1647250 109.6357370   6.4961450  58.9857470
 110.0772920   7.9433930  58.9369500 115.5832980   9.7322010  56.4916590
 114.9644420  10.1879510  55.9211030 116.4384760   9.8873470  56.0906290
 114.7771230   5.7161000  58.0983630 114.7079510   4.7750940  57.9372760
 115.5391090   5.8062410  58.6706200 116.4496330   4.6161250  53.8848500
 115.8313600   5.0810700  53.3211220 116.9619580   5.3088730  54.3018010
 111.3128090   4.1437120  60.5632100 110.9797470   4.7706040  61.2053170
 111.4894770   4.6699000  59.7833770 110.5247190   6.1117920  62.3781280
 111.1421190   6.7869000  62.0965730 109.6640310   6.5205900  62.2868780
 105.8179530   5.3017780  51.2588130 105.4407510   5.7904880  50.5273030
 106.0752600   5.9743060  51.8894660 121.4424780   7.5757330  60.2935920
 120.7588300   8.2456440  60.2852590 121.9819070   7.7737980  59.5280780
 118.9783520   9.4201460  59.0081100 118.9910680   9.0163750  58.1403360
 118.4258740  10.1948750  58.9042530 120.2728940   6.1417680  54.0971270
 120.1625270   5.1992010  54.2220690 120.2697190   6.5033320  54.9834030
 118.3768960   4.3231300  60.3363710 118.7937750   4.1091410  59.5017170
 119.1008780   4.5804090  60.9072330 115.8149220   1.7683000  53.4533760
 114.8878500   1.7020380  53.6822230 115.9674040   2.7063130  53.3389000
 122.3231060   2.7218520  60.4279950 121.4949690   2.7911610  59.9530080
 122.9181540   3.3072830  59.9595780 119.8446510   3.3303300  53.9569010
 119.2258930   2.9922850  53.3095310 119.8270960   2.6863060  54.6648200
 111.8887560   5.9815300  58.3992700 111.5915850   5.3760770  57.7200480
 112.8387380   6.0192610  58.2882060 119.9773170   9.5547170  62.0615800
 119.5003730  10.3619360  61.8688410 119.2934960   8.9025500  62.2142010
 110.9805990   5.7196990  65.0500500 110.0834520   5.9436960  65.2973900
 111.0058860   5.8431930  64.1011900 118.0211210   2.5690110  50.9641760
 118.4604490   1.7312540  50.8179580 118.7339630   3.2019510  51.0505900
 109.8077210   2.5910310  63.6257870 109.6684980   3.4633110  63.9945270
 108.9258570   2.2483120  63.4805810 116.1306590   7.5086180  54.9323000
 116.5702500   8.2510510  54.5178390 116.0693480   7.7512750  55.8561960
 111.6057560   8.5332010  65.8343020 111.5772990   8.9374960  64.9671450
 111.4422530   7.6042370  65.6714620 123.5572380   9.3159110  67.1307190
 124.0332100   9.7942000  67.8096270 124.1779540   9.2476600  66.4052690
 105.7595860   4.3607860  59.5428780 105.8376280   4.4956630  58.5984500
 106.3737540   3.6523750  59.7356900 107.0043490   6.0608050  55.9534960
 106.5971570   6.2022640  55.0988560 107.8956500   5.7768210  55.7506170
 122.9605630   6.5071960  64.2907200 123.0868690   6.2683840  63.3724380
 123.0027010   5.6756500  64.7629280 116.8222370  10.2099960  62.8602010
 117.3367040  10.1207970  63.6624440 115.9791450  10.5559660  63.1529920
 118.7976770  10.4955300  52.2886010 118.6377910  10.2058240  53.1867840
 118.6323480   9.7195430  51.7531240 111.2765150  10.2753830  54.0657630
 111.1007630   9.3589370  53.8525430 110.4220890  10.6341120  54.3055430
 118.5002900   8.0042860  50.8484010 117.8068060   8.0020150  50.1886290
 119.2425760   7.5802180  50.4178180 118.0652830   9.6305570  54.9232500
 118.5209780   8.8494950  55.2371120 118.4045350  10.3412390  55.4673680
 105.8155380   5.4022030  62.0823240 105.9786420   4.9327390  61.2642610
 106.2807830   4.8945590  62.7472080 107.3894360   4.7773460  64.2419050
 107.0049150   4.1367130  64.8402010 107.7006550   5.4809580  64.8113780
 109.8572660   4.8719630  52.6378730 109.0834920   4.3317250  52.4777450
 110.5867290   4.3526240  52.2996490 120.6160640   3.8684990  58.4305120
 121.3359760   4.3640280  58.0401230 120.4142460   3.1902880  57.7858990
 115.9979440   3.9394050  64.3174120 115.9316750   3.0189720  64.0631710
 115.3684580   4.0369490  65.0318760 109.9010060   4.5400010  56.2757540
 110.4188730   3.7368270  56.2214430 109.4494080   4.4779150  57.1174370
 114.7879560   5.8066290  51.5484840 115.1295260   6.5508520  51.0528160
 113.9592270   6.1197410  51.9109670 115.9296170   6.7614620  64.0677920
 115.9440710   5.8295580  63.8496830 115.2221270   6.8474380  64.7067690
 122.1407380   3.4021960  63.4146500 121.4155570   3.9950740  63.2175890
 122.6682840   3.3945500  62.6159870 122.0920490   7.7996700  53.0658660
 121.4496650   7.1452320  53.3402380 121.7051150   8.2051790  52.2899330
 117.6706970   5.1282130  56.9130350 118.0230790   4.5310260  56.2531720
 116.7869300   4.8026360  57.0838600 113.7570250   5.8879820  54.3200760
 114.4441380   6.4349030  54.7008350 112.9702670   6.4320550  54.3550370
 113.0597460   2.8925850  53.9326120 113.5160240   3.7031100  54.1586310
 112.7085670   2.5748990  54.7644610 115.3630070   8.4032190  61.1618420
 116.0072290   8.6091570  61.8391840 115.7259510   7.6420590  60.7089270
 116.6362150   6.4064540  59.8795870 117.2784380   5.7057700  59.9928040
 117.1611500   7.1862980  59.6992760 120.4817870   6.6913160  49.6035010
 120.2555450   5.9743600  50.1959650 120.0914070   6.4425600  48.7656760
 118.4099770   7.2059440  63.0831930 118.7456010   7.7926130  63.7609850
 117.4900110   7.0752150  63.3129720 106.2633900  10.7180020  50.3779470
 106.6231540  11.3169360  49.7236740 106.1226240  11.2639910  51.1514500
 120.0634120   4.6085100  51.2649170 119.7755820   5.0697790  52.0527050
 120.8586290   4.1482870  51.5333390 106.2475760   8.9834880  64.8521870
 106.3566880   8.0429620  64.7117260 105.5956320   9.2489630  64.2035600
 114.2388350   7.2550770  66.2519990 113.9185220   6.5360010  66.7965680
 113.5646710   7.9305840  66.3256050 112.2802520   8.1011220  51.1953140
 112.2712620   8.8340910  50.5797650 111.3600880   7.8542800  51.2880100
 107.8809160   3.3226110  51.9399900 107.2737110   4.0625010  51.9495200
 108.3558510   3.4125470  51.1138100 115.2662120   8.1639460  49.8578330
 115.3674100   7.9603450  48.9280310 114.3663860   7.9097740  50.0626110
 113.9080230  10.6825780  54.5526000 114.1621730  10.6447170  53.6305370
 112.9592710  10.5559110  54.5454250 109.8914450   3.2837260  49.6888470
 110.6577720   3.1718620  50.2513900 109.9689140   2.5875230  49.0365240
 121.9158390   8.7726510  57.8038770 122.0405810   9.5957680  58.2762580
 122.7823950   8.5617240  57.4562920 109.3875920  10.8657720  57.4755900
 110.1238400  10.3173180  57.7464470 109.7716840  11.7313730  57.3361890
 106.2721400   6.9331290  53.3497410 105.3461180   7.1752430  53.3402820
 106.7377830   7.7605550  53.2282160 108.3934200  10.0503790  66.6641480
 109.1946930  10.3715840  67.0776880 107.8786020   9.6899370  67.3861390
 112.4978230  10.0388030  49.2981470 113.2906840  10.3276860  48.8463260
 111.9782580   9.6080200  48.6193950 117.2298830   6.1583660  66.6116890
 116.6236990   6.1815260  65.8712640 116.9252940   5.4266700  67.1484140
 118.6599200   9.8863950  65.2226300 119.6120950   9.8021970  65.1726540
 118.5127420  10.5505660  65.8960090 121.5508400   9.2658160  50.7218210
 121.2649910   8.8523300  49.9072390 121.3527950  10.1945870  50.6018730
 106.1132010   2.5377250  65.6077530 106.6171030   1.9584530  66.1793760
 105.3739430   2.8217480  66.1453900 113.0155630   5.2591440  49.1623820
 112.9106270   4.6443790  49.8885200 112.8479850   4.7357330  48.3786830
 113.1669950   3.9448240  65.1413050 112.4015620   4.5133240  65.0567720
 113.3485910   3.6524450  64.2481280 116.2558360   4.3211470  49.7665810
 115.7068460   4.7680770  50.4108550 116.8777620   3.8160720  50.2903480
 120.3093300   5.6753570  65.6988070 121.0502770   6.0129330  65.1955530
 119.5465980   5.8445630  65.1457840 111.9233480   3.2802390  51.6631110
 112.3449900   3.1142260  52.5062500 112.0484320   2.4702620  51.1686250
 118.9838960   3.7268400  64.2343280 119.3979980   3.8813480  65.0833700
 118.0489960   3.8523620  64.3969060 113.7454190   3.6788880  62.2039210
 114.1642300   4.5221610  62.0315450 112.8262820   3.8160920  61.9745990
 118.4205990   1.9642250  62.1639560 117.8941210   2.4884870  61.5604700
 118.7637330   2.5969640  62.7949290 111.5961610   9.9841890  63.3196940
 111.0582700  10.7087950  63.0005640 111.8495570   9.5072230  62.5294280
 114.4523820  11.2193100  63.5783590 114.3782520  12.1228240  63.8855960
 113.5502660  10.9005000  63.5505660 115.0009150  10.3851610  51.2009950
 115.8959940  10.7236580  51.2228710 115.0326780   9.6631020  50.5734230
 108.6405310   5.7578660  49.4296950 109.0780180   6.3008330  50.0854530
 109.1253040   4.9325610  49.4393290 105.8551110   8.5467690  56.8817210
 106.1854120   7.6788750  56.6495850 106.2842110   8.7526210  57.7122170
 110.4513030   6.8776700  54.5419180 110.1508570   6.7541670  55.4423090
 110.3450520   6.0185290  54.1334910 106.3441320   9.4138280  59.6198840
 105.9072310   9.5939080  60.4522990 106.9119000  10.1712900  59.4780560
 121.9803500   8.9155280  63.9076150 121.3805490   8.9747840  63.1640070
 122.1097400   7.9760260  64.0373000 123.2204950   6.6573100  49.2445860
 122.3897910   6.7249750  49.7153090 123.3976780   7.5477220  48.9412720
 122.6761410   3.4020580  51.7480060 123.4380320   3.9717230  51.8539750
 122.6915780   2.8347780  52.5188370 106.1765750   1.9258510  55.9787720
 105.5214590   1.6570150  55.3347420 107.0143700   1.8162990  55.5289700
 123.6821380   4.2570680  56.5921990 124.0530210   3.4738000  56.1857960
 124.3223310   4.9459780  56.4139290 120.6655140   5.6407260  62.0052310
 119.8514980   6.0704420  62.2678100 121.0729340   6.2525670  61.3921360
 122.7280580   3.6954950  48.9052580 123.0029420   4.6033830  48.7771800
 122.5391320   3.6317480  49.8414570 120.7231190  10.3925860  55.5320580
 121.3190260  10.0710430  54.8555000 120.9809340   9.9197680  56.3233850
 108.6293760   6.8243770  65.6811210 108.5863390   6.4536680  66.5625670
 108.7604770   7.7621340  65.8213030 112.3299790   8.3803360  61.2820930
 112.0891150   8.6477920  60.3951450 113.2702430   8.5509090  61.3371790
 123.5903950  10.3997740  62.0831570 123.0962230  10.7966610  61.3658700
 122.9817240   9.7746950  62.4768850 108.4681790   9.7706020  62.8008990
 107.8742110   9.6390720  63.5399030 108.4605630   8.9344160  62.3351090
 121.2743400  11.0421160  59.3618310 120.8146370  11.7936970  58.9876330
 120.6455860  10.3227630  59.3033110 108.0994020   7.1364400  61.7517030
 107.3728080   6.5169690  61.6842980 108.1603170   7.5305010  60.8815110
 111.7039120   9.3509400  58.5366440 112.2204140   8.7396760  58.0114700
 112.3536500   9.8538180  59.0277450 114.4434620  10.2417890  59.3635420
 114.7312430   9.9872190  58.4868430 114.9557840   9.6895250  59.9540990
 106.3824020  10.4538790  54.9613790 106.2146060   9.8209470  55.6595680
 105.5158530  10.6598190  54.6107980 107.9886720   9.1472020  52.4063930
 107.4634340   9.5280050  51.7025890 107.9131300   9.7722790  53.1273640
 114.5106980  11.1633990  66.7303620 115.4374290  10.9278260  66.7739580
 114.4957410  11.9905990  66.2489650 122.7452040  10.7059560  53.7277870
 122.9204230  10.0197300  53.0838790 122.0473610  11.2306610  53.3354540
 110.5879690  11.0954400  51.2813180 111.3198510  10.8113680  50.7337070
 110.8473360  10.8567680  52.1712560 109.7494480   7.2119130  51.2859510
 109.1203360   7.6804230  51.8345340 109.8642310   6.3668350  51.7205700
 121.0784540  10.3903850  66.5544660 121.8709860   9.8953080  66.3470620
 121.3717690  11.0693990  67.1620270 115.3362240   3.0403810  39.3169980
 114.5604340   2.5604250  39.6068550 115.9875170   2.3609460  39.1426140
 109.3528070   3.3523620  40.1945740 108.5212950   3.0972330  40.5942250
 109.9609050   3.4234390  40.9303660 119.3569670   7.4464000  38.0969110
 118.8951200   6.6751240  38.4256280 120.1695220   7.4730070  38.6021560
 109.3329330   7.3863710  40.3903760 109.6357370   6.4961450  40.2113980
 110.0772920   7.9433930  40.1626010 115.5832980   9.7322010  37.7173100
 114.9644420  10.1879510  37.1467540 116.4384760   9.8873470  37.3162800
 114.7771230   5.7161000  39.3240140 114.7079510   4.7750940  39.1629270
 115.5391090   5.8062410  39.8962710 116.4496330   4.6161250  35.1105010
 115.8313600   5.0810700  34.5467730 116.9619580   5.3088730  35.5274520
 111.3128090   4.1437120  41.7888610 110.9797470   4.7706040  42.4309680
 111.4894770   4.6699000  41.0090280 110.5247190   6.1117920  43.6037790
 111.1421190   6.7869000  43.3222240 109.6640310   6.5205900  43.5125290
 105.8179530   5.3017780  32.4844640 105.4407510   5.7904880  31.7529540
 106.0752600   5.9743060  33.1151170 121.4424780   7.5757330  41.5192430
 120.7588300   8.2456440  41.5109100 121.9819070   7.7737980  40.7537290
 118.9783520   9.4201460  40.2337610 118.9910680   9.0163750  39.3659870
 118.4258740  10.1948750  40.1299040 120.2728940   6.1417680  35.3227780
 120.1625270   5.1992010  35.4477200 120.2697190   6.5033320  36.2090540
 118.3768960   4.3231300  41.5620220 118.7937750   4.1091410  40.7273680
 119.1008780   4.5804090  42.1328840 115.8149220   1.7683000  34.6790270
 114.8878500   1.7020380  34.9078740 115.9674040   2.7063130  34.5645510
 122.3231060   2.7218520  41.6536460 121.4949690   2.7911610  41.1786590
 122.9181540   3.3072830  41.1852290 119.8446510   3.3303300  35.1825520
 119.2258930   2.9922850  34.5351820 119.8270960   2.6863060  35.8904710
 111.8887560   5.9815300  39.6249210 111.5915850   5.3760770  38.9456990
 112.8387380   6.0192610  39.5138570 119.9773170   9.5547170  43.2872310
 119.5003730  10.3619360  43.0944920 119.2934960   8.9025500  43.4398520
 110.9805990   5.7196990  46.2757010 110.0834520   5.9436960  46.5230410
 111.0058860   5.8431930  45.3268410 118.0211210   2.5690110  32.1898270
 118.4604490   1.7312540  32.0436090 118.7339630   3.2019510  32.2762410
 109.8077210   2.5910310  44.8514380 109.6684980   3.4633110  45.2201780
 108.9258570   2.2483120  44.7062320 116.1306590   7.5086180  36.1579510
 116.5702500   8.2510510  35.7434900 116.0693480   7.7512750  37.0818470
 111.6057560   8.5332010  47.0599530 111.5772990   8.9374960  46.1927960
 111.4422530   7.6042370  46.8971130 123.5572380   9.3159110  48.3563700
 124.0332100   9.7942000  49.0352780 124.1779540   9.2476600  47.6309200
 105.7595860   4.3607860  40.7685290 105.8376280   4.4956630  39.8241010
 106.3737540   3.6523750  40.9613410 107.0043490   6.0608050  37.1791470
 106.5971570   6.2022640  36.3245070 107.8956500   5.7768210  36.9762680
 122.9605630   6.5071960  45.5163710 123.0868690   6.2683840  44.5980890
 123.0027010   5.6756500  45.9885790 116.8222370  10.2099960  44.0858520
 117.3367040  10.1207970  44.8880950 115.9791450  10.5559660  44.3786430
 118.7976770  10.4955300  33.5142520 118.6377910  10.2058240  34.4124350
 118.6323480   9.7195430  32.9787750 111.2765150  10.2753830  35.2914140
 111.1007630   9.3589370  35.0781940 110.4220890  10.6341120  35.5311940
 118.5002900   8.0042860  32.0740520 117.8068060   8.0020150  31.4142800
 119.2425760   7.5802180  31.6434690 118.0652830   9.6305570  36.1489010
 118.5209780   8.8494950  36.4627630 118.4045350  10.3412390  36.6930190
 105.8155380   5.4022030  43.3079750 105.9786420   4.9327390  42.4899120
 106.2807830   4.8945590  43.9728590 107.3894360   4.7773460  45.4675560
 107.0049150   4.1367130  46.0658520 107.7006550   5.4809580  46.0370290
 109.8572660   4.8719630  33.8635240 109.0834920   4.3317250  33.7033960
 110.5867290   4.3526240  33.5253000 120.6160640   3.8684990  39.6561630
 121.3359760   4.3640280  39.2657740 120.4142460   3.1902880  39.0115500
 115.9979440   3.9394050  45.5430630 115.9316750   3.0189720  45.2888220
 115.3684580   4.0369490  46.2575270 109.9010060   4.5400010  37.5014050
 110.4188730   3.7368270  37.4470940 109.4494080   4.4779150  38.3430880
 114.7879560   5.8066290  32.7741350 115.1295260   6.5508520  32.2784670
 113.9592270   6.1197410  33.1366180 115.9296170   6.7614620  45.2934430
 115.9440710   5.8295580  45.0753340 115.2221270   6.8474380  45.9324200
 122.1407380   3.4021960  44.6403010 121.4155570   3.9950740  44.4432400
 122.6682840   3.3945500  43.8416380 122.0920490   7.7996700  34.2915170
 121.4496650   7.1452320  34.5658890 121.7051150   8.2051790  33.5155840
 117.6706970   5.1282130  38.1386860 118.0230790   4.5310260  37.4788230
 116.7869300   4.8026360  38.3095110 113.7570250   5.8879820  35.5457270
 114.4441380   6.4349030  35.9264860 112.9702670   6.4320550  35.5806880
 113.0597460   2.8925850  35.1582630 113.5160240   3.7031100  35.3842820
 112.7085670   2.5748990  35.9901120 115.3630070   8.4032190  42.3874930
 116.0072290   8.6091570  43.0648350 115.7259510   7.6420590  41.9345780
 116.6362150   6.4064540  41.1052380 117.2784380   5.7057700  41.2184550
 117.1611500   7.1862980  40.9249270 120.4817870   6.6913160  30.8291520
 120.2555450   5.9743600  31.4216160 120.0914070   6.4425600  29.9913270
 118.4099770   7.2059440  44.3088440 118.7456010   7.7926130  44.9866360
 117.4900110   7.0752150  44.5386230 106.2633900  10.7180020  31.6035980
 106.6231540  11.3169360  30.9493250 106.1226240  11.2639910  32.3771010
 120.0634120   4.6085100  32.4905680 119.7755820   5.0697790  33.2783560
 120.8586290   4.1482870  32.7589900 106.2475760   8.9834880  46.0778380
 106.3566880   8.0429620  45.9373770 105.5956320   9.2489630  45.4292110
 114.2388350   7.2550770  47.4776500 113.9185220   6.5360010  48.0222190
 113.5646710   7.9305840  47.5512560 112.2802520   8.1011220  32.4209650
 112.2712620   8.8340910  31.8054160 111.3600880   7.8542800  32.5136610
 107.8809160   3.3226110  33.1656410 107.2737110   4.0625010  33.1751710
 108.3558510   3.4125470  32.3394610 115.2662120   8.1639460  31.0834840
 115.3674100   7.9603450  30.1536820 114.3663860   7.9097740  31.2882620
 113.9080230  10.6825780  35.7782510 114.1621730  10.6447170  34.8561880
 112.9592710  10.5559110  35.7710760 109.8914450   3.2837260  30.9144980
 110.6577720   3.1718620  31.4770410 109.9689140   2.5875230  30.2621750
 121.9158390   8.7726510  39.0295280 122.0405810   9.5957680  39.5019090
 122.7823950   8.5617240  38.6819430 109.3875920  10.8657720  38.7012410
 110.1238400  10.3173180  38.9720980 109.7716840  11.7313730  38.5618400
 106.2721400   6.9331290  34.5753920 105.3461180   7.1752430  34.5659330
 106.7377830   7.7605550  34.4538670 108.3934200  10.0503790  47.8897990
 109.1946930  10.3715840  48.3033390 107.8786020   9.6899370  48.6117900
 112.4978230  10.0388030  30.5237980 113.2906840  10.3276860  30.0719770
 111.9782580   9.6080200  29.8450460 117.2298830   6.1583660  47.8373400
 116.6236990   6.1815260  47.0969150 116.9252940   5.4266700  48.3740650
 118.6599200   9.8863950  46.4482810 119.6120950   9.8021970  46.3983050
 118.5127420  10.5505660  47.1216600 121.5508400   9.2658160  31.9474720
 121.2649910   8.8523300  31.1328900 121.3527950  10.1945870  31.8275240
 106.1132010   2.5377250  46.8334040 106.6171030   1.9584530  47.4050270
 105.3739430   2.8217480  47.3710410 113.0155630   5.2591440  30.3880330
 112.9106270   4.6443790  31.1141710 112.8479850   4.7357330  29.6043340
 113.1669950   3.9448240  46.3669560 112.4015620   4.5133240  46.2824230
 113.3485910   3.6524450  45.4737790 116.2558360   4.3211470  30.9922320
 115.7068460   4.7680770  31.6365060 116.8777620   3.8160720  31.5159990
 120.3093300   5.6753570  46.9244580 121.0502770   6.0129330  46.4212040
 119.5465980   5.8445630  46.3714350 111.9233480   3.2802390  32.8887620
 112.3449900   3.1142260  33.7319010 112.0484320   2.4702620  32.3942760
 118.9838960   3.7268400  45.4599790 119.3979980   3.8813480  46.3090210
 118.0489960   3.8523620  45.6225570 113.7454190   3.6788880  43.4295720
 114.1642300   4.5221610  43.2571960 112.8262820   3.8160920  43.2002500
 118.4205990   1.9642250  43.3896070 117.8941210   2.4884870  42.7861210
 118.7637330   2.5969640  44.0205800 111.5961610   9.9841890  44.5453450
 111.0582700  10.7087950  44.2262150 111.8495570   9.5072230  43.7550790
 114.4523820  11.2193100  44.8040100 114.3782520  12.1228240  45.1112470
 113.5502660  10.9005000  44.7762170 115.0009150  10.3851610  32.4266460
 115.8959940  10.7236580  32.4485220 115.0326780   9.6631020  31.7990740
 108.6405310   5.7578660  30.6553460 109.0780180   6.3008330  31.3111040
 109.1253040   4.9325610  30.6649800 105.8551110   8.5467690  38.1073720
 106.1854120   7.6788750  37.8752360 106.2842110   8.7526210  38.9378680
 110.4513030   6.8776700  35.7675690 110.1508570   6.7541670  36.6679600
 110.3450520   6.0185290  35.3591420 106.3441320   9.4138280  40.8455350
 105.9072310   9.5939080  41.6779500 106.9119000  10.1712900  40.7037070
 121.9803500   8.9155280  45.1332660 121.3805490   8.9747840  44.3896580
 122.1097400   7.9760260  45.2629510 123.2204950   6.6573100  30.4702370
 122.3897910   6.7249750  30.9409600 123.3976780   7.5477220  30.1669230
 122.6761410   3.4020580  32.9736570 123.4380320   3.9717230  33.0796260
 122.6915780   2.8347780  33.7444880 106.1765750   1.9258510  37.2044230
 105.5214590   1.6570150  36.5603930 107.0143700   1.8162990  36.7546210
 123.6821380   4.2570680  37.8178500 124.0530210   3.4738000  37.4114470
 124.3223310   4.9459780  37.6395800 120.6655140   5.6407260  43.2308820
 119.8514980   6.0704420  43.4934610 121.0729340   6.2525670  42.6177870
 122.7280580   3.6954950  30.1309090 123.0029420   4.6033830  30.0028310
 122.5391320   3.6317480  31.0671080 120.7231190  10.3925860  36.7577090
 121.3190260  10.0710430  36.0811510 120.9809340   9.9197680  37.5490360
 108.6293760   6.8243770  46.9067720 108.5863390   6.4536680  47.7882180
 108.7604770   7.7621340  47.0469540 112.3299790   8.3803360  42.5077440
 112.0891150   8.6477920  41.6207960 113.2702430   8.5509090  42.5628300
 123.5903950  10.3997740  43.3088080 123.0962230  10.7966610  42.5915210
 122.9817240   9.7746950  43.7025360 108.4681790   9.7706020  44.0265500
 107.8742110   9.6390720  44.7655540 108.4605630   8.9344160  43.5607600
 121.2743400  11.0421160  40.5874820 120.8146370  11.7936970  40.2132840
 120.6455860  10.3227630  40.5289620 108.0994020   7.1364400  42.9773540
 107.3728080   6.5169690  42.9099490 108.1603170   7.5305010  42.1071620
 111.7039120   9.3509400  39.7622950 112.2204140   8.7396760  39.2371210
 112.3536500   9.8538180  40.2533960 114.4434620  10.2417890  40.5891930
 114.7312430   9.9872190  39.7124940 114.9557840   9.6895250  41.1797500
 106.3824020  10.4538790  36.1870300 106.2146060   9.8209470  36.8852190
 105.5158530  10.6598190  35.8364490 107.9886720   9.1472020  33.6320440
 107.4634340   9.5280050  32.9282400 107.9131300   9.7722790  34.3530150
 114.5106980  11.1633990  47.9560130 115.4374290  10.9278260  47.9996090
 114.4957410  11.9905990  47.4746160 122.7452040  10.7059560  34.9534380
 122.9204230  10.0197300  34.3095300 122.0473610  11.2306610  34.5611050
 110.5879690  11.0954400  32.5069690 111.3198510  10.8113680  31.9593580
 110.8473360  10.8567680  33.3969070 109.7494480   7.2119130  32.5116020
 109.1203360   7.6804230  33.0601850 109.8642310   6.3668350  32.9462210
 121.0784540  10.3903850  47.7801170 121.8709860   9.8953080  47.5727130
 121.3717690  11.0693990  48.3876780 115.3362240   3.0403810  20.5426490
 114.5604340   2.5604250  20.8325060 115.9875170   2.3609460  20.3682650
 109.3528070   3.3523620  21.4202250 108.5212950   3.0972330  21.8198760
 109.9609050   3.4234390  22.1560170 119.3569670   7.4464000  19.3225620
 118.8951200   6.6751240  19.6512790 120.1695220   7.4730070  19.8278070
 109.3329330   7.3863710  21.6160270 109.6357370   6.4961450  21.4370490
 110.0772920   7.9433930  21.3882520 115.5832980   9.7322010  18.9429610
 114.9644420  10.1879510  18.3724050 116.4384760   9.8873470  18.5419310
 114.7771230   5.7161000  20.5496650 114.7079510   4.7750940  20.3885780
 115.5391090   5.8062410  21.1219220 116.4496330   4.6161250  16.3361520
 115.8313600   5.0810700  15.7724240 116.9619580   5.3088730  16.7531030
 111.3128090   4.1437120  23.0145120 110.9797470   4.7706040  23.6566190
 111.4894770   4.6699000  22.2346790 110.5247190   6.1117920  24.8294300
 111.1421190   6.7869000  24.5478750 109.6640310   6.5205900  24.7381800
 105.8179530   5.3017780  13.7101150 105.4407510   5.7904880  12.9786050
 106.0752600   5.9743060  14.3407680 121.4424780   7.5757330  22.7448940
 120.7588300   8.2456440  22.7365610 121.9819070   7.7737980  21.9793800
 118.9783520   9.4201460  21.4594120 118.9910680   9.0163750  20.5916380
 118.4258740  10.1948750  21.3555550 120.2728940   6.1417680  16.5484290
 120.1625270   5.1992010  16.6733710 120.2697190   6.5033320  17.4347050
 118.3768960   4.3231300  22.7876730 118.7937750   4.1091410  21.9530190
 119.1008780   4.5804090  23.3585350 115.8149220   1.7683000  15.9046780
 114.8878500   1.7020380  16.1335250 115.9674040   2.7063130  15.7902020
 122.3231060   2.7218520  22.8792970 121.4949690   2.7911610  22.4043100
 122.9181540   3.3072830  22.4108800 119.8446510   3.3303300  16.4082030
 119.2258930   2.9922850  15.7608330 119.8270960   2.6863060  17.1161220
 111.8887560   5.9815300  20.8505720 111.5915850   5.3760770  20.1713500
 112.8387380   6.0192610  20.7395080 119.9773170   9.5547170  24.5128820
 119.5003730  10.3619360  24.3201430 119.2934960   8.9025500  24.6655030
 110.9805990   5.7196990  27.5013520 110.0834520   5.9436960  27.7486920
 111.0058860   5.8431930  26.5524920 118.0211210   2.5690110  13.4154780
 118.4604490   1.7312540  13.2692600 118.7339630   3.2019510  13.5018920
 109.8077210   2.5910310  26.0770890 109.6684980   3.4633110  26.4458290
 108.9258570   2.2483120  25.9318830 116.1306590   7.5086180  17.3836020
 116.5702500   8.2510510  16.9691410 116.0693480   7.7512750  18.3074980
 111.6057560   8.5332010  28.2856040 111.5772990   8.9374960  27.4184470
 111.4422530   7.6042370  28.1227640 123.5572380   9.3159110  29.5820210
 124.0332100   9.7942000  30.2609290 124.1779540   9.2476600  28.8565710
 105.7595860   4.3607860  21.9941800 105.8376280   4.4956630  21.0497520
 106.3737540   3.6523750  22.1869920 107.0043490   6.0608050  18.4047980
 106.5971570   6.2022640  17.5501580 107.8956500   5.7768210  18.2019190
 122.9605630   6.5071960  26.7420220 123.0868690   6.2683840  25.8237400
 123.0027010   5.6756500  27.2142300 116.8222370  10.2099960  25.3115030
 117.3367040  10.1207970  26.1137460 115.9791450  10.5559660  25.6042940
 118.7976770  10.4955300  14.7399030 118.6377910  10.2058240  15.6380860
 118.6323480   9.7195430  14.2044260 111.2765150  10.2753830  16.5170650
 111.1007630   9.3589370  16.3038450 110.4220890  10.6341120  16.7568450
 118.5002900   8.0042860  13.2997030 117.8068060   8.0020150  12.6399310
 119.2425760   7.5802180  12.8691200 118.0652830   9.6305570  17.3745520
 118.5209780   8.8494950  17.6884140 118.4045350  10.3412390  17.9186700
 105.8155380   5.4022030  24.5336260 105.9786420   4.9327390  23.7155630
 106.2807830   4.8945590  25.1985100 107.3894360   4.7773460  26.6932070
 107.0049150   4.1367130  27.2915030 107.7006550   5.4809580  27.2626800
 109.8572660   4.8719630  15.0891750 109.0834920   4.3317250  14.9290470
 110.5867290   4.3526240  14.7509510 120.6160640   3.8684990  20.8818140
 121.3359760   4.3640280  20.4914250 120.4142460   3.1902880  20.2372010
 115.9979440   3.9394050  26.7687140 115.9316750   3.0189720  26.5144730
 115.3684580   4.0369490  27.4831780 109.9010060   4.5400010  18.7270560
 110.4188730   3.7368270  18.6727450 109.4494080   4.4779150  19.5687390
 114.7879560   5.8066290  13.9997860 115.1295260   6.5508520  13.5041180
 113.9592270   6.1197410  14.3622690 115.9296170   6.7614620  26.5190940
 115.9440710   5.8295580  26.3009850 115.2221270   6.8474380  27.1580710
 122.1407380   3.4021960  25.8659520 121.4155570   3.9950740  25.6688910
 122.6682840   3.3945500  25.0672890 122.0920490   7.7996700  15.5171680
 121.4496650   7.1452320  15.7915400 121.7051150   8.2051790  14.7412350
 117.6706970   5.1282130  19.3643370 118.0230790   4.5310260  18.7044740
 116.7869300   4.8026360  19.5351620 113.7570250   5.8879820  16.7713780
 114.4441380   6.4349030  17.1521370 112.9702670   6.4320550  16.8063390
 113.0597460   2.8925850  16.3839140 113.5160240   3.7031100  16.6099330
 112.7085670   2.5748990  17.2157630 115.3630070   8.4032190  23.6131440
 116.0072290   8.6091570  24.2904860 115.7259510   7.6420590  23.1602290
 116.6362150   6.4064540  22.3308890 117.2784380   5.7057700  22.4441060
 117.1611500   7.1862980  22.1505780 120.4817870   6.6913160  12.0548030
 120.2555450   5.9743600  12.6472670 120.0914070   6.4425600  11.2169780
 118.4099770   7.2059440  25.5344950 118.7456010   7.7926130  26.2122870
 117.4900110   7.0752150  25.7642740 106.2633900  10.7180020  12.8292490
 106.6231540  11.3169360  12.1749760 106.1226240  11.2639910  13.6027520
 120.0634120   4.6085100  13.7162190 119.7755820   5.0697790  14.5040070
 120.8586290   4.1482870  13.9846410 106.2475760   8.9834880  27.3034890
 106.3566880   8.0429620  27.1630280 105.5956320   9.2489630  26.6548620
 114.2388350   7.2550770  28.7033010 113.9185220   6.5360010  29.2478700
 113.5646710   7.9305840  28.7769070 112.2802520   8.1011220  13.6466160
 112.2712620   8.8340910  13.0310670 111.3600880   7.8542800  13.7393120
 107.8809160   3.3226110  14.3912920 107.2737110   4.0625010  14.4008220
 108.3558510   3.4125470  13.5651120 115.2662120   8.1639460  12.3091350
 115.3674100   7.9603450  11.3793330 114.3663860   7.9097740  12.5139130
 113.9080230  10.6825780  17.0039020 114.1621730  10.6447170  16.0818390
 112.9592710  10.5559110  16.9967270 109.8914450   3.2837260  12.1401490
 110.6577720   3.1718620  12.7026920 109.9689140   2.5875230  11.4878260
 121.9158390   8.7726510  20.2551790 122.0405810   9.5957680  20.7275600
 122.7823950   8.5617240  19.9075940 109.3875920  10.8657720  19.9268920
 110.1238400  10.3173180  20.1977490 109.7716840  11.7313730  19.7874910
 106.2721400   6.9331290  15.8010430 105.3461180   7.1752430  15.7915840
 106.7377830   7.7605550  15.6795180 108.3934200  10.0503790  29.1154500
 109.1946930  10.3715840  29.5289900 107.8786020   9.6899370  29.8374410
 112.4978230  10.0388030  11.7494490 113.2906840  10.3276860  11.2976280
 111.9782580   9.6080200  11.0706970 117.2298830   6.1583660  29.0629910
 116.6236990   6.1815260  28.3225660 116.9252940   5.4266700  29.5997160
 118.6599200   9.8863950  27.6739320 119.6120950   9.8021970  27.6239560
 118.5127420  10.5505660  28.3473110 121.5508400   9.2658160  13.1731230
 121.2649910   8.8523300  12.3585410 121.3527950  10.1945870  13.0531750
 106.1132010   2.5377250  28.0590550 106.6171030   1.9584530  28.6306780
 105.3739430   2.8217480  28.5966920 113.0155630   5.2591440  11.6136840
 112.9106270   4.6443790  12.3398220 112.8479850   4.7357330  10.8299850
 113.1669950   3.9448240  27.5926070 112.4015620   4.5133240  27.5080740
 113.3485910   3.6524450  26.6994300 116.2558360   4.3211470  12.2178830
 115.7068460   4.7680770  12.8621570 116.8777620   3.8160720  12.7416500
 120.3093300   5.6753570  28.1501090 121.0502770   6.0129330  27.6468550
 119.5465980   5.8445630  27.5970860 111.9233480   3.2802390  14.1144130
 112.3449900   3.1142260  14.9575520 112.0484320   2.4702620  13.6199270
 118.9838960   3.7268400  26.6856300 119.3979980   3.8813480  27.5346720
 118.0489960   3.8523620  26.8482080 113.7454190   3.6788880  24.6552230
 114.1642300   4.5221610  24.4828470 112.8262820   3.8160920  24.4259010
 118.4205990   1.9642250  24.6152580 117.8941210   2.4884870  24.0117720
 118.7637330   2.5969640  25.2462310 111.5961610   9.9841890  25.7709960
 111.0582700  10.7087950  25.4518660 111.8495570   9.5072230  24.9807300
 114.4523820  11.2193100  26.0296610 114.3782520  12.1228240  26.3368980
 113.5502660  10.9005000  26.0018680 115.0009150  10.3851610  13.6522970
 115.8959940  10.7236580  13.6741730 115.0326780   9.6631020  13.0247250
 108.6405310   5.7578660  11.8809970 109.0780180   6.3008330  12.5367550
 109.1253040   4.9325610  11.8906310 105.8551110   8.5467690  19.3330230
 106.1854120   7.6788750  19.1008870 106.2842110   8.7526210  20.1635190
 110.4513030   6.8776700  16.9932200 110.1508570   6.7541670  17.8936110
 110.3450520   6.0185290  16.5847930 106.3441320   9.4138280  22.0711860
 105.9072310   9.5939080  22.9036010 106.9119000  10.1712900  21.9293580
 121.9803500   8.9155280  26.3589170 121.3805490   8.9747840  25.6153090
 122.1097400   7.9760260  26.4886020 123.2204950   6.6573100  11.6958880
 122.3897910   6.7249750  12.1666110 123.3976780   7.5477220  11.3925740
 122.6761410   3.4020580  14.1993080 123.4380320   3.9717230  14.3052770
 122.6915780   2.8347780  14.9701390 106.1765750   1.9258510  18.4300740
 105.5214590   1.6570150  17.7860440 107.0143700   1.8162990  17.9802720
 123.6821380   4.2570680  19.0435010 124.0530210   3.4738000  18.6370980
 124.3223310   4.9459780  18.8652310 120.6655140   5.6407260  24.4565330
 119.8514980   6.0704420  24.7191120 121.0729340   6.2525670  23.8434380
 122.7280580   3.6954950  11.3565600 123.0029420   4.6033830  11.2284820
 122.5391320   3.6317480  12.2927590 120.7231190  10.3925860  17.9833600
 121.3190260  10.0710430  17.3068020 120.9809340   9.9197680  18.7746870
 108.6293760   6.8243770  28.1324230 108.5863390   6.4536680  29.0138690
 108.7604770   7.7621340  28.2726050 112.3299790   8.3803360  23.7333950
 112.0891150   8.6477920  22.8464470 113.2702430   8.5509090  23.7884810
 123.5903950  10.3997740  24.5344590 123.0962230  10.7966610  23.8171720
 122.9817240   9.7746950  24.9281870 108.4681790   9.7706020  25.2522010
 107.8742110   9.6390720  25.9912050 108.4605630   8.9344160  24.7864110
 121.2743400  11.0421160  21.8131330 120.8146370  11.7936970  21.4389350
 120.6455860  10.3227630  21.7546130 108.0994020   7.1364400  24.2030050
 107.3728080   6.5169690  24.1356000 108.1603170   7.5305010  23.3328130
 111.7039120   9.3509400  20.9879460 112.2204140   8.7396760  20.4627720
 112.3536500   9.8538180  21.4790470 114.4434620  10.2417890  21.8148440
 114.7312430   9.9872190  20.9381450 114.9557840   9.6895250  22.4054010
 106.3824020  10.4538790  17.4126810 106.2146060   9.8209470  18.1108700
 105.5158530  10.6598190  17.0621000 107.9886720   9.1472020  14.8576950
 107.4634340   9.5280050  14.1538910 107.9131300   9.7722790  15.5786660
 114.5106980  11.1633990  29.1816640 115.4374290  10.9278260  29.2252600
 114.4957410  11.9905990  28.7002670 122.7452040  10.7059560  16.1790890
 122.9204230  10.0197300  15.5351810 122.0473610  11.2306610  15.7867560
 110.5879690  11.0954400  13.7326200 111.3198510  10.8113680  13.1850090
 110.8473360  10.8567680  14.6225580 109.7494480   7.2119130  13.7372530
 109.1203360   7.6804230  14.2858360 109.8642310   6.3668350  14.1718720
 121.0784540  10.3903850  29.0057680 121.8709860   9.8953080  28.7983640
 121.3717690  11.0693990  29.6133290 115.3362240   3.0403810   1.7683000
 114.5604340   2.5604250   2.0581570 115.9875170   2.3609460   1.5939160
 109.3528070   3.3523620   2.6458760 108.5212950   3.0972330   3.0455270
 109.9609050   3.4234390   3.3816680 109.3329330   7.3863710   2.8416780
 109.6357370   6.4961450   2.6627000 110.0772920   7.9433930   2.6139030
 114.7771230   5.7161000   1.7753160 114.7079510   4.7750940   1.6142290
 115.5391090   5.8062410   2.3475730 111.3128090   4.1437120   4.2401630
 110.9797470   4.7706040   4.8822700 111.4894770   4.6699000   3.4603300
 110.5247190   6.1117920   6.0550810 111.1421190   6.7869000   5.7735260
 109.6640310   6.5205900   5.9638310 121.4424780   7.5757330   3.9705450
 120.7588300   8.2456440   3.9622120 121.9819070   7.7737980   3.2050310
 118.9783520   9.4201460   2.6850630 118.9910680   9.0163750   1.8172890
 118.4258740  10.1948750   2.5812060 118.3768960   4.3231300   4.0133240
 118.7937750   4.1091410   3.1786700 119.1008780   4.5804090   4.5841860
 122.3231060   2.7218520   4.1049480 121.4949690   2.7911610   3.6299610
 122.9181540   3.3072830   3.6365310 119.9773170   9.5547170   5.7385330
 119.5003730  10.3619360   5.5457940 119.2934960   8.9025500   5.8911540
 110.9805990   5.7196990   8.7270030 110.0834520   5.9436960   8.9743430
 111.0058860   5.8431930   7.7781430 109.8077210   2.5910310   7.3027400
 109.6684980   3.4633110   7.6714800 108.9258570   2.2483120   7.1575340
 111.6057560   8.5332010   9.5112550 111.5772990   8.9374960   8.6440980
 111.4422530   7.6042370   9.3484150 123.5572380   9.3159110  10.8076720
 124.0332100   9.7942000  11.4865800 124.1779540   9.2476600  10.0822220
 105.7595860   4.3607860   3.2198310 105.8376280   4.4956630   2.2754030
 106.3737540   3.6523750   3.4126430 122.9605630   6.5071960   7.9676730
 123.0868690   6.2683840   7.0493910 123.0027010   5.6756500   8.4398810
 116.8222370  10.2099960   6.5371540 117.3367040  10.1207970   7.3393970
 115.9791450  10.5559660   6.8299450 105.8155380   5.4022030   5.7592770
 105.9786420   4.9327390   4.9412140 106.2807830   4.8945590   6.4241610
 107.3894360   4.7773460   7.9188580 107.0049150   4.1367130   8.5171540
 107.7006550   5.4809580   8.4883310 120.6160640   3.8684990   2.1074650
 121.3359760   4.3640280   1.7170760 120.4142460   3.1902880   1.4628520
 115.9979440   3.9394050   7.9943650 115.9316750   3.0189720   7.7401240
 115.3684580   4.0369490   8.7088290 115.9296170   6.7614620   7.7447450
 115.9440710   5.8295580   7.5266360 115.2221270   6.8474380   8.3837220
 122.1407380   3.4021960   7.0916030 121.4155570   3.9950740   6.8945420
 122.6682840   3.3945500   6.2929400 115.3630070   8.4032190   4.8387950
 116.0072290   8.6091570   5.5161370 115.7259510   7.6420590   4.3858800
 116.6362150   6.4064540   3.5565400 117.2784380   5.7057700   3.6697570
 117.1611500   7.1862980   3.3762290 118.4099770   7.2059440   6.7601460
 118.7456010   7.7926130   7.4379380 117.4900110   7.0752150   6.9899250
 106.2475760   8.9834880   8.5291400 106.3566880   8.0429620   8.3886790
 105.5956320   9.2489630   7.8805130 114.2388350   7.2550770   9.9289520
 113.9185220   6.5360010  10.4735210 113.5646710   7.9305840  10.0025580
 108.3934200  10.0503790  10.3411010 109.1946930  10.3715840  10.7546410
 107.8786020   9.6899370  11.0630920 117.2298830   6.1583660  10.2886420
 116.6236990   6.1815260   9.5482170 116.9252940   5.4266700  10.8253670
 118.6599200   9.8863950   8.8995830 119.6120950   9.8021970   8.8496070
 118.5127420  10.5505660   9.5729620 106.1132010   2.5377250   9.2847060
 106.6171030   1.9584530   9.8563290 105.3739430   2.8217480   9.8223430
 113.1669950   3.9448240   8.8182580 112.4015620   4.5133240   8.7337250
 113.3485910   3.6524450   7.9250810 120.3093300   5.6753570   9.3757600
 121.0502770   6.0129330   8.8725060 119.5465980   5.8445630   8.8227370
 118.9838960   3.7268400   7.9112810 119.3979980   3.8813480   8.7603230
 118.0489960   3.8523620   8.0738590 113.7454190   3.6788880   5.8808740
 114.1642300   4.5221610   5.7084980 112.8262820   3.8160920   5.6515520
 118.4205990   1.9642250   5.8409090 117.8941210   2.4884870   5.2374230
 118.7637330   2.5969640   6.4718820 111.5961610   9.9841890   6.9966470
 111.0582700  10.7087950   6.6775170 111.8495570   9.5072230   6.2063810
 114.4523820  11.2193100   7.2553120 114.3782520  12.1228240   7.5625490
 113.5502660  10.9005000   7.2275190 106.3441320   9.4138280   3.2968370
 105.9072310   9.5939080   4.1292520 106.9119000  10.1712900   3.1550090
 121.9803500   8.9155280   7.5845680 121.3805490   8.9747840   6.8409600
 122.1097400   7.9760260   7.7142530 120.6655140   5.6407260   5.6821840
 119.8514980   6.0704420   5.9447630 121.0729340   6.2525670   5.0690890
 108.6293760   6.8243770   9.3580740 108.5863390   6.4536680  10.2395200
 108.7604770   7.7621340   9.4982560 112.3299790   8.3803360   4.9590460
 112.0891150   8.6477920   4.0720980 113.2702430   8.5509090   5.0141320
 123.5903950  10.3997740   5.7601100 123.0962230  10.7966610   5.0428230
 122.9817240   9.7746950   6.1538380 108.4681790   9.7706020   6.4778520
 107.8742110   9.6390720   7.2168560 108.4605630   8.9344160   6.0120620
 121.2743400  11.0421160   3.0387840 120.8146370  11.7936970   2.6645860
 120.6455860  10.3227630   2.9802640 108.0994020   7.1364400   5.4286560
 107.3728080   6.5169690   5.3612510 108.1603170   7.5305010   4.5584640
 111.7039120   9.3509400   2.2135970 112.2204140   8.7396760   1.6884230
 112.3536500   9.8538180   2.7046980 114.4434620  10.2417890   3.0404950
 114.7312430   9.9872190   2.1637960 114.9557840   9.6895250   3.6310520
 114.5106980  11.1633990  10.4073150 115.4374290  10.9278260  10.4509110
 114.4957410  11.9905990   9.9259180 121.0784540  10.3903850  10.2314190
 121.8709860   9.8953080  10.0240150 121.3717690  11.0693990  10.8389800
  98.4300710 151.4572710 150.0821650  98.3494760 150.5427320 149.8113360
  98.0165130 151.9539780 149.3761360  88.9876530 148.5073430 146.6249070
  88.0993230 148.8489400 146.5228950  89.2717720 148.3073750 145.7329900
  91.1637920 147.0904930 147.6587450  91.2704670 147.9908660 147.9656210
  90.2530280 147.0422900 147.3682100 100.8157030 146.2129740 149.1298350
 101.6366650 145.7226310 149.1723830 100.8491110 146.8027400 149.8830190
  94.6524970 143.8982090 150.5891090  94.9599950 143.3428980 149.8726590
  93.7225670 144.0326550 150.4064080  97.0274810 148.2347920 144.3218370
  96.0878480 148.3961880 144.4070830  97.3458070 148.9533600 143.7754360
  92.6462370 152.4895660 150.1070940  92.2419370 151.7772910 149.6116840
  92.7325490 152.1448900 150.9958980 102.8284860 144.0180840 143.1500250
 102.5157520 144.1107670 144.0499320 103.5897330 144.5961870 143.0997680
  89.3467000 151.3840640 147.6077590  89.2264600 152.1102730 146.9958860
  89.0367890 150.6143550 147.1305500  91.8130660 144.7275710 150.9901260
  91.3698810 145.5085250 150.6585780  92.3715650 145.0505600 151.6972200
  94.9289480 144.3486410 145.8707090  94.3043660 144.3446280 146.5960400
  94.8419600 143.4817370 145.4743060  91.6044880 149.8509280 148.7182510
  91.3785800 149.6346450 149.6229130  90.8237410 150.2837740 148.3728480
  98.8342640 149.8572650 147.3173160  98.2351530 150.5808450 147.1336780
  99.3822250 149.7949430 146.5349610  97.4407510 148.4936190 149.3476440
  97.8337080 148.8108390 148.5345130  97.8024360 147.6148070 149.4620960
  86.6641910 149.0257110 142.7809360  86.5816580 149.9687870 142.9224350
  86.3124970 148.8832020 141.9021710  90.3142420 147.6422630 150.8073920
  89.9742470 148.1197860 151.5640970  89.5519740 147.1887750 150.4475020
  94.5260190 148.7608220 144.8386470  94.6473010 148.7194700 145.7872290
  94.1408700 149.6232370 144.6833200  93.5381690 151.0709360 144.2369770
  92.9698590 150.6227610 143.6105680  94.2470690 151.4302140 143.7034920
  87.6288500 146.5641610 149.7238590  87.3435420 146.1997280 150.5617210
  87.5667360 145.8322070 149.1101730  97.3027090 145.4570870 146.4451960
  96.4891700 144.9584040 146.3697270  97.1089040 146.2969120 146.0288310
 100.0175480 149.8290520 144.7414120 100.9055100 150.1407750 144.5665460
  99.9880570 148.9562770 144.3494700 102.2889750 151.1402360 144.2093980
 102.2053470 151.5716580 143.3590420 103.0083940 151.6000710 144.6420800
  87.1219160 151.7000560 143.6835290  87.9914010 151.9825360 143.9671210
  86.6309480 152.5136430 143.5684100  90.1865750 143.4311420 148.2766090
  90.0580380 143.4229320 149.2251010  89.3627770 143.7694510 147.9257100
 102.0460490 146.6381790 146.2961800 101.4173650 146.7427460 145.5820030
 101.5512410 146.8578570 147.0855680  94.0144520 148.9167740 147.7119680
  93.3060670 149.3854080 148.1533290  94.2989000 148.2589750 148.3464870
  98.0459950 145.6418400 149.1515470  97.9227730 145.6604530 148.2024980
  98.9944510 145.6897340 149.2713870  92.2179540 147.2252820 145.0870390
  93.0670070 147.6622970 145.0210580  91.8510810 147.5373080 145.9142450
 101.1389320 151.7965580 150.0001960 100.1979460 151.8115810 150.1749650
 101.4533390 151.0101540 150.4462260  89.8117720 150.9110250 144.2438810
  89.8921310 149.9637760 144.3556210  90.7037470 151.2417130 144.3499470
  92.0448890 149.5483540 142.4806720  91.8437950 148.6850900 142.8420060
  91.8740940 149.4616900 141.5428320  99.5237200 144.3591770 145.0093600
  99.8039490 143.5159670 145.3653020  98.7502930 144.5914880 145.5232350
  90.8431690 146.6484160 142.4684600  91.1457590 146.6551590 141.5603750
  91.5826280 146.2982020 142.9652260  94.0616620 145.5918780 143.4540800
  93.7138620 144.9142770 142.8743250  94.2629390 145.1308290 144.2684190
  87.4022260 152.1206430 149.8505170  86.7471100 151.8518070 149.2064870
  88.2400210 152.0110910 149.4007150 100.3512700 146.9147720 144.0723660
 100.7697580 146.7278700 143.2320320 100.0448760 146.0626770 144.3826590
 103.8502430 151.8271860 147.7699460 103.4746030 151.0599790 147.3380750
 103.1205550 152.2094560 148.2574390  86.6160340 149.3305360 145.7930500
  85.7124420 149.5935560 145.6182160  87.1000960 149.6016530 145.0130460
  89.1587550 148.3870900 143.7024880  89.8679250 147.9654120 143.2172160
  88.4427490 148.4546130 143.0708230  88.8061710 144.4410230 142.7427530
  89.5289840 144.9819170 143.0608750  89.0786230 144.1673650 141.8669070
 102.6153360 149.3102700 147.0099110 103.1112480 149.0773570 147.7947990
 102.4169430 148.4714540 146.5936750 104.0440520 147.9463650 149.5436790
 103.9339800 147.7919690 150.4819060 104.8048110 147.4184590 149.3012200
 104.9330790 145.7771570 142.7842930 105.8580100 145.6452750 142.5761220
 104.9106580 145.8564390 143.7379380 105.0069280 146.5482230 145.4099640
 104.2120780 146.4827350 145.9392550 105.2112560 147.4832870 145.3984990
 103.3027780 144.5094350 149.8707290 103.2416180 143.5655570 149.7238310
 104.0819810 144.6174440 150.4160750  88.2308550 144.4803490 146.3363100
  88.9887910 144.5932370 145.7627130  87.7685720 145.3172690 146.2906530
  94.7722360 146.5942760 149.3265410  93.9596870 146.2199650 148.9861290
  95.2764000 145.8387840 149.6286600  99.2747340 143.2585210 150.5648480
  99.8776710 143.8305420 151.0397000  98.5340330 143.8224650 150.3422380
 102.4181940 143.6606770 145.8388760 102.6132570 144.5590220 146.1056190
 101.6311810 143.4293850 146.3321710  90.6033700 145.0067540 144.8765070
  91.1326460 144.2197340 144.7473020  91.2362020 145.6858730 145.1100600
  92.7971540 144.7442680 147.9310460  92.1674280 144.0429990 148.0980590
  92.2576680 145.5046810 147.7143620  98.4300710 151.4572710 131.3078160
  98.3494760 150.5427320 131.0369870  98.0165130 151.9539780 130.6017870
  88.9876530 148.5073430 127.8505580  88.0993230 148.8489400 127.7485460
  89.2717720 148.3073750 126.9586410  86.9509540 151.1079080 133.7345280
  87.5225650 150.3401280 133.7348920  86.9511080 151.4067840 132.8251890
  88.1934410 146.5163440 135.5214210  88.0137250 145.6189190 135.8016970
  87.7914490 147.0635310 136.1961160  97.0332910 148.7179300 133.4226520
  97.4097730 147.8451180 133.3100190  96.9352420 149.0538000 132.5316960
  91.1637920 147.0904930 128.8843960  91.2704670 147.9908660 129.1912720
  90.2530280 147.0422900 128.5938610 100.8157030 146.2129740 130.3554860
 101.6366650 145.7226310 130.3980340 100.8491110 146.8027400 131.1086700
  88.8121080 149.0123940 134.1296550  89.4931190 149.2762310 134.7483950
  88.4969130 148.1724810 134.4634560  93.0045650 150.0591300 133.2169140
  93.5123870 150.5572270 133.8574160  93.5358890 149.2826500 133.0408500
 105.1056580 148.2296490 136.9198490 104.4008750 148.6178200 136.4013600
 105.3714500 148.9246780 137.5219420  91.2881750 144.6989860 137.4832560
  91.2900190 145.2162250 136.6778460  90.4586060 144.2220040 137.4602490
 101.0518510 148.1530120 133.1282400 100.3474080 148.4415010 133.7085510
 101.4130670 148.9630230 132.7681960  90.9697080 146.4099820 135.4903010
  91.3113890 147.2541870 135.1956880  90.0312890 146.5583560 135.6068350
 104.1205430 147.5984910 133.5191610 103.1730340 147.6323890 133.6507040
 104.4455420 148.4123860 133.9040970  94.6524970 143.8982090 131.8147600
  94.9599950 143.3428980 131.0983100  93.7225670 144.0326550 131.6320590
  97.0274810 148.2347920 125.5474880  96.0878480 148.3961880 125.6327340
  97.3458070 148.9533600 125.0010870 100.5129580 149.7035760 136.4708780
 100.1000760 150.5289470 136.7248770  99.7805530 149.1180800 136.2785140
  92.6462370 152.4895660 131.3327450  92.2419370 151.7772910 130.8373350
  92.7325490 152.1448900 132.2215490  91.3590990 149.2638870 135.1126490
  91.9105580 149.3734210 134.3379740  91.8734500 149.6376470 135.8281720
 102.8284860 144.0180840 124.3756760 102.5157520 144.1107670 125.2755830
 103.5897330 144.5961870 124.3254190  89.3467000 151.3840640 128.8334100
  89.2264600 152.1102730 128.2215370  89.0367890 150.6143550 128.3562010
 104.0386150 148.7552340 140.3530900 103.4230420 149.2632010 139.8246360
 103.7182570 147.8550670 140.2956840  91.8130660 144.7275710 132.2157770
  91.3698810 145.5085250 131.8842290  92.3715650 145.0505600 132.9228710
  96.1000470 147.5944230 137.8193090  95.6379840 147.8027250 138.6313030
  95.6978580 146.7803580 137.5163760 101.1004980 148.8153180 138.9489750
 100.2498570 148.5158930 139.2698820 100.9406770 149.0595190 138.0373570
  98.1954690 150.3154930 141.0488540  98.5208100 149.4818680 140.7090770
  98.9835020 150.8383450 141.1966870  94.9289480 144.3486410 127.0963600
  94.3043660 144.3446280 127.8216910  94.8419600 143.4817370 126.6999570
  93.8506560 145.2723040 134.0747370  94.1478890 146.1785870 133.9939390
  94.3992120 144.7841820 133.4606940  91.6044880 149.8509280 129.9439020
  91.3785800 149.6346450 130.8485640  90.8237410 150.2837740 129.5984990
  98.8342640 149.8572650 128.5429670  98.2351530 150.5808450 128.3593290
  99.3822250 149.7949430 127.7606120  94.0444090 150.7494860 140.6099290
  93.9487690 149.8089590 140.4599690  94.8876070 150.9709930 140.2147360
  97.4407510 148.4936190 130.5732950  97.8337080 148.8108390 129.7601640
  97.8024360 147.6148070 130.6877470  89.1754630 147.1608530 138.7633070
  88.7818020 148.0083740 138.9705850  88.4873030 146.5234900 138.9541710
  95.7499680 147.2443500 141.8329810  95.0598000 147.0515700 142.4675900
  96.4931980 147.5278140 142.3654110  86.4771680 145.0836990 132.7963150
  86.1884730 145.6539850 133.5088130  87.2217440 144.6041440 133.1594380
  86.6641910 149.0257110 124.0065870  86.5816580 149.9687870 124.1480860
  86.3124970 148.8832020 123.1278220  98.0262650 151.0841940 134.6683730
  97.2943770 151.5928750 135.0173830  97.6286990 150.2671920 134.3672510
  94.4640040 147.7596140 133.0736220  94.4676100 147.3186090 132.2240760
  95.3591160 148.0813470 133.1808040  90.3142420 147.6422630 132.0330430
  89.9742470 148.1197860 132.7897480  89.5519740 147.1887750 131.6731530
  94.5260190 148.7608220 126.0642980  94.6473010 148.7194700 127.0128800
  94.1408700 149.6232370 125.9089710  98.4888560 146.5375620 134.0806670
  98.5061300 146.9884270 134.9248520  98.2404140 145.6381260 134.2940110
  93.5381690 151.0709360 125.4626280  92.9698590 150.6227610 124.8362190
  94.2470690 151.4302140 124.9291430 101.9159310 143.9507800 139.9193050
 102.2405080 143.2197460 140.4451030 101.9515820 143.6321440 139.0174040
  87.6288500 146.5641610 130.9495100  87.3435420 146.1997280 131.7873720
  87.5667360 145.8322070 130.3358240  92.5547380 150.8606560 137.1385840
  92.2504450 151.7398540 137.3636200  93.5093840 150.9206350 137.1743280
  97.3027090 145.4570870 127.6708470  96.4891700 144.9584040 127.5953780
  97.1089040 146.2969120 127.2544820 100.0175480 149.8290520 125.9670630
 100.9055100 150.1407750 125.7921970  99.9880570 148.9562770 125.5751210
  88.6111110 151.7009300 138.2857200  88.2526050 152.3663150 138.8730540
  88.3165670 150.8692850 138.6569820  91.8124230 152.1593540 141.1696750
  91.5124370 152.3050720 140.2724570  92.5835470 151.5998830 141.0770140
 102.2889750 151.1402360 125.4350490 102.2053470 151.5716580 124.5846930
 103.0083940 151.6000710 125.8677310  87.1219160 151.7000560 124.9091800
  87.9914010 151.9825360 125.1927720  86.6309480 152.5136430 124.7940610
  90.1865750 143.4311420 129.5022600  90.0580380 143.4229320 130.4507520
  89.3627770 143.7694510 129.1513610  87.1859680 145.1902540 138.9629300
  86.4718200 145.3899460 139.5681910  87.6054720 144.4142110 139.3344100
  98.6798460 147.6824850 136.7130750  99.0479280 146.8620060 137.0410320
  97.8196660 147.7426740 137.1286400 102.0460490 146.6381790 127.5218310
 101.4173650 146.7427460 126.8076540 101.5512410 146.8578570 128.3112190
  94.0144520 148.9167740 128.9376190  93.3060670 149.3854080 129.3789800
  94.2989000 148.2589750 129.5721380  95.6400450 150.3364440 136.9368720
  96.1385700 150.8110260 137.6020570  95.7823400 149.4127960 137.1438750
  98.0459950 145.6418400 130.3771980  97.9227730 145.6604530 129.4281490
  98.9944510 145.6897340 130.4970380  92.2179540 147.2252820 126.3126900
  93.0670070 147.6622970 126.2467090  91.8510810 147.5373080 127.1398960
 102.8467310 146.5532400 137.7797110 102.3440910 147.2937800 138.1190920
 103.6623970 146.9416400 137.4633900 101.1389320 151.7965580 131.2258470
 100.1979460 151.8115810 131.4006160 101.4533390 151.0101540 131.6718770
  89.8117720 150.9110250 125.4695320  89.8921310 149.9637760 125.5812720
  90.7037470 151.2417130 125.5755980  89.3711600 150.8754760 141.6001560
  89.4116940 150.5768630 142.5086790  90.2257100 151.2762370 141.4409080
  91.3117410 149.4546860 139.5676050  90.7813870 148.9637810 138.9399390
  91.9805480 149.8831060 139.0333980 100.6817640 151.2612480 141.3356390
 101.2638410 150.5064800 141.2476870 100.8579410 151.7919920 140.5587870
  91.7989710 146.4209230 139.6473340  91.7046580 145.8029980 138.9224210
  91.2187100 147.1475520 139.4203250  94.5651150 144.9782470 136.6800730
  94.1168450 145.0006730 135.8346280  93.9316350 144.5801490 137.2771030
  97.3074600 151.6052980 138.6851010  97.4270810 151.0094120 139.4245850
  98.1668600 151.6422670 138.2652310  92.0448890 149.5483540 123.7063230
  91.8437950 148.6850900 124.0676570  91.8740940 149.4616900 122.7684830
  94.0743370 148.1474330 139.9426830  94.6643060 147.8390180 140.6304650
  93.2563610 147.6754080 140.0986730  98.8936800 147.7640140 140.1759850
  98.2052320 147.1021680 140.1109840  99.6142820 147.3178410 140.6208310
  99.5237200 144.3591770 126.2350110  99.8039490 143.5159670 126.5909530
  98.7502930 144.5914880 126.7488860  90.8431690 146.6484160 123.6941110
  91.1457590 146.6551590 122.7860260  91.5826280 146.2982020 124.1908770
  94.0616620 145.5918780 124.6797310  93.7138620 144.9142770 124.0999760
  94.2629390 145.1308290 125.4940700  87.4022260 152.1206430 131.0761680
  86.7471100 151.8518070 130.4321380  88.2400210 152.0110910 130.6263660
 100.3512700 146.9147720 125.2980170 100.7697580 146.7278700 124.4576830
 100.0448760 146.0626770 125.6083100 103.8502430 151.8271860 128.9955970
 103.4746030 151.0599790 128.5637260 103.1205550 152.2094560 129.4830900
  88.4398190 152.5059000 135.6165020  88.8071230 152.4186400 136.4961040
  87.8709010 151.7425550 135.5171880 103.2402050 150.9743380 138.6295490
 103.0088140 150.7456130 137.7293440 103.5006600 151.8942930 138.5840380
  87.9914190 149.4168090 139.5223440  87.0970240 149.3834850 139.8617150
  88.5311740 149.6154880 140.2874690 101.6790120 146.1999810 141.4075190
 102.5560300 146.2083210 141.7909190 101.6910960 145.4630650 140.7967540
  86.6160340 149.3305360 127.0187010  85.7124420 149.5935560 126.8438670
  87.1000960 149.6016530 126.2386970 103.1253390 150.0529350 132.2963210
 103.6490870 149.5592000 131.6653380 103.7112810 150.1879710 133.0410780
 103.3043110 150.1369220 135.8182760 102.3545820 150.1032760 135.9327750
 103.4856120 151.0469330 135.5832530  89.1587550 148.3870900 124.9281390
  89.8679250 147.9654120 124.4428670  88.4427490 148.4546130 124.2964740
  88.8061710 144.4410230 123.9684040  89.5289840 144.9819170 124.2865260
  89.0786230 144.1673650 123.0925580 102.6153360 149.3102700 128.2355620
 103.1112480 149.0773570 129.0204500 102.4169430 148.4714540 127.8193260
  88.4953900 143.6916420 133.8706660  89.1430090 143.1413800 133.4301820
  88.9155740 143.9459570 134.6922470 104.0440520 147.9463650 130.7693300
 103.9339800 147.7919690 131.7075570 104.8048110 147.4184590 130.5268710
 102.3906240 143.8857780 137.2276300 103.0278460 144.4991920 137.5935490
 102.5381130 143.9218440 136.2825530 104.9330790 145.7771570 124.0099440
 105.8580100 145.6452750 123.8017730 104.9106580 145.8564390 124.9635890
 105.0069280 146.5482230 126.6356150 104.2120780 146.4827350 127.1649060
 105.2112560 147.4832870 126.6241500  88.2485900 143.8472090 136.6131980
  87.9000720 144.3035910 137.3790160  87.9173600 142.9529220 136.6954410
  95.7610720 145.0383970 140.1351400  95.6999610 145.6305800 140.8846810
  96.7011100 144.9309930 139.9901660  98.3985280 144.6954030 139.7743690
  99.0125690 145.0133320 139.1124770  98.9434840 144.2102620 140.3939550
  88.9206540 143.3748290 139.8882750  89.4689530 143.1936340 139.1248860
  88.9861850 142.5842400 140.4239060  99.1393320 143.2586170 136.1012980
  98.2653160 143.5921280 135.8985910  99.0304070 142.7859350 136.9264850
 100.0465300 145.4657040 137.4854700  99.7178660 144.6508800 137.1056430
 100.9947600 145.4226850 137.3620390  96.8868140 144.1756010 135.0405890
  96.1039930 144.6501510 135.3202650  96.5931070 143.2710840 134.9319070
 101.4389210 144.8779110 133.0854980 101.8797300 144.8224210 132.2376580
 101.1696800 145.7937120 133.1565160 103.3027780 144.5094350 131.0963800
 103.2416180 143.5655570 130.9494820 104.0819810 144.6174440 131.6417260
  88.2308550 144.4803490 127.5619610  88.9887910 144.5932370 126.9883640
  87.7685720 145.3172690 127.5163040  94.7722360 146.5942760 130.5521920
  93.9596870 146.2199650 130.2117800  95.2764000 145.8387840 130.8543110
  99.2747340 143.2585210 131.7904990  99.8776710 143.8305420 132.2653510
  98.5340330 143.8224650 131.5678890 102.4181940 143.6606770 127.0645270
 102.6132570 144.5590220 127.3312700 101.6311810 143.4293850 127.5578220
  90.6033700 145.0067540 126.1021580  91.1326460 144.2197340 125.9729530
  91.2362020 145.6858730 126.3357110  92.7971540 144.7442680 129.1566970
  92.1674280 144.0429990 129.3237100  92.2576680 145.5046810 128.9400130
  92.9227100 144.0226660 141.5919460  92.6411370 144.5260260 140.8280280
  93.3046800 143.2248410 141.2261590  99.5242560 143.4380240 142.1699930
  99.4108010 143.7574850 143.0651450 100.3412300 143.8392750 141.8737210
  98.4300710 151.4572710 112.5334670  98.3494760 150.5427320 112.2626380
  98.0165130 151.9539780 111.8274380  88.9876530 148.5073430 109.0762090
  88.0993230 148.8489400 108.9741970  89.2717720 148.3073750 108.1842920
  86.9509540 151.1079080 114.9601790  87.5225650 150.3401280 114.9605430
  86.9511080 151.4067840 114.0508400  88.1934410 146.5163440 116.7470720
  88.0137250 145.6189190 117.0273480  87.7914490 147.0635310 117.4217670
  97.0332910 148.7179300 114.6483030  97.4097730 147.8451180 114.5356700
  96.9352420 149.0538000 113.7573470  91.1637920 147.0904930 110.1100470
  91.2704670 147.9908660 110.4169230  90.2530280 147.0422900 109.8195120
 100.8157030 146.2129740 111.5811370 101.6366650 145.7226310 111.6236850
 100.8491110 146.8027400 112.3343210  88.8121080 149.0123940 115.3553060
  89.4931190 149.2762310 115.9740460  88.4969130 148.1724810 115.6891070
  93.0045650 150.0591300 114.4425650  93.5123870 150.5572270 115.0830670
  93.5358890 149.2826500 114.2665010 105.1056580 148.2296490 118.1455000
 104.4008750 148.6178200 117.6270110 105.3714500 148.9246780 118.7475930
  91.2881750 144.6989860 118.7089070  91.2900190 145.2162250 117.9034970
  90.4586060 144.2220040 118.6859000 101.0518510 148.1530120 114.3538910
 100.3474080 148.4415010 114.9342020 101.4130670 148.9630230 113.9938470
  90.9697080 146.4099820 116.7159520  91.3113890 147.2541870 116.4213390
  90.0312890 146.5583560 116.8324860 104.1205430 147.5984910 114.7448120
 103.1730340 147.6323890 114.8763550 104.4455420 148.4123860 115.1297480
  94.6524970 143.8982090 113.0404110  94.9599950 143.3428980 112.3239610
  93.7225670 144.0326550 112.8577100  97.0274810 148.2347920 106.7731390
  96.0878480 148.3961880 106.8583850  97.3458070 148.9533600 106.2267380
 100.5129580 149.7035760 117.6965290 100.1000760 150.5289470 117.9505280
  99.7805530 149.1180800 117.5041650  92.6462370 152.4895660 112.5583960
  92.2419370 151.7772910 112.0629860  92.7325490 152.1448900 113.4472000
  91.3590990 149.2638870 116.3383000  91.9105580 149.3734210 115.5636250
  91.8734500 149.6376470 117.0538230 102.8284860 144.0180840 105.6013270
 102.5157520 144.1107670 106.5012340 103.5897330 144.5961870 105.5510700
  89.3467000 151.3840640 110.0590610  89.2264600 152.1102730 109.4471880
  89.0367890 150.6143550 109.5818520 104.0386150 148.7552340 121.5787410
 103.4230420 149.2632010 121.0502870 103.7182570 147.8550670 121.5213350
  91.8130660 144.7275710 113.4414280  91.3698810 145.5085250 113.1098800
  92.3715650 145.0505600 114.1485220  96.1000470 147.5944230 119.0449600
  95.6379840 147.8027250 119.8569540  95.6978580 146.7803580 118.7420270
 101.1004980 148.8153180 120.1746260 100.2498570 148.5158930 120.4955330
 100.9406770 149.0595190 119.2630080  98.1954690 150.3154930 122.2745050
  98.5208100 149.4818680 121.9347280  98.9835020 150.8383450 122.4223380
  94.9289480 144.3486410 108.3220110  94.3043660 144.3446280 109.0473420
  94.8419600 143.4817370 107.9256080  93.8506560 145.2723040 115.3003880
  94.1478890 146.1785870 115.2195900  94.3992120 144.7841820 114.6863450
  91.6044880 149.8509280 111.1695530  91.3785800 149.6346450 112.0742150
  90.8237410 150.2837740 110.8241500  98.8342640 149.8572650 109.7686180
  98.2351530 150.5808450 109.5849800  99.3822250 149.7949430 108.9862630
  94.0444090 150.7494860 121.8355800  93.9487690 149.8089590 121.6856200
  94.8876070 150.9709930 121.4403870  97.4407510 148.4936190 111.7989460
  97.8337080 148.8108390 110.9858150  97.8024360 147.6148070 111.9133980
  89.1754630 147.1608530 119.9889580  88.7818020 148.0083740 120.1962360
  88.4873030 146.5234900 120.1798220  95.7499680 147.2443500 123.0586320
  95.0598000 147.0515700 123.6932410  96.4931980 147.5278140 123.5910620
  86.4771680 145.0836990 114.0219660  86.1884730 145.6539850 114.7344640
  87.2217440 144.6041440 114.3850890  86.6641910 149.0257110 105.2322380
  86.5816580 149.9687870 105.3737370  86.3124970 148.8832020 104.3534730
  98.0262650 151.0841940 115.8940240  97.2943770 151.5928750 116.2430340
  97.6286990 150.2671920 115.5929020  94.4640040 147.7596140 114.2992730
  94.4676100 147.3186090 113.4497270  95.3591160 148.0813470 114.4064550
  90.3142420 147.6422630 113.2586940  89.9742470 148.1197860 114.0153990
  89.5519740 147.1887750 112.8988040  94.5260190 148.7608220 107.2899490
  94.6473010 148.7194700 108.2385310  94.1408700 149.6232370 107.1346220
  98.4888560 146.5375620 115.3063180  98.5061300 146.9884270 116.1505030
  98.2404140 145.6381260 115.5196620  93.5381690 151.0709360 106.6882790
  92.9698590 150.6227610 106.0618700  94.2470690 151.4302140 106.1547940
 101.9159310 143.9507800 121.1449560 102.2405080 143.2197460 121.6707540
 101.9515820 143.6321440 120.2430550  87.6288500 146.5641610 112.1751610
  87.3435420 146.1997280 113.0130230  87.5667360 145.8322070 111.5614750
  92.5547380 150.8606560 118.3642350  92.2504450 151.7398540 118.5892710
  93.5093840 150.9206350 118.3999790  97.3027090 145.4570870 108.8964980
  96.4891700 144.9584040 108.8210290  97.1089040 146.2969120 108.4801330
 100.0175480 149.8290520 107.1927140 100.9055100 150.1407750 107.0178480
  99.9880570 148.9562770 106.8007720  88.6111110 151.7009300 119.5113710
  88.2526050 152.3663150 120.0987050  88.3165670 150.8692850 119.8826330
  91.8124230 152.1593540 122.3953260  91.5124370 152.3050720 121.4981080
  92.5835470 151.5998830 122.3026650 102.2889750 151.1402360 106.6607000
 102.2053470 151.5716580 105.8103440 103.0083940 151.6000710 107.0933820
  87.1219160 151.7000560 106.1348310  87.9914010 151.9825360 106.4184230
  86.6309480 152.5136430 106.0197120  90.1865750 143.4311420 110.7279110
  90.0580380 143.4229320 111.6764030  89.3627770 143.7694510 110.3770120
  87.1859680 145.1902540 120.1885810  86.4718200 145.3899460 120.7938420
  87.6054720 144.4142110 120.5600610  98.6798460 147.6824850 117.9387260
  99.0479280 146.8620060 118.2666830  97.8196660 147.7426740 118.3542910
 102.0460490 146.6381790 108.7474820 101.4173650 146.7427460 108.0333050
 101.5512410 146.8578570 109.5368700  94.0144520 148.9167740 110.1632700
  93.3060670 149.3854080 110.6046310  94.2989000 148.2589750 110.7977890
  95.6400450 150.3364440 118.1625230  96.1385700 150.8110260 118.8277080
  95.7823400 149.4127960 118.3695260  98.0459950 145.6418400 111.6028490
  97.9227730 145.6604530 110.6538000  98.9944510 145.6897340 111.7226890
  92.2179540 147.2252820 107.5383410  93.0670070 147.6622970 107.4723600
  91.8510810 147.5373080 108.3655470 102.8467310 146.5532400 119.0053620
 102.3440910 147.2937800 119.3447430 103.6623970 146.9416400 118.6890410
 101.1389320 151.7965580 112.4514980 100.1979460 151.8115810 112.6262670
 101.4533390 151.0101540 112.8975280  89.8117720 150.9110250 106.6951830
  89.8921310 149.9637760 106.8069230  90.7037470 151.2417130 106.8012490
  89.3711600 150.8754760 122.8258070  89.4116940 150.5768630 123.7343300
  90.2257100 151.2762370 122.6665590  91.3117410 149.4546860 120.7932560
  90.7813870 148.9637810 120.1655900  91.9805480 149.8831060 120.2590490
 100.6817640 151.2612480 122.5612900 101.2638410 150.5064800 122.4733380
 100.8579410 151.7919920 121.7844380  91.7989710 146.4209230 120.8729850
  91.7046580 145.8029980 120.1480720  91.2187100 147.1475520 120.6459760
  94.5651150 144.9782470 117.9057240  94.1168450 145.0006730 117.0602790
  93.9316350 144.5801490 118.5027540  97.3074600 151.6052980 119.9107520
  97.4270810 151.0094120 120.6502360  98.1668600 151.6422670 119.4908820
  92.0448890 149.5483540 104.9319740  91.8437950 148.6850900 105.2933080
  91.8740940 149.4616900 103.9941340  94.0743370 148.1474330 121.1683340
  94.6643060 147.8390180 121.8561160  93.2563610 147.6754080 121.3243240
  98.8936800 147.7640140 121.4016360  98.2052320 147.1021680 121.3366350
  99.6142820 147.3178410 121.8464820  99.5237200 144.3591770 107.4606620
  99.8039490 143.5159670 107.8166040  98.7502930 144.5914880 107.9745370
  90.8431690 146.6484160 104.9197620  91.1457590 146.6551590 104.0116770
  91.5826280 146.2982020 105.4165280  94.0616620 145.5918780 105.9053820
  93.7138620 144.9142770 105.3256270  94.2629390 145.1308290 106.7197210
  87.4022260 152.1206430 112.3018190  86.7471100 151.8518070 111.6577890
  88.2400210 152.0110910 111.8520170 100.3512700 146.9147720 106.5236680
 100.7697580 146.7278700 105.6833340 100.0448760 146.0626770 106.8339610
 103.8502430 151.8271860 110.2212480 103.4746030 151.0599790 109.7893770
 103.1205550 152.2094560 110.7087410  88.4398190 152.5059000 116.8421530
  88.8071230 152.4186400 117.7217550  87.8709010 151.7425550 116.7428390
 103.2402050 150.9743380 119.8552000 103.0088140 150.7456130 118.9549950
 103.5006600 151.8942930 119.8096890  87.9914190 149.4168090 120.7479950
  87.0970240 149.3834850 121.0873660  88.5311740 149.6154880 121.5131200
 101.6790120 146.1999810 122.6331700 102.5560300 146.2083210 123.0165700
 101.6910960 145.4630650 122.0224050  86.6160340 149.3305360 108.2443520
  85.7124420 149.5935560 108.0695180  87.1000960 149.6016530 107.4643480
 103.1253390 150.0529350 113.5219720 103.6490870 149.5592000 112.8909890
 103.7112810 150.1879710 114.2667290 103.3043110 150.1369220 117.0439270
 102.3545820 150.1032760 117.1584260 103.4856120 151.0469330 116.8089040
  89.1587550 148.3870900 106.1537900  89.8679250 147.9654120 105.6685180
  88.4427490 148.4546130 105.5221250  88.8061710 144.4410230 105.1940550
  89.5289840 144.9819170 105.5121770  89.0786230 144.1673650 104.3182090
 102.6153360 149.3102700 109.4612130 103.1112480 149.0773570 110.2461010
 102.4169430 148.4714540 109.0449770  88.4953900 143.6916420 115.0963170
  89.1430090 143.1413800 114.6558330  88.9155740 143.9459570 115.9178980
 104.0440520 147.9463650 111.9949810 103.9339800 147.7919690 112.9332080
 104.8048110 147.4184590 111.7525220 102.3906240 143.8857780 118.4532810
 103.0278460 144.4991920 118.8192000 102.5381130 143.9218440 117.5082040
 104.9330790 145.7771570 105.2355950 105.8580100 145.6452750 105.0274240
 104.9106580 145.8564390 106.1892400 105.0069280 146.5482230 107.8612660
 104.2120780 146.4827350 108.3905570 105.2112560 147.4832870 107.8498010
  88.2485900 143.8472090 117.8388490  87.9000720 144.3035910 118.6046670
  87.9173600 142.9529220 117.9210920  95.7610720 145.0383970 121.3607910
  95.6999610 145.6305800 122.1103320  96.7011100 144.9309930 121.2158170
  98.3985280 144.6954030 121.0000200  99.0125690 145.0133320 120.3381280
  98.9434840 144.2102620 121.6196060  88.9206540 143.3748290 121.1139260
  89.4689530 143.1936340 120.3505370  88.9861850 142.5842400 121.6495570
  99.1393320 143.2586170 117.3269490  98.2653160 143.5921280 117.1242420
  99.0304070 142.7859350 118.1521360 100.0465300 145.4657040 118.7111210
  99.7178660 144.6508800 118.3312940 100.9947600 145.4226850 118.5876900
  96.8868140 144.1756010 116.2662400  96.1039930 144.6501510 116.5459160
  96.5931070 143.2710840 116.1575580 101.4389210 144.8779110 114.3111490
 101.8797300 144.8224210 113.4633090 101.1696800 145.7937120 114.3821670
 103.3027780 144.5094350 112.3220310 103.2416180 143.5655570 112.1751330
 104.0819810 144.6174440 112.8673770  88.2308550 144.4803490 108.7876120
  88.9887910 144.5932370 108.2140150  87.7685720 145.3172690 108.7419550
  94.7722360 146.5942760 111.7778430  93.9596870 146.2199650 111.4374310
  95.2764000 145.8387840 112.0799620  99.2747340 143.2585210 113.0161500
  99.8776710 143.8305420 113.4910020  98.5340330 143.8224650 112.7935400
 102.4181940 143.6606770 108.2901780 102.6132570 144.5590220 108.5569210
 101.6311810 143.4293850 108.7834730  90.6033700 145.0067540 107.3278090
  91.1326460 144.2197340 107.1986040  91.2362020 145.6858730 107.5613620
  92.7971540 144.7442680 110.3823480  92.1674280 144.0429990 110.5493610
  92.2576680 145.5046810 110.1656640  92.9227100 144.0226660 122.8175970
  92.6411370 144.5260260 122.0536790  93.3046800 143.2248410 122.4518100
  99.5242560 143.4380240 123.3956440  99.4108010 143.7574850 124.2907960
 100.3412300 143.8392750 123.0993720  98.4300710 151.4572710  93.7591180
  98.3494760 150.5427320  93.4882890  98.0165130 151.9539780  93.0530890
  88.9876530 148.5073430  90.3018600  88.0993230 148.8489400  90.1998480
  89.2717720 148.3073750  89.4099430  86.9509540 151.1079080  96.1858300
  87.5225650 150.3401280  96.1861940  86.9511080 151.4067840  95.2764910
  88.1934410 146.5163440  97.9727230  88.0137250 145.6189190  98.2529990
  87.7914490 147.0635310  98.6474180  97.0332910 148.7179300  95.8739540
  97.4097730 147.8451180  95.7613210  96.9352420 149.0538000  94.9829980
  91.1637920 147.0904930  91.3356980  91.2704670 147.9908660  91.6425740
  90.2530280 147.0422900  91.0451630 100.8157030 146.2129740  92.8067880
 101.6366650 145.7226310  92.8493360 100.8491110 146.8027400  93.5599720
  88.8121080 149.0123940  96.5809570  89.4931190 149.2762310  97.1996970
  88.4969130 148.1724810  96.9147580  93.0045650 150.0591300  95.6682160
  93.5123870 150.5572270  96.3087180  93.5358890 149.2826500  95.4921520
 105.1056580 148.2296490  99.3711510 104.4008750 148.6178200  98.8526620
 105.3714500 148.9246780  99.9732440  91.2881750 144.6989860  99.9345580
  91.2900190 145.2162250  99.1291480  90.4586060 144.2220040  99.9115510
 101.0518510 148.1530120  95.5795420 100.3474080 148.4415010  96.1598530
 101.4130670 148.9630230  95.2194980  90.9697080 146.4099820  97.9416030
  91.3113890 147.2541870  97.6469900  90.0312890 146.5583560  98.0581370
 104.1205430 147.5984910  95.9704630 103.1730340 147.6323890  96.1020060
 104.4455420 148.4123860  96.3553990  94.6524970 143.8982090  94.2660620
  94.9599950 143.3428980  93.5496120  93.7225670 144.0326550  94.0833610
  97.0274810 148.2347920  87.9987900  96.0878480 148.3961880  88.0840360
  97.3458070 148.9533600  87.4523890 100.5129580 149.7035760  98.9221800
 100.1000760 150.5289470  99.1761790  99.7805530 149.1180800  98.7298160
  92.6462370 152.4895660  93.7840470  92.2419370 151.7772910  93.2886370
  92.7325490 152.1448900  94.6728510  91.3590990 149.2638870  97.5639510
  91.9105580 149.3734210  96.7892760  91.8734500 149.6376470  98.2794740
 102.8284860 144.0180840  86.8269780 102.5157520 144.1107670  87.7268850
 103.5897330 144.5961870  86.7767210  89.3467000 151.3840640  91.2847120
  89.2264600 152.1102730  90.6728390  89.0367890 150.6143550  90.8075030
 104.0386150 148.7552340 102.8043920 103.4230420 149.2632010 102.2759380
 103.7182570 147.8550670 102.7469860  91.8130660 144.7275710  94.6670790
  91.3698810 145.5085250  94.3355310  92.3715650 145.0505600  95.3741730
  96.1000470 147.5944230 100.2706110  95.6379840 147.8027250 101.0826050
  95.6978580 146.7803580  99.9676780 101.1004980 148.8153180 101.4002770
 100.2498570 148.5158930 101.7211840 100.9406770 149.0595190 100.4886590
  98.1954690 150.3154930 103.5001560  98.5208100 149.4818680 103.1603790
  98.9835020 150.8383450 103.6479890  94.9289480 144.3486410  89.5476620
  94.3043660 144.3446280  90.2729930  94.8419600 143.4817370  89.1512590
  93.8506560 145.2723040  96.5260390  94.1478890 146.1785870  96.4452410
  94.3992120 144.7841820  95.9119960  91.6044880 149.8509280  92.3952040
  91.3785800 149.6346450  93.2998660  90.8237410 150.2837740  92.0498010
  98.8342640 149.8572650  90.9942690  98.2351530 150.5808450  90.8106310
  99.3822250 149.7949430  90.2119140  94.0444090 150.7494860 103.0612310
  93.9487690 149.8089590 102.9112710  94.8876070 150.9709930 102.6660380
  97.4407510 148.4936190  93.0245970  97.8337080 148.8108390  92.2114660
  97.8024360 147.6148070  93.1390490  89.1754630 147.1608530 101.2146090
  88.7818020 148.0083740 101.4218870  88.4873030 146.5234900 101.4054730
  95.7499680 147.2443500 104.2842830  95.0598000 147.0515700 104.9188920
  96.4931980 147.5278140 104.8167130  86.4771680 145.0836990  95.2476170
  86.1884730 145.6539850  95.9601150  87.2217440 144.6041440  95.6107400
  86.6641910 149.0257110  86.4578890  86.5816580 149.9687870  86.5993880
  86.3124970 148.8832020  85.5791240  98.0262650 151.0841940  97.1196750
  97.2943770 151.5928750  97.4686850  97.6286990 150.2671920  96.8185530
  94.4640040 147.7596140  95.5249240  94.4676100 147.3186090  94.6753780
  95.3591160 148.0813470  95.6321060  90.3142420 147.6422630  94.4843450
  89.9742470 148.1197860  95.2410500  89.5519740 147.1887750  94.1244550
  94.5260190 148.7608220  88.5156000  94.6473010 148.7194700  89.4641820
  94.1408700 149.6232370  88.3602730  98.4888560 146.5375620  96.5319690
  98.5061300 146.9884270  97.3761540  98.2404140 145.6381260  96.7453130
  93.5381690 151.0709360  87.9139300  92.9698590 150.6227610  87.2875210
  94.2470690 151.4302140  87.3804450 101.9159310 143.9507800 102.3706070
 102.2405080 143.2197460 102.8964050 101.9515820 143.6321440 101.4687060
  87.6288500 146.5641610  93.4008120  87.3435420 146.1997280  94.2386740
  87.5667360 145.8322070  92.7871260  92.5547380 150.8606560  99.5898860
  92.2504450 151.7398540  99.8149220  93.5093840 150.9206350  99.6256300
  97.3027090 145.4570870  90.1221490  96.4891700 144.9584040  90.0466800
  97.1089040 146.2969120  89.7057840 100.0175480 149.8290520  88.4183650
 100.9055100 150.1407750  88.2434990  99.9880570 148.9562770  88.0264230
  88.6111110 151.7009300 100.7370220  88.2526050 152.3663150 101.3243560
  88.3165670 150.8692850 101.1082840  91.8124230 152.1593540 103.6209770
  91.5124370 152.3050720 102.7237590  92.5835470 151.5998830 103.5283160
 102.2889750 151.1402360  87.8863510 102.2053470 151.5716580  87.0359950
 103.0083940 151.6000710  88.3190330  87.1219160 151.7000560  87.3604820
  87.9914010 151.9825360  87.6440740  86.6309480 152.5136430  87.2453630
  90.1865750 143.4311420  91.9535620  90.0580380 143.4229320  92.9020540
  89.3627770 143.7694510  91.6026630  87.1859680 145.1902540 101.4142320
  86.4718200 145.3899460 102.0194930  87.6054720 144.4142110 101.7857120
  98.6798460 147.6824850  99.1643770  99.0479280 146.8620060  99.4923340
  97.8196660 147.7426740  99.5799420 102.0460490 146.6381790  89.9731330
 101.4173650 146.7427460  89.2589560 101.5512410 146.8578570  90.7625210
  94.0144520 148.9167740  91.3889210  93.3060670 149.3854080  91.8302820
  94.2989000 148.2589750  92.0234400  95.6400450 150.3364440  99.3881740
  96.1385700 150.8110260 100.0533590  95.7823400 149.4127960  99.5951770
  98.0459950 145.6418400  92.8285000  97.9227730 145.6604530  91.8794510
  98.9944510 145.6897340  92.9483400  92.2179540 147.2252820  88.7639920
  93.0670070 147.6622970  88.6980110  91.8510810 147.5373080  89.5911980
 102.8467310 146.5532400 100.2310130 102.3440910 147.2937800 100.5703940
 103.6623970 146.9416400  99.9146920 101.1389320 151.7965580  93.6771490
 100.1979460 151.8115810  93.8519180 101.4533390 151.0101540  94.1231790
  89.8117720 150.9110250  87.9208340  89.8921310 149.9637760  88.0325740
  90.7037470 151.2417130  88.0269000  89.3711600 150.8754760 104.0514580
  89.4116940 150.5768630 104.9599810  90.2257100 151.2762370 103.8922100
  91.3117410 149.4546860 102.0189070  90.7813870 148.9637810 101.3912410
  91.9805480 149.8831060 101.4847000 100.6817640 151.2612480 103.7869410
 101.2638410 150.5064800 103.6989890 100.8579410 151.7919920 103.0100890
  91.7989710 146.4209230 102.0986360  91.7046580 145.8029980 101.3737230
  91.2187100 147.1475520 101.8716270  94.5651150 144.9782470  99.1313750
  94.1168450 145.0006730  98.2859300  93.9316350 144.5801490  99.7284050
  97.3074600 151.6052980 101.1364030  97.4270810 151.0094120 101.8758870
  98.1668600 151.6422670 100.7165330  92.0448890 149.5483540  86.1576250
  91.8437950 148.6850900  86.5189590  91.8740940 149.4616900  85.2197850
  94.0743370 148.1474330 102.3939850  94.6643060 147.8390180 103.0817670
  93.2563610 147.6754080 102.5499750  98.8936800 147.7640140 102.6272870
  98.2052320 147.1021680 102.5622860  99.6142820 147.3178410 103.0721330
  99.5237200 144.3591770  88.6863130  99.8039490 143.5159670  89.0422550
  98.7502930 144.5914880  89.2001880  90.8431690 146.6484160  86.1454130
  91.1457590 146.6551590  85.2373280  91.5826280 146.2982020  86.6421790
  94.0616620 145.5918780  87.1310330  93.7138620 144.9142770  86.5512780
  94.2629390 145.1308290  87.9453720  87.4022260 152.1206430  93.5274700
  86.7471100 151.8518070  92.8834400  88.2400210 152.0110910  93.0776680
 100.3512700 146.9147720  87.7493190 100.7697580 146.7278700  86.9089850
 100.0448760 146.0626770  88.0596120 103.8502430 151.8271860  91.4468990
 103.4746030 151.0599790  91.0150280 103.1205550 152.2094560  91.9343920
  88.4398190 152.5059000  98.0678040  88.8071230 152.4186400  98.9474060
  87.8709010 151.7425550  97.9684900 103.2402050 150.9743380 101.0808510
 103.0088140 150.7456130 100.1806460 103.5006600 151.8942930 101.0353400
  87.9914190 149.4168090 101.9736460  87.0970240 149.3834850 102.3130170
  88.5311740 149.6154880 102.7387710 101.6790120 146.1999810 103.8588210
 102.5560300 146.2083210 104.2422210 101.6910960 145.4630650 103.2480560
  86.6160340 149.3305360  89.4700030  85.7124420 149.5935560  89.2951690
  87.1000960 149.6016530  88.6899990 103.1253390 150.0529350  94.7476230
 103.6490870 149.5592000  94.1166400 103.7112810 150.1879710  95.4923800
 103.3043110 150.1369220  98.2695780 102.3545820 150.1032760  98.3840770
 103.4856120 151.0469330  98.0345550  89.1587550 148.3870900  87.3794410
  89.8679250 147.9654120  86.8941690  88.4427490 148.4546130  86.7477760
  88.8061710 144.4410230  86.4197060  89.5289840 144.9819170  86.7378280
  89.0786230 144.1673650  85.5438600 102.6153360 149.3102700  90.6868640
 103.1112480 149.0773570  91.4717520 102.4169430 148.4714540  90.2706280
  88.4953900 143.6916420  96.3219680  89.1430090 143.1413800  95.8814840
  88.9155740 143.9459570  97.1435490 104.0440520 147.9463650  93.2206320
 103.9339800 147.7919690  94.1588590 104.8048110 147.4184590  92.9781730
 102.3906240 143.8857780  99.6789320 103.0278460 144.4991920 100.0448510
 102.5381130 143.9218440  98.7338550 104.9330790 145.7771570  86.4612460
 105.8580100 145.6452750  86.2530750 104.9106580 145.8564390  87.4148910
 105.0069280 146.5482230  89.0869170 104.2120780 146.4827350  89.6162080
 105.2112560 147.4832870  89.0754520  88.2485900 143.8472090  99.0645000
  87.9000720 144.3035910  99.8303180  87.9173600 142.9529220  99.1467430
  95.7610720 145.0383970 102.5864420  95.6999610 145.6305800 103.3359830
  96.7011100 144.9309930 102.4414680  98.3985280 144.6954030 102.2256710
  99.0125690 145.0133320 101.5637790  98.9434840 144.2102620 102.8452570
  88.9206540 143.3748290 102.3395770  89.4689530 143.1936340 101.5761880
  88.9861850 142.5842400 102.8752080  99.1393320 143.2586170  98.5526000
  98.2653160 143.5921280  98.3498930  99.0304070 142.7859350  99.3777870
 100.0465300 145.4657040  99.9367720  99.7178660 144.6508800  99.5569450
 100.9947600 145.4226850  99.8133410  96.8868140 144.1756010  97.4918910
  96.1039930 144.6501510  97.7715670  96.5931070 143.2710840  97.3832090
 101.4389210 144.8779110  95.5368000 101.8797300 144.8224210  94.6889600
 101.1696800 145.7937120  95.6078180 103.3027780 144.5094350  93.5476820
 103.2416180 143.5655570  93.4007840 104.0819810 144.6174440  94.0930280
  88.2308550 144.4803490  90.0132630  88.9887910 144.5932370  89.4396660
  87.7685720 145.3172690  89.9676060  94.7722360 146.5942760  93.0034940
  93.9596870 146.2199650  92.6630820  95.2764000 145.8387840  93.3056130
  99.2747340 143.2585210  94.2418010  99.8776710 143.8305420  94.7166530
  98.5340330 143.8224650  94.0191910 102.4181940 143.6606770  89.5158290
 102.6132570 144.5590220  89.7825720 101.6311810 143.4293850  90.0091240
  90.6033700 145.0067540  88.5534600  91.1326460 144.2197340  88.4242550
  91.2362020 145.6858730  88.7870130  92.7971540 144.7442680  91.6079990
  92.1674280 144.0429990  91.7750120  92.2576680 145.5046810  91.3913150
  92.9227100 144.0226660 104.0432480  92.6411370 144.5260260 103.2793300
  93.3046800 143.2248410 103.6774610  99.5242560 143.4380240 104.6212950
  99.4108010 143.7574850 105.5164470 100.3412300 143.8392750 104.3250230
  98.4300710 151.4572710  74.9847690  98.3494760 150.5427320  74.7139400
  98.0165130 151.9539780  74.2787400  88.9876530 148.5073430  71.5275110
  88.0993230 148.8489400  71.4254990  89.2717720 148.3073750  70.6355940
  86.9509540 151.1079080  77.4114810  87.5225650 150.3401280  77.4118450
  86.9511080 151.4067840  76.5021420  88.1934410 146.5163440  79.1983740
  88.0137250 145.6189190  79.4786500  87.7914490 147.0635310  79.8730690
  97.0332910 148.7179300  77.0996050  97.4097730 147.8451180  76.9869720
  96.9352420 149.0538000  76.2086490  91.1637920 147.0904930  72.5613490
  91.2704670 147.9908660  72.8682250  90.2530280 147.0422900  72.2708140
 100.8157030 146.2129740  74.0324390 101.6366650 145.7226310  74.0749870
 100.8491110 146.8027400  74.7856230  88.8121080 149.0123940  77.8066080
  89.4931190 149.2762310  78.4253480  88.4969130 148.1724810  78.1404090
  93.0045650 150.0591300  76.8938670  93.5123870 150.5572270  77.5343690
  93.5358890 149.2826500  76.7178030 105.1056580 148.2296490  80.5968020
 104.4008750 148.6178200  80.0783130 105.3714500 148.9246780  81.1988950
  91.2881750 144.6989860  81.1602090  91.2900190 145.2162250  80.3547990
  90.4586060 144.2220040  81.1372020 101.0518510 148.1530120  76.8051930
 100.3474080 148.4415010  77.3855040 101.4130670 148.9630230  76.4451490
  90.9697080 146.4099820  79.1672540  91.3113890 147.2541870  78.8726410
  90.0312890 146.5583560  79.2837880 104.1205430 147.5984910  77.1961140
 103.1730340 147.6323890  77.3276570 104.4455420 148.4123860  77.5810500
  94.6524970 143.8982090  75.4917130  94.9599950 143.3428980  74.7752630
  93.7225670 144.0326550  75.3090120  97.0274810 148.2347920  69.2244410
  96.0878480 148.3961880  69.3096870  97.3458070 148.9533600  68.6780400
 100.5129580 149.7035760  80.1478310 100.1000760 150.5289470  80.4018300
  99.7805530 149.1180800  79.9554670  92.6462370 152.4895660  75.0096980
  92.2419370 151.7772910  74.5142880  92.7325490 152.1448900  75.8985020
  91.3590990 149.2638870  78.7896020  91.9105580 149.3734210  78.0149270
  91.8734500 149.6376470  79.5051250 102.8284860 144.0180840  68.0526290
 102.5157520 144.1107670  68.9525360 103.5897330 144.5961870  68.0023720
  89.3467000 151.3840640  72.5103630  89.2264600 152.1102730  71.8984900
  89.0367890 150.6143550  72.0331540 104.0386150 148.7552340  84.0300430
 103.4230420 149.2632010  83.5015890 103.7182570 147.8550670  83.9726370
  91.8130660 144.7275710  75.8927300  91.3698810 145.5085250  75.5611820
  92.3715650 145.0505600  76.5998240  96.1000470 147.5944230  81.4962620
  95.6379840 147.8027250  82.3082560  95.6978580 146.7803580  81.1933290
 101.1004980 148.8153180  82.6259280 100.2498570 148.5158930  82.9468350
 100.9406770 149.0595190  81.7143100  98.1954690 150.3154930  84.7258070
  98.5208100 149.4818680  84.3860300  98.9835020 150.8383450  84.8736400
  94.9289480 144.3486410  70.7733130  94.3043660 144.3446280  71.4986440
  94.8419600 143.4817370  70.3769100  93.8506560 145.2723040  77.7516900
  94.1478890 146.1785870  77.6708920  94.3992120 144.7841820  77.1376470
  91.6044880 149.8509280  73.6208550  91.3785800 149.6346450  74.5255170
  90.8237410 150.2837740  73.2754520  98.8342640 149.8572650  72.2199200
  98.2351530 150.5808450  72.0362820  99.3822250 149.7949430  71.4375650
  94.0444090 150.7494860  84.2868820  93.9487690 149.8089590  84.1369220
  94.8876070 150.9709930  83.8916890  97.4407510 148.4936190  74.2502480
  97.8337080 148.8108390  73.4371170  97.8024360 147.6148070  74.3647000
  89.1754630 147.1608530  82.4402600  88.7818020 148.0083740  82.6475380
  88.4873030 146.5234900  82.6311240  95.7499680 147.2443500  85.5099340
  95.0598000 147.0515700  86.1445430  96.4931980 147.5278140  86.0423640
  86.4771680 145.0836990  76.4732680  86.1884730 145.6539850  77.1857660
  87.2217440 144.6041440  76.8363910  86.6641910 149.0257110  67.6835400
  86.5816580 149.9687870  67.8250390  86.3124970 148.8832020  66.8047750
  98.0262650 151.0841940  78.3453260  97.2943770 151.5928750  78.6943360
  97.6286990 150.2671920  78.0442040  94.4640040 147.7596140  76.7505750
  94.4676100 147.3186090  75.9010290  95.3591160 148.0813470  76.8577570
  90.3142420 147.6422630  75.7099960  89.9742470 148.1197860  76.4667010
  89.5519740 147.1887750  75.3501060  94.5260190 148.7608220  69.7412510
  94.6473010 148.7194700  70.6898330  94.1408700 149.6232370  69.5859240
  98.4888560 146.5375620  77.7576200  98.5061300 146.9884270  78.6018050
  98.2404140 145.6381260  77.9709640  93.5381690 151.0709360  69.1395810
  92.9698590 150.6227610  68.5131720  94.2470690 151.4302140  68.6060960
 101.9159310 143.9507800  83.5962580 102.2405080 143.2197460  84.1220560
 101.9515820 143.6321440  82.6943570  87.6288500 146.5641610  74.6264630
  87.3435420 146.1997280  75.4643250  87.5667360 145.8322070  74.0127770
  92.5547380 150.8606560  80.8155370  92.2504450 151.7398540  81.0405730
  93.5093840 150.9206350  80.8512810  97.3027090 145.4570870  71.3478000
  96.4891700 144.9584040  71.2723310  97.1089040 146.2969120  70.9314350
 100.0175480 149.8290520  69.6440160 100.9055100 150.1407750  69.4691500
  99.9880570 148.9562770  69.2520740  88.6111110 151.7009300  81.9626730
  88.2526050 152.3663150  82.5500070  88.3165670 150.8692850  82.3339350
  91.8124230 152.1593540  84.8466280  91.5124370 152.3050720  83.9494100
  92.5835470 151.5998830  84.7539670 102.2889750 151.1402360  69.1120020
 102.2053470 151.5716580  68.2616460 103.0083940 151.6000710  69.5446840
  87.1219160 151.7000560  68.5861330  87.9914010 151.9825360  68.8697250
  86.6309480 152.5136430  68.4710140  90.1865750 143.4311420  73.1792130
  90.0580380 143.4229320  74.1277050  89.3627770 143.7694510  72.8283140
  87.1859680 145.1902540  82.6398830  86.4718200 145.3899460  83.2451440
  87.6054720 144.4142110  83.0113630  98.6798460 147.6824850  80.3900280
  99.0479280 146.8620060  80.7179850  97.8196660 147.7426740  80.8055930
 102.0460490 146.6381790  71.1987840 101.4173650 146.7427460  70.4846070
 101.5512410 146.8578570  71.9881720  94.0144520 148.9167740  72.6145720
  93.3060670 149.3854080  73.0559330  94.2989000 148.2589750  73.2490910
  95.6400450 150.3364440  80.6138250  96.1385700 150.8110260  81.2790100
  95.7823400 149.4127960  80.8208280  98.0459950 145.6418400  74.0541510
  97.9227730 145.6604530  73.1051020  98.9944510 145.6897340  74.1739910
  92.2179540 147.2252820  69.9896430  93.0670070 147.6622970  69.9236620
  91.8510810 147.5373080  70.8168490 102.8467310 146.5532400  81.4566640
 102.3440910 147.2937800  81.7960450 103.6623970 146.9416400  81.1403430
 101.1389320 151.7965580  74.9028000 100.1979460 151.8115810  75.0775690
 101.4533390 151.0101540  75.3488300  89.8117720 150.9110250  69.1464850
  89.8921310 149.9637760  69.2582250  90.7037470 151.2417130  69.2525510
  89.3711600 150.8754760  85.2771090  89.4116940 150.5768630  86.1856320
  90.2257100 151.2762370  85.1178610  91.3117410 149.4546860  83.2445580
  90.7813870 148.9637810  82.6168920  91.9805480 149.8831060  82.7103510
 100.6817640 151.2612480  85.0125920 101.2638410 150.5064800  84.9246400
 100.8579410 151.7919920  84.2357400  91.7989710 146.4209230  83.3242870
  91.7046580 145.8029980  82.5993740  91.2187100 147.1475520  83.0972780
  94.5651150 144.9782470  80.3570260  94.1168450 145.0006730  79.5115810
  93.9316350 144.5801490  80.9540560  97.3074600 151.6052980  82.3620540
  97.4270810 151.0094120  83.1015380  98.1668600 151.6422670  81.9421840
  92.0448890 149.5483540  67.3832760  91.8437950 148.6850900  67.7446100
  91.8740940 149.4616900  66.4454360  94.0743370 148.1474330  83.6196360
  94.6643060 147.8390180  84.3074180  93.2563610 147.6754080  83.7756260
  98.8936800 147.7640140  83.8529380  98.2052320 147.1021680  83.7879370
  99.6142820 147.3178410  84.2977840  99.5237200 144.3591770  69.9119640
  99.8039490 143.5159670  70.2679060  98.7502930 144.5914880  70.4258390
  90.8431690 146.6484160  67.3710640  91.1457590 146.6551590  66.4629790
  91.5826280 146.2982020  67.8678300  94.0616620 145.5918780  68.3566840
  93.7138620 144.9142770  67.7769290  94.2629390 145.1308290  69.1710230
  87.4022260 152.1206430  74.7531210  86.7471100 151.8518070  74.1090910
  88.2400210 152.0110910  74.3033190 100.3512700 146.9147720  68.9749700
 100.7697580 146.7278700  68.1346360 100.0448760 146.0626770  69.2852630
 103.8502430 151.8271860  72.6725500 103.4746030 151.0599790  72.2406790
 103.1205550 152.2094560  73.1600430  88.4398190 152.5059000  79.2934550
  88.8071230 152.4186400  80.1730570  87.8709010 151.7425550  79.1941410
 103.2402050 150.9743380  82.3065020 103.0088140 150.7456130  81.4062970
 103.5006600 151.8942930  82.2609910  87.9914190 149.4168090  83.1992970
  87.0970240 149.3834850  83.5386680  88.5311740 149.6154880  83.9644220
 101.6790120 146.1999810  85.0844720 102.5560300 146.2083210  85.4678720
 101.6910960 145.4630650  84.4737070  86.6160340 149.3305360  70.6956540
  85.7124420 149.5935560  70.5208200  87.1000960 149.6016530  69.9156500
 103.1253390 150.0529350  75.9732740 103.6490870 149.5592000  75.3422910
 103.7112810 150.1879710  76.7180310 103.3043110 150.1369220  79.4952290
 102.3545820 150.1032760  79.6097280 103.4856120 151.0469330  79.2602060
  89.1587550 148.3870900  68.6050920  89.8679250 147.9654120  68.1198200
  88.4427490 148.4546130  67.9734270  88.8061710 144.4410230  67.6453570
  89.5289840 144.9819170  67.9634790  89.0786230 144.1673650  66.7695110
 102.6153360 149.3102700  71.9125150 103.1112480 149.0773570  72.6974030
 102.4169430 148.4714540  71.4962790  88.4953900 143.6916420  77.5476190
  89.1430090 143.1413800  77.1071350  88.9155740 143.9459570  78.3692000
 104.0440520 147.9463650  74.4462830 103.9339800 147.7919690  75.3845100
 104.8048110 147.4184590  74.2038240 102.3906240 143.8857780  80.9045830
 103.0278460 144.4991920  81.2705020 102.5381130 143.9218440  79.9595060
 104.9330790 145.7771570  67.6868970 105.8580100 145.6452750  67.4787260
 104.9106580 145.8564390  68.6405420 105.0069280 146.5482230  70.3125680
 104.2120780 146.4827350  70.8418590 105.2112560 147.4832870  70.3011030
  88.2485900 143.8472090  80.2901510  87.9000720 144.3035910  81.0559690
  87.9173600 142.9529220  80.3723940  95.7610720 145.0383970  83.8120930
  95.6999610 145.6305800  84.5616340  96.7011100 144.9309930  83.6671190
  98.3985280 144.6954030  83.4513220  99.0125690 145.0133320  82.7894300
  98.9434840 144.2102620  84.0709080  88.9206540 143.3748290  83.5652280
  89.4689530 143.1936340  82.8018390  88.9861850 142.5842400  84.1008590
  99.1393320 143.2586170  79.7782510  98.2653160 143.5921280  79.5755440
  99.0304070 142.7859350  80.6034380 100.0465300 145.4657040  81.1624230
  99.7178660 144.6508800  80.7825960 100.9947600 145.4226850  81.0389920
  96.8868140 144.1756010  78.7175420  96.1039930 144.6501510  78.9972180
  96.5931070 143.2710840  78.6088600 101.4389210 144.8779110  76.7624510
 101.8797300 144.8224210  75.9146110 101.1696800 145.7937120  76.8334690
 103.3027780 144.5094350  74.7733330 103.2416180 143.5655570  74.6264350
 104.0819810 144.6174440  75.3186790  88.2308550 144.4803490  71.2389140
  88.9887910 144.5932370  70.6653170  87.7685720 145.3172690  71.1932570
  94.7722360 146.5942760  74.2291450  93.9596870 146.2199650  73.8887330
  95.2764000 145.8387840  74.5312640  99.2747340 143.2585210  75.4674520
  99.8776710 143.8305420  75.9423040  98.5340330 143.8224650  75.2448420
 102.4181940 143.6606770  70.7414800 102.6132570 144.5590220  71.0082230
 101.6311810 143.4293850  71.2347750  90.6033700 145.0067540  69.7791110
  91.1326460 144.2197340  69.6499060  91.2362020 145.6858730  70.0126640
  92.7971540 144.7442680  72.8336500  92.1674280 144.0429990  73.0006630
  92.2576680 145.5046810  72.6169660  92.9227100 144.0226660  85.2688990
  92.6411370 144.5260260  84.5049810  93.3046800 143.2248410  84.9031120
  99.5242560 143.4380240  85.8469460  99.4108010 143.7574850  86.7420980
 100.3412300 143.8392750  85.5506740  98.4300710 151.4572710  56.2104200
  98.3494760 150.5427320  55.9395910  98.0165130 151.9539780  55.5043910
  88.9876530 148.5073430  52.7531620  88.0993230 148.8489400  52.6511500
  89.2717720 148.3073750  51.8612450  86.9509540 151.1079080  58.6371320
  87.5225650 150.3401280  58.6374960  86.9511080 151.4067840  57.7277930
  88.1934410 146.5163440  60.4240250  88.0137250 145.6189190  60.7043010
  87.7914490 147.0635310  61.0987200  97.0332910 148.7179300  58.3252560
  97.4097730 147.8451180  58.2126230  96.9352420 149.0538000  57.4343000
  91.1637920 147.0904930  53.7870000  91.2704670 147.9908660  54.0938760
  90.2530280 147.0422900  53.4964650 100.8157030 146.2129740  55.2580900
 101.6366650 145.7226310  55.3006380 100.8491110 146.8027400  56.0112740
  88.8121080 149.0123940  59.0322590  89.4931190 149.2762310  59.6509990
  88.4969130 148.1724810  59.3660600  93.0045650 150.0591300  58.1195180
  93.5123870 150.5572270  58.7600200  93.5358890 149.2826500  57.9434540
 105.1056580 148.2296490  61.8224530 104.4008750 148.6178200  61.3039640
 105.3714500 148.9246780  62.4245460  91.2881750 144.6989860  62.3858600
  91.2900190 145.2162250  61.5804500  90.4586060 144.2220040  62.3628530
 101.0518510 148.1530120  58.0308440 100.3474080 148.4415010  58.6111550
 101.4130670 148.9630230  57.6708000  90.9697080 146.4099820  60.3929050
  91.3113890 147.2541870  60.0982920  90.0312890 146.5583560  60.5094390
 104.1205430 147.5984910  58.4217650 103.1730340 147.6323890  58.5533080
 104.4455420 148.4123860  58.8067010  94.6524970 143.8982090  56.7173640
  94.9599950 143.3428980  56.0009140  93.7225670 144.0326550  56.5346630
  97.0274810 148.2347920  50.4500920  96.0878480 148.3961880  50.5353380
  97.3458070 148.9533600  49.9036910 100.5129580 149.7035760  61.3734820
 100.1000760 150.5289470  61.6274810  99.7805530 149.1180800  61.1811180
  92.6462370 152.4895660  56.2353490  92.2419370 151.7772910  55.7399390
  92.7325490 152.1448900  57.1241530  91.3590990 149.2638870  60.0152530
  91.9105580 149.3734210  59.2405780  91.8734500 149.6376470  60.7307760
 102.8284860 144.0180840  49.2782800 102.5157520 144.1107670  50.1781870
 103.5897330 144.5961870  49.2280230  89.3467000 151.3840640  53.7360140
  89.2264600 152.1102730  53.1241410  89.0367890 150.6143550  53.2588050
 104.0386150 148.7552340  65.2556940 103.4230420 149.2632010  64.7272400
 103.7182570 147.8550670  65.1982880  91.8130660 144.7275710  57.1183810
  91.3698810 145.5085250  56.7868330  92.3715650 145.0505600  57.8254750
  96.1000470 147.5944230  62.7219130  95.6379840 147.8027250  63.5339070
  95.6978580 146.7803580  62.4189800 101.1004980 148.8153180  63.8515790
 100.2498570 148.5158930  64.1724860 100.9406770 149.0595190  62.9399610
  98.1954690 150.3154930  65.9514580  98.5208100 149.4818680  65.6116810
  98.9835020 150.8383450  66.0992910  94.9289480 144.3486410  51.9989640
  94.3043660 144.3446280  52.7242950  94.8419600 143.4817370  51.6025610
  93.8506560 145.2723040  58.9773410  94.1478890 146.1785870  58.8965430
  94.3992120 144.7841820  58.3632980  91.6044880 149.8509280  54.8465060
  91.3785800 149.6346450  55.7511680  90.8237410 150.2837740  54.5011030
  98.8342640 149.8572650  53.4455710  98.2351530 150.5808450  53.2619330
  99.3822250 149.7949430  52.6632160  94.0444090 150.7494860  65.5125330
  93.9487690 149.8089590  65.3625730  94.8876070 150.9709930  65.1173400
  97.4407510 148.4936190  55.4758990  97.8337080 148.8108390  54.6627680
  97.8024360 147.6148070  55.5903510  89.1754630 147.1608530  63.6659110
  88.7818020 148.0083740  63.8731890  88.4873030 146.5234900  63.8567750
  95.7499680 147.2443500  66.7355850  95.0598000 147.0515700  67.3701940
  96.4931980 147.5278140  67.2680150  86.4771680 145.0836990  57.6989190
  86.1884730 145.6539850  58.4114170  87.2217440 144.6041440  58.0620420
  86.6641910 149.0257110  48.9091910  86.5816580 149.9687870  49.0506900
  86.3124970 148.8832020  48.0304260  98.0262650 151.0841940  59.5709770
  97.2943770 151.5928750  59.9199870  97.6286990 150.2671920  59.2698550
  94.4640040 147.7596140  57.9762260  94.4676100 147.3186090  57.1266800
  95.3591160 148.0813470  58.0834080  90.3142420 147.6422630  56.9356470
  89.9742470 148.1197860  57.6923520  89.5519740 147.1887750  56.5757570
  94.5260190 148.7608220  50.9669020  94.6473010 148.7194700  51.9154840
  94.1408700 149.6232370  50.8115750  98.4888560 146.5375620  58.9832710
  98.5061300 146.9884270  59.8274560  98.2404140 145.6381260  59.1966150
  93.5381690 151.0709360  50.3652320  92.9698590 150.6227610  49.7388230
  94.2470690 151.4302140  49.8317470 101.9159310 143.9507800  64.8219090
 102.2405080 143.2197460  65.3477070 101.9515820 143.6321440  63.9200080
  87.6288500 146.5641610  55.8521140  87.3435420 146.1997280  56.6899760
  87.5667360 145.8322070  55.2384280  92.5547380 150.8606560  62.0411880
  92.2504450 151.7398540  62.2662240  93.5093840 150.9206350  62.0769320
  97.3027090 145.4570870  52.5734510  96.4891700 144.9584040  52.4979820
  97.1089040 146.2969120  52.1570860 100.0175480 149.8290520  50.8696670
 100.9055100 150.1407750  50.6948010  99.9880570 148.9562770  50.4777250
  88.6111110 151.7009300  63.1883240  88.2526050 152.3663150  63.7756580
  88.3165670 150.8692850  63.5595860  91.8124230 152.1593540  66.0722790
  91.5124370 152.3050720  65.1750610  92.5835470 151.5998830  65.9796180
 102.2889750 151.1402360  50.3376530 102.2053470 151.5716580  49.4872970
 103.0083940 151.6000710  50.7703350  87.1219160 151.7000560  49.8117840
  87.9914010 151.9825360  50.0953760  86.6309480 152.5136430  49.6966650
  90.1865750 143.4311420  54.4048640  90.0580380 143.4229320  55.3533560
  89.3627770 143.7694510  54.0539650  87.1859680 145.1902540  63.8655340
  86.4718200 145.3899460  64.4707950  87.6054720 144.4142110  64.2370140
  98.6798460 147.6824850  61.6156790  99.0479280 146.8620060  61.9436360
  97.8196660 147.7426740  62.0312440 102.0460490 146.6381790  52.4244350
 101.4173650 146.7427460  51.7102580 101.5512410 146.8578570  53.2138230
  94.0144520 148.9167740  53.8402230  93.3060670 149.3854080  54.2815840
  94.2989000 148.2589750  54.4747420  95.6400450 150.3364440  61.8394760
  96.1385700 150.8110260  62.5046610  95.7823400 149.4127960  62.0464790
  98.0459950 145.6418400  55.2798020  97.9227730 145.6604530  54.3307530
  98.9944510 145.6897340  55.3996420  92.2179540 147.2252820  51.2152940
  93.0670070 147.6622970  51.1493130  91.8510810 147.5373080  52.0425000
 102.8467310 146.5532400  62.6823150 102.3440910 147.2937800  63.0216960
 103.6623970 146.9416400  62.3659940 101.1389320 151.7965580  56.1284510
 100.1979460 151.8115810  56.3032200 101.4533390 151.0101540  56.5744810
  89.8117720 150.9110250  50.3721360  89.8921310 149.9637760  50.4838760
  90.7037470 151.2417130  50.4782020  89.3711600 150.8754760  66.5027600
  89.4116940 150.5768630  67.4112830  90.2257100 151.2762370  66.3435120
  91.3117410 149.4546860  64.4702090  90.7813870 148.9637810  63.8425430
  91.9805480 149.8831060  63.9360020 100.6817640 151.2612480  66.2382430
 101.2638410 150.5064800  66.1502910 100.8579410 151.7919920  65.4613910
  91.7989710 146.4209230  64.5499380  91.7046580 145.8029980  63.8250250
  91.2187100 147.1475520  64.3229290  94.5651150 144.9782470  61.5826770
  94.1168450 145.0006730  60.7372320  93.9316350 144.5801490  62.1797070
  97.3074600 151.6052980  63.5877050  97.4270810 151.0094120  64.3271890
  98.1668600 151.6422670  63.1678350  92.0448890 149.5483540  48.6089270
  91.8437950 148.6850900  48.9702610  91.8740940 149.4616900  47.6710870
  94.0743370 148.1474330  64.8452870  94.6643060 147.8390180  65.5330690
  93.2563610 147.6754080  65.0012770  98.8936800 147.7640140  65.0785890
  98.2052320 147.1021680  65.0135880  99.6142820 147.3178410  65.5234350
  99.5237200 144.3591770  51.1376150  99.8039490 143.5159670  51.4935570
  98.7502930 144.5914880  51.6514900  90.8431690 146.6484160  48.5967150
  91.1457590 146.6551590  47.6886300  91.5826280 146.2982020  49.0934810
  94.0616620 145.5918780  49.5823350  93.7138620 144.9142770  49.0025800
  94.2629390 145.1308290  50.3966740  87.4022260 152.1206430  55.9787720
  86.7471100 151.8518070  55.3347420  88.2400210 152.0110910  55.5289700
 100.3512700 146.9147720  50.2006210 100.7697580 146.7278700  49.3602870
 100.0448760 146.0626770  50.5109140 103.8502430 151.8271860  53.8982010
 103.4746030 151.0599790  53.4663300 103.1205550 152.2094560  54.3856940
  88.4398190 152.5059000  60.5191060  88.8071230 152.4186400  61.3987080
  87.8709010 151.7425550  60.4197920 103.2402050 150.9743380  63.5321530
 103.0088140 150.7456130  62.6319480 103.5006600 151.8942930  63.4866420
  87.9914190 149.4168090  64.4249480  87.0970240 149.3834850  64.7643190
  88.5311740 149.6154880  65.1900730 101.6790120 146.1999810  66.3101230
 102.5560300 146.2083210  66.6935230 101.6910960 145.4630650  65.6993580
  86.6160340 149.3305360  51.9213050  85.7124420 149.5935560  51.7464710
  87.1000960 149.6016530  51.1413010 103.1253390 150.0529350  57.1989250
 103.6490870 149.5592000  56.5679420 103.7112810 150.1879710  57.9436820
 103.3043110 150.1369220  60.7208800 102.3545820 150.1032760  60.8353790
 103.4856120 151.0469330  60.4858570  89.1587550 148.3870900  49.8307430
  89.8679250 147.9654120  49.3454710  88.4427490 148.4546130  49.1990780
  88.8061710 144.4410230  48.8710080  89.5289840 144.9819170  49.1891300
  89.0786230 144.1673650  47.9951620 102.6153360 149.3102700  53.1381660
 103.1112480 149.0773570  53.9230540 102.4169430 148.4714540  52.7219300
  88.4953900 143.6916420  58.7732700  89.1430090 143.1413800  58.3327860
  88.9155740 143.9459570  59.5948510 104.0440520 147.9463650  55.6719340
 103.9339800 147.7919690  56.6101610 104.8048110 147.4184590  55.4294750
 102.3906240 143.8857780  62.1302340 103.0278460 144.4991920  62.4961530
 102.5381130 143.9218440  61.1851570 104.9330790 145.7771570  48.9125480
 105.8580100 145.6452750  48.7043770 104.9106580 145.8564390  49.8661930
 105.0069280 146.5482230  51.5382190 104.2120780 146.4827350  52.0675100
 105.2112560 147.4832870  51.5267540  88.2485900 143.8472090  61.5158020
  87.9000720 144.3035910  62.2816200  87.9173600 142.9529220  61.5980450
  95.7610720 145.0383970  65.0377440  95.6999610 145.6305800  65.7872850
  96.7011100 144.9309930  64.8927700  98.3985280 144.6954030  64.6769730
  99.0125690 145.0133320  64.0150810  98.9434840 144.2102620  65.2965590
  88.9206540 143.3748290  64.7908790  89.4689530 143.1936340  64.0274900
  88.9861850 142.5842400  65.3265100  99.1393320 143.2586170  61.0039020
  98.2653160 143.5921280  60.8011950  99.0304070 142.7859350  61.8290890
 100.0465300 145.4657040  62.3880740  99.7178660 144.6508800  62.0082470
 100.9947600 145.4226850  62.2646430  96.8868140 144.1756010  59.9431930
  96.1039930 144.6501510  60.2228690  96.5931070 143.2710840  59.8345110
 101.4389210 144.8779110  57.9881020 101.8797300 144.8224210  57.1402620
 101.1696800 145.7937120  58.0591200 103.3027780 144.5094350  55.9989840
 103.2416180 143.5655570  55.8520860 104.0819810 144.6174440  56.5443300
  88.2308550 144.4803490  52.4645650  88.9887910 144.5932370  51.8909680
  87.7685720 145.3172690  52.4189080  94.7722360 146.5942760  55.4547960
  93.9596870 146.2199650  55.1143840  95.2764000 145.8387840  55.7569150
  99.2747340 143.2585210  56.6931030  99.8776710 143.8305420  57.1679550
  98.5340330 143.8224650  56.4704930 102.4181940 143.6606770  51.9671310
 102.6132570 144.5590220  52.2338740 101.6311810 143.4293850  52.4604260
  90.6033700 145.0067540  51.0047620  91.1326460 144.2197340  50.8755570
  91.2362020 145.6858730  51.2383150  92.7971540 144.7442680  54.0593010
  92.1674280 144.0429990  54.2263140  92.2576680 145.5046810  53.8426170
  92.9227100 144.0226660  66.4945500  92.6411370 144.5260260  65.7306320
  93.3046800 143.2248410  66.1287630  99.5242560 143.4380240  67.0725970
  99.4108010 143.7574850  67.9677490 100.3412300 143.8392750  66.7763250
  98.4300710 151.4572710  37.4360710  98.3494760 150.5427320  37.1652420
  98.0165130 151.9539780  36.7300420  88.9876530 148.5073430  33.9788130
  88.0993230 148.8489400  33.8768010  89.2717720 148.3073750  33.0868960
  86.9509540 151.1079080  39.8627830  87.5225650 150.3401280  39.8631470
  86.9511080 151.4067840  38.9534440  88.1934410 146.5163440  41.6496760
  88.0137250 145.6189190  41.9299520  87.7914490 147.0635310  42.3243710
  97.0332910 148.7179300  39.5509070  97.4097730 147.8451180  39.4382740
  96.9352420 149.0538000  38.6599510  91.1637920 147.0904930  35.0126510
  91.2704670 147.9908660  35.3195270  90.2530280 147.0422900  34.7221160
 100.8157030 146.2129740  36.4837410 101.6366650 145.7226310  36.5262890
 100.8491110 146.8027400  37.2369250  88.8121080 149.0123940  40.2579100
  89.4931190 149.2762310  40.8766500  88.4969130 148.1724810  40.5917110
  93.0045650 150.0591300  39.3451690  93.5123870 150.5572270  39.9856710
  93.5358890 149.2826500  39.1691050 105.1056580 148.2296490  43.0481040
 104.4008750 148.6178200  42.5296150 105.3714500 148.9246780  43.6501970
  91.2881750 144.6989860  43.6115110  91.2900190 145.2162250  42.8061010
  90.4586060 144.2220040  43.5885040 101.0518510 148.1530120  39.2564950
 100.3474080 148.4415010  39.8368060 101.4130670 148.9630230  38.8964510
  90.9697080 146.4099820  41.6185560  91.3113890 147.2541870  41.3239430
  90.0312890 146.5583560  41.7350900 104.1205430 147.5984910  39.6474160
 103.1730340 147.6323890  39.7789590 104.4455420 148.4123860  40.0323520
  94.6524970 143.8982090  37.9430150  94.9599950 143.3428980  37.2265650
  93.7225670 144.0326550  37.7603140  97.0274810 148.2347920  31.6757430
  96.0878480 148.3961880  31.7609890  97.3458070 148.9533600  31.1293420
 100.5129580 149.7035760  42.5991330 100.1000760 150.5289470  42.8531320
  99.7805530 149.1180800  42.4067690  92.6462370 152.4895660  37.4610000
  92.2419370 151.7772910  36.9655900  92.7325490 152.1448900  38.3498040
  91.3590990 149.2638870  41.2409040  91.9105580 149.3734210  40.4662290
  91.8734500 149.6376470  41.9564270 102.8284860 144.0180840  30.5039310
 102.5157520 144.1107670  31.4038380 103.5897330 144.5961870  30.4536740
  89.3467000 151.3840640  34.9616650  89.2264600 152.1102730  34.3497920
  89.0367890 150.6143550  34.4844560 104.0386150 148.7552340  46.4813450
 103.4230420 149.2632010  45.9528910 103.7182570 147.8550670  46.4239390
  91.8130660 144.7275710  38.3440320  91.3698810 145.5085250  38.0124840
  92.3715650 145.0505600  39.0511260  96.1000470 147.5944230  43.9475640
  95.6379840 147.8027250  44.7595580  95.6978580 146.7803580  43.6446310
 101.1004980 148.8153180  45.0772300 100.2498570 148.5158930  45.3981370
 100.9406770 149.0595190  44.1656120  98.1954690 150.3154930  47.1771090
  98.5208100 149.4818680  46.8373320  98.9835020 150.8383450  47.3249420
  94.9289480 144.3486410  33.2246150  94.3043660 144.3446280  33.9499460
  94.8419600 143.4817370  32.8282120  93.8506560 145.2723040  40.2029920
  94.1478890 146.1785870  40.1221940  94.3992120 144.7841820  39.5889490
  91.6044880 149.8509280  36.0721570  91.3785800 149.6346450  36.9768190
  90.8237410 150.2837740  35.7267540  98.8342640 149.8572650  34.6712220
  98.2351530 150.5808450  34.4875840  99.3822250 149.7949430  33.8888670
  94.0444090 150.7494860  46.7381840  93.9487690 149.8089590  46.5882240
  94.8876070 150.9709930  46.3429910  97.4407510 148.4936190  36.7015500
  97.8337080 148.8108390  35.8884190  97.8024360 147.6148070  36.8160020
  89.1754630 147.1608530  44.8915620  88.7818020 148.0083740  45.0988400
  88.4873030 146.5234900  45.0824260  95.7499680 147.2443500  47.9612360
  95.0598000 147.0515700  48.5958450  96.4931980 147.5278140  48.4936660
  86.4771680 145.0836990  38.9245700  86.1884730 145.6539850  39.6370680
  87.2217440 144.6041440  39.2876930  86.6641910 149.0257110  30.1348420
  86.5816580 149.9687870  30.2763410  86.3124970 148.8832020  29.2560770
  98.0262650 151.0841940  40.7966280  97.2943770 151.5928750  41.1456380
  97.6286990 150.2671920  40.4955060  94.4640040 147.7596140  39.2018770
  94.4676100 147.3186090  38.3523310  95.3591160 148.0813470  39.3090590
  90.3142420 147.6422630  38.1612980  89.9742470 148.1197860  38.9180030
  89.5519740 147.1887750  37.8014080  94.5260190 148.7608220  32.1925530
  94.6473010 148.7194700  33.1411350  94.1408700 149.6232370  32.0372260
  98.4888560 146.5375620  40.2089220  98.5061300 146.9884270  41.0531070
  98.2404140 145.6381260  40.4222660  93.5381690 151.0709360  31.5908830
  92.9698590 150.6227610  30.9644740  94.2470690 151.4302140  31.0573980
 101.9159310 143.9507800  46.0475600 102.2405080 143.2197460  46.5733580
 101.9515820 143.6321440  45.1456590  87.6288500 146.5641610  37.0777650
  87.3435420 146.1997280  37.9156270  87.5667360 145.8322070  36.4640790
  92.5547380 150.8606560  43.2668390  92.2504450 151.7398540  43.4918750
  93.5093840 150.9206350  43.3025830  97.3027090 145.4570870  33.7991020
  96.4891700 144.9584040  33.7236330  97.1089040 146.2969120  33.3827370
 100.0175480 149.8290520  32.0953180 100.9055100 150.1407750  31.9204520
  99.9880570 148.9562770  31.7033760  88.6111110 151.7009300  44.4139750
  88.2526050 152.3663150  45.0013090  88.3165670 150.8692850  44.7852370
  91.8124230 152.1593540  47.2979300  91.5124370 152.3050720  46.4007120
  92.5835470 151.5998830  47.2052690 102.2889750 151.1402360  31.5633040
 102.2053470 151.5716580  30.7129480 103.0083940 151.6000710  31.9959860
  87.1219160 151.7000560  31.0374350  87.9914010 151.9825360  31.3210270
  86.6309480 152.5136430  30.9223160  90.1865750 143.4311420  35.6305150
  90.0580380 143.4229320  36.5790070  89.3627770 143.7694510  35.2796160
  87.1859680 145.1902540  45.0911850  86.4718200 145.3899460  45.6964460
  87.6054720 144.4142110  45.4626650  98.6798460 147.6824850  42.8413300
  99.0479280 146.8620060  43.1692870  97.8196660 147.7426740  43.2568950
 102.0460490 146.6381790  33.6500860 101.4173650 146.7427460  32.9359090
 101.5512410 146.8578570  34.4394740  94.0144520 148.9167740  35.0658740
  93.3060670 149.3854080  35.5072350  94.2989000 148.2589750  35.7003930
  95.6400450 150.3364440  43.0651270  96.1385700 150.8110260  43.7303120
  95.7823400 149.4127960  43.2721300  98.0459950 145.6418400  36.5054530
  97.9227730 145.6604530  35.5564040  98.9944510 145.6897340  36.6252930
  92.2179540 147.2252820  32.4409450  93.0670070 147.6622970  32.3749640
  91.8510810 147.5373080  33.2681510 102.8467310 146.5532400  43.9079660
 102.3440910 147.2937800  44.2473470 103.6623970 146.9416400  43.5916450
 101.1389320 151.7965580  37.3541020 100.1979460 151.8115810  37.5288710
 101.4533390 151.0101540  37.8001320  89.8117720 150.9110250  31.5977870
  89.8921310 149.9637760  31.7095270  90.7037470 151.2417130  31.7038530
  89.3711600 150.8754760  47.7284110  89.4116940 150.5768630  48.6369340
  90.2257100 151.2762370  47.5691630  91.3117410 149.4546860  45.6958600
  90.7813870 148.9637810  45.0681940  91.9805480 149.8831060  45.1616530
 100.6817640 151.2612480  47.4638940 101.2638410 150.5064800  47.3759420
 100.8579410 151.7919920  46.6870420  91.7989710 146.4209230  45.7755890
  91.7046580 145.8029980  45.0506760  91.2187100 147.1475520  45.5485800
  94.5651150 144.9782470  42.8083280  94.1168450 145.0006730  41.9628830
  93.9316350 144.5801490  43.4053580  97.3074600 151.6052980  44.8133560
  97.4270810 151.0094120  45.5528400  98.1668600 151.6422670  44.3934860
  92.0448890 149.5483540  29.8345780  91.8437950 148.6850900  30.1959120
  91.8740940 149.4616900  28.8967380  94.0743370 148.1474330  46.0709380
  94.6643060 147.8390180  46.7587200  93.2563610 147.6754080  46.2269280
  98.8936800 147.7640140  46.3042400  98.2052320 147.1021680  46.2392390
  99.6142820 147.3178410  46.7490860  99.5237200 144.3591770  32.3632660
  99.8039490 143.5159670  32.7192080  98.7502930 144.5914880  32.8771410
  90.8431690 146.6484160  29.8223660  91.1457590 146.6551590  28.9142810
  91.5826280 146.2982020  30.3191320  94.0616620 145.5918780  30.8079860
  93.7138620 144.9142770  30.2282310  94.2629390 145.1308290  31.6223250
  87.4022260 152.1206430  37.2044230  86.7471100 151.8518070  36.5603930
  88.2400210 152.0110910  36.7546210 100.3512700 146.9147720  31.4262720
 100.7697580 146.7278700  30.5859380 100.0448760 146.0626770  31.7365650
 103.8502430 151.8271860  35.1238520 103.4746030 151.0599790  34.6919810
 103.1205550 152.2094560  35.6113450  88.4398190 152.5059000  41.7447570
  88.8071230 152.4186400  42.6243590  87.8709010 151.7425550  41.6454430
 103.2402050 150.9743380  44.7578040 103.0088140 150.7456130  43.8575990
 103.5006600 151.8942930  44.7122930  87.9914190 149.4168090  45.6505990
  87.0970240 149.3834850  45.9899700  88.5311740 149.6154880  46.4157240
 101.6790120 146.1999810  47.5357740 102.5560300 146.2083210  47.9191740
 101.6910960 145.4630650  46.9250090  86.6160340 149.3305360  33.1469560
  85.7124420 149.5935560  32.9721220  87.1000960 149.6016530  32.3669520
 103.1253390 150.0529350  38.4245760 103.6490870 149.5592000  37.7935930
 103.7112810 150.1879710  39.1693330 103.3043110 150.1369220  41.9465310
 102.3545820 150.1032760  42.0610300 103.4856120 151.0469330  41.7115080
  89.1587550 148.3870900  31.0563940  89.8679250 147.9654120  30.5711220
  88.4427490 148.4546130  30.4247290  88.8061710 144.4410230  30.0966590
  89.5289840 144.9819170  30.4147810  89.0786230 144.1673650  29.2208130
 102.6153360 149.3102700  34.3638170 103.1112480 149.0773570  35.1487050
 102.4169430 148.4714540  33.9475810  88.4953900 143.6916420  39.9989210
  89.1430090 143.1413800  39.5584370  88.9155740 143.9459570  40.8205020
 104.0440520 147.9463650  36.8975850 103.9339800 147.7919690  37.8358120
 104.8048110 147.4184590  36.6551260 102.3906240 143.8857780  43.3558850
 103.0278460 144.4991920  43.7218040 102.5381130 143.9218440  42.4108080
 104.9330790 145.7771570  30.1381990 105.8580100 145.6452750  29.9300280
 104.9106580 145.8564390  31.0918440 105.0069280 146.5482230  32.7638700
 104.2120780 146.4827350  33.2931610 105.2112560 147.4832870  32.7524050
  88.2485900 143.8472090  42.7414530  87.9000720 144.3035910  43.5072710
  87.9173600 142.9529220  42.8236960  95.7610720 145.0383970  46.2633950
  95.6999610 145.6305800  47.0129360  96.7011100 144.9309930  46.1184210
  98.3985280 144.6954030  45.9026240  99.0125690 145.0133320  45.2407320
  98.9434840 144.2102620  46.5222100  88.9206540 143.3748290  46.0165300
  89.4689530 143.1936340  45.2531410  88.9861850 142.5842400  46.5521610
  99.1393320 143.2586170  42.2295530  98.2653160 143.5921280  42.0268460
  99.0304070 142.7859350  43.0547400 100.0465300 145.4657040  43.6137250
  99.7178660 144.6508800  43.2338980 100.9947600 145.4226850  43.4902940
  96.8868140 144.1756010  41.1688440  96.1039930 144.6501510  41.4485200
  96.5931070 143.2710840  41.0601620 101.4389210 144.8779110  39.2137530
 101.8797300 144.8224210  38.3659130 101.1696800 145.7937120  39.2847710
 103.3027780 144.5094350  37.2246350 103.2416180 143.5655570  37.0777370
 104.0819810 144.6174440  37.7699810  88.2308550 144.4803490  33.6902160
  88.9887910 144.5932370  33.1166190  87.7685720 145.3172690  33.6445590
  94.7722360 146.5942760  36.6804470  93.9596870 146.2199650  36.3400350
  95.2764000 145.8387840  36.9825660  99.2747340 143.2585210  37.9187540
  99.8776710 143.8305420  38.3936060  98.5340330 143.8224650  37.6961440
 102.4181940 143.6606770  33.1927820 102.6132570 144.5590220  33.4595250
 101.6311810 143.4293850  33.6860770  90.6033700 145.0067540  32.2304130
  91.1326460 144.2197340  32.1012080  91.2362020 145.6858730  32.4639660
  92.7971540 144.7442680  35.2849520  92.1674280 144.0429990  35.4519650
  92.2576680 145.5046810  35.0682680  92.9227100 144.0226660  47.7202010
  92.6411370 144.5260260  46.9562830  93.3046800 143.2248410  47.3544140
  99.5242560 143.4380240  48.2982480  99.4108010 143.7574850  49.1934000
 100.3412300 143.8392750  48.0019760  98.4300710 151.4572710  18.6617220
  98.3494760 150.5427320  18.3908930  98.0165130 151.9539780  17.9556930
  88.9876530 148.5073430  15.2044640  88.0993230 148.8489400  15.1024520
  89.2717720 148.3073750  14.3125470  86.9509540 151.1079080  21.0884340
  87.5225650 150.3401280  21.0887980  86.9511080 151.4067840  20.1790950
  88.1934410 146.5163440  22.8753270  88.0137250 145.6189190  23.1556030
  87.7914490 147.0635310  23.5500220  97.0332910 148.7179300  20.7765580
  97.4097730 147.8451180  20.6639250  96.9352420 149.0538000  19.8856020
  91.1637920 147.0904930  16.2383020  91.2704670 147.9908660  16.5451780
  90.2530280 147.0422900  15.9477670 100.8157030 146.2129740  17.7093920
 101.6366650 145.7226310  17.7519400 100.8491110 146.8027400  18.4625760
  88.8121080 149.0123940  21.4835610  89.4931190 149.2762310  22.1023010
  88.4969130 148.1724810  21.8173620  93.0045650 150.0591300  20.5708200
  93.5123870 150.5572270  21.2113220  93.5358890 149.2826500  20.3947560
 105.1056580 148.2296490  24.2737550 104.4008750 148.6178200  23.7552660
 105.3714500 148.9246780  24.8758480  91.2881750 144.6989860  24.8371620
  91.2900190 145.2162250  24.0317520  90.4586060 144.2220040  24.8141550
 101.0518510 148.1530120  20.4821460 100.3474080 148.4415010  21.0624570
 101.4130670 148.9630230  20.1221020  90.9697080 146.4099820  22.8442070
  91.3113890 147.2541870  22.5495940  90.0312890 146.5583560  22.9607410
 104.1205430 147.5984910  20.8730670 103.1730340 147.6323890  21.0046100
 104.4455420 148.4123860  21.2580030  94.6524970 143.8982090  19.1686660
  94.9599950 143.3428980  18.4522160  93.7225670 144.0326550  18.9859650
  97.0274810 148.2347920  12.9013940  96.0878480 148.3961880  12.9866400
  97.3458070 148.9533600  12.3549930 100.5129580 149.7035760  23.8247840
 100.1000760 150.5289470  24.0787830  99.7805530 149.1180800  23.6324200
  92.6462370 152.4895660  18.6866510  92.2419370 151.7772910  18.1912410
  92.7325490 152.1448900  19.5754550  91.3590990 149.2638870  22.4665550
  91.9105580 149.3734210  21.6918800  91.8734500 149.6376470  23.1820780
 102.8284860 144.0180840  11.7295820 102.5157520 144.1107670  12.6294890
 103.5897330 144.5961870  11.6793250  89.3467000 151.3840640  16.1873160
  89.2264600 152.1102730  15.5754430  89.0367890 150.6143550  15.7101070
 104.0386150 148.7552340  27.7069960 103.4230420 149.2632010  27.1785420
 103.7182570 147.8550670  27.6495900  91.8130660 144.7275710  19.5696830
  91.3698810 145.5085250  19.2381350  92.3715650 145.0505600  20.2767770
  96.1000470 147.5944230  25.1732150  95.6379840 147.8027250  25.9852090
  95.6978580 146.7803580  24.8702820 101.1004980 148.8153180  26.3028810
 100.2498570 148.5158930  26.6237880 100.9406770 149.0595190  25.3912630
  98.1954690 150.3154930  28.4027600  98.5208100 149.4818680  28.0629830
  98.9835020 150.8383450  28.5505930  94.9289480 144.3486410  14.4502660
  94.3043660 144.3446280  15.1755970  94.8419600 143.4817370  14.0538630
  93.8506560 145.2723040  21.4286430  94.1478890 146.1785870  21.3478450
  94.3992120 144.7841820  20.8146000  91.6044880 149.8509280  17.2978080
  91.3785800 149.6346450  18.2024700  90.8237410 150.2837740  16.9524050
  98.8342640 149.8572650  15.8968730  98.2351530 150.5808450  15.7132350
  99.3822250 149.7949430  15.1145180  94.0444090 150.7494860  27.9638350
  93.9487690 149.8089590  27.8138750  94.8876070 150.9709930  27.5686420
  97.4407510 148.4936190  17.9272010  97.8337080 148.8108390  17.1140700
  97.8024360 147.6148070  18.0416530  89.1754630 147.1608530  26.1172130
  88.7818020 148.0083740  26.3244910  88.4873030 146.5234900  26.3080770
  95.7499680 147.2443500  29.1868870  95.0598000 147.0515700  29.8214960
  96.4931980 147.5278140  29.7193170  86.4771680 145.0836990  20.1502210
  86.1884730 145.6539850  20.8627190  87.2217440 144.6041440  20.5133440
  86.6641910 149.0257110  11.3604930  86.5816580 149.9687870  11.5019920
  86.3124970 148.8832020  10.4817280  98.0262650 151.0841940  22.0222790
  97.2943770 151.5928750  22.3712890  97.6286990 150.2671920  21.7211570
  94.4640040 147.7596140  20.4275280  94.4676100 147.3186090  19.5779820
  95.3591160 148.0813470  20.5347100  90.3142420 147.6422630  19.3869490
  89.9742470 148.1197860  20.1436540  89.5519740 147.1887750  19.0270590
  94.5260190 148.7608220  13.4182040  94.6473010 148.7194700  14.3667860
  94.1408700 149.6232370  13.2628770  98.4888560 146.5375620  21.4345730
  98.5061300 146.9884270  22.2787580  98.2404140 145.6381260  21.6479170
  93.5381690 151.0709360  12.8165340  92.9698590 150.6227610  12.1901250
  94.2470690 151.4302140  12.2830490 101.9159310 143.9507800  27.2732110
 102.2405080 143.2197460  27.7990090 101.9515820 143.6321440  26.3713100
  87.6288500 146.5641610  18.3034160  87.3435420 146.1997280  19.1412780
  87.5667360 145.8322070  17.6897300  92.5547380 150.8606560  24.4924900
  92.2504450 151.7398540  24.7175260  93.5093840 150.9206350  24.5282340
  97.3027090 145.4570870  15.0247530  96.4891700 144.9584040  14.9492840
  97.1089040 146.2969120  14.6083880 100.0175480 149.8290520  13.3209690
 100.9055100 150.1407750  13.1461030  99.9880570 148.9562770  12.9290270
  88.6111110 151.7009300  25.6396260  88.2526050 152.3663150  26.2269600
  88.3165670 150.8692850  26.0108880  91.8124230 152.1593540  28.5235810
  91.5124370 152.3050720  27.6263630  92.5835470 151.5998830  28.4309200
 102.2889750 151.1402360  12.7889550 102.2053470 151.5716580  11.9385990
 103.0083940 151.6000710  13.2216370  87.1219160 151.7000560  12.2630860
  87.9914010 151.9825360  12.5466780  86.6309480 152.5136430  12.1479670
  90.1865750 143.4311420  16.8561660  90.0580380 143.4229320  17.8046580
  89.3627770 143.7694510  16.5052670  87.1859680 145.1902540  26.3168360
  86.4718200 145.3899460  26.9220970  87.6054720 144.4142110  26.6883160
  98.6798460 147.6824850  24.0669810  99.0479280 146.8620060  24.3949380
  97.8196660 147.7426740  24.4825460 102.0460490 146.6381790  14.8757370
 101.4173650 146.7427460  14.1615600 101.5512410 146.8578570  15.6651250
  94.0144520 148.9167740  16.2915250  93.3060670 149.3854080  16.7328860
  94.2989000 148.2589750  16.9260440  95.6400450 150.3364440  24.2907780
  96.1385700 150.8110260  24.9559630  95.7823400 149.4127960  24.4977810
  98.0459950 145.6418400  17.7311040  97.9227730 145.6604530  16.7820550
  98.9944510 145.6897340  17.8509440  92.2179540 147.2252820  13.6665960
  93.0670070 147.6622970  13.6006150  91.8510810 147.5373080  14.4938020
 102.8467310 146.5532400  25.1336170 102.3440910 147.2937800  25.4729980
 103.6623970 146.9416400  24.8172960 101.1389320 151.7965580  18.5797530
 100.1979460 151.8115810  18.7545220 101.4533390 151.0101540  19.0257830
  89.8117720 150.9110250  12.8234380  89.8921310 149.9637760  12.9351780
  90.7037470 151.2417130  12.9295040  89.3711600 150.8754760  28.9540620
  89.4116940 150.5768630  29.8625850  90.2257100 151.2762370  28.7948140
  91.3117410 149.4546860  26.9215110  90.7813870 148.9637810  26.2938450
  91.9805480 149.8831060  26.3873040 100.6817640 151.2612480  28.6895450
 101.2638410 150.5064800  28.6015930 100.8579410 151.7919920  27.9126930
  91.7989710 146.4209230  27.0012400  91.7046580 145.8029980  26.2763270
  91.2187100 147.1475520  26.7742310  94.5651150 144.9782470  24.0339790
  94.1168450 145.0006730  23.1885340  93.9316350 144.5801490  24.6310090
  97.3074600 151.6052980  26.0390070  97.4270810 151.0094120  26.7784910
  98.1668600 151.6422670  25.6191370  92.0448890 149.5483540  11.0602290
  91.8437950 148.6850900  11.4215630  91.8740940 149.4616900  10.1223890
  94.0743370 148.1474330  27.2965890  94.6643060 147.8390180  27.9843710
  93.2563610 147.6754080  27.4525790  98.8936800 147.7640140  27.5298910
  98.2052320 147.1021680  27.4648900  99.6142820 147.3178410  27.9747370
  99.5237200 144.3591770  13.5889170  99.8039490 143.5159670  13.9448590
  98.7502930 144.5914880  14.1027920  90.8431690 146.6484160  11.0480170
  91.1457590 146.6551590  10.1399320  91.5826280 146.2982020  11.5447830
  94.0616620 145.5918780  12.0336370  93.7138620 144.9142770  11.4538820
  94.2629390 145.1308290  12.8479760  87.4022260 152.1206430  18.4300740
  86.7471100 151.8518070  17.7860440  88.2400210 152.0110910  17.9802720
 100.3512700 146.9147720  12.6519230 100.7697580 146.7278700  11.8115890
 100.0448760 146.0626770  12.9622160 103.8502430 151.8271860  16.3495030
 103.4746030 151.0599790  15.9176320 103.1205550 152.2094560  16.8369960
  88.4398190 152.5059000  22.9704080  88.8071230 152.4186400  23.8500100
  87.8709010 151.7425550  22.8710940 103.2402050 150.9743380  25.9834550
 103.0088140 150.7456130  25.0832500 103.5006600 151.8942930  25.9379440
  87.9914190 149.4168090  26.8762500  87.0970240 149.3834850  27.2156210
  88.5311740 149.6154880  27.6413750 101.6790120 146.1999810  28.7614250
 102.5560300 146.2083210  29.1448250 101.6910960 145.4630650  28.1506600
  86.6160340 149.3305360  14.3726070  85.7124420 149.5935560  14.1977730
  87.1000960 149.6016530  13.5926030 103.1253390 150.0529350  19.6502270
 103.6490870 149.5592000  19.0192440 103.7112810 150.1879710  20.3949840
 103.3043110 150.1369220  23.1721820 102.3545820 150.1032760  23.2866810
 103.4856120 151.0469330  22.9371590  89.1587550 148.3870900  12.2820450
  89.8679250 147.9654120  11.7967730  88.4427490 148.4546130  11.6503800
  88.8061710 144.4410230  11.3223100  89.5289840 144.9819170  11.6404320
  89.0786230 144.1673650  10.4464640 102.6153360 149.3102700  15.5894680
 103.1112480 149.0773570  16.3743560 102.4169430 148.4714540  15.1732320
  88.4953900 143.6916420  21.2245720  89.1430090 143.1413800  20.7840880
  88.9155740 143.9459570  22.0461530 104.0440520 147.9463650  18.1232360
 103.9339800 147.7919690  19.0614630 104.8048110 147.4184590  17.8807770
 102.3906240 143.8857780  24.5815360 103.0278460 144.4991920  24.9474550
 102.5381130 143.9218440  23.6364590 104.9330790 145.7771570  11.3638500
 105.8580100 145.6452750  11.1556790 104.9106580 145.8564390  12.3174950
 105.0069280 146.5482230  13.9895210 104.2120780 146.4827350  14.5188120
 105.2112560 147.4832870  13.9780560  88.2485900 143.8472090  23.9671040
  87.9000720 144.3035910  24.7329220  87.9173600 142.9529220  24.0493470
  95.7610720 145.0383970  27.4890460  95.6999610 145.6305800  28.2385870
  96.7011100 144.9309930  27.3440720  98.3985280 144.6954030  27.1282750
  99.0125690 145.0133320  26.4663830  98.9434840 144.2102620  27.7478610
  88.9206540 143.3748290  27.2421810  89.4689530 143.1936340  26.4787920
  88.9861850 142.5842400  27.7778120  99.1393320 143.2586170  23.4552040
  98.2653160 143.5921280  23.2524970  99.0304070 142.7859350  24.2803910
 100.0465300 145.4657040  24.8393760  99.7178660 144.6508800  24.4595490
 100.9947600 145.4226850  24.7159450  96.8868140 144.1756010  22.3944950
  96.1039930 144.6501510  22.6741710  96.5931070 143.2710840  22.2858130
 101.4389210 144.8779110  20.4394040 101.8797300 144.8224210  19.5915640
 101.1696800 145.7937120  20.5104220 103.3027780 144.5094350  18.4502860
 103.2416180 143.5655570  18.3033880 104.0819810 144.6174440  18.9956320
  88.2308550 144.4803490  14.9158670  88.9887910 144.5932370  14.3422700
  87.7685720 145.3172690  14.8702100  94.7722360 146.5942760  17.9060980
  93.9596870 146.2199650  17.5656860  95.2764000 145.8387840  18.2082170
  99.2747340 143.2585210  19.1444050  99.8776710 143.8305420  19.6192570
  98.5340330 143.8224650  18.9217950 102.4181940 143.6606770  14.4184330
 102.6132570 144.5590220  14.6851760 101.6311810 143.4293850  14.9117280
  90.6033700 145.0067540  13.4560640  91.1326460 144.2197340  13.3268590
  91.2362020 145.6858730  13.6896170  92.7971540 144.7442680  16.5106030
  92.1674280 144.0429990  16.6776160  92.2576680 145.5046810  16.2939190
  92.9227100 144.0226660  28.9458520  92.6411370 144.5260260  28.1819340
  93.3046800 143.2248410  28.5800650  99.5242560 143.4380240  29.5238990
  99.4108010 143.7574850  30.4190510 100.3412300 143.8392750  29.2276270
  88.1934410 146.5163440   4.1009780  88.0137250 145.6189190   4.3812540
  87.7914490 147.0635310   4.7756730  88.8121080 149.0123940   2.7092120
  89.4931190 149.2762310   3.3279520  88.4969130 148.1724810   3.0430130
  93.0045650 150.0591300   1.7964710  93.5123870 150.5572270   2.4369730
  93.5358890 149.2826500   1.6204070 105.1056580 148.2296490   5.4994060
 104.4008750 148.6178200   4.9809170 105.3714500 148.9246780   6.1014990
  91.2881750 144.6989860   6.0628130  91.2900190 145.2162250   5.2574030
  90.4586060 144.2220040   6.0398060  90.9697080 146.4099820   4.0698580
  91.3113890 147.2541870   3.7752450  90.0312890 146.5583560   4.1863920
 104.1205430 147.5984910   2.0987180 103.1730340 147.6323890   2.2302610
 104.4455420 148.4123860   2.4836540 100.5129580 149.7035760   5.0504350
 100.1000760 150.5289470   5.3044340  99.7805530 149.1180800   4.8580710
  91.3590990 149.2638870   3.6922060  91.9105580 149.3734210   2.9175310
  91.8734500 149.6376470   4.4077290 104.0386150 148.7552340   8.9326470
 103.4230420 149.2632010   8.4041930 103.7182570 147.8550670   8.8752410
  96.1000470 147.5944230   6.3988660  95.6379840 147.8027250   7.2108600
  95.6978580 146.7803580   6.0959330 101.1004980 148.8153180   7.5285320
 100.2498570 148.5158930   7.8494390 100.9406770 149.0595190   6.6169140
  98.1954690 150.3154930   9.6284110  98.5208100 149.4818680   9.2886340
  98.9835020 150.8383450   9.7762440  93.8506560 145.2723040   2.6542940
  94.1478890 146.1785870   2.5734960  94.3992120 144.7841820   2.0402510
  94.0444090 150.7494860   9.1894860  93.9487690 149.8089590   9.0395260
  94.8876070 150.9709930   8.7942930  89.1754630 147.1608530   7.3428640
  88.7818020 148.0083740   7.5501420  88.4873030 146.5234900   7.5337280
  95.7499680 147.2443500  10.4125380  95.0598000 147.0515700  11.0471470
  96.4931980 147.5278140  10.9449680  98.0262650 151.0841940   3.2479300
  97.2943770 151.5928750   3.5969400  97.6286990 150.2671920   2.9468080
  98.4888560 146.5375620   2.6602240  98.5061300 146.9884270   3.5044090
  98.2404140 145.6381260   2.8735680 101.9159310 143.9507800   8.4988620
 102.2405080 143.2197460   9.0246600 101.9515820 143.6321440   7.5969610
  92.5547380 150.8606560   5.7181410  92.2504450 151.7398540   5.9431770
  93.5093840 150.9206350   5.7538850  88.6111110 151.7009300   6.8652770
  88.2526050 152.3663150   7.4526110  88.3165670 150.8692850   7.2365390
  91.8124230 152.1593540   9.7492320  91.5124370 152.3050720   8.8520140
  92.5835470 151.5998830   9.6565710  87.1859680 145.1902540   7.5424870
  86.4718200 145.3899460   8.1477480  87.6054720 144.4142110   7.9139670
  98.6798460 147.6824850   5.2926320  99.0479280 146.8620060   5.6205890
  97.8196660 147.7426740   5.7081970  95.6400450 150.3364440   5.5164290
  96.1385700 150.8110260   6.1816140  95.7823400 149.4127960   5.7234320
 102.8467310 146.5532400   6.3592680 102.3440910 147.2937800   6.6986490
 103.6623970 146.9416400   6.0429470  89.3711600 150.8754760  10.1797130
  89.4116940 150.5768630  11.0882360  90.2257100 151.2762370  10.0204650
  91.3117410 149.4546860   8.1471620  90.7813870 148.9637810   7.5194960
  91.9805480 149.8831060   7.6129550 100.6817640 151.2612480   9.9151960
 101.2638410 150.5064800   9.8272440 100.8579410 151.7919920   9.1383440
  91.7989710 146.4209230   8.2268910  91.7046580 145.8029980   7.5019780
  91.2187100 147.1475520   7.9998820  94.5651150 144.9782470   5.2596300
  94.1168450 145.0006730   4.4141850  93.9316350 144.5801490   5.8566600
  97.3074600 151.6052980   7.2646580  97.4270810 151.0094120   8.0041420
  98.1668600 151.6422670   6.8447880  94.0743370 148.1474330   8.5222400
  94.6643060 147.8390180   9.2100220  93.2563610 147.6754080   8.6782300
  98.8936800 147.7640140   8.7555420  98.2052320 147.1021680   8.6905410
  99.6142820 147.3178410   9.2003880  88.4398190 152.5059000   4.1960590
  88.8071230 152.4186400   5.0756610  87.8709010 151.7425550   4.0967450
 103.2402050 150.9743380   7.2091060 103.0088140 150.7456130   6.3089010
 103.5006600 151.8942930   7.1635950  87.9914190 149.4168090   8.1019010
  87.0970240 149.3834850   8.4412720  88.5311740 149.6154880   8.8670260
 101.6790120 146.1999810   9.9870760 102.5560300 146.2083210  10.3704760
 101.6910960 145.4630650   9.3763110 103.3043110 150.1369220   4.3978330
 102.3545820 150.1032760   4.5123320 103.4856120 151.0469330   4.1628100
  88.4953900 143.6916420   2.4502230  89.1430090 143.1413800   2.0097390
  88.9155740 143.9459570   3.2718040 102.3906240 143.8857780   5.8071870
 103.0278460 144.4991920   6.1731060 102.5381130 143.9218440   4.8621100
  88.2485900 143.8472090   5.1927550  87.9000720 144.3035910   5.9585730
  87.9173600 142.9529220   5.2749980  95.7610720 145.0383970   8.7146970
  95.6999610 145.6305800   9.4642380  96.7011100 144.9309930   8.5697230
  98.3985280 144.6954030   8.3539260  99.0125690 145.0133320   7.6920340
  98.9434840 144.2102620   8.9735120  88.9206540 143.3748290   8.4678320
  89.4689530 143.1936340   7.7044430  88.9861850 142.5842400   9.0034630
  99.1393320 143.2586170   4.6808550  98.2653160 143.5921280   4.4781480
  99.0304070 142.7859350   5.5060420 100.0465300 145.4657040   6.0650270
  99.7178660 144.6508800   5.6852000 100.9947600 145.4226850   5.9415960
  96.8868140 144.1756010   3.6201460  96.1039930 144.6501510   3.8998220
  96.5931070 143.2710840   3.5114640  92.9227100 144.0226660  10.1715030
  92.6411370 144.5260260   9.4075850  93.3046800 143.2248410   9.8057160
  99.5242560 143.4380240  10.7495500  99.4108010 143.7574850  11.6447020
 100.3412300 143.8392750  10.4532780  98.4300710 132.6829220 150.0821650
  98.3494760 131.7683830 149.8113360  98.0165130 133.1796290 149.3761360
 100.5826180 138.8668430 150.7430050 100.1207710 138.0955670 151.0717220
 101.3951730 138.8934500 151.2482500  88.9876530 129.7329940 146.6249070
  88.0993230 130.0745910 146.5228950  89.2717720 129.5330260 145.7329900
  96.8089490 141.1526440 150.3634040  96.1900930 141.6083940 149.7928480
  97.6641270 141.3077900 149.9623740  91.1637920 128.3161440 147.6587450
  91.2704670 129.2165170 147.9656210  90.2530280 128.2679410 147.3682100
 100.8157030 127.4386250 149.1298350 101.6366650 126.9482820 149.1723830
 100.8491110 128.0283910 149.8830190  97.6752840 136.0365680 147.7565950
  97.0570110 136.5015130 147.1928670  98.1876090 136.7293160 148.1735460
  87.0436040 136.7222210 145.1305580  86.6664020 137.2109310 144.3990480
  87.3009110 137.3947490 145.7612110  94.6524970 125.1238600 150.5891090
  94.9599950 124.5685490 149.8726590  93.7225670 125.2583060 150.4064080
 101.4985450 137.5622110 147.9688720 101.3881780 136.6196440 148.0938140
 101.4953700 137.9237750 148.8551480  97.0405730 133.1887430 147.3251210
  96.1135010 133.1224810 147.5539680  97.1930550 134.1267560 147.2106450
  97.0274810 129.4604430 144.3218370  96.0878480 129.6218390 144.4070830
  97.3458070 130.1790110 143.7754360 101.0703020 134.7507730 147.8286460
 100.4515440 134.4127280 147.1812760 101.0527470 134.1067490 148.5365650
  92.6462370 133.7152170 150.1070940  92.2419370 133.0029420 149.6116840
  92.7325490 133.3705410 150.9958980  99.2467720 133.9894540 144.8359210
  99.6861000 133.1516970 144.6897030  99.9596140 134.6223940 144.9223350
  97.3563100 138.9290610 148.8040450  97.7959010 139.6714940 148.3895840
  97.2949990 139.1717180 149.7279410 102.8284860 125.2437350 143.1500250
 102.5157520 125.3364180 144.0499320 103.5897330 125.8218380 143.0997680
  89.3467000 132.6097150 147.6077590  89.2264600 133.3359240 146.9958860
  89.0367890 131.8400060 147.1305500  88.2300000 137.4812480 149.8252410
  87.8228080 137.6227070 148.9706010  89.1213010 137.1972640 149.6223620
 100.0233280 141.9159730 146.1603460  99.8634420 141.6262670 147.0585290
  99.8579990 141.1399860 145.6248690  92.5021660 141.6958260 147.9375080
  92.3264140 140.7793800 147.7242880  91.6477400 142.0545550 148.1772880
  99.7259410 139.4247290 144.7201460  99.0324570 139.4224580 144.0603740
 100.4682270 139.0006610 144.2895630  99.2909340 141.0510000 148.7949950
  99.7466290 140.2699380 149.1088570  99.6301860 141.7616820 149.3391130
  91.8130660 125.9532220 150.9901260  91.3698810 126.7341760 150.6585780
  92.3715650 126.2762110 151.6972200  94.9289480 125.5742920 145.8707090
  94.3043660 125.5702790 146.5960400  94.8419600 124.7073880 145.4743060
  91.6044880 131.0765790 148.7182510  91.3785800 130.8602960 149.6229130
  90.8237410 131.5094250 148.3728480  98.8342640 131.0829160 147.3173160
  98.2351530 131.8064960 147.1336780  99.3822250 131.0205940 146.5349610
  97.4407510 129.7192700 149.3476440  97.8337080 130.0364900 148.5345130
  97.8024360 128.8404580 149.4620960  86.6641910 130.2513620 142.7809360
  86.5816580 131.1944380 142.9224350  86.3124970 130.1088530 141.9021710
  90.3142420 128.8679140 150.8073920  89.9742470 129.3454370 151.5640970
  89.5519740 128.4144260 150.4475020  94.5260190 129.9864730 144.8386470
  94.6473010 129.9451210 145.7872290  94.1408700 130.8488880 144.6833200
  93.5381690 132.2965870 144.2369770  92.9698590 131.8484120 143.6105680
  94.2470690 132.6558650 143.7034920  87.6288500 127.7898120 149.7238590
  87.3435420 127.4253790 150.5617210  87.5667360 127.0578580 149.1101730
  91.0829170 136.2924060 146.5096180  90.3091430 135.7521680 146.3494900
  91.8123800 135.7730670 146.1713940  97.3027090 126.6827380 146.4451960
  96.4891700 126.1840550 146.3697270  97.1089040 127.5225630 146.0288310
 100.0175480 131.0547030 144.7414120 100.9055100 131.3664260 144.5665460
  99.9880570 130.1819280 144.3494700  91.1266570 135.9604440 150.1474990
  91.6445240 135.1572700 150.0931880  90.6750590 135.8983580 150.9891820
  96.0136070 137.2270720 145.4202290  96.3551770 137.9712950 144.9245610
  95.1848780 137.5401840 145.7827120 102.2889750 132.3658870 144.2093980
 102.2053470 132.7973090 143.3590420 103.0083940 132.8257220 144.6420800
 103.3177000 139.2201130 146.9376110 102.6753160 138.5656750 147.2119830
 102.9307660 139.6256220 146.1616780  98.8963480 136.5486560 150.7847800
  99.2487300 135.9514690 150.1249170  98.0125810 136.2230790 150.9556050
  94.9826760 137.3084250 148.1918210  95.6697890 137.8553460 148.5725800
  94.1959180 137.8524980 148.2267820  87.1219160 132.9257070 143.6835290
  87.9914010 133.2081870 143.9671210  86.6309480 133.7392940 143.5684100
  94.2853970 134.3130280 147.8043570  94.7416750 135.1235530 148.0303760
  93.9342180 133.9953420 148.6362060  90.1865750 124.6567930 148.2766090
  90.0580380 124.6485830 149.2251010  89.3627770 124.9951020 147.9257100
 101.7074380 138.1117590 143.4752460 101.4811960 137.3948030 144.0677100
 101.3170580 137.8630030 142.6374210  87.4890410 142.1384450 144.2496920
  87.8488050 142.7373790 143.5954190  87.3482750 142.6844340 145.0231950
 101.2890630 136.0289530 145.1366620 101.0012330 136.4902220 145.9244500
 102.0842800 135.5687300 145.4050840  93.5059030 139.5215650 145.0670590
  93.4969130 140.2545340 144.4515100  92.5857390 139.2747230 145.1597550
  89.1065670 134.7430540 145.8117350  88.4993620 135.4829440 145.8212650
  89.5815020 134.8329900 144.9855550 102.0460490 127.8638300 146.2961800
 101.4173650 127.9683970 145.5820030 101.5512410 128.0835080 147.0855680
  96.4918630 139.5843890 143.7295780  96.5930610 139.3807880 142.7997760
  95.5920370 139.3302170 143.9343560  94.0144520 130.1424250 147.7119680
  93.3060670 130.6110590 148.1533290  94.2989000 129.4846260 148.3464870
  98.0459950 126.8674910 149.1515470  97.9227730 126.8861040 148.2024980
  98.9944510 126.9153850 149.2713870  95.1336740 142.1030210 148.4243450
  95.3878240 142.0651600 147.5022820  94.1849220 141.9763540 148.4171700
  92.2179540 128.4509330 145.0870390  93.0670070 128.8879480 145.0210580
  91.8510810 128.7629590 145.9142450 101.1389320 133.0222090 150.0001960
 100.1979460 133.0372320 150.1749650 101.4533390 132.2358050 150.4462260
  91.1170960 134.7041690 143.5605920  91.8834230 134.5923050 144.1231350
  91.1945650 134.0079660 142.9082690  89.8117720 132.1366760 144.2438810
  89.8921310 131.1894270 144.3556210  90.7037470 132.4673640 144.3499470
  90.6132430 142.2862150 151.3473350  91.3494910 141.7377610 151.6181920
  90.9973350 143.1518160 151.2079340  87.4977910 138.3535720 147.2214860
  86.5717690 138.5956860 147.2120270  87.9634340 139.1809980 147.0999610
  93.7234740 141.4592460 143.1698920  94.5163350 141.7481290 142.7180710
  93.2039090 141.0284630 142.4911400 102.7764910 140.6862590 144.5935660
 102.4906420 140.2727730 143.7789840 102.5784460 141.6150300 144.4736180
  94.2412140 136.6795870 143.0341270  94.1362780 136.0648220 143.7602650
  94.0736360 136.1561760 142.2504280  97.4814870 135.7415900 143.6383260
  96.9324970 136.1885200 144.2826000  98.1034130 135.2365150 144.1620930
  93.1489990 134.7006820 145.5348560  93.5706410 134.5346690 146.3779950
  93.2740830 133.8907050 145.0403700  95.6617630 133.7244430 142.7825660
  96.1823290 133.0093450 142.4166810  96.3086030 134.3630300 143.0826170
  92.0448890 130.7740050 142.4806720  91.8437950 129.9107410 142.8420060
  91.8740940 130.6873410 141.5428320  99.5237200 125.5848280 145.0093600
  99.8039490 124.7416180 145.3653020  98.7502930 125.8171390 145.5232350
  90.8431690 127.8740670 142.4684600  91.1457590 127.8808100 141.5603750
  91.5826280 127.5238530 142.9652260  94.0616620 126.8175290 143.4540800
  93.7138620 126.1399280 142.8743250  94.2629390 126.3564800 144.2684190
  96.2265660 141.8056040 145.0727400  97.1216450 142.1441010 145.0946160
  96.2583290 141.0835450 144.4451680  89.8661820 137.1783090 143.3014400
  90.3036690 137.7212760 143.9571980  90.3509550 136.3530040 143.3110740
  87.0807620 139.9672120 150.7534660  87.4110630 139.0993180 150.5213300
  87.5098620 140.1730640 151.5839620  91.6769540 138.2981130 148.4136630
  91.3765080 138.1746100 149.3140540  91.5707030 137.4389720 148.0052360
 104.4461460 138.0777530 143.1163310 103.6154420 138.1454180 143.5870540
 104.6233290 138.9681650 142.8130170 103.9017920 134.8225010 145.6197510
 104.6636830 135.3921660 145.7257200 103.9172290 134.2552210 146.3905820
  87.4022260 133.3462940 149.8505170  86.7471100 133.0774580 149.2064870
  88.2400210 133.2367420 149.4007150 104.9077890 135.6775110 150.4639440
 105.2786720 134.8942430 150.0575410 105.5479820 136.3664210 150.2856740
 103.9537090 135.1159380 142.7770030 104.2285930 136.0238260 142.6489250
 103.7647830 135.0521910 143.7132020 100.3512700 128.1404230 144.0723660
 100.7697580 127.9535210 143.2320320 100.0448760 127.2883280 144.3826590
 103.8502430 133.0528370 147.7699460 103.4746030 132.2856300 147.3380750
 103.1205550 133.4351070 148.2574390  86.6160340 130.5561870 145.7930500
  85.7124420 130.8192070 145.6182160  87.1000960 130.8273040 145.0130460
  89.1587550 129.6127410 143.7024880  89.8679250 129.1910630 143.2172160
  88.4427490 129.6802640 143.0708230  88.8061710 125.6666740 142.7427530
  89.5289840 126.2075680 143.0608750  89.0786230 125.3930160 141.8669070
 102.6153360 130.5359210 147.0099110 103.1112480 130.3030080 147.7947990
 102.4169430 129.6971050 146.5936750 104.0440520 129.1720160 149.5436790
 103.9339800 129.0176200 150.4819060 104.8048110 128.6441100 149.3012200
 104.9330790 127.0028080 142.7842930 105.8580100 126.8709260 142.5761220
 104.9106580 127.0820900 143.7379380 105.0069280 127.7738740 145.4099640
 104.2120780 127.7083860 145.9392550 105.2112560 128.7089380 145.3984990
 101.9487700 141.8130290 149.4038030 102.5446770 141.4914860 148.7272450
 102.2065850 141.3402110 150.1951300 103.3027780 125.7350860 149.8707290
 103.2416180 124.7912080 149.7238310 104.0819810 125.8430950 150.4160750
  87.6080530 141.8743220 148.8331240  87.4402570 141.2413900 149.5313130
  86.7415040 142.0802620 148.4825430  88.2308550 125.7060000 146.3363100
  88.9887910 125.8188880 145.7627130  87.7685720 126.5429200 146.2906530
  94.7722360 127.8199270 149.3265410  93.9596870 127.4456160 148.9861290
  95.2764000 127.0644350 149.6286600  99.2747340 124.4841720 150.5648480
  99.8776710 125.0561930 151.0397000  98.5340330 125.0481160 150.3422380
 102.4181940 124.8863280 145.8388760 102.6132570 125.7846730 146.1056190
 101.6311810 124.6550360 146.3321710  89.2143230 140.5676450 146.2781380
  88.6890850 140.9484480 145.5743340  89.1387810 141.1927220 146.9991090
  90.6033700 126.2324050 144.8765070  91.1326460 125.4453850 144.7473020
  91.2362020 126.9115240 145.1100600  92.7971540 125.9699190 147.9310460
  92.1674280 125.2686500 148.0980590  92.2576680 126.7303320 147.7143620
 103.9708550 142.1263990 147.5995320 104.1460740 141.4401730 146.9556240
 103.2730120 142.6511040 147.2071990  91.8136200 142.5158830 145.1530630
  92.5455020 142.2318110 144.6054520  92.0729870 142.2772110 146.0430010
  90.9750990 138.6323560 145.1576960  90.3459870 139.1008660 145.7062790
  91.0898820 137.7872780 145.5923150  98.4300710 132.6829220 131.3078160
  98.3494760 131.7683830 131.0369870  98.0165130 133.1796290 130.6017870
  96.5618750 134.4608240 133.1887430  95.7860850 133.9808680 133.4786000
  97.2131680 133.7813890 133.0143590  90.5784580 134.7728050 134.0663190
  89.7469460 134.5176760 134.4659700  91.1865560 134.8438820 134.8021110
 100.5826180 138.8668430 131.9686560 100.1207710 138.0955670 132.2973730
 101.3951730 138.8934500 132.4739010  90.5585840 138.8068140 134.2621210
  90.8613880 137.9165880 134.0831430  91.3029430 139.3638360 134.0343460
  88.9876530 129.7329940 127.8505580  88.0993230 130.0745910 127.7485460
  89.2717720 129.5330260 126.9586410  86.9509540 132.3335590 133.7345280
  87.5225650 131.5657790 133.7348920  86.9511080 132.6324350 132.8251890
  96.8089490 141.1526440 131.5890550  96.1900930 141.6083940 131.0184990
  97.6641270 141.3077900 131.1880250  96.0027740 137.1365430 133.1957590
  95.9336020 136.1955370 133.0346720  96.7647600 137.2266840 133.7680160
  88.1934410 127.7419950 135.5214210  88.0137250 126.8445700 135.8016970
  87.7914490 128.2891820 136.1961160  97.0332910 129.9435810 133.4226520
  97.4097730 129.0707690 133.3100190  96.9352420 130.2794510 132.5316960
  91.1637920 128.3161440 128.8843960  91.2704670 129.2165170 129.1912720
  90.2530280 128.2679410 128.5938610 100.8157030 127.4386250 130.3554860
 101.6366650 126.9482820 130.3980340 100.8491110 128.0283910 131.1086700
  88.8121080 130.2380450 134.1296550  89.4931190 130.5018820 134.7483950
  88.4969130 129.3981320 134.4634560  93.0045650 131.2847810 133.2169140
  93.5123870 131.7828780 133.8574160  93.5358890 130.5083010 133.0408500
 105.1056580 129.4553000 136.9198490 104.4008750 129.8434710 136.4013600
 105.3714500 130.1503290 137.5219420  91.2881750 125.9246370 137.4832560
  91.2900190 126.4418760 136.6778460  90.4586060 125.4476550 137.4602490
  97.6752840 136.0365680 128.9822460  97.0570110 136.5015130 128.4185180
  98.1876090 136.7293160 129.3991970  92.5384600 135.5641550 135.6606060
  92.2053980 136.1910470 136.3027130  92.7151280 136.0903430 134.8807730
 101.0518510 129.3786630 133.1282400 100.3474080 129.6671520 133.7085510
 101.4130670 130.1886740 132.7681960  90.9697080 127.6356330 135.4903010
  91.3113890 128.4798380 135.1956880  90.0312890 127.7840070 135.6068350
  91.7503700 137.5322350 137.4755240  92.3677700 138.2073430 137.1939690
  90.8896820 137.9410330 137.3842740  87.0436040 136.7222210 126.3562090
  86.6664020 137.2109310 125.6246990  87.3009110 137.3947490 126.9868620
 102.6681290 138.9961760 135.3909880 101.9844810 139.6660870 135.3826550
 103.2075580 139.1942410 134.6254740 104.1205430 128.8241420 133.5191610
 103.1730340 128.8580400 133.6507040 104.4455420 129.6380370 133.9040970
  94.6524970 125.1238600 131.8147600  94.9599950 124.5685490 131.0983100
  93.7225670 125.2583060 131.6320590 100.2040030 140.8405890 134.1055060
 100.2167190 140.4368180 133.2377320  99.6515250 141.6153180 134.0016490
 101.4985450 137.5622110 129.1945230 101.3881780 136.6196440 129.3194650
 101.4953700 137.9237750 130.0807990  99.6025470 135.7435730 135.4337670
 100.0194260 135.5295840 134.5991130 100.3265290 136.0008520 136.0046290
  97.0405730 133.1887430 128.5507720  96.1135010 133.1224810 128.7796190
  97.1930550 134.1267560 128.4362960  97.0274810 129.4604430 125.5474880
  96.0878480 129.6218390 125.6327340  97.3458070 130.1790110 125.0010870
 103.5487570 134.1422950 135.5253910 102.7206200 134.2116040 135.0504040
 104.1438050 134.7277260 135.0569740 101.0703020 134.7507730 129.0542970
 100.4515440 134.4127280 128.4069270 101.0527470 134.1067490 129.7622160
 100.5129580 130.9292270 136.4708780 100.1000760 131.7545980 136.7248770
  99.7805530 130.3437310 136.2785140  92.6462370 133.7152170 131.3327450
  92.2419370 133.0029420 130.8373350  92.7325490 133.3705410 132.2215490
  93.1144070 137.4019730 133.4966660  92.8172360 136.7965200 132.8174440
  94.0643890 137.4397040 133.3856020  91.3590990 130.4895380 135.1126490
  91.9105580 130.5990720 134.3379740  91.8734500 130.8632980 135.8281720
 101.2029680 140.9751600 137.1589760 100.7260240 141.7823790 136.9662370
 100.5191470 140.3229930 137.3115970  92.2062500 137.1401420 140.1474460
  91.3091030 137.3641390 140.3947860  92.2315370 137.2636360 139.1985860
  99.2467720 133.9894540 126.0615720  99.6861000 133.1516970 125.9153540
  99.9596140 134.6223940 126.1479860  91.0333720 134.0114740 138.7231830
  90.8941490 134.8837540 139.0919230  90.1515080 133.6687550 138.5779770
  97.3563100 138.9290610 130.0296960  97.7959010 139.6714940 129.6152350
  97.2949990 139.1717180 130.9535920  92.8314070 139.9536440 140.9316980
  92.8029500 140.3579390 140.0645410  92.6679040 139.0246800 140.7688580
 102.8284860 125.2437350 124.3756760 102.5157520 125.3364180 125.2755830
 103.5897330 125.8218380 124.3254190  89.3467000 132.6097150 128.8334100
  89.2264600 133.3359240 128.2215370  89.0367890 131.8400060 128.3562010
 104.7828890 140.7363540 142.2281150 105.2588610 141.2146430 142.9070230
 105.4036050 140.6681030 141.5026650  86.9852370 135.7812290 134.6402740
  87.0632790 135.9161060 133.6958460  87.5994050 135.0728180 134.8330860
  88.2300000 137.4812480 131.0508920  87.8228080 137.6227070 130.1962520
  89.1213010 137.1972640 130.8480130 104.1862140 137.9276390 139.3881160
 104.3125200 137.6888270 138.4698340 104.2283520 137.0960930 139.8603240
  98.0478880 141.6304390 137.9575970  98.5623550 141.5412400 138.7598400
  97.2047960 141.9764090 138.2503880 100.0233280 141.9159730 127.3859970
  99.8634420 141.6262670 128.2841800  99.8579990 141.1399860 126.8505200
  92.5021660 141.6958260 129.1631590  92.3264140 140.7793800 128.9499390
  91.6477400 142.0545550 129.4029390  99.7259410 139.4247290 125.9457970
  99.0324570 139.4224580 125.2860250 100.4682270 139.0006610 125.5152140
  99.2909340 141.0510000 130.0206460  99.7466290 140.2699380 130.3345080
  99.6301860 141.7616820 130.5647640 104.0386150 129.9808850 140.3530900
 103.4230420 130.4888520 139.8246360 103.7182570 129.0807180 140.2956840
  87.0411890 136.8226460 137.1797200  87.2042930 136.3531820 136.3616570
  87.5064340 136.3150020 137.8446040  91.8130660 125.9532220 132.2157770
  91.3698810 126.7341760 131.8842290  92.3715650 126.2762110 132.9228710
  96.1000470 128.8200740 137.8193090  95.6379840 129.0283760 138.6313030
  95.6978580 128.0060090 137.5163760 101.1004980 130.0409690 138.9489750
 100.2498570 129.7415440 139.2698820 100.9406770 130.2851700 138.0373570
  98.1954690 131.5411440 141.0488540  98.5208100 130.7075190 140.7090770
  98.9835020 132.0639960 141.1966870  94.9289480 125.5742920 127.0963600
  94.3043660 125.5702790 127.8216910  94.8419600 124.7073880 126.6999570
  93.8506560 126.4979550 134.0747370  94.1478890 127.4042380 133.9939390
  94.3992120 126.0098330 133.4606940  91.6044880 131.0765790 129.9439020
  91.3785800 130.8602960 130.8485640  90.8237410 131.5094250 129.5984990
  98.8342640 131.0829160 128.5429670  98.2351530 131.8064960 128.3593290
  99.3822250 131.0205940 127.7606120  94.0444090 131.9751370 140.6099290
  93.9487690 131.0346100 140.4599690  94.8876070 132.1966440 140.2147360
  97.4407510 129.7192700 130.5732950  97.8337080 130.0364900 129.7601640
  97.8024360 128.8404580 130.6877470  89.1754630 128.3865040 138.7633070
  88.7818020 129.2340250 138.9705850  88.4873030 127.7491410 138.9541710
  95.7499680 128.4700010 141.8329810  95.0598000 128.2772210 142.4675900
  96.4931980 128.7534650 142.3654110  86.4771680 126.3093500 132.7963150
  86.1884730 126.8796360 133.5088130  87.2217440 125.8297950 133.1594380
  86.6641910 130.2513620 124.0065870  86.5816580 131.1944380 124.1480860
  86.3124970 130.1088530 123.1278220  98.0262650 132.3098450 134.6683730
  97.2943770 132.8185260 135.0173830  97.6286990 131.4928430 134.3672510
  94.4640040 128.9852650 133.0736220  94.4676100 128.5442600 132.2240760
  95.3591160 129.3069980 133.1808040  90.3142420 128.8679140 132.0330430
  89.9742470 129.3454370 132.7897480  89.5519740 128.4144260 131.6731530
  94.5260190 129.9864730 126.0642980  94.6473010 129.9451210 127.0128800
  94.1408700 130.8488880 125.9089710  98.4888560 127.7632130 134.0806670
  98.5061300 128.2140780 134.9248520  98.2404140 126.8637770 134.2940110
  93.5381690 132.2965870 125.4626280  92.9698590 131.8484120 124.8362190
  94.2470690 132.6558650 124.9291430 101.9159310 125.1764310 139.9193050
 102.2405080 124.4453970 140.4451030 101.9515820 124.8577950 139.0174040
  88.6150870 136.1977890 139.3393010  88.2305660 135.5571560 139.9375970
  88.9263060 136.9014010 139.9087740  94.7648010 133.0454430 134.8201630
  95.1318140 132.5713000 135.5662970  94.5753070 133.9196000 135.1609970
  87.6288500 127.7898120 130.9495100  87.3435420 127.4253790 131.7873720
  87.5667360 127.0578580 130.3358240  92.5547380 132.0863070 137.1385840
  92.2504450 132.9655050 137.3636200  93.5093840 132.1462860 137.1743280
  91.0829170 136.2924060 127.7352690  90.3091430 135.7521680 127.5751410
  91.8123800 135.7730670 127.3970450 101.8417150 135.2889420 133.5279080
 102.5616270 135.7844710 133.1375190 101.6398970 134.6107310 132.8832950
  97.3027090 126.6827380 127.6708470  96.4891700 126.1840550 127.5953780
  97.1089040 127.5225630 127.2544820  97.2235950 135.3598480 139.4148080
  97.1573260 134.4394150 139.1605670  96.5941090 135.4573920 140.1292720
 100.0175480 131.0547030 125.9670630 100.9055100 131.3664260 125.7921970
  99.9880570 130.1819280 125.5751210  91.1266570 135.9604440 131.3731500
  91.6445240 135.1572700 131.3188390  90.6750590 135.8983580 132.2148330
  96.0136070 137.2270720 126.6458800  96.3551770 137.9712950 126.1502120
  95.1848780 137.5401840 127.0083630  88.6111110 132.9265810 138.2857200
  88.2526050 133.5919660 138.8730540  88.3165670 132.0949360 138.6569820
  91.8124230 133.3850050 141.1696750  91.5124370 133.5307230 140.2724570
  92.5835470 132.8255340 141.0770140  97.1552680 138.1819050 139.1651880
  97.1697220 137.2500010 138.9470790  96.4477780 138.2678810 139.8041650
 102.2889750 132.3658870 125.4350490 102.2053470 132.7973090 124.5846930
 103.0083940 132.8257220 125.8677310 103.3663890 134.8226390 138.5120460
 102.6412080 135.4155170 138.3149850 103.8939350 134.8149930 137.7133830
 103.3177000 139.2201130 128.1632620 102.6753160 138.5656750 128.4376340
 102.9307660 139.6256220 127.3873290  98.8963480 136.5486560 132.0104310
  99.2487300 135.9514690 131.3505680  98.0125810 136.2230790 132.1812560
  94.9826760 137.3084250 129.4174720  95.6697890 137.8553460 129.7982310
  94.1959180 137.8524980 129.4524330  87.1219160 132.9257070 124.9091800
  87.9914010 133.2081870 125.1927720  86.6309480 133.7392940 124.7940610
  94.2853970 134.3130280 129.0300080  94.7416750 135.1235530 129.2560270
  93.9342180 133.9953420 129.8618570  96.5886580 139.8236620 136.2592380
  97.2328800 140.0296000 136.9365800  96.9516020 139.0625020 135.8063230
  90.1865750 124.6567930 129.5022600  90.0580380 124.6485830 130.4507520
  89.3627770 124.9951020 129.1513610  97.8618660 137.8268970 134.9769830
  98.5040890 137.1262130 135.0902000  98.3868010 138.6067410 134.7966720
 101.7074380 138.1117590 124.7008970 101.4811960 137.3948030 125.2933610
 101.3170580 137.8630030 123.8630720  99.6356280 138.6263870 138.1805890
  99.9712520 139.2130560 138.8583810  98.7156620 138.4956580 138.4103680
  87.4890410 142.1384450 125.4753430  87.8488050 142.7373790 124.8210700
  87.3482750 142.6844340 126.2488460  87.1859680 126.4159050 138.9629300
  86.4718200 126.6155970 139.5681910  87.6054720 125.6398620 139.3344100
 101.2890630 136.0289530 126.3623130 101.0012330 136.4902220 127.1501010
 102.0842800 135.5687300 126.6307350  87.4732270 140.4039310 139.9495830
  87.5823390 139.4634050 139.8091220  86.8212830 140.6694060 139.3009560
  95.4644860 138.6755200 141.3493950  95.1441730 137.9564440 141.8939640
  94.7903220 139.3510270 141.4230010  93.5059030 139.5215650 126.2927100
  93.4969130 140.2545340 125.6771610  92.5857390 139.2747230 126.3854060
  89.1065670 134.7430540 127.0373860  88.4993620 135.4829440 127.0469160
  89.5815020 134.8329900 126.2112060  98.6798460 128.9081360 136.7130750
  99.0479280 128.0876570 137.0410320  97.8196660 128.9683250 137.1286400
 102.0460490 127.8638300 127.5218310 101.4173650 127.9683970 126.8076540
 101.5512410 128.0835080 128.3112190  96.4918630 139.5843890 124.9552290
  96.5930610 139.3807880 124.0254270  95.5920370 139.3302170 125.1600070
  94.0144520 130.1424250 128.9376190  93.3060670 130.6110590 129.3789800
  94.2989000 129.4846260 129.5721380  95.6400450 131.5620950 136.9368720
  96.1385700 132.0366770 137.6020570  95.7823400 130.6384470 137.1438750
  98.0459950 126.8674910 130.3771980  97.9227730 126.8861040 129.4281490
  98.9944510 126.9153850 130.4970380  95.1336740 142.1030210 129.6499960
  95.3878240 142.0651600 128.7279330  94.1849220 141.9763540 129.6428210
  92.2179540 128.4509330 126.3126900  93.0670070 128.8879480 126.2467090
  91.8510810 128.7629590 127.1398960 102.8467310 127.7788910 137.7797110
 102.3440910 128.5194310 138.1190920 103.6623970 128.1672910 137.4633900
 101.1389320 133.0222090 131.2258470 100.1979460 133.0372320 131.4006160
 101.4533390 132.2358050 131.6718770  91.1170960 134.7041690 124.7862430
  91.8834230 134.5923050 125.3487860  91.1945650 134.0079660 124.1339200
  89.8117720 132.1366760 125.4695320  89.8921310 131.1894270 125.5812720
  90.7037470 132.4673640 125.5755980 103.1414900 140.1930940 132.9012730
 103.2662320 141.0162110 133.3736540 104.0080460 139.9821670 132.5536880
  90.6132430 142.2862150 132.5729860  91.3494910 141.7377610 132.8438430
  90.9973350 143.1518160 132.4335850  87.4977910 138.3535720 128.4471370
  86.5717690 138.5956860 128.4376780  87.9634340 139.1809980 128.3256120
  89.6190710 141.4708220 141.7615440  90.4203440 141.7920270 142.1750840
  89.1042530 141.1103800 142.4835350  93.7234740 141.4592460 124.3955430
  94.5163350 141.7481290 123.9437220  93.2039090 141.0284630 123.7167910
  98.4555340 137.5788090 141.7090850  97.8493500 137.6019690 140.9686600
  98.1509450 136.8471130 142.2458100  99.8855710 141.3068380 140.3200260
 100.8377460 141.2226400 140.2700500  99.7383930 141.9710090 140.9934050
 102.7764910 140.6862590 125.8192170 102.4906420 140.2727730 125.0046350
 102.5784460 141.6150300 125.6992690  87.3388520 133.9581680 140.7051490
  87.8427540 133.3788960 141.2767720  86.5995940 134.2421910 141.2427860
  94.2412140 136.6795870 124.2597780  94.1362780 136.0648220 124.9859160
  94.0736360 136.1561760 123.4760790  94.3926460 135.3652670 140.2387010
  93.6272130 135.9337670 140.1541680  94.5742420 135.0728880 139.3455240
  97.4814870 135.7415900 124.8639770  96.9324970 136.1885200 125.5082510
  98.1034130 135.2365150 125.3877440 101.5349810 137.0958000 140.7962030
 102.2759280 137.4333760 140.2929490 100.7722490 137.2650060 140.2431800
  89.3711600 132.1011270 141.6001560  89.4116940 131.8025140 142.5086790
  90.2257100 132.5018880 141.4409080  93.1489990 134.7006820 126.7605070
  93.5706410 134.5346690 127.6036460  93.2740830 133.8907050 126.2660210
  91.3117410 130.6803370 139.5676050  90.7813870 130.1894320 138.9399390
  91.9805480 131.1087570 139.0333980  95.6617630 133.7244430 124.0082170
  96.1823290 133.0093450 123.6423320  96.3086030 134.3630300 124.3082680
 100.2095470 135.1472830 139.3317240 100.6236490 135.3017910 140.1807660
  99.2746470 135.2728050 139.4943020 100.6817640 132.4868990 141.3356390
 101.2638410 131.7321310 141.2476870 100.8579410 133.0176430 140.5587870
  91.7989710 127.6465740 139.6473340  91.7046580 127.0286490 138.9224210
  91.2187100 128.3732030 139.4203250  94.5651150 126.2038980 136.6800730
  94.1168450 126.2263240 135.8346280  93.9316350 125.8058000 137.2771030
  94.9710700 135.0993310 137.3013170  95.3898810 135.9426040 137.1289410
  94.0519330 135.2365350 137.0719950  97.3074600 132.8309490 138.6851010
  97.4270810 132.2350630 139.4245850  98.1668600 132.8679180 138.2652310
  99.6462500 133.3846680 137.2613520  99.1197720 133.9089300 136.6578660
  99.9893840 134.0174070 137.8923250  92.0448890 130.7740050 123.7063230
  91.8437950 129.9107410 124.0676570  91.8740940 130.6873410 122.7684830
  92.8218120 141.4046320 138.4170900  92.2839210 142.1292380 138.0979600
  93.0752080 140.9276660 137.6268240  94.0743370 129.3730840 139.9426830
  94.6643060 129.0646690 140.6304650  93.2563610 128.9010590 140.0986730
  98.8936800 128.9896650 140.1759850  98.2052320 128.3278190 140.1109840
  99.6142820 128.5434920 140.6208310  99.5237200 125.5848280 126.2350110
  99.8039490 124.7416180 126.5909530  98.7502930 125.8171390 126.7488860
  90.8431690 127.8740670 123.6941110  91.1457590 127.8808100 122.7860260
  91.5826280 127.5238530 124.1908770  95.6780330 142.6397530 138.6757550
  95.6039030 143.5432670 138.9829920  94.7759170 142.3209430 138.6479620
  94.0616620 126.8175290 124.6797310  93.7138620 126.1399280 124.0999760
  94.2629390 126.3564800 125.4940700  96.2265660 141.8056040 126.2983910
  97.1216450 142.1441010 126.3202670  96.2583290 141.0835450 125.6708190
  89.8661820 137.1783090 124.5270910  90.3036690 137.7212760 125.1828490
  90.3509550 136.3530040 124.5367250  87.0807620 139.9672120 131.9791170
  87.4110630 139.0993180 131.7469810  87.5098620 140.1730640 132.8096130
  91.6769540 138.2981130 129.6393140  91.3765080 138.1746100 130.5397050
  91.5707030 137.4389720 129.2308870  87.5697830 140.8342710 134.7172800
  87.1328820 141.0143510 135.5496950  88.1375510 141.5917330 134.5754520
 103.2060010 140.3359710 139.0050110 102.6062000 140.3952270 138.2614030
 103.3353910 139.3964690 139.1346960 104.4461460 138.0777530 124.3419820
 103.6154420 138.1454180 124.8127050 104.6233290 138.9681650 124.0386680
 103.9017920 134.8225010 126.8454020 104.6636830 135.3921660 126.9513710
 103.9172290 134.2552210 127.6162330  87.4022260 133.3462940 131.0761680
  86.7471100 133.0774580 130.4321380  88.2400210 133.2367420 130.6263660
 104.9077890 135.6775110 131.6895950 105.2786720 134.8942430 131.2831920
 105.5479820 136.3664210 131.5113250 101.8911650 137.0611690 137.1026270
 101.0771490 137.4908850 137.3652060 102.2985850 137.6730100 136.4895320
 103.9537090 135.1159380 124.0026540 104.2285930 136.0238260 123.8745760
 103.7647830 135.0521910 124.9388530 100.3512700 128.1404230 125.2980170
 100.7697580 127.9535210 124.4576830 100.0448760 127.2883280 125.6083100
 103.8502430 133.0528370 128.9955970 103.4746030 132.2856300 128.5637260
 103.1205550 133.4351070 129.4830900  88.4398190 133.7315510 135.6165020
  88.8071230 133.6442910 136.4961040  87.8709010 132.9682060 135.5171880
 103.2402050 132.1999890 138.6295490 103.0088140 131.9712640 137.7293440
 103.5006600 133.1199440 138.5840380  87.9914190 130.6424600 139.5223440
  87.0970240 130.6091360 139.8617150  88.5311740 130.8411390 140.2874690
 101.6790120 127.4256320 141.4075190 102.5560300 127.4339720 141.7909190
 101.6910960 126.6887160 140.7967540  86.6160340 130.5561870 127.0187010
  85.7124420 130.8192070 126.8438670  87.1000960 130.8273040 126.2386970
 103.1253390 131.2785860 132.2963210 103.6490870 130.7848510 131.6653380
 103.7112810 131.4136220 133.0410780 103.3043110 131.3625730 135.8182760
 102.3545820 131.3289270 135.9327750 103.4856120 132.2725840 135.5832530
  89.1587550 129.6127410 124.9281390  89.8679250 129.1910630 124.4428670
  88.4427490 129.6802640 124.2964740  88.8061710 125.6666740 123.9684040
  89.5289840 126.2075680 124.2865260  89.0786230 125.3930160 123.0925580
 102.6153360 130.5359210 128.2355620 103.1112480 130.3030080 129.0204500
 102.4169430 129.6971050 127.8193260  88.4953900 124.9172930 133.8706660
  89.1430090 124.3670310 133.4301820  88.9155740 125.1716080 134.6922470
 104.0440520 129.1720160 130.7693300 103.9339800 129.0176200 131.7075570
 104.8048110 128.6441100 130.5268710 102.3906240 125.1114290 137.2276300
 103.0278460 125.7248430 137.5935490 102.5381130 125.1474950 136.2825530
 104.9330790 127.0028080 124.0099440 105.8580100 126.8709260 123.8017730
 104.9106580 127.0820900 124.9635890 105.0069280 127.7738740 126.6356150
 104.2120780 127.7083860 127.1649060 105.2112560 128.7089380 126.6241500
 101.9487700 141.8130290 130.6294540 102.5446770 141.4914860 129.9528960
 102.2065850 141.3402110 131.4207810  88.2485900 125.0728600 136.6131980
  87.9000720 125.5292420 137.3790160  87.9173600 124.1785730 136.6954410
  89.8550270 138.2448200 140.7785170  89.8119900 137.8741110 141.6599630
  89.9861280 139.1825770 140.9186990  93.5556300 139.8007790 136.3794890
  93.3147660 140.0682350 135.4925410  94.4958940 139.9713520 136.4345750
  95.7610720 126.2640480 140.1351400  95.6999610 126.8562310 140.8846810
  96.7011100 126.1566440 139.9901660  98.3985280 125.9210540 139.7743690
  99.0125690 126.2389830 139.1124770  98.9434840 125.4359130 140.3939550
 104.8160460 141.8202170 137.1805530 104.3218740 142.2171040 136.4632660
 104.2073750 141.1951380 137.5742810  88.9206540 124.6004800 139.8882750
  89.4689530 124.4192850 139.1248860  88.9861850 123.8098910 140.4239060
  89.6938300 141.1910450 137.8982950  89.0998620 141.0595150 138.6372990
  89.6862140 140.3548590 137.4325050  99.1393320 124.4842680 136.1012980
  98.2653160 124.8177790 135.8985910  99.0304070 124.0115860 136.9264850
 100.0465300 126.6913550 137.4854700  99.7178660 125.8765310 137.1056430
 100.9947600 126.6483360 137.3620390 102.4999910 142.4625590 134.4592270
 102.0402880 143.2141400 134.0850290 101.8712370 141.7432060 134.4007070
  89.3250530 138.5568830 136.8490990  88.5984590 137.9374120 136.7816940
  89.3859680 138.9509440 135.9789070  92.9295630 140.7713830 133.6340400
  93.4460650 140.1601190 133.1088660  93.5793010 141.2742610 134.1251410
  95.6691130 141.6622320 134.4609380  95.9568940 141.4076620 133.5842390
  96.1814350 141.1099680 135.0514950  96.8868140 125.4012520 135.0405890
  96.1039930 125.8758020 135.3202650  96.5931070 124.4967350 134.9319070
 101.4389210 126.1035620 133.0854980 101.8797300 126.0480720 132.2376580
 101.1696800 127.0193630 133.1565160 103.3027780 125.7350860 131.0963800
 103.2416180 124.7912080 130.9494820 104.0819810 125.8430950 131.6417260
  87.6080530 141.8743220 130.0587750  87.4402570 141.2413900 130.7569640
  86.7415040 142.0802620 129.7081940  88.2308550 125.7060000 127.5619610
  88.9887910 125.8188880 126.9883640  87.7685720 126.5429200 127.5163040
  94.7722360 127.8199270 130.5521920  93.9596870 127.4456160 130.2117800
  95.2764000 127.0644350 130.8543110  99.2747340 124.4841720 131.7904990
  99.8776710 125.0561930 132.2653510  98.5340330 125.0481160 131.5678890
 102.4181940 124.8863280 127.0645270 102.6132570 125.7846730 127.3312700
 101.6311810 124.6550360 127.5578220  89.2143230 140.5676450 127.5037890
  88.6890850 140.9484480 126.7999850  89.1387810 141.1927220 128.2247600
  90.6033700 126.2324050 126.1021580  91.1326460 125.4453850 125.9729530
  91.2362020 126.9115240 126.3357110  92.7971540 125.9699190 129.1566970
  92.1674280 125.2686500 129.3237100  92.2576680 126.7303320 128.9400130
  95.7363490 142.5838420 141.8277580  96.6630800 142.3482690 141.8713540
  95.7213920 143.4110420 141.3463610 103.9708550 142.1263990 128.8251830
 104.1460740 141.4401730 128.1812750 103.2730120 142.6511040 128.4328500
  92.9227100 125.2483170 141.5919460  92.6411370 125.7516770 140.8280280
  93.3046800 124.4504920 141.2261590  91.8136200 142.5158830 126.3787140
  92.5455020 142.2318110 125.8311030  92.0729870 142.2772110 127.2686520
  90.9750990 138.6323560 126.3833470  90.3459870 139.1008660 126.9319300
  91.0898820 137.7872780 126.8179660  99.5242560 124.6636750 142.1699930
  99.4108010 124.9831360 143.0651450 100.3412300 125.0649260 141.8737210
 102.3041050 141.8108280 141.6518620 103.0966370 141.3157510 141.4444580
 102.5974200 142.4898420 142.2594230  98.4300710 132.6829220 112.5334670
  98.3494760 131.7683830 112.2626380  98.0165130 133.1796290 111.8274380
  96.5618750 134.4608240 114.4143940  95.7860850 133.9808680 114.7042510
  97.2131680 133.7813890 114.2400100  90.5784580 134.7728050 115.2919700
  89.7469460 134.5176760 115.6916210  91.1865560 134.8438820 116.0277620
 100.5826180 138.8668430 113.1943070 100.1207710 138.0955670 113.5230240
 101.3951730 138.8934500 113.6995520  90.5585840 138.8068140 115.4877720
  90.8613880 137.9165880 115.3087940  91.3029430 139.3638360 115.2599970
  88.9876530 129.7329940 109.0762090  88.0993230 130.0745910 108.9741970
  89.2717720 129.5330260 108.1842920  86.9509540 132.3335590 114.9601790
  87.5225650 131.5657790 114.9605430  86.9511080 132.6324350 114.0508400
  96.8089490 141.1526440 112.8147060  96.1900930 141.6083940 112.2441500
  97.6641270 141.3077900 112.4136760  96.0027740 137.1365430 114.4214100
  95.9336020 136.1955370 114.2603230  96.7647600 137.2266840 114.9936670
  88.1934410 127.7419950 116.7470720  88.0137250 126.8445700 117.0273480
  87.7914490 128.2891820 117.4217670  97.0332910 129.9435810 114.6483030
  97.4097730 129.0707690 114.5356700  96.9352420 130.2794510 113.7573470
 100.8157030 127.4386250 111.5811370 101.6366650 126.9482820 111.6236850
 100.8491110 128.0283910 112.3343210  88.8121080 130.2380450 115.3553060
  89.4931190 130.5018820 115.9740460  88.4969130 129.3981320 115.6891070
  93.0045650 131.2847810 114.4425650  93.5123870 131.7828780 115.0830670
  93.5358890 130.5083010 114.2665010 105.1056580 129.4553000 118.1455000
 104.4008750 129.8434710 117.6270110 105.3714500 130.1503290 118.7475930
  91.2881750 125.9246370 118.7089070  91.2900190 126.4418760 117.9034970
  90.4586060 125.4476550 118.6859000  97.6752840 136.0365680 110.2078970
  97.0570110 136.5015130 109.6441690  98.1876090 136.7293160 110.6248480
  92.5384600 135.5641550 116.8862570  92.2053980 136.1910470 117.5283640
  92.7151280 136.0903430 116.1064240 101.0518510 129.3786630 114.3538910
 100.3474080 129.6671520 114.9342020 101.4130670 130.1886740 113.9938470
  90.9697080 127.6356330 116.7159520  91.3113890 128.4798380 116.4213390
  90.0312890 127.7840070 116.8324860  91.7503700 137.5322350 118.7011750
  92.3677700 138.2073430 118.4196200  90.8896820 137.9410330 118.6099250
  87.0436040 136.7222210 107.5818600  86.6664020 137.2109310 106.8503500
  87.3009110 137.3947490 108.2125130 102.6681290 138.9961760 116.6166390
 101.9844810 139.6660870 116.6083060 103.2075580 139.1942410 115.8511250
 104.1205430 128.8241420 114.7448120 103.1730340 128.8580400 114.8763550
 104.4455420 129.6380370 115.1297480  94.6524970 125.1238600 113.0404110
  94.9599950 124.5685490 112.3239610  93.7225670 125.2583060 112.8577100
 100.2040030 140.8405890 115.3311570 100.2167190 140.4368180 114.4633830
  99.6515250 141.6153180 115.2273000 101.4985450 137.5622110 110.4201740
 101.3881780 136.6196440 110.5451160 101.4953700 137.9237750 111.3064500
  99.6025470 135.7435730 116.6594180 100.0194260 135.5295840 115.8247640
 100.3265290 136.0008520 117.2302800  97.0405730 133.1887430 109.7764230
  96.1135010 133.1224810 110.0052700  97.1930550 134.1267560 109.6619470
  97.0274810 129.4604430 106.7731390  96.0878480 129.6218390 106.8583850
  97.3458070 130.1790110 106.2267380 103.5487570 134.1422950 116.7510420
 102.7206200 134.2116040 116.2760550 104.1438050 134.7277260 116.2826250
 101.0703020 134.7507730 110.2799480 100.4515440 134.4127280 109.6325780
 101.0527470 134.1067490 110.9878670 100.5129580 130.9292270 117.6965290
 100.1000760 131.7545980 117.9505280  99.7805530 130.3437310 117.5041650
  92.6462370 133.7152170 112.5583960  92.2419370 133.0029420 112.0629860
  92.7325490 133.3705410 113.4472000  93.1144070 137.4019730 114.7223170
  92.8172360 136.7965200 114.0430950  94.0643890 137.4397040 114.6112530
  91.3590990 130.4895380 116.3383000  91.9105580 130.5990720 115.5636250
  91.8734500 130.8632980 117.0538230 101.2029680 140.9751600 118.3846270
 100.7260240 141.7823790 118.1918880 100.5191470 140.3229930 118.5372480
  92.2062500 137.1401420 121.3730970  91.3091030 137.3641390 121.6204370
  92.2315370 137.2636360 120.4242370  99.2467720 133.9894540 107.2872230
  99.6861000 133.1516970 107.1410050  99.9596140 134.6223940 107.3736370
  91.0333720 134.0114740 119.9488340  90.8941490 134.8837540 120.3175740
  90.1515080 133.6687550 119.8036280  97.3563100 138.9290610 111.2553470
  97.7959010 139.6714940 110.8408860  97.2949990 139.1717180 112.1792430
  92.8314070 139.9536440 122.1573490  92.8029500 140.3579390 121.2901920
  92.6679040 139.0246800 121.9945090 102.8284860 125.2437350 105.6013270
 102.5157520 125.3364180 106.5012340 103.5897330 125.8218380 105.5510700
  89.3467000 132.6097150 110.0590610  89.2264600 133.3359240 109.4471880
  89.0367890 131.8400060 109.5818520 104.7828890 140.7363540 123.4537660
 105.2588610 141.2146430 124.1326740 105.4036050 140.6681030 122.7283160
  86.9852370 135.7812290 115.8659250  87.0632790 135.9161060 114.9214970
  87.5994050 135.0728180 116.0587370  88.2300000 137.4812480 112.2765430
  87.8228080 137.6227070 111.4219030  89.1213010 137.1972640 112.0736640
 104.1862140 137.9276390 120.6137670 104.3125200 137.6888270 119.6954850
 104.2283520 137.0960930 121.0859750  98.0478880 141.6304390 119.1832480
  98.5623550 141.5412400 119.9854910  97.2047960 141.9764090 119.4760390
 100.0233280 141.9159730 108.6116480  99.8634420 141.6262670 109.5098310
  99.8579990 141.1399860 108.0761710  92.5021660 141.6958260 110.3888100
  92.3264140 140.7793800 110.1755900  91.6477400 142.0545550 110.6285900
  99.7259410 139.4247290 107.1714480  99.0324570 139.4224580 106.5116760
 100.4682270 139.0006610 106.7408650  99.2909340 141.0510000 111.2462970
  99.7466290 140.2699380 111.5601590  99.6301860 141.7616820 111.7904150
 104.0386150 129.9808850 121.5787410 103.4230420 130.4888520 121.0502870
 103.7182570 129.0807180 121.5213350  87.0411890 136.8226460 118.4053710
  87.2042930 136.3531820 117.5873080  87.5064340 136.3150020 119.0702550
  91.8130660 125.9532220 113.4414280  91.3698810 126.7341760 113.1098800
  92.3715650 126.2762110 114.1485220  96.1000470 128.8200740 119.0449600
  95.6379840 129.0283760 119.8569540  95.6978580 128.0060090 118.7420270
 101.1004980 130.0409690 120.1746260 100.2498570 129.7415440 120.4955330
 100.9406770 130.2851700 119.2630080  98.1954690 131.5411440 122.2745050
  98.5208100 130.7075190 121.9347280  98.9835020 132.0639960 122.4223380
  93.8506560 126.4979550 115.3003880  94.1478890 127.4042380 115.2195900
  94.3992120 126.0098330 114.6863450  91.6044880 131.0765790 111.1695530
  91.3785800 130.8602960 112.0742150  90.8237410 131.5094250 110.8241500
  98.8342640 131.0829160 109.7686180  98.2351530 131.8064960 109.5849800
  99.3822250 131.0205940 108.9862630  94.0444090 131.9751370 121.8355800
  93.9487690 131.0346100 121.6856200  94.8876070 132.1966440 121.4403870
  97.4407510 129.7192700 111.7989460  97.8337080 130.0364900 110.9858150
  97.8024360 128.8404580 111.9133980  89.1754630 128.3865040 119.9889580
  88.7818020 129.2340250 120.1962360  88.4873030 127.7491410 120.1798220
  95.7499680 128.4700010 123.0586320  95.0598000 128.2772210 123.6932410
  96.4931980 128.7534650 123.5910620  86.4771680 126.3093500 114.0219660
  86.1884730 126.8796360 114.7344640  87.2217440 125.8297950 114.3850890
  86.6641910 130.2513620 105.2322380  86.5816580 131.1944380 105.3737370
  86.3124970 130.1088530 104.3534730  98.0262650 132.3098450 115.8940240
  97.2943770 132.8185260 116.2430340  97.6286990 131.4928430 115.5929020
  94.4640040 128.9852650 114.2992730  94.4676100 128.5442600 113.4497270
  95.3591160 129.3069980 114.4064550  90.3142420 128.8679140 113.2586940
  89.9742470 129.3454370 114.0153990  89.5519740 128.4144260 112.8988040
  98.4888560 127.7632130 115.3063180  98.5061300 128.2140780 116.1505030
  98.2404140 126.8637770 115.5196620  93.5381690 132.2965870 106.6882790
  92.9698590 131.8484120 106.0618700  94.2470690 132.6558650 106.1547940
 101.9159310 125.1764310 121.1449560 102.2405080 124.4453970 121.6707540
 101.9515820 124.8577950 120.2430550  88.6150870 136.1977890 120.5649520
  88.2305660 135.5571560 121.1632480  88.9263060 136.9014010 121.1344250
  94.7648010 133.0454430 116.0458140  95.1318140 132.5713000 116.7919480
  94.5753070 133.9196000 116.3866480  87.6288500 127.7898120 112.1751610
  87.3435420 127.4253790 113.0130230  87.5667360 127.0578580 111.5614750
  92.5547380 132.0863070 118.3642350  92.2504450 132.9655050 118.5892710
  93.5093840 132.1462860 118.3999790  91.0829170 136.2924060 108.9609200
  90.3091430 135.7521680 108.8007920  91.8123800 135.7730670 108.6226960
 101.8417150 135.2889420 114.7535590 102.5616270 135.7844710 114.3631700
 101.6398970 134.6107310 114.1089460  97.3027090 126.6827380 108.8964980
  96.4891700 126.1840550 108.8210290  97.1089040 127.5225630 108.4801330
  97.2235950 135.3598480 120.6404590  97.1573260 134.4394150 120.3862180
  96.5941090 135.4573920 121.3549230 100.0175480 131.0547030 107.1927140
 100.9055100 131.3664260 107.0178480  99.9880570 130.1819280 106.8007720
  91.1266570 135.9604440 112.5988010  91.6445240 135.1572700 112.5444900
  90.6750590 135.8983580 113.4404840  96.0136070 137.2270720 107.8715310
  96.3551770 137.9712950 107.3758630  95.1848780 137.5401840 108.2340140
  88.6111110 132.9265810 119.5113710  88.2526050 133.5919660 120.0987050
  88.3165670 132.0949360 119.8826330  91.8124230 133.3850050 122.3953260
  91.5124370 133.5307230 121.4981080  92.5835470 132.8255340 122.3026650
  97.1552680 138.1819050 120.3908390  97.1697220 137.2500010 120.1727300
  96.4477780 138.2678810 121.0298160 102.2889750 132.3658870 106.6607000
 102.2053470 132.7973090 105.8103440 103.0083940 132.8257220 107.0933820
 103.3663890 134.8226390 119.7376970 102.6412080 135.4155170 119.5406360
 103.8939350 134.8149930 118.9390340 103.3177000 139.2201130 109.3889130
 102.6753160 138.5656750 109.6632850 102.9307660 139.6256220 108.6129800
  98.8963480 136.5486560 113.2360820  99.2487300 135.9514690 112.5762190
  98.0125810 136.2230790 113.4069070  94.9826760 137.3084250 110.6431230
  95.6697890 137.8553460 111.0238820  94.1959180 137.8524980 110.6780840
  87.1219160 132.9257070 106.1348310  87.9914010 133.2081870 106.4184230
  86.6309480 133.7392940 106.0197120  94.2853970 134.3130280 110.2556590
  94.7416750 135.1235530 110.4816780  93.9342180 133.9953420 111.0875080
  96.5886580 139.8236620 117.4848890  97.2328800 140.0296000 118.1622310
  96.9516020 139.0625020 117.0319740  90.1865750 124.6567930 110.7279110
  90.0580380 124.6485830 111.6764030  89.3627770 124.9951020 110.3770120
  97.8618660 137.8268970 116.2026340  98.5040890 137.1262130 116.3158510
  98.3868010 138.6067410 116.0223230 101.7074380 138.1117590 105.9265480
 101.4811960 137.3948030 106.5190120 101.3170580 137.8630030 105.0887230
  99.6356280 138.6263870 119.4062400  99.9712520 139.2130560 120.0840320
  98.7156620 138.4956580 119.6360190  87.4890410 142.1384450 106.7009940
  87.8488050 142.7373790 106.0467210  87.3482750 142.6844340 107.4744970
  87.1859680 126.4159050 120.1885810  86.4718200 126.6155970 120.7938420
  87.6054720 125.6398620 120.5600610 101.2890630 136.0289530 107.5879640
 101.0012330 136.4902220 108.3757520 102.0842800 135.5687300 107.8563860
  87.4732270 140.4039310 121.1752340  87.5823390 139.4634050 121.0347730
  86.8212830 140.6694060 120.5266070  95.4644860 138.6755200 122.5750460
  95.1441730 137.9564440 123.1196150  94.7903220 139.3510270 122.6486520
  93.5059030 139.5215650 107.5183610  93.4969130 140.2545340 106.9028120
  92.5857390 139.2747230 107.6110570  89.1065670 134.7430540 108.2630370
  88.4993620 135.4829440 108.2725670  89.5815020 134.8329900 107.4368570
  98.6798460 128.9081360 117.9387260  99.0479280 128.0876570 118.2666830
  97.8196660 128.9683250 118.3542910 102.0460490 127.8638300 108.7474820
 101.4173650 127.9683970 108.0333050 101.5512410 128.0835080 109.5368700
  96.4918630 139.5843890 106.1808800  96.5930610 139.3807880 105.2510780
  95.5920370 139.3302170 106.3856580  94.0144520 130.1424250 110.1632700
  93.3060670 130.6110590 110.6046310  94.2989000 129.4846260 110.7977890
  95.6400450 131.5620950 118.1625230  96.1385700 132.0366770 118.8277080
  95.7823400 130.6384470 118.3695260  98.0459950 126.8674910 111.6028490
  97.9227730 126.8861040 110.6538000  98.9944510 126.9153850 111.7226890
  95.1336740 142.1030210 110.8756470  95.3878240 142.0651600 109.9535840
  94.1849220 141.9763540 110.8684720 102.8467310 127.7788910 119.0053620
 102.3440910 128.5194310 119.3447430 103.6623970 128.1672910 118.6890410
 101.1389320 133.0222090 112.4514980 100.1979460 133.0372320 112.6262670
 101.4533390 132.2358050 112.8975280  91.1170960 134.7041690 106.0118940
  91.8834230 134.5923050 106.5744370  91.1945650 134.0079660 105.3595710
  89.8117720 132.1366760 106.6951830  89.8921310 131.1894270 106.8069230
  90.7037470 132.4673640 106.8012490 103.1414900 140.1930940 114.1269240
 103.2662320 141.0162110 114.5993050 104.0080460 139.9821670 113.7793390
  90.6132430 142.2862150 113.7986370  91.3494910 141.7377610 114.0694940
  90.9973350 143.1518160 113.6592360  87.4977910 138.3535720 109.6727880
  86.5717690 138.5956860 109.6633290  87.9634340 139.1809980 109.5512630
  89.6190710 141.4708220 122.9871950  90.4203440 141.7920270 123.4007350
  89.1042530 141.1103800 123.7091860  93.7234740 141.4592460 105.6211940
  94.5163350 141.7481290 105.1693730  93.2039090 141.0284630 104.9424420
  98.4555340 137.5788090 122.9347360  97.8493500 137.6019690 122.1943110
  98.1509450 136.8471130 123.4714610  99.8855710 141.3068380 121.5456770
 100.8377460 141.2226400 121.4957010  99.7383930 141.9710090 122.2190560
 102.7764910 140.6862590 107.0448680 102.4906420 140.2727730 106.2302860
 102.5784460 141.6150300 106.9249200  87.3388520 133.9581680 121.9308000
  87.8427540 133.3788960 122.5024230  86.5995940 134.2421910 122.4684370
  94.2412140 136.6795870 105.4854290  94.1362780 136.0648220 106.2115670
  94.0736360 136.1561760 104.7017300  94.3926460 135.3652670 121.4643520
  93.6272130 135.9337670 121.3798190  94.5742420 135.0728880 120.5711750
  97.4814870 135.7415900 106.0896280  96.9324970 136.1885200 106.7339020
  98.1034130 135.2365150 106.6133950 101.5349810 137.0958000 122.0218540
 102.2759280 137.4333760 121.5186000 100.7722490 137.2650060 121.4688310
  89.3711600 132.1011270 122.8258070  89.4116940 131.8025140 123.7343300
  90.2257100 132.5018880 122.6665590  93.1489990 134.7006820 107.9861580
  93.5706410 134.5346690 108.8292970  93.2740830 133.8907050 107.4916720
  91.3117410 130.6803370 120.7932560  90.7813870 130.1894320 120.1655900
  91.9805480 131.1087570 120.2590490  95.6617630 133.7244430 105.2338680
  96.1823290 133.0093450 104.8679830  96.3086030 134.3630300 105.5339190
 100.2095470 135.1472830 120.5573750 100.6236490 135.3017910 121.4064170
  99.2746470 135.2728050 120.7199530 100.6817640 132.4868990 122.5612900
 101.2638410 131.7321310 122.4733380 100.8579410 133.0176430 121.7844380
  91.7989710 127.6465740 120.8729850  91.7046580 127.0286490 120.1480720
  91.2187100 128.3732030 120.6459760  94.5651150 126.2038980 117.9057240
  94.1168450 126.2263240 117.0602790  93.9316350 125.8058000 118.5027540
  94.9710700 135.0993310 118.5269680  95.3898810 135.9426040 118.3545920
  94.0519330 135.2365350 118.2976460  97.3074600 132.8309490 119.9107520
  97.4270810 132.2350630 120.6502360  98.1668600 132.8679180 119.4908820
  99.6462500 133.3846680 118.4870030  99.1197720 133.9089300 117.8835170
  99.9893840 134.0174070 119.1179760  92.8218120 141.4046320 119.6427410
  92.2839210 142.1292380 119.3236110  93.0752080 140.9276660 118.8524750
  94.0743370 129.3730840 121.1683340  94.6643060 129.0646690 121.8561160
  93.2563610 128.9010590 121.3243240  98.8936800 128.9896650 121.4016360
  98.2052320 128.3278190 121.3366350  99.6142820 128.5434920 121.8464820
  99.5237200 125.5848280 107.4606620  99.8039490 124.7416180 107.8166040
  98.7502930 125.8171390 107.9745370  95.6780330 142.6397530 119.9014060
  95.6039030 143.5432670 120.2086430  94.7759170 142.3209430 119.8736130
  96.2265660 141.8056040 107.5240420  97.1216450 142.1441010 107.5459180
  96.2583290 141.0835450 106.8964700  89.8661820 137.1783090 105.7527420
  90.3036690 137.7212760 106.4085000  90.3509550 136.3530040 105.7623760
  87.0807620 139.9672120 113.2047680  87.4110630 139.0993180 112.9726320
  87.5098620 140.1730640 114.0352640  91.6769540 138.2981130 110.8649650
  91.3765080 138.1746100 111.7653560  91.5707030 137.4389720 110.4565380
  87.5697830 140.8342710 115.9429310  87.1328820 141.0143510 116.7753460
  88.1375510 141.5917330 115.8011030 103.2060010 140.3359710 120.2306620
 102.6062000 140.3952270 119.4870540 103.3353910 139.3964690 120.3603470
 104.4461460 138.0777530 105.5676330 103.6154420 138.1454180 106.0383560
 104.6233290 138.9681650 105.2643190 103.9017920 134.8225010 108.0710530
 104.6636830 135.3921660 108.1770220 103.9172290 134.2552210 108.8418840
  87.4022260 133.3462940 112.3018190  86.7471100 133.0774580 111.6577890
  88.2400210 133.2367420 111.8520170 104.9077890 135.6775110 112.9152460
 105.2786720 134.8942430 112.5088430 105.5479820 136.3664210 112.7369760
 101.8911650 137.0611690 118.3282780 101.0771490 137.4908850 118.5908570
 102.2985850 137.6730100 117.7151830 103.9537090 135.1159380 105.2283050
 104.2285930 136.0238260 105.1002270 103.7647830 135.0521910 106.1645040
 100.3512700 128.1404230 106.5236680 100.7697580 127.9535210 105.6833340
 100.0448760 127.2883280 106.8339610 103.8502430 133.0528370 110.2212480
 103.4746030 132.2856300 109.7893770 103.1205550 133.4351070 110.7087410
  88.4398190 133.7315510 116.8421530  88.8071230 133.6442910 117.7217550
  87.8709010 132.9682060 116.7428390 103.2402050 132.1999890 119.8552000
 103.0088140 131.9712640 118.9549950 103.5006600 133.1199440 119.8096890
  87.9914190 130.6424600 120.7479950  87.0970240 130.6091360 121.0873660
  88.5311740 130.8411390 121.5131200 101.6790120 127.4256320 122.6331700
 102.5560300 127.4339720 123.0165700 101.6910960 126.6887160 122.0224050
  86.6160340 130.5561870 108.2443520  85.7124420 130.8192070 108.0695180
  87.1000960 130.8273040 107.4643480 103.1253390 131.2785860 113.5219720
 103.6490870 130.7848510 112.8909890 103.7112810 131.4136220 114.2667290
 103.3043110 131.3625730 117.0439270 102.3545820 131.3289270 117.1584260
 103.4856120 132.2725840 116.8089040 102.6153360 130.5359210 109.4612130
 103.1112480 130.3030080 110.2461010 102.4169430 129.6971050 109.0449770
  88.4953900 124.9172930 115.0963170  89.1430090 124.3670310 114.6558330
  88.9155740 125.1716080 115.9178980 104.0440520 129.1720160 111.9949810
 103.9339800 129.0176200 112.9332080 104.8048110 128.6441100 111.7525220
 102.3906240 125.1114290 118.4532810 103.0278460 125.7248430 118.8192000
 102.5381130 125.1474950 117.5082040 104.9330790 127.0028080 105.2355950
 105.8580100 126.8709260 105.0274240 104.9106580 127.0820900 106.1892400
 105.0069280 127.7738740 107.8612660 104.2120780 127.7083860 108.3905570
 105.2112560 128.7089380 107.8498010 101.9487700 141.8130290 111.8551050
 102.5446770 141.4914860 111.1785470 102.2065850 141.3402110 112.6464320
  88.2485900 125.0728600 117.8388490  87.9000720 125.5292420 118.6046670
  87.9173600 124.1785730 117.9210920  89.8550270 138.2448200 122.0041680
  89.8119900 137.8741110 122.8856140  89.9861280 139.1825770 122.1443500
  93.5556300 139.8007790 117.6051400  93.3147660 140.0682350 116.7181920
  94.4958940 139.9713520 117.6602260  95.7610720 126.2640480 121.3607910
  95.6999610 126.8562310 122.1103320  96.7011100 126.1566440 121.2158170
  98.3985280 125.9210540 121.0000200  99.0125690 126.2389830 120.3381280
  98.9434840 125.4359130 121.6196060 104.8160460 141.8202170 118.4062040
 104.3218740 142.2171040 117.6889170 104.2073750 141.1951380 118.7999320
  88.9206540 124.6004800 121.1139260  89.4689530 124.4192850 120.3505370
  88.9861850 123.8098910 121.6495570  89.6938300 141.1910450 119.1239460
  89.0998620 141.0595150 119.8629500  89.6862140 140.3548590 118.6581560
 100.0465300 126.6913550 118.7111210  99.7178660 125.8765310 118.3312940
 100.9947600 126.6483360 118.5876900 102.4999910 142.4625590 115.6848780
 102.0402880 143.2141400 115.3106800 101.8712370 141.7432060 115.6263580
  89.3250530 138.5568830 118.0747500  88.5984590 137.9374120 118.0073450
  89.3859680 138.9509440 117.2045580  92.9295630 140.7713830 114.8596910
  93.4460650 140.1601190 114.3345170  93.5793010 141.2742610 115.3507920
  95.6691130 141.6622320 115.6865890  95.9568940 141.4076620 114.8098900
  96.1814350 141.1099680 116.2771460 101.4389210 126.1035620 114.3111490
 101.8797300 126.0480720 113.4633090 101.1696800 127.0193630 114.3821670
 103.3027780 125.7350860 112.3220310 103.2416180 124.7912080 112.1751330
 104.0819810 125.8430950 112.8673770  87.6080530 141.8743220 111.2844260
  87.4402570 141.2413900 111.9826150  86.7415040 142.0802620 110.9338450
  94.7722360 127.8199270 111.7778430  93.9596870 127.4456160 111.4374310
  95.2764000 127.0644350 112.0799620  99.2747340 124.4841720 113.0161500
  99.8776710 125.0561930 113.4910020  98.5340330 125.0481160 112.7935400
 102.4181940 124.8863280 108.2901780 102.6132570 125.7846730 108.5569210
 101.6311810 124.6550360 108.7834730  89.2143230 140.5676450 108.7294400
  88.6890850 140.9484480 108.0256360  89.1387810 141.1927220 109.4504110
  95.7363490 142.5838420 123.0534090  96.6630800 142.3482690 123.0970050
  95.7213920 143.4110420 122.5720120 103.9708550 142.1263990 110.0508340
 104.1460740 141.4401730 109.4069260 103.2730120 142.6511040 109.6585010
  92.9227100 125.2483170 122.8175970  92.6411370 125.7516770 122.0536790
  93.3046800 124.4504920 122.4518100  91.8136200 142.5158830 107.6043650
  92.5455020 142.2318110 107.0567540  92.0729870 142.2772110 108.4943030
  90.9750990 138.6323560 107.6089980  90.3459870 139.1008660 108.1575810
  91.0898820 137.7872780 108.0436170  99.5242560 124.6636750 123.3956440
  99.4108010 124.9831360 124.2907960 100.3412300 125.0649260 123.0993720
 102.3041050 141.8108280 122.8775130 103.0966370 141.3157510 122.6701090
 102.5974200 142.4898420 123.4850740  98.4300710 132.6829220  93.7591180
  98.3494760 131.7683830  93.4882890  98.0165130 133.1796290  93.0530890
  96.5618750 134.4608240  95.6400450  95.7860850 133.9808680  95.9299020
  97.2131680 133.7813890  95.4656610  90.5784580 134.7728050  96.5176210
  89.7469460 134.5176760  96.9172720  91.1865560 134.8438820  97.2534130
 100.5826180 138.8668430  94.4199580 100.1207710 138.0955670  94.7486750
 101.3951730 138.8934500  94.9252030  90.5585840 138.8068140  96.7134230
  90.8613880 137.9165880  96.5344450  91.3029430 139.3638360  96.4856480
  96.8089490 141.1526440  94.0403570  96.1900930 141.6083940  93.4698010
  97.6641270 141.3077900  93.6393270  96.0027740 137.1365430  95.6470610
  95.9336020 136.1955370  95.4859740  96.7647600 137.2266840  96.2193180
  97.0332910 129.9435810  95.8739540  97.4097730 129.0707690  95.7613210
  96.9352420 130.2794510  94.9829980 100.8157030 127.4386250  92.8067880
 101.6366650 126.9482820  92.8493360 100.8491110 128.0283910  93.5599720
  93.0045650 131.2847810  95.6682160  93.5123870 131.7828780  96.3087180
  93.5358890 130.5083010  95.4921520 105.1056580 129.4553000  99.3711510
 104.4008750 129.8434710  98.8526620 105.3714500 130.1503290  99.9732440
  91.2881750 125.9246370  99.9345580  91.2900190 126.4418760  99.1291480
  90.4586060 125.4476550  99.9115510  97.6752840 136.0365680  91.4335480
  97.0570110 136.5015130  90.8698200  98.1876090 136.7293160  91.8504990
  92.5384600 135.5641550  98.1119080  92.2053980 136.1910470  98.7540150
  92.7151280 136.0903430  97.3320750 101.0518510 129.3786630  95.5795420
 100.3474080 129.6671520  96.1598530 101.4130670 130.1886740  95.2194980
  90.9697080 127.6356330  97.9416030  91.3113890 128.4798380  97.6469900
  90.0312890 127.7840070  98.0581370  91.7503700 137.5322350  99.9268260
  92.3677700 138.2073430  99.6452710  90.8896820 137.9410330  99.8355760
 102.6681290 138.9961760  97.8422900 101.9844810 139.6660870  97.8339570
 103.2075580 139.1942410  97.0767760 104.1205430 128.8241420  95.9704630
 103.1730340 128.8580400  96.1020060 104.4455420 129.6380370  96.3553990
  94.6524970 125.1238600  94.2660620  94.9599950 124.5685490  93.5496120
  93.7225670 125.2583060  94.0833610 100.2040030 140.8405890  96.5568080
 100.2167190 140.4368180  95.6890340  99.6515250 141.6153180  96.4529510
 101.4985450 137.5622110  91.6458250 101.3881780 136.6196440  91.7707670
 101.4953700 137.9237750  92.5321010  99.6025470 135.7435730  97.8850690
 100.0194260 135.5295840  97.0504150 100.3265290 136.0008520  98.4559310
  97.0405730 133.1887430  91.0020740  96.1135010 133.1224810  91.2309210
  97.1930550 134.1267560  90.8875980 103.5487570 134.1422950  97.9766930
 102.7206200 134.2116040  97.5017060 104.1438050 134.7277260  97.5082760
 101.0703020 134.7507730  91.5055990 100.4515440 134.4127280  90.8582290
 101.0527470 134.1067490  92.2135180  92.6462370 133.7152170  93.7840470
  92.2419370 133.0029420  93.2886370  92.7325490 133.3705410  94.6728510
  93.1144070 137.4019730  95.9479680  92.8172360 136.7965200  95.2687460
  94.0643890 137.4397040  95.8369040  91.3590990 130.4895380  97.5639510
  91.9105580 130.5990720  96.7892760  91.8734500 130.8632980  98.2794740
 101.2029680 140.9751600  99.6102780 100.7260240 141.7823790  99.4175390
 100.5191470 140.3229930  99.7628990  92.2062500 137.1401420 102.5987480
  91.3091030 137.3641390 102.8460880  92.2315370 137.2636360 101.6498880
  91.0333720 134.0114740 101.1744850  90.8941490 134.8837540 101.5432250
  90.1515080 133.6687550 101.0292790  97.3563100 138.9290610  92.4809980
  97.7959010 139.6714940  92.0665370  97.2949990 139.1717180  93.4048940
  92.8314070 139.9536440 103.3830000  92.8029500 140.3579390 102.5158430
  92.6679040 139.0246800 103.2201600 102.8284860 125.2437350  86.8269780
 102.5157520 125.3364180  87.7268850 103.5897330 125.8218380  86.7767210
  89.3467000 132.6097150  91.2847120  89.2264600 133.3359240  90.6728390
  89.0367890 131.8400060  90.8075030 104.7828890 140.7363540 104.6794170
 105.2588610 141.2146430 105.3583250 105.4036050 140.6681030 103.9539670
  86.9852370 135.7812290  97.0915760  87.0632790 135.9161060  96.1471480
  87.5994050 135.0728180  97.2843880  88.2300000 137.4812480  93.5021940
  87.8228080 137.6227070  92.6475540  89.1213010 137.1972640  93.2993150
 104.1862140 137.9276390 101.8394180 104.3125200 137.6888270 100.9211360
 104.2283520 137.0960930 102.3116260  98.0478880 141.6304390 100.4088990
  98.5623550 141.5412400 101.2111420  97.2047960 141.9764090 100.7016900
 100.0233280 141.9159730  89.8372990  99.8634420 141.6262670  90.7354820
  99.8579990 141.1399860  89.3018220  92.5021660 141.6958260  91.6144610
  92.3264140 140.7793800  91.4012410  91.6477400 142.0545550  91.8542410
  99.7259410 139.4247290  88.3970990  99.0324570 139.4224580  87.7373270
 100.4682270 139.0006610  87.9665160  99.2909340 141.0510000  92.4719480
  99.7466290 140.2699380  92.7858100  99.6301860 141.7616820  93.0160660
 104.0386150 129.9808850 102.8043920 103.4230420 130.4888520 102.2759380
 103.7182570 129.0807180 102.7469860  87.0411890 136.8226460  99.6310220
  87.2042930 136.3531820  98.8129590  87.5064340 136.3150020 100.2959060
  91.8130660 125.9532220  94.6670790  91.3698810 126.7341760  94.3355310
  92.3715650 126.2762110  95.3741730  93.8506560 126.4979550  96.5260390
  94.1478890 127.4042380  96.4452410  94.3992120 126.0098330  95.9119960
  94.0444090 131.9751370 103.0612310  93.9487690 131.0346100 102.9112710
  94.8876070 132.1966440 102.6660380  97.4407510 129.7192700  93.0245970
  97.8337080 130.0364900  92.2114660  97.8024360 128.8404580  93.1390490
  89.1754630 128.3865040 101.2146090  88.7818020 129.2340250 101.4218870
  88.4873030 127.7491410 101.4054730  98.0262650 132.3098450  97.1196750
  97.2943770 132.8185260  97.4686850  97.6286990 131.4928430  96.8185530
  94.4640040 128.9852650  95.5249240  94.4676100 128.5442600  94.6753780
  95.3591160 129.3069980  95.6321060  98.4888560 127.7632130  96.5319690
  98.5061300 128.2140780  97.3761540  98.2404140 126.8637770  96.7453130
 101.9159310 125.1764310 102.3706070 102.2405080 124.4453970 102.8964050
 101.9515820 124.8577950 101.4687060  88.6150870 136.1977890 101.7906030
  88.2305660 135.5571560 102.3888990  88.9263060 136.9014010 102.3600760
  94.7648010 133.0454430  97.2714650  95.1318140 132.5713000  98.0175990
  94.5753070 133.9196000  97.6122990  92.5547380 132.0863070  99.5898860
  92.2504450 132.9655050  99.8149220  93.5093840 132.1462860  99.6256300
  91.0829170 136.2924060  90.1865710  90.3091430 135.7521680  90.0264430
  91.8123800 135.7730670  89.8483470 101.8417150 135.2889420  95.9792100
 102.5616270 135.7844710  95.5888210 101.6398970 134.6107310  95.3345970
  97.2235950 135.3598480 101.8661100  97.1573260 134.4394150 101.6118690
  96.5941090 135.4573920 102.5805740  91.1266570 135.9604440  93.8244520
  91.6445240 135.1572700  93.7701410  90.6750590 135.8983580  94.6661350
  96.0136070 137.2270720  89.0971820  96.3551770 137.9712950  88.6015140
  95.1848780 137.5401840  89.4596650  88.6111110 132.9265810 100.7370220
  88.2526050 133.5919660 101.3243560  88.3165670 132.0949360 101.1082840
  91.8124230 133.3850050 103.6209770  91.5124370 133.5307230 102.7237590
  92.5835470 132.8255340 103.5283160  97.1552680 138.1819050 101.6164900
  97.1697220 137.2500010 101.3983810  96.4477780 138.2678810 102.2554670
 102.2889750 132.3658870  87.8863510 102.2053470 132.7973090  87.0359950
 103.0083940 132.8257220  88.3190330 103.3663890 134.8226390 100.9633480
 102.6412080 135.4155170 100.7662870 103.8939350 134.8149930 100.1646850
 103.3177000 139.2201130  90.6145640 102.6753160 138.5656750  90.8889360
 102.9307660 139.6256220  89.8386310  98.8963480 136.5486560  94.4617330
  99.2487300 135.9514690  93.8018700  98.0125810 136.2230790  94.6325580
  94.9826760 137.3084250  91.8687740  95.6697890 137.8553460  92.2495330
  94.1959180 137.8524980  91.9037350  87.1219160 132.9257070  87.3604820
  87.9914010 133.2081870  87.6440740  86.6309480 133.7392940  87.2453630
  94.2853970 134.3130280  91.4813100  94.7416750 135.1235530  91.7073290
  93.9342180 133.9953420  92.3131590  96.5886580 139.8236620  98.7105400
  97.2328800 140.0296000  99.3878820  96.9516020 139.0625020  98.2576250
  97.8618660 137.8268970  97.4282850  98.5040890 137.1262130  97.5415020
  98.3868010 138.6067410  97.2479740 101.7074380 138.1117590  87.1521990
 101.4811960 137.3948030  87.7446630 101.3170580 137.8630030  86.3143740
  99.6356280 138.6263870 100.6318910  99.9712520 139.2130560 101.3096830
  98.7156620 138.4956580 100.8616700  87.4890410 142.1384450  87.9266450
  87.8488050 142.7373790  87.2723720  87.3482750 142.6844340  88.7001480
  87.1859680 126.4159050 101.4142320  86.4718200 126.6155970 102.0194930
  87.6054720 125.6398620 101.7857120 101.2890630 136.0289530  88.8136150
 101.0012330 136.4902220  89.6014030 102.0842800 135.5687300  89.0820370
  87.4732270 140.4039310 102.4008850  87.5823390 139.4634050 102.2604240
  86.8212830 140.6694060 101.7522580  95.4644860 138.6755200 103.8006970
  95.1441730 137.9564440 104.3452660  94.7903220 139.3510270 103.8743030
  93.5059030 139.5215650  88.7440120  93.4969130 140.2545340  88.1284630
  92.5857390 139.2747230  88.8367080  89.1065670 134.7430540  89.4886880
  88.4993620 135.4829440  89.4982180  89.5815020 134.8329900  88.6625080
  96.4918630 139.5843890  87.4065310  96.5930610 139.3807880  86.4767290
  95.5920370 139.3302170  87.6113090  95.6400450 131.5620950  99.3881740
  96.1385700 132.0366770 100.0533590  95.7823400 130.6384470  99.5951770
  98.0459950 126.8674910  92.8285000  97.9227730 126.8861040  91.8794510
  98.9944510 126.9153850  92.9483400  95.1336740 142.1030210  92.1012980
  95.3878240 142.0651600  91.1792350  94.1849220 141.9763540  92.0941230
 101.1389320 133.0222090  93.6771490 100.1979460 133.0372320  93.8519180
 101.4533390 132.2358050  94.1231790 103.1414900 140.1930940  95.3525750
 103.2662320 141.0162110  95.8249560 104.0080460 139.9821670  95.0049900
  90.6132430 142.2862150  95.0242880  91.3494910 141.7377610  95.2951450
  90.9973350 143.1518160  94.8848870  87.4977910 138.3535720  90.8984390
  86.5717690 138.5956860  90.8889800  87.9634340 139.1809980  90.7769140
  89.6190710 141.4708220 104.2128460  90.4203440 141.7920270 104.6263860
  89.1042530 141.1103800 104.9348370  93.7234740 141.4592460  86.8468450
  94.5163350 141.7481290  86.3950240  93.2039090 141.0284630  86.1680930
  98.4555340 137.5788090 104.1603870  97.8493500 137.6019690 103.4199620
  98.1509450 136.8471130 104.6971120  99.8855710 141.3068380 102.7713280
 100.8377460 141.2226400 102.7213520  99.7383930 141.9710090 103.4447070
 102.7764910 140.6862590  88.2705190 102.4906420 140.2727730  87.4559370
 102.5784460 141.6150300  88.1505710  87.3388520 133.9581680 103.1564510
  87.8427540 133.3788960 103.7280740  86.5995940 134.2421910 103.6940880
  94.3926460 135.3652670 102.6900030  93.6272130 135.9337670 102.6054700
  94.5742420 135.0728880 101.7968260 101.5349810 137.0958000 103.2475050
 102.2759280 137.4333760 102.7442510 100.7722490 137.2650060 102.6944820
  89.3711600 132.1011270 104.0514580  89.4116940 131.8025140 104.9599810
  90.2257100 132.5018880 103.8922100  91.3117410 130.6803370 102.0189070
  90.7813870 130.1894320 101.3912410  91.9805480 131.1087570 101.4847000
 100.2095470 135.1472830 101.7830260 100.6236490 135.3017910 102.6320680
  99.2746470 135.2728050 101.9456040 100.6817640 132.4868990 103.7869410
 101.2638410 131.7321310 103.6989890 100.8579410 133.0176430 103.0100890
  94.9710700 135.0993310  99.7526190  95.3898810 135.9426040  99.5802430
  94.0519330 135.2365350  99.5232970  97.3074600 132.8309490 101.1364030
  97.4270810 132.2350630 101.8758870  98.1668600 132.8679180 100.7165330
  99.6462500 133.3846680  99.7126540  99.1197720 133.9089300  99.1091680
  99.9893840 134.0174070 100.3436270  92.8218120 141.4046320 100.8683920
  92.2839210 142.1292380 100.5492620  93.0752080 140.9276660 100.0781260
  95.6780330 142.6397530 101.1270570  95.6039030 143.5432670 101.4342940
  94.7759170 142.3209430 101.0992640  96.2265660 141.8056040  88.7496930
  97.1216450 142.1441010  88.7715690  96.2583290 141.0835450  88.1221210
  89.8661820 137.1783090  86.9783930  90.3036690 137.7212760  87.6341510
  90.3509550 136.3530040  86.9880270  87.0807620 139.9672120  94.4304190
  87.4110630 139.0993180  94.1982830  87.5098620 140.1730640  95.2609150
  91.6769540 138.2981130  92.0906160  91.3765080 138.1746100  92.9910070
  91.5707030 137.4389720  91.6821890  87.5697830 140.8342710  97.1685820
  87.1328820 141.0143510  98.0009970  88.1375510 141.5917330  97.0267540
 103.2060010 140.3359710 101.4563130 102.6062000 140.3952270 100.7127050
 103.3353910 139.3964690 101.5859980 104.4461460 138.0777530  86.7932840
 103.6154420 138.1454180  87.2640070 104.6233290 138.9681650  86.4899700
 103.9017920 134.8225010  89.2967040 104.6636830 135.3921660  89.4026730
 103.9172290 134.2552210  90.0675350 104.9077890 135.6775110  94.1408970
 105.2786720 134.8942430  93.7344940 105.5479820 136.3664210  93.9626270
 101.8911650 137.0611690  99.5539290 101.0771490 137.4908850  99.8165080
 102.2985850 137.6730100  98.9408340 103.9537090 135.1159380  86.4539560
 104.2285930 136.0238260  86.3258780 103.7647830 135.0521910  87.3901550
 103.8502430 133.0528370  91.4468990 103.4746030 132.2856300  91.0150280
 103.1205550 133.4351070  91.9343920  88.4398190 133.7315510  98.0678040
  88.8071230 133.6442910  98.9474060  87.8709010 132.9682060  97.9684900
 103.2402050 132.1999890 101.0808510 103.0088140 131.9712640 100.1806460
 103.5006600 133.1199440 101.0353400  87.9914190 130.6424600 101.9736460
  87.0970240 130.6091360 102.3130170  88.5311740 130.8411390 102.7387710
 103.1253390 131.2785860  94.7476230 103.6490870 130.7848510  94.1166400
 103.7112810 131.4136220  95.4923800 103.3043110 131.3625730  98.2695780
 102.3545820 131.3289270  98.3840770 103.4856120 132.2725840  98.0345550
 102.6153360 130.5359210  90.6868640 103.1112480 130.3030080  91.4717520
 102.4169430 129.6971050  90.2706280  88.4953900 124.9172930  96.3219680
  89.1430090 124.3670310  95.8814840  88.9155740 125.1716080  97.1435490
 104.0440520 129.1720160  93.2206320 103.9339800 129.0176200  94.1588590
 104.8048110 128.6441100  92.9781730 104.9330790 127.0028080  86.4612460
 105.8580100 126.8709260  86.2530750 104.9106580 127.0820900  87.4148910
 105.0069280 127.7738740  89.0869170 104.2120780 127.7083860  89.6162080
 105.2112560 128.7089380  89.0754520 101.9487700 141.8130290  93.0807560
 102.5446770 141.4914860  92.4041980 102.2065850 141.3402110  93.8720830
  88.2485900 125.0728600  99.0645000  87.9000720 125.5292420  99.8303180
  87.9173600 124.1785730  99.1467430  89.8550270 138.2448200 103.2298190
  89.8119900 137.8741110 104.1112650  89.9861280 139.1825770 103.3700010
  93.5556300 139.8007790  98.8307910  93.3147660 140.0682350  97.9438430
  94.4958940 139.9713520  98.8858770 104.8160460 141.8202170  99.6318550
 104.3218740 142.2171040  98.9145680 104.2073750 141.1951380 100.0255830
  88.9206540 124.6004800 102.3395770  89.4689530 124.4192850 101.5761880
  88.9861850 123.8098910 102.8752080  89.6938300 141.1910450 100.3495970
  89.0998620 141.0595150 101.0886010  89.6862140 140.3548590  99.8838070
 102.4999910 142.4625590  96.9105290 102.0402880 143.2141400  96.5363310
 101.8712370 141.7432060  96.8520090  89.3250530 138.5568830  99.3004010
  88.5984590 137.9374120  99.2329960  89.3859680 138.9509440  98.4302090
  92.9295630 140.7713830  96.0853420  93.4460650 140.1601190  95.5601680
  93.5793010 141.2742610  96.5764430  95.6691130 141.6622320  96.9122400
  95.9568940 141.4076620  96.0355410  96.1814350 141.1099680  97.5027970
 101.4389210 126.1035620  95.5368000 101.8797300 126.0480720  94.6889600
 101.1696800 127.0193630  95.6078180 103.3027780 125.7350860  93.5476820
 103.2416180 124.7912080  93.4007840 104.0819810 125.8430950  94.0930280
  87.6080530 141.8743220  92.5100770  87.4402570 141.2413900  93.2082660
  86.7415040 142.0802620  92.1594960  94.7722360 127.8199270  93.0034940
  93.9596870 127.4456160  92.6630820  95.2764000 127.0644350  93.3056130
  99.2747340 124.4841720  94.2418010  99.8776710 125.0561930  94.7166530
  98.5340330 125.0481160  94.0191910 102.4181940 124.8863280  89.5158290
 102.6132570 125.7846730  89.7825720 101.6311810 124.6550360  90.0091240
  89.2143230 140.5676450  89.9550910  88.6890850 140.9484480  89.2512870
  89.1387810 141.1927220  90.6760620  95.7363490 142.5838420 104.2790600
  96.6630800 142.3482690 104.3226560  95.7213920 143.4110420 103.7976630
 103.9708550 142.1263990  91.2764850 104.1460740 141.4401730  90.6325770
 103.2730120 142.6511040  90.8841520  91.8136200 142.5158830  88.8300160
  92.5455020 142.2318110  88.2824050  92.0729870 142.2772110  89.7199540
  90.9750990 138.6323560  88.8346490  90.3459870 139.1008660  89.3832320
  91.0898820 137.7872780  89.2692680  99.5242560 124.6636750 104.6212950
  99.4108010 124.9831360 105.5164470 100.3412300 125.0649260 104.3250230
 102.3041050 141.8108280 104.1031640 103.0966370 141.3157510 103.8957600
 102.5974200 142.4898420 104.7107250  98.4300710 132.6829220  74.9847690
  98.3494760 131.7683830  74.7139400  98.0165130 133.1796290  74.2787400
  96.5618750 134.4608240  76.8656960  95.7860850 133.9808680  77.1555530
  97.2131680 133.7813890  76.6913120  90.5784580 134.7728050  77.7432720
  89.7469460 134.5176760  78.1429230  91.1865560 134.8438820  78.4790640
 100.5826180 138.8668430  75.6456090 100.1207710 138.0955670  75.9743260
 101.3951730 138.8934500  76.1508540  90.5585840 138.8068140  77.9390740
  90.8613880 137.9165880  77.7600960  91.3029430 139.3638360  77.7112990
  88.9876530 129.7329940  71.5275110  88.0993230 130.0745910  71.4254990
  89.2717720 129.5330260  70.6355940  86.9509540 132.3335590  77.4114810
  87.5225650 131.5657790  77.4118450  86.9511080 132.6324350  76.5021420
  96.8089490 141.1526440  75.2660080  96.1900930 141.6083940  74.6954520
  97.6641270 141.3077900  74.8649780  96.0027740 137.1365430  76.8727120
  95.9336020 136.1955370  76.7116250  96.7647600 137.2266840  77.4449690
  88.1934410 127.7419950  79.1983740  88.0137250 126.8445700  79.4786500
  87.7914490 128.2891820  79.8730690  97.0332910 129.9435810  77.0996050
  97.4097730 129.0707690  76.9869720  96.9352420 130.2794510  76.2086490
  91.1637920 128.3161440  72.5613490  91.2704670 129.2165170  72.8682250
  90.2530280 128.2679410  72.2708140 100.8157030 127.4386250  74.0324390
 101.6366650 126.9482820  74.0749870 100.8491110 128.0283910  74.7856230
  88.8121080 130.2380450  77.8066080  89.4931190 130.5018820  78.4253480
  88.4969130 129.3981320  78.1404090  93.0045650 131.2847810  76.8938670
  93.5123870 131.7828780  77.5343690  93.5358890 130.5083010  76.7178030
 105.1056580 129.4553000  80.5968020 104.4008750 129.8434710  80.0783130
 105.3714500 130.1503290  81.1988950  91.2881750 125.9246370  81.1602090
  91.2900190 126.4418760  80.3547990  90.4586060 125.4476550  81.1372020
  97.6752840 136.0365680  72.6591990  97.0570110 136.5015130  72.0954710
  98.1876090 136.7293160  73.0761500  92.5384600 135.5641550  79.3375590
  92.2053980 136.1910470  79.9796660  92.7151280 136.0903430  78.5577260
 101.0518510 129.3786630  76.8051930 100.3474080 129.6671520  77.3855040
 101.4130670 130.1886740  76.4451490  90.9697080 127.6356330  79.1672540
  91.3113890 128.4798380  78.8726410  90.0312890 127.7840070  79.2837880
  91.7503700 137.5322350  81.1524770  92.3677700 138.2073430  80.8709220
  90.8896820 137.9410330  81.0612270 102.6681290 138.9961760  79.0679410
 101.9844810 139.6660870  79.0596080 103.2075580 139.1942410  78.3024270
 104.1205430 128.8241420  77.1961140 103.1730340 128.8580400  77.3276570
 104.4455420 129.6380370  77.5810500  94.6524970 125.1238600  75.4917130
  94.9599950 124.5685490  74.7752630  93.7225670 125.2583060  75.3090120
 100.2040030 140.8405890  77.7824590 100.2167190 140.4368180  76.9146850
  99.6515250 141.6153180  77.6786020 101.4985450 137.5622110  72.8714760
 101.3881780 136.6196440  72.9964180 101.4953700 137.9237750  73.7577520
  97.0405730 133.1887430  72.2277250  96.1135010 133.1224810  72.4565720
  97.1930550 134.1267560  72.1132490  97.0274810 129.4604430  69.2244410
  96.0878480 129.6218390  69.3096870  97.3458070 130.1790110  68.6780400
 103.5487570 134.1422950  79.2023440 102.7206200 134.2116040  78.7273570
 104.1438050 134.7277260  78.7339270 101.0703020 134.7507730  72.7312500
 100.4515440 134.4127280  72.0838800 101.0527470 134.1067490  73.4391690
 100.5129580 130.9292270  80.1478310 100.1000760 131.7545980  80.4018300
  99.7805530 130.3437310  79.9554670  92.6462370 133.7152170  75.0096980
  92.2419370 133.0029420  74.5142880  92.7325490 133.3705410  75.8985020
  93.1144070 137.4019730  77.1736190  92.8172360 136.7965200  76.4943970
  94.0643890 137.4397040  77.0625550  91.3590990 130.4895380  78.7896020
  91.9105580 130.5990720  78.0149270  91.8734500 130.8632980  79.5051250
 101.2029680 140.9751600  80.8359290 100.7260240 141.7823790  80.6431900
 100.5191470 140.3229930  80.9885500  92.2062500 137.1401420  83.8243990
  91.3091030 137.3641390  84.0717390  92.2315370 137.2636360  82.8755390
  99.2467720 133.9894540  69.7385250  99.6861000 133.1516970  69.5923070
  99.9596140 134.6223940  69.8249390  91.0333720 134.0114740  82.4001360
  90.8941490 134.8837540  82.7688760  90.1515080 133.6687550  82.2549300
  97.3563100 138.9290610  73.7066490  97.7959010 139.6714940  73.2921880
  97.2949990 139.1717180  74.6305450  92.8314070 139.9536440  84.6086510
  92.8029500 140.3579390  83.7414940  92.6679040 139.0246800  84.4458110
 102.8284860 125.2437350  68.0526290 102.5157520 125.3364180  68.9525360
 103.5897330 125.8218380  68.0023720 104.7828890 140.7363540  85.9050680
 105.2588610 141.2146430  86.5839760 105.4036050 140.6681030  85.1796180
  86.9852370 135.7812290  78.3172270  87.0632790 135.9161060  77.3727990
  87.5994050 135.0728180  78.5100390 104.1862140 137.9276390  83.0650690
 104.3125200 137.6888270  82.1467870 104.2283520 137.0960930  83.5372770
  98.0478880 141.6304390  81.6345500  98.5623550 141.5412400  82.4367930
  97.2047960 141.9764090  81.9273410 100.0233280 141.9159730  71.0629500
  99.8634420 141.6262670  71.9611330  99.8579990 141.1399860  70.5274730
  92.5021660 141.6958260  72.8401120  92.3264140 140.7793800  72.6268920
  91.6477400 142.0545550  73.0798920  99.7259410 139.4247290  69.6227500
  99.0324570 139.4224580  68.9629780 100.4682270 139.0006610  69.1921670
  99.2909340 141.0510000  73.6975990  99.7466290 140.2699380  74.0114610
  99.6301860 141.7616820  74.2417170 104.0386150 129.9808850  84.0300430
 103.4230420 130.4888520  83.5015890 103.7182570 129.0807180  83.9726370
  87.0411890 136.8226460  80.8566730  87.2042930 136.3531820  80.0386100
  87.5064340 136.3150020  81.5215570  91.8130660 125.9532220  75.8927300
  91.3698810 126.7341760  75.5611820  92.3715650 126.2762110  76.5998240
 101.1004980 130.0409690  82.6259280 100.2498570 129.7415440  82.9468350
 100.9406770 130.2851700  81.7143100  94.9289480 125.5742920  70.7733130
  94.3043660 125.5702790  71.4986440  94.8419600 124.7073880  70.3769100
  93.8506560 126.4979550  77.7516900  94.1478890 127.4042380  77.6708920
  94.3992120 126.0098330  77.1376470  91.6044880 131.0765790  73.6208550
  91.3785800 130.8602960  74.5255170  90.8237410 131.5094250  73.2754520
  98.8342640 131.0829160  72.2199200  98.2351530 131.8064960  72.0362820
  99.3822250 131.0205940  71.4375650  97.4407510 129.7192700  74.2502480
  97.8337080 130.0364900  73.4371170  97.8024360 128.8404580  74.3647000
  89.1754630 128.3865040  82.4402600  88.7818020 129.2340250  82.6475380
  88.4873030 127.7491410  82.6311240  86.4771680 126.3093500  76.4732680
  86.1884730 126.8796360  77.1857660  87.2217440 125.8297950  76.8363910
  86.6641910 130.2513620  67.6835400  86.5816580 131.1944380  67.8250390
  86.3124970 130.1088530  66.8047750  98.0262650 132.3098450  78.3453260
  97.2943770 132.8185260  78.6943360  97.6286990 131.4928430  78.0442040
  94.4640040 128.9852650  76.7505750  94.4676100 128.5442600  75.9010290
  95.3591160 129.3069980  76.8577570  90.3142420 128.8679140  75.7099960
  89.9742470 129.3454370  76.4667010  89.5519740 128.4144260  75.3501060
  94.5260190 129.9864730  69.7412510  94.6473010 129.9451210  70.6898330
  94.1408700 130.8488880  69.5859240  93.5381690 132.2965870  69.1395810
  92.9698590 131.8484120  68.5131720  94.2470690 132.6558650  68.6060960
  88.6150870 136.1977890  83.0162540  88.2305660 135.5571560  83.6145500
  88.9263060 136.9014010  83.5857270  94.7648010 133.0454430  78.4971160
  95.1318140 132.5713000  79.2432500  94.5753070 133.9196000  78.8379500
  87.6288500 127.7898120  74.6264630  87.3435420 127.4253790  75.4643250
  87.5667360 127.0578580  74.0127770  92.5547380 132.0863070  80.8155370
  92.2504450 132.9655050  81.0405730  93.5093840 132.1462860  80.8512810
  91.0829170 136.2924060  71.4122220  90.3091430 135.7521680  71.2520940
  91.8123800 135.7730670  71.0739980 101.8417150 135.2889420  77.2048610
 102.5616270 135.7844710  76.8144720 101.6398970 134.6107310  76.5602480
  97.3027090 126.6827380  71.3478000  96.4891700 126.1840550  71.2723310
  97.1089040 127.5225630  70.9314350 100.0175480 131.0547030  69.6440160
 100.9055100 131.3664260  69.4691500  99.9880570 130.1819280  69.2520740
  91.1266570 135.9604440  75.0501030  91.6445240 135.1572700  74.9957920
  90.6750590 135.8983580  75.8917860  96.0136070 137.2270720  70.3228330
  96.3551770 137.9712950  69.8271650  95.1848780 137.5401840  70.6853160
  88.6111110 132.9265810  81.9626730  88.2526050 133.5919660  82.5500070
  88.3165670 132.0949360  82.3339350 102.2889750 132.3658870  69.1120020
 102.2053470 132.7973090  68.2616460 103.0083940 132.8257220  69.5446840
 103.3663890 134.8226390  82.1889990 102.6412080 135.4155170  81.9919380
 103.8939350 134.8149930  81.3903360 103.3177000 139.2201130  71.8402150
 102.6753160 138.5656750  72.1145870 102.9307660 139.6256220  71.0642820
  98.8963480 136.5486560  75.6873840  99.2487300 135.9514690  75.0275210
  98.0125810 136.2230790  75.8582090  94.9826760 137.3084250  73.0944250
  95.6697890 137.8553460  73.4751840  94.1959180 137.8524980  73.1293860
  94.2853970 134.3130280  72.7069610  94.7416750 135.1235530  72.9329800
  93.9342180 133.9953420  73.5388100  96.5886580 139.8236620  79.9361910
  97.2328800 140.0296000  80.6135330  96.9516020 139.0625020  79.4832760
  90.1865750 124.6567930  73.1792130  90.0580380 124.6485830  74.1277050
  89.3627770 124.9951020  72.8283140  97.8618660 137.8268970  78.6539360
  98.5040890 137.1262130  78.7671530  98.3868010 138.6067410  78.4736250
 101.7074380 138.1117590  68.3778500 101.4811960 137.3948030  68.9703140
 101.3170580 137.8630030  67.5400250  87.4890410 142.1384450  69.1522960
  87.8488050 142.7373790  68.4980230  87.3482750 142.6844340  69.9257990
  87.1859680 126.4159050  82.6398830  86.4718200 126.6155970  83.2451440
  87.6054720 125.6398620  83.0113630 101.2890630 136.0289530  70.0392660
 101.0012330 136.4902220  70.8270540 102.0842800 135.5687300  70.3076880
  93.5059030 139.5215650  69.9696630  93.4969130 140.2545340  69.3541140
  92.5857390 139.2747230  70.0623590 102.0460490 127.8638300  71.1987840
 101.4173650 127.9683970  70.4846070 101.5512410 128.0835080  71.9881720
  96.4918630 139.5843890  68.6321820  96.5930610 139.3807880  67.7023800
  95.5920370 139.3302170  68.8369600  94.0144520 130.1424250  72.6145720
  93.3060670 130.6110590  73.0559330  94.2989000 129.4846260  73.2490910
  95.6400450 131.5620950  80.6138250  96.1385700 132.0366770  81.2790100
  95.7823400 130.6384470  80.8208280  98.0459950 126.8674910  74.0541510
  97.9227730 126.8861040  73.1051020  98.9944510 126.9153850  74.1739910
  95.1336740 142.1030210  73.3269490  95.3878240 142.0651600  72.4048860
  94.1849220 141.9763540  73.3197740  92.2179540 128.4509330  69.9896430
  93.0670070 128.8879480  69.9236620  91.8510810 128.7629590  70.8168490
 101.1389320 133.0222090  74.9028000 100.1979460 133.0372320  75.0775690
 101.4533390 132.2358050  75.3488300  91.1170960 134.7041690  68.4631960
  91.8834230 134.5923050  69.0257390  91.1945650 134.0079660  67.8108730
  89.8117720 132.1366760  69.1464850  89.8921310 131.1894270  69.2582250
  90.7037470 132.4673640  69.2525510 103.1414900 140.1930940  76.5782260
 103.2662320 141.0162110  77.0506070 104.0080460 139.9821670  76.2306410
  90.6132430 142.2862150  76.2499390  91.3494910 141.7377610  76.5207960
  90.9973350 143.1518160  76.1105380  89.6190710 141.4708220  85.4384970
  90.4203440 141.7920270  85.8520370  89.1042530 141.1103800  86.1604880
  93.7234740 141.4592460  68.0724960  94.5163350 141.7481290  67.6206750
  93.2039090 141.0284630  67.3937440  99.8855710 141.3068380  83.9969790
 100.8377460 141.2226400  83.9470030  99.7383930 141.9710090  84.6703580
 102.7764910 140.6862590  69.4961700 102.4906420 140.2727730  68.6815880
 102.5784460 141.6150300  69.3762220  87.3388520 133.9581680  84.3821020
  87.8427540 133.3788960  84.9537250  86.5995940 134.2421910  84.9197390
  94.2412140 136.6795870  67.9367310  94.1362780 136.0648220  68.6628690
  94.0736360 136.1561760  67.1530320  97.4814870 135.7415900  68.5409300
  96.9324970 136.1885200  69.1852040  98.1034130 135.2365150  69.0646970
  89.3711600 132.1011270  85.2771090  89.4116940 131.8025140  86.1856320
  90.2257100 132.5018880  85.1178610  93.1489990 134.7006820  70.4374600
  93.5706410 134.5346690  71.2805990  93.2740830 133.8907050  69.9429740
  91.3117410 130.6803370  83.2445580  90.7813870 130.1894320  82.6168920
  91.9805480 131.1087570  82.7103510  95.6617630 133.7244430  67.6851700
  96.1823290 133.0093450  67.3192850  96.3086030 134.3630300  67.9852210
  91.7989710 127.6465740  83.3242870  91.7046580 127.0286490  82.5993740
  91.2187100 128.3732030  83.0972780  92.0448890 130.7740050  67.3832760
  91.8437950 129.9107410  67.7446100  91.8740940 130.6873410  66.4454360
  92.8218120 141.4046320  82.0940430  92.2839210 142.1292380  81.7749130
  93.0752080 140.9276660  81.3037770  99.5237200 125.5848280  69.9119640
  99.8039490 124.7416180  70.2679060  98.7502930 125.8171390  70.4258390
  90.8431690 127.8740670  67.3710640  91.1457590 127.8808100  66.4629790
  91.5826280 127.5238530  67.8678300  95.6780330 142.6397530  82.3527080
  95.6039030 143.5432670  82.6599450  94.7759170 142.3209430  82.3249150
  94.0616620 126.8175290  68.3566840  93.7138620 126.1399280  67.7769290
  94.2629390 126.3564800  69.1710230  96.2265660 141.8056040  69.9753440
  97.1216450 142.1441010  69.9972200  96.2583290 141.0835450  69.3477720
  87.0807620 139.9672120  75.6560700  87.4110630 139.0993180  75.4239340
  87.5098620 140.1730640  76.4865660  91.6769540 138.2981130  73.3162670
  91.3765080 138.1746100  74.2166580  91.5707030 137.4389720  72.9078400
  87.5697830 140.8342710  78.3942330  87.1328820 141.0143510  79.2266480
  88.1375510 141.5917330  78.2524050 103.2060010 140.3359710  82.6819640
 102.6062000 140.3952270  81.9383560 103.3353910 139.3964690  82.8116490
 104.4461460 138.0777530  68.0189350 103.6154420 138.1454180  68.4896580
 104.6233290 138.9681650  67.7156210 103.9017920 134.8225010  70.5223550
 104.6636830 135.3921660  70.6283240 103.9172290 134.2552210  71.2931860
  87.4022260 133.3462940  74.7531210  86.7471100 133.0774580  74.1090910
  88.2400210 133.2367420  74.3033190 104.9077890 135.6775110  75.3665480
 105.2786720 134.8942430  74.9601450 105.5479820 136.3664210  75.1882780
 101.8911650 137.0611690  80.7795800 101.0771490 137.4908850  81.0421590
 102.2985850 137.6730100  80.1664850 103.9537090 135.1159380  67.6796070
 104.2285930 136.0238260  67.5515290 103.7647830 135.0521910  68.6158060
 100.3512700 128.1404230  68.9749700 100.7697580 127.9535210  68.1346360
 100.0448760 127.2883280  69.2852630 103.8502430 133.0528370  72.6725500
 103.4746030 132.2856300  72.2406790 103.1205550 133.4351070  73.1600430
  88.4398190 133.7315510  79.2934550  88.8071230 133.6442910  80.1730570
  87.8709010 132.9682060  79.1941410 103.2402050 132.1999890  82.3065020
 103.0088140 131.9712640  81.4062970 103.5006600 133.1199440  82.2609910
  87.9914190 130.6424600  83.1992970  87.0970240 130.6091360  83.5386680
  88.5311740 130.8411390  83.9644220  86.6160340 130.5561870  70.6956540
  85.7124420 130.8192070  70.5208200  87.1000960 130.8273040  69.9156500
 103.1253390 131.2785860  75.9732740 103.6490870 130.7848510  75.3422910
 103.7112810 131.4136220  76.7180310 103.3043110 131.3625730  79.4952290
 102.3545820 131.3289270  79.6097280 103.4856120 132.2725840  79.2602060
  89.1587550 129.6127410  68.6050920  89.8679250 129.1910630  68.1198200
  88.4427490 129.6802640  67.9734270  88.8061710 125.6666740  67.6453570
  89.5289840 126.2075680  67.9634790  89.0786230 125.3930160  66.7695110
 102.6153360 130.5359210  71.9125150 103.1112480 130.3030080  72.6974030
 102.4169430 129.6971050  71.4962790  88.4953900 124.9172930  77.5476190
  89.1430090 124.3670310  77.1071350  88.9155740 125.1716080  78.3692000
 104.0440520 129.1720160  74.4462830 103.9339800 129.0176200  75.3845100
 104.8048110 128.6441100  74.2038240 104.9330790 127.0028080  67.6868970
 105.8580100 126.8709260  67.4787260 104.9106580 127.0820900  68.6405420
 105.0069280 127.7738740  70.3125680 104.2120780 127.7083860  70.8418590
 105.2112560 128.7089380  70.3011030 101.9487700 141.8130290  74.3064070
 102.5446770 141.4914860  73.6298490 102.2065850 141.3402110  75.0977340
  88.2485900 125.0728600  80.2901510  87.9000720 125.5292420  81.0559690
  87.9173600 124.1785730  80.3723940  89.8550270 138.2448200  84.4554700
  89.8119900 137.8741110  85.3369160  89.9861280 139.1825770  84.5956520
  93.5556300 139.8007790  80.0564420  93.3147660 140.0682350  79.1694940
  94.4958940 139.9713520  80.1115280 104.8160460 141.8202170  80.8575060
 104.3218740 142.2171040  80.1402190 104.2073750 141.1951380  81.2512340
  88.9206540 124.6004800  83.5652280  89.4689530 124.4192850  82.8018390
  88.9861850 123.8098910  84.1008590  89.6938300 141.1910450  81.5752480
  89.0998620 141.0595150  82.3142520  89.6862140 140.3548590  81.1094580
 102.4999910 142.4625590  78.1361800 102.0402880 143.2141400  77.7619820
 101.8712370 141.7432060  78.0776600  89.3250530 138.5568830  80.5260520
  88.5984590 137.9374120  80.4586470  89.3859680 138.9509440  79.6558600
  92.9295630 140.7713830  77.3109930  93.4460650 140.1601190  76.7858190
  93.5793010 141.2742610  77.8020940  95.6691130 141.6622320  78.1378910
  95.9568940 141.4076620  77.2611920  96.1814350 141.1099680  78.7284480
 103.3027780 125.7350860  74.7733330 103.2416180 124.7912080  74.6264350
 104.0819810 125.8430950  75.3186790  87.6080530 141.8743220  73.7357280
  87.4402570 141.2413900  74.4339170  86.7415040 142.0802620  73.3851470
  88.2308550 125.7060000  71.2389140  88.9887910 125.8188880  70.6653170
  87.7685720 126.5429200  71.1932570  94.7722360 127.8199270  74.2291450
  93.9596870 127.4456160  73.8887330  95.2764000 127.0644350  74.5312640
  99.2747340 124.4841720  75.4674520  99.8776710 125.0561930  75.9423040
  98.5340330 125.0481160  75.2448420 102.4181940 124.8863280  70.7414800
 102.6132570 125.7846730  71.0082230 101.6311810 124.6550360  71.2347750
  89.2143230 140.5676450  71.1807420  88.6890850 140.9484480  70.4769380
  89.1387810 141.1927220  71.9017130  90.6033700 126.2324050  69.7791110
  91.1326460 125.4453850  69.6499060  91.2362020 126.9115240  70.0126640
  92.7971540 125.9699190  72.8336500  92.1674280 125.2686500  73.0006630
  92.2576680 126.7303320  72.6169660  95.7363490 142.5838420  85.5047110
  96.6630800 142.3482690  85.5483070  95.7213920 143.4110420  85.0233140
 103.9708550 142.1263990  72.5021360 104.1460740 141.4401730  71.8582280
 103.2730120 142.6511040  72.1098030  91.8136200 142.5158830  70.0556670
  92.5455020 142.2318110  69.5080560  92.0729870 142.2772110  70.9456050
 102.3041050 141.8108280  85.3288150 103.0966370 141.3157510  85.1214110
 102.5974200 142.4898420  85.9363760  98.4300710 132.6829220  56.2104200
  98.3494760 131.7683830  55.9395910  98.0165130 133.1796290  55.5043910
 100.5826180 138.8668430  56.8712600 100.1207710 138.0955670  57.1999770
 101.3951730 138.8934500  57.3765050  90.5585840 138.8068140  59.1647250
  90.8613880 137.9165880  58.9857470  91.3029430 139.3638360  58.9369500
  88.9876530 129.7329940  52.7531620  88.0993230 130.0745910  52.6511500
  89.2717720 129.5330260  51.8612450  86.9509540 132.3335590  58.6371320
  87.5225650 131.5657790  58.6374960  86.9511080 132.6324350  57.7277930
  96.8089490 141.1526440  56.4916590  96.1900930 141.6083940  55.9211030
  97.6641270 141.3077900  56.0906290  96.0027740 137.1365430  58.0983630
  95.9336020 136.1955370  57.9372760  96.7647600 137.2266840  58.6706200
  88.1934410 127.7419950  60.4240250  88.0137250 126.8445700  60.7043010
  87.7914490 128.2891820  61.0987200  97.0332910 129.9435810  58.3252560
  97.4097730 129.0707690  58.2126230  96.9352420 130.2794510  57.4343000
  91.1637920 128.3161440  53.7870000  91.2704670 129.2165170  54.0938760
  90.2530280 128.2679410  53.4964650  88.8121080 130.2380450  59.0322590
  89.4931190 130.5018820  59.6509990  88.4969130 129.3981320  59.3660600
  97.6752840 136.0365680  53.8848500  97.0570110 136.5015130  53.3211220
  98.1876090 136.7293160  54.3018010 101.0518510 129.3786630  58.0308440
 100.3474080 129.6671520  58.6111550 101.4130670 130.1886740  57.6708000
  90.9697080 127.6356330  60.3929050  91.3113890 128.4798380  60.0982920
  90.0312890 127.7840070  60.5094390  87.0436040 136.7222210  51.2588130
  86.6664020 137.2109310  50.5273030  87.3009110 137.3947490  51.8894660
 102.6681290 138.9961760  60.2935920 101.9844810 139.6660870  60.2852590
 103.2075580 139.1942410  59.5280780  94.6524970 125.1238600  56.7173640
  94.9599950 124.5685490  56.0009140  93.7225670 125.2583060  56.5346630
 100.2040030 140.8405890  59.0081100 100.2167190 140.4368180  58.1403360
  99.6515250 141.6153180  58.9042530 101.4985450 137.5622110  54.0971270
 101.3881780 136.6196440  54.2220690 101.4953700 137.9237750  54.9834030
  99.6025470 135.7435730  60.3363710 100.0194260 135.5295840  59.5017170
 100.3265290 136.0008520  60.9072330  97.0405730 133.1887430  53.4533760
  96.1135010 133.1224810  53.6822230  97.1930550 134.1267560  53.3389000
 103.5487570 134.1422950  60.4279950 102.7206200 134.2116040  59.9530080
 104.1438050 134.7277260  59.9595780 101.0703020 134.7507730  53.9569010
 100.4515440 134.4127280  53.3095310 101.0527470 134.1067490  54.6648200
 100.5129580 130.9292270  61.3734820 100.1000760 131.7545980  61.6274810
  99.7805530 130.3437310  61.1811180  92.6462370 133.7152170  56.2353490
  92.2419370 133.0029420  55.7399390  92.7325490 133.3705410  57.1241530
  93.1144070 137.4019730  58.3992700  92.8172360 136.7965200  57.7200480
  94.0643890 137.4397040  58.2882060 101.2029680 140.9751600  62.0615800
 100.7260240 141.7823790  61.8688410 100.5191470 140.3229930  62.2142010
  99.2467720 133.9894540  50.9641760  99.6861000 133.1516970  50.8179580
  99.9596140 134.6223940  51.0505900  91.0333720 134.0114740  63.6257870
  90.8941490 134.8837540  63.9945270  90.1515080 133.6687550  63.4805810
  97.3563100 138.9290610  54.9323000  97.7959010 139.6714940  54.5178390
  97.2949990 139.1717180  55.8561960  89.3467000 132.6097150  53.7360140
  89.2264600 133.3359240  53.1241410  89.0367890 131.8400060  53.2588050
 104.7828890 140.7363540  67.1307190 105.2588610 141.2146430  67.8096270
 105.4036050 140.6681030  66.4052690  86.9852370 135.7812290  59.5428780
  87.0632790 135.9161060  58.5984500  87.5994050 135.0728180  59.7356900
  88.2300000 137.4812480  55.9534960  87.8228080 137.6227070  55.0988560
  89.1213010 137.1972640  55.7506170 104.1862140 137.9276390  64.2907200
 104.3125200 137.6888270  63.3724380 104.2283520 137.0960930  64.7629280
  98.0478880 141.6304390  62.8602010  98.5623550 141.5412400  63.6624440
  97.2047960 141.9764090  63.1529920 100.0233280 141.9159730  52.2886010
  99.8634420 141.6262670  53.1867840  99.8579990 141.1399860  51.7531240
  92.5021660 141.6958260  54.0657630  92.3264140 140.7793800  53.8525430
  91.6477400 142.0545550  54.3055430  99.7259410 139.4247290  50.8484010
  99.0324570 139.4224580  50.1886290 100.4682270 139.0006610  50.4178180
  99.2909340 141.0510000  54.9232500  99.7466290 140.2699380  55.2371120
  99.6301860 141.7616820  55.4673680 104.0386150 129.9808850  65.2556940
 103.4230420 130.4888520  64.7272400 103.7182570 129.0807180  65.1982880
  91.8130660 125.9532220  57.1183810  91.3698810 126.7341760  56.7868330
  92.3715650 126.2762110  57.8254750 101.1004980 130.0409690  63.8515790
 100.2498570 129.7415440  64.1724860 100.9406770 130.2851700  62.9399610
  91.6044880 131.0765790  54.8465060  91.3785800 130.8602960  55.7511680
  90.8237410 131.5094250  54.5011030  98.8342640 131.0829160  53.4455710
  98.2351530 131.8064960  53.2619330  99.3822250 131.0205940  52.6632160
  97.4407510 129.7192700  55.4758990  97.8337080 130.0364900  54.6627680
  97.8024360 128.8404580  55.5903510  89.1754630 128.3865040  63.6659110
  88.7818020 129.2340250  63.8731890  88.4873030 127.7491410  63.8567750
  95.7499680 128.4700010  66.7355850  95.0598000 128.2772210  67.3701940
  96.4931980 128.7534650  67.2680150  86.4771680 126.3093500  57.6989190
  86.1884730 126.8796360  58.4114170  87.2217440 125.8297950  58.0620420
  86.6641910 130.2513620  48.9091910  86.5816580 131.1944380  49.0506900
  86.3124970 130.1088530  48.0304260  98.0262650 132.3098450  59.5709770
  97.2943770 132.8185260  59.9199870  97.6286990 131.4928430  59.2698550
  94.4640040 128.9852650  57.9762260  94.4676100 128.5442600  57.1266800
  95.3591160 129.3069980  58.0834080  90.3142420 128.8679140  56.9356470
  89.9742470 129.3454370  57.6923520  89.5519740 128.4144260  56.5757570
  98.4888560 127.7632130  58.9832710  98.5061300 128.2140780  59.8274560
  98.2404140 126.8637770  59.1966150  93.5381690 132.2965870  50.3652320
  92.9698590 131.8484120  49.7388230  94.2470690 132.6558650  49.8317470
 101.9159310 125.1764310  64.8219090 102.2405080 124.4453970  65.3477070
 101.9515820 124.8577950  63.9200080  87.6288500 127.7898120  55.8521140
  87.3435420 127.4253790  56.6899760  87.5667360 127.0578580  55.2384280
  91.0829170 136.2924060  52.6378730  90.3091430 135.7521680  52.4777450
  91.8123800 135.7730670  52.2996490 101.8417150 135.2889420  58.4305120
 102.5616270 135.7844710  58.0401230 101.6398970 134.6107310  57.7858990
 100.0175480 131.0547030  50.8696670 100.9055100 131.3664260  50.6948010
  99.9880570 130.1819280  50.4777250  91.1266570 135.9604440  56.2757540
  91.6445240 135.1572700  56.2214430  90.6750590 135.8983580  57.1174370
  96.0136070 137.2270720  51.5484840  96.3551770 137.9712950  51.0528160
  95.1848780 137.5401840  51.9109670  88.6111110 132.9265810  63.1883240
  88.2526050 133.5919660  63.7756580  88.3165670 132.0949360  63.5595860
  91.8124230 133.3850050  66.0722790  91.5124370 133.5307230  65.1750610
  92.5835470 132.8255340  65.9796180  97.1552680 138.1819050  64.0677920
  97.1697220 137.2500010  63.8496830  96.4477780 138.2678810  64.7067690
 102.2889750 132.3658870  50.3376530 102.2053470 132.7973090  49.4872970
 103.0083940 132.8257220  50.7703350 103.3663890 134.8226390  63.4146500
 102.6412080 135.4155170  63.2175890 103.8939350 134.8149930  62.6159870
 103.3177000 139.2201130  53.0658660 102.6753160 138.5656750  53.3402380
 102.9307660 139.6256220  52.2899330  98.8963480 136.5486560  56.9130350
  99.2487300 135.9514690  56.2531720  98.0125810 136.2230790  57.0838600
  94.9826760 137.3084250  54.3200760  95.6697890 137.8553460  54.7008350
  94.1959180 137.8524980  54.3550370  87.1219160 132.9257070  49.8117840
  87.9914010 133.2081870  50.0953760  86.6309480 133.7392940  49.6966650
  94.2853970 134.3130280  53.9326120  94.7416750 135.1235530  54.1586310
  93.9342180 133.9953420  54.7644610  96.5886580 139.8236620  61.1618420
  97.2328800 140.0296000  61.8391840  96.9516020 139.0625020  60.7089270
  90.1865750 124.6567930  54.4048640  90.0580380 124.6485830  55.3533560
  89.3627770 124.9951020  54.0539650  97.8618660 137.8268970  59.8795870
  98.5040890 137.1262130  59.9928040  98.3868010 138.6067410  59.6992760
 101.7074380 138.1117590  49.6035010 101.4811960 137.3948030  50.1959650
 101.3170580 137.8630030  48.7656760  99.6356280 138.6263870  63.0831930
  99.9712520 139.2130560  63.7609850  98.7156620 138.4956580  63.3129720
  87.4890410 142.1384450  50.3779470  87.8488050 142.7373790  49.7236740
  87.3482750 142.6844340  51.1514500  87.1859680 126.4159050  63.8655340
  86.4718200 126.6155970  64.4707950  87.6054720 125.6398620  64.2370140
 101.2890630 136.0289530  51.2649170 101.0012330 136.4902220  52.0527050
 102.0842800 135.5687300  51.5333390  95.4644860 138.6755200  66.2519990
  95.1441730 137.9564440  66.7965680  94.7903220 139.3510270  66.3256050
  93.5059030 139.5215650  51.1953140  93.4969130 140.2545340  50.5797650
  92.5857390 139.2747230  51.2880100  89.1065670 134.7430540  51.9399900
  88.4993620 135.4829440  51.9495200  89.5815020 134.8329900  51.1138100
  98.6798460 128.9081360  61.6156790  99.0479280 128.0876570  61.9436360
  97.8196660 128.9683250  62.0312440  96.4918630 139.5843890  49.8578330
  96.5930610 139.3807880  48.9280310  95.5920370 139.3302170  50.0626110
  95.1336740 142.1030210  54.5526000  95.3878240 142.0651600  53.6305370
  94.1849220 141.9763540  54.5454250 102.8467310 127.7788910  62.6823150
 102.3440910 128.5194310  63.0216960 103.6623970 128.1672910  62.3659940
 101.1389320 133.0222090  56.1284510 100.1979460 133.0372320  56.3032200
 101.4533390 132.2358050  56.5744810  91.1170960 134.7041690  49.6888470
  91.8834230 134.5923050  50.2513900  91.1945650 134.0079660  49.0365240
  89.8117720 132.1366760  50.3721360  89.8921310 131.1894270  50.4838760
  90.7037470 132.4673640  50.4782020 103.1414900 140.1930940  57.8038770
 103.2662320 141.0162110  58.2762580 104.0080460 139.9821670  57.4562920
  90.6132430 142.2862150  57.4755900  91.3494910 141.7377610  57.7464470
  90.9973350 143.1518160  57.3361890  87.4977910 138.3535720  53.3497410
  86.5717690 138.5956860  53.3402820  87.9634340 139.1809980  53.2282160
  93.7234740 141.4592460  49.2981470  94.5163350 141.7481290  48.8463260
  93.2039090 141.0284630  48.6193950  98.4555340 137.5788090  66.6116890
  97.8493500 137.6019690  65.8712640  98.1509450 136.8471130  67.1484140
  99.8855710 141.3068380  65.2226300 100.8377460 141.2226400  65.1726540
  99.7383930 141.9710090  65.8960090 102.7764910 140.6862590  50.7218210
 102.4906420 140.2727730  49.9072390 102.5784460 141.6150300  50.6018730
  87.3388520 133.9581680  65.6077530  87.8427540 133.3788960  66.1793760
  86.5995940 134.2421910  66.1453900  94.2412140 136.6795870  49.1623820
  94.1362780 136.0648220  49.8885200  94.0736360 136.1561760  48.3786830
  97.4814870 135.7415900  49.7665810  96.9324970 136.1885200  50.4108550
  98.1034130 135.2365150  50.2903480 101.5349810 137.0958000  65.6988070
 102.2759280 137.4333760  65.1955530 100.7722490 137.2650060  65.1457840
  89.3711600 132.1011270  66.5027600  89.4116940 131.8025140  67.4112830
  90.2257100 132.5018880  66.3435120  93.1489990 134.7006820  51.6631110
  93.5706410 134.5346690  52.5062500  93.2740830 133.8907050  51.1686250
  91.3117410 130.6803370  64.4702090  90.7813870 130.1894320  63.8425430
  91.9805480 131.1087570  63.9360020  95.6617630 133.7244430  48.9108210
  96.1823290 133.0093450  48.5449360  96.3086030 134.3630300  49.2108720
 100.2095470 135.1472830  64.2343280 100.6236490 135.3017910  65.0833700
  99.2746470 135.2728050  64.3969060 100.6817640 132.4868990  66.2382430
 101.2638410 131.7321310  66.1502910 100.8579410 133.0176430  65.4613910
  91.7989710 127.6465740  64.5499380  91.7046580 127.0286490  63.8250250
  91.2187100 128.3732030  64.3229290  92.0448890 130.7740050  48.6089270
  91.8437950 129.9107410  48.9702610  91.8740940 130.6873410  47.6710870
  92.8218120 141.4046320  63.3196940  92.2839210 142.1292380  63.0005640
  93.0752080 140.9276660  62.5294280  98.8936800 128.9896650  65.0785890
  98.2052320 128.3278190  65.0135880  99.6142820 128.5434920  65.5234350
  90.8431690 127.8740670  48.5967150  91.1457590 127.8808100  47.6886300
  91.5826280 127.5238530  49.0934810  95.6780330 142.6397530  63.5783590
  95.6039030 143.5432670  63.8855960  94.7759170 142.3209430  63.5505660
  96.2265660 141.8056040  51.2009950  97.1216450 142.1441010  51.2228710
  96.2583290 141.0835450  50.5734230  89.8661820 137.1783090  49.4296950
  90.3036690 137.7212760  50.0854530  90.3509550 136.3530040  49.4393290
  87.0807620 139.9672120  56.8817210  87.4110630 139.0993180  56.6495850
  87.5098620 140.1730640  57.7122170  91.6769540 138.2981130  54.5419180
  91.3765080 138.1746100  55.4423090  91.5707030 137.4389720  54.1334910
  87.5697830 140.8342710  59.6198840  87.1328820 141.0143510  60.4522990
  88.1375510 141.5917330  59.4780560 103.2060010 140.3359710  63.9076150
 102.6062000 140.3952270  63.1640070 103.3353910 139.3964690  64.0373000
 104.4461460 138.0777530  49.2445860 103.6154420 138.1454180  49.7153090
 104.6233290 138.9681650  48.9412720 103.9017920 134.8225010  51.7480060
 104.6636830 135.3921660  51.8539750 103.9172290 134.2552210  52.5188370
  87.4022260 133.3462940  55.9787720  86.7471100 133.0774580  55.3347420
  88.2400210 133.2367420  55.5289700 104.9077890 135.6775110  56.5921990
 105.2786720 134.8942430  56.1857960 105.5479820 136.3664210  56.4139290
 101.8911650 137.0611690  62.0052310 101.0771490 137.4908850  62.2678100
 102.2985850 137.6730100  61.3921360 103.9537090 135.1159380  48.9052580
 104.2285930 136.0238260  48.7771800 103.7647830 135.0521910  49.8414570
 103.8502430 133.0528370  53.8982010 103.4746030 132.2856300  53.4663300
 103.1205550 133.4351070  54.3856940  88.4398190 133.7315510  60.5191060
  88.8071230 133.6442910  61.3987080  87.8709010 132.9682060  60.4197920
 103.2402050 132.1999890  63.5321530 103.0088140 131.9712640  62.6319480
 103.5006600 133.1199440  63.4866420  87.9914190 130.6424600  64.4249480
  87.0970240 130.6091360  64.7643190  88.5311740 130.8411390  65.1900730
 101.6790120 127.4256320  66.3101230 102.5560300 127.4339720  66.6935230
 101.6910960 126.6887160  65.6993580  86.6160340 130.5561870  51.9213050
  85.7124420 130.8192070  51.7464710  87.1000960 130.8273040  51.1413010
 103.1253390 131.2785860  57.1989250 103.6490870 130.7848510  56.5679420
 103.7112810 131.4136220  57.9436820 103.3043110 131.3625730  60.7208800
 102.3545820 131.3289270  60.8353790 103.4856120 132.2725840  60.4858570
  89.1587550 129.6127410  49.8307430  89.8679250 129.1910630  49.3454710
  88.4427490 129.6802640  49.1990780 102.6153360 130.5359210  53.1381660
 103.1112480 130.3030080  53.9230540 102.4169430 129.6971050  52.7219300
  88.4953900 124.9172930  58.7732700  89.1430090 124.3670310  58.3327860
  88.9155740 125.1716080  59.5948510 102.3906240 125.1114290  62.1302340
 103.0278460 125.7248430  62.4961530 102.5381130 125.1474950  61.1851570
 104.9330790 127.0028080  48.9125480 105.8580100 126.8709260  48.7043770
 104.9106580 127.0820900  49.8661930 105.0069280 127.7738740  51.5382190
 104.2120780 127.7083860  52.0675100 105.2112560 128.7089380  51.5267540
 101.9487700 141.8130290  55.5320580 102.5446770 141.4914860  54.8555000
 102.2065850 141.3402110  56.3233850  88.2485900 125.0728600  61.5158020
  87.9000720 125.5292420  62.2816200  87.9173600 124.1785730  61.5980450
  93.5556300 139.8007790  61.2820930  93.3147660 140.0682350  60.3951450
  94.4958940 139.9713520  61.3371790  95.7610720 126.2640480  65.0377440
  95.6999610 126.8562310  65.7872850  96.7011100 126.1566440  64.8927700
  98.3985280 125.9210540  64.6769730  99.0125690 126.2389830  64.0150810
  98.9434840 125.4359130  65.2965590 104.8160460 141.8202170  62.0831570
 104.3218740 142.2171040  61.3658700 104.2073750 141.1951380  62.4768850
  88.9206540 124.6004800  64.7908790  89.4689530 124.4192850  64.0274900
  88.9861850 123.8098910  65.3265100  99.1393320 124.4842680  61.0039020
  98.2653160 124.8177790  60.8011950  99.0304070 124.0115860  61.8290890
 100.0465300 126.6913550  62.3880740  99.7178660 125.8765310  62.0082470
 100.9947600 126.6483360  62.2646430 102.4999910 142.4625590  59.3618310
 102.0402880 143.2141400  58.9876330 101.8712370 141.7432060  59.3033110
  92.9295630 140.7713830  58.5366440  93.4460650 140.1601190  58.0114700
  93.5793010 141.2742610  59.0277450  95.6691130 141.6622320  59.3635420
  95.9568940 141.4076620  58.4868430  96.1814350 141.1099680  59.9540990
  96.8868140 125.4012520  59.9431930  96.1039930 125.8758020  60.2228690
  96.5931070 124.4967350  59.8345110 101.4389210 126.1035620  57.9881020
 101.8797300 126.0480720  57.1402620 101.1696800 127.0193630  58.0591200
  87.6080530 141.8743220  54.9613790  87.4402570 141.2413900  55.6595680
  86.7415040 142.0802620  54.6107980  89.2143230 140.5676450  52.4063930
  88.6890850 140.9484480  51.7025890  89.1387810 141.1927220  53.1273640
  95.7363490 142.5838420  66.7303620  96.6630800 142.3482690  66.7739580
  95.7213920 143.4110420  66.2489650 103.9708550 142.1263990  53.7277870
 104.1460740 141.4401730  53.0838790 103.2730120 142.6511040  53.3354540
  91.8136200 142.5158830  51.2813180  92.5455020 142.2318110  50.7337070
  92.0729870 142.2772110  52.1712560  90.9750990 138.6323560  51.2859510
  90.3459870 139.1008660  51.8345340  91.0898820 137.7872780  51.7205700
  99.5242560 124.6636750  67.0725970  99.4108010 124.9831360  67.9677490
 100.3412300 125.0649260  66.7763250 102.3041050 141.8108280  66.5544660
 103.0966370 141.3157510  66.3470620 102.5974200 142.4898420  67.1620270
  98.4300710 132.6829220  37.4360710  98.3494760 131.7683830  37.1652420
  98.0165130 133.1796290  36.7300420  96.5618750 134.4608240  39.3169980
  95.7860850 133.9808680  39.6068550  97.2131680 133.7813890  39.1426140
  90.5784580 134.7728050  40.1945740  89.7469460 134.5176760  40.5942250
  91.1865560 134.8438820  40.9303660 100.5826180 138.8668430  38.0969110
 100.1207710 138.0955670  38.4256280 101.3951730 138.8934500  38.6021560
  90.5585840 138.8068140  40.3903760  90.8613880 137.9165880  40.2113980
  91.3029430 139.3638360  40.1626010  88.9876530 129.7329940  33.9788130
  88.0993230 130.0745910  33.8768010  89.2717720 129.5330260  33.0868960
  86.9509540 132.3335590  39.8627830  87.5225650 131.5657790  39.8631470
  86.9511080 132.6324350  38.9534440  96.8089490 141.1526440  37.7173100
  96.1900930 141.6083940  37.1467540  97.6641270 141.3077900  37.3162800
  96.0027740 137.1365430  39.3240140  95.9336020 136.1955370  39.1629270
  96.7647600 137.2266840  39.8962710  88.1934410 127.7419950  41.6496760
  88.0137250 126.8445700  41.9299520  87.7914490 128.2891820  42.3243710
  97.0332910 129.9435810  39.5509070  97.4097730 129.0707690  39.4382740
  96.9352420 130.2794510  38.6599510  91.1637920 128.3161440  35.0126510
  91.2704670 129.2165170  35.3195270  90.2530280 128.2679410  34.7221160
 100.8157030 127.4386250  36.4837410 101.6366650 126.9482820  36.5262890
 100.8491110 128.0283910  37.2369250  88.8121080 130.2380450  40.2579100
  89.4931190 130.5018820  40.8766500  88.4969130 129.3981320  40.5917110
  93.0045650 131.2847810  39.3451690  93.5123870 131.7828780  39.9856710
  93.5358890 130.5083010  39.1691050 105.1056580 129.4553000  43.0481040
 104.4008750 129.8434710  42.5296150 105.3714500 130.1503290  43.6501970
  97.6752840 136.0365680  35.1105010  97.0570110 136.5015130  34.5467730
  98.1876090 136.7293160  35.5274520  92.5384600 135.5641550  41.7888610
  92.2053980 136.1910470  42.4309680  92.7151280 136.0903430  41.0090280
 101.0518510 129.3786630  39.2564950 100.3474080 129.6671520  39.8368060
 101.4130670 130.1886740  38.8964510  91.7503700 137.5322350  43.6037790
  92.3677700 138.2073430  43.3222240  90.8896820 137.9410330  43.5125290
  87.0436040 136.7222210  32.4844640  86.6664020 137.2109310  31.7529540
  87.3009110 137.3947490  33.1151170 102.6681290 138.9961760  41.5192430
 101.9844810 139.6660870  41.5109100 103.2075580 139.1942410  40.7537290
 104.1205430 128.8241420  39.6474160 103.1730340 128.8580400  39.7789590
 104.4455420 129.6380370  40.0323520  94.6524970 125.1238600  37.9430150
  94.9599950 124.5685490  37.2265650  93.7225670 125.2583060  37.7603140
 100.2040030 140.8405890  40.2337610 100.2167190 140.4368180  39.3659870
  99.6515250 141.6153180  40.1299040 101.4985450 137.5622110  35.3227780
 101.3881780 136.6196440  35.4477200 101.4953700 137.9237750  36.2090540
  99.6025470 135.7435730  41.5620220 100.0194260 135.5295840  40.7273680
 100.3265290 136.0008520  42.1328840  97.0405730 133.1887430  34.6790270
  96.1135010 133.1224810  34.9078740  97.1930550 134.1267560  34.5645510
  97.0274810 129.4604430  31.6757430  96.0878480 129.6218390  31.7609890
  97.3458070 130.1790110  31.1293420 103.5487570 134.1422950  41.6536460
 102.7206200 134.2116040  41.1786590 104.1438050 134.7277260  41.1852290
 101.0703020 134.7507730  35.1825520 100.4515440 134.4127280  34.5351820
 101.0527470 134.1067490  35.8904710 100.5129580 130.9292270  42.5991330
 100.1000760 131.7545980  42.8531320  99.7805530 130.3437310  42.4067690
  92.6462370 133.7152170  37.4610000  92.2419370 133.0029420  36.9655900
  92.7325490 133.3705410  38.3498040  93.1144070 137.4019730  39.6249210
  92.8172360 136.7965200  38.9456990  94.0643890 137.4397040  39.5138570
  91.3590990 130.4895380  41.2409040  91.9105580 130.5990720  40.4662290
  91.8734500 130.8632980  41.9564270 101.2029680 140.9751600  43.2872310
 100.7260240 141.7823790  43.0944920 100.5191470 140.3229930  43.4398520
  92.2062500 137.1401420  46.2757010  91.3091030 137.3641390  46.5230410
  92.2315370 137.2636360  45.3268410  99.2467720 133.9894540  32.1898270
  99.6861000 133.1516970  32.0436090  99.9596140 134.6223940  32.2762410
  91.0333720 134.0114740  44.8514380  90.8941490 134.8837540  45.2201780
  90.1515080 133.6687550  44.7062320  97.3563100 138.9290610  36.1579510
  97.7959010 139.6714940  35.7434900  97.2949990 139.1717180  37.0818470
  92.8314070 139.9536440  47.0599530  92.8029500 140.3579390  46.1927960
  92.6679040 139.0246800  46.8971130 102.8284860 125.2437350  30.5039310
 102.5157520 125.3364180  31.4038380 103.5897330 125.8218380  30.4536740
  89.3467000 132.6097150  34.9616650  89.2264600 133.3359240  34.3497920
  89.0367890 131.8400060  34.4844560 104.7828890 140.7363540  48.3563700
 105.2588610 141.2146430  49.0352780 105.4036050 140.6681030  47.6309200
  86.9852370 135.7812290  40.7685290  87.0632790 135.9161060  39.8241010
  87.5994050 135.0728180  40.9613410  88.2300000 137.4812480  37.1791470
  87.8228080 137.6227070  36.3245070  89.1213010 137.1972640  36.9762680
 104.1862140 137.9276390  45.5163710 104.3125200 137.6888270  44.5980890
 104.2283520 137.0960930  45.9885790  98.0478880 141.6304390  44.0858520
  98.5623550 141.5412400  44.8880950  97.2047960 141.9764090  44.3786430
 100.0233280 141.9159730  33.5142520  99.8634420 141.6262670  34.4124350
  99.8579990 141.1399860  32.9787750  92.5021660 141.6958260  35.2914140
  92.3264140 140.7793800  35.0781940  91.6477400 142.0545550  35.5311940
  99.7259410 139.4247290  32.0740520  99.0324570 139.4224580  31.4142800
 100.4682270 139.0006610  31.6434690  99.2909340 141.0510000  36.1489010
  99.7466290 140.2699380  36.4627630  99.6301860 141.7616820  36.6930190
 104.0386150 129.9808850  46.4813450 103.4230420 130.4888520  45.9528910
 103.7182570 129.0807180  46.4239390  87.0411890 136.8226460  43.3079750
  87.2042930 136.3531820  42.4899120  87.5064340 136.3150020  43.9728590
  91.8130660 125.9532220  38.3440320  91.3698810 126.7341760  38.0124840
  92.3715650 126.2762110  39.0511260 101.1004980 130.0409690  45.0772300
 100.2498570 129.7415440  45.3981370 100.9406770 130.2851700  44.1656120
  98.1954690 131.5411440  47.1771090  98.5208100 130.7075190  46.8373320
  98.9835020 132.0639960  47.3249420  94.9289480 125.5742920  33.2246150
  94.3043660 125.5702790  33.9499460  94.8419600 124.7073880  32.8282120
  91.6044880 131.0765790  36.0721570  91.3785800 130.8602960  36.9768190
  90.8237410 131.5094250  35.7267540  98.8342640 131.0829160  34.6712220
  98.2351530 131.8064960  34.4875840  99.3822250 131.0205940  33.8888670
  94.0444090 131.9751370  46.7381840  93.9487690 131.0346100  46.5882240
  94.8876070 132.1966440  46.3429910  97.4407510 129.7192700  36.7015500
  97.8337080 130.0364900  35.8884190  97.8024360 128.8404580  36.8160020
  89.1754630 128.3865040  44.8915620  88.7818020 129.2340250  45.0988400
  88.4873030 127.7491410  45.0824260  86.6641910 130.2513620  30.1348420
  86.5816580 131.1944380  30.2763410  86.3124970 130.1088530  29.2560770
  98.0262650 132.3098450  40.7966280  97.2943770 132.8185260  41.1456380
  97.6286990 131.4928430  40.4955060  94.4640040 128.9852650  39.2018770
  94.4676100 128.5442600  38.3523310  95.3591160 129.3069980  39.3090590
  90.3142420 128.8679140  38.1612980  89.9742470 129.3454370  38.9180030
  89.5519740 128.4144260  37.8014080  94.5260190 129.9864730  32.1925530
  94.6473010 129.9451210  33.1411350  94.1408700 130.8488880  32.0372260
  98.4888560 127.7632130  40.2089220  98.5061300 128.2140780  41.0531070
  98.2404140 126.8637770  40.4222660  93.5381690 132.2965870  31.5908830
  92.9698590 131.8484120  30.9644740  94.2470690 132.6558650  31.0573980
 101.9159310 125.1764310  46.0475600 102.2405080 124.4453970  46.5733580
 101.9515820 124.8577950  45.1456590  88.6150870 136.1977890  45.4675560
  88.2305660 135.5571560  46.0658520  88.9263060 136.9014010  46.0370290
  94.7648010 133.0454430  40.9484180  95.1318140 132.5713000  41.6945520
  94.5753070 133.9196000  41.2892520  92.5547380 132.0863070  43.2668390
  92.2504450 132.9655050  43.4918750  93.5093840 132.1462860  43.3025830
  91.0829170 136.2924060  33.8635240  90.3091430 135.7521680  33.7033960
  91.8123800 135.7730670  33.5253000 101.8417150 135.2889420  39.6561630
 102.5616270 135.7844710  39.2657740 101.6398970 134.6107310  39.0115500
  97.3027090 126.6827380  33.7991020  96.4891700 126.1840550  33.7236330
  97.1089040 127.5225630  33.3827370  97.2235950 135.3598480  45.5430630
  97.1573260 134.4394150  45.2888220  96.5941090 135.4573920  46.2575270
 100.0175480 131.0547030  32.0953180 100.9055100 131.3664260  31.9204520
  99.9880570 130.1819280  31.7033760  91.1266570 135.9604440  37.5014050
  91.6445240 135.1572700  37.4470940  90.6750590 135.8983580  38.3430880
  96.0136070 137.2270720  32.7741350  96.3551770 137.9712950  32.2784670
  95.1848780 137.5401840  33.1366180  88.6111110 132.9265810  44.4139750
  88.2526050 133.5919660  45.0013090  88.3165670 132.0949360  44.7852370
  91.8124230 133.3850050  47.2979300  91.5124370 133.5307230  46.4007120
  92.5835470 132.8255340  47.2052690  97.1552680 138.1819050  45.2934430
  97.1697220 137.2500010  45.0753340  96.4477780 138.2678810  45.9324200
 102.2889750 132.3658870  31.5633040 102.2053470 132.7973090  30.7129480
 103.0083940 132.8257220  31.9959860 103.3663890 134.8226390  44.6403010
 102.6412080 135.4155170  44.4432400 103.8939350 134.8149930  43.8416380
 103.3177000 139.2201130  34.2915170 102.6753160 138.5656750  34.5658890
 102.9307660 139.6256220  33.5155840  98.8963480 136.5486560  38.1386860
  99.2487300 135.9514690  37.4788230  98.0125810 136.2230790  38.3095110
  94.9826760 137.3084250  35.5457270  95.6697890 137.8553460  35.9264860
  94.1959180 137.8524980  35.5806880  87.1219160 132.9257070  31.0374350
  87.9914010 133.2081870  31.3210270  86.6309480 133.7392940  30.9223160
  94.2853970 134.3130280  35.1582630  94.7416750 135.1235530  35.3842820
  93.9342180 133.9953420  35.9901120  96.5886580 139.8236620  42.3874930
  97.2328800 140.0296000  43.0648350  96.9516020 139.0625020  41.9345780
  97.8618660 137.8268970  41.1052380  98.5040890 137.1262130  41.2184550
  98.3868010 138.6067410  40.9249270 101.7074380 138.1117590  30.8291520
 101.4811960 137.3948030  31.4216160 101.3170580 137.8630030  29.9913270
  99.6356280 138.6263870  44.3088440  99.9712520 139.2130560  44.9866360
  98.7156620 138.4956580  44.5386230  87.4890410 142.1384450  31.6035980
  87.8488050 142.7373790  30.9493250  87.3482750 142.6844340  32.3771010
  87.1859680 126.4159050  45.0911850  86.4718200 126.6155970  45.6964460
  87.6054720 125.6398620  45.4626650 101.2890630 136.0289530  32.4905680
 101.0012330 136.4902220  33.2783560 102.0842800 135.5687300  32.7589900
  87.4732270 140.4039310  46.0778380  87.5823390 139.4634050  45.9373770
  86.8212830 140.6694060  45.4292110  95.4644860 138.6755200  47.4776500
  95.1441730 137.9564440  48.0222190  94.7903220 139.3510270  47.5512560
  93.5059030 139.5215650  32.4209650  93.4969130 140.2545340  31.8054160
  92.5857390 139.2747230  32.5136610  89.1065670 134.7430540  33.1656410
  88.4993620 135.4829440  33.1751710  89.5815020 134.8329900  32.3394610
  98.6798460 128.9081360  42.8413300  99.0479280 128.0876570  43.1692870
  97.8196660 128.9683250  43.2568950 102.0460490 127.8638300  33.6500860
 101.4173650 127.9683970  32.9359090 101.5512410 128.0835080  34.4394740
  96.4918630 139.5843890  31.0834840  96.5930610 139.3807880  30.1536820
  95.5920370 139.3302170  31.2882620  94.0144520 130.1424250  35.0658740
  93.3060670 130.6110590  35.5072350  94.2989000 129.4846260  35.7003930
  95.6400450 131.5620950  43.0651270  96.1385700 132.0366770  43.7303120
  95.7823400 130.6384470  43.2721300  98.0459950 126.8674910  36.5054530
  97.9227730 126.8861040  35.5564040  98.9944510 126.9153850  36.6252930
  95.1336740 142.1030210  35.7782510  95.3878240 142.0651600  34.8561880
  94.1849220 141.9763540  35.7710760  92.2179540 128.4509330  32.4409450
  93.0670070 128.8879480  32.3749640  91.8510810 128.7629590  33.2681510
 102.8467310 127.7788910  43.9079660 102.3440910 128.5194310  44.2473470
 103.6623970 128.1672910  43.5916450 101.1389320 133.0222090  37.3541020
 100.1979460 133.0372320  37.5288710 101.4533390 132.2358050  37.8001320
  91.1170960 134.7041690  30.9144980  91.8834230 134.5923050  31.4770410
  91.1945650 134.0079660  30.2621750  89.8117720 132.1366760  31.5977870
  89.8921310 131.1894270  31.7095270  90.7037470 132.4673640  31.7038530
 103.1414900 140.1930940  39.0295280 103.2662320 141.0162110  39.5019090
 104.0080460 139.9821670  38.6819430  90.6132430 142.2862150  38.7012410
  91.3494910 141.7377610  38.9720980  90.9973350 143.1518160  38.5618400
  87.4977910 138.3535720  34.5753920  86.5717690 138.5956860  34.5659330
  87.9634340 139.1809980  34.4538670  89.6190710 141.4708220  47.8897990
  90.4203440 141.7920270  48.3033390  89.1042530 141.1103800  48.6117900
  93.7234740 141.4592460  30.5237980  94.5163350 141.7481290  30.0719770
  93.2039090 141.0284630  29.8450460  98.4555340 137.5788090  47.8373400
  97.8493500 137.6019690  47.0969150  98.1509450 136.8471130  48.3740650
  99.8855710 141.3068380  46.4482810 100.8377460 141.2226400  46.3983050
  99.7383930 141.9710090  47.1216600 102.7764910 140.6862590  31.9474720
 102.4906420 140.2727730  31.1328900 102.5784460 141.6150300  31.8275240
  87.3388520 133.9581680  46.8334040  87.8427540 133.3788960  47.4050270
  86.5995940 134.2421910  47.3710410  94.2412140 136.6795870  30.3880330
  94.1362780 136.0648220  31.1141710  94.0736360 136.1561760  29.6043340
  94.3926460 135.3652670  46.3669560  93.6272130 135.9337670  46.2824230
  94.5742420 135.0728880  45.4737790  97.4814870 135.7415900  30.9922320
  96.9324970 136.1885200  31.6365060  98.1034130 135.2365150  31.5159990
 101.5349810 137.0958000  46.9244580 102.2759280 137.4333760  46.4212040
 100.7722490 137.2650060  46.3714350  89.3711600 132.1011270  47.7284110
  89.4116940 131.8025140  48.6369340  90.2257100 132.5018880  47.5691630
  93.1489990 134.7006820  32.8887620  93.5706410 134.5346690  33.7319010
  93.2740830 133.8907050  32.3942760  91.3117410 130.6803370  45.6958600
  90.7813870 130.1894320  45.0681940  91.9805480 131.1087570  45.1616530
  95.6617630 133.7244430  30.1364720  96.1823290 133.0093450  29.7705870
  96.3086030 134.3630300  30.4365230 100.2095470 135.1472830  45.4599790
 100.6236490 135.3017910  46.3090210  99.2746470 135.2728050  45.6225570
 100.6817640 132.4868990  47.4638940 101.2638410 131.7321310  47.3759420
 100.8579410 133.0176430  46.6870420  91.7989710 127.6465740  45.7755890
  91.7046580 127.0286490  45.0506760  91.2187100 128.3732030  45.5485800
  94.9710700 135.0993310  43.4295720  95.3898810 135.9426040  43.2571960
  94.0519330 135.2365350  43.2002500  97.3074600 132.8309490  44.8133560
  97.4270810 132.2350630  45.5528400  98.1668600 132.8679180  44.3934860
  99.6462500 133.3846680  43.3896070  99.1197720 133.9089300  42.7861210
  99.9893840 134.0174070  44.0205800  92.0448890 130.7740050  29.8345780
  91.8437950 129.9107410  30.1959120  91.8740940 130.6873410  28.8967380
  92.8218120 141.4046320  44.5453450  92.2839210 142.1292380  44.2262150
  93.0752080 140.9276660  43.7550790  94.0743370 129.3730840  46.0709380
  94.6643060 129.0646690  46.7587200  93.2563610 128.9010590  46.2269280
  98.8936800 128.9896650  46.3042400  98.2052320 128.3278190  46.2392390
  99.6142820 128.5434920  46.7490860  99.5237200 125.5848280  32.3632660
  99.8039490 124.7416180  32.7192080  98.7502930 125.8171390  32.8771410
  90.8431690 127.8740670  29.8223660  91.1457590 127.8808100  28.9142810
  91.5826280 127.5238530  30.3191320  95.6780330 142.6397530  44.8040100
  95.6039030 143.5432670  45.1112470  94.7759170 142.3209430  44.7762170
  94.0616620 126.8175290  30.8079860  93.7138620 126.1399280  30.2282310
  94.2629390 126.3564800  31.6223250  96.2265660 141.8056040  32.4266460
  97.1216450 142.1441010  32.4485220  96.2583290 141.0835450  31.7990740
  89.8661820 137.1783090  30.6553460  90.3036690 137.7212760  31.3111040
  90.3509550 136.3530040  30.6649800  87.0807620 139.9672120  38.1073720
  87.4110630 139.0993180  37.8752360  87.5098620 140.1730640  38.9378680
  91.6769540 138.2981130  35.7675690  91.3765080 138.1746100  36.6679600
  91.5707030 137.4389720  35.3591420  87.5697830 140.8342710  40.8455350
  87.1328820 141.0143510  41.6779500  88.1375510 141.5917330  40.7037070
 103.2060010 140.3359710  45.1332660 102.6062000 140.3952270  44.3896580
 103.3353910 139.3964690  45.2629510 104.4461460 138.0777530  30.4702370
 103.6154420 138.1454180  30.9409600 104.6233290 138.9681650  30.1669230
 103.9017920 134.8225010  32.9736570 104.6636830 135.3921660  33.0796260
 103.9172290 134.2552210  33.7444880  87.4022260 133.3462940  37.2044230
  86.7471100 133.0774580  36.5603930  88.2400210 133.2367420  36.7546210
 104.9077890 135.6775110  37.8178500 105.2786720 134.8942430  37.4114470
 105.5479820 136.3664210  37.6395800 101.8911650 137.0611690  43.2308820
 101.0771490 137.4908850  43.4934610 102.2985850 137.6730100  42.6177870
 103.9537090 135.1159380  30.1309090 104.2285930 136.0238260  30.0028310
 103.7647830 135.0521910  31.0671080 100.3512700 128.1404230  31.4262720
 100.7697580 127.9535210  30.5859380 100.0448760 127.2883280  31.7365650
 103.8502430 133.0528370  35.1238520 103.4746030 132.2856300  34.6919810
 103.1205550 133.4351070  35.6113450  88.4398190 133.7315510  41.7447570
  88.8071230 133.6442910  42.6243590  87.8709010 132.9682060  41.6454430
 103.2402050 132.1999890  44.7578040 103.0088140 131.9712640  43.8575990
 103.5006600 133.1199440  44.7122930  87.9914190 130.6424600  45.6505990
  87.0970240 130.6091360  45.9899700  88.5311740 130.8411390  46.4157240
 101.6790120 127.4256320  47.5357740 102.5560300 127.4339720  47.9191740
 101.6910960 126.6887160  46.9250090  86.6160340 130.5561870  33.1469560
  85.7124420 130.8192070  32.9721220  87.1000960 130.8273040  32.3669520
 103.1253390 131.2785860  38.4245760 103.6490870 130.7848510  37.7935930
 103.7112810 131.4136220  39.1693330 103.3043110 131.3625730  41.9465310
 102.3545820 131.3289270  42.0610300 103.4856120 132.2725840  41.7115080
  89.1587550 129.6127410  31.0563940  89.8679250 129.1910630  30.5711220
  88.4427490 129.6802640  30.4247290  88.8061710 125.6666740  30.0966590
  89.5289840 126.2075680  30.4147810  89.0786230 125.3930160  29.2208130
 102.6153360 130.5359210  34.3638170 103.1112480 130.3030080  35.1487050
 102.4169430 129.6971050  33.9475810 104.0440520 129.1720160  36.8975850
 103.9339800 129.0176200  37.8358120 104.8048110 128.6441100  36.6551260
 102.3906240 125.1114290  43.3558850 103.0278460 125.7248430  43.7218040
 102.5381130 125.1474950  42.4108080 104.9330790 127.0028080  30.1381990
 105.8580100 126.8709260  29.9300280 104.9106580 127.0820900  31.0918440
 105.0069280 127.7738740  32.7638700 104.2120780 127.7083860  33.2931610
 105.2112560 128.7089380  32.7524050 101.9487700 141.8130290  36.7577090
 102.5446770 141.4914860  36.0811510 102.2065850 141.3402110  37.5490360
  88.2485900 125.0728600  42.7414530  87.9000720 125.5292420  43.5072710
  87.9173600 124.1785730  42.8236960  89.8550270 138.2448200  46.9067720
  89.8119900 137.8741110  47.7882180  89.9861280 139.1825770  47.0469540
  93.5556300 139.8007790  42.5077440  93.3147660 140.0682350  41.6207960
  94.4958940 139.9713520  42.5628300 104.8160460 141.8202170  43.3088080
 104.3218740 142.2171040  42.5915210 104.2073750 141.1951380  43.7025360
  89.6938300 141.1910450  44.0265500  89.0998620 141.0595150  44.7655540
  89.6862140 140.3548590  43.5607600 100.0465300 126.6913550  43.6137250
  99.7178660 125.8765310  43.2338980 100.9947600 126.6483360  43.4902940
 102.4999910 142.4625590  40.5874820 102.0402880 143.2141400  40.2132840
 101.8712370 141.7432060  40.5289620  89.3250530 138.5568830  42.9773540
  88.5984590 137.9374120  42.9099490  89.3859680 138.9509440  42.1071620
  92.9295630 140.7713830  39.7622950  93.4460650 140.1601190  39.2371210
  93.5793010 141.2742610  40.2533960  95.6691130 141.6622320  40.5891930
  95.9568940 141.4076620  39.7124940  96.1814350 141.1099680  41.1797500
 101.4389210 126.1035620  39.2137530 101.8797300 126.0480720  38.3659130
 101.1696800 127.0193630  39.2847710 103.3027780 125.7350860  37.2246350
 103.2416180 124.7912080  37.0777370 104.0819810 125.8430950  37.7699810
  87.6080530 141.8743220  36.1870300  87.4402570 141.2413900  36.8852190
  86.7415040 142.0802620  35.8364490  94.7722360 127.8199270  36.6804470
  93.9596870 127.4456160  36.3400350  95.2764000 127.0644350  36.9825660
  99.2747340 124.4841720  37.9187540  99.8776710 125.0561930  38.3936060
  98.5340330 125.0481160  37.6961440 102.4181940 124.8863280  33.1927820
 102.6132570 125.7846730  33.4595250 101.6311810 124.6550360  33.6860770
  89.2143230 140.5676450  33.6320440  88.6890850 140.9484480  32.9282400
  89.1387810 141.1927220  34.3530150  90.6033700 126.2324050  32.2304130
  91.1326460 125.4453850  32.1012080  91.2362020 126.9115240  32.4639660
  92.7971540 125.9699190  35.2849520  92.1674280 125.2686500  35.4519650
  92.2576680 126.7303320  35.0682680  95.7363490 142.5838420  47.9560130
  96.6630800 142.3482690  47.9996090  95.7213920 143.4110420  47.4746160
 103.9708550 142.1263990  34.9534380 104.1460740 141.4401730  34.3095300
 103.2730120 142.6511040  34.5611050  92.9227100 125.2483170  47.7202010
  92.6411370 125.7516770  46.9562830  93.3046800 124.4504920  47.3544140
  91.8136200 142.5158830  32.5069690  92.5455020 142.2318110  31.9593580
  92.0729870 142.2772110  33.3969070  90.9750990 138.6323560  32.5116020
  90.3459870 139.1008660  33.0601850  91.0898820 137.7872780  32.9462210
 102.3041050 141.8108280  47.7801170 103.0966370 141.3157510  47.5727130
 102.5974200 142.4898420  48.3876780  98.4300710 132.6829220  18.6617220
  98.3494760 131.7683830  18.3908930  98.0165130 133.1796290  17.9556930
  96.5618750 134.4608240  20.5426490  95.7860850 133.9808680  20.8325060
  97.2131680 133.7813890  20.3682650  90.5784580 134.7728050  21.4202250
  89.7469460 134.5176760  21.8198760  91.1865560 134.8438820  22.1560170
 100.5826180 138.8668430  19.3225620 100.1207710 138.0955670  19.6512790
 101.3951730 138.8934500  19.8278070  90.5585840 138.8068140  21.6160270
  90.8613880 137.9165880  21.4370490  91.3029430 139.3638360  21.3882520
  88.9876530 129.7329940  15.2044640  88.0993230 130.0745910  15.1024520
  89.2717720 129.5330260  14.3125470  86.9509540 132.3335590  21.0884340
  87.5225650 131.5657790  21.0887980  86.9511080 132.6324350  20.1790950
  96.8089490 141.1526440  18.9429610  96.1900930 141.6083940  18.3724050
  97.6641270 141.3077900  18.5419310  96.0027740 137.1365430  20.5496650
  95.9336020 136.1955370  20.3885780  96.7647600 137.2266840  21.1219220
  88.1934410 127.7419950  22.8753270  88.0137250 126.8445700  23.1556030
  87.7914490 128.2891820  23.5500220  97.0332910 129.9435810  20.7765580
  97.4097730 129.0707690  20.6639250  96.9352420 130.2794510  19.8856020
  91.1637920 128.3161440  16.2383020  91.2704670 129.2165170  16.5451780
  90.2530280 128.2679410  15.9477670 100.8157030 127.4386250  17.7093920
 101.6366650 126.9482820  17.7519400 100.8491110 128.0283910  18.4625760
  88.8121080 130.2380450  21.4835610  89.4931190 130.5018820  22.1023010
  88.4969130 129.3981320  21.8173620  93.0045650 131.2847810  20.5708200
  93.5123870 131.7828780  21.2113220  93.5358890 130.5083010  20.3947560
 105.1056580 129.4553000  24.2737550 104.4008750 129.8434710  23.7552660
 105.3714500 130.1503290  24.8758480  91.2881750 125.9246370  24.8371620
  91.2900190 126.4418760  24.0317520  90.4586060 125.4476550  24.8141550
  97.6752840 136.0365680  16.3361520  97.0570110 136.5015130  15.7724240
  98.1876090 136.7293160  16.7531030  92.5384600 135.5641550  23.0145120
  92.2053980 136.1910470  23.6566190  92.7151280 136.0903430  22.2346790
 101.0518510 129.3786630  20.4821460 100.3474080 129.6671520  21.0624570
 101.4130670 130.1886740  20.1221020  90.9697080 127.6356330  22.8442070
  91.3113890 128.4798380  22.5495940  90.0312890 127.7840070  22.9607410
  91.7503700 137.5322350  24.8294300  92.3677700 138.2073430  24.5478750
  90.8896820 137.9410330  24.7381800  87.0436040 136.7222210  13.7101150
  86.6664020 137.2109310  12.9786050  87.3009110 137.3947490  14.3407680
 102.6681290 138.9961760  22.7448940 101.9844810 139.6660870  22.7365610
 103.2075580 139.1942410  21.9793800 104.1205430 128.8241420  20.8730670
 103.1730340 128.8580400  21.0046100 104.4455420 129.6380370  21.2580030
  94.6524970 125.1238600  19.1686660  94.9599950 124.5685490  18.4522160
  93.7225670 125.2583060  18.9859650 100.2040030 140.8405890  21.4594120
 100.2167190 140.4368180  20.5916380  99.6515250 141.6153180  21.3555550
 101.4985450 137.5622110  16.5484290 101.3881780 136.6196440  16.6733710
 101.4953700 137.9237750  17.4347050  99.6025470 135.7435730  22.7876730
 100.0194260 135.5295840  21.9530190 100.3265290 136.0008520  23.3585350
  97.0405730 133.1887430  15.9046780  96.1135010 133.1224810  16.1335250
  97.1930550 134.1267560  15.7902020  97.0274810 129.4604430  12.9013940
  96.0878480 129.6218390  12.9866400  97.3458070 130.1790110  12.3549930
 103.5487570 134.1422950  22.8792970 102.7206200 134.2116040  22.4043100
 104.1438050 134.7277260  22.4108800 101.0703020 134.7507730  16.4082030
 100.4515440 134.4127280  15.7608330 101.0527470 134.1067490  17.1161220
 100.5129580 130.9292270  23.8247840 100.1000760 131.7545980  24.0787830
  99.7805530 130.3437310  23.6324200  92.6462370 133.7152170  18.6866510
  92.2419370 133.0029420  18.1912410  92.7325490 133.3705410  19.5754550
  93.1144070 137.4019730  20.8505720  92.8172360 136.7965200  20.1713500
  94.0643890 137.4397040  20.7395080  91.3590990 130.4895380  22.4665550
  91.9105580 130.5990720  21.6918800  91.8734500 130.8632980  23.1820780
 101.2029680 140.9751600  24.5128820 100.7260240 141.7823790  24.3201430
 100.5191470 140.3229930  24.6655030  92.2062500 137.1401420  27.5013520
  91.3091030 137.3641390  27.7486920  92.2315370 137.2636360  26.5524920
  99.2467720 133.9894540  13.4154780  99.6861000 133.1516970  13.2692600
  99.9596140 134.6223940  13.5018920  91.0333720 134.0114740  26.0770890
  90.8941490 134.8837540  26.4458290  90.1515080 133.6687550  25.9318830
  97.3563100 138.9290610  17.3836020  97.7959010 139.6714940  16.9691410
  97.2949990 139.1717180  18.3074980  92.8314070 139.9536440  28.2856040
  92.8029500 140.3579390  27.4184470  92.6679040 139.0246800  28.1227640
 102.8284860 125.2437350  11.7295820 102.5157520 125.3364180  12.6294890
 103.5897330 125.8218380  11.6793250  89.3467000 132.6097150  16.1873160
  89.2264600 133.3359240  15.5754430  89.0367890 131.8400060  15.7101070
 104.7828890 140.7363540  29.5820210 105.2588610 141.2146430  30.2609290
 105.4036050 140.6681030  28.8565710  86.9852370 135.7812290  21.9941800
  87.0632790 135.9161060  21.0497520  87.5994050 135.0728180  22.1869920
  88.2300000 137.4812480  18.4047980  87.8228080 137.6227070  17.5501580
  89.1213010 137.1972640  18.2019190 104.1862140 137.9276390  26.7420220
 104.3125200 137.6888270  25.8237400 104.2283520 137.0960930  27.2142300
  98.0478880 141.6304390  25.3115030  98.5623550 141.5412400  26.1137460
  97.2047960 141.9764090  25.6042940 100.0233280 141.9159730  14.7399030
  99.8634420 141.6262670  15.6380860  99.8579990 141.1399860  14.2044260
  92.5021660 141.6958260  16.5170650  92.3264140 140.7793800  16.3038450
  91.6477400 142.0545550  16.7568450  99.7259410 139.4247290  13.2997030
  99.0324570 139.4224580  12.6399310 100.4682270 139.0006610  12.8691200
  99.2909340 141.0510000  17.3745520  99.7466290 140.2699380  17.6884140
  99.6301860 141.7616820  17.9186700 104.0386150 129.9808850  27.7069960
 103.4230420 130.4888520  27.1785420 103.7182570 129.0807180  27.6495900
  87.0411890 136.8226460  24.5336260  87.2042930 136.3531820  23.7155630
  87.5064340 136.3150020  25.1985100  91.8130660 125.9532220  19.5696830
  91.3698810 126.7341760  19.2381350  92.3715650 126.2762110  20.2767770
  96.1000470 128.8200740  25.1732150  95.6379840 129.0283760  25.9852090
  95.6978580 128.0060090  24.8702820 101.1004980 130.0409690  26.3028810
 100.2498570 129.7415440  26.6237880 100.9406770 130.2851700  25.3912630
  98.1954690 131.5411440  28.4027600  98.5208100 130.7075190  28.0629830
  98.9835020 132.0639960  28.5505930  94.9289480 125.5742920  14.4502660
  94.3043660 125.5702790  15.1755970  94.8419600 124.7073880  14.0538630
  93.8506560 126.4979550  21.4286430  94.1478890 127.4042380  21.3478450
  94.3992120 126.0098330  20.8146000  91.6044880 131.0765790  17.2978080
  91.3785800 130.8602960  18.2024700  90.8237410 131.5094250  16.9524050
  98.8342640 131.0829160  15.8968730  98.2351530 131.8064960  15.7132350
  99.3822250 131.0205940  15.1145180  94.0444090 131.9751370  27.9638350
  93.9487690 131.0346100  27.8138750  94.8876070 132.1966440  27.5686420
  97.4407510 129.7192700  17.9272010  97.8337080 130.0364900  17.1140700
  97.8024360 128.8404580  18.0416530  89.1754630 128.3865040  26.1172130
  88.7818020 129.2340250  26.3244910  88.4873030 127.7491410  26.3080770
  95.7499680 128.4700010  29.1868870  95.0598000 128.2772210  29.8214960
  96.4931980 128.7534650  29.7193170  86.4771680 126.3093500  20.1502210
  86.1884730 126.8796360  20.8627190  87.2217440 125.8297950  20.5133440
  86.6641910 130.2513620  11.3604930  86.5816580 131.1944380  11.5019920
  86.3124970 130.1088530  10.4817280  98.0262650 132.3098450  22.0222790
  97.2943770 132.8185260  22.3712890  97.6286990 131.4928430  21.7211570
  94.4640040 128.9852650  20.4275280  94.4676100 128.5442600  19.5779820
  95.3591160 129.3069980  20.5347100  90.3142420 128.8679140  19.3869490
  89.9742470 129.3454370  20.1436540  89.5519740 128.4144260  19.0270590
  94.5260190 129.9864730  13.4182040  94.6473010 129.9451210  14.3667860
  94.1408700 130.8488880  13.2628770  98.4888560 127.7632130  21.4345730
  98.5061300 128.2140780  22.2787580  98.2404140 126.8637770  21.6479170
  93.5381690 132.2965870  12.8165340  92.9698590 131.8484120  12.1901250
  94.2470690 132.6558650  12.2830490 101.9159310 125.1764310  27.2732110
 102.2405080 124.4453970  27.7990090 101.9515820 124.8577950  26.3713100
  88.6150870 136.1977890  26.6932070  88.2305660 135.5571560  27.2915030
  88.9263060 136.9014010  27.2626800  94.7648010 133.0454430  22.1740690
  95.1318140 132.5713000  22.9202030  94.5753070 133.9196000  22.5149030
  87.6288500 127.7898120  18.3034160  87.3435420 127.4253790  19.1412780
  87.5667360 127.0578580  17.6897300  92.5547380 132.0863070  24.4924900
  92.2504450 132.9655050  24.7175260  93.5093840 132.1462860  24.5282340
  91.0829170 136.2924060  15.0891750  90.3091430 135.7521680  14.9290470
  91.8123800 135.7730670  14.7509510 101.8417150 135.2889420  20.8818140
 102.5616270 135.7844710  20.4914250 101.6398970 134.6107310  20.2372010
  97.3027090 126.6827380  15.0247530  96.4891700 126.1840550  14.9492840
  97.1089040 127.5225630  14.6083880  97.2235950 135.3598480  26.7687140
  97.1573260 134.4394150  26.5144730  96.5941090 135.4573920  27.4831780
 100.0175480 131.0547030  13.3209690 100.9055100 131.3664260  13.1461030
  99.9880570 130.1819280  12.9290270  91.1266570 135.9604440  18.7270560
  91.6445240 135.1572700  18.6727450  90.6750590 135.8983580  19.5687390
  96.0136070 137.2270720  13.9997860  96.3551770 137.9712950  13.5041180
  95.1848780 137.5401840  14.3622690  88.6111110 132.9265810  25.6396260
  88.2526050 133.5919660  26.2269600  88.3165670 132.0949360  26.0108880
  91.8124230 133.3850050  28.5235810  91.5124370 133.5307230  27.6263630
  92.5835470 132.8255340  28.4309200  97.1552680 138.1819050  26.5190940
  97.1697220 137.2500010  26.3009850  96.4477780 138.2678810  27.1580710
 102.2889750 132.3658870  12.7889550 102.2053470 132.7973090  11.9385990
 103.0083940 132.8257220  13.2216370 103.3663890 134.8226390  25.8659520
 102.6412080 135.4155170  25.6688910 103.8939350 134.8149930  25.0672890
 103.3177000 139.2201130  15.5171680 102.6753160 138.5656750  15.7915400
 102.9307660 139.6256220  14.7412350  98.8963480 136.5486560  19.3643370
  99.2487300 135.9514690  18.7044740  98.0125810 136.2230790  19.5351620
  94.9826760 137.3084250  16.7713780  95.6697890 137.8553460  17.1521370
  94.1959180 137.8524980  16.8063390  87.1219160 132.9257070  12.2630860
  87.9914010 133.2081870  12.5466780  86.6309480 133.7392940  12.1479670
  94.2853970 134.3130280  16.3839140  94.7416750 135.1235530  16.6099330
  93.9342180 133.9953420  17.2157630  96.5886580 139.8236620  23.6131440
  97.2328800 140.0296000  24.2904860  96.9516020 139.0625020  23.1602290
  90.1865750 124.6567930  16.8561660  90.0580380 124.6485830  17.8046580
  89.3627770 124.9951020  16.5052670  97.8618660 137.8268970  22.3308890
  98.5040890 137.1262130  22.4441060  98.3868010 138.6067410  22.1505780
 101.7074380 138.1117590  12.0548030 101.4811960 137.3948030  12.6472670
 101.3170580 137.8630030  11.2169780  99.6356280 138.6263870  25.5344950
  99.9712520 139.2130560  26.2122870  98.7156620 138.4956580  25.7642740
  87.4890410 142.1384450  12.8292490  87.8488050 142.7373790  12.1749760
  87.3482750 142.6844340  13.6027520  87.1859680 126.4159050  26.3168360
  86.4718200 126.6155970  26.9220970  87.6054720 125.6398620  26.6883160
 101.2890630 136.0289530  13.7162190 101.0012330 136.4902220  14.5040070
 102.0842800 135.5687300  13.9846410  87.4732270 140.4039310  27.3034890
  87.5823390 139.4634050  27.1630280  86.8212830 140.6694060  26.6548620
  95.4644860 138.6755200  28.7033010  95.1441730 137.9564440  29.2478700
  94.7903220 139.3510270  28.7769070  93.5059030 139.5215650  13.6466160
  93.4969130 140.2545340  13.0310670  92.5857390 139.2747230  13.7393120
  89.1065670 134.7430540  14.3912920  88.4993620 135.4829440  14.4008220
  89.5815020 134.8329900  13.5651120  98.6798460 128.9081360  24.0669810
  99.0479280 128.0876570  24.3949380  97.8196660 128.9683250  24.4825460
 102.0460490 127.8638300  14.8757370 101.4173650 127.9683970  14.1615600
 101.5512410 128.0835080  15.6651250  96.4918630 139.5843890  12.3091350
  96.5930610 139.3807880  11.3793330  95.5920370 139.3302170  12.5139130
  94.0144520 130.1424250  16.2915250  93.3060670 130.6110590  16.7328860
  94.2989000 129.4846260  16.9260440  95.6400450 131.5620950  24.2907780
  96.1385700 132.0366770  24.9559630  95.7823400 130.6384470  24.4977810
  98.0459950 126.8674910  17.7311040  97.9227730 126.8861040  16.7820550
  98.9944510 126.9153850  17.8509440  95.1336740 142.1030210  17.0039020
  95.3878240 142.0651600  16.0818390  94.1849220 141.9763540  16.9967270
  92.2179540 128.4509330  13.6665960  93.0670070 128.8879480  13.6006150
  91.8510810 128.7629590  14.4938020 102.8467310 127.7788910  25.1336170
 102.3440910 128.5194310  25.4729980 103.6623970 128.1672910  24.8172960
 101.1389320 133.0222090  18.5797530 100.1979460 133.0372320  18.7545220
 101.4533390 132.2358050  19.0257830  91.1170960 134.7041690  12.1401490
  91.8834230 134.5923050  12.7026920  91.1945650 134.0079660  11.4878260
  89.8117720 132.1366760  12.8234380  89.8921310 131.1894270  12.9351780
  90.7037470 132.4673640  12.9295040 103.1414900 140.1930940  20.2551790
 103.2662320 141.0162110  20.7275600 104.0080460 139.9821670  19.9075940
  90.6132430 142.2862150  19.9268920  91.3494910 141.7377610  20.1977490
  90.9973350 143.1518160  19.7874910  87.4977910 138.3535720  15.8010430
  86.5717690 138.5956860  15.7915840  87.9634340 139.1809980  15.6795180
  89.6190710 141.4708220  29.1154500  90.4203440 141.7920270  29.5289900
  89.1042530 141.1103800  29.8374410  93.7234740 141.4592460  11.7494490
  94.5163350 141.7481290  11.2976280  93.2039090 141.0284630  11.0706970
  98.4555340 137.5788090  29.0629910  97.8493500 137.6019690  28.3225660
  98.1509450 136.8471130  29.5997160  99.8855710 141.3068380  27.6739320
 100.8377460 141.2226400  27.6239560  99.7383930 141.9710090  28.3473110
 102.7764910 140.6862590  13.1731230 102.4906420 140.2727730  12.3585410
 102.5784460 141.6150300  13.0531750  87.3388520 133.9581680  28.0590550
  87.8427540 133.3788960  28.6306780  86.5995940 134.2421910  28.5966920
  94.2412140 136.6795870  11.6136840  94.1362780 136.0648220  12.3398220
  94.0736360 136.1561760  10.8299850  94.3926460 135.3652670  27.5926070
  93.6272130 135.9337670  27.5080740  94.5742420 135.0728880  26.6994300
  97.4814870 135.7415900  12.2178830  96.9324970 136.1885200  12.8621570
  98.1034130 135.2365150  12.7416500 101.5349810 137.0958000  28.1501090
 102.2759280 137.4333760  27.6468550 100.7722490 137.2650060  27.5970860
  89.3711600 132.1011270  28.9540620  89.4116940 131.8025140  29.8625850
  90.2257100 132.5018880  28.7948140  93.1489990 134.7006820  14.1144130
  93.5706410 134.5346690  14.9575520  93.2740830 133.8907050  13.6199270
  91.3117410 130.6803370  26.9215110  90.7813870 130.1894320  26.2938450
  91.9805480 131.1087570  26.3873040  95.6617630 133.7244430  11.3621230
  96.1823290 133.0093450  10.9962380  96.3086030 134.3630300  11.6621740
 100.2095470 135.1472830  26.6856300 100.6236490 135.3017910  27.5346720
  99.2746470 135.2728050  26.8482080 100.6817640 132.4868990  28.6895450
 101.2638410 131.7321310  28.6015930 100.8579410 133.0176430  27.9126930
  91.7989710 127.6465740  27.0012400  91.7046580 127.0286490  26.2763270
  91.2187100 128.3732030  26.7742310  94.5651150 126.2038980  24.0339790
  94.1168450 126.2263240  23.1885340  93.9316350 125.8058000  24.6310090
  94.9710700 135.0993310  24.6552230  95.3898810 135.9426040  24.4828470
  94.0519330 135.2365350  24.4259010  97.3074600 132.8309490  26.0390070
  97.4270810 132.2350630  26.7784910  98.1668600 132.8679180  25.6191370
  99.6462500 133.3846680  24.6152580  99.1197720 133.9089300  24.0117720
  99.9893840 134.0174070  25.2462310  92.0448890 130.7740050  11.0602290
  91.8437950 129.9107410  11.4215630  91.8740940 130.6873410  10.1223890
  92.8218120 141.4046320  25.7709960  92.2839210 142.1292380  25.4518660
  93.0752080 140.9276660  24.9807300  94.0743370 129.3730840  27.2965890
  94.6643060 129.0646690  27.9843710  93.2563610 128.9010590  27.4525790
  98.8936800 128.9896650  27.5298910  98.2052320 128.3278190  27.4648900
  99.6142820 128.5434920  27.9747370  99.5237200 125.5848280  13.5889170
  99.8039490 124.7416180  13.9448590  98.7502930 125.8171390  14.1027920
  90.8431690 127.8740670  11.0480170  91.1457590 127.8808100  10.1399320
  91.5826280 127.5238530  11.5447830  95.6780330 142.6397530  26.0296610
  95.6039030 143.5432670  26.3368980  94.7759170 142.3209430  26.0018680
  94.0616620 126.8175290  12.0336370  93.7138620 126.1399280  11.4538820
  94.2629390 126.3564800  12.8479760  96.2265660 141.8056040  13.6522970
  97.1216450 142.1441010  13.6741730  96.2583290 141.0835450  13.0247250
  89.8661820 137.1783090  11.8809970  90.3036690 137.7212760  12.5367550
  90.3509550 136.3530040  11.8906310  87.0807620 139.9672120  19.3330230
  87.4110630 139.0993180  19.1008870  87.5098620 140.1730640  20.1635190
  91.6769540 138.2981130  16.9932200  91.3765080 138.1746100  17.8936110
  91.5707030 137.4389720  16.5847930  87.5697830 140.8342710  22.0711860
  87.1328820 141.0143510  22.9036010  88.1375510 141.5917330  21.9293580
 103.2060010 140.3359710  26.3589170 102.6062000 140.3952270  25.6153090
 103.3353910 139.3964690  26.4886020 104.4461460 138.0777530  11.6958880
 103.6154420 138.1454180  12.1666110 104.6233290 138.9681650  11.3925740
 103.9017920 134.8225010  14.1993080 104.6636830 135.3921660  14.3052770
 103.9172290 134.2552210  14.9701390  87.4022260 133.3462940  18.4300740
  86.7471100 133.0774580  17.7860440  88.2400210 133.2367420  17.9802720
 104.9077890 135.6775110  19.0435010 105.2786720 134.8942430  18.6370980
 105.5479820 136.3664210  18.8652310 101.8911650 137.0611690  24.4565330
 101.0771490 137.4908850  24.7191120 102.2985850 137.6730100  23.8434380
 103.9537090 135.1159380  11.3565600 104.2285930 136.0238260  11.2284820
 103.7647830 135.0521910  12.2927590 100.3512700 128.1404230  12.6519230
 100.7697580 127.9535210  11.8115890 100.0448760 127.2883280  12.9622160
 103.8502430 133.0528370  16.3495030 103.4746030 132.2856300  15.9176320
 103.1205550 133.4351070  16.8369960  88.4398190 133.7315510  22.9704080
  88.8071230 133.6442910  23.8500100  87.8709010 132.9682060  22.8710940
 103.2402050 132.1999890  25.9834550 103.0088140 131.9712640  25.0832500
 103.5006600 133.1199440  25.9379440  87.9914190 130.6424600  26.8762500
  87.0970240 130.6091360  27.2156210  88.5311740 130.8411390  27.6413750
 101.6790120 127.4256320  28.7614250 102.5560300 127.4339720  29.1448250
 101.6910960 126.6887160  28.1506600  86.6160340 130.5561870  14.3726070
  85.7124420 130.8192070  14.1977730  87.1000960 130.8273040  13.5926030
 103.1253390 131.2785860  19.6502270 103.6490870 130.7848510  19.0192440
 103.7112810 131.4136220  20.3949840 103.3043110 131.3625730  23.1721820
 102.3545820 131.3289270  23.2866810 103.4856120 132.2725840  22.9371590
  89.1587550 129.6127410  12.2820450  89.8679250 129.1910630  11.7967730
  88.4427490 129.6802640  11.6503800  88.8061710 125.6666740  11.3223100
  89.5289840 126.2075680  11.6404320  89.0786230 125.3930160  10.4464640
 102.6153360 130.5359210  15.5894680 103.1112480 130.3030080  16.3743560
 102.4169430 129.6971050  15.1732320  88.4953900 124.9172930  21.2245720
  89.1430090 124.3670310  20.7840880  88.9155740 125.1716080  22.0461530
 104.0440520 129.1720160  18.1232360 103.9339800 129.0176200  19.0614630
 104.8048110 128.6441100  17.8807770 102.3906240 125.1114290  24.5815360
 103.0278460 125.7248430  24.9474550 102.5381130 125.1474950  23.6364590
 104.9330790 127.0028080  11.3638500 105.8580100 126.8709260  11.1556790
 104.9106580 127.0820900  12.3174950 105.0069280 127.7738740  13.9895210
 104.2120780 127.7083860  14.5188120 105.2112560 128.7089380  13.9780560
 101.9487700 141.8130290  17.9833600 102.5446770 141.4914860  17.3068020
 102.2065850 141.3402110  18.7746870  88.2485900 125.0728600  23.9671040
  87.9000720 125.5292420  24.7329220  87.9173600 124.1785730  24.0493470
  89.8550270 138.2448200  28.1324230  89.8119900 137.8741110  29.0138690
  89.9861280 139.1825770  28.2726050  93.5556300 139.8007790  23.7333950
  93.3147660 140.0682350  22.8464470  94.4958940 139.9713520  23.7884810
  95.7610720 126.2640480  27.4890460  95.6999610 126.8562310  28.2385870
  96.7011100 126.1566440  27.3440720  98.3985280 125.9210540  27.1282750
  99.0125690 126.2389830  26.4663830  98.9434840 125.4359130  27.7478610
 104.8160460 141.8202170  24.5344590 104.3218740 142.2171040  23.8171720
 104.2073750 141.1951380  24.9281870  88.9206540 124.6004800  27.2421810
  89.4689530 124.4192850  26.4787920  88.9861850 123.8098910  27.7778120
  89.6938300 141.1910450  25.2522010  89.0998620 141.0595150  25.9912050
  89.6862140 140.3548590  24.7864110  99.1393320 124.4842680  23.4552040
  98.2653160 124.8177790  23.2524970  99.0304070 124.0115860  24.2803910
 100.0465300 126.6913550  24.8393760  99.7178660 125.8765310  24.4595490
 100.9947600 126.6483360  24.7159450 102.4999910 142.4625590  21.8131330
 102.0402880 143.2141400  21.4389350 101.8712370 141.7432060  21.7546130
  89.3250530 138.5568830  24.2030050  88.5984590 137.9374120  24.1356000
  89.3859680 138.9509440  23.3328130  92.9295630 140.7713830  20.9879460
  93.4460650 140.1601190  20.4627720  93.5793010 141.2742610  21.4790470
  95.6691130 141.6622320  21.8148440  95.9568940 141.4076620  20.9381450
  96.1814350 141.1099680  22.4054010  96.8868140 125.4012520  22.3944950
  96.1039930 125.8758020  22.6741710  96.5931070 124.4967350  22.2858130
 101.4389210 126.1035620  20.4394040 101.8797300 126.0480720  19.5915640
 101.1696800 127.0193630  20.5104220 103.3027780 125.7350860  18.4502860
 103.2416180 124.7912080  18.3033880 104.0819810 125.8430950  18.9956320
  87.6080530 141.8743220  17.4126810  87.4402570 141.2413900  18.1108700
  86.7415040 142.0802620  17.0621000  88.2308550 125.7060000  14.9158670
  88.9887910 125.8188880  14.3422700  87.7685720 126.5429200  14.8702100
  94.7722360 127.8199270  17.9060980  93.9596870 127.4456160  17.5656860
  95.2764000 127.0644350  18.2082170  99.2747340 124.4841720  19.1444050
  99.8776710 125.0561930  19.6192570  98.5340330 125.0481160  18.9217950
 102.4181940 124.8863280  14.4184330 102.6132570 125.7846730  14.6851760
 101.6311810 124.6550360  14.9117280  89.2143230 140.5676450  14.8576950
  88.6890850 140.9484480  14.1538910  89.1387810 141.1927220  15.5786660
  90.6033700 126.2324050  13.4560640  91.1326460 125.4453850  13.3268590
  91.2362020 126.9115240  13.6896170  92.7971540 125.9699190  16.5106030
  92.1674280 125.2686500  16.6776160  92.2576680 126.7303320  16.2939190
  95.7363490 142.5838420  29.1816640  96.6630800 142.3482690  29.2252600
  95.7213920 143.4110420  28.7002670 103.9708550 142.1263990  16.1790890
 104.1460740 141.4401730  15.5351810 103.2730120 142.6511040  15.7867560
  92.9227100 125.2483170  28.9458520  92.6411370 125.7516770  28.1819340
  93.3046800 124.4504920  28.5800650  91.8136200 142.5158830  13.7326200
  92.5455020 142.2318110  13.1850090  92.0729870 142.2772110  14.6225580
  90.9750990 138.6323560  13.7372530  90.3459870 139.1008660  14.2858360
  91.0898820 137.7872780  14.1718720  99.5242560 124.6636750  29.5238990
  99.4108010 124.9831360  30.4190510 100.3412300 125.0649260  29.2276270
 102.3041050 141.8108280  29.0057680 103.0966370 141.3157510  28.7983640
 102.5974200 142.4898420  29.6133290  96.5618750 134.4608240   1.7683000
  95.7860850 133.9808680   2.0581570  97.2131680 133.7813890   1.5939160
  90.5784580 134.7728050   2.6458760  89.7469460 134.5176760   3.0455270
  91.1865560 134.8438820   3.3816680  90.5585840 138.8068140   2.8416780
  90.8613880 137.9165880   2.6627000  91.3029430 139.3638360   2.6139030
  96.0027740 137.1365430   1.7753160  95.9336020 136.1955370   1.6142290
  96.7647600 137.2266840   2.3475730  88.1934410 127.7419950   4.1009780
  88.0137250 126.8445700   4.3812540  87.7914490 128.2891820   4.7756730
  88.8121080 130.2380450   2.7092120  89.4931190 130.5018820   3.3279520
  88.4969130 129.3981320   3.0430130  93.0045650 131.2847810   1.7964710
  93.5123870 131.7828780   2.4369730  93.5358890 130.5083010   1.6204070
 105.1056580 129.4553000   5.4994060 104.4008750 129.8434710   4.9809170
 105.3714500 130.1503290   6.1014990  91.2881750 125.9246370   6.0628130
  91.2900190 126.4418760   5.2574030  90.4586060 125.4476550   6.0398060
  92.5384600 135.5641550   4.2401630  92.2053980 136.1910470   4.8822700
  92.7151280 136.0903430   3.4603300  90.9697080 127.6356330   4.0698580
  91.3113890 128.4798380   3.7752450  90.0312890 127.7840070   4.1863920
  91.7503700 137.5322350   6.0550810  92.3677700 138.2073430   5.7735260
  90.8896820 137.9410330   5.9638310 102.6681290 138.9961760   3.9705450
 101.9844810 139.6660870   3.9622120 103.2075580 139.1942410   3.2050310
 104.1205430 128.8241420   2.0987180 103.1730340 128.8580400   2.2302610
 104.4455420 129.6380370   2.4836540 100.2040030 140.8405890   2.6850630
 100.2167190 140.4368180   1.8172890  99.6515250 141.6153180   2.5812060
  99.6025470 135.7435730   4.0133240 100.0194260 135.5295840   3.1786700
 100.3265290 136.0008520   4.5841860 103.5487570 134.1422950   4.1049480
 102.7206200 134.2116040   3.6299610 104.1438050 134.7277260   3.6365310
 100.5129580 130.9292270   5.0504350 100.1000760 131.7545980   5.3044340
  99.7805530 130.3437310   4.8580710  91.3590990 130.4895380   3.6922060
  91.9105580 130.5990720   2.9175310  91.8734500 130.8632980   4.4077290
 101.2029680 140.9751600   5.7385330 100.7260240 141.7823790   5.5457940
 100.5191470 140.3229930   5.8911540  92.2062500 137.1401420   8.7270030
  91.3091030 137.3641390   8.9743430  92.2315370 137.2636360   7.7781430
  91.0333720 134.0114740   7.3027400  90.8941490 134.8837540   7.6714800
  90.1515080 133.6687550   7.1575340  92.8314070 139.9536440   9.5112550
  92.8029500 140.3579390   8.6440980  92.6679040 139.0246800   9.3484150
 104.7828890 140.7363540  10.8076720 105.2588610 141.2146430  11.4865800
 105.4036050 140.6681030  10.0822220  86.9852370 135.7812290   3.2198310
  87.0632790 135.9161060   2.2754030  87.5994050 135.0728180   3.4126430
 104.1862140 137.9276390   7.9676730 104.3125200 137.6888270   7.0493910
 104.2283520 137.0960930   8.4398810  98.0478880 141.6304390   6.5371540
  98.5623550 141.5412400   7.3393970  97.2047960 141.9764090   6.8299450
 104.0386150 129.9808850   8.9326470 103.4230420 130.4888520   8.4041930
 103.7182570 129.0807180   8.8752410  87.0411890 136.8226460   5.7592770
  87.2042930 136.3531820   4.9412140  87.5064340 136.3150020   6.4241610
  96.1000470 128.8200740   6.3988660  95.6379840 129.0283760   7.2108600
  95.6978580 128.0060090   6.0959330 101.1004980 130.0409690   7.5285320
 100.2498570 129.7415440   7.8494390 100.9406770 130.2851700   6.6169140
  98.1954690 131.5411440   9.6284110  98.5208100 130.7075190   9.2886340
  98.9835020 132.0639960   9.7762440  93.8506560 126.4979550   2.6542940
  94.1478890 127.4042380   2.5734960  94.3992120 126.0098330   2.0402510
  94.0444090 131.9751370   9.1894860  93.9487690 131.0346100   9.0395260
  94.8876070 132.1966440   8.7942930  89.1754630 128.3865040   7.3428640
  88.7818020 129.2340250   7.5501420  88.4873030 127.7491410   7.5337280
  95.7499680 128.4700010  10.4125380  95.0598000 128.2772210  11.0471470
  96.4931980 128.7534650  10.9449680  98.0262650 132.3098450   3.2479300
  97.2943770 132.8185260   3.5969400  97.6286990 131.4928430   2.9468080
  98.4888560 127.7632130   2.6602240  98.5061300 128.2140780   3.5044090
  98.2404140 126.8637770   2.8735680 101.9159310 125.1764310   8.4988620
 102.2405080 124.4453970   9.0246600 101.9515820 124.8577950   7.5969610
  88.6150870 136.1977890   7.9188580  88.2305660 135.5571560   8.5171540
  88.9263060 136.9014010   8.4883310  94.7648010 133.0454430   3.3997200
  95.1318140 132.5713000   4.1458540  94.5753070 133.9196000   3.7405540
  92.5547380 132.0863070   5.7181410  92.2504450 132.9655050   5.9431770
  93.5093840 132.1462860   5.7538850 101.8417150 135.2889420   2.1074650
 102.5616270 135.7844710   1.7170760 101.6398970 134.6107310   1.4628520
  97.2235950 135.3598480   7.9943650  97.1573260 134.4394150   7.7401240
  96.5941090 135.4573920   8.7088290  88.6111110 132.9265810   6.8652770
  88.2526050 133.5919660   7.4526110  88.3165670 132.0949360   7.2365390
  91.8124230 133.3850050   9.7492320  91.5124370 133.5307230   8.8520140
  92.5835470 132.8255340   9.6565710  97.1552680 138.1819050   7.7447450
  97.1697220 137.2500010   7.5266360  96.4477780 138.2678810   8.3837220
 103.3663890 134.8226390   7.0916030 102.6412080 135.4155170   6.8945420
 103.8939350 134.8149930   6.2929400  96.5886580 139.8236620   4.8387950
  97.2328800 140.0296000   5.5161370  96.9516020 139.0625020   4.3858800
  97.8618660 137.8268970   3.5565400  98.5040890 137.1262130   3.6697570
  98.3868010 138.6067410   3.3762290  99.6356280 138.6263870   6.7601460
  99.9712520 139.2130560   7.4379380  98.7156620 138.4956580   6.9899250
  87.1859680 126.4159050   7.5424870  86.4718200 126.6155970   8.1477480
  87.6054720 125.6398620   7.9139670  87.4732270 140.4039310   8.5291400
  87.5823390 139.4634050   8.3886790  86.8212830 140.6694060   7.8805130
  95.4644860 138.6755200   9.9289520  95.1441730 137.9564440  10.4735210
  94.7903220 139.3510270  10.0025580  98.6798460 128.9081360   5.2926320
  99.0479280 128.0876570   5.6205890  97.8196660 128.9683250   5.7081970
  95.6400450 131.5620950   5.5164290  96.1385700 132.0366770   6.1816140
  95.7823400 130.6384470   5.7234320 102.8467310 127.7788910   6.3592680
 102.3440910 128.5194310   6.6986490 103.6623970 128.1672910   6.0429470
  89.6190710 141.4708220  10.3411010  90.4203440 141.7920270  10.7546410
  89.1042530 141.1103800  11.0630920  98.4555340 137.5788090  10.2886420
  97.8493500 137.6019690   9.5482170  98.1509450 136.8471130  10.8253670
  99.8855710 141.3068380   8.8995830 100.8377460 141.2226400   8.8496070
  99.7383930 141.9710090   9.5729620  87.3388520 133.9581680   9.2847060
  87.8427540 133.3788960   9.8563290  86.5995940 134.2421910   9.8223430
  94.3926460 135.3652670   8.8182580  93.6272130 135.9337670   8.7337250
  94.5742420 135.0728880   7.9250810 101.5349810 137.0958000   9.3757600
 102.2759280 137.4333760   8.8725060 100.7722490 137.2650060   8.8227370
  89.3711600 132.1011270  10.1797130  89.4116940 131.8025140  11.0882360
  90.2257100 132.5018880  10.0204650  91.3117410 130.6803370   8.1471620
  90.7813870 130.1894320   7.5194960  91.9805480 131.1087570   7.6129550
 100.2095470 135.1472830   7.9112810 100.6236490 135.3017910   8.7603230
  99.2746470 135.2728050   8.0738590 100.6817640 132.4868990   9.9151960
 101.2638410 131.7321310   9.8272440 100.8579410 133.0176430   9.1383440
  91.7989710 127.6465740   8.2268910  91.7046580 127.0286490   7.5019780
  91.2187100 128.3732030   7.9998820  94.5651150 126.2038980   5.2596300
  94.1168450 126.2263240   4.4141850  93.9316350 125.8058000   5.8566600
  94.9710700 135.0993310   5.8808740  95.3898810 135.9426040   5.7084980
  94.0519330 135.2365350   5.6515520  97.3074600 132.8309490   7.2646580
  97.4270810 132.2350630   8.0041420  98.1668600 132.8679180   6.8447880
  99.6462500 133.3846680   5.8409090  99.1197720 133.9089300   5.2374230
  99.9893840 134.0174070   6.4718820  92.8218120 141.4046320   6.9966470
  92.2839210 142.1292380   6.6775170  93.0752080 140.9276660   6.2063810
  94.0743370 129.3730840   8.5222400  94.6643060 129.0646690   9.2100220
  93.2563610 128.9010590   8.6782300  98.8936800 128.9896650   8.7555420
  98.2052320 128.3278190   8.6905410  99.6142820 128.5434920   9.2003880
  95.6780330 142.6397530   7.2553120  95.6039030 143.5432670   7.5625490
  94.7759170 142.3209430   7.2275190  87.5697830 140.8342710   3.2968370
  87.1328820 141.0143510   4.1292520  88.1375510 141.5917330   3.1550090
 103.2060010 140.3359710   7.5845680 102.6062000 140.3952270   6.8409600
 103.3353910 139.3964690   7.7142530 101.8911650 137.0611690   5.6821840
 101.0771490 137.4908850   5.9447630 102.2985850 137.6730100   5.0690890
  88.4398190 133.7315510   4.1960590  88.8071230 133.6442910   5.0756610
  87.8709010 132.9682060   4.0967450 103.2402050 132.1999890   7.2091060
 103.0088140 131.9712640   6.3089010 103.5006600 133.1199440   7.1635950
  87.9914190 130.6424600   8.1019010  87.0970240 130.6091360   8.4412720
  88.5311740 130.8411390   8.8670260 101.6790120 127.4256320   9.9870760
 102.5560300 127.4339720  10.3704760 101.6910960 126.6887160   9.3763110
 103.3043110 131.3625730   4.3978330 102.3545820 131.3289270   4.5123320
 103.4856120 132.2725840   4.1628100  88.4953900 124.9172930   2.4502230
  89.1430090 124.3670310   2.0097390  88.9155740 125.1716080   3.2718040
 102.3906240 125.1114290   5.8071870 103.0278460 125.7248430   6.1731060
 102.5381130 125.1474950   4.8621100  88.2485900 125.0728600   5.1927550
  87.9000720 125.5292420   5.9585730  87.9173600 124.1785730   5.2749980
  89.8550270 138.2448200   9.3580740  89.8119900 137.8741110  10.2395200
  89.9861280 139.1825770   9.4982560  93.5556300 139.8007790   4.9590460
  93.3147660 140.0682350   4.0720980  94.4958940 139.9713520   5.0141320
  95.7610720 126.2640480   8.7146970  95.6999610 126.8562310   9.4642380
  96.7011100 126.1566440   8.5697230  98.3985280 125.9210540   8.3539260
  99.0125690 126.2389830   7.6920340  98.9434840 125.4359130   8.9735120
 104.8160460 141.8202170   5.7601100 104.3218740 142.2171040   5.0428230
 104.2073750 141.1951380   6.1538380  88.9206540 124.6004800   8.4678320
  89.4689530 124.4192850   7.7044430  88.9861850 123.8098910   9.0034630
  89.6938300 141.1910450   6.4778520  89.0998620 141.0595150   7.2168560
  89.6862140 140.3548590   6.0120620  99.1393320 124.4842680   4.6808550
  98.2653160 124.8177790   4.4781480  99.0304070 124.0115860   5.5060420
 100.0465300 126.6913550   6.0650270  99.7178660 125.8765310   5.6852000
 100.9947600 126.6483360   5.9415960 102.4999910 142.4625590   3.0387840
 102.0402880 143.2141400   2.6645860 101.8712370 141.7432060   2.9802640
  89.3250530 138.5568830   5.4286560  88.5984590 137.9374120   5.3612510
  89.3859680 138.9509440   4.5584640  92.9295630 140.7713830   2.2135970
  93.4460650 140.1601190   1.6884230  93.5793010 141.2742610   2.7046980
  95.6691130 141.6622320   3.0404950  95.9568940 141.4076620   2.1637960
  96.1814350 141.1099680   3.6310520  96.8868140 125.4012520   3.6201460
  96.1039930 125.8758020   3.8998220  96.5931070 124.4967350   3.5114640
  95.7363490 142.5838420  10.4073150  96.6630800 142.3482690  10.4509110
  95.7213920 143.4110420   9.9259180  92.9227100 125.2483170  10.1715030
  92.6411370 125.7516770   9.4075850  93.3046800 124.4504920   9.8057160
  99.5242560 124.6636750  10.7495500  99.4108010 124.9831360  11.6447020
 100.3412300 125.0649260  10.4532780 102.3041050 141.8108280  10.2314190
 103.0966370 141.3157510  10.0240150 102.5974200 142.4898420  10.8389800
  98.4300710 113.9085730 150.0821650  98.3494760 112.9940340 149.8113360
  98.0165130 114.4052800 149.3761360 100.5826180 120.0924940 150.7430050
 100.1207710 119.3212180 151.0717220 101.3951730 120.1191010 151.2482500
  88.9876530 110.9586450 146.6249070  88.0993230 111.3002420 146.5228950
  89.2717720 110.7586770 145.7329900  96.8089490 122.3782950 150.3634040
  96.1900930 122.8340450 149.7928480  97.6641270 122.5334410 149.9623740
  91.1637920 109.5417950 147.6587450  91.2704670 110.4421680 147.9656210
  90.2530280 109.4935920 147.3682100 100.8157030 108.6642760 149.1298350
 101.6366650 108.1739330 149.1723830 100.8491110 109.2540420 149.8830190
  97.6752840 117.2622190 147.7565950  97.0570110 117.7271640 147.1928670
  98.1876090 117.9549670 148.1735460  87.0436040 117.9478720 145.1305580
  86.6664020 118.4365820 144.3990480  87.3009110 118.6204000 145.7612110
  94.6524970 106.3495110 150.5891090  94.9599950 105.7942000 149.8726590
  93.7225670 106.4839570 150.4064080 101.4985450 118.7878620 147.9688720
 101.3881780 117.8452950 148.0938140 101.4953700 119.1494260 148.8551480
  97.0405730 114.4143940 147.3251210  96.1135010 114.3481320 147.5539680
  97.1930550 115.3524070 147.2106450  97.0274810 110.6860940 144.3218370
  96.0878480 110.8474900 144.4070830  97.3458070 111.4046620 143.7754360
 101.0703020 115.9764240 147.8286460 100.4515440 115.6383790 147.1812760
 101.0527470 115.3324000 148.5365650  92.6462370 114.9408680 150.1070940
  92.2419370 114.2285930 149.6116840  92.7325490 114.5961920 150.9958980
  99.2467720 115.2151050 144.8359210  99.6861000 114.3773480 144.6897030
  99.9596140 115.8480450 144.9223350  97.3563100 120.1547120 148.8040450
  97.7959010 120.8971450 148.3895840  97.2949990 120.3973690 149.7279410
 102.8284860 106.4693860 143.1500250 102.5157520 106.5620690 144.0499320
 103.5897330 107.0474890 143.0997680  89.3467000 113.8353660 147.6077590
  89.2264600 114.5615750 146.9958860  89.0367890 113.0656570 147.1305500
  88.2300000 118.7068990 149.8252410  87.8228080 118.8483580 148.9706010
  89.1213010 118.4229150 149.6223620 100.0233280 123.1416240 146.1603460
  99.8634420 122.8519180 147.0585290  99.8579990 122.3656370 145.6248690
  92.5021660 122.9214770 147.9375080  92.3264140 122.0050310 147.7242880
  91.6477400 123.2802060 148.1772880  99.7259410 120.6503800 144.7201460
  99.0324570 120.6481090 144.0603740 100.4682270 120.2263120 144.2895630
  99.2909340 122.2766510 148.7949950  99.7466290 121.4955890 149.1088570
  99.6301860 122.9873330 149.3391130  91.8130660 107.1788730 150.9901260
  91.3698810 107.9598270 150.6585780  92.3715650 107.5018620 151.6972200
  94.9289480 106.7999430 145.8707090  94.3043660 106.7959300 146.5960400
  94.8419600 105.9330390 145.4743060  91.6044880 112.3022300 148.7182510
  91.3785800 112.0859470 149.6229130  90.8237410 112.7350760 148.3728480
  98.8342640 112.3085670 147.3173160  98.2351530 113.0321470 147.1336780
  99.3822250 112.2462450 146.5349610  97.4407510 110.9449210 149.3476440
  97.8337080 111.2621410 148.5345130  97.8024360 110.0661090 149.4620960
  86.6641910 111.4770130 142.7809360  86.5816580 112.4200890 142.9224350
  86.3124970 111.3345040 141.9021710  90.3142420 110.0935650 150.8073920
  89.9742470 110.5710880 151.5640970  89.5519740 109.6400770 150.4475020
  94.5260190 111.2121240 144.8386470  94.6473010 111.1707720 145.7872290
  94.1408700 112.0745390 144.6833200  93.5381690 113.5222380 144.2369770
  92.9698590 113.0740630 143.6105680  94.2470690 113.8815160 143.7034920
  87.6288500 109.0154630 149.7238590  87.3435420 108.6510300 150.5617210
  87.5667360 108.2835090 149.1101730  91.0829170 117.5180570 146.5096180
  90.3091430 116.9778190 146.3494900  91.8123800 116.9987180 146.1713940
  97.3027090 107.9083890 146.4451960  96.4891700 107.4097060 146.3697270
  97.1089040 108.7482140 146.0288310 100.0175480 112.2803540 144.7414120
 100.9055100 112.5920770 144.5665460  99.9880570 111.4075790 144.3494700
  91.1266570 117.1860950 150.1474990  91.6445240 116.3829210 150.0931880
  90.6750590 117.1240090 150.9891820  96.0136070 118.4527230 145.4202290
  96.3551770 119.1969460 144.9245610  95.1848780 118.7658350 145.7827120
 102.2889750 113.5915380 144.2093980 102.2053470 114.0229600 143.3590420
 103.0083940 114.0513730 144.6420800 103.3177000 120.4457640 146.9376110
 102.6753160 119.7913260 147.2119830 102.9307660 120.8512730 146.1616780
  98.8963480 117.7743070 150.7847800  99.2487300 117.1771200 150.1249170
  98.0125810 117.4487300 150.9556050  94.9826760 118.5340760 148.1918210
  95.6697890 119.0809970 148.5725800  94.1959180 119.0781490 148.2267820
  87.1219160 114.1513580 143.6835290  87.9914010 114.4338380 143.9671210
  86.6309480 114.9649450 143.5684100  94.2853970 115.5386790 147.8043570
  94.7416750 116.3492040 148.0303760  93.9342180 115.2209930 148.6362060
  90.1865750 105.8824440 148.2766090  90.0580380 105.8742340 149.2251010
  89.3627770 106.2207530 147.9257100 101.7074380 119.3374100 143.4752460
 101.4811960 118.6204540 144.0677100 101.3170580 119.0886540 142.6374210
  87.4890410 123.3640960 144.2496920  87.8488050 123.9630300 143.5954190
  87.3482750 123.9100850 145.0231950 101.2890630 117.2546040 145.1366620
 101.0012330 117.7158730 145.9244500 102.0842800 116.7943810 145.4050840
  93.5059030 120.7472160 145.0670590  93.4969130 121.4801850 144.4515100
  92.5857390 120.5003740 145.1597550  89.1065670 115.9687050 145.8117350
  88.4993620 116.7085950 145.8212650  89.5815020 116.0586410 144.9855550
 102.0460490 109.0894810 146.2961800 101.4173650 109.1940480 145.5820030
 101.5512410 109.3091590 147.0855680  96.4918630 120.8100400 143.7295780
  96.5930610 120.6064390 142.7997760  95.5920370 120.5558680 143.9343560
  94.0144520 111.3680760 147.7119680  93.3060670 111.8367100 148.1533290
  94.2989000 110.7102770 148.3464870  98.0459950 108.0931420 149.1515470
  97.9227730 108.1117550 148.2024980  98.9944510 108.1410360 149.2713870
  95.1336740 123.3286720 148.4243450  95.3878240 123.2908110 147.5022820
  94.1849220 123.2020050 148.4171700  92.2179540 109.6765840 145.0870390
  93.0670070 110.1135990 145.0210580  91.8510810 109.9886100 145.9142450
 101.1389320 114.2478600 150.0001960 100.1979460 114.2628830 150.1749650
 101.4533390 113.4614560 150.4462260  91.1170960 115.9298200 143.5605920
  91.8834230 115.8179560 144.1231350  91.1945650 115.2336170 142.9082690
  89.8117720 113.3623270 144.2438810  89.8921310 112.4150780 144.3556210
  90.7037470 113.6930150 144.3499470  90.6132430 123.5118660 151.3473350
  91.3494910 122.9634120 151.6181920  90.9973350 124.3774670 151.2079340
  87.4977910 119.5792230 147.2214860  86.5717690 119.8213370 147.2120270
  87.9634340 120.4066490 147.0999610  93.7234740 122.6848970 143.1698920
  94.5163350 122.9737800 142.7180710  93.2039090 122.2541140 142.4911400
 102.7764910 121.9119100 144.5935660 102.4906420 121.4984240 143.7789840
 102.5784460 122.8406810 144.4736180  94.2412140 117.9052380 143.0341270
  94.1362780 117.2904730 143.7602650  94.0736360 117.3818270 142.2504280
  97.4814870 116.9672410 143.6383260  96.9324970 117.4141710 144.2826000
  98.1034130 116.4621660 144.1620930  93.1489990 115.9263330 145.5348560
  93.5706410 115.7603200 146.3779950  93.2740830 115.1163560 145.0403700
  95.6617630 114.9500940 142.7825660  96.1823290 114.2349960 142.4166810
  96.3086030 115.5886810 143.0826170  92.0448890 111.9996560 142.4806720
  91.8437950 111.1363920 142.8420060  91.8740940 111.9129920 141.5428320
  99.5237200 106.8104790 145.0093600  99.8039490 105.9672690 145.3653020
  98.7502930 107.0427900 145.5232350  90.8431690 109.0997180 142.4684600
  91.1457590 109.1064610 141.5603750  91.5826280 108.7495040 142.9652260
  94.0616620 108.0431800 143.4540800  93.7138620 107.3655790 142.8743250
  94.2629390 107.5821310 144.2684190  96.2265660 123.0312550 145.0727400
  97.1216450 123.3697520 145.0946160  96.2583290 122.3091960 144.4451680
  89.8661820 118.4039600 143.3014400  90.3036690 118.9469270 143.9571980
  90.3509550 117.5786550 143.3110740  87.0807620 121.1928630 150.7534660
  87.4110630 120.3249690 150.5213300  87.5098620 121.3987150 151.5839620
  91.6769540 119.5237640 148.4136630  91.3765080 119.4002610 149.3140540
  91.5707030 118.6646230 148.0052360 104.4461460 119.3034040 143.1163310
 103.6154420 119.3710690 143.5870540 104.6233290 120.1938160 142.8130170
 103.9017920 116.0481520 145.6197510 104.6636830 116.6178170 145.7257200
 103.9172290 115.4808720 146.3905820  87.4022260 114.5719450 149.8505170
  86.7471100 114.3031090 149.2064870  88.2400210 114.4623930 149.4007150
 104.9077890 116.9031620 150.4639440 105.2786720 116.1198940 150.0575410
 105.5479820 117.5920720 150.2856740 103.9537090 116.3415890 142.7770030
 104.2285930 117.2494770 142.6489250 103.7647830 116.2778420 143.7132020
 100.3512700 109.3660740 144.0723660 100.7697580 109.1791720 143.2320320
 100.0448760 108.5139790 144.3826590 103.8502430 114.2784880 147.7699460
 103.4746030 113.5112810 147.3380750 103.1205550 114.6607580 148.2574390
  86.6160340 111.7818380 145.7930500  85.7124420 112.0448580 145.6182160
  87.1000960 112.0529550 145.0130460  89.1587550 110.8383920 143.7024880
  89.8679250 110.4167140 143.2172160  88.4427490 110.9059150 143.0708230
  88.8061710 106.8923250 142.7427530  89.5289840 107.4332190 143.0608750
  89.0786230 106.6186670 141.8669070 102.6153360 111.7615720 147.0099110
 103.1112480 111.5286590 147.7947990 102.4169430 110.9227560 146.5936750
 104.0440520 110.3976670 149.5436790 103.9339800 110.2432710 150.4819060
 104.8048110 109.8697610 149.3012200 104.9330790 108.2284590 142.7842930
 105.8580100 108.0965770 142.5761220 104.9106580 108.3077410 143.7379380
 105.0069280 108.9995250 145.4099640 104.2120780 108.9340370 145.9392550
 105.2112560 109.9345890 145.3984990 101.9487700 123.0386800 149.4038030
 102.5446770 122.7171370 148.7272450 102.2065850 122.5658620 150.1951300
 103.3027780 106.9607370 149.8707290 103.2416180 106.0168590 149.7238310
 104.0819810 107.0687460 150.4160750  87.6080530 123.0999730 148.8331240
  87.4402570 122.4670410 149.5313130  86.7415040 123.3059130 148.4825430
  88.2308550 106.9316510 146.3363100  88.9887910 107.0445390 145.7627130
  87.7685720 107.7685710 146.2906530  94.7722360 109.0455780 149.3265410
  93.9596870 108.6712670 148.9861290  95.2764000 108.2900860 149.6286600
  99.2747340 105.7098230 150.5648480  99.8776710 106.2818440 151.0397000
  98.5340330 106.2737670 150.3422380 102.4181940 106.1119790 145.8388760
 102.6132570 107.0103240 146.1056190 101.6311810 105.8806870 146.3321710
  89.2143230 121.7932960 146.2781380  88.6890850 122.1740990 145.5743340
  89.1387810 122.4183730 146.9991090  90.6033700 107.4580560 144.8765070
  91.1326460 106.6710360 144.7473020  91.2362020 108.1371750 145.1100600
  92.7971540 107.1955700 147.9310460  92.1674280 106.4943010 148.0980590
  92.2576680 107.9559830 147.7143620 103.9708550 123.3520500 147.5995320
 104.1460740 122.6658240 146.9556240 103.2730120 123.8767550 147.2071990
  91.8136200 123.7415340 145.1530630  92.5455020 123.4574620 144.6054520
  92.0729870 123.5028620 146.0430010  90.9750990 119.8580070 145.1576960
  90.3459870 120.3265170 145.7062790  91.0898820 119.0129290 145.5923150
  98.4300710 113.9085730 131.3078160  98.3494760 112.9940340 131.0369870
  98.0165130 114.4052800 130.6017870  96.5618750 115.6864750 133.1887430
  95.7860850 115.2065190 133.4786000  97.2131680 115.0070400 133.0143590
  90.5784580 115.9984560 134.0663190  89.7469460 115.7433270 134.4659700
  91.1865560 116.0695330 134.8021110 100.5826180 120.0924940 131.9686560
 100.1207710 119.3212180 132.2973730 101.3951730 120.1191010 132.4739010
  90.5585840 120.0324650 134.2621210  90.8613880 119.1422390 134.0831430
  91.3029430 120.5894870 134.0343460  88.9876530 110.9586450 127.8505580
  88.0993230 111.3002420 127.7485460  89.2717720 110.7586770 126.9586410
  86.9509540 113.5592100 133.7345280  87.5225650 112.7914300 133.7348920
  86.9511080 113.8580860 132.8251890  96.8089490 122.3782950 131.5890550
  96.1900930 122.8340450 131.0184990  97.6641270 122.5334410 131.1880250
  96.0027740 118.3621940 133.1957590  95.9336020 117.4211880 133.0346720
  96.7647600 118.4523350 133.7680160  88.1934410 108.9676460 135.5214210
  88.0137250 108.0702210 135.8016970  87.7914490 109.5148330 136.1961160
  97.0332910 111.1692320 133.4226520  97.4097730 110.2964200 133.3100190
  96.9352420 111.5051020 132.5316960 100.8157030 108.6642760 130.3554860
 101.6366650 108.1739330 130.3980340 100.8491110 109.2540420 131.1086700
  88.8121080 111.4636960 134.1296550  89.4931190 111.7275330 134.7483950
  88.4969130 110.6237830 134.4634560  93.0045650 112.5104320 133.2169140
  93.5123870 113.0085290 133.8574160  93.5358890 111.7339520 133.0408500
 105.1056580 110.6809510 136.9198490 104.4008750 111.0691220 136.4013600
 105.3714500 111.3759800 137.5219420  91.2881750 107.1502880 137.4832560
  91.2900190 107.6675270 136.6778460  90.4586060 106.6733060 137.4602490
  97.6752840 117.2622190 128.9822460  97.0570110 117.7271640 128.4185180
  98.1876090 117.9549670 129.3991970  92.5384600 116.7898060 135.6606060
  92.2053980 117.4166980 136.3027130  92.7151280 117.3159940 134.8807730
 101.0518510 110.6043140 133.1282400 100.3474080 110.8928030 133.7085510
 101.4130670 111.4143250 132.7681960  90.9697080 108.8612840 135.4903010
  91.3113890 109.7054890 135.1956880  90.0312890 109.0096580 135.6068350
  91.7503700 118.7578860 137.4755240  92.3677700 119.4329940 137.1939690
  90.8896820 119.1666840 137.3842740  87.0436040 117.9478720 126.3562090
  86.6664020 118.4365820 125.6246990  87.3009110 118.6204000 126.9868620
 102.6681290 120.2218270 135.3909880 101.9844810 120.8917380 135.3826550
 103.2075580 120.4198920 134.6254740 104.1205430 110.0497930 133.5191610
 103.1730340 110.0836910 133.6507040 104.4455420 110.8636880 133.9040970
  94.6524970 106.3495110 131.8147600  94.9599950 105.7942000 131.0983100
  93.7225670 106.4839570 131.6320590 100.2040030 122.0662400 134.1055060
 100.2167190 121.6624690 133.2377320  99.6515250 122.8409690 134.0016490
 101.4985450 118.7878620 129.1945230 101.3881780 117.8452950 129.3194650
 101.4953700 119.1494260 130.0807990  99.6025470 116.9692240 135.4337670
 100.0194260 116.7552350 134.5991130 100.3265290 117.2265030 136.0046290
  97.0405730 114.4143940 128.5507720  96.1135010 114.3481320 128.7796190
  97.1930550 115.3524070 128.4362960 103.5487570 115.3679460 135.5253910
 102.7206200 115.4372550 135.0504040 104.1438050 115.9533770 135.0569740
 101.0703020 115.9764240 129.0542970 100.4515440 115.6383790 128.4069270
 101.0527470 115.3324000 129.7622160 100.5129580 112.1548780 136.4708780
 100.1000760 112.9802490 136.7248770  99.7805530 111.5693820 136.2785140
  92.6462370 114.9408680 131.3327450  92.2419370 114.2285930 130.8373350
  92.7325490 114.5961920 132.2215490  93.1144070 118.6276240 133.4966660
  92.8172360 118.0221710 132.8174440  94.0643890 118.6653550 133.3856020
  91.3590990 111.7151890 135.1126490  91.9105580 111.8247230 134.3379740
  91.8734500 112.0889490 135.8281720 101.2029680 122.2008110 137.1589760
 100.7260240 123.0080300 136.9662370 100.5191470 121.5486440 137.3115970
  92.2062500 118.3657930 140.1474460  91.3091030 118.5897900 140.3947860
  92.2315370 118.4892870 139.1985860  99.2467720 115.2151050 126.0615720
  99.6861000 114.3773480 125.9153540  99.9596140 115.8480450 126.1479860
  91.0333720 115.2371250 138.7231830  90.8941490 116.1094050 139.0919230
  90.1515080 114.8944060 138.5779770  97.3563100 120.1547120 130.0296960
  97.7959010 120.8971450 129.6152350  97.2949990 120.3973690 130.9535920
  92.8314070 121.1792950 140.9316980  92.8029500 121.5835900 140.0645410
  92.6679040 120.2503310 140.7688580  89.3467000 113.8353660 128.8334100
  89.2264600 114.5615750 128.2215370  89.0367890 113.0656570 128.3562010
 104.7828890 121.9620050 142.2281150 105.2588610 122.4402940 142.9070230
 105.4036050 121.8937540 141.5026650  86.9852370 117.0068800 134.6402740
  87.0632790 117.1417570 133.6958460  87.5994050 116.2984690 134.8330860
  88.2300000 118.7068990 131.0508920  87.8228080 118.8483580 130.1962520
  89.1213010 118.4229150 130.8480130 104.1862140 119.1532900 139.3881160
 104.3125200 118.9144780 138.4698340 104.2283520 118.3217440 139.8603240
  98.0478880 122.8560900 137.9575970  98.5623550 122.7668910 138.7598400
  97.2047960 123.2020600 138.2503880 100.0233280 123.1416240 127.3859970
  99.8634420 122.8519180 128.2841800  99.8579990 122.3656370 126.8505200
  92.5021660 122.9214770 129.1631590  92.3264140 122.0050310 128.9499390
  91.6477400 123.2802060 129.4029390  99.7259410 120.6503800 125.9457970
  99.0324570 120.6481090 125.2860250 100.4682270 120.2263120 125.5152140
  99.2909340 122.2766510 130.0206460  99.7466290 121.4955890 130.3345080
  99.6301860 122.9873330 130.5647640 104.0386150 111.2065360 140.3530900
 103.4230420 111.7145030 139.8246360 103.7182570 110.3063690 140.2956840
  87.0411890 118.0482970 137.1797200  87.2042930 117.5788330 136.3616570
  87.5064340 117.5406530 137.8446040  91.8130660 107.1788730 132.2157770
  91.3698810 107.9598270 131.8842290  92.3715650 107.5018620 132.9228710
  96.1000470 110.0457250 137.8193090  95.6379840 110.2540270 138.6313030
  95.6978580 109.2316600 137.5163760 101.1004980 111.2666200 138.9489750
 100.2498570 110.9671950 139.2698820 100.9406770 111.5108210 138.0373570
  98.1954690 112.7667950 141.0488540  98.5208100 111.9331700 140.7090770
  98.9835020 113.2896470 141.1966870  93.8506560 107.7236060 134.0747370
  94.1478890 108.6298890 133.9939390  94.3992120 107.2354840 133.4606940
  91.6044880 112.3022300 129.9439020  91.3785800 112.0859470 130.8485640
  90.8237410 112.7350760 129.5984990  98.8342640 112.3085670 128.5429670
  98.2351530 113.0321470 128.3593290  99.3822250 112.2462450 127.7606120
  94.0444090 113.2007880 140.6099290  93.9487690 112.2602610 140.4599690
  94.8876070 113.4222950 140.2147360  97.4407510 110.9449210 130.5732950
  97.8337080 111.2621410 129.7601640  97.8024360 110.0661090 130.6877470
  89.1754630 109.6121550 138.7633070  88.7818020 110.4596760 138.9705850
  88.4873030 108.9747920 138.9541710  95.7499680 109.6956520 141.8329810
  95.0598000 109.5028720 142.4675900  96.4931980 109.9791160 142.3654110
  86.4771680 107.5350010 132.7963150  86.1884730 108.1052870 133.5088130
  87.2217440 107.0554460 133.1594380  98.0262650 113.5354960 134.6683730
  97.2943770 114.0441770 135.0173830  97.6286990 112.7184940 134.3672510
  94.4640040 110.2109160 133.0736220  94.4676100 109.7699110 132.2240760
  95.3591160 110.5326490 133.1808040  90.3142420 110.0935650 132.0330430
  89.9742470 110.5710880 132.7897480  89.5519740 109.6400770 131.6731530
  98.4888560 108.9888640 134.0806670  98.5061300 109.4397290 134.9248520
  98.2404140 108.0894280 134.2940110 101.9159310 106.4020820 139.9193050
 102.2405080 105.6710480 140.4451030 101.9515820 106.0834460 139.0174040
  88.6150870 117.4234400 139.3393010  88.2305660 116.7828070 139.9375970
  88.9263060 118.1270520 139.9087740  94.7648010 114.2710940 134.8201630
  95.1318140 113.7969510 135.5662970  94.5753070 115.1452510 135.1609970
  87.6288500 109.0154630 130.9495100  87.3435420 108.6510300 131.7873720
  87.5667360 108.2835090 130.3358240  92.5547380 113.3119580 137.1385840
  92.2504450 114.1911560 137.3636200  93.5093840 113.3719370 137.1743280
  91.0829170 117.5180570 127.7352690  90.3091430 116.9778190 127.5751410
  91.8123800 116.9987180 127.3970450 101.8417150 116.5145930 133.5279080
 102.5616270 117.0101220 133.1375190 101.6398970 115.8363820 132.8832950
  97.2235950 116.5854990 139.4148080  97.1573260 115.6650660 139.1605670
  96.5941090 116.6830430 140.1292720  91.1266570 117.1860950 131.3731500
  91.6445240 116.3829210 131.3188390  90.6750590 117.1240090 132.2148330
  96.0136070 118.4527230 126.6458800  96.3551770 119.1969460 126.1502120
  95.1848780 118.7658350 127.0083630  88.6111110 114.1522320 138.2857200
  88.2526050 114.8176170 138.8730540  88.3165670 113.3205870 138.6569820
  91.8124230 114.6106560 141.1696750  91.5124370 114.7563740 140.2724570
  92.5835470 114.0511850 141.0770140  97.1552680 119.4075560 139.1651880
  97.1697220 118.4756520 138.9470790  96.4477780 119.4935320 139.8041650
 103.3663890 116.0482900 138.5120460 102.6412080 116.6411680 138.3149850
 103.8939350 116.0406440 137.7133830 103.3177000 120.4457640 128.1632620
 102.6753160 119.7913260 128.4376340 102.9307660 120.8512730 127.3873290
  98.8963480 117.7743070 132.0104310  99.2487300 117.1771200 131.3505680
  98.0125810 117.4487300 132.1812560  94.9826760 118.5340760 129.4174720
  95.6697890 119.0809970 129.7982310  94.1959180 119.0781490 129.4524330
  94.2853970 115.5386790 129.0300080  94.7416750 116.3492040 129.2560270
  93.9342180 115.2209930 129.8618570  96.5886580 121.0493130 136.2592380
  97.2328800 121.2552510 136.9365800  96.9516020 120.2881530 135.8063230
  90.1865750 105.8824440 129.5022600  90.0580380 105.8742340 130.4507520
  89.3627770 106.2207530 129.1513610  97.8618660 119.0525480 134.9769830
  98.5040890 118.3518640 135.0902000  98.3868010 119.8323920 134.7966720
 101.7074380 119.3374100 124.7008970 101.4811960 118.6204540 125.2933610
 101.3170580 119.0886540 123.8630720  99.6356280 119.8520380 138.1805890
  99.9712520 120.4387070 138.8583810  98.7156620 119.7213090 138.4103680
  87.4890410 123.3640960 125.4753430  87.8488050 123.9630300 124.8210700
  87.3482750 123.9100850 126.2488460  87.1859680 107.6415560 138.9629300
  86.4718200 107.8412480 139.5681910  87.6054720 106.8655130 139.3344100
 101.2890630 117.2546040 126.3623130 101.0012330 117.7158730 127.1501010
 102.0842800 116.7943810 126.6307350  87.4732270 121.6295820 139.9495830
  87.5823390 120.6890560 139.8091220  86.8212830 121.8950570 139.3009560
  95.4644860 119.9011710 141.3493950  95.1441730 119.1820950 141.8939640
  94.7903220 120.5766780 141.4230010  93.5059030 120.7472160 126.2927100
  93.4969130 121.4801850 125.6771610  92.5857390 120.5003740 126.3854060
  89.1065670 115.9687050 127.0373860  88.4993620 116.7085950 127.0469160
  89.5815020 116.0586410 126.2112060  98.6798460 110.1337870 136.7130750
  99.0479280 109.3133080 137.0410320  97.8196660 110.1939760 137.1286400
 102.0460490 109.0894810 127.5218310 101.4173650 109.1940480 126.8076540
 101.5512410 109.3091590 128.3112190  96.4918630 120.8100400 124.9552290
  96.5930610 120.6064390 124.0254270  95.5920370 120.5558680 125.1600070
  95.6400450 112.7877460 136.9368720  96.1385700 113.2623280 137.6020570
  95.7823400 111.8640980 137.1438750  98.0459950 108.0931420 130.3771980
  97.9227730 108.1117550 129.4281490  98.9944510 108.1410360 130.4970380
  95.1336740 123.3286720 129.6499960  95.3878240 123.2908110 128.7279330
  94.1849220 123.2020050 129.6428210 102.8467310 109.0045420 137.7797110
 102.3440910 109.7450820 138.1190920 103.6623970 109.3929420 137.4633900
 101.1389320 114.2478600 131.2258470 100.1979460 114.2628830 131.4006160
 101.4533390 113.4614560 131.6718770  91.1170960 115.9298200 124.7862430
  91.8834230 115.8179560 125.3487860  91.1945650 115.2336170 124.1339200
  89.8117720 113.3623270 125.4695320  89.8921310 112.4150780 125.5812720
  90.7037470 113.6930150 125.5755980 103.1414900 121.4187450 132.9012730
 103.2662320 122.2418620 133.3736540 104.0080460 121.2078180 132.5536880
  90.6132430 123.5118660 132.5729860  91.3494910 122.9634120 132.8438430
  90.9973350 124.3774670 132.4335850  87.4977910 119.5792230 128.4471370
  86.5717690 119.8213370 128.4376780  87.9634340 120.4066490 128.3256120
  89.6190710 122.6964730 141.7615440  90.4203440 123.0176780 142.1750840
  89.1042530 122.3360310 142.4835350  93.7234740 122.6848970 124.3955430
  94.5163350 122.9737800 123.9437220  93.2039090 122.2541140 123.7167910
  98.4555340 118.8044600 141.7090850  97.8493500 118.8276200 140.9686600
  98.1509450 118.0727640 142.2458100  99.8855710 122.5324890 140.3200260
 100.8377460 122.4482910 140.2700500  99.7383930 123.1966600 140.9934050
 102.7764910 121.9119100 125.8192170 102.4906420 121.4984240 125.0046350
 102.5784460 122.8406810 125.6992690  87.3388520 115.1838190 140.7051490
  87.8427540 114.6045470 141.2767720  86.5995940 115.4678420 141.2427860
  94.2412140 117.9052380 124.2597780  94.1362780 117.2904730 124.9859160
  94.0736360 117.3818270 123.4760790  94.3926460 116.5909180 140.2387010
  93.6272130 117.1594180 140.1541680  94.5742420 116.2985390 139.3455240
  97.4814870 116.9672410 124.8639770  96.9324970 117.4141710 125.5082510
  98.1034130 116.4621660 125.3877440 101.5349810 118.3214510 140.7962030
 102.2759280 118.6590270 140.2929490 100.7722490 118.4906570 140.2431800
  89.3711600 113.3267780 141.6001560  89.4116940 113.0281650 142.5086790
  90.2257100 113.7275390 141.4409080  93.1489990 115.9263330 126.7605070
  93.5706410 115.7603200 127.6036460  93.2740830 115.1163560 126.2660210
  91.3117410 111.9059880 139.5676050  90.7813870 111.4150830 138.9399390
  91.9805480 112.3344080 139.0333980 100.2095470 116.3729340 139.3317240
 100.6236490 116.5274420 140.1807660  99.2746470 116.4984560 139.4943020
 100.6817640 113.7125500 141.3356390 101.2638410 112.9577820 141.2476870
 100.8579410 114.2432940 140.5587870  91.7989710 108.8722250 139.6473340
  91.7046580 108.2543000 138.9224210  91.2187100 109.5988540 139.4203250
  94.5651150 107.4295490 136.6800730  94.1168450 107.4519750 135.8346280
  93.9316350 107.0314510 137.2771030  94.9710700 116.3249820 137.3013170
  95.3898810 117.1682550 137.1289410  94.0519330 116.4621860 137.0719950
  97.3074600 114.0566000 138.6851010  97.4270810 113.4607140 139.4245850
  98.1668600 114.0935690 138.2652310  99.6462500 114.6103190 137.2613520
  99.1197720 115.1345810 136.6578660  99.9893840 115.2430580 137.8923250
  92.8218120 122.6302830 138.4170900  92.2839210 123.3548890 138.0979600
  93.0752080 122.1533170 137.6268240  94.0743370 110.5987350 139.9426830
  94.6643060 110.2903200 140.6304650  93.2563610 110.1267100 140.0986730
  98.8936800 110.2153160 140.1759850  98.2052320 109.5534700 140.1109840
  99.6142820 109.7691430 140.6208310  95.6780330 123.8654040 138.6757550
  95.6039030 124.7689180 138.9829920  94.7759170 123.5465940 138.6479620
  96.2265660 123.0312550 126.2983910  97.1216450 123.3697520 126.3202670
  96.2583290 122.3091960 125.6708190  89.8661820 118.4039600 124.5270910
  90.3036690 118.9469270 125.1828490  90.3509550 117.5786550 124.5367250
  87.0807620 121.1928630 131.9791170  87.4110630 120.3249690 131.7469810
  87.5098620 121.3987150 132.8096130  91.6769540 119.5237640 129.6393140
  91.3765080 119.4002610 130.5397050  91.5707030 118.6646230 129.2308870
  87.5697830 122.0599220 134.7172800  87.1328820 122.2400020 135.5496950
  88.1375510 122.8173840 134.5754520 103.2060010 121.5616220 139.0050110
 102.6062000 121.6208780 138.2614030 103.3353910 120.6221200 139.1346960
 104.4461460 119.3034040 124.3419820 103.6154420 119.3710690 124.8127050
 104.6233290 120.1938160 124.0386680 103.9017920 116.0481520 126.8454020
 104.6636830 116.6178170 126.9513710 103.9172290 115.4808720 127.6162330
  87.4022260 114.5719450 131.0761680  86.7471100 114.3031090 130.4321380
  88.2400210 114.4623930 130.6263660 104.9077890 116.9031620 131.6895950
 105.2786720 116.1198940 131.2831920 105.5479820 117.5920720 131.5113250
 101.8911650 118.2868200 137.1026270 101.0771490 118.7165360 137.3652060
 102.2985850 118.8986610 136.4895320 103.8502430 114.2784880 128.9955970
 103.4746030 113.5112810 128.5637260 103.1205550 114.6607580 129.4830900
  88.4398190 114.9572020 135.6165020  88.8071230 114.8699420 136.4961040
  87.8709010 114.1938570 135.5171880 103.2402050 113.4256400 138.6295490
 103.0088140 113.1969150 137.7293440 103.5006600 114.3455950 138.5840380
  87.9914190 111.8681110 139.5223440  87.0970240 111.8347870 139.8617150
  88.5311740 112.0667900 140.2874690 101.6790120 108.6512830 141.4075190
 102.5560300 108.6596230 141.7909190 101.6910960 107.9143670 140.7967540
  86.6160340 111.7818380 127.0187010  85.7124420 112.0448580 126.8438670
  87.1000960 112.0529550 126.2386970 103.1253390 112.5042370 132.2963210
 103.6490870 112.0105020 131.6653380 103.7112810 112.6392730 133.0410780
 103.3043110 112.5882240 135.8182760 102.3545820 112.5545780 135.9327750
 103.4856120 113.4982350 135.5832530  88.4953900 106.1429440 133.8706660
  89.1430090 105.5926820 133.4301820  88.9155740 106.3972590 134.6922470
 104.0440520 110.3976670 130.7693300 103.9339800 110.2432710 131.7075570
 104.8048110 109.8697610 130.5268710 102.3906240 106.3370800 137.2276300
 103.0278460 106.9504940 137.5935490 102.5381130 106.3731460 136.2825530
 101.9487700 123.0386800 130.6294540 102.5446770 122.7171370 129.9528960
 102.2065850 122.5658620 131.4207810  88.2485900 106.2985110 136.6131980
  87.9000720 106.7548930 137.3790160  87.9173600 105.4042240 136.6954410
  89.8550270 119.4704710 140.7785170  89.8119900 119.0997620 141.6599630
  89.9861280 120.4082280 140.9186990  93.5556300 121.0264300 136.3794890
  93.3147660 121.2938860 135.4925410  94.4958940 121.1970030 136.4345750
  95.7610720 107.4896990 140.1351400  95.6999610 108.0818820 140.8846810
  96.7011100 107.3822950 139.9901660  98.3985280 107.1467050 139.7743690
  99.0125690 107.4646340 139.1124770  98.9434840 106.6615640 140.3939550
 104.8160460 123.0458680 137.1805530 104.3218740 123.4427550 136.4632660
 104.2073750 122.4207890 137.5742810  88.9206540 105.8261310 139.8882750
  89.4689530 105.6449360 139.1248860  88.9861850 105.0355420 140.4239060
  89.6938300 122.4166960 137.8982950  89.0998620 122.2851660 138.6372990
  89.6862140 121.5805100 137.4325050  99.1393320 105.7099190 136.1012980
  98.2653160 106.0434300 135.8985910  99.0304070 105.2372370 136.9264850
 100.0465300 107.9170060 137.4854700  99.7178660 107.1021820 137.1056430
 100.9947600 107.8739870 137.3620390 102.4999910 123.6882100 134.4592270
 102.0402880 124.4397910 134.0850290 101.8712370 122.9688570 134.4007070
  89.3250530 119.7825340 136.8490990  88.5984590 119.1630630 136.7816940
  89.3859680 120.1765950 135.9789070  92.9295630 121.9970340 133.6340400
  93.4460650 121.3857700 133.1088660  93.5793010 122.4999120 134.1251410
  95.6691130 122.8878830 134.4609380  95.9568940 122.6333130 133.5842390
  96.1814350 122.3356190 135.0514950  96.8868140 106.6269030 135.0405890
  96.1039930 107.1014530 135.3202650  96.5931070 105.7223860 134.9319070
 101.4389210 107.3292130 133.0854980 101.8797300 107.2737230 132.2376580
 101.1696800 108.2450140 133.1565160 103.3027780 106.9607370 131.0963800
 103.2416180 106.0168590 130.9494820 104.0819810 107.0687460 131.6417260
  87.6080530 123.0999730 130.0587750  87.4402570 122.4670410 130.7569640
  86.7415040 123.3059130 129.7081940  88.2308550 106.9316510 127.5619610
  88.9887910 107.0445390 126.9883640  87.7685720 107.7685710 127.5163040
  94.7722360 109.0455780 130.5521920  93.9596870 108.6712670 130.2117800
  95.2764000 108.2900860 130.8543110  99.2747340 105.7098230 131.7904990
  99.8776710 106.2818440 132.2653510  98.5340330 106.2737670 131.5678890
 102.4181940 106.1119790 127.0645270 102.6132570 107.0103240 127.3312700
 101.6311810 105.8806870 127.5578220  89.2143230 121.7932960 127.5037890
  88.6890850 122.1740990 126.7999850  89.1387810 122.4183730 128.2247600
  95.7363490 123.8094930 141.8277580  96.6630800 123.5739200 141.8713540
  95.7213920 124.6366930 141.3463610 103.9708550 123.3520500 128.8251830
 104.1460740 122.6658240 128.1812750 103.2730120 123.8767550 128.4328500
  92.9227100 106.4739680 141.5919460  92.6411370 106.9773280 140.8280280
  93.3046800 105.6761430 141.2261590  91.8136200 123.7415340 126.3787140
  92.5455020 123.4574620 125.8311030  92.0729870 123.5028620 127.2686520
  90.9750990 119.8580070 126.3833470  90.3459870 120.3265170 126.9319300
  91.0898820 119.0129290 126.8179660  99.5242560 105.8893260 142.1699930
  99.4108010 106.2087870 143.0651450 100.3412300 106.2905770 141.8737210
 102.3041050 123.0364790 141.6518620 103.0966370 122.5414020 141.4444580
 102.5974200 123.7154930 142.2594230  90.5784580 115.9984560 115.2919700
  89.7469460 115.7433270 115.6916210  91.1865560 116.0695330 116.0277620
 100.5826180 120.0924940 113.1943070 100.1207710 119.3212180 113.5230240
 101.3951730 120.1191010 113.6995520  90.5585840 120.0324650 115.4877720
  90.8613880 119.1422390 115.3087940  91.3029430 120.5894870 115.2599970
  88.9876530 110.9586450 109.0762090  88.0993230 111.3002420 108.9741970
  89.2717720 110.7586770 108.1842920  96.0027740 118.3621940 114.4214100
  95.9336020 117.4211880 114.2603230  96.7647600 118.4523350 114.9936670
 100.8157030 108.6642760 111.5811370 101.6366650 108.1739330 111.6236850
 100.8491110 109.2540420 112.3343210  91.2881750 107.1502880 118.7089070
  91.2900190 107.6675270 117.9034970  90.4586060 106.6733060 118.6859000
  97.6752840 117.2622190 110.2078970  97.0570110 117.7271640 109.6441690
  98.1876090 117.9549670 110.6248480  92.5384600 116.7898060 116.8862570
  92.2053980 117.4166980 117.5283640  92.7151280 117.3159940 116.1064240
  90.9697080 108.8612840 116.7159520  91.3113890 109.7054890 116.4213390
  90.0312890 109.0096580 116.8324860  91.7503700 118.7578860 118.7011750
  92.3677700 119.4329940 118.4196200  90.8896820 119.1666840 118.6099250
  87.0436040 117.9478720 107.5818600  86.6664020 118.4365820 106.8503500
  87.3009110 118.6204000 108.2125130 102.6681290 120.2218270 116.6166390
 101.9844810 120.8917380 116.6083060 103.2075580 120.4198920 115.8511250
  94.6524970 106.3495110 113.0404110  94.9599950 105.7942000 112.3239610
  93.7225670 106.4839570 112.8577100 100.2040030 122.0662400 115.3311570
 100.2167190 121.6624690 114.4633830  99.6515250 122.8409690 115.2273000
 101.4985450 118.7878620 110.4201740 101.3881780 117.8452950 110.5451160
 101.4953700 119.1494260 111.3064500  99.6025470 116.9692240 116.6594180
 100.0194260 116.7552350 115.8247640 100.3265290 117.2265030 117.2302800
  97.0274810 110.6860940 106.7731390  96.0878480 110.8474900 106.8583850
  97.3458070 111.4046620 106.2267380 103.5487570 115.3679460 116.7510420
 102.7206200 115.4372550 116.2760550 104.1438050 115.9533770 116.2826250
 101.0703020 115.9764240 110.2799480 100.4515440 115.6383790 109.6325780
 101.0527470 115.3324000 110.9878670  93.1144070 118.6276240 114.7223170
  92.8172360 118.0221710 114.0430950  94.0643890 118.6653550 114.6112530
 101.2029680 122.2008110 118.3846270 100.7260240 123.0080300 118.1918880
 100.5191470 121.5486440 118.5372480  92.2062500 118.3657930 121.3730970
  91.3091030 118.5897900 121.6204370  92.2315370 118.4892870 120.4242370
  91.0333720 115.2371250 119.9488340  90.8941490 116.1094050 120.3175740
  90.1515080 114.8944060 119.8036280 102.8284860 106.4693860 105.6013270
 102.5157520 106.5620690 106.5012340 103.5897330 107.0474890 105.5510700
  89.3467000 113.8353660 110.0590610  89.2264600 114.5615750 109.4471880
  89.0367890 113.0656570 109.5818520 104.7828890 121.9620050 123.4537660
 105.2588610 122.4402940 124.1326740 105.4036050 121.8937540 122.7283160
  86.9852370 117.0068800 115.8659250  87.0632790 117.1417570 114.9214970
  87.5994050 116.2984690 116.0587370  88.2300000 118.7068990 112.2765430
  87.8228080 118.8483580 111.4219030  89.1213010 118.4229150 112.0736640
 104.1862140 119.1532900 120.6137670 104.3125200 118.9144780 119.6954850
 104.2283520 118.3217440 121.0859750  92.5021660 122.9214770 110.3888100
  92.3264140 122.0050310 110.1755900  91.6477400 123.2802060 110.6285900
  91.8130660 107.1788730 113.4414280  91.3698810 107.9598270 113.1098800
  92.3715650 107.5018620 114.1485220  94.9289480 106.7999430 108.3220110
  94.3043660 106.7959300 109.0473420  94.8419600 105.9330390 107.9256080
  93.8506560 107.7236060 115.3003880  94.1478890 108.6298890 115.2195900
  94.3992120 107.2354840 114.6863450  86.6641910 111.4770130 105.2322380
  86.5816580 112.4200890 105.3737370  86.3124970 111.3345040 104.3534730
  98.0262650 113.5354960 115.8940240  97.2943770 114.0441770 116.2430340
  97.6286990 112.7184940 115.5929020  87.6288500 109.0154630 112.1751610
  87.3435420 108.6510300 113.0130230  87.5667360 108.2835090 111.5614750
 101.8417150 116.5145930 114.7535590 102.5616270 117.0101220 114.3631700
 101.6398970 115.8363820 114.1089460  97.3027090 107.9083890 108.8964980
  96.4891700 107.4097060 108.8210290  97.1089040 108.7482140 108.4801330
  97.2235950 116.5854990 120.6404590  97.1573260 115.6650660 120.3862180
  96.5941090 116.6830430 121.3549230 100.0175480 112.2803540 107.1927140
 100.9055100 112.5920770 107.0178480  99.9880570 111.4075790 106.8007720
  91.1266570 117.1860950 112.5988010  91.6445240 116.3829210 112.5444900
  90.6750590 117.1240090 113.4404840 102.2889750 113.5915380 106.6607000
 102.2053470 114.0229600 105.8103440 103.0083940 114.0513730 107.0933820
 103.3177000 120.4457640 109.3889130 102.6753160 119.7913260 109.6632850
 102.9307660 120.8512730 108.6129800  98.8963480 117.7743070 113.2360820
  99.2487300 117.1771200 112.5762190  98.0125810 117.4487300 113.4069070
  94.9826760 118.5340760 110.6431230  95.6697890 119.0809970 111.0238820
  94.1959180 119.0781490 110.6780840  87.1219160 114.1513580 106.1348310
  87.9914010 114.4338380 106.4184230  86.6309480 114.9649450 106.0197120
  90.1865750 105.8824440 110.7279110  90.0580380 105.8742340 111.6764030
  89.3627770 106.2207530 110.3770120 101.2890630 117.2546040 107.5879640
 101.0012330 117.7158730 108.3757520 102.0842800 116.7943810 107.8563860
  87.4732270 121.6295820 121.1752340  87.5823390 120.6890560 121.0347730
  86.8212830 121.8950570 120.5266070  89.1065670 115.9687050 108.2630370
  88.4993620 116.7085950 108.2725670  89.5815020 116.0586410 107.4368570
 102.0460490 109.0894810 108.7474820 101.4173650 109.1940480 108.0333050
 101.5512410 109.3091590 109.5368700  98.0459950 108.0931420 111.6028490
  97.9227730 108.1117550 110.6538000  98.9944510 108.1410360 111.7226890
  95.1336740 123.3286720 110.8756470  95.3878240 123.2908110 109.9535840
  94.1849220 123.2020050 110.8684720  92.2179540 109.6765840 107.5383410
  93.0670070 110.1135990 107.4723600  91.8510810 109.9886100 108.3655470
 101.1389320 114.2478600 112.4514980 100.1979460 114.2628830 112.6262670
 101.4533390 113.4614560 112.8975280  89.8117720 113.3623270 106.6951830
  89.8921310 112.4150780 106.8069230  90.7037470 113.6930150 106.8012490
 103.1414900 121.4187450 114.1269240 103.2662320 122.2418620 114.5993050
 104.0080460 121.2078180 113.7793390  90.6132430 123.5118660 113.7986370
  91.3494910 122.9634120 114.0694940  90.9973350 124.3774670 113.6592360
  87.4977910 119.5792230 109.6727880  86.5717690 119.8213370 109.6633290
  87.9634340 120.4066490 109.5512630  89.6190710 122.6964730 122.9871950
  90.4203440 123.0176780 123.4007350  89.1042530 122.3360310 123.7091860
  98.4555340 118.8044600 122.9347360  97.8493500 118.8276200 122.1943110
  98.1509450 118.0727640 123.4714610 101.5349810 118.3214510 122.0218540
 102.2759280 118.6590270 121.5186000 100.7722490 118.4906570 121.4688310
  91.3117410 111.9059880 120.7932560  90.7813870 111.4150830 120.1655900
  91.9805480 112.3344080 120.2590490 100.2095470 116.3729340 120.5573750
 100.6236490 116.5274420 121.4064170  99.2746470 116.4984560 120.7199530
  91.7989710 108.8722250 120.8729850  91.7046580 108.2543000 120.1480720
  91.2187100 109.5988540 120.6459760  94.5651150 107.4295490 117.9057240
  94.1168450 107.4519750 117.0602790  93.9316350 107.0314510 118.5027540
  94.9710700 116.3249820 118.5269680  95.3898810 117.1682550 118.3545920
  94.0519330 116.4621860 118.2976460  99.6462500 114.6103190 118.4870030
  99.1197720 115.1345810 117.8835170  99.9893840 115.2430580 119.1179760
  92.0448890 111.9996560 104.9319740  91.8437950 111.1363920 105.2933080
  91.8740940 111.9129920 103.9941340  99.5237200 106.8104790 107.4606620
  99.8039490 105.9672690 107.8166040  98.7502930 107.0427900 107.9745370
  87.0807620 121.1928630 113.2047680  87.4110630 120.3249690 112.9726320
  87.5098620 121.3987150 114.0352640  91.6769540 119.5237640 110.8649650
  91.3765080 119.4002610 111.7653560  91.5707030 118.6646230 110.4565380
  87.5697830 122.0599220 115.9429310  87.1328820 122.2400020 116.7753460
  88.1375510 122.8173840 115.8011030 103.2060010 121.5616220 120.2306620
 102.6062000 121.6208780 119.4870540 103.3353910 120.6221200 120.3603470
 104.4461460 119.3034040 105.5676330 103.6154420 119.3710690 106.0383560
 104.6233290 120.1938160 105.2643190 103.9017920 116.0481520 108.0710530
 104.6636830 116.6178170 108.1770220 103.9172290 115.4808720 108.8418840
  87.4022260 114.5719450 112.3018190  86.7471100 114.3031090 111.6577890
  88.2400210 114.4623930 111.8520170 101.8911650 118.2868200 118.3282780
 101.0771490 118.7165360 118.5908570 102.2985850 118.8986610 117.7151830
 103.9537090 116.3415890 105.2283050 104.2285930 117.2494770 105.1002270
 103.7647830 116.2778420 106.1645040 100.3512700 109.3660740 106.5236680
 100.7697580 109.1791720 105.6833340 100.0448760 108.5139790 106.8339610
 103.8502430 114.2784880 110.2212480 103.4746030 113.5112810 109.7893770
 103.1205550 114.6607580 110.7087410  88.4398190 114.9572020 116.8421530
  88.8071230 114.8699420 117.7217550  87.8709010 114.1938570 116.7428390
  86.6160340 111.7818380 108.2443520  85.7124420 112.0448580 108.0695180
  87.1000960 112.0529550 107.4643480 103.1253390 112.5042370 113.5219720
 103.6490870 112.0105020 112.8909890 103.7112810 112.6392730 114.2667290
 103.3043110 112.5882240 117.0439270 102.3545820 112.5545780 117.1584260
 103.4856120 113.4982350 116.8089040  89.1587550 110.8383920 106.1537900
  89.8679250 110.4167140 105.6685180  88.4427490 110.9059150 105.5221250
 102.6153360 111.7615720 109.4612130 103.1112480 111.5286590 110.2461010
 102.4169430 110.9227560 109.0449770  88.4953900 106.1429440 115.0963170
  89.1430090 105.5926820 114.6558330  88.9155740 106.3972590 115.9178980
 102.3906240 106.3370800 118.4532810 103.0278460 106.9504940 118.8192000
 102.5381130 106.3731460 117.5082040 104.9330790 108.2284590 105.2355950
 105.8580100 108.0965770 105.0274240 104.9106580 108.3077410 106.1892400
 101.9487700 123.0386800 111.8551050 102.5446770 122.7171370 111.1785470
 102.2065850 122.5658620 112.6464320  89.8550270 119.4704710 122.0041680
  89.8119900 119.0997620 122.8856140  89.9861280 120.4082280 122.1443500
 104.8160460 123.0458680 118.4062040 104.3218740 123.4427550 117.6889170
 104.2073750 122.4207890 118.7999320  88.9206540 105.8261310 121.1139260
  89.4689530 105.6449360 120.3505370  88.9861850 105.0355420 121.6495570
  89.6938300 122.4166960 119.1239460  89.0998620 122.2851660 119.8629500
  89.6862140 121.5805100 118.6581560  99.1393320 105.7099190 117.3269490
  98.2653160 106.0434300 117.1242420  99.0304070 105.2372370 118.1521360
 102.4999910 123.6882100 115.6848780 102.0402880 124.4397910 115.3106800
 101.8712370 122.9688570 115.6263580  89.3250530 119.7825340 118.0747500
  88.5984590 119.1630630 118.0073450  89.3859680 120.1765950 117.2045580
  96.8868140 106.6269030 116.2662400  96.1039930 107.1014530 116.5459160
  96.5931070 105.7223860 116.1575580 101.4389210 107.3292130 114.3111490
 101.8797300 107.2737230 113.4633090 101.1696800 108.2450140 114.3821670
  87.6080530 123.0999730 111.2844260  87.4402570 122.4670410 111.9826150
  86.7415040 123.3059130 110.9338450  99.2747340 105.7098230 113.0161500
  99.8776710 106.2818440 113.4910020  98.5340330 106.2737670 112.7935400
 102.4181940 106.1119790 108.2901780 102.6132570 107.0103240 108.5569210
 101.6311810 105.8806870 108.7834730  92.7971540 107.1955700 110.3823480
  92.1674280 106.4943010 110.5493610  92.2576680 107.9559830 110.1656640
  95.7363490 123.8094930 123.0534090  96.6630800 123.5739200 123.0970050
  95.7213920 124.6366930 122.5720120 103.9708550 123.3520500 110.0508340
 104.1460740 122.6658240 109.4069260 103.2730120 123.8767550 109.6585010
 102.3041050 123.0364790 122.8775130 103.0966370 122.5414020 122.6701090
 102.5974200 123.7154930 123.4850740  98.4300710 113.9085730  93.7591180
  98.3494760 112.9940340  93.4882890  98.0165130 114.4052800  93.0530890
  96.5618750 115.6864750  95.6400450  95.7860850 115.2065190  95.9299020
  97.2131680 115.0070400  95.4656610  90.5784580 115.9984560  96.5176210
  89.7469460 115.7433270  96.9172720  91.1865560 116.0695330  97.2534130
  90.5585840 120.0324650  96.7134230  90.8613880 119.1422390  96.5344450
  91.3029430 120.5894870  96.4856480  96.8089490 122.3782950  94.0403570
  96.1900930 122.8340450  93.4698010  97.6641270 122.5334410  93.6393270
  96.0027740 118.3621940  95.6470610  95.9336020 117.4211880  95.4859740
  96.7647600 118.4523350  96.2193180 100.8157030 108.6642760  92.8067880
 101.6366650 108.1739330  92.8493360 100.8491110 109.2540420  93.5599720
  88.8121080 111.4636960  96.5809570  89.4931190 111.7275330  97.1996970
  88.4969130 110.6237830  96.9147580  93.0045650 112.5104320  95.6682160
  93.5123870 113.0085290  96.3087180  93.5358890 111.7339520  95.4921520
 105.1056580 110.6809510  99.3711510 104.4008750 111.0691220  98.8526620
 105.3714500 111.3759800  99.9732440  92.5384600 116.7898060  98.1119080
  92.2053980 117.4166980  98.7540150  92.7151280 117.3159940  97.3320750
  91.7503700 118.7578860  99.9268260  92.3677700 119.4329940  99.6452710
  90.8896820 119.1666840  99.8355760 102.6681290 120.2218270  97.8422900
 101.9844810 120.8917380  97.8339570 103.2075580 120.4198920  97.0767760
 100.2040030 122.0662400  96.5568080 100.2167190 121.6624690  95.6890340
  99.6515250 122.8409690  96.4529510  99.6025470 116.9692240  97.8850690
 100.0194260 116.7552350  97.0504150 100.3265290 117.2265030  98.4559310
  97.0405730 114.4143940  91.0020740  96.1135010 114.3481320  91.2309210
  97.1930550 115.3524070  90.8875980  97.0274810 110.6860940  87.9987900
  96.0878480 110.8474900  88.0840360  97.3458070 111.4046620  87.4523890
 103.5487570 115.3679460  97.9766930 102.7206200 115.4372550  97.5017060
 104.1438050 115.9533770  97.5082760 100.5129580 112.1548780  98.9221800
 100.1000760 112.9802490  99.1761790  99.7805530 111.5693820  98.7298160
  92.6462370 114.9408680  93.7840470  92.2419370 114.2285930  93.2886370
  92.7325490 114.5961920  94.6728510  93.1144070 118.6276240  95.9479680
  92.8172360 118.0221710  95.2687460  94.0643890 118.6653550  95.8369040
  91.3590990 111.7151890  97.5639510  91.9105580 111.8247230  96.7892760
  91.8734500 112.0889490  98.2794740 101.2029680 122.2008110  99.6102780
 100.7260240 123.0080300  99.4175390 100.5191470 121.5486440  99.7628990
  92.2062500 118.3657930 102.5987480  91.3091030 118.5897900 102.8460880
  92.2315370 118.4892870 101.6498880  91.0333720 115.2371250 101.1744850
  90.8941490 116.1094050 101.5432250  90.1515080 114.8944060 101.0292790
 102.8284860 106.4693860  86.8269780 102.5157520 106.5620690  87.7268850
 103.5897330 107.0474890  86.7767210 104.7828890 121.9620050 104.6794170
 105.2588610 122.4402940 105.3583250 105.4036050 121.8937540 103.9539670
  86.9852370 117.0068800  97.0915760  87.0632790 117.1417570  96.1471480
  87.5994050 116.2984690  97.2843880  88.2300000 118.7068990  93.5021940
  87.8228080 118.8483580  92.6475540  89.1213010 118.4229150  93.2993150
 104.1862140 119.1532900 101.8394180 104.3125200 118.9144780 100.9211360
 104.2283520 118.3217440 102.3116260 100.0233280 123.1416240  89.8372990
  99.8634420 122.8519180  90.7354820  99.8579990 122.3656370  89.3018220
  92.5021660 122.9214770  91.6144610  92.3264140 122.0050310  91.4012410
  91.6477400 123.2802060  91.8542410  99.2909340 122.2766510  92.4719480
  99.7466290 121.4955890  92.7858100  99.6301860 122.9873330  93.0160660
 104.0386150 111.2065360 102.8043920 103.4230420 111.7145030 102.2759380
 103.7182570 110.3063690 102.7469860  96.1000470 110.0457250 100.2706110
  95.6379840 110.2540270 101.0826050  95.6978580 109.2316600  99.9676780
 101.1004980 111.2666200 101.4002770 100.2498570 110.9671950 101.7211840
 100.9406770 111.5108210 100.4886590  91.6044880 112.3022300  92.3952040
  91.3785800 112.0859470  93.2998660  90.8237410 112.7350760  92.0498010
  98.8342640 112.3085670  90.9942690  98.2351530 113.0321470  90.8106310
  99.3822250 112.2462450  90.2119140  95.7499680 109.6956520 104.2842830
  95.0598000 109.5028720 104.9188920  96.4931980 109.9791160 104.8167130
  98.0262650 113.5354960  97.1196750  97.2943770 114.0441770  97.4686850
  97.6286990 112.7184940  96.8185530  94.5260190 111.2121240  88.5156000
  94.6473010 111.1707720  89.4641820  94.1408700 112.0745390  88.3602730
  93.5381690 113.5222380  87.9139300  92.9698590 113.0740630  87.2875210
  94.2470690 113.8815160  87.3804450 101.9159310 106.4020820 102.3706070
 102.2405080 105.6710480 102.8964050 101.9515820 106.0834460 101.4687060
  88.6150870 117.4234400 101.7906030  88.2305660 116.7828070 102.3888990
  88.9263060 118.1270520 102.3600760  94.7648010 114.2710940  97.2714650
  95.1318140 113.7969510  98.0175990  94.5753070 115.1452510  97.6122990
  92.5547380 113.3119580  99.5898860  92.2504450 114.1911560  99.8149220
  93.5093840 113.3719370  99.6256300  91.0829170 117.5180570  90.1865710
  90.3091430 116.9778190  90.0264430  91.8123800 116.9987180  89.8483470
 101.8417150 116.5145930  95.9792100 102.5616270 117.0101220  95.5888210
 101.6398970 115.8363820  95.3345970 100.0175480 112.2803540  88.4183650
 100.9055100 112.5920770  88.2434990  99.9880570 111.4075790  88.0264230
  91.1266570 117.1860950  93.8244520  91.6445240 116.3829210  93.7701410
  90.6750590 117.1240090  94.6661350  88.6111110 114.1522320 100.7370220
  88.2526050 114.8176170 101.3243560  88.3165670 113.3205870 101.1082840
 102.2889750 113.5915380  87.8863510 102.2053470 114.0229600  87.0359950
 103.0083940 114.0513730  88.3190330 103.3663890 116.0482900 100.9633480
 102.6412080 116.6411680 100.7662870 103.8939350 116.0406440 100.1646850
  94.9826760 118.5340760  91.8687740  95.6697890 119.0809970  92.2495330
  94.1959180 119.0781490  91.9037350  94.2853970 115.5386790  91.4813100
  94.7416750 116.3492040  91.7073290  93.9342180 115.2209930  92.3131590
  96.5886580 121.0493130  98.7105400  97.2328800 121.2552510  99.3878820
  96.9516020 120.2881530  98.2576250  97.8618660 119.0525480  97.4282850
  98.5040890 118.3518640  97.5415020  98.3868010 119.8323920  97.2479740
  87.4890410 123.3640960  87.9266450  87.8488050 123.9630300  87.2723720
  87.3482750 123.9100850  88.7001480  93.5059030 120.7472160  88.7440120
  93.4969130 121.4801850  88.1284630  92.5857390 120.5003740  88.8367080
  89.1065670 115.9687050  89.4886880  88.4993620 116.7085950  89.4982180
  89.5815020 116.0586410  88.6625080 102.0460490 109.0894810  89.9731330
 101.4173650 109.1940480  89.2589560 101.5512410 109.3091590  90.7625210
  96.4918630 120.8100400  87.4065310  96.5930610 120.6064390  86.4767290
  95.5920370 120.5558680  87.6113090  95.6400450 112.7877460  99.3881740
  96.1385700 113.2623280 100.0533590  95.7823400 111.8640980  99.5951770
  95.1336740 123.3286720  92.1012980  95.3878240 123.2908110  91.1792350
  94.1849220 123.2020050  92.0941230 102.8467310 109.0045420 100.2310130
 102.3440910 109.7450820 100.5703940 103.6623970 109.3929420  99.9146920
 101.1389320 114.2478600  93.6771490 100.1979460 114.2628830  93.8519180
 101.4533390 113.4614560  94.1231790  91.1170960 115.9298200  87.2375450
  91.8834230 115.8179560  87.8000880  91.1945650 115.2336170  86.5852220
 103.1414900 121.4187450  95.3525750 103.2662320 122.2418620  95.8249560
 104.0080460 121.2078180  95.0049900  90.6132430 123.5118660  95.0242880
  91.3494910 122.9634120  95.2951450  90.9973350 124.3774670  94.8848870
  87.4977910 119.5792230  90.8984390  86.5717690 119.8213370  90.8889800
  87.9634340 120.4066490  90.7769140  93.7234740 122.6848970  86.8468450
  94.5163350 122.9737800  86.3950240  93.2039090 122.2541140  86.1680930
 102.7764910 121.9119100  88.2705190 102.4906420 121.4984240  87.4559370
 102.5784460 122.8406810  88.1505710  87.3388520 115.1838190 103.1564510
  87.8427540 114.6045470 103.7280740  86.5995940 115.4678420 103.6940880
  94.2412140 117.9052380  86.7110800  94.1362780 117.2904730  87.4372180
  94.0736360 117.3818270  85.9273810 101.5349810 118.3214510 103.2475050
 102.2759280 118.6590270 102.7442510 100.7722490 118.4906570 102.6944820
  89.3711600 113.3267780 104.0514580  89.4116940 113.0281650 104.9599810
  90.2257100 113.7275390 103.8922100  93.1489990 115.9263330  89.2118090
  93.5706410 115.7603200  90.0549480  93.2740830 115.1163560  88.7173230
  91.3117410 111.9059880 102.0189070  90.7813870 111.4150830 101.3912410
  91.9805480 112.3344080 101.4847000  95.6617630 114.9500940  86.4595190
  96.1823290 114.2349960  86.0936340  96.3086030 115.5886810  86.7595700
  94.9710700 116.3249820  99.7526190  95.3898810 117.1682550  99.5802430
  94.0519330 116.4621860  99.5232970  97.3074600 114.0566000 101.1364030
  97.4270810 113.4607140 101.8758870  98.1668600 114.0935690 100.7165330
  99.6462500 114.6103190  99.7126540  99.1197720 115.1345810  99.1091680
  99.9893840 115.2430580 100.3436270  92.8218120 122.6302830 100.8683920
  92.2839210 123.3548890 100.5492620  93.0752080 122.1533170 100.0781260
  94.0743370 110.5987350 102.3939850  94.6643060 110.2903200 103.0817670
  93.2563610 110.1267100 102.5499750  98.8936800 110.2153160 102.6272870
  98.2052320 109.5534700 102.5622860  99.6142820 109.7691430 103.0721330
  99.5237200 106.8104790  88.6863130  99.8039490 105.9672690  89.0422550
  98.7502930 107.0427900  89.2001880  96.2265660 123.0312550  88.7496930
  97.1216450 123.3697520  88.7715690  96.2583290 122.3091960  88.1221210
  89.8661820 118.4039600  86.9783930  90.3036690 118.9469270  87.6341510
  90.3509550 117.5786550  86.9880270  87.0807620 121.1928630  94.4304190
  87.4110630 120.3249690  94.1982830  87.5098620 121.3987150  95.2609150
  91.6769540 119.5237640  92.0906160  91.3765080 119.4002610  92.9910070
  91.5707030 118.6646230  91.6821890  87.5697830 122.0599220  97.1685820
  87.1328820 122.2400020  98.0009970  88.1375510 122.8173840  97.0267540
 103.2060010 121.5616220 101.4563130 102.6062000 121.6208780 100.7127050
 103.3353910 120.6221200 101.5859980 101.8911650 118.2868200  99.5539290
 101.0771490 118.7165360  99.8165080 102.2985850 118.8986610  98.9408340
 100.3512700 109.3660740  87.7493190 100.7697580 109.1791720  86.9089850
 100.0448760 108.5139790  88.0596120  88.4398190 114.9572020  98.0678040
  88.8071230 114.8699420  98.9474060  87.8709010 114.1938570  97.9684900
 103.2402050 113.4256400 101.0808510 103.0088140 113.1969150 100.1806460
 103.5006600 114.3455950 101.0353400  87.9914190 111.8681110 101.9736460
  87.0970240 111.8347870 102.3130170  88.5311740 112.0667900 102.7387710
 101.6790120 108.6512830 103.8588210 102.5560300 108.6596230 104.2422210
 101.6910960 107.9143670 103.2480560 103.1253390 112.5042370  94.7476230
 103.6490870 112.0105020  94.1166400 103.7112810 112.6392730  95.4923800
 103.3043110 112.5882240  98.2695780 102.3545820 112.5545780  98.3840770
 103.4856120 113.4982350  98.0345550 102.3906240 106.3370800  99.6789320
 103.0278460 106.9504940 100.0448510 102.5381130 106.3731460  98.7338550
 104.9330790 108.2284590  86.4612460 105.8580100 108.0965770  86.2530750
 104.9106580 108.3077410  87.4148910 101.9487700 123.0386800  93.0807560
 102.5446770 122.7171370  92.4041980 102.2065850 122.5658620  93.8720830
  89.8550270 119.4704710 103.2298190  89.8119900 119.0997620 104.1112650
  89.9861280 120.4082280 103.3700010  93.5556300 121.0264300  98.8307910
  93.3147660 121.2938860  97.9438430  94.4958940 121.1970030  98.8858770
  95.7610720 107.4896990 102.5864420  95.6999610 108.0818820 103.3359830
  96.7011100 107.3822950 102.4414680  98.3985280 107.1467050 102.2256710
  99.0125690 107.4646340 101.5637790  98.9434840 106.6615640 102.8452570
 104.8160460 123.0458680  99.6318550 104.3218740 123.4427550  98.9145680
 104.2073750 122.4207890 100.0255830  89.6938300 122.4166960 100.3495970
  89.0998620 122.2851660 101.0886010  89.6862140 121.5805100  99.8838070
 100.0465300 107.9170060  99.9367720  99.7178660 107.1021820  99.5569450
 100.9947600 107.8739870  99.8133410 102.4999910 123.6882100  96.9105290
 102.0402880 124.4397910  96.5363310 101.8712370 122.9688570  96.8520090
  89.3250530 119.7825340  99.3004010  88.5984590 119.1630630  99.2329960
  89.3859680 120.1765950  98.4302090  92.9295630 121.9970340  96.0853420
  93.4460650 121.3857700  95.5601680  93.5793010 122.4999120  96.5764430
  95.6691130 122.8878830  96.9122400  95.9568940 122.6333130  96.0355410
  96.1814350 122.3356190  97.5027970  87.6080530 123.0999730  92.5100770
  87.4402570 122.4670410  93.2082660  86.7415040 123.3059130  92.1594960
  89.2143230 121.7932960  89.9550910  88.6890850 122.1740990  89.2512870
  89.1387810 122.4183730  90.6760620 103.9708550 123.3520500  91.2764850
 104.1460740 122.6658240  90.6325770 103.2730120 123.8767550  90.8841520
  90.9750990 119.8580070  88.8346490  90.3459870 120.3265170  89.3832320
  91.0898820 119.0129290  89.2692680  99.5242560 105.8893260 104.6212950
  99.4108010 106.2087870 105.5164470 100.3412300 106.2905770 104.3250230
  90.5784580 115.9984560  77.7432720  89.7469460 115.7433270  78.1429230
  91.1865560 116.0695330  78.4790640  90.5585840 120.0324650  77.9390740
  90.8613880 119.1422390  77.7600960  91.3029430 120.5894870  77.7112990
  88.9876530 110.9586450  71.5275110  88.0993230 111.3002420  71.4254990
  89.2717720 110.7586770  70.6355940  96.8089490 122.3782950  75.2660080
  96.1900930 122.8340450  74.6954520  97.6641270 122.5334410  74.8649780
  97.0332910 111.1692320  77.0996050  97.4097730 110.2964200  76.9869720
  96.9352420 111.5051020  76.2086490  91.1637920 109.5417950  72.5613490
  91.2704670 110.4421680  72.8682250  90.2530280 109.4935920  72.2708140
  88.8121080 111.4636960  77.8066080  89.4931190 111.7275330  78.4253480
  88.4969130 110.6237830  78.1404090  93.0045650 112.5104320  76.8938670
  93.5123870 113.0085290  77.5343690  93.5358890 111.7339520  76.7178030
 105.1056580 110.6809510  80.5968020 104.4008750 111.0691220  80.0783130
 105.3714500 111.3759800  81.1988950  97.6752840 117.2622190  72.6591990
  97.0570110 117.7271640  72.0954710  98.1876090 117.9549670  73.0761500
  92.5384600 116.7898060  79.3375590  92.2053980 117.4166980  79.9796660
  92.7151280 117.3159940  78.5577260 101.0518510 110.6043140  76.8051930
 100.3474080 110.8928030  77.3855040 101.4130670 111.4143250  76.4451490
  90.9697080 108.8612840  79.1672540  91.3113890 109.7054890  78.8726410
  90.0312890 109.0096580  79.2837880  91.7503700 118.7578860  81.1524770
  92.3677700 119.4329940  80.8709220  90.8896820 119.1666840  81.0612270
  87.0436040 117.9478720  70.0331620  86.6664020 118.4365820  69.3016520
  87.3009110 118.6204000  70.6638150  94.6524970 106.3495110  75.4917130
  94.9599950 105.7942000  74.7752630  93.7225670 106.4839570  75.3090120
  97.0405730 114.4143940  72.2277250  96.1135010 114.3481320  72.4565720
  97.1930550 115.3524070  72.1132490  97.0274810 110.6860940  69.2244410
  96.0878480 110.8474900  69.3096870  97.3458070 111.4046620  68.6780400
 103.5487570 115.3679460  79.2023440 102.7206200 115.4372550  78.7273570
 104.1438050 115.9533770  78.7339270 100.5129580 112.1548780  80.1478310
 100.1000760 112.9802490  80.4018300  99.7805530 111.5693820  79.9554670
  92.6462370 114.9408680  75.0096980  92.2419370 114.2285930  74.5142880
  92.7325490 114.5961920  75.8985020  93.1144070 118.6276240  77.1736190
  92.8172360 118.0221710  76.4943970  94.0643890 118.6653550  77.0625550
  91.3590990 111.7151890  78.7896020  91.9105580 111.8247230  78.0149270
  91.8734500 112.0889490  79.5051250  92.2062500 118.3657930  83.8243990
  91.3091030 118.5897900  84.0717390  92.2315370 118.4892870  82.8755390
  99.2467720 115.2151050  69.7385250  99.6861000 114.3773480  69.5923070
  99.9596140 115.8480450  69.8249390  91.0333720 115.2371250  82.4001360
  90.8941490 116.1094050  82.7688760  90.1515080 114.8944060  82.2549300
  97.3563100 120.1547120  73.7066490  97.7959010 120.8971450  73.2921880
  97.2949990 120.3973690  74.6305450  92.8314070 121.1792950  84.6086510
  92.8029500 121.5835900  83.7414940  92.6679040 120.2503310  84.4458110
 102.8284860 106.4693860  68.0526290 102.5157520 106.5620690  68.9525360
 103.5897330 107.0474890  68.0023720  89.3467000 113.8353660  72.5103630
  89.2264600 114.5615750  71.8984900  89.0367890 113.0656570  72.0331540
 104.7828890 121.9620050  85.9050680 105.2588610 122.4402940  86.5839760
 105.4036050 121.8937540  85.1796180  88.2300000 118.7068990  74.7278450
  87.8228080 118.8483580  73.8732050  89.1213010 118.4229150  74.5249660
 104.1862140 119.1532900  83.0650690 104.3125200 118.9144780  82.1467870
 104.2283520 118.3217440  83.5372770 100.0233280 123.1416240  71.0629500
  99.8634420 122.8519180  71.9611330  99.8579990 122.3656370  70.5274730
  92.5021660 122.9214770  72.8401120  92.3264140 122.0050310  72.6268920
  91.6477400 123.2802060  73.0798920  99.7259410 120.6503800  69.6227500
  99.0324570 120.6481090  68.9629780 100.4682270 120.2263120  69.1921670
  99.2909340 122.2766510  73.6975990  99.7466290 121.4955890  74.0114610
  99.6301860 122.9873330  74.2417170 104.0386150 111.2065360  84.0300430
 103.4230420 111.7145030  83.5015890 103.7182570 110.3063690  83.9726370
  87.0411890 118.0482970  80.8566730  87.2042930 117.5788330  80.0386100
  87.5064340 117.5406530  81.5215570  91.8130660 107.1788730  75.8927300
  91.3698810 107.9598270  75.5611820  92.3715650 107.5018620  76.5998240
  96.1000470 110.0457250  81.4962620  95.6379840 110.2540270  82.3082560
  95.6978580 109.2316600  81.1933290 101.1004980 111.2666200  82.6259280
 100.2498570 110.9671950  82.9468350 100.9406770 111.5108210  81.7143100
  98.1954690 112.7667950  84.7258070  98.5208100 111.9331700  84.3860300
  98.9835020 113.2896470  84.8736400  94.9289480 106.7999430  70.7733130
  94.3043660 106.7959300  71.4986440  94.8419600 105.9330390  70.3769100
  93.8506560 107.7236060  77.7516900  94.1478890 108.6298890  77.6708920
  94.3992120 107.2354840  77.1376470  91.6044880 112.3022300  73.6208550
  91.3785800 112.0859470  74.5255170  90.8237410 112.7350760  73.2754520
  98.8342640 112.3085670  72.2199200  98.2351530 113.0321470  72.0362820
  99.3822250 112.2462450  71.4375650  94.0444090 113.2007880  84.2868820
  93.9487690 112.2602610  84.1369220  94.8876070 113.4222950  83.8916890
  97.4407510 110.9449210  74.2502480  97.8337080 111.2621410  73.4371170
  97.8024360 110.0661090  74.3647000  95.7499680 109.6956520  85.5099340
  95.0598000 109.5028720  86.1445430  96.4931980 109.9791160  86.0423640
  86.6641910 111.4770130  67.6835400  86.5816580 112.4200890  67.8250390
  86.3124970 111.3345040  66.8047750  98.0262650 113.5354960  78.3453260
  97.2943770 114.0441770  78.6943360  97.6286990 112.7184940  78.0442040
  94.4640040 110.2109160  76.7505750  94.4676100 109.7699110  75.9010290
  95.3591160 110.5326490  76.8577570  90.3142420 110.0935650  75.7099960
  89.9742470 110.5710880  76.4667010  89.5519740 109.6400770  75.3501060
  94.5260190 111.2121240  69.7412510  94.6473010 111.1707720  70.6898330
  94.1408700 112.0745390  69.5859240  98.4888560 108.9888640  77.7576200
  98.5061300 109.4397290  78.6018050  98.2404140 108.0894280  77.9709640
  93.5381690 113.5222380  69.1395810  92.9698590 113.0740630  68.5131720
  94.2470690 113.8815160  68.6060960 101.9159310 106.4020820  83.5962580
 102.2405080 105.6710480  84.1220560 101.9515820 106.0834460  82.6943570
  88.6150870 117.4234400  83.0162540  88.2305660 116.7828070  83.6145500
  88.9263060 118.1270520  83.5857270  94.7648010 114.2710940  78.4971160
  95.1318140 113.7969510  79.2432500  94.5753070 115.1452510  78.8379500
  92.5547380 113.3119580  80.8155370  92.2504450 114.1911560  81.0405730
  93.5093840 113.3719370  80.8512810  91.0829170 117.5180570  71.4122220
  90.3091430 116.9778190  71.2520940  91.8123800 116.9987180  71.0739980
  97.3027090 107.9083890  71.3478000  96.4891700 107.4097060  71.2723310
  97.1089040 108.7482140  70.9314350  97.2235950 116.5854990  83.0917610
  97.1573260 115.6650660  82.8375200  96.5941090 116.6830430  83.8062250
 100.0175480 112.2803540  69.6440160 100.9055100 112.5920770  69.4691500
  99.9880570 111.4075790  69.2520740  91.1266570 117.1860950  75.0501030
  91.6445240 116.3829210  74.9957920  90.6750590 117.1240090  75.8917860
  96.0136070 118.4527230  70.3228330  96.3551770 119.1969460  69.8271650
  95.1848780 118.7658350  70.6853160  88.6111110 114.1522320  81.9626730
  88.2526050 114.8176170  82.5500070  88.3165670 113.3205870  82.3339350
  91.8124230 114.6106560  84.8466280  91.5124370 114.7563740  83.9494100
  92.5835470 114.0511850  84.7539670  97.1552680 119.4075560  82.8421410
  97.1697220 118.4756520  82.6240320  96.4477780 119.4935320  83.4811180
 103.3663890 116.0482900  82.1889990 102.6412080 116.6411680  81.9919380
 103.8939350 116.0406440  81.3903360 103.3177000 120.4457640  71.8402150
 102.6753160 119.7913260  72.1145870 102.9307660 120.8512730  71.0642820
  94.9826760 118.5340760  73.0944250  95.6697890 119.0809970  73.4751840
  94.1959180 119.0781490  73.1293860  87.1219160 114.1513580  68.5861330
  87.9914010 114.4338380  68.8697250  86.6309480 114.9649450  68.4710140
  94.2853970 115.5386790  72.7069610  94.7416750 116.3492040  72.9329800
  93.9342180 115.2209930  73.5388100  90.1865750 105.8824440  73.1792130
  90.0580380 105.8742340  74.1277050  89.3627770 106.2207530  72.8283140
 101.7074380 119.3374100  68.3778500 101.4811960 118.6204540  68.9703140
 101.3170580 119.0886540  67.5400250  87.4890410 123.3640960  69.1522960
  87.8488050 123.9630300  68.4980230  87.3482750 123.9100850  69.9257990
 101.2890630 117.2546040  70.0392660 101.0012330 117.7158730  70.8270540
 102.0842800 116.7943810  70.3076880  87.4732270 121.6295820  83.6265360
  87.5823390 120.6890560  83.4860750  86.8212830 121.8950570  82.9779090
  95.4644860 119.9011710  85.0263480  95.1441730 119.1820950  85.5709170
  94.7903220 120.5766780  85.0999540  93.5059030 120.7472160  69.9696630
  93.4969130 121.4801850  69.3541140  92.5857390 120.5003740  70.0623590
  89.1065670 115.9687050  70.7143390  88.4993620 116.7085950  70.7238690
  89.5815020 116.0586410  69.8881590  98.6798460 110.1337870  80.3900280
  99.0479280 109.3133080  80.7179850  97.8196660 110.1939760  80.8055930
  96.4918630 120.8100400  68.6321820  96.5930610 120.6064390  67.7023800
  95.5920370 120.5558680  68.8369600  94.0144520 111.3680760  72.6145720
  93.3060670 111.8367100  73.0559330  94.2989000 110.7102770  73.2490910
  95.6400450 112.7877460  80.6138250  96.1385700 113.2623280  81.2790100
  95.7823400 111.8640980  80.8208280  98.0459950 108.0931420  74.0541510
  97.9227730 108.1117550  73.1051020  98.9944510 108.1410360  74.1739910
  95.1336740 123.3286720  73.3269490  95.3878240 123.2908110  72.4048860
  94.1849220 123.2020050  73.3197740  92.2179540 109.6765840  69.9896430
  93.0670070 110.1135990  69.9236620  91.8510810 109.9886100  70.8168490
 102.8467310 109.0045420  81.4566640 102.3440910 109.7450820  81.7960450
 103.6623970 109.3929420  81.1403430  91.1170960 115.9298200  68.4631960
  91.8834230 115.8179560  69.0257390  91.1945650 115.2336170  67.8108730
  89.8117720 113.3623270  69.1464850  89.8921310 112.4150780  69.2582250
  90.7037470 113.6930150  69.2525510  90.6132430 123.5118660  76.2499390
  91.3494910 122.9634120  76.5207960  90.9973350 124.3774670  76.1105380
  87.4977910 119.5792230  72.1240900  86.5717690 119.8213370  72.1146310
  87.9634340 120.4066490  72.0025650  89.6190710 122.6964730  85.4384970
  90.4203440 123.0176780  85.8520370  89.1042530 122.3360310  86.1604880
  93.7234740 122.6848970  68.0724960  94.5163350 122.9737800  67.6206750
  93.2039090 122.2541140  67.3937440  98.4555340 118.8044600  85.3860380
  97.8493500 118.8276200  84.6456130  98.1509450 118.0727640  85.9227630
 102.7764910 121.9119100  69.4961700 102.4906420 121.4984240  68.6815880
 102.5784460 122.8406810  69.3762220  87.3388520 115.1838190  84.3821020
  87.8427540 114.6045470  84.9537250  86.5995940 115.4678420  84.9197390
  94.2412140 117.9052380  67.9367310  94.1362780 117.2904730  68.6628690
  94.0736360 117.3818270  67.1530320  94.3926460 116.5909180  83.9156540
  93.6272130 117.1594180  83.8311210  94.5742420 116.2985390  83.0224770
  97.4814870 116.9672410  68.5409300  96.9324970 117.4141710  69.1852040
  98.1034130 116.4621660  69.0646970 101.5349810 118.3214510  84.4731560
 102.2759280 118.6590270  83.9699020 100.7722490 118.4906570  83.9201330
  93.1489990 115.9263330  70.4374600  93.5706410 115.7603200  71.2805990
  93.2740830 115.1163560  69.9429740  91.3117410 111.9059880  83.2445580
  90.7813870 111.4150830  82.6168920  91.9805480 112.3344080  82.7103510
  95.6617630 114.9500940  67.6851700  96.1823290 114.2349960  67.3192850
  96.3086030 115.5886810  67.9852210 100.2095470 116.3729340  83.0086770
 100.6236490 116.5274420  83.8577190  99.2746470 116.4984560  83.1712550
 100.6817640 113.7125500  85.0125920 101.2638410 112.9577820  84.9246400
 100.8579410 114.2432940  84.2357400  91.7989710 108.8722250  83.3242870
  91.7046580 108.2543000  82.5993740  91.2187100 109.5988540  83.0972780
  94.5651150 107.4295490  80.3570260  94.1168450 107.4519750  79.5115810
  93.9316350 107.0314510  80.9540560  94.9710700 116.3249820  80.9782700
  95.3898810 117.1682550  80.8058940  94.0519330 116.4621860  80.7489480
  97.3074600 114.0566000  82.3620540  97.4270810 113.4607140  83.1015380
  98.1668600 114.0935690  81.9421840  99.6462500 114.6103190  80.9383050
  99.1197720 115.1345810  80.3348190  99.9893840 115.2430580  81.5692780
  92.0448890 111.9996560  67.3832760  91.8437950 111.1363920  67.7446100
  91.8740940 111.9129920  66.4454360  92.8218120 122.6302830  82.0940430
  92.2839210 123.3548890  81.7749130  93.0752080 122.1533170  81.3037770
  94.0743370 110.5987350  83.6196360  94.6643060 110.2903200  84.3074180
  93.2563610 110.1267100  83.7756260  98.8936800 110.2153160  83.8529380
  98.2052320 109.5534700  83.7879370  99.6142820 109.7691430  84.2977840
  99.5237200 106.8104790  69.9119640  99.8039490 105.9672690  70.2679060
  98.7502930 107.0427900  70.4258390  90.8431690 109.0997180  67.3710640
  91.1457590 109.1064610  66.4629790  91.5826280 108.7495040  67.8678300
  94.0616620 108.0431800  68.3566840  93.7138620 107.3655790  67.7769290
  94.2629390 107.5821310  69.1710230  96.2265660 123.0312550  69.9753440
  97.1216450 123.3697520  69.9972200  96.2583290 122.3091960  69.3477720
  89.8661820 118.4039600  68.2040440  90.3036690 118.9469270  68.8598020
  90.3509550 117.5786550  68.2136780  87.0807620 121.1928630  75.6560700
  87.4110630 120.3249690  75.4239340  87.5098620 121.3987150  76.4865660
  91.6769540 119.5237640  73.3162670  91.3765080 119.4002610  74.2166580
  91.5707030 118.6646230  72.9078400  87.5697830 122.0599220  78.3942330
  87.1328820 122.2400020  79.2266480  88.1375510 122.8173840  78.2524050
 103.2060010 121.5616220  82.6819640 102.6062000 121.6208780  81.9383560
 103.3353910 120.6221200  82.8116490 104.4461460 119.3034040  68.0189350
 103.6154420 119.3710690  68.4896580 104.6233290 120.1938160  67.7156210
 103.9537090 116.3415890  67.6796070 104.2285930 117.2494770  67.5515290
 103.7647830 116.2778420  68.6158060 100.3512700 109.3660740  68.9749700
 100.7697580 109.1791720  68.1346360 100.0448760 108.5139790  69.2852630
 103.2402050 113.4256400  82.3065020 103.0088140 113.1969150  81.4062970
 103.5006600 114.3455950  82.2609910 101.6790120 108.6512830  85.0844720
 102.5560300 108.6596230  85.4678720 101.6910960 107.9143670  84.4737070
  86.6160340 111.7818380  70.6956540  85.7124420 112.0448580  70.5208200
  87.1000960 112.0529550  69.9156500 103.3043110 112.5882240  79.4952290
 102.3545820 112.5545780  79.6097280 103.4856120 113.4982350  79.2602060
  89.1587550 110.8383920  68.6050920  89.8679250 110.4167140  68.1198200
  88.4427490 110.9059150  67.9734270  88.4953900 106.1429440  77.5476190
  89.1430090 105.5926820  77.1071350  88.9155740 106.3972590  78.3692000
 102.3906240 106.3370800  80.9045830 103.0278460 106.9504940  81.2705020
 102.5381130 106.3731460  79.9595060 105.0069280 108.9995250  70.3125680
 104.2120780 108.9340370  70.8418590 105.2112560 109.9345890  70.3011030
 101.9487700 123.0386800  74.3064070 102.5446770 122.7171370  73.6298490
 102.2065850 122.5658620  75.0977340  89.8550270 119.4704710  84.4554700
  89.8119900 119.0997620  85.3369160  89.9861280 120.4082280  84.5956520
  93.5556300 121.0264300  80.0564420  93.3147660 121.2938860  79.1694940
  94.4958940 121.1970030  80.1115280  95.7610720 107.4896990  83.8120930
  95.6999610 108.0818820  84.5616340  96.7011100 107.3822950  83.6671190
  98.3985280 107.1467050  83.4513220  99.0125690 107.4646340  82.7894300
  98.9434840 106.6615640  84.0709080 104.8160460 123.0458680  80.8575060
 104.3218740 123.4427550  80.1402190 104.2073750 122.4207890  81.2512340
  89.6938300 122.4166960  81.5752480  89.0998620 122.2851660  82.3142520
  89.6862140 121.5805100  81.1094580  99.1393320 105.7099190  79.7782510
  98.2653160 106.0434300  79.5755440  99.0304070 105.2372370  80.6034380
 100.0465300 107.9170060  81.1624230  99.7178660 107.1021820  80.7825960
 100.9947600 107.8739870  81.0389920  89.3250530 119.7825340  80.5260520
  88.5984590 119.1630630  80.4586470  89.3859680 120.1765950  79.6558600
  92.9295630 121.9970340  77.3109930  93.4460650 121.3857700  76.7858190
  93.5793010 122.4999120  77.8020940  95.6691130 122.8878830  78.1378910
  95.9568940 122.6333130  77.2611920  96.1814350 122.3356190  78.7284480
  96.8868140 106.6269030  78.7175420  96.1039930 107.1014530  78.9972180
  96.5931070 105.7223860  78.6088600 101.4389210 107.3292130  76.7624510
 101.8797300 107.2737230  75.9146110 101.1696800 108.2450140  76.8334690
  87.6080530 123.0999730  73.7357280  87.4402570 122.4670410  74.4339170
  86.7415040 123.3059130  73.3851470  94.7722360 109.0455780  74.2291450
  93.9596870 108.6712670  73.8887330  95.2764000 108.2900860  74.5312640
  99.2747340 105.7098230  75.4674520  99.8776710 106.2818440  75.9423040
  98.5340330 106.2737670  75.2448420 102.4181940 106.1119790  70.7414800
 102.6132570 107.0103240  71.0082230 101.6311810 105.8806870  71.2347750
  89.2143230 121.7932960  71.1807420  88.6890850 122.1740990  70.4769380
  89.1387810 122.4183730  71.9017130  90.6033700 107.4580560  69.7791110
  91.1326460 106.6710360  69.6499060  91.2362020 108.1371750  70.0126640
  92.7971540 107.1955700  72.8336500  92.1674280 106.4943010  73.0006630
  92.2576680 107.9559830  72.6169660  95.7363490 123.8094930  85.5047110
  96.6630800 123.5739200  85.5483070  95.7213920 124.6366930  85.0233140
 103.9708550 123.3520500  72.5021360 104.1460740 122.6658240  71.8582280
 103.2730120 123.8767550  72.1098030  91.8136200 123.7415340  70.0556670
  92.5455020 123.4574620  69.5080560  92.0729870 123.5028620  70.9456050
  90.9750990 119.8580070  70.0603000  90.3459870 120.3265170  70.6088830
  91.0898820 119.0129290  70.4949190  99.5242560 105.8893260  85.8469460
  99.4108010 106.2087870  86.7420980 100.3412300 106.2905770  85.5506740
 102.3041050 123.0364790  85.3288150 103.0966370 122.5414020  85.1214110
 102.5974200 123.7154930  85.9363760  98.4300710 113.9085730  56.2104200
  98.3494760 112.9940340  55.9395910  98.0165130 114.4052800  55.5043910
  96.5618750 115.6864750  58.0913470  95.7860850 115.2065190  58.3812040
  97.2131680 115.0070400  57.9169630  90.5784580 115.9984560  58.9689230
  89.7469460 115.7433270  59.3685740  91.1865560 116.0695330  59.7047150
  90.5585840 120.0324650  59.1647250  90.8613880 119.1422390  58.9857470
  91.3029430 120.5894870  58.9369500  88.9876530 110.9586450  52.7531620
  88.0993230 111.3002420  52.6511500  89.2717720 110.7586770  51.8612450
  86.9509540 113.5592100  58.6371320  87.5225650 112.7914300  58.6374960
  86.9511080 113.8580860  57.7277930  88.1934410 108.9676460  60.4240250
  88.0137250 108.0702210  60.7043010  87.7914490 109.5148330  61.0987200
  97.0332910 111.1692320  58.3252560  97.4097730 110.2964200  58.2126230
  96.9352420 111.5051020  57.4343000  91.1637920 109.5417950  53.7870000
  91.2704670 110.4421680  54.0938760  90.2530280 109.4935920  53.4964650
  88.8121080 111.4636960  59.0322590  89.4931190 111.7275330  59.6509990
  88.4969130 110.6237830  59.3660600  93.0045650 112.5104320  58.1195180
  93.5123870 113.0085290  58.7600200  93.5358890 111.7339520  57.9434540
  92.5384600 116.7898060  60.5632100  92.2053980 117.4166980  61.2053170
  92.7151280 117.3159940  59.7833770  90.9697080 108.8612840  60.3929050
  91.3113890 109.7054890  60.0982920  90.0312890 109.0096580  60.5094390
 102.6681290 120.2218270  60.2935920 101.9844810 120.8917380  60.2852590
 103.2075580 120.4198920  59.5280780  99.6025470 116.9692240  60.3363710
 100.0194260 116.7552350  59.5017170 100.3265290 117.2265030  60.9072330
 103.5487570 115.3679460  60.4279950 102.7206200 115.4372550  59.9530080
 104.1438050 115.9533770  59.9595780 100.5129580 112.1548780  61.3734820
 100.1000760 112.9802490  61.6274810  99.7805530 111.5693820  61.1811180
  92.6462370 114.9408680  56.2353490  92.2419370 114.2285930  55.7399390
  92.7325490 114.5961920  57.1241530  93.1144070 118.6276240  58.3992700
  92.8172360 118.0221710  57.7200480  94.0643890 118.6653550  58.2882060
  91.3590990 111.7151890  60.0152530  91.9105580 111.8247230  59.2405780
  91.8734500 112.0889490  60.7307760 101.2029680 122.2008110  62.0615800
 100.7260240 123.0080300  61.8688410 100.5191470 121.5486440  62.2142010
  91.0333720 115.2371250  63.6257870  90.8941490 116.1094050  63.9945270
  90.1515080 114.8944060  63.4805810 102.8284860 106.4693860  49.2782800
 102.5157520 106.5620690  50.1781870 103.5897330 107.0474890  49.2280230
  89.3467000 113.8353660  53.7360140  89.2264600 114.5615750  53.1241410
  89.0367890 113.0656570  53.2588050 104.7828890 121.9620050  67.1307190
 105.2588610 122.4402940  67.8096270 105.4036050 121.8937540  66.4052690
  86.9852370 117.0068800  59.5428780  87.0632790 117.1417570  58.5984500
  87.5994050 116.2984690  59.7356900  88.2300000 118.7068990  55.9534960
  87.8228080 118.8483580  55.0988560  89.1213010 118.4229150  55.7506170
 104.1862140 119.1532900  64.2907200 104.3125200 118.9144780  63.3724380
 104.2283520 118.3217440  64.7629280  98.0478880 122.8560900  62.8602010
  98.5623550 122.7668910  63.6624440  97.2047960 123.2020600  63.1529920
  92.5021660 122.9214770  54.0657630  92.3264140 122.0050310  53.8525430
  91.6477400 123.2802060  54.3055430  87.0411890 118.0482970  62.0823240
  87.2042930 117.5788330  61.2642610  87.5064340 117.5406530  62.7472080
  96.1000470 110.0457250  62.7219130  95.6379840 110.2540270  63.5339070
  95.6978580 109.2316600  62.4189800 101.1004980 111.2666200  63.8515790
 100.2498570 110.9671950  64.1724860 100.9406770 111.5108210  62.9399610
  98.1954690 112.7667950  65.9514580  98.5208100 111.9331700  65.6116810
  98.9835020 113.2896470  66.0992910  93.8506560 107.7236060  58.9773410
  94.1478890 108.6298890  58.8965430  94.3992120 107.2354840  58.3632980
  91.6044880 112.3022300  54.8465060  91.3785800 112.0859470  55.7511680
  90.8237410 112.7350760  54.5011030  94.0444090 113.2007880  65.5125330
  93.9487690 112.2602610  65.3625730  94.8876070 113.4222950  65.1173400
  97.4407510 110.9449210  55.4758990  97.8337080 111.2621410  54.6627680
  97.8024360 110.0661090  55.5903510  89.1754630 109.6121550  63.6659110
  88.7818020 110.4596760  63.8731890  88.4873030 108.9747920  63.8567750
  95.7499680 109.6956520  66.7355850  95.0598000 109.5028720  67.3701940
  96.4931980 109.9791160  67.2680150  86.6641910 111.4770130  48.9091910
  86.5816580 112.4200890  49.0506900  86.3124970 111.3345040  48.0304260
  98.0262650 113.5354960  59.5709770  97.2943770 114.0441770  59.9199870
  97.6286990 112.7184940  59.2698550  94.4640040 110.2109160  57.9762260
  94.4676100 109.7699110  57.1266800  95.3591160 110.5326490  58.0834080
  90.3142420 110.0935650  56.9356470  89.9742470 110.5710880  57.6923520
  89.5519740 109.6400770  56.5757570  98.4888560 108.9888640  58.9832710
  98.5061300 109.4397290  59.8274560  98.2404140 108.0894280  59.1966150
  88.6150870 117.4234400  64.2419050  88.2305660 116.7828070  64.8402010
  88.9263060 118.1270520  64.8113780  94.7648010 114.2710940  59.7227670
  95.1318140 113.7969510  60.4689010  94.5753070 115.1452510  60.0636010
  87.6288500 109.0154630  55.8521140  87.3435420 108.6510300  56.6899760
  87.5667360 108.2835090  55.2384280  92.5547380 113.3119580  62.0411880
  92.2504450 114.1911560  62.2662240  93.5093840 113.3719370  62.0769320
  91.0829170 117.5180570  52.6378730  90.3091430 116.9778190  52.4777450
  91.8123800 116.9987180  52.2996490 101.8417150 116.5145930  58.4305120
 102.5616270 117.0101220  58.0401230 101.6398970 115.8363820  57.7858990
  97.3027090 107.9083890  52.5734510  96.4891700 107.4097060  52.4979820
  97.1089040 108.7482140  52.1570860  97.2235950 116.5854990  64.3174120
  97.1573260 115.6650660  64.0631710  96.5941090 116.6830430  65.0318760
  91.1266570 117.1860950  56.2757540  91.6445240 116.3829210  56.2214430
  90.6750590 117.1240090  57.1174370  88.6111110 114.1522320  63.1883240
  88.2526050 114.8176170  63.7756580  88.3165670 113.3205870  63.5595860
  91.8124230 114.6106560  66.0722790  91.5124370 114.7563740  65.1750610
  92.5835470 114.0511850  65.9796180  97.1552680 119.4075560  64.0677920
  97.1697220 118.4756520  63.8496830  96.4477780 119.4935320  64.7067690
 103.3663890 116.0482900  63.4146500 102.6412080 116.6411680  63.2175890
 103.8939350 116.0406440  62.6159870  87.1219160 114.1513580  49.8117840
  87.9914010 114.4338380  50.0953760  86.6309480 114.9649450  49.6966650
  97.8618660 119.0525480  59.8795870  98.5040890 118.3518640  59.9928040
  98.3868010 119.8323920  59.6992760 101.7074380 119.3374100  49.6035010
 101.4811960 118.6204540  50.1959650 101.3170580 119.0886540  48.7656760
  99.6356280 119.8520380  63.0831930  99.9712520 120.4387070  63.7609850
  98.7156620 119.7213090  63.3129720  87.4732270 121.6295820  64.8521870
  87.5823390 120.6890560  64.7117260  86.8212830 121.8950570  64.2035600
  95.4644860 119.9011710  66.2519990  95.1441730 119.1820950  66.7965680
  94.7903220 120.5766780  66.3256050  93.5059030 120.7472160  51.1953140
  93.4969130 121.4801850  50.5797650  92.5857390 120.5003740  51.2880100
  89.1065670 115.9687050  51.9399900  88.4993620 116.7085950  51.9495200
  89.5815020 116.0586410  51.1138100  98.6798460 110.1337870  61.6156790
  99.0479280 109.3133080  61.9436360  97.8196660 110.1939760  62.0312440
 102.0460490 109.0894810  52.4244350 101.4173650 109.1940480  51.7102580
 101.5512410 109.3091590  53.2138230  96.4918630 120.8100400  49.8578330
  96.5930610 120.6064390  48.9280310  95.5920370 120.5558680  50.0626110
  94.0144520 111.3680760  53.8402230  93.3060670 111.8367100  54.2815840
  94.2989000 110.7102770  54.4747420  95.6400450 112.7877460  61.8394760
  96.1385700 113.2623280  62.5046610  95.7823400 111.8640980  62.0464790
  98.0459950 108.0931420  55.2798020  97.9227730 108.1117550  54.3307530
  98.9944510 108.1410360  55.3996420  92.2179540 109.6765840  51.2152940
  93.0670070 110.1135990  51.1493130  91.8510810 109.9886100  52.0425000
 101.1389320 114.2478600  56.1284510 100.1979460 114.2628830  56.3032200
 101.4533390 113.4614560  56.5744810  91.1170960 115.9298200  49.6888470
  91.8834230 115.8179560  50.2513900  91.1945650 115.2336170  49.0365240
  89.8117720 113.3623270  50.3721360  89.8921310 112.4150780  50.4838760
  90.7037470 113.6930150  50.4782020 103.1414900 121.4187450  57.8038770
 103.2662320 122.2418620  58.2762580 104.0080460 121.2078180  57.4562920
  90.6132430 123.5118660  57.4755900  91.3494910 122.9634120  57.7464470
  90.9973350 124.3774670  57.3361890  87.4977910 119.5792230  53.3497410
  86.5717690 119.8213370  53.3402820  87.9634340 120.4066490  53.2282160
  93.7234740 122.6848970  49.2981470  94.5163350 122.9737800  48.8463260
  93.2039090 122.2541140  48.6193950  98.4555340 118.8044600  66.6116890
  97.8493500 118.8276200  65.8712640  98.1509450 118.0727640  67.1484140
  99.8855710 122.5324890  65.2226300 100.8377460 122.4482910  65.1726540
  99.7383930 123.1966600  65.8960090  87.3388520 115.1838190  65.6077530
  87.8427540 114.6045470  66.1793760  86.5995940 115.4678420  66.1453900
  94.3926460 116.5909180  65.1413050  93.6272130 117.1594180  65.0567720
  94.5742420 116.2985390  64.2481280 101.5349810 118.3214510  65.6988070
 102.2759280 118.6590270  65.1955530 100.7722490 118.4906570  65.1457840
  89.3711600 113.3267780  66.5027600  89.4116940 113.0281650  67.4112830
  90.2257100 113.7275390  66.3435120  91.3117410 111.9059880  64.4702090
  90.7813870 111.4150830  63.8425430  91.9805480 112.3344080  63.9360020
 100.2095470 116.3729340  64.2343280 100.6236490 116.5274420  65.0833700
  99.2746470 116.4984560  64.3969060 100.6817640 113.7125500  66.2382430
 101.2638410 112.9577820  66.1502910 100.8579410 114.2432940  65.4613910
  94.5651150 107.4295490  61.5826770  94.1168450 107.4519750  60.7372320
  93.9316350 107.0314510  62.1797070  94.9710700 116.3249820  62.2039210
  95.3898810 117.1682550  62.0315450  94.0519330 116.4621860  61.9745990
  97.3074600 114.0566000  63.5877050  97.4270810 113.4607140  64.3271890
  98.1668600 114.0935690  63.1678350  99.6462500 114.6103190  62.1639560
  99.1197720 115.1345810  61.5604700  99.9893840 115.2430580  62.7949290
  94.0743370 110.5987350  64.8452870  94.6643060 110.2903200  65.5330690
  93.2563610 110.1267100  65.0012770  98.8936800 110.2153160  65.0785890
  98.2052320 109.5534700  65.0135880  99.6142820 109.7691430  65.5234350
  99.5237200 106.8104790  51.1376150  99.8039490 105.9672690  51.4935570
  98.7502930 107.0427900  51.6514900  90.8431690 109.0997180  48.5967150
  91.1457590 109.1064610  47.6886300  91.5826280 108.7495040  49.0934810
  94.0616620 108.0431800  49.5823350  93.7138620 107.3655790  49.0025800
  94.2629390 107.5821310  50.3966740  89.8661820 118.4039600  49.4296950
  90.3036690 118.9469270  50.0854530  90.3509550 117.5786550  49.4393290
  87.0807620 121.1928630  56.8817210  87.4110630 120.3249690  56.6495850
  87.5098620 121.3987150  57.7122170  91.6769540 119.5237640  54.5419180
  91.3765080 119.4002610  55.4423090  91.5707030 118.6646230  54.1334910
  87.5697830 122.0599220  59.6198840  87.1328820 122.2400020  60.4522990
  88.1375510 122.8173840  59.4780560 103.2060010 121.5616220  63.9076150
 102.6062000 121.6208780  63.1640070 103.3353910 120.6221200  64.0373000
  87.4022260 114.5719450  55.9787720  86.7471100 114.3031090  55.3347420
  88.2400210 114.4623930  55.5289700 104.9077890 116.9031620  56.5921990
 105.2786720 116.1198940  56.1857960 105.5479820 117.5920720  56.4139290
 101.8911650 118.2868200  62.0052310 101.0771490 118.7165360  62.2678100
 102.2985850 118.8986610  61.3921360 103.8502430 114.2784880  53.8982010
 103.4746030 113.5112810  53.4663300 103.1205550 114.6607580  54.3856940
  88.4398190 114.9572020  60.5191060  88.8071230 114.8699420  61.3987080
  87.8709010 114.1938570  60.4197920 103.2402050 113.4256400  63.5321530
 103.0088140 113.1969150  62.6319480 103.5006600 114.3455950  63.4866420
  87.9914190 111.8681110  64.4249480  87.0970240 111.8347870  64.7643190
  88.5311740 112.0667900  65.1900730 101.6790120 108.6512830  66.3101230
 102.5560300 108.6596230  66.6935230 101.6910960 107.9143670  65.6993580
  86.6160340 111.7818380  51.9213050  85.7124420 112.0448580  51.7464710
  87.1000960 112.0529550  51.1413010  89.1587550 110.8383920  49.8307430
  89.8679250 110.4167140  49.3454710  88.4427490 110.9059150  49.1990780
 102.6153360 111.7615720  53.1381660 103.1112480 111.5286590  53.9230540
 102.4169430 110.9227560  52.7219300 104.9330790 108.2284590  48.9125480
 105.8580100 108.0965770  48.7043770 104.9106580 108.3077410  49.8661930
 105.0069280 108.9995250  51.5382190 104.2120780 108.9340370  52.0675100
 105.2112560 109.9345890  51.5267540  89.8550270 119.4704710  65.6811210
  89.8119900 119.0997620  66.5625670  89.9861280 120.4082280  65.8213030
 104.8160460 123.0458680  62.0831570 104.3218740 123.4427550  61.3658700
 104.2073750 122.4207890  62.4768850  99.1393320 105.7099190  61.0039020
  98.2653160 106.0434300  60.8011950  99.0304070 105.2372370  61.8290890
 100.0465300 107.9170060  62.3880740  99.7178660 107.1021820  62.0082470
 100.9947600 107.8739870  62.2646430 102.4999910 123.6882100  59.3618310
 102.0402880 124.4397910  58.9876330 101.8712370 122.9688570  59.3033110
  89.3250530 119.7825340  61.7517030  88.5984590 119.1630630  61.6842980
  89.3859680 120.1765950  60.8815110  96.8868140 106.6269030  59.9431930
  96.1039930 107.1014530  60.2228690  96.5931070 105.7223860  59.8345110
  87.6080530 123.0999730  54.9613790  87.4402570 122.4670410  55.6595680
  86.7415040 123.3059130  54.6107980  94.7722360 109.0455780  55.4547960
  93.9596870 108.6712670  55.1143840  95.2764000 108.2900860  55.7569150
  99.2747340 105.7098230  56.6931030  99.8776710 106.2818440  57.1679550
  98.5340330 106.2737670  56.4704930 102.4181940 106.1119790  51.9671310
 102.6132570 107.0103240  52.2338740 101.6311810 105.8806870  52.4604260
  90.6033700 107.4580560  51.0047620  91.1326460 106.6710360  50.8755570
  91.2362020 108.1371750  51.2383150  95.7363490 123.8094930  66.7303620
  96.6630800 123.5739200  66.7739580  95.7213920 124.6366930  66.2489650
  90.9750990 119.8580070  51.2859510  90.3459870 120.3265170  51.8345340
  91.0898820 119.0129290  51.7205700 102.3041050 123.0364790  66.5544660
 103.0966370 122.5414020  66.3470620 102.5974200 123.7154930  67.1620270
  90.5784580 115.9984560  40.1945740  89.7469460 115.7433270  40.5942250
  91.1865560 116.0695330  40.9303660 100.5826180 120.0924940  38.0969110
 100.1207710 119.3212180  38.4256280 101.3951730 120.1191010  38.6021560
  90.5585840 120.0324650  40.3903760  90.8613880 119.1422390  40.2113980
  91.3029430 120.5894870  40.1626010  86.9509540 113.5592100  39.8627830
  87.5225650 112.7914300  39.8631470  86.9511080 113.8580860  38.9534440
  96.8089490 122.3782950  37.7173100  96.1900930 122.8340450  37.1467540
  97.6641270 122.5334410  37.3162800  96.0027740 118.3621940  39.3240140
  95.9336020 117.4211880  39.1629270  96.7647600 118.4523350  39.8962710
  88.1934410 108.9676460  41.6496760  88.0137250 108.0702210  41.9299520
  87.7914490 109.5148330  42.3243710  91.1637920 109.5417950  35.0126510
  91.2704670 110.4421680  35.3195270  90.2530280 109.4935920  34.7221160
 100.8157030 108.6642760  36.4837410 101.6366650 108.1739330  36.5262890
 100.8491110 109.2540420  37.2369250  88.8121080 111.4636960  40.2579100
  89.4931190 111.7275330  40.8766500  88.4969130 110.6237830  40.5917110
 105.1056580 110.6809510  43.0481040 104.4008750 111.0691220  42.5296150
 105.3714500 111.3759800  43.6501970  97.6752840 117.2622190  35.1105010
  97.0570110 117.7271640  34.5467730  98.1876090 117.9549670  35.5274520
  92.5384600 116.7898060  41.7888610  92.2053980 117.4166980  42.4309680
  92.7151280 117.3159940  41.0090280 101.0518510 110.6043140  39.2564950
 100.3474080 110.8928030  39.8368060 101.4130670 111.4143250  38.8964510
  90.9697080 108.8612840  41.6185560  91.3113890 109.7054890  41.3239430
  90.0312890 109.0096580  41.7350900  91.7503700 118.7578860  43.6037790
  92.3677700 119.4329940  43.3222240  90.8896820 119.1666840  43.5125290
 102.6681290 120.2218270  41.5192430 101.9844810 120.8917380  41.5109100
 103.2075580 120.4198920  40.7537290 104.1205430 110.0497930  39.6474160
 103.1730340 110.0836910  39.7789590 104.4455420 110.8636880  40.0323520
  94.6524970 106.3495110  37.9430150  94.9599950 105.7942000  37.2265650
  93.7225670 106.4839570  37.7603140 100.2040030 122.0662400  40.2337610
 100.2167190 121.6624690  39.3659870  99.6515250 122.8409690  40.1299040
 101.4985450 118.7878620  35.3227780 101.3881780 117.8452950  35.4477200
 101.4953700 119.1494260  36.2090540  99.6025470 116.9692240  41.5620220
 100.0194260 116.7552350  40.7273680 100.3265290 117.2265030  42.1328840
  97.0405730 114.4143940  34.6790270  96.1135010 114.3481320  34.9078740
  97.1930550 115.3524070  34.5645510  97.0274810 110.6860940  31.6757430
  96.0878480 110.8474900  31.7609890  97.3458070 111.4046620  31.1293420
 103.5487570 115.3679460  41.6536460 102.7206200 115.4372550  41.1786590
 104.1438050 115.9533770  41.1852290 101.0703020 115.9764240  35.1825520
 100.4515440 115.6383790  34.5351820 101.0527470 115.3324000  35.8904710
  92.6462370 114.9408680  37.4610000  92.2419370 114.2285930  36.9655900
  92.7325490 114.5961920  38.3498040  93.1144070 118.6276240  39.6249210
  92.8172360 118.0221710  38.9456990  94.0643890 118.6653550  39.5138570
 101.2029680 122.2008110  43.2872310 100.7260240 123.0080300  43.0944920
 100.5191470 121.5486440  43.4398520  92.2062500 118.3657930  46.2757010
  91.3091030 118.5897900  46.5230410  92.2315370 118.4892870  45.3268410
  99.2467720 115.2151050  32.1898270  99.6861000 114.3773480  32.0436090
  99.9596140 115.8480450  32.2762410  91.0333720 115.2371250  44.8514380
  90.8941490 116.1094050  45.2201780  90.1515080 114.8944060  44.7062320
  97.3563100 120.1547120  36.1579510  97.7959010 120.8971450  35.7434900
  97.2949990 120.3973690  37.0818470  92.8314070 121.1792950  47.0599530
  92.8029500 121.5835900  46.1927960  92.6679040 120.2503310  46.8971130
  86.9852370 117.0068800  40.7685290  87.0632790 117.1417570  39.8241010
  87.5994050 116.2984690  40.9613410  88.2300000 118.7068990  37.1791470
  87.8228080 118.8483580  36.3245070  89.1213010 118.4229150  36.9762680
 104.1862140 119.1532900  45.5163710 104.3125200 118.9144780  44.5980890
 104.2283520 118.3217440  45.9885790 100.0233280 123.1416240  33.5142520
  99.8634420 122.8519180  34.4124350  99.8579990 122.3656370  32.9787750
  92.5021660 122.9214770  35.2914140  92.3264140 122.0050310  35.0781940
  91.6477400 123.2802060  35.5311940  99.7259410 120.6503800  32.0740520
  99.0324570 120.6481090  31.4142800 100.4682270 120.2263120  31.6434690
  99.2909340 122.2766510  36.1489010  99.7466290 121.4955890  36.4627630
  99.6301860 122.9873330  36.6930190 104.0386150 111.2065360  46.4813450
 103.4230420 111.7145030  45.9528910 103.7182570 110.3063690  46.4239390
  87.0411890 118.0482970  43.3079750  87.2042930 117.5788330  42.4899120
  87.5064340 117.5406530  43.9728590  91.8130660 107.1788730  38.3440320
  91.3698810 107.9598270  38.0124840  92.3715650 107.5018620  39.0511260
 101.1004980 111.2666200  45.0772300 100.2498570 110.9671950  45.3981370
 100.9406770 111.5108210  44.1656120  93.8506560 107.7236060  40.2029920
  94.1478890 108.6298890  40.1221940  94.3992120 107.2354840  39.5889490
  98.8342640 112.3085670  34.6712220  98.2351530 113.0321470  34.4875840
  99.3822250 112.2462450  33.8888670  97.4407510 110.9449210  36.7015500
  97.8337080 111.2621410  35.8884190  97.8024360 110.0661090  36.8160020
  86.4771680 107.5350010  38.9245700  86.1884730 108.1052870  39.6370680
  87.2217440 107.0554460  39.2876930  86.6641910 111.4770130  30.1348420
  86.5816580 112.4200890  30.2763410  86.3124970 111.3345040  29.2560770
  90.3142420 110.0935650  38.1612980  89.9742470 110.5710880  38.9180030
  89.5519740 109.6400770  37.8014080  94.5260190 111.2121240  32.1925530
  94.6473010 111.1707720  33.1411350  94.1408700 112.0745390  32.0372260
  98.4888560 108.9888640  40.2089220  98.5061300 109.4397290  41.0531070
  98.2404140 108.0894280  40.4222660  88.6150870 117.4234400  45.4675560
  88.2305660 116.7828070  46.0658520  88.9263060 118.1270520  46.0370290
  87.6288500 109.0154630  37.0777650  87.3435420 108.6510300  37.9156270
  87.5667360 108.2835090  36.4640790 101.8417150 116.5145930  39.6561630
 102.5616270 117.0101220  39.2657740 101.6398970 115.8363820  39.0115500
  97.2235950 116.5854990  45.5430630  97.1573260 115.6650660  45.2888220
  96.5941090 116.6830430  46.2575270 100.0175480 112.2803540  32.0953180
 100.9055100 112.5920770  31.9204520  99.9880570 111.4075790  31.7033760
  91.1266570 117.1860950  37.5014050  91.6445240 116.3829210  37.4470940
  90.6750590 117.1240090  38.3430880  96.0136070 118.4527230  32.7741350
  96.3551770 119.1969460  32.2784670  95.1848780 118.7658350  33.1366180
  88.6111110 114.1522320  44.4139750  88.2526050 114.8176170  45.0013090
  88.3165670 113.3205870  44.7852370  91.8124230 114.6106560  47.2979300
  91.5124370 114.7563740  46.4007120  92.5835470 114.0511850  47.2052690
  97.1552680 119.4075560  45.2934430  97.1697220 118.4756520  45.0753340
  96.4477780 119.4935320  45.9324200 102.2889750 113.5915380  31.5633040
 102.2053470 114.0229600  30.7129480 103.0083940 114.0513730  31.9959860
 103.3663890 116.0482900  44.6403010 102.6412080 116.6411680  44.4432400
 103.8939350 116.0406440  43.8416380 103.3177000 120.4457640  34.2915170
 102.6753160 119.7913260  34.5658890 102.9307660 120.8512730  33.5155840
  98.8963480 117.7743070  38.1386860  99.2487300 117.1771200  37.4788230
  98.0125810 117.4487300  38.3095110  94.9826760 118.5340760  35.5457270
  95.6697890 119.0809970  35.9264860  94.1959180 119.0781490  35.5806880
  87.1219160 114.1513580  31.0374350  87.9914010 114.4338380  31.3210270
  86.6309480 114.9649450  30.9223160  90.1865750 105.8824440  35.6305150
  90.0580380 105.8742340  36.5790070  89.3627770 106.2207530  35.2796160
  97.8618660 119.0525480  41.1052380  98.5040890 118.3518640  41.2184550
  98.3868010 119.8323920  40.9249270 101.7074380 119.3374100  30.8291520
 101.4811960 118.6204540  31.4216160 101.3170580 119.0886540  29.9913270
  99.6356280 119.8520380  44.3088440  99.9712520 120.4387070  44.9866360
  98.7156620 119.7213090  44.5386230 101.2890630 117.2546040  32.4905680
 101.0012330 117.7158730  33.2783560 102.0842800 116.7943810  32.7589900
  95.4644860 119.9011710  47.4776500  95.1441730 119.1820950  48.0222190
  94.7903220 120.5766780  47.5512560  93.5059030 120.7472160  32.4209650
  93.4969130 121.4801850  31.8054160  92.5857390 120.5003740  32.5136610
  96.4918630 120.8100400  31.0834840  96.5930610 120.6064390  30.1536820
  95.5920370 120.5558680  31.2882620  98.0459950 108.0931420  36.5054530
  97.9227730 108.1117550  35.5564040  98.9944510 108.1410360  36.6252930
  95.1336740 123.3286720  35.7782510  95.3878240 123.2908110  34.8561880
  94.1849220 123.2020050  35.7710760  92.2179540 109.6765840  32.4409450
  93.0670070 110.1135990  32.3749640  91.8510810 109.9886100  33.2681510
 102.8467310 109.0045420  43.9079660 102.3440910 109.7450820  44.2473470
 103.6623970 109.3929420  43.5916450 101.1389320 114.2478600  37.3541020
 100.1979460 114.2628830  37.5288710 101.4533390 113.4614560  37.8001320
 103.1414900 121.4187450  39.0295280 103.2662320 122.2418620  39.5019090
 104.0080460 121.2078180  38.6819430  90.6132430 123.5118660  38.7012410
  91.3494910 122.9634120  38.9720980  90.9973350 124.3774670  38.5618400
  93.7234740 122.6848970  30.5237980  94.5163350 122.9737800  30.0719770
  93.2039090 122.2541140  29.8450460  99.8855710 122.5324890  46.4482810
 100.8377460 122.4482910  46.3983050  99.7383930 123.1966600  47.1216600
 102.7764910 121.9119100  31.9474720 102.4906420 121.4984240  31.1328900
 102.5784460 122.8406810  31.8275240  87.3388520 115.1838190  46.8334040
  87.8427540 114.6045470  47.4050270  86.5995940 115.4678420  47.3710410
  94.3926460 116.5909180  46.3669560  93.6272130 117.1594180  46.2824230
  94.5742420 116.2985390  45.4737790  97.4814870 116.9672410  30.9922320
  96.9324970 117.4141710  31.6365060  98.1034130 116.4621660  31.5159990
 101.5349810 118.3214510  46.9244580 102.2759280 118.6590270  46.4212040
 100.7722490 118.4906570  46.3714350  89.3711600 113.3267780  47.7284110
  89.4116940 113.0281650  48.6369340  90.2257100 113.7275390  47.5691630
  91.3117410 111.9059880  45.6958600  90.7813870 111.4150830  45.0681940
  91.9805480 112.3344080  45.1616530 100.2095470 116.3729340  45.4599790
 100.6236490 116.5274420  46.3090210  99.2746470 116.4984560  45.6225570
  92.0448890 111.9996560  29.8345780  91.8437950 111.1363920  30.1959120
  91.8740940 111.9129920  28.8967380  99.5237200 106.8104790  32.3632660
  99.8039490 105.9672690  32.7192080  98.7502930 107.0427900  32.8771410
  96.2265660 123.0312550  32.4266460  97.1216450 123.3697520  32.4485220
  96.2583290 122.3091960  31.7990740  91.6769540 119.5237640  35.7675690
  91.3765080 119.4002610  36.6679600  91.5707030 118.6646230  35.3591420
  87.5697830 122.0599220  40.8455350  87.1328820 122.2400020  41.6779500
  88.1375510 122.8173840  40.7037070 103.2060010 121.5616220  45.1332660
 102.6062000 121.6208780  44.3896580 103.3353910 120.6221200  45.2629510
 104.4461460 119.3034040  30.4702370 103.6154420 119.3710690  30.9409600
 104.6233290 120.1938160  30.1669230 103.9017920 116.0481520  32.9736570
 104.6636830 116.6178170  33.0796260 103.9172290 115.4808720  33.7444880
  87.4022260 114.5719450  37.2044230  86.7471100 114.3031090  36.5603930
  88.2400210 114.4623930  36.7546210 104.9077890 116.9031620  37.8178500
 105.2786720 116.1198940  37.4114470 105.5479820 117.5920720  37.6395800
 101.8911650 118.2868200  43.2308820 101.0771490 118.7165360  43.4934610
 102.2985850 118.8986610  42.6177870 103.9537090 116.3415890  30.1309090
 104.2285930 117.2494770  30.0028310 103.7647830 116.2778420  31.0671080
 100.3512700 109.3660740  31.4262720 100.7697580 109.1791720  30.5859380
 100.0448760 108.5139790  31.7365650 103.8502430 114.2784880  35.1238520
 103.4746030 113.5112810  34.6919810 103.1205550 114.6607580  35.6113450
  88.4398190 114.9572020  41.7447570  88.8071230 114.8699420  42.6243590
  87.8709010 114.1938570  41.6454430 103.2402050 113.4256400  44.7578040
 103.0088140 113.1969150  43.8575990 103.5006600 114.3455950  44.7122930
  87.9914190 111.8681110  45.6505990  87.0970240 111.8347870  45.9899700
  88.5311740 112.0667900  46.4157240  86.6160340 111.7818380  33.1469560
  85.7124420 112.0448580  32.9721220  87.1000960 112.0529550  32.3669520
 103.1253390 112.5042370  38.4245760 103.6490870 112.0105020  37.7935930
 103.7112810 112.6392730  39.1693330 103.3043110 112.5882240  41.9465310
 102.3545820 112.5545780  42.0610300 103.4856120 113.4982350  41.7115080
  89.1587550 110.8383920  31.0563940  89.8679250 110.4167140  30.5711220
  88.4427490 110.9059150  30.4247290 102.6153360 111.7615720  34.3638170
 103.1112480 111.5286590  35.1487050 102.4169430 110.9227560  33.9475810
  88.4953900 106.1429440  39.9989210  89.1430090 105.5926820  39.5584370
  88.9155740 106.3972590  40.8205020 104.0440520 110.3976670  36.8975850
 103.9339800 110.2432710  37.8358120 104.8048110 109.8697610  36.6551260
 101.9487700 123.0386800  36.7577090 102.5446770 122.7171370  36.0811510
 102.2065850 122.5658620  37.5490360 104.8160460 123.0458680  43.3088080
 104.3218740 123.4427550  42.5915210 104.2073750 122.4207890  43.7025360
 102.4999910 123.6882100  40.5874820 102.0402880 124.4397910  40.2132840
 101.8712370 122.9688570  40.5289620  89.3250530 119.7825340  42.9773540
  88.5984590 119.1630630  42.9099490  89.3859680 120.1765950  42.1071620
 101.4389210 107.3292130  39.2137530 101.8797300 107.2737230  38.3659130
 101.1696800 108.2450140  39.2847710 103.3027780 106.9607370  37.2246350
 103.2416180 106.0168590  37.0777370 104.0819810 107.0687460  37.7699810
  94.7722360 109.0455780  36.6804470  93.9596870 108.6712670  36.3400350
  95.2764000 108.2900860  36.9825660  99.2747340 105.7098230  37.9187540
  99.8776710 106.2818440  38.3936060  98.5340330 106.2737670  37.6961440
  92.7971540 107.1955700  35.2849520  92.1674280 106.4943010  35.4519650
  92.2576680 107.9559830  35.0682680 103.9708550 123.3520500  34.9534380
 104.1460740 122.6658240  34.3095300 103.2730120 123.8767550  34.5611050
  91.8136200 123.7415340  32.5069690  92.5455020 123.4574620  31.9593580
  92.0729870 123.5028620  33.3969070 102.3041050 123.0364790  47.7801170
 103.0966370 122.5414020  47.5727130 102.5974200 123.7154930  48.3876780
  98.4300710 113.9085730  18.6617220  98.3494760 112.9940340  18.3908930
  98.0165130 114.4052800  17.9556930  96.5618750 115.6864750  20.5426490
  95.7860850 115.2065190  20.8325060  97.2131680 115.0070400  20.3682650
  90.5784580 115.9984560  21.4202250  89.7469460 115.7433270  21.8198760
  91.1865560 116.0695330  22.1560170 100.5826180 120.0924940  19.3225620
 100.1207710 119.3212180  19.6512790 101.3951730 120.1191010  19.8278070
  90.5585840 120.0324650  21.6160270  90.8613880 119.1422390  21.4370490
  91.3029430 120.5894870  21.3882520  88.9876530 110.9586450  15.2044640
  88.0993230 111.3002420  15.1024520  89.2717720 110.7586770  14.3125470
  86.9509540 113.5592100  21.0884340  87.5225650 112.7914300  21.0887980
  86.9511080 113.8580860  20.1790950  96.8089490 122.3782950  18.9429610
  96.1900930 122.8340450  18.3724050  97.6641270 122.5334410  18.5419310
  96.0027740 118.3621940  20.5496650  95.9336020 117.4211880  20.3885780
  96.7647600 118.4523350  21.1219220  88.1934410 108.9676460  22.8753270
  88.0137250 108.0702210  23.1556030  87.7914490 109.5148330  23.5500220
  97.0332910 111.1692320  20.7765580  97.4097730 110.2964200  20.6639250
  96.9352420 111.5051020  19.8856020  91.1637920 109.5417950  16.2383020
  91.2704670 110.4421680  16.5451780  90.2530280 109.4935920  15.9477670
 100.8157030 108.6642760  17.7093920 101.6366650 108.1739330  17.7519400
 100.8491110 109.2540420  18.4625760  88.8121080 111.4636960  21.4835610
  89.4931190 111.7275330  22.1023010  88.4969130 110.6237830  21.8173620
  93.0045650 112.5104320  20.5708200  93.5123870 113.0085290  21.2113220
  93.5358890 111.7339520  20.3947560 105.1056580 110.6809510  24.2737550
 104.4008750 111.0691220  23.7552660 105.3714500 111.3759800  24.8758480
  91.2881750 107.1502880  24.8371620  91.2900190 107.6675270  24.0317520
  90.4586060 106.6733060  24.8141550  97.6752840 117.2622190  16.3361520
  97.0570110 117.7271640  15.7724240  98.1876090 117.9549670  16.7531030
  92.5384600 116.7898060  23.0145120  92.2053980 117.4166980  23.6566190
  92.7151280 117.3159940  22.2346790 101.0518510 110.6043140  20.4821460
 100.3474080 110.8928030  21.0624570 101.4130670 111.4143250  20.1221020
  90.9697080 108.8612840  22.8442070  91.3113890 109.7054890  22.5495940
  90.0312890 109.0096580  22.9607410  91.7503700 118.7578860  24.8294300
  92.3677700 119.4329940  24.5478750  90.8896820 119.1666840  24.7381800
  87.0436040 117.9478720  13.7101150  86.6664020 118.4365820  12.9786050
  87.3009110 118.6204000  14.3407680 102.6681290 120.2218270  22.7448940
 101.9844810 120.8917380  22.7365610 103.2075580 120.4198920  21.9793800
 104.1205430 110.0497930  20.8730670 103.1730340 110.0836910  21.0046100
 104.4455420 110.8636880  21.2580030  94.6524970 106.3495110  19.1686660
  94.9599950 105.7942000  18.4522160  93.7225670 106.4839570  18.9859650
 100.2040030 122.0662400  21.4594120 100.2167190 121.6624690  20.5916380
  99.6515250 122.8409690  21.3555550 101.4985450 118.7878620  16.5484290
 101.3881780 117.8452950  16.6733710 101.4953700 119.1494260  17.4347050
  99.6025470 116.9692240  22.7876730 100.0194260 116.7552350  21.9530190
 100.3265290 117.2265030  23.3585350  97.0405730 114.4143940  15.9046780
  96.1135010 114.3481320  16.1335250  97.1930550 115.3524070  15.7902020
  97.0274810 110.6860940  12.9013940  96.0878480 110.8474900  12.9866400
  97.3458070 111.4046620  12.3549930 103.5487570 115.3679460  22.8792970
 102.7206200 115.4372550  22.4043100 104.1438050 115.9533770  22.4108800
 101.0703020 115.9764240  16.4082030 100.4515440 115.6383790  15.7608330
 101.0527470 115.3324000  17.1161220 100.5129580 112.1548780  23.8247840
 100.1000760 112.9802490  24.0787830  99.7805530 111.5693820  23.6324200
  92.6462370 114.9408680  18.6866510  92.2419370 114.2285930  18.1912410
  92.7325490 114.5961920  19.5754550  93.1144070 118.6276240  20.8505720
  92.8172360 118.0221710  20.1713500  94.0643890 118.6653550  20.7395080
  91.3590990 111.7151890  22.4665550  91.9105580 111.8247230  21.6918800
  91.8734500 112.0889490  23.1820780 101.2029680 122.2008110  24.5128820
 100.7260240 123.0080300  24.3201430 100.5191470 121.5486440  24.6655030
  92.2062500 118.3657930  27.5013520  91.3091030 118.5897900  27.7486920
  92.2315370 118.4892870  26.5524920  99.2467720 115.2151050  13.4154780
  99.6861000 114.3773480  13.2692600  99.9596140 115.8480450  13.5018920
  91.0333720 115.2371250  26.0770890  90.8941490 116.1094050  26.4458290
  90.1515080 114.8944060  25.9318830  97.3563100 120.1547120  17.3836020
  97.7959010 120.8971450  16.9691410  97.2949990 120.3973690  18.3074980
  92.8314070 121.1792950  28.2856040  92.8029500 121.5835900  27.4184470
  92.6679040 120.2503310  28.1227640 102.8284860 106.4693860  11.7295820
 102.5157520 106.5620690  12.6294890 103.5897330 107.0474890  11.6793250
  89.3467000 113.8353660  16.1873160  89.2264600 114.5615750  15.5754430
  89.0367890 113.0656570  15.7101070 104.7828890 121.9620050  29.5820210
 105.2588610 122.4402940  30.2609290 105.4036050 121.8937540  28.8565710
  86.9852370 117.0068800  21.9941800  87.0632790 117.1417570  21.0497520
  87.5994050 116.2984690  22.1869920  88.2300000 118.7068990  18.4047980
  87.8228080 118.8483580  17.5501580  89.1213010 118.4229150  18.2019190
 104.1862140 119.1532900  26.7420220 104.3125200 118.9144780  25.8237400
 104.2283520 118.3217440  27.2142300  98.0478880 122.8560900  25.3115030
  98.5623550 122.7668910  26.1137460  97.2047960 123.2020600  25.6042940
 100.0233280 123.1416240  14.7399030  99.8634420 122.8519180  15.6380860
  99.8579990 122.3656370  14.2044260  92.5021660 122.9214770  16.5170650
  92.3264140 122.0050310  16.3038450  91.6477400 123.2802060  16.7568450
  99.7259410 120.6503800  13.2997030  99.0324570 120.6481090  12.6399310
 100.4682270 120.2263120  12.8691200  99.2909340 122.2766510  17.3745520
  99.7466290 121.4955890  17.6884140  99.6301860 122.9873330  17.9186700
 104.0386150 111.2065360  27.7069960 103.4230420 111.7145030  27.1785420
 103.7182570 110.3063690  27.6495900  87.0411890 118.0482970  24.5336260
  87.2042930 117.5788330  23.7155630  87.5064340 117.5406530  25.1985100
  91.8130660 107.1788730  19.5696830  91.3698810 107.9598270  19.2381350
  92.3715650 107.5018620  20.2767770  96.1000470 110.0457250  25.1732150
  95.6379840 110.2540270  25.9852090  95.6978580 109.2316600  24.8702820
 101.1004980 111.2666200  26.3028810 100.2498570 110.9671950  26.6237880
 100.9406770 111.5108210  25.3912630  98.1954690 112.7667950  28.4027600
  98.5208100 111.9331700  28.0629830  98.9835020 113.2896470  28.5505930
  94.9289480 106.7999430  14.4502660  94.3043660 106.7959300  15.1755970
  94.8419600 105.9330390  14.0538630  93.8506560 107.7236060  21.4286430
  94.1478890 108.6298890  21.3478450  94.3992120 107.2354840  20.8146000
  91.6044880 112.3022300  17.2978080  91.3785800 112.0859470  18.2024700
  90.8237410 112.7350760  16.9524050  98.8342640 112.3085670  15.8968730
  98.2351530 113.0321470  15.7132350  99.3822250 112.2462450  15.1145180
  94.0444090 113.2007880  27.9638350  93.9487690 112.2602610  27.8138750
  94.8876070 113.4222950  27.5686420  97.4407510 110.9449210  17.9272010
  97.8337080 111.2621410  17.1140700  97.8024360 110.0661090  18.0416530
  89.1754630 109.6121550  26.1172130  88.7818020 110.4596760  26.3244910
  88.4873030 108.9747920  26.3080770  95.7499680 109.6956520  29.1868870
  95.0598000 109.5028720  29.8214960  96.4931980 109.9791160  29.7193170
  86.4771680 107.5350010  20.1502210  86.1884730 108.1052870  20.8627190
  87.2217440 107.0554460  20.5133440  86.6641910 111.4770130  11.3604930
  86.5816580 112.4200890  11.5019920  86.3124970 111.3345040  10.4817280
  98.0262650 113.5354960  22.0222790  97.2943770 114.0441770  22.3712890
  97.6286990 112.7184940  21.7211570  94.4640040 110.2109160  20.4275280
  94.4676100 109.7699110  19.5779820  95.3591160 110.5326490  20.5347100
  90.3142420 110.0935650  19.3869490  89.9742470 110.5710880  20.1436540
  89.5519740 109.6400770  19.0270590  94.5260190 111.2121240  13.4182040
  94.6473010 111.1707720  14.3667860  94.1408700 112.0745390  13.2628770
  98.4888560 108.9888640  21.4345730  98.5061300 109.4397290  22.2787580
  98.2404140 108.0894280  21.6479170  93.5381690 113.5222380  12.8165340
  92.9698590 113.0740630  12.1901250  94.2470690 113.8815160  12.2830490
 101.9159310 106.4020820  27.2732110 102.2405080 105.6710480  27.7990090
 101.9515820 106.0834460  26.3713100  88.6150870 117.4234400  26.6932070
  88.2305660 116.7828070  27.2915030  88.9263060 118.1270520  27.2626800
  94.7648010 114.2710940  22.1740690  95.1318140 113.7969510  22.9202030
  94.5753070 115.1452510  22.5149030  87.6288500 109.0154630  18.3034160
  87.3435420 108.6510300  19.1412780  87.5667360 108.2835090  17.6897300
  92.5547380 113.3119580  24.4924900  92.2504450 114.1911560  24.7175260
  93.5093840 113.3719370  24.5282340  91.0829170 117.5180570  15.0891750
  90.3091430 116.9778190  14.9290470  91.8123800 116.9987180  14.7509510
 101.8417150 116.5145930  20.8818140 102.5616270 117.0101220  20.4914250
 101.6398970 115.8363820  20.2372010  97.3027090 107.9083890  15.0247530
  96.4891700 107.4097060  14.9492840  97.1089040 108.7482140  14.6083880
  97.2235950 116.5854990  26.7687140  97.1573260 115.6650660  26.5144730
  96.5941090 116.6830430  27.4831780 100.0175480 112.2803540  13.3209690
 100.9055100 112.5920770  13.1461030  99.9880570 111.4075790  12.9290270
  91.1266570 117.1860950  18.7270560  91.6445240 116.3829210  18.6727450
  90.6750590 117.1240090  19.5687390  96.0136070 118.4527230  13.9997860
  96.3551770 119.1969460  13.5041180  95.1848780 118.7658350  14.3622690
  88.6111110 114.1522320  25.6396260  88.2526050 114.8176170  26.2269600
  88.3165670 113.3205870  26.0108880  91.8124230 114.6106560  28.5235810
  91.5124370 114.7563740  27.6263630  92.5835470 114.0511850  28.4309200
  97.1552680 119.4075560  26.5190940  97.1697220 118.4756520  26.3009850
  96.4477780 119.4935320  27.1580710 102.2889750 113.5915380  12.7889550
 102.2053470 114.0229600  11.9385990 103.0083940 114.0513730  13.2216370
 103.3663890 116.0482900  25.8659520 102.6412080 116.6411680  25.6688910
 103.8939350 116.0406440  25.0672890 103.3177000 120.4457640  15.5171680
 102.6753160 119.7913260  15.7915400 102.9307660 120.8512730  14.7412350
  98.8963480 117.7743070  19.3643370  99.2487300 117.1771200  18.7044740
  98.0125810 117.4487300  19.5351620  94.9826760 118.5340760  16.7713780
  95.6697890 119.0809970  17.1521370  94.1959180 119.0781490  16.8063390
  87.1219160 114.1513580  12.2630860  87.9914010 114.4338380  12.5466780
  86.6309480 114.9649450  12.1479670  94.2853970 115.5386790  16.3839140
  94.7416750 116.3492040  16.6099330  93.9342180 115.2209930  17.2157630
  96.5886580 121.0493130  23.6131440  97.2328800 121.2552510  24.2904860
  96.9516020 120.2881530  23.1602290  90.1865750 105.8824440  16.8561660
  90.0580380 105.8742340  17.8046580  89.3627770 106.2207530  16.5052670
  97.8618660 119.0525480  22.3308890  98.5040890 118.3518640  22.4441060
  98.3868010 119.8323920  22.1505780 101.7074380 119.3374100  12.0548030
 101.4811960 118.6204540  12.6472670 101.3170580 119.0886540  11.2169780
  99.6356280 119.8520380  25.5344950  99.9712520 120.4387070  26.2122870
  98.7156620 119.7213090  25.7642740  87.4890410 123.3640960  12.8292490
  87.8488050 123.9630300  12.1749760  87.3482750 123.9100850  13.6027520
  87.1859680 107.6415560  26.3168360  86.4718200 107.8412480  26.9220970
  87.6054720 106.8655130  26.6883160 101.2890630 117.2546040  13.7162190
 101.0012330 117.7158730  14.5040070 102.0842800 116.7943810  13.9846410
  87.4732270 121.6295820  27.3034890  87.5823390 120.6890560  27.1630280
  86.8212830 121.8950570  26.6548620  95.4644860 119.9011710  28.7033010
  95.1441730 119.1820950  29.2478700  94.7903220 120.5766780  28.7769070
  93.5059030 120.7472160  13.6466160  93.4969130 121.4801850  13.0310670
  92.5857390 120.5003740  13.7393120  89.1065670 115.9687050  14.3912920
  88.4993620 116.7085950  14.4008220  89.5815020 116.0586410  13.5651120
  98.6798460 110.1337870  24.0669810  99.0479280 109.3133080  24.3949380
  97.8196660 110.1939760  24.4825460 102.0460490 109.0894810  14.8757370
 101.4173650 109.1940480  14.1615600 101.5512410 109.3091590  15.6651250
  96.4918630 120.8100400  12.3091350  96.5930610 120.6064390  11.3793330
  95.5920370 120.5558680  12.5139130  94.0144520 111.3680760  16.2915250
  93.3060670 111.8367100  16.7328860  94.2989000 110.7102770  16.9260440
  95.6400450 112.7877460  24.2907780  96.1385700 113.2623280  24.9559630
  95.7823400 111.8640980  24.4977810  98.0459950 108.0931420  17.7311040
  97.9227730 108.1117550  16.7820550  98.9944510 108.1410360  17.8509440
  95.1336740 123.3286720  17.0039020  95.3878240 123.2908110  16.0818390
  94.1849220 123.2020050  16.9967270  92.2179540 109.6765840  13.6665960
  93.0670070 110.1135990  13.6006150  91.8510810 109.9886100  14.4938020
 102.8467310 109.0045420  25.1336170 102.3440910 109.7450820  25.4729980
 103.6623970 109.3929420  24.8172960 101.1389320 114.2478600  18.5797530
 100.1979460 114.2628830  18.7545220 101.4533390 113.4614560  19.0257830
  91.1170960 115.9298200  12.1401490  91.8834230 115.8179560  12.7026920
  91.1945650 115.2336170  11.4878260  89.8117720 113.3623270  12.8234380
  89.8921310 112.4150780  12.9351780  90.7037470 113.6930150  12.9295040
 103.1414900 121.4187450  20.2551790 103.2662320 122.2418620  20.7275600
 104.0080460 121.2078180  19.9075940  90.6132430 123.5118660  19.9268920
  91.3494910 122.9634120  20.1977490  90.9973350 124.3774670  19.7874910
  87.4977910 119.5792230  15.8010430  86.5717690 119.8213370  15.7915840
  87.9634340 120.4066490  15.6795180  89.6190710 122.6964730  29.1154500
  90.4203440 123.0176780  29.5289900  89.1042530 122.3360310  29.8374410
  93.7234740 122.6848970  11.7494490  94.5163350 122.9737800  11.2976280
  93.2039090 122.2541140  11.0706970  98.4555340 118.8044600  29.0629910
  97.8493500 118.8276200  28.3225660  98.1509450 118.0727640  29.5997160
  99.8855710 122.5324890  27.6739320 100.8377460 122.4482910  27.6239560
  99.7383930 123.1966600  28.3473110 102.7764910 121.9119100  13.1731230
 102.4906420 121.4984240  12.3585410 102.5784460 122.8406810  13.0531750
  87.3388520 115.1838190  28.0590550  87.8427540 114.6045470  28.6306780
  86.5995940 115.4678420  28.5966920  94.2412140 117.9052380  11.6136840
  94.1362780 117.2904730  12.3398220  94.0736360 117.3818270  10.8299850
  94.3926460 116.5909180  27.5926070  93.6272130 117.1594180  27.5080740
  94.5742420 116.2985390  26.6994300  97.4814870 116.9672410  12.2178830
  96.9324970 117.4141710  12.8621570  98.1034130 116.4621660  12.7416500
 101.5349810 118.3214510  28.1501090 102.2759280 118.6590270  27.6468550
 100.7722490 118.4906570  27.5970860  89.3711600 113.3267780  28.9540620
  89.4116940 113.0281650  29.8625850  90.2257100 113.7275390  28.7948140
  93.1489990 115.9263330  14.1144130  93.5706410 115.7603200  14.9575520
  93.2740830 115.1163560  13.6199270  91.3117410 111.9059880  26.9215110
  90.7813870 111.4150830  26.2938450  91.9805480 112.3344080  26.3873040
  95.6617630 114.9500940  11.3621230  96.1823290 114.2349960  10.9962380
  96.3086030 115.5886810  11.6621740 100.2095470 116.3729340  26.6856300
 100.6236490 116.5274420  27.5346720  99.2746470 116.4984560  26.8482080
 100.6817640 113.7125500  28.6895450 101.2638410 112.9577820  28.6015930
 100.8579410 114.2432940  27.9126930  91.7989710 108.8722250  27.0012400
  91.7046580 108.2543000  26.2763270  91.2187100 109.5988540  26.7742310
  94.5651150 107.4295490  24.0339790  94.1168450 107.4519750  23.1885340
  93.9316350 107.0314510  24.6310090  94.9710700 116.3249820  24.6552230
  95.3898810 117.1682550  24.4828470  94.0519330 116.4621860  24.4259010
  97.3074600 114.0566000  26.0390070  97.4270810 113.4607140  26.7784910
  98.1668600 114.0935690  25.6191370  99.6462500 114.6103190  24.6152580
  99.1197720 115.1345810  24.0117720  99.9893840 115.2430580  25.2462310
  92.0448890 111.9996560  11.0602290  91.8437950 111.1363920  11.4215630
  91.8740940 111.9129920  10.1223890  92.8218120 122.6302830  25.7709960
  92.2839210 123.3548890  25.4518660  93.0752080 122.1533170  24.9807300
  94.0743370 110.5987350  27.2965890  94.6643060 110.2903200  27.9843710
  93.2563610 110.1267100  27.4525790  98.8936800 110.2153160  27.5298910
  98.2052320 109.5534700  27.4648900  99.6142820 109.7691430  27.9747370
  99.5237200 106.8104790  13.5889170  99.8039490 105.9672690  13.9448590
  98.7502930 107.0427900  14.1027920  90.8431690 109.0997180  11.0480170
  91.1457590 109.1064610  10.1399320  91.5826280 108.7495040  11.5447830
  95.6780330 123.8654040  26.0296610  95.6039030 124.7689180  26.3368980
  94.7759170 123.5465940  26.0018680  94.0616620 108.0431800  12.0336370
  93.7138620 107.3655790  11.4538820  94.2629390 107.5821310  12.8479760
  96.2265660 123.0312550  13.6522970  97.1216450 123.3697520  13.6741730
  96.2583290 122.3091960  13.0247250  89.8661820 118.4039600  11.8809970
  90.3036690 118.9469270  12.5367550  90.3509550 117.5786550  11.8906310
  87.0807620 121.1928630  19.3330230  87.4110630 120.3249690  19.1008870
  87.5098620 121.3987150  20.1635190  91.6769540 119.5237640  16.9932200
  91.3765080 119.4002610  17.8936110  91.5707030 118.6646230  16.5847930
  87.5697830 122.0599220  22.0711860  87.1328820 122.2400020  22.9036010
  88.1375510 122.8173840  21.9293580 103.2060010 121.5616220  26.3589170
 102.6062000 121.6208780  25.6153090 103.3353910 120.6221200  26.4886020
 104.4461460 119.3034040  11.6958880 103.6154420 119.3710690  12.1666110
 104.6233290 120.1938160  11.3925740 103.9017920 116.0481520  14.1993080
 104.6636830 116.6178170  14.3052770 103.9172290 115.4808720  14.9701390
  87.4022260 114.5719450  18.4300740  86.7471100 114.3031090  17.7860440
  88.2400210 114.4623930  17.9802720 104.9077890 116.9031620  19.0435010
 105.2786720 116.1198940  18.6370980 105.5479820 117.5920720  18.8652310
 101.8911650 118.2868200  24.4565330 101.0771490 118.7165360  24.7191120
 102.2985850 118.8986610  23.8434380 103.9537090 116.3415890  11.3565600
 104.2285930 117.2494770  11.2284820 103.7647830 116.2778420  12.2927590
 100.3512700 109.3660740  12.6519230 100.7697580 109.1791720  11.8115890
 100.0448760 108.5139790  12.9622160 103.8502430 114.2784880  16.3495030
 103.4746030 113.5112810  15.9176320 103.1205550 114.6607580  16.8369960
  88.4398190 114.9572020  22.9704080  88.8071230 114.8699420  23.8500100
  87.8709010 114.1938570  22.8710940 103.2402050 113.4256400  25.9834550
 103.0088140 113.1969150  25.0832500 103.5006600 114.3455950  25.9379440
  87.9914190 111.8681110  26.8762500  87.0970240 111.8347870  27.2156210
  88.5311740 112.0667900  27.6413750 101.6790120 108.6512830  28.7614250
 102.5560300 108.6596230  29.1448250 101.6910960 107.9143670  28.1506600
  86.6160340 111.7818380  14.3726070  85.7124420 112.0448580  14.1977730
  87.1000960 112.0529550  13.5926030 103.1253390 112.5042370  19.6502270
 103.6490870 112.0105020  19.0192440 103.7112810 112.6392730  20.3949840
 103.3043110 112.5882240  23.1721820 102.3545820 112.5545780  23.2866810
 103.4856120 113.4982350  22.9371590  89.1587550 110.8383920  12.2820450
  89.8679250 110.4167140  11.7967730  88.4427490 110.9059150  11.6503800
  88.8061710 106.8923250  11.3223100  89.5289840 107.4332190  11.6404320
  89.0786230 106.6186670  10.4464640 102.6153360 111.7615720  15.5894680
 103.1112480 111.5286590  16.3743560 102.4169430 110.9227560  15.1732320
  88.4953900 106.1429440  21.2245720  89.1430090 105.5926820  20.7840880
  88.9155740 106.3972590  22.0461530 104.0440520 110.3976670  18.1232360
 103.9339800 110.2432710  19.0614630 104.8048110 109.8697610  17.8807770
 102.3906240 106.3370800  24.5815360 103.0278460 106.9504940  24.9474550
 102.5381130 106.3731460  23.6364590 104.9330790 108.2284590  11.3638500
 105.8580100 108.0965770  11.1556790 104.9106580 108.3077410  12.3174950
 105.0069280 108.9995250  13.9895210 104.2120780 108.9340370  14.5188120
 105.2112560 109.9345890  13.9780560 101.9487700 123.0386800  17.9833600
 102.5446770 122.7171370  17.3068020 102.2065850 122.5658620  18.7746870
  88.2485900 106.2985110  23.9671040  87.9000720 106.7548930  24.7329220
  87.9173600 105.4042240  24.0493470  89.8550270 119.4704710  28.1324230
  89.8119900 119.0997620  29.0138690  89.9861280 120.4082280  28.2726050
  93.5556300 121.0264300  23.7333950  93.3147660 121.2938860  22.8464470
  94.4958940 121.1970030  23.7884810  95.7610720 107.4896990  27.4890460
  95.6999610 108.0818820  28.2385870  96.7011100 107.3822950  27.3440720
  98.3985280 107.1467050  27.1282750  99.0125690 107.4646340  26.4663830
  98.9434840 106.6615640  27.7478610 104.8160460 123.0458680  24.5344590
 104.3218740 123.4427550  23.8171720 104.2073750 122.4207890  24.9281870
  88.9206540 105.8261310  27.2421810  89.4689530 105.6449360  26.4787920
  88.9861850 105.0355420  27.7778120  89.6938300 122.4166960  25.2522010
  89.0998620 122.2851660  25.9912050  89.6862140 121.5805100  24.7864110
  99.1393320 105.7099190  23.4552040  98.2653160 106.0434300  23.2524970
  99.0304070 105.2372370  24.2803910 100.0465300 107.9170060  24.8393760
  99.7178660 107.1021820  24.4595490 100.9947600 107.8739870  24.7159450
 102.4999910 123.6882100  21.8131330 102.0402880 124.4397910  21.4389350
 101.8712370 122.9688570  21.7546130  89.3250530 119.7825340  24.2030050
  88.5984590 119.1630630  24.1356000  89.3859680 120.1765950  23.3328130
  92.9295630 121.9970340  20.9879460  93.4460650 121.3857700  20.4627720
  93.5793010 122.4999120  21.4790470  95.6691130 122.8878830  21.8148440
  95.9568940 122.6333130  20.9381450  96.1814350 122.3356190  22.4054010
  96.8868140 106.6269030  22.3944950  96.1039930 107.1014530  22.6741710
  96.5931070 105.7223860  22.2858130 101.4389210 107.3292130  20.4394040
 101.8797300 107.2737230  19.5915640 101.1696800 108.2450140  20.5104220
 103.3027780 106.9607370  18.4502860 103.2416180 106.0168590  18.3033880
 104.0819810 107.0687460  18.9956320  87.6080530 123.0999730  17.4126810
  87.4402570 122.4670410  18.1108700  86.7415040 123.3059130  17.0621000
  88.2308550 106.9316510  14.9158670  88.9887910 107.0445390  14.3422700
  87.7685720 107.7685710  14.8702100  94.7722360 109.0455780  17.9060980
  93.9596870 108.6712670  17.5656860  95.2764000 108.2900860  18.2082170
  99.2747340 105.7098230  19.1444050  99.8776710 106.2818440  19.6192570
  98.5340330 106.2737670  18.9217950 102.4181940 106.1119790  14.4184330
 102.6132570 107.0103240  14.6851760 101.6311810 105.8806870  14.9117280
  89.2143230 121.7932960  14.8576950  88.6890850 122.1740990  14.1538910
  89.1387810 122.4183730  15.5786660  90.6033700 107.4580560  13.4560640
  91.1326460 106.6710360  13.3268590  91.2362020 108.1371750  13.6896170
  92.7971540 107.1955700  16.5106030  92.1674280 106.4943010  16.6776160
  92.2576680 107.9559830  16.2939190  95.7363490 123.8094930  29.1816640
  96.6630800 123.5739200  29.2252600  95.7213920 124.6366930  28.7002670
 103.9708550 123.3520500  16.1790890 104.1460740 122.6658240  15.5351810
 103.2730120 123.8767550  15.7867560  91.8136200 123.7415340  13.7326200
  92.5455020 123.4574620  13.1850090  92.0729870 123.5028620  14.6225580
  90.9750990 119.8580070  13.7372530  90.3459870 120.3265170  14.2858360
  91.0898820 119.0129290  14.1718720 102.3041050 123.0364790  29.0057680
 103.0966370 122.5414020  28.7983640 102.5974200 123.7154930  29.6133290
  96.5618750 115.6864750   1.7683000  95.7860850 115.2065190   2.0581570
  97.2131680 115.0070400   1.5939160  90.5784580 115.9984560   2.6458760
  89.7469460 115.7433270   3.0455270  91.1865560 116.0695330   3.3816680
  90.5585840 120.0324650   2.8416780  90.8613880 119.1422390   2.6627000
  91.3029430 120.5894870   2.6139030  96.0027740 118.3621940   1.7753160
  95.9336020 117.4211880   1.6142290  96.7647600 118.4523350   2.3475730
  88.1934410 108.9676460   4.1009780  88.0137250 108.0702210   4.3812540
  87.7914490 109.5148330   4.7756730  88.8121080 111.4636960   2.7092120
  89.4931190 111.7275330   3.3279520  88.4969130 110.6237830   3.0430130
  93.0045650 112.5104320   1.7964710  93.5123870 113.0085290   2.4369730
  93.5358890 111.7339520   1.6204070 105.1056580 110.6809510   5.4994060
 104.4008750 111.0691220   4.9809170 105.3714500 111.3759800   6.1014990
  91.2881750 107.1502880   6.0628130  91.2900190 107.6675270   5.2574030
  90.4586060 106.6733060   6.0398060  92.5384600 116.7898060   4.2401630
  92.2053980 117.4166980   4.8822700  92.7151280 117.3159940   3.4603300
  90.9697080 108.8612840   4.0698580  91.3113890 109.7054890   3.7752450
  90.0312890 109.0096580   4.1863920  91.7503700 118.7578860   6.0550810
  92.3677700 119.4329940   5.7735260  90.8896820 119.1666840   5.9638310
 102.6681290 120.2218270   3.9705450 101.9844810 120.8917380   3.9622120
 103.2075580 120.4198920   3.2050310 104.1205430 110.0497930   2.0987180
 103.1730340 110.0836910   2.2302610 104.4455420 110.8636880   2.4836540
 100.2040030 122.0662400   2.6850630 100.2167190 121.6624690   1.8172890
  99.6515250 122.8409690   2.5812060  99.6025470 116.9692240   4.0133240
 100.0194260 116.7552350   3.1786700 100.3265290 117.2265030   4.5841860
 103.5487570 115.3679460   4.1049480 102.7206200 115.4372550   3.6299610
 104.1438050 115.9533770   3.6365310 100.5129580 112.1548780   5.0504350
 100.1000760 112.9802490   5.3044340  99.7805530 111.5693820   4.8580710
  91.3590990 111.7151890   3.6922060  91.9105580 111.8247230   2.9175310
  91.8734500 112.0889490   4.4077290 101.2029680 122.2008110   5.7385330
 100.7260240 123.0080300   5.5457940 100.5191470 121.5486440   5.8911540
  92.2062500 118.3657930   8.7270030  91.3091030 118.5897900   8.9743430
  92.2315370 118.4892870   7.7781430  91.0333720 115.2371250   7.3027400
  90.8941490 116.1094050   7.6714800  90.1515080 114.8944060   7.1575340
  92.8314070 121.1792950   9.5112550  92.8029500 121.5835900   8.6440980
  92.6679040 120.2503310   9.3484150 104.7828890 121.9620050  10.8076720
 105.2588610 122.4402940  11.4865800 105.4036050 121.8937540  10.0822220
  86.9852370 117.0068800   3.2198310  87.0632790 117.1417570   2.2754030
  87.5994050 116.2984690   3.4126430 104.1862140 119.1532900   7.9676730
 104.3125200 118.9144780   7.0493910 104.2283520 118.3217440   8.4398810
  98.0478880 122.8560900   6.5371540  98.5623550 122.7668910   7.3393970
  97.2047960 123.2020600   6.8299450 104.0386150 111.2065360   8.9326470
 103.4230420 111.7145030   8.4041930 103.7182570 110.3063690   8.8752410
  87.0411890 118.0482970   5.7592770  87.2042930 117.5788330   4.9412140
  87.5064340 117.5406530   6.4241610  96.1000470 110.0457250   6.3988660
  95.6379840 110.2540270   7.2108600  95.6978580 109.2316600   6.0959330
 101.1004980 111.2666200   7.5285320 100.2498570 110.9671950   7.8494390
 100.9406770 111.5108210   6.6169140  98.1954690 112.7667950   9.6284110
  98.5208100 111.9331700   9.2886340  98.9835020 113.2896470   9.7762440
  93.8506560 107.7236060   2.6542940  94.1478890 108.6298890   2.5734960
  94.3992120 107.2354840   2.0402510  94.0444090 113.2007880   9.1894860
  93.9487690 112.2602610   9.0395260  94.8876070 113.4222950   8.7942930
  89.1754630 109.6121550   7.3428640  88.7818020 110.4596760   7.5501420
  88.4873030 108.9747920   7.5337280  95.7499680 109.6956520  10.4125380
  95.0598000 109.5028720  11.0471470  96.4931980 109.9791160  10.9449680
  98.0262650 113.5354960   3.2479300  97.2943770 114.0441770   3.5969400
  97.6286990 112.7184940   2.9468080  98.4888560 108.9888640   2.6602240
  98.5061300 109.4397290   3.5044090  98.2404140 108.0894280   2.8735680
 101.9159310 106.4020820   8.4988620 102.2405080 105.6710480   9.0246600
 101.9515820 106.0834460   7.5969610  88.6150870 117.4234400   7.9188580
  88.2305660 116.7828070   8.5171540  88.9263060 118.1270520   8.4883310
  94.7648010 114.2710940   3.3997200  95.1318140 113.7969510   4.1458540
  94.5753070 115.1452510   3.7405540  92.5547380 113.3119580   5.7181410
  92.2504450 114.1911560   5.9431770  93.5093840 113.3719370   5.7538850
 101.8417150 116.5145930   2.1074650 102.5616270 117.0101220   1.7170760
 101.6398970 115.8363820   1.4628520  97.2235950 116.5854990   7.9943650
  97.1573260 115.6650660   7.7401240  96.5941090 116.6830430   8.7088290
  88.6111110 114.1522320   6.8652770  88.2526050 114.8176170   7.4526110
  88.3165670 113.3205870   7.2365390  91.8124230 114.6106560   9.7492320
  91.5124370 114.7563740   8.8520140  92.5835470 114.0511850   9.6565710
  97.1552680 119.4075560   7.7447450  97.1697220 118.4756520   7.5266360
  96.4477780 119.4935320   8.3837220 103.3663890 116.0482900   7.0916030
 102.6412080 116.6411680   6.8945420 103.8939350 116.0406440   6.2929400
  96.5886580 121.0493130   4.8387950  97.2328800 121.2552510   5.5161370
  96.9516020 120.2881530   4.3858800  97.8618660 119.0525480   3.5565400
  98.5040890 118.3518640   3.6697570  98.3868010 119.8323920   3.3762290
  99.6356280 119.8520380   6.7601460  99.9712520 120.4387070   7.4379380
  98.7156620 119.7213090   6.9899250  87.1859680 107.6415560   7.5424870
  86.4718200 107.8412480   8.1477480  87.6054720 106.8655130   7.9139670
  87.4732270 121.6295820   8.5291400  87.5823390 120.6890560   8.3886790
  86.8212830 121.8950570   7.8805130  95.4644860 119.9011710   9.9289520
  95.1441730 119.1820950  10.4735210  94.7903220 120.5766780  10.0025580
  98.6798460 110.1337870   5.2926320  99.0479280 109.3133080   5.6205890
  97.8196660 110.1939760   5.7081970  95.6400450 112.7877460   5.5164290
  96.1385700 113.2623280   6.1816140  95.7823400 111.8640980   5.7234320
 102.8467310 109.0045420   6.3592680 102.3440910 109.7450820   6.6986490
 103.6623970 109.3929420   6.0429470  89.6190710 122.6964730  10.3411010
  90.4203440 123.0176780  10.7546410  89.1042530 122.3360310  11.0630920
  98.4555340 118.8044600  10.2886420  97.8493500 118.8276200   9.5482170
  98.1509450 118.0727640  10.8253670  99.8855710 122.5324890   8.8995830
 100.8377460 122.4482910   8.8496070  99.7383930 123.1966600   9.5729620
  87.3388520 115.1838190   9.2847060  87.8427540 114.6045470   9.8563290
  86.5995940 115.4678420   9.8223430  94.3926460 116.5909180   8.8182580
  93.6272130 117.1594180   8.7337250  94.5742420 116.2985390   7.9250810
 101.5349810 118.3214510   9.3757600 102.2759280 118.6590270   8.8725060
 100.7722490 118.4906570   8.8227370  89.3711600 113.3267780  10.1797130
  89.4116940 113.0281650  11.0882360  90.2257100 113.7275390  10.0204650
  91.3117410 111.9059880   8.1471620  90.7813870 111.4150830   7.5194960
  91.9805480 112.3344080   7.6129550 100.2095470 116.3729340   7.9112810
 100.6236490 116.5274420   8.7603230  99.2746470 116.4984560   8.0738590
 100.6817640 113.7125500   9.9151960 101.2638410 112.9577820   9.8272440
 100.8579410 114.2432940   9.1383440  91.7989710 108.8722250   8.2268910
  91.7046580 108.2543000   7.5019780  91.2187100 109.5988540   7.9998820
  94.5651150 107.4295490   5.2596300  94.1168450 107.4519750   4.4141850
  93.9316350 107.0314510   5.8566600  94.9710700 116.3249820   5.8808740
  95.3898810 117.1682550   5.7084980  94.0519330 116.4621860   5.6515520
  97.3074600 114.0566000   7.2646580  97.4270810 113.4607140   8.0041420
  98.1668600 114.0935690   6.8447880  99.6462500 114.6103190   5.8409090
  99.1197720 115.1345810   5.2374230  99.9893840 115.2430580   6.4718820
  92.8218120 122.6302830   6.9966470  92.2839210 123.3548890   6.6775170
  93.0752080 122.1533170   6.2063810  94.0743370 110.5987350   8.5222400
  94.6643060 110.2903200   9.2100220  93.2563610 110.1267100   8.6782300
  98.8936800 110.2153160   8.7555420  98.2052320 109.5534700   8.6905410
  99.6142820 109.7691430   9.2003880  95.6780330 123.8654040   7.2553120
  95.6039030 124.7689180   7.5625490  94.7759170 123.5465940   7.2275190
  87.5697830 122.0599220   3.2968370  87.1328820 122.2400020   4.1292520
  88.1375510 122.8173840   3.1550090 103.2060010 121.5616220   7.5845680
 102.6062000 121.6208780   6.8409600 103.3353910 120.6221200   7.7142530
 101.8911650 118.2868200   5.6821840 101.0771490 118.7165360   5.9447630
 102.2985850 118.8986610   5.0690890  88.4398190 114.9572020   4.1960590
  88.8071230 114.8699420   5.0756610  87.8709010 114.1938570   4.0967450
 103.2402050 113.4256400   7.2091060 103.0088140 113.1969150   6.3089010
 103.5006600 114.3455950   7.1635950  87.9914190 111.8681110   8.1019010
  87.0970240 111.8347870   8.4412720  88.5311740 112.0667900   8.8670260
 101.6790120 108.6512830   9.9870760 102.5560300 108.6596230  10.3704760
 101.6910960 107.9143670   9.3763110 103.3043110 112.5882240   4.3978330
 102.3545820 112.5545780   4.5123320 103.4856120 113.4982350   4.1628100
  88.4953900 106.1429440   2.4502230  89.1430090 105.5926820   2.0097390
  88.9155740 106.3972590   3.2718040 102.3906240 106.3370800   5.8071870
 103.0278460 106.9504940   6.1731060 102.5381130 106.3731460   4.8621100
  88.2485900 106.2985110   5.1927550  87.9000720 106.7548930   5.9585730
  87.9173600 105.4042240   5.2749980  89.8550270 119.4704710   9.3580740
  89.8119900 119.0997620  10.2395200  89.9861280 120.4082280   9.4982560
  93.5556300 121.0264300   4.9590460  93.3147660 121.2938860   4.0720980
  94.4958940 121.1970030   5.0141320  95.7610720 107.4896990   8.7146970
  95.6999610 108.0818820   9.4642380  96.7011100 107.3822950   8.5697230
  98.3985280 107.1467050   8.3539260  99.0125690 107.4646340   7.6920340
  98.9434840 106.6615640   8.9735120 104.8160460 123.0458680   5.7601100
 104.3218740 123.4427550   5.0428230 104.2073750 122.4207890   6.1538380
  88.9206540 105.8261310   8.4678320  89.4689530 105.6449360   7.7044430
  88.9861850 105.0355420   9.0034630  89.6938300 122.4166960   6.4778520
  89.0998620 122.2851660   7.2168560  89.6862140 121.5805100   6.0120620
  99.1393320 105.7099190   4.6808550  98.2653160 106.0434300   4.4781480
  99.0304070 105.2372370   5.5060420 100.0465300 107.9170060   6.0650270
  99.7178660 107.1021820   5.6852000 100.9947600 107.8739870   5.9415960
 102.4999910 123.6882100   3.0387840 102.0402880 124.4397910   2.6645860
 101.8712370 122.9688570   2.9802640  89.3250530 119.7825340   5.4286560
  88.5984590 119.1630630   5.3612510  89.3859680 120.1765950   4.5584640
  92.9295630 121.9970340   2.2135970  93.4460650 121.3857700   1.6884230
  93.5793010 122.4999120   2.7046980  95.6691130 122.8878830   3.0404950
  95.9568940 122.6333130   2.1637960  96.1814350 122.3356190   3.6310520
  96.8868140 106.6269030   3.6201460  96.1039930 107.1014530   3.8998220
  96.5931070 105.7223860   3.5114640  95.7363490 123.8094930  10.4073150
  96.6630800 123.5739200  10.4509110  95.7213920 124.6366930   9.9259180
  92.9227100 106.4739680  10.1715030  92.6411370 106.9773280   9.4075850
  93.3046800 105.6761430   9.8057160  99.5242560 105.8893260  10.7495500
  99.4108010 106.2087870  11.6447020 100.3412300 106.2905770  10.4532780
 102.3041050 123.0364790  10.2314190 103.0966370 122.5414020  10.0240150
 102.5974200 123.7154930  10.8389800  98.4300710  95.1342240 150.0821650
  98.3494760  94.2196850 149.8113360  98.0165130  95.6309310 149.3761360
 100.5826180 101.3181450 150.7430050 100.1207710 100.5468690 151.0717220
 101.3951730 101.3447520 151.2482500  88.9876530  92.1842960 146.6249070
  88.0993230  92.5258930 146.5228950  89.2717720  91.9843280 145.7329900
  96.8089490 103.6039460 150.3634040  96.1900930 104.0596960 149.7928480
  97.6641270 103.7590920 149.9623740  91.1637920  90.7674460 147.6587450
  91.2704670  91.6678190 147.9656210  90.2530280  90.7192430 147.3682100
 100.8157030  89.8899270 149.1298350 101.6366650  89.3995840 149.1723830
 100.8491110  90.4796930 149.8830190  97.6752840  98.4878700 147.7565950
  97.0570110  98.9528150 147.1928670  98.1876090  99.1806180 148.1735460
  87.0436040  99.1735230 145.1305580  86.6664020  99.6622330 144.3990480
  87.3009110  99.8460510 145.7612110  94.6524970  87.5751620 150.5891090
  94.9599950  87.0198510 149.8726590  93.7225670  87.7096080 150.4064080
 101.4985450 100.0135130 147.9688720 101.3881780  99.0709460 148.0938140
 101.4953700 100.3750770 148.8551480  97.0405730  95.6400450 147.3251210
  96.1135010  95.5737830 147.5539680  97.1930550  96.5780580 147.2106450
  97.0274810  91.9117450 144.3218370  96.0878480  92.0731410 144.4070830
  97.3458070  92.6303130 143.7754360 101.0703020  97.2020750 147.8286460
 100.4515440  96.8640300 147.1812760 101.0527470  96.5580510 148.5365650
  92.6462370  96.1665190 150.1070940  92.2419370  95.4542440 149.6116840
  92.7325490  95.8218430 150.9958980  99.2467720  96.4407560 144.8359210
  99.6861000  95.6029990 144.6897030  99.9596140  97.0736960 144.9223350
  97.3563100 101.3803630 148.8040450  97.7959010 102.1227960 148.3895840
  97.2949990 101.6230200 149.7279410 102.8284860  87.6950370 143.1500250
 102.5157520  87.7877200 144.0499320 103.5897330  88.2731400 143.0997680
  89.3467000  95.0610170 147.6077590  89.2264600  95.7872260 146.9958860
  89.0367890  94.2913080 147.1305500  88.2300000  99.9325500 149.8252410
  87.8228080 100.0740090 148.9706010  89.1213010  99.6485660 149.6223620
 100.0233280 104.3672750 146.1603460  99.8634420 104.0775690 147.0585290
  99.8579990 103.5912880 145.6248690  92.5021660 104.1471280 147.9375080
  92.3264140 103.2306820 147.7242880  91.6477400 104.5058570 148.1772880
  99.7259410 101.8760310 144.7201460  99.0324570 101.8737600 144.0603740
 100.4682270 101.4519630 144.2895630  99.2909340 103.5023020 148.7949950
  99.7466290 102.7212400 149.1088570  99.6301860 104.2129840 149.3391130
  91.8130660  88.4045240 150.9901260  91.3698810  89.1854780 150.6585780
  92.3715650  88.7275130 151.6972200  94.9289480  88.0255940 145.8707090
  94.3043660  88.0215810 146.5960400  94.8419600  87.1586900 145.4743060
  91.6044880  93.5278810 148.7182510  91.3785800  93.3115980 149.6229130
  90.8237410  93.9607270 148.3728480  98.8342640  93.5342180 147.3173160
  98.2351530  94.2577980 147.1336780  99.3822250  93.4718960 146.5349610
  97.4407510  92.1705720 149.3476440  97.8337080  92.4877920 148.5345130
  97.8024360  91.2917600 149.4620960  86.6641910  92.7026640 142.7809360
  86.5816580  93.6457400 142.9224350  86.3124970  92.5601550 141.9021710
  90.3142420  91.3192160 150.8073920  89.9742470  91.7967390 151.5640970
  89.5519740  90.8657280 150.4475020  94.5260190  92.4377750 144.8386470
  94.6473010  92.3964230 145.7872290  94.1408700  93.3001900 144.6833200
  93.5381690  94.7478890 144.2369770  92.9698590  94.2997140 143.6105680
  94.2470690  95.1071670 143.7034920  87.6288500  90.2411140 149.7238590
  87.3435420  89.8766810 150.5617210  87.5667360  89.5091600 149.1101730
  91.0829170  98.7437080 146.5096180  90.3091430  98.2034700 146.3494900
  91.8123800  98.2243690 146.1713940  97.3027090  89.1340400 146.4451960
  96.4891700  88.6353570 146.3697270  97.1089040  89.9738650 146.0288310
 100.0175480  93.5060050 144.7414120 100.9055100  93.8177280 144.5665460
  99.9880570  92.6332300 144.3494700  91.1266570  98.4117460 150.1474990
  91.6445240  97.6085720 150.0931880  90.6750590  98.3496600 150.9891820
  96.0136070  99.6783740 145.4202290  96.3551770 100.4225970 144.9245610
  95.1848780  99.9914860 145.7827120 102.2889750  94.8171890 144.2093980
 102.2053470  95.2486110 143.3590420 103.0083940  95.2770240 144.6420800
 103.3177000 101.6714150 146.9376110 102.6753160 101.0169770 147.2119830
 102.9307660 102.0769240 146.1616780  98.8963480  98.9999580 150.7847800
  99.2487300  98.4027710 150.1249170  98.0125810  98.6743810 150.9556050
  94.9826760  99.7597270 148.1918210  95.6697890 100.3066480 148.5725800
  94.1959180 100.3038000 148.2267820  87.1219160  95.3770090 143.6835290
  87.9914010  95.6594890 143.9671210  86.6309480  96.1905960 143.5684100
  94.2853970  96.7643300 147.8043570  94.7416750  97.5748550 148.0303760
  93.9342180  96.4466440 148.6362060  90.1865750  87.1080950 148.2766090
  90.0580380  87.0998850 149.2251010  89.3627770  87.4464040 147.9257100
 101.7074380 100.5630610 143.4752460 101.4811960  99.8461050 144.0677100
 101.3170580 100.3143050 142.6374210  87.4890410 104.5897470 144.2496920
  87.8488050 105.1886810 143.5954190  87.3482750 105.1357360 145.0231950
 101.2890630  98.4802550 145.1366620 101.0012330  98.9415240 145.9244500
 102.0842800  98.0200320 145.4050840  93.5059030 101.9728670 145.0670590
  93.4969130 102.7058360 144.4515100  92.5857390 101.7260250 145.1597550
  89.1065670  97.1943560 145.8117350  88.4993620  97.9342460 145.8212650
  89.5815020  97.2842920 144.9855550 102.0460490  90.3151320 146.2961800
 101.4173650  90.4196990 145.5820030 101.5512410  90.5348100 147.0855680
  96.4918630 102.0356910 143.7295780  96.5930610 101.8320900 142.7997760
  95.5920370 101.7815190 143.9343560  94.0144520  92.5937270 147.7119680
  93.3060670  93.0623610 148.1533290  94.2989000  91.9359280 148.3464870
  98.0459950  89.3187930 149.1515470  97.9227730  89.3374060 148.2024980
  98.9944510  89.3666870 149.2713870  95.1336740 104.5543230 148.4243450
  95.3878240 104.5164620 147.5022820  94.1849220 104.4276560 148.4171700
  92.2179540  90.9022350 145.0870390  93.0670070  91.3392500 145.0210580
  91.8510810  91.2142610 145.9142450 101.1389320  95.4735110 150.0001960
 100.1979460  95.4885340 150.1749650 101.4533390  94.6871070 150.4462260
  91.1170960  97.1554710 143.5605920  91.8834230  97.0436070 144.1231350
  91.1945650  96.4592680 142.9082690  89.8117720  94.5879780 144.2438810
  89.8921310  93.6407290 144.3556210  90.7037470  94.9186660 144.3499470
  90.6132430 104.7375170 151.3473350  91.3494910 104.1890630 151.6181920
  90.9973350 105.6031180 151.2079340  87.4977910 100.8048740 147.2214860
  86.5717690 101.0469880 147.2120270  87.9634340 101.6323000 147.0999610
  93.7234740 103.9105480 143.1698920  94.5163350 104.1994310 142.7180710
  93.2039090 103.4797650 142.4911400 102.7764910 103.1375610 144.5935660
 102.4906420 102.7240750 143.7789840 102.5784460 104.0663320 144.4736180
  94.2412140  99.1308890 143.0341270  94.1362780  98.5161240 143.7602650
  94.0736360  98.6074780 142.2504280  97.4814870  98.1928920 143.6383260
  96.9324970  98.6398220 144.2826000  98.1034130  97.6878170 144.1620930
  93.1489990  97.1519840 145.5348560  93.5706410  96.9859710 146.3779950
  93.2740830  96.3420070 145.0403700  95.6617630  96.1757450 142.7825660
  96.1823290  95.4606470 142.4166810  96.3086030  96.8143320 143.0826170
  92.0448890  93.2253070 142.4806720  91.8437950  92.3620430 142.8420060
  91.8740940  93.1386430 141.5428320  99.5237200  88.0361300 145.0093600
  99.8039490  87.1929200 145.3653020  98.7502930  88.2684410 145.5232350
  90.8431690  90.3253690 142.4684600  91.1457590  90.3321120 141.5603750
  91.5826280  89.9751550 142.9652260  94.0616620  89.2688310 143.4540800
  93.7138620  88.5912300 142.8743250  94.2629390  88.8077820 144.2684190
  96.2265660 104.2569060 145.0727400  97.1216450 104.5954030 145.0946160
  96.2583290 103.5348470 144.4451680  89.8661820  99.6296110 143.3014400
  90.3036690 100.1725780 143.9571980  90.3509550  98.8043060 143.3110740
  87.0807620 102.4185140 150.7534660  87.4110630 101.5506200 150.5213300
  87.5098620 102.6243660 151.5839620  91.6769540 100.7494150 148.4136630
  91.3765080 100.6259120 149.3140540  91.5707030  99.8902740 148.0052360
 104.4461460 100.5290550 143.1163310 103.6154420 100.5967200 143.5870540
 104.6233290 101.4194670 142.8130170 103.9017920  97.2738030 145.6197510
 104.6636830  97.8434680 145.7257200 103.9172290  96.7065230 146.3905820
  87.4022260  95.7975960 149.8505170  86.7471100  95.5287600 149.2064870
  88.2400210  95.6880440 149.4007150 104.9077890  98.1288130 150.4639440
 105.2786720  97.3455450 150.0575410 105.5479820  98.8177230 150.2856740
 103.9537090  97.5672400 142.7770030 104.2285930  98.4751280 142.6489250
 103.7647830  97.5034930 143.7132020 100.3512700  90.5917250 144.0723660
 100.7697580  90.4048230 143.2320320 100.0448760  89.7396300 144.3826590
 103.8502430  95.5041390 147.7699460 103.4746030  94.7369320 147.3380750
 103.1205550  95.8864090 148.2574390  86.6160340  93.0074890 145.7930500
  85.7124420  93.2705090 145.6182160  87.1000960  93.2786060 145.0130460
  89.1587550  92.0640430 143.7024880  89.8679250  91.6423650 143.2172160
  88.4427490  92.1315660 143.0708230  88.8061710  88.1179760 142.7427530
  89.5289840  88.6588700 143.0608750  89.0786230  87.8443180 141.8669070
 102.6153360  92.9872230 147.0099110 103.1112480  92.7543100 147.7947990
 102.4169430  92.1484070 146.5936750 104.0440520  91.6233180 149.5436790
 103.9339800  91.4689220 150.4819060 104.8048110  91.0954120 149.3012200
 104.9330790  89.4541100 142.7842930 105.8580100  89.3222280 142.5761220
 104.9106580  89.5333920 143.7379380 105.0069280  90.2251760 145.4099640
 104.2120780  90.1596880 145.9392550 105.2112560  91.1602400 145.3984990
 101.9487700 104.2643310 149.4038030 102.5446770 103.9427880 148.7272450
 102.2065850 103.7915130 150.1951300 103.3027780  88.1863880 149.8707290
 103.2416180  87.2425100 149.7238310 104.0819810  88.2943970 150.4160750
  87.6080530 104.3256240 148.8331240  87.4402570 103.6926920 149.5313130
  86.7415040 104.5315640 148.4825430  88.2308550  88.1573020 146.3363100
  88.9887910  88.2701900 145.7627130  87.7685720  88.9942220 146.2906530
  94.7722360  90.2712290 149.3265410  93.9596870  89.8969180 148.9861290
  95.2764000  89.5157370 149.6286600  99.2747340  86.9354740 150.5648480
  99.8776710  87.5074950 151.0397000  98.5340330  87.4994180 150.3422380
 102.4181940  87.3376300 145.8388760 102.6132570  88.2359750 146.1056190
 101.6311810  87.1063380 146.3321710  89.2143230 103.0189470 146.2781380
  88.6890850 103.3997500 145.5743340  89.1387810 103.6440240 146.9991090
  90.6033700  88.6837070 144.8765070  91.1326460  87.8966870 144.7473020
  91.2362020  89.3628260 145.1100600  92.7971540  88.4212210 147.9310460
  92.1674280  87.7199520 148.0980590  92.2576680  89.1816340 147.7143620
 103.9708550 104.5777010 147.5995320 104.1460740 103.8914750 146.9556240
 103.2730120 105.1024060 147.2071990  91.8136200 104.9671850 145.1530630
  92.5455020 104.6831130 144.6054520  92.0729870 104.7285130 146.0430010
  90.9750990 101.0836580 145.1576960  90.3459870 101.5521680 145.7062790
  91.0898820 100.2385800 145.5923150  90.5784580  97.2241070 134.0663190
  89.7469460  96.9689780 134.4659700  91.1865560  97.2951840 134.8021110
 100.5826180 101.3181450 131.9686560 100.1207710 100.5468690 132.2973730
 101.3951730 101.3447520 132.4739010  90.5585840 101.2581160 134.2621210
  90.8613880 100.3678900 134.0831430  91.3029430 101.8151380 134.0343460
  86.9509540  94.7848610 133.7345280  87.5225650  94.0170810 133.7348920
  86.9511080  95.0837370 132.8251890  96.8089490 103.6039460 131.5890550
  96.1900930 104.0596960 131.0184990  97.6641270 103.7590920 131.1880250
  96.0027740  99.5878450 133.1957590  95.9336020  98.6468390 133.0346720
  96.7647600  99.6779860 133.7680160  88.1934410  90.1932970 135.5214210
  88.0137250  89.2958720 135.8016970  87.7914490  90.7404840 136.1961160
  97.0332910  92.3948830 133.4226520  97.4097730  91.5220710 133.3100190
  96.9352420  92.7307530 132.5316960 100.8157030  89.8899270 130.3554860
 101.6366650  89.3995840 130.3980340 100.8491110  90.4796930 131.1086700
  88.8121080  92.6893470 134.1296550  89.4931190  92.9531840 134.7483950
  88.4969130  91.8494340 134.4634560 105.1056580  91.9066020 136.9198490
 104.4008750  92.2947730 136.4013600 105.3714500  92.6016310 137.5219420
  91.2881750  88.3759390 137.4832560  91.2900190  88.8931780 136.6778460
  90.4586060  87.8989570 137.4602490  92.5384600  98.0154570 135.6606060
  92.2053980  98.6423490 136.3027130  92.7151280  98.5416450 134.8807730
 101.0518510  91.8299650 133.1282400 100.3474080  92.1184540 133.7085510
 101.4130670  92.6399760 132.7681960  90.9697080  90.0869350 135.4903010
  91.3113890  90.9311400 135.1956880  90.0312890  90.2353090 135.6068350
  91.7503700  99.9835370 137.4755240  92.3677700 100.6586450 137.1939690
  90.8896820 100.3923350 137.3842740 102.6681290 101.4474780 135.3909880
 101.9844810 102.1173890 135.3826550 103.2075580 101.6455430 134.6254740
 100.2040030 103.2918910 134.1055060 100.2167190 102.8881200 133.2377320
  99.6515250 104.0666200 134.0016490 101.4985450 100.0135130 129.1945230
 101.3881780  99.0709460 129.3194650 101.4953700 100.3750770 130.0807990
  99.6025470  98.1948750 135.4337670 100.0194260  97.9808860 134.5991130
 100.3265290  98.4521540 136.0046290 103.5487570  96.5935970 135.5253910
 102.7206200  96.6629060 135.0504040 104.1438050  97.1790280 135.0569740
 101.0703020  97.2020750 129.0542970 100.4515440  96.8640300 128.4069270
 101.0527470  96.5580510 129.7622160 100.5129580  93.3805290 136.4708780
 100.1000760  94.2059000 136.7248770  99.7805530  92.7950330 136.2785140
  93.1144070  99.8532750 133.4966660  92.8172360  99.2478220 132.8174440
  94.0643890  99.8910060 133.3856020  91.3590990  92.9408400 135.1126490
  91.9105580  93.0503740 134.3379740  91.8734500  93.3146000 135.8281720
 101.2029680 103.4264620 137.1589760 100.7260240 104.2336810 136.9662370
 100.5191470 102.7742950 137.3115970  92.2062500  99.5914440 140.1474460
  91.3091030  99.8154410 140.3947860  92.2315370  99.7149380 139.1985860
  91.0333720  96.4627760 138.7231830  90.8941490  97.3350560 139.0919230
  90.1515080  96.1200570 138.5779770  97.3563100 101.3803630 130.0296960
  97.7959010 102.1227960 129.6152350  97.2949990 101.6230200 130.9535920
  92.8314070 102.4049460 140.9316980  92.8029500 102.8092410 140.0645410
  92.6679040 101.4759820 140.7688580  89.3467000  95.0610170 128.8334100
  89.2264600  95.7872260 128.2215370  89.0367890  94.2913080 128.3562010
 104.7828890 103.1876560 142.2281150 105.2588610 103.6659450 142.9070230
 105.4036050 103.1194050 141.5026650  86.9852370  98.2325310 134.6402740
  87.0632790  98.3674080 133.6958460  87.5994050  97.5241200 134.8330860
  88.2300000  99.9325500 131.0508920  87.8228080 100.0740090 130.1962520
  89.1213010  99.6485660 130.8480130 104.1862140 100.3789410 139.3881160
 104.3125200 100.1401290 138.4698340 104.2283520  99.5473950 139.8603240
  98.0478880 104.0817410 137.9575970  98.5623550 103.9925420 138.7598400
  97.2047960 104.4277110 138.2503880 100.0233280 104.3672750 127.3859970
  99.8634420 104.0775690 128.2841800  99.8579990 103.5912880 126.8505200
  92.5021660 104.1471280 129.1631590  92.3264140 103.2306820 128.9499390
  91.6477400 104.5058570 129.4029390  99.7259410 101.8760310 125.9457970
  99.0324570 101.8737600 125.2860250 100.4682270 101.4519630 125.5152140
  99.2909340 103.5023020 130.0206460  99.7466290 102.7212400 130.3345080
  99.6301860 104.2129840 130.5647640 104.0386150  92.4321870 140.3530900
 103.4230420  92.9401540 139.8246360 103.7182570  91.5320200 140.2956840
  87.0411890  99.2739480 137.1797200  87.2042930  98.8044840 136.3616570
  87.5064340  98.7663040 137.8446040  96.1000470  91.2713760 137.8193090
  95.6379840  91.4796780 138.6313030  95.6978580  90.4573110 137.5163760
 101.1004980  92.4922710 138.9489750 100.2498570  92.1928460 139.2698820
 100.9406770  92.7364720 138.0373570  98.1954690  93.9924460 141.0488540
  98.5208100  93.1588210 140.7090770  98.9835020  94.5152980 141.1966870
  94.0444090  94.4264390 140.6099290  93.9487690  93.4859120 140.4599690
  94.8876070  94.6479460 140.2147360  89.1754630  90.8378060 138.7633070
  88.7818020  91.6853270 138.9705850  88.4873030  90.2004430 138.9541710
  95.7499680  90.9213030 141.8329810  95.0598000  90.7285230 142.4675900
  96.4931980  91.2047670 142.3654110  86.4771680  88.7606520 132.7963150
  86.1884730  89.3309380 133.5088130  87.2217440  88.2810970 133.1594380
  86.6641910  92.7026640 124.0065870  86.5816580  93.6457400 124.1480860
  86.3124970  92.5601550 123.1278220  98.0262650  94.7611470 134.6683730
  97.2943770  95.2698280 135.0173830  97.6286990  93.9441450 134.3672510
  98.4888560  90.2145150 134.0806670  98.5061300  90.6653800 134.9248520
  98.2404140  89.3150790 134.2940110 101.9159310  87.6277330 139.9193050
 102.2405080  86.8966990 140.4451030 101.9515820  87.3090970 139.0174040
  88.6150870  98.6490910 139.3393010  88.2305660  98.0084580 139.9375970
  88.9263060  99.3527030 139.9087740  94.7648010  95.4967450 134.8201630
  95.1318140  95.0226020 135.5662970  94.5753070  96.3709020 135.1609970
  92.5547380  94.5376090 137.1385840  92.2504450  95.4168070 137.3636200
  93.5093840  94.5975880 137.1743280  91.0829170  98.7437080 127.7352690
  90.3091430  98.2034700 127.5751410  91.8123800  98.2243690 127.3970450
 101.8417150  97.7402440 133.5279080 102.5616270  98.2357730 133.1375190
 101.6398970  97.0620330 132.8832950  97.2235950  97.8111500 139.4148080
  97.1573260  96.8907170 139.1605670  96.5941090  97.9086940 140.1292720
  91.1266570  98.4117460 131.3731500  91.6445240  97.6085720 131.3188390
  90.6750590  98.3496600 132.2148330  88.6111110  95.3778830 138.2857200
  88.2526050  96.0432680 138.8730540  88.3165670  94.5462380 138.6569820
  91.8124230  95.8363070 141.1696750  91.5124370  95.9820250 140.2724570
  92.5835470  95.2768360 141.0770140  97.1552680 100.6332070 139.1651880
  97.1697220  99.7013030 138.9470790  96.4477780 100.7191830 139.8041650
 102.2889750  94.8171890 125.4350490 102.2053470  95.2486110 124.5846930
 103.0083940  95.2770240 125.8677310 103.3663890  97.2739410 138.5120460
 102.6412080  97.8668190 138.3149850 103.8939350  97.2662950 137.7133830
 103.3177000 101.6714150 128.1632620 102.6753160 101.0169770 128.4376340
 102.9307660 102.0769240 127.3873290  98.8963480  98.9999580 132.0104310
  99.2487300  98.4027710 131.3505680  98.0125810  98.6743810 132.1812560
  87.1219160  95.3770090 124.9091800  87.9914010  95.6594890 125.1927720
  86.6309480  96.1905960 124.7940610  96.5886580 102.2749640 136.2592380
  97.2328800 102.4809020 136.9365800  96.9516020 101.5138040 135.8063230
  97.8618660 100.2781990 134.9769830  98.5040890  99.5775150 135.0902000
  98.3868010 101.0580430 134.7966720 101.7074380 100.5630610 124.7008970
 101.4811960  99.8461050 125.2933610 101.3170580 100.3143050 123.8630720
  99.6356280 101.0776890 138.1805890  99.9712520 101.6643580 138.8583810
  98.7156620 100.9469600 138.4103680  87.4890410 104.5897470 125.4753430
  87.8488050 105.1886810 124.8210700  87.3482750 105.1357360 126.2488460
 101.2890630  98.4802550 126.3623130 101.0012330  98.9415240 127.1501010
 102.0842800  98.0200320 126.6307350  87.4732270 102.8552330 139.9495830
  87.5823390 101.9147070 139.8091220  86.8212830 103.1207080 139.3009560
  95.4644860 101.1268220 141.3493950  95.1441730 100.4077460 141.8939640
  94.7903220 101.8023290 141.4230010  93.5059030 101.9728670 126.2927100
  93.4969130 102.7058360 125.6771610  92.5857390 101.7260250 126.3854060
  89.1065670  97.1943560 127.0373860  88.4993620  97.9342460 127.0469160
  89.5815020  97.2842920 126.2112060  98.6798460  91.3594380 136.7130750
  99.0479280  90.5389590 137.0410320  97.8196660  91.4196270 137.1286400
  96.4918630 102.0356910 124.9552290  96.5930610 101.8320900 124.0254270
  95.5920370 101.7815190 125.1600070  95.6400450  94.0133970 136.9368720
  96.1385700  94.4879790 137.6020570  95.7823400  93.0897490 137.1438750
  98.0459950  89.3187930 130.3771980  97.9227730  89.3374060 129.4281490
  98.9944510  89.3666870 130.4970380  95.1336740 104.5543230 129.6499960
  95.3878240 104.5164620 128.7279330  94.1849220 104.4276560 129.6428210
 102.8467310  90.2301930 137.7797110 102.3440910  90.9707330 138.1190920
 103.6623970  90.6185930 137.4633900 101.1389320  95.4735110 131.2258470
 100.1979460  95.4885340 131.4006160 101.4533390  94.6871070 131.6718770
  91.1170960  97.1554710 124.7862430  91.8834230  97.0436070 125.3487860
  91.1945650  96.4592680 124.1339200  89.8117720  94.5879780 125.4695320
  89.8921310  93.6407290 125.5812720  90.7037470  94.9186660 125.5755980
 103.1414900 102.6443960 132.9012730 103.2662320 103.4675130 133.3736540
 104.0080460 102.4334690 132.5536880  90.6132430 104.7375170 132.5729860
  91.3494910 104.1890630 132.8438430  90.9973350 105.6031180 132.4335850
  87.4977910 100.8048740 128.4471370  86.5717690 101.0469880 128.4376780
  87.9634340 101.6323000 128.3256120  89.6190710 103.9221240 141.7615440
  90.4203440 104.2433290 142.1750840  89.1042530 103.5616820 142.4835350
  98.4555340 100.0301110 141.7090850  97.8493500 100.0532710 140.9686600
  98.1509450  99.2984150 142.2458100  99.8855710 103.7581400 140.3200260
 100.8377460 103.6739420 140.2700500  99.7383930 104.4223110 140.9934050
 102.7764910 103.1375610 125.8192170 102.4906420 102.7240750 125.0046350
 102.5784460 104.0663320 125.6992690  87.3388520  96.4094700 140.7051490
  87.8427540  95.8301980 141.2767720  86.5995940  96.6934930 141.2427860
  94.3926460  97.8165690 140.2387010  93.6272130  98.3850690 140.1541680
  94.5742420  97.5241900 139.3455240 101.5349810  99.5471020 140.7962030
 102.2759280  99.8846780 140.2929490 100.7722490  99.7163080 140.2431800
  89.3711600  94.5524290 141.6001560  89.4116940  94.2538160 142.5086790
  90.2257100  94.9531900 141.4409080  91.3117410  93.1316390 139.5676050
  90.7813870  92.6407340 138.9399390  91.9805480  93.5600590 139.0333980
 100.2095470  97.5985850 139.3317240 100.6236490  97.7530930 140.1807660
  99.2746470  97.7241070 139.4943020 100.6817640  94.9382010 141.3356390
 101.2638410  94.1834330 141.2476870 100.8579410  95.4689450 140.5587870
  91.7989710  90.0978760 139.6473340  91.7046580  89.4799510 138.9224210
  91.2187100  90.8245050 139.4203250  94.9710700  97.5506330 137.3013170
  95.3898810  98.3939060 137.1289410  94.0519330  97.6878370 137.0719950
  97.3074600  95.2822510 138.6851010  97.4270810  94.6863650 139.4245850
  98.1668600  95.3192200 138.2652310  99.6462500  95.8359700 137.2613520
  99.1197720  96.3602320 136.6578660  99.9893840  96.4687090 137.8923250
  92.0448890  93.2253070 123.7063230  91.8437950  92.3620430 124.0676570
  91.8740940  93.1386430 122.7684830  92.8218120 103.8559340 138.4170900
  92.2839210 104.5805400 138.0979600  93.0752080 103.3789680 137.6268240
  94.0743370  91.8243860 139.9426830  94.6643060  91.5159710 140.6304650
  93.2563610  91.3523610 140.0986730  98.8936800  91.4409670 140.1759850
  98.2052320  90.7791210 140.1109840  99.6142820  90.9947940 140.6208310
  95.6780330 105.0910550 138.6757550  95.6039030 105.9945690 138.9829920
  94.7759170 104.7722450 138.6479620  89.8661820  99.6296110 124.5270910
  90.3036690 100.1725780 125.1828490  90.3509550  98.8043060 124.5367250
  87.0807620 102.4185140 131.9791170  87.4110630 101.5506200 131.7469810
  87.5098620 102.6243660 132.8096130  91.6769540 100.7494150 129.6393140
  91.3765080 100.6259120 130.5397050  91.5707030  99.8902740 129.2308870
  87.5697830 103.2855730 134.7172800  87.1328820 103.4656530 135.5496950
  88.1375510 104.0430350 134.5754520 103.2060010 102.7872730 139.0050110
 102.6062000 102.8465290 138.2614030 103.3353910 101.8477710 139.1346960
 104.4461460 100.5290550 124.3419820 103.6154420 100.5967200 124.8127050
 104.6233290 101.4194670 124.0386680 103.9017920  97.2738030 126.8454020
 104.6636830  97.8434680 126.9513710 103.9172290  96.7065230 127.6162330
  87.4022260  95.7975960 131.0761680  86.7471100  95.5287600 130.4321380
  88.2400210  95.6880440 130.6263660 104.9077890  98.1288130 131.6895950
 105.2786720  97.3455450 131.2831920 105.5479820  98.8177230 131.5113250
 101.8911650  99.5124710 137.1026270 101.0771490  99.9421870 137.3652060
 102.2985850 100.1243120 136.4895320 103.8502430  95.5041390 128.9955970
 103.4746030  94.7369320 128.5637260 103.1205550  95.8864090 129.4830900
  88.4398190  96.1828530 135.6165020  88.8071230  96.0955930 136.4961040
  87.8709010  95.4195080 135.5171880 103.2402050  94.6512910 138.6295490
 103.0088140  94.4225660 137.7293440 103.5006600  95.5712460 138.5840380
  87.9914190  93.0937620 139.5223440  87.0970240  93.0604380 139.8617150
  88.5311740  93.2924410 140.2874690 101.6790120  89.8769340 141.4075190
 102.5560300  89.8852740 141.7909190 101.6910960  89.1400180 140.7967540
  86.6160340  93.0074890 127.0187010  85.7124420  93.2705090 126.8438670
  87.1000960  93.2786060 126.2386970 103.1253390  93.7298880 132.2963210
 103.6490870  93.2361530 131.6653380 103.7112810  93.8649240 133.0410780
 103.3043110  93.8138750 135.8182760 102.3545820  93.7802290 135.9327750
 103.4856120  94.7238860 135.5832530  89.1587550  92.0640430 124.9281390
  89.8679250  91.6423650 124.4428670  88.4427490  92.1315660 124.2964740
 102.6153360  92.9872230 128.2355620 103.1112480  92.7543100 129.0204500
 102.4169430  92.1484070 127.8193260  88.4953900  87.3685950 133.8706660
  89.1430090  86.8183330 133.4301820  88.9155740  87.6229100 134.6922470
 102.3906240  87.5627310 137.2276300 103.0278460  88.1761450 137.5935490
 102.5381130  87.5987970 136.2825530 104.9330790  89.4541100 124.0099440
 105.8580100  89.3222280 123.8017730 104.9106580  89.5333920 124.9635890
 101.9487700 104.2643310 130.6294540 102.5446770 103.9427880 129.9528960
 102.2065850 103.7915130 131.4207810  88.2485900  87.5241620 136.6131980
  87.9000720  87.9805440 137.3790160  87.9173600  86.6298750 136.6954410
  89.8550270 100.6961220 140.7785170  89.8119900 100.3254130 141.6599630
  89.9861280 101.6338790 140.9186990  93.5556300 102.2520810 136.3794890
  93.3147660 102.5195370 135.4925410  94.4958940 102.4226540 136.4345750
  95.7610720  88.7153500 140.1351400  95.6999610  89.3075330 140.8846810
  96.7011100  88.6079460 139.9901660  98.3985280  88.3723560 139.7743690
  99.0125690  88.6902850 139.1124770  98.9434840  87.8872150 140.3939550
 104.8160460 104.2715190 137.1805530 104.3218740 104.6684060 136.4632660
 104.2073750 103.6464400 137.5742810  88.9206540  87.0517820 139.8882750
  89.4689530  86.8705870 139.1248860  88.9861850  86.2611930 140.4239060
  89.6938300 103.6423470 137.8982950  89.0998620 103.5108170 138.6372990
  89.6862140 102.8061610 137.4325050 100.0465300  89.1426570 137.4854700
  99.7178660  88.3278330 137.1056430 100.9947600  89.0996380 137.3620390
 102.4999910 104.9138610 134.4592270 102.0402880 105.6654420 134.0850290
 101.8712370 104.1945080 134.4007070  89.3250530 101.0081850 136.8490990
  88.5984590 100.3887140 136.7816940  89.3859680 101.4022460 135.9789070
  92.9295630 103.2226850 133.6340400  93.4460650 102.6114210 133.1088660
  93.5793010 103.7255630 134.1251410  95.6691130 104.1135340 134.4609380
  95.9568940 103.8589640 133.5842390  96.1814350 103.5612700 135.0514950
 101.4389210  88.5548640 133.0854980 101.8797300  88.4993740 132.2376580
 101.1696800  89.4706650 133.1565160  87.6080530 104.3256240 130.0587750
  87.4402570 103.6926920 130.7569640  86.7415040 104.5315640 129.7081940
  99.2747340  86.9354740 131.7904990  99.8776710  87.5074950 132.2653510
  98.5340330  87.4994180 131.5678890  89.2143230 103.0189470 127.5037890
  88.6890850 103.3997500 126.7999850  89.1387810 103.6440240 128.2247600
  95.7363490 105.0351440 141.8277580  96.6630800 104.7995710 141.8713540
  95.7213920 105.8623440 141.3463610 103.9708550 104.5777010 128.8251830
 104.1460740 103.8914750 128.1812750 103.2730120 105.1024060 128.4328500
  92.9227100  87.6996190 141.5919460  92.6411370  88.2029790 140.8280280
  93.3046800  86.9017940 141.2261590  90.9750990 101.0836580 126.3833470
  90.3459870 101.5521680 126.9319300  91.0898820 100.2385800 126.8179660
  99.5242560  87.1149770 142.1699930  99.4108010  87.4344380 143.0651450
 100.3412300  87.5162280 141.8737210 102.3041050 104.2621300 141.6518620
 103.0966370 103.7670530 141.4444580 102.5974200 104.9411440 142.2594230
  98.4300710  95.1342240 112.5334670  98.3494760  94.2196850 112.2626380
  98.0165130  95.6309310 111.8274380  96.5618750  96.9121260 114.4143940
  95.7860850  96.4321700 114.7042510  97.2131680  96.2326910 114.2400100
 100.5826180 101.3181450 113.1943070 100.1207710 100.5468690 113.5230240
 101.3951730 101.3447520 113.6995520  86.9509540  94.7848610 114.9601790
  87.5225650  94.0170810 114.9605430  86.9511080  95.0837370 114.0508400
  96.8089490 103.6039460 112.8147060  96.1900930 104.0596960 112.2441500
  97.6641270 103.7590920 112.4136760  88.8121080  92.6893470 115.3553060
  89.4931190  92.9531840 115.9740460  88.4969130  91.8494340 115.6891070
  93.0045650  93.7360830 114.4425650  93.5123870  94.2341800 115.0830670
  93.5358890  92.9596030 114.2665010 105.1056580  91.9066020 118.1455000
 104.4008750  92.2947730 117.6270110 105.3714500  92.6016310 118.7475930
  97.6752840  98.4878700 110.2078970  97.0570110  98.9528150 109.6441690
  98.1876090  99.1806180 110.6248480  87.0436040  99.1735230 107.5818600
  86.6664020  99.6622330 106.8503500  87.3009110  99.8460510 108.2125130
 102.6681290 101.4474780 116.6166390 101.9844810 102.1173890 116.6083060
 103.2075580 101.6455430 115.8511250 100.2040030 103.2918910 115.3311570
 100.2167190 102.8881200 114.4633830  99.6515250 104.0666200 115.2273000
  99.6025470  98.1948750 116.6594180 100.0194260  97.9808860 115.8247640
 100.3265290  98.4521540 117.2302800  97.0405730  95.6400450 109.7764230
  96.1135010  95.5737830 110.0052700  97.1930550  96.5780580 109.6619470
  97.0274810  91.9117450 106.7731390  96.0878480  92.0731410 106.8583850
  97.3458070  92.6303130 106.2267380 103.5487570  96.5935970 116.7510420
 102.7206200  96.6629060 116.2760550 104.1438050  97.1790280 116.2826250
 101.0703020  97.2020750 110.2799480 100.4515440  96.8640300 109.6325780
 101.0527470  96.5580510 110.9878670  91.3590990  92.9408400 116.3383000
  91.9105580  93.0503740 115.5636250  91.8734500  93.3146000 117.0538230
 101.2029680 103.4264620 118.3846270 100.7260240 104.2336810 118.1918880
 100.5191470 102.7742950 118.5372480  92.2062500  99.5914440 121.3730970
  91.3091030  99.8154410 121.6204370  92.2315370  99.7149380 120.4242370
  99.2467720  96.4407560 107.2872230  99.6861000  95.6029990 107.1410050
  99.9596140  97.0736960 107.3736370  91.0333720  96.4627760 119.9488340
  90.8941490  97.3350560 120.3175740  90.1515080  96.1200570 119.8036280
  97.3563100 101.3803630 111.2553470  97.7959010 102.1227960 110.8408860
  97.2949990 101.6230200 112.1792430  92.8314070 102.4049460 122.1573490
  92.8029500 102.8092410 121.2901920  92.6679040 101.4759820 121.9945090
 102.8284860  87.6950370 105.6013270 102.5157520  87.7877200 106.5012340
 103.5897330  88.2731400 105.5510700  89.3467000  95.0610170 110.0590610
  89.2264600  95.7872260 109.4471880  89.0367890  94.2913080 109.5818520
 104.7828890 103.1876560 123.4537660 105.2588610 103.6659450 124.1326740
 105.4036050 103.1194050 122.7283160  88.2300000  99.9325500 112.2765430
  87.8228080 100.0740090 111.4219030  89.1213010  99.6485660 112.0736640
 104.1862140 100.3789410 120.6137670 104.3125200 100.1401290 119.6954850
 104.2283520  99.5473950 121.0859750 100.0233280 104.3672750 108.6116480
  99.8634420 104.0775690 109.5098310  99.8579990 103.5912880 108.0761710
  92.5021660 104.1471280 110.3888100  92.3264140 103.2306820 110.1755900
  91.6477400 104.5058570 110.6285900  99.7259410 101.8760310 107.1714480
  99.0324570 101.8737600 106.5116760 100.4682270 101.4519630 106.7408650
  99.2909340 103.5023020 111.2462970  99.7466290 102.7212400 111.5601590
  99.6301860 104.2129840 111.7904150 104.0386150  92.4321870 121.5787410
 103.4230420  92.9401540 121.0502870 103.7182570  91.5320200 121.5213350
  87.0411890  99.2739480 118.4053710  87.2042930  98.8044840 117.5873080
  87.5064340  98.7663040 119.0702550  91.6044880  93.5278810 111.1695530
  91.3785800  93.3115980 112.0742150  90.8237410  93.9607270 110.8241500
  98.8342640  93.5342180 109.7686180  98.2351530  94.2577980 109.5849800
  99.3822250  93.4718960 108.9862630  97.4407510  92.1705720 111.7989460
  97.8337080  92.4877920 110.9858150  97.8024360  91.2917600 111.9133980
  86.4771680  88.7606520 114.0219660  86.1884730  89.3309380 114.7344640
  87.2217440  88.2810970 114.3850890  98.0262650  94.7611470 115.8940240
  97.2943770  95.2698280 116.2430340  97.6286990  93.9441450 115.5929020
  94.4640040  91.4365670 114.2992730  94.4676100  90.9955620 113.4497270
  95.3591160  91.7583000 114.4064550  90.3142420  91.3192160 113.2586940
  89.9742470  91.7967390 114.0153990  89.5519740  90.8657280 112.8988040
  94.5260190  92.4377750 107.2899490  94.6473010  92.3964230 108.2385310
  94.1408700  93.3001900 107.1346220  93.5381690  94.7478890 106.6882790
  92.9698590  94.2997140 106.0618700  94.2470690  95.1071670 106.1547940
 101.9159310  87.6277330 121.1449560 102.2405080  86.8966990 121.6707540
 101.9515820  87.3090970 120.2430550  88.6150870  98.6490910 120.5649520
  88.2305660  98.0084580 121.1632480  88.9263060  99.3527030 121.1344250
  94.7648010  95.4967450 116.0458140  95.1318140  95.0226020 116.7919480
  94.5753070  96.3709020 116.3866480  87.6288500  90.2411140 112.1751610
  87.3435420  89.8766810 113.0130230  87.5667360  89.5091600 111.5614750
  92.5547380  94.5376090 118.3642350  92.2504450  95.4168070 118.5892710
  93.5093840  94.5975880 118.3999790  91.0829170  98.7437080 108.9609200
  90.3091430  98.2034700 108.8007920  91.8123800  98.2243690 108.6226960
  97.3027090  89.1340400 108.8964980  96.4891700  88.6353570 108.8210290
  97.1089040  89.9738650 108.4801330  97.2235950  97.8111500 120.6404590
  97.1573260  96.8907170 120.3862180  96.5941090  97.9086940 121.3549230
 100.0175480  93.5060050 107.1927140 100.9055100  93.8177280 107.0178480
  99.9880570  92.6332300 106.8007720  96.0136070  99.6783740 107.8715310
  96.3551770 100.4225970 107.3758630  95.1848780  99.9914860 108.2340140
  88.6111110  95.3778830 119.5113710  88.2526050  96.0432680 120.0987050
  88.3165670  94.5462380 119.8826330  91.8124230  95.8363070 122.3953260
  91.5124370  95.9820250 121.4981080  92.5835470  95.2768360 122.3026650
  97.1552680 100.6332070 120.3908390  97.1697220  99.7013030 120.1727300
  96.4477780 100.7191830 121.0298160 102.2889750  94.8171890 106.6607000
 102.2053470  95.2486110 105.8103440 103.0083940  95.2770240 107.0933820
 103.3663890  97.2739410 119.7376970 102.6412080  97.8668190 119.5406360
 103.8939350  97.2662950 118.9390340  98.8963480  98.9999580 113.2360820
  99.2487300  98.4027710 112.5762190  98.0125810  98.6743810 113.4069070
  94.9826760  99.7597270 110.6431230  95.6697890 100.3066480 111.0238820
  94.1959180 100.3038000 110.6780840  94.2853970  96.7643300 110.2556590
  94.7416750  97.5748550 110.4816780  93.9342180  96.4466440 111.0875080
  96.5886580 102.2749640 117.4848890  97.2328800 102.4809020 118.1622310
  96.9516020 101.5138040 117.0319740  97.8618660 100.2781990 116.2026340
  98.5040890  99.5775150 116.3158510  98.3868010 101.0580430 116.0223230
 101.7074380 100.5630610 105.9265480 101.4811960  99.8461050 106.5190120
 101.3170580 100.3143050 105.0887230  99.6356280 101.0776890 119.4062400
  99.9712520 101.6643580 120.0840320  98.7156620 100.9469600 119.6360190
  87.1859680  88.8672070 120.1885810  86.4718200  89.0668990 120.7938420
  87.6054720  88.0911640 120.5600610 101.2890630  98.4802550 107.5879640
 101.0012330  98.9415240 108.3757520 102.0842800  98.0200320 107.8563860
  95.4644860 101.1268220 122.5750460  95.1441730 100.4077460 123.1196150
  94.7903220 101.8023290 122.6486520  93.5059030 101.9728670 107.5183610
  93.4969130 102.7058360 106.9028120  92.5857390 101.7260250 107.6110570
  89.1065670  97.1943560 108.2630370  88.4993620  97.9342460 108.2725670
  89.5815020  97.2842920 107.4368570  96.4918630 102.0356910 106.1808800
  96.5930610 101.8320900 105.2510780  95.5920370 101.7815190 106.3856580
  94.0144520  92.5937270 110.1632700  93.3060670  93.0623610 110.6046310
  94.2989000  91.9359280 110.7977890  98.0459950  89.3187930 111.6028490
  97.9227730  89.3374060 110.6538000  98.9944510  89.3666870 111.7226890
  95.1336740 104.5543230 110.8756470  95.3878240 104.5164620 109.9535840
  94.1849220 104.4276560 110.8684720 102.8467310  90.2301930 119.0053620
 102.3440910  90.9707330 119.3447430 103.6623970  90.6185930 118.6890410
  91.1170960  97.1554710 106.0118940  91.8834230  97.0436070 106.5744370
  91.1945650  96.4592680 105.3595710  89.8117720  94.5879780 106.6951830
  89.8921310  93.6407290 106.8069230  90.7037470  94.9186660 106.8012490
  90.6132430 104.7375170 113.7986370  91.3494910 104.1890630 114.0694940
  90.9973350 105.6031180 113.6592360  87.4977910 100.8048740 109.6727880
  86.5717690 101.0469880 109.6633290  87.9634340 101.6323000 109.5512630
  89.6190710 103.9221240 122.9871950  90.4203440 104.2433290 123.4007350
  89.1042530 103.5616820 123.7091860  98.4555340 100.0301110 122.9347360
  97.8493500 100.0532710 122.1943110  98.1509450  99.2984150 123.4714610
 102.7764910 103.1375610 107.0448680 102.4906420 102.7240750 106.2302860
 102.5784460 104.0663320 106.9249200  87.3388520  96.4094700 121.9308000
  87.8427540  95.8301980 122.5024230  86.5995940  96.6934930 122.4684370
  94.2412140  99.1308890 105.4854290  94.1362780  98.5161240 106.2115670
  94.0736360  98.6074780 104.7017300  94.3926460  97.8165690 121.4643520
  93.6272130  98.3850690 121.3798190  94.5742420  97.5241900 120.5711750
  97.4814870  98.1928920 106.0896280  96.9324970  98.6398220 106.7339020
  98.1034130  97.6878170 106.6133950 101.5349810  99.5471020 122.0218540
 102.2759280  99.8846780 121.5186000 100.7722490  99.7163080 121.4688310
  89.3711600  94.5524290 122.8258070  89.4116940  94.2538160 123.7343300
  90.2257100  94.9531900 122.6665590  93.1489990  97.1519840 107.9861580
  93.5706410  96.9859710 108.8292970  93.2740830  96.3420070 107.4916720
  91.3117410  93.1316390 120.7932560  90.7813870  92.6407340 120.1655900
  91.9805480  93.5600590 120.2590490  95.6617630  96.1757450 105.2338680
  96.1823290  95.4606470 104.8679830  96.3086030  96.8143320 105.5339190
 100.2095470  97.5985850 120.5573750 100.6236490  97.7530930 121.4064170
  99.2746470  97.7241070 120.7199530 100.6817640  94.9382010 122.5612900
 101.2638410  94.1834330 122.4733380 100.8579410  95.4689450 121.7844380
  94.9710700  97.5506330 118.5269680  95.3898810  98.3939060 118.3545920
  94.0519330  97.6878370 118.2976460  99.6462500  95.8359700 118.4870030
  99.1197720  96.3602320 117.8835170  99.9893840  96.4687090 119.1179760
  92.8218120 103.8559340 119.6427410  92.2839210 104.5805400 119.3236110
  93.0752080 103.3789680 118.8524750  99.5237200  88.0361300 107.4606620
  99.8039490  87.1929200 107.8166040  98.7502930  88.2684410 107.9745370
  96.2265660 104.2569060 107.5240420  97.1216450 104.5954030 107.5459180
  96.2583290 103.5348470 106.8964700  89.8661820  99.6296110 105.7527420
  90.3036690 100.1725780 106.4085000  90.3509550  98.8043060 105.7623760
  87.0807620 102.4185140 113.2047680  87.4110630 101.5506200 112.9726320
  87.5098620 102.6243660 114.0352640  87.5697830 103.2855730 115.9429310
  87.1328820 103.4656530 116.7753460  88.1375510 104.0430350 115.8011030
 103.2060010 102.7872730 120.2306620 102.6062000 102.8465290 119.4870540
 103.3353910 101.8477710 120.3603470 104.4461460 100.5290550 105.5676330
 103.6154420 100.5967200 106.0383560 104.6233290 101.4194670 105.2643190
  87.4022260  95.7975960 112.3018190  86.7471100  95.5287600 111.6577890
  88.2400210  95.6880440 111.8520170 101.8911650  99.5124710 118.3282780
 101.0771490  99.9421870 118.5908570 102.2985850 100.1243120 117.7151830
 103.9537090  97.5672400 105.2283050 104.2285930  98.4751280 105.1002270
 103.7647830  97.5034930 106.1645040 100.3512700  90.5917250 106.5236680
 100.7697580  90.4048230 105.6833340 100.0448760  89.7396300 106.8339610
 103.2402050  94.6512910 119.8552000 103.0088140  94.4225660 118.9549950
 103.5006600  95.5712460 119.8096890  87.9914190  93.0937620 120.7479950
  87.0970240  93.0604380 121.0873660  88.5311740  93.2924410 121.5131200
 103.3043110  93.8138750 117.0439270 102.3545820  93.7802290 117.1584260
 103.4856120  94.7238860 116.8089040 104.9330790  89.4541100 105.2355950
 105.8580100  89.3222280 105.0274240 104.9106580  89.5333920 106.1892400
 101.9487700 104.2643310 111.8551050 102.5446770 103.9427880 111.1785470
 102.2065850 103.7915130 112.6464320  89.8550270 100.6961220 122.0041680
  89.8119900 100.3254130 122.8856140  89.9861280 101.6338790 122.1443500
  93.5556300 102.2520810 117.6051400  93.3147660 102.5195370 116.7181920
  94.4958940 102.4226540 117.6602260  89.6938300 103.6423470 119.1239460
  89.0998620 103.5108170 119.8629500  89.6862140 102.8061610 118.6581560
  99.1393320  86.9355700 117.3269490  98.2653160  87.2690810 117.1242420
  99.0304070  86.4628880 118.1521360 102.4999910 104.9138610 115.6848780
 102.0402880 105.6654420 115.3106800 101.8712370 104.1945080 115.6263580
  89.3250530 101.0081850 118.0747500  88.5984590 100.3887140 118.0073450
  89.3859680 101.4022460 117.2045580  92.9295630 103.2226850 114.8596910
  93.4460650 102.6114210 114.3345170  93.5793010 103.7255630 115.3507920
  95.6691130 104.1135340 115.6865890  95.9568940 103.8589640 114.8098900
  96.1814350 103.5612700 116.2771460  96.8868140  87.8525540 116.2662400
  96.1039930  88.3271040 116.5459160  96.5931070  86.9480370 116.1575580
 101.4389210  88.5548640 114.3111490 101.8797300  88.4993740 113.4633090
 101.1696800  89.4706650 114.3821670  87.6080530 104.3256240 111.2844260
  87.4402570 103.6926920 111.9826150  86.7415040 104.5315640 110.9338450
  99.2747340  86.9354740 113.0161500  99.8776710  87.5074950 113.4910020
  98.5340330  87.4994180 112.7935400 102.4181940  87.3376300 108.2901780
 102.6132570  88.2359750 108.5569210 101.6311810  87.1063380 108.7834730
  90.9750990 101.0836580 107.6089980  90.3459870 101.5521680 108.1575810
  91.0898820 100.2385800 108.0436170 100.5826180 101.3181450  94.4199580
 100.1207710 100.5468690  94.7486750 101.3951730 101.3447520  94.9252030
 100.8157030  89.8899270  92.8067880 101.6366650  89.3995840  92.8493360
 100.8491110  90.4796930  93.5599720 105.1056580  91.9066020  99.3711510
 104.4008750  92.2947730  98.8526620 105.3714500  92.6016310  99.9732440
 101.0518510  91.8299650  95.5795420 100.3474080  92.1184540  96.1598530
 101.4130670  92.6399760  95.2194980 102.6681290 101.4474780  97.8422900
 101.9844810 102.1173890  97.8339570 103.2075580 101.6455430  97.0767760
 104.1205430  91.2754440  95.9704630 103.1730340  91.3093420  96.1020060
 104.4455420  92.0893390  96.3553990 100.2040030 103.2918910  96.5568080
 100.2167190 102.8881200  95.6890340  99.6515250 104.0666200  96.4529510
 103.5487570  96.5935970  97.9766930 102.7206200  96.6629060  97.5017060
 104.1438050  97.1790280  97.5082760 101.0703020  97.2020750  91.5055990
 100.4515440  96.8640300  90.8582290 101.0527470  96.5580510  92.2135180
 100.5129580  93.3805290  98.9221800 100.1000760  94.2059000  99.1761790
  99.7805530  92.7950330  98.7298160 101.2029680 103.4264620  99.6102780
 100.7260240 104.2336810  99.4175390 100.5191470 102.7742950  99.7628990
 102.8284860  87.6950370  86.8269780 102.5157520  87.7877200  87.7268850
 103.5897330  88.2731400  86.7767210 104.7828890 103.1876560 104.6794170
 105.2588610 103.6659450 105.3583250 105.4036050 103.1194050 103.9539670
 104.1862140 100.3789410 101.8394180 104.3125200 100.1401290 100.9211360
 104.2283520  99.5473950 102.3116260 104.0386150  92.4321870 102.8043920
 103.4230420  92.9401540 102.2759380 103.7182570  91.5320200 102.7469860
  96.1000470  91.2713760 100.2706110  95.6379840  91.4796780 101.0826050
  95.6978580  90.4573110  99.9676780 101.1004980  92.4922710 101.4002770
 100.2498570  92.1928460 101.7211840 100.9406770  92.7364720 100.4886590
  98.1954690  93.9924460 103.5001560  98.5208100  93.1588210 103.1603790
  98.9835020  94.5152980 103.6479890  95.7499680  90.9213030 104.2842830
  95.0598000  90.7285230 104.9188920  96.4931980  91.2047670 104.8167130
 101.9159310  87.6277330 102.3706070 102.2405080  86.8966990 102.8964050
 101.9515820  87.3090970 101.4687060 101.8417150  97.7402440  95.9792100
 102.5616270  98.2357730  95.5888210 101.6398970  97.0620330  95.3345970
  97.2235950  97.8111500 101.8661100  97.1573260  96.8907170 101.6118690
  96.5941090  97.9086940 102.5805740 103.3663890  97.2739410 100.9633480
 102.6412080  97.8668190 100.7662870 103.8939350  97.2662950 100.1646850
  99.6356280 101.0776890 100.6318910  99.9712520 101.6643580 101.3096830
  98.7156620 100.9469600 100.8616700  95.4644860 101.1268220 103.8006970
  95.1441730 100.4077460 104.3452660  94.7903220 101.8023290 103.8743030
  98.6798460  91.3594380  99.1643770  99.0479280  90.5389590  99.4923340
  97.8196660  91.4196270  99.5799420 102.0460490  90.3151320  89.9731330
 101.4173650  90.4196990  89.2589560 101.5512410  90.5348100  90.7625210
 102.8467310  90.2301930 100.2310130 102.3440910  90.9707330 100.5703940
 103.6623970  90.6185930  99.9146920 101.1389320  95.4735110  93.6771490
 100.1979460  95.4885340  93.8519180 101.4533390  94.6871070  94.1231790
 103.1414900 102.6443960  95.3525750 103.2662320 103.4675130  95.8249560
 104.0080460 102.4334690  95.0049900  98.4555340 100.0301110 104.1603870
  97.8493500 100.0532710 103.4199620  98.1509450  99.2984150 104.6971120
  99.8855710 103.7581400 102.7713280 100.8377460 103.6739420 102.7213520
  99.7383930 104.4223110 103.4447070 101.5349810  99.5471020 103.2475050
 102.2759280  99.8846780 102.7442510 100.7722490  99.7163080 102.6944820
 100.2095470  97.5985850 101.7830260 100.6236490  97.7530930 102.6320680
  99.2746470  97.7241070 101.9456040 100.6817640  94.9382010 103.7869410
 101.2638410  94.1834330 103.6989890 100.8579410  95.4689450 103.0100890
  94.5651150  88.6552000  99.1313750  94.1168450  88.6776260  98.2859300
  93.9316350  88.2571020  99.7284050  97.3074600  95.2822510 101.1364030
  97.4270810  94.6863650 101.8758870  98.1668600  95.3192200 100.7165330
  99.6462500  95.8359700  99.7126540  99.1197720  96.3602320  99.1091680
  99.9893840  96.4687090 100.3436270  98.8936800  91.4409670 102.6272870
  98.2052320  90.7791210 102.5622860  99.6142820  90.9947940 103.0721330
 103.2060010 102.7872730 101.4563130 102.6062000 102.8465290 100.7127050
 103.3353910 101.8477710 101.5859980 104.4461460 100.5290550  86.7932840
 103.6154420 100.5967200  87.2640070 104.6233290 101.4194670  86.4899700
 103.9017920  97.2738030  89.2967040 104.6636830  97.8434680  89.4026730
 103.9172290  96.7065230  90.0675350 104.9077890  98.1288130  94.1408970
 105.2786720  97.3455450  93.7344940 105.5479820  98.8177230  93.9626270
 101.8911650  99.5124710  99.5539290 101.0771490  99.9421870  99.8165080
 102.2985850 100.1243120  98.9408340 103.9537090  97.5672400  86.4539560
 104.2285930  98.4751280  86.3258780 103.7647830  97.5034930  87.3901550
 103.8502430  95.5041390  91.4468990 103.4746030  94.7369320  91.0150280
 103.1205550  95.8864090  91.9343920 103.2402050  94.6512910 101.0808510
 103.0088140  94.4225660 100.1806460 103.5006600  95.5712460 101.0353400
 101.6790120  89.8769340 103.8588210 102.5560300  89.8852740 104.2422210
 101.6910960  89.1400180 103.2480560 103.1253390  93.7298880  94.7476230
 103.6490870  93.2361530  94.1166400 103.7112810  93.8649240  95.4923800
 103.3043110  93.8138750  98.2695780 102.3545820  93.7802290  98.3840770
 103.4856120  94.7238860  98.0345550 102.6153360  92.9872230  90.6868640
 103.1112480  92.7543100  91.4717520 102.4169430  92.1484070  90.2706280
 104.0440520  91.6233180  93.2206320 103.9339800  91.4689220  94.1588590
 104.8048110  91.0954120  92.9781730 102.3906240  87.5627310  99.6789320
 103.0278460  88.1761450 100.0448510 102.5381130  87.5987970  98.7338550
 105.0069280  90.2251760  89.0869170 104.2120780  90.1596880  89.6162080
 105.2112560  91.1602400  89.0754520 101.9487700 104.2643310  93.0807560
 102.5446770 103.9427880  92.4041980 102.2065850 103.7915130  93.8720830
  95.7610720  88.7153500 102.5864420  95.6999610  89.3075330 103.3359830
  96.7011100  88.6079460 102.4414680  98.3985280  88.3723560 102.2256710
  99.0125690  88.6902850 101.5637790  98.9434840  87.8872150 102.8452570
 104.8160460 104.2715190  99.6318550 104.3218740 104.6684060  98.9145680
 104.2073750 103.6464400 100.0255830  99.1393320  86.9355700  98.5526000
  98.2653160  87.2690810  98.3498930  99.0304070  86.4628880  99.3777870
 100.0465300  89.1426570  99.9367720  99.7178660  88.3278330  99.5569450
 100.9947600  89.0996380  99.8133410 102.4999910 104.9138610  96.9105290
 102.0402880 105.6654420  96.5363310 101.8712370 104.1945080  96.8520090
  96.8868140  87.8525540  97.4918910  96.1039930  88.3271040  97.7715670
  96.5931070  86.9480370  97.3832090 101.4389210  88.5548640  95.5368000
 101.8797300  88.4993740  94.6889600 101.1696800  89.4706650  95.6078180
 103.3027780  88.1863880  93.5476820 103.2416180  87.2425100  93.4007840
 104.0819810  88.2943970  94.0930280  99.2747340  86.9354740  94.2418010
  99.8776710  87.5074950  94.7166530  98.5340330  87.4994180  94.0191910
 102.4181940  87.3376300  89.5158290 102.6132570  88.2359750  89.7825720
 101.6311810  87.1063380  90.0091240  95.7363490 105.0351440 104.2790600
  96.6630800 104.7995710 104.3226560  95.7213920 105.8623440 103.7976630
 103.9708550 104.5777010  91.2764850 104.1460740 103.8914750  90.6325770
 103.2730120 105.1024060  90.8841520  99.5242560  87.1149770 104.6212950
  99.4108010  87.4344380 105.5164470 100.3412300  87.5162280 104.3250230
 102.3041050 104.2621300 104.1031640 103.0966370 103.7670530 103.8957600
 102.5974200 104.9411440 104.7107250  98.4300710  95.1342240  74.9847690
  98.3494760  94.2196850  74.7139400  98.0165130  95.6309310  74.2787400
  96.5618750  96.9121260  76.8656960  95.7860850  96.4321700  77.1555530
  97.2131680  96.2326910  76.6913120 100.5826180 101.3181450  75.6456090
 100.1207710 100.5468690  75.9743260 101.3951730 101.3447520  76.1508540
  96.8089490 103.6039460  75.2660080  96.1900930 104.0596960  74.6954520
  97.6641270 103.7590920  74.8649780  96.0027740  99.5878450  76.8727120
  95.9336020  98.6468390  76.7116250  96.7647600  99.6779860  77.4449690
  97.0332910  92.3948830  77.0996050  97.4097730  91.5220710  76.9869720
  96.9352420  92.7307530  76.2086490 105.1056580  91.9066020  80.5968020
 104.4008750  92.2947730  80.0783130 105.3714500  92.6016310  81.1988950
  97.6752840  98.4878700  72.6591990  97.0570110  98.9528150  72.0954710
  98.1876090  99.1806180  73.0761500 102.6681290 101.4474780  79.0679410
 101.9844810 102.1173890  79.0596080 103.2075580 101.6455430  78.3024270
 100.2040030 103.2918910  77.7824590 100.2167190 102.8881200  76.9146850
  99.6515250 104.0666200  77.6786020 101.4985450 100.0135130  72.8714760
 101.3881780  99.0709460  72.9964180 101.4953700 100.3750770  73.7577520
  99.6025470  98.1948750  79.1107200 100.0194260  97.9808860  78.2760660
 100.3265290  98.4521540  79.6815820  97.0405730  95.6400450  72.2277250
  96.1135010  95.5737830  72.4565720  97.1930550  96.5780580  72.1132490
  97.0274810  91.9117450  69.2244410  96.0878480  92.0731410  69.3096870
  97.3458070  92.6303130  68.6780400 103.5487570  96.5935970  79.2023440
 102.7206200  96.6629060  78.7273570 104.1438050  97.1790280  78.7339270
 101.0703020  97.2020750  72.7312500 100.4515440  96.8640300  72.0838800
 101.0527470  96.5580510  73.4391690 100.5129580  93.3805290  80.1478310
 100.1000760  94.2059000  80.4018300  99.7805530  92.7950330  79.9554670
  93.1144070  99.8532750  77.1736190  92.8172360  99.2478220  76.4943970
  94.0643890  99.8910060  77.0625550 101.2029680 103.4264620  80.8359290
 100.7260240 104.2336810  80.6431900 100.5191470 102.7742950  80.9885500
  97.3563100 101.3803630  73.7066490  97.7959010 102.1227960  73.2921880
  97.2949990 101.6230200  74.6305450 104.7828890 103.1876560  85.9050680
 105.2588610 103.6659450  86.5839760 105.4036050 103.1194050  85.1796180
 104.1862140 100.3789410  83.0650690 104.3125200 100.1401290  82.1467870
 104.2283520  99.5473950  83.5372770  98.0478880 104.0817410  81.6345500
  98.5623550 103.9925420  82.4367930  97.2047960 104.4277110  81.9273410
 100.0233280 104.3672750  71.0629500  99.8634420 104.0775690  71.9611330
  99.8579990 103.5912880  70.5274730  92.5021660 104.1471280  72.8401120
  92.3264140 103.2306820  72.6268920  91.6477400 104.5058570  73.0798920
  99.7259410 101.8760310  69.6227500  99.0324570 101.8737600  68.9629780
 100.4682270 101.4519630  69.1921670  99.2909340 103.5023020  73.6975990
  99.7466290 102.7212400  74.0114610  99.6301860 104.2129840  74.2417170
 101.1004980  92.4922710  82.6259280 100.2498570  92.1928460  82.9468350
 100.9406770  92.7364720  81.7143100  93.8506560  88.9492570  77.7516900
  94.1478890  89.8555400  77.6708920  94.3992120  88.4611350  77.1376470
  98.8342640  93.5342180  72.2199200  98.2351530  94.2577980  72.0362820
  99.3822250  93.4718960  71.4375650  97.4407510  92.1705720  74.2502480
  97.8337080  92.4877920  73.4371170  97.8024360  91.2917600  74.3647000
  98.0262650  94.7611470  78.3453260  97.2943770  95.2698280  78.6943360
  97.6286990  93.9441450  78.0442040 101.9159310  87.6277330  83.5962580
 102.2405080  86.8966990  84.1220560 101.9515820  87.3090970  82.6943570
  91.0829170  98.7437080  71.4122220  90.3091430  98.2034700  71.2520940
  91.8123800  98.2243690  71.0739980 101.8417150  97.7402440  77.2048610
 102.5616270  98.2357730  76.8144720 101.6398970  97.0620330  76.5602480
  97.3027090  89.1340400  71.3478000  96.4891700  88.6353570  71.2723310
  97.1089040  89.9738650  70.9314350 100.0175480  93.5060050  69.6440160
 100.9055100  93.8177280  69.4691500  99.9880570  92.6332300  69.2520740
  91.1266570  98.4117460  75.0501030  91.6445240  97.6085720  74.9957920
  90.6750590  98.3496600  75.8917860  96.0136070  99.6783740  70.3228330
  96.3551770 100.4225970  69.8271650  95.1848780  99.9914860  70.6853160
  97.1552680 100.6332070  82.8421410  97.1697220  99.7013030  82.6240320
  96.4477780 100.7191830  83.4811180 102.2889750  94.8171890  69.1120020
 102.2053470  95.2486110  68.2616460 103.0083940  95.2770240  69.5446840
 103.3663890  97.2739410  82.1889990 102.6412080  97.8668190  81.9919380
 103.8939350  97.2662950  81.3903360 103.3177000 101.6714150  71.8402150
 102.6753160 101.0169770  72.1145870 102.9307660 102.0769240  71.0642820
  98.8963480  98.9999580  75.6873840  99.2487300  98.4027710  75.0275210
  98.0125810  98.6743810  75.8582090  94.9826760  99.7597270  73.0944250
  95.6697890 100.3066480  73.4751840  94.1959180 100.3038000  73.1293860
  94.2853970  96.7643300  72.7069610  94.7416750  97.5748550  72.9329800
  93.9342180  96.4466440  73.5388100  96.5886580 102.2749640  79.9361910
  97.2328800 102.4809020  80.6135330  96.9516020 101.5138040  79.4832760
  97.8618660 100.2781990  78.6539360  98.5040890  99.5775150  78.7671530
  98.3868010 101.0580430  78.4736250  99.6356280 101.0776890  81.8575420
  99.9712520 101.6643580  82.5353340  98.7156620 100.9469600  82.0873210
  93.5059030 101.9728670  69.9696630  93.4969130 102.7058360  69.3541140
  92.5857390 101.7260250  70.0623590  98.6798460  91.3594380  80.3900280
  99.0479280  90.5389590  80.7179850  97.8196660  91.4196270  80.8055930
  96.4918630 102.0356910  68.6321820  96.5930610 101.8320900  67.7023800
  95.5920370 101.7815190  68.8369600  95.1336740 104.5543230  73.3269490
  95.3878240 104.5164620  72.4048860  94.1849220 104.4276560  73.3197740
 102.8467310  90.2301930  81.4566640 102.3440910  90.9707330  81.7960450
 103.6623970  90.6185930  81.1403430 101.1389320  95.4735110  74.9028000
 100.1979460  95.4885340  75.0775690 101.4533390  94.6871070  75.3488300
  91.1170960  97.1554710  68.4631960  91.8834230  97.0436070  69.0257390
  91.1945650  96.4592680  67.8108730 103.1414900 102.6443960  76.5782260
 103.2662320 103.4675130  77.0506070 104.0080460 102.4334690  76.2306410
  90.6132430 104.7375170  76.2499390  91.3494910 104.1890630  76.5207960
  90.9973350 105.6031180  76.1105380  99.8855710 103.7581400  83.9969790
 100.8377460 103.6739420  83.9470030  99.7383930 104.4223110  84.6703580
  94.2412140  99.1308890  67.9367310  94.1362780  98.5161240  68.6628690
  94.0736360  98.6074780  67.1530320  97.4814870  98.1928920  68.5409300
  96.9324970  98.6398220  69.1852040  98.1034130  97.6878170  69.0646970
 101.5349810  99.5471020  84.4731560 102.2759280  99.8846780  83.9699020
 100.7722490  99.7163080  83.9201330  93.1489990  97.1519840  70.4374600
  93.5706410  96.9859710  71.2805990  93.2740830  96.3420070  69.9429740
  95.6617630  96.1757450  67.6851700  96.1823290  95.4606470  67.3192850
  96.3086030  96.8143320  67.9852210 100.2095470  97.5985850  83.0086770
 100.6236490  97.7530930  83.8577190  99.2746470  97.7241070  83.1712550
  94.5651150  88.6552000  80.3570260  94.1168450  88.6776260  79.5115810
  93.9316350  88.2571020  80.9540560  99.6462500  95.8359700  80.9383050
  99.1197720  96.3602320  80.3348190  99.9893840  96.4687090  81.5692780
  99.5237200  88.0361300  69.9119640  99.8039490  87.1929200  70.2679060
  98.7502930  88.2684410  70.4258390  95.6780330 105.0910550  82.3527080
  95.6039030 105.9945690  82.6599450  94.7759170 104.7722450  82.3249150
  96.2265660 104.2569060  69.9753440  97.1216450 104.5954030  69.9972200
  96.2583290 103.5348470  69.3477720  89.8661820  99.6296110  68.2040440
  90.3036690 100.1725780  68.8598020  90.3509550  98.8043060  68.2136780
  91.6769540 100.7494150  73.3162670  91.3765080 100.6259120  74.2166580
  91.5707030  99.8902740  72.9078400 103.2060010 102.7872730  82.6819640
 102.6062000 102.8465290  81.9383560 103.3353910 101.8477710  82.8116490
 103.9017920  97.2738030  70.5223550 104.6636830  97.8434680  70.6283240
 103.9172290  96.7065230  71.2931860 104.9077890  98.1288130  75.3665480
 105.2786720  97.3455450  74.9601450 105.5479820  98.8177230  75.1882780
 101.8911650  99.5124710  80.7795800 101.0771490  99.9421870  81.0421590
 102.2985850 100.1243120  80.1664850 100.3512700  90.5917250  68.9749700
 100.7697580  90.4048230  68.1346360 100.0448760  89.7396300  69.2852630
 103.8502430  95.5041390  72.6725500 103.4746030  94.7369320  72.2406790
 103.1205550  95.8864090  73.1600430 103.2402050  94.6512910  82.3065020
 103.0088140  94.4225660  81.4062970 103.5006600  95.5712460  82.2609910
 103.3043110  93.8138750  79.4952290 102.3545820  93.7802290  79.6097280
 103.4856120  94.7238860  79.2602060 102.6153360  92.9872230  71.9125150
 103.1112480  92.7543100  72.6974030 102.4169430  92.1484070  71.4962790
 102.3906240  87.5627310  80.9045830 103.0278460  88.1761450  81.2705020
 102.5381130  87.5987970  79.9595060 104.9330790  89.4541100  67.6868970
 105.8580100  89.3222280  67.4787260 104.9106580  89.5333920  68.6405420
 105.0069280  90.2251760  70.3125680 104.2120780  90.1596880  70.8418590
 105.2112560  91.1602400  70.3011030 101.9487700 104.2643310  74.3064070
 102.5446770 103.9427880  73.6298490 102.2065850 103.7915130  75.0977340
 104.8160460 104.2715190  80.8575060 104.3218740 104.6684060  80.1402190
 104.2073750 103.6464400  81.2512340 100.0465300  89.1426570  81.1624230
  99.7178660  88.3278330  80.7825960 100.9947600  89.0996380  81.0389920
 102.4999910 104.9138610  78.1361800 102.0402880 105.6654420  77.7619820
 101.8712370 104.1945080  78.0776600  92.9295630 103.2226850  77.3109930
  93.4460650 102.6114210  76.7858190  93.5793010 103.7255630  77.8020940
  95.6691130 104.1135340  78.1378910  95.9568940 103.8589640  77.2611920
  96.1814350 103.5612700  78.7284480  96.8868140  87.8525540  78.7175420
  96.1039930  88.3271040  78.9972180  96.5931070  86.9480370  78.6088600
  89.2143230 103.0189470  71.1807420  88.6890850 103.3997500  70.4769380
  89.1387810 103.6440240  71.9017130 103.9708550 104.5777010  72.5021360
 104.1460740 103.8914750  71.8582280 103.2730120 105.1024060  72.1098030
  91.8136200 104.9671850  70.0556670  92.5455020 104.6831130  69.5080560
  92.0729870 104.7285130  70.9456050  90.9750990 101.0836580  70.0603000
  90.3459870 101.5521680  70.6088830  91.0898820 100.2385800  70.4949190
  90.5784580  97.2241070  58.9689230  89.7469460  96.9689780  59.3685740
  91.1865560  97.2951840  59.7047150  88.9876530  92.1842960  52.7531620
  88.0993230  92.5258930  52.6511500  89.2717720  91.9843280  51.8612450
  88.1934410  90.1932970  60.4240250  88.0137250  89.2958720  60.7043010
  87.7914490  90.7404840  61.0987200 100.8157030  89.8899270  55.2580900
 101.6366650  89.3995840  55.3006380 100.8491110  90.4796930  56.0112740
  88.8121080  92.6893470  59.0322590  89.4931190  92.9531840  59.6509990
  88.4969130  91.8494340  59.3660600  92.5384600  98.0154570  60.5632100
  92.2053980  98.6423490  61.2053170  92.7151280  98.5416450  59.7833770
 101.0518510  91.8299650  58.0308440 100.3474080  92.1184540  58.6111550
 101.4130670  92.6399760  57.6708000  90.9697080  90.0869350  60.3929050
  91.3113890  90.9311400  60.0982920  90.0312890  90.2353090  60.5094390
 104.1205430  91.2754440  58.4217650 103.1730340  91.3093420  58.5533080
 104.4455420  92.0893390  58.8067010  94.6524970  87.5751620  56.7173640
  94.9599950  87.0198510  56.0009140  93.7225670  87.7096080  56.5346630
 100.2040030 103.2918910  59.0081100 100.2167190 102.8881200  58.1403360
  99.6515250 104.0666200  58.9042530  91.3590990  92.9408400  60.0152530
  91.9105580  93.0503740  59.2405780  91.8734500  93.3146000  60.7307760
  91.0333720  96.4627760  63.6257870  90.8941490  97.3350560  63.9945270
  90.1515080  96.1200570  63.4805810 100.0233280 104.3672750  52.2886010
  99.8634420 104.0775690  53.1867840  99.8579990 103.5912880  51.7531240
  99.7259410 101.8760310  50.8484010  99.0324570 101.8737600  50.1886290
 100.4682270 101.4519630  50.4178180  99.2909340 103.5023020  54.9232500
  99.7466290 102.7212400  55.2371120  99.6301860 104.2129840  55.4673680
 104.0386150  92.4321870  65.2556940 103.4230420  92.9401540  64.7272400
 103.7182570  91.5320200  65.1982880  87.0411890  99.2739480  62.0823240
  87.2042930  98.8044840  61.2642610  87.5064340  98.7663040  62.7472080
  91.8130660  88.4045240  57.1183810  91.3698810  89.1854780  56.7868330
  92.3715650  88.7275130  57.8254750  96.1000470  91.2713760  62.7219130
  95.6379840  91.4796780  63.5339070  95.6978580  90.4573110  62.4189800
  94.9289480  88.0255940  51.9989640  94.3043660  88.0215810  52.7242950
  94.8419600  87.1586900  51.6025610  93.8506560  88.9492570  58.9773410
  94.1478890  89.8555400  58.8965430  94.3992120  88.4611350  58.3632980
  86.4771680  88.7606520  57.6989190  86.1884730  89.3309380  58.4114170
  87.2217440  88.2810970  58.0620420  86.6641910  92.7026640  48.9091910
  86.5816580  93.6457400  49.0506900  86.3124970  92.5601550  48.0304260
  94.4640040  91.4365670  57.9762260  94.4676100  90.9955620  57.1266800
  95.3591160  91.7583000  58.0834080  90.3142420  91.3192160  56.9356470
  89.9742470  91.7967390  57.6923520  89.5519740  90.8657280  56.5757570
  94.5260190  92.4377750  50.9669020  94.6473010  92.3964230  51.9154840
  94.1408700  93.3001900  50.8115750  98.4888560  90.2145150  58.9832710
  98.5061300  90.6653800  59.8274560  98.2404140  89.3150790  59.1966150
 101.9159310  87.6277330  64.8219090 102.2405080  86.8966990  65.3477070
 101.9515820  87.3090970  63.9200080  88.6150870  98.6490910  64.2419050
  88.2305660  98.0084580  64.8402010  88.9263060  99.3527030  64.8113780
  94.7648010  95.4967450  59.7227670  95.1318140  95.0226020  60.4689010
  94.5753070  96.3709020  60.0636010  87.6288500  90.2411140  55.8521140
  87.3435420  89.8766810  56.6899760  87.5667360  89.5091600  55.2384280
  92.5547380  94.5376090  62.0411880  92.2504450  95.4168070  62.2662240
  93.5093840  94.5975880  62.0769320  97.3027090  89.1340400  52.5734510
  96.4891700  88.6353570  52.4979820  97.1089040  89.9738650  52.1570860
  96.0136070  99.6783740  51.5484840  96.3551770 100.4225970  51.0528160
  95.1848780  99.9914860  51.9109670  88.6111110  95.3778830  63.1883240
  88.2526050  96.0432680  63.7756580  88.3165670  94.5462380  63.5595860
  91.8124230  95.8363070  66.0722790  91.5124370  95.9820250  65.1750610
  92.5835470  95.2768360  65.9796180  90.1865750  87.1080950  54.4048640
  90.0580380  87.0998850  55.3533560  89.3627770  87.4464040  54.0539650
 101.7074380 100.5630610  49.6035010 101.4811960  99.8461050  50.1959650
 101.3170580 100.3143050  48.7656760 101.2890630  98.4802550  51.2649170
 101.0012330  98.9415240  52.0527050 102.0842800  98.0200320  51.5333390
 102.0460490  90.3151320  52.4244350 101.4173650  90.4196990  51.7102580
 101.5512410  90.5348100  53.2138230  96.4918630 102.0356910  49.8578330
  96.5930610 101.8320900  48.9280310  95.5920370 101.7815190  50.0626110
  95.6400450  94.0133970  61.8394760  96.1385700  94.4879790  62.5046610
  95.7823400  93.0897490  62.0464790  98.0459950  89.3187930  55.2798020
  97.9227730  89.3374060  54.3307530  98.9944510  89.3666870  55.3996420
  92.2179540  90.9022350  51.2152940  93.0670070  91.3392500  51.1493130
  91.8510810  91.2142610  52.0425000 103.1414900 102.6443960  57.8038770
 103.2662320 103.4675130  58.2762580 104.0080460 102.4334690  57.4562920
 102.7764910 103.1375610  50.7218210 102.4906420 102.7240750  49.9072390
 102.5784460 104.0663320  50.6018730  94.2412140  99.1308890  49.1623820
  94.1362780  98.5161240  49.8885200  94.0736360  98.6074780  48.3786830
  94.3926460  97.8165690  65.1413050  93.6272130  98.3850690  65.0567720
  94.5742420  97.5241900  64.2481280  97.4814870  98.1928920  49.7665810
  96.9324970  98.6398220  50.4108550  98.1034130  97.6878170  50.2903480
  95.6617630  96.1757450  48.9108210  96.1823290  95.4606470  48.5449360
  96.3086030  96.8143320  49.2108720  94.5651150  88.6552000  61.5826770
  94.1168450  88.6776260  60.7372320  93.9316350  88.2571020  62.1797070
  94.9710700  97.5506330  62.2039210  95.3898810  98.3939060  62.0315450
  94.0519330  97.6878370  61.9745990 104.4461460 100.5290550  49.2445860
 103.6154420 100.5967200  49.7153090 104.6233290 101.4194670  48.9412720
 103.9017920  97.2738030  51.7480060 104.6636830  97.8434680  51.8539750
 103.9172290  96.7065230  52.5188370 104.9077890  98.1288130  56.5921990
 105.2786720  97.3455450  56.1857960 105.5479820  98.8177230  56.4139290
 103.8502430  95.5041390  53.8982010 103.4746030  94.7369320  53.4663300
 103.1205550  95.8864090  54.3856940 101.6790120  89.8769340  66.3101230
 102.5560300  89.8852740  66.6935230 101.6910960  89.1400180  65.6993580
  86.6160340  93.0074890  51.9213050  85.7124420  93.2705090  51.7464710
  87.1000960  93.2786060  51.1413010 103.1253390  93.7298880  57.1989250
 103.6490870  93.2361530  56.5679420 103.7112810  93.8649240  57.9436820
  89.1587550  92.0640430  49.8307430  89.8679250  91.6423650  49.3454710
  88.4427490  92.1315660  49.1990780  88.8061710  88.1179760  48.8710080
  89.5289840  88.6588700  49.1891300  89.0786230  87.8443180  47.9951620
 102.6153360  92.9872230  53.1381660 103.1112480  92.7543100  53.9230540
 102.4169430  92.1484070  52.7219300  88.4953900  87.3685950  58.7732700
  89.1430090  86.8183330  58.3327860  88.9155740  87.6229100  59.5948510
 104.0440520  91.6233180  55.6719340 103.9339800  91.4689220  56.6101610
 104.8048110  91.0954120  55.4294750 102.3906240  87.5627310  62.1302340
 103.0278460  88.1761450  62.4961530 102.5381130  87.5987970  61.1851570
 105.0069280  90.2251760  51.5382190 104.2120780  90.1596880  52.0675100
 105.2112560  91.1602400  51.5267540 101.9487700 104.2643310  55.5320580
 102.5446770 103.9427880  54.8555000 102.2065850 103.7915130  56.3233850
  89.8550270 100.6961220  65.6811210  89.8119900 100.3254130  66.5625670
  89.9861280 101.6338790  65.8213030  95.7610720  88.7153500  65.0377440
  95.6999610  89.3075330  65.7872850  96.7011100  88.6079460  64.8927700
  98.3985280  88.3723560  64.6769730  99.0125690  88.6902850  64.0150810
  98.9434840  87.8872150  65.2965590  99.1393320  86.9355700  61.0039020
  98.2653160  87.2690810  60.8011950  99.0304070  86.4628880  61.8290890
 102.4999910 104.9138610  59.3618310 102.0402880 105.6654420  58.9876330
 101.8712370 104.1945080  59.3033110  96.8868140  87.8525540  59.9431930
  96.1039930  88.3271040  60.2228690  96.5931070  86.9480370  59.8345110
 101.4389210  88.5548640  57.9881020 101.8797300  88.4993740  57.1402620
 101.1696800  89.4706650  58.0591200 103.3027780  88.1863880  55.9989840
 103.2416180  87.2425100  55.8520860 104.0819810  88.2943970  56.5443300
  88.2308550  88.1573020  52.4645650  88.9887910  88.2701900  51.8909680
  87.7685720  88.9942220  52.4189080  94.7722360  90.2712290  55.4547960
  93.9596870  89.8969180  55.1143840  95.2764000  89.5157370  55.7569150
  99.2747340  86.9354740  56.6931030  99.8776710  87.5074950  57.1679550
  98.5340330  87.4994180  56.4704930  90.6033700  88.6837070  51.0047620
  91.1326460  87.8966870  50.8755570  91.2362020  89.3628260  51.2383150
  92.7971540  88.4212210  54.0593010  92.1674280  87.7199520  54.2263140
  92.2576680  89.1816340  53.8426170  99.5242560  87.1149770  67.0725970
  99.4108010  87.4344380  67.9677490 100.3412300  87.5162280  66.7763250
  98.4300710  95.1342240  37.4360710  98.3494760  94.2196850  37.1652420
  98.0165130  95.6309310  36.7300420  96.8089490 103.6039460  37.7173100
  96.1900930 104.0596960  37.1467540  97.6641270 103.7590920  37.3162800
  97.0332910  92.3948830  39.5509070  97.4097730  91.5220710  39.4382740
  96.9352420  92.7307530  38.6599510  87.0436040  99.1735230  32.4844640
  86.6664020  99.6622330  31.7529540  87.3009110  99.8460510  33.1151170
 102.6681290 101.4474780  41.5192430 101.9844810 102.1173890  41.5109100
 103.2075580 101.6455430  40.7537290  94.6524970  87.5751620  37.9430150
  94.9599950  87.0198510  37.2265650  93.7225670  87.7096080  37.7603140
 100.2040030 103.2918910  40.2337610 100.2167190 102.8881200  39.3659870
  99.6515250 104.0666200  40.1299040  99.6025470  98.1948750  41.5620220
 100.0194260  97.9808860  40.7273680 100.3265290  98.4521540  42.1328840
 103.5487570  96.5935970  41.6536460 102.7206200  96.6629060  41.1786590
 104.1438050  97.1790280  41.1852290  92.2062500  99.5914440  46.2757010
  91.3091030  99.8154410  46.5230410  92.2315370  99.7149380  45.3268410
  91.0333720  96.4627760  44.8514380  90.8941490  97.3350560  45.2201780
  90.1515080  96.1200570  44.7062320  92.8314070 102.4049460  47.0599530
  92.8029500 102.8092410  46.1927960  92.6679040 101.4759820  46.8971130
  86.9852370  98.2325310  40.7685290  87.0632790  98.3674080  39.8241010
  87.5994050  97.5241200  40.9613410  87.0411890  99.2739480  43.3079750
  87.2042930  98.8044840  42.4899120  87.5064340  98.7663040  43.9728590
  94.9289480  88.0255940  33.2246150  94.3043660  88.0215810  33.9499460
  94.8419600  87.1586900  32.8282120  86.4771680  88.7606520  38.9245700
  86.1884730  89.3309380  39.6370680  87.2217440  88.2810970  39.2876930
  98.0262650  94.7611470  40.7966280  97.2943770  95.2698280  41.1456380
  97.6286990  93.9441450  40.4955060  98.4888560  90.2145150  40.2089220
  98.5061300  90.6653800  41.0531070  98.2404140  89.3150790  40.4222660
  88.6150870  98.6490910  45.4675560  88.2305660  98.0084580  46.0658520
  88.9263060  99.3527030  46.0370290 101.8417150  97.7402440  39.6561630
 102.5616270  98.2357730  39.2657740 101.6398970  97.0620330  39.0115500
  97.2235950  97.8111500  45.5430630  97.1573260  96.8907170  45.2888220
  96.5941090  97.9086940  46.2575270  88.6111110  95.3778830  44.4139750
  88.2526050  96.0432680  45.0013090  88.3165670  94.5462380  44.7852370
  91.8124230  95.8363070  47.2979300  91.5124370  95.9820250  46.4007120
  92.5835470  95.2768360  47.2052690  97.1552680 100.6332070  45.2934430
  97.1697220  99.7013030  45.0753340  96.4477780 100.7191830  45.9324200
 102.2889750  94.8171890  31.5633040 102.2053470  95.2486110  30.7129480
 103.0083940  95.2770240  31.9959860  98.8963480  98.9999580  38.1386860
  99.2487300  98.4027710  37.4788230  98.0125810  98.6743810  38.3095110
  87.1219160  95.3770090  31.0374350  87.9914010  95.6594890  31.3210270
  86.6309480  96.1905960  30.9223160  90.1865750  87.1080950  35.6305150
  90.0580380  87.0998850  36.5790070  89.3627770  87.4464040  35.2796160
  99.6356280 101.0776890  44.3088440  99.9712520 101.6643580  44.9866360
  98.7156620 100.9469600  44.5386230  95.4644860 101.1268220  47.4776500
  95.1441730 100.4077460  48.0222190  94.7903220 101.8023290  47.5512560
  92.2179540  90.9022350  32.4409450  93.0670070  91.3392500  32.3749640
  91.8510810  91.2142610  33.2681510 101.1389320  95.4735110  37.3541020
 100.1979460  95.4885340  37.5288710 101.4533390  94.6871070  37.8001320
  89.8117720  94.5879780  31.5977870  89.8921310  93.6407290  31.7095270
  90.7037470  94.9186660  31.7038530  90.6132430 104.7375170  38.7012410
  91.3494910 104.1890630  38.9720980  90.9973350 105.6031180  38.5618400
  89.6190710 103.9221240  47.8897990  90.4203440 104.2433290  48.3033390
  89.1042530 103.5616820  48.6117900  98.4555340 100.0301110  47.8373400
  97.8493500 100.0532710  47.0969150  98.1509450  99.2984150  48.3740650
  87.3388520  96.4094700  46.8334040  87.8427540  95.8301980  47.4050270
  86.5995940  96.6934930  47.3710410  94.3926460  97.8165690  46.3669560
  93.6272130  98.3850690  46.2824230  94.5742420  97.5241900  45.4737790
 101.5349810  99.5471020  46.9244580 102.2759280  99.8846780  46.4212040
 100.7722490  99.7163080  46.3714350  89.3711600  94.5524290  47.7284110
  89.4116940  94.2538160  48.6369340  90.2257100  94.9531900  47.5691630
 100.2095470  97.5985850  45.4599790 100.6236490  97.7530930  46.3090210
  99.2746470  97.7241070  45.6225570  97.3074600  95.2822510  44.8133560
  97.4270810  94.6863650  45.5528400  98.1668600  95.3192200  44.3934860
  99.6462500  95.8359700  43.3896070  99.1197720  96.3602320  42.7861210
  99.9893840  96.4687090  44.0205800  92.0448890  93.2253070  29.8345780
  91.8437950  92.3620430  30.1959120  91.8740940  93.1386430  28.8967380
  99.5237200  88.0361300  32.3632660  99.8039490  87.1929200  32.7192080
  98.7502930  88.2684410  32.8771410  90.8431690  90.3253690  29.8223660
  91.1457590  90.3321120  28.9142810  91.5826280  89.9751550  30.3191320
  94.0616620  89.2688310  30.8079860  93.7138620  88.5912300  30.2282310
  94.2629390  88.8077820  31.6223250  87.0807620 102.4185140  38.1073720
  87.4110630 101.5506200  37.8752360  87.5098620 102.6243660  38.9378680
  87.5697830 103.2855730  40.8455350  87.1328820 103.4656530  41.6779500
  88.1375510 104.0430350  40.7037070 104.4461460 100.5290550  30.4702370
 103.6154420 100.5967200  30.9409600 104.6233290 101.4194670  30.1669230
 103.9017920  97.2738030  32.9736570 104.6636830  97.8434680  33.0796260
 103.9172290  96.7065230  33.7444880 104.9077890  98.1288130  37.8178500
 105.2786720  97.3455450  37.4114470 105.5479820  98.8177230  37.6395800
 101.8911650  99.5124710  43.2308820 101.0771490  99.9421870  43.4934610
 102.2985850 100.1243120  42.6177870 103.9537090  97.5672400  30.1309090
 104.2285930  98.4751280  30.0028310 103.7647830  97.5034930  31.0671080
 103.8502430  95.5041390  35.1238520 103.4746030  94.7369320  34.6919810
 103.1205550  95.8864090  35.6113450  88.4398190  96.1828530  41.7447570
  88.8071230  96.0955930  42.6243590  87.8709010  95.4195080  41.6454430
  87.9914190  93.0937620  45.6505990  87.0970240  93.0604380  45.9899700
  88.5311740  93.2924410  46.4157240  86.6160340  93.0074890  33.1469560
  85.7124420  93.2705090  32.9721220  87.1000960  93.2786060  32.3669520
 103.3043110  93.8138750  41.9465310 102.3545820  93.7802290  42.0610300
 103.4856120  94.7238860  41.7115080  89.1587550  92.0640430  31.0563940
  89.8679250  91.6423650  30.5711220  88.4427490  92.1315660  30.4247290
  88.8061710  88.1179760  30.0966590  89.5289840  88.6588700  30.4147810
  89.0786230  87.8443180  29.2208130  88.4953900  87.3685950  39.9989210
  89.1430090  86.8183330  39.5584370  88.9155740  87.6229100  40.8205020
 104.9330790  89.4541100  30.1381990 105.8580100  89.3222280  29.9300280
 104.9106580  89.5333920  31.0918440  89.8550270 100.6961220  46.9067720
  89.8119900 100.3254130  47.7882180  89.9861280 101.6338790  47.0469540
  99.1393320  86.9355700  42.2295530  98.2653160  87.2690810  42.0268460
  99.0304070  86.4628880  43.0547400  96.8868140  87.8525540  41.1688440
  96.1039930  88.3271040  41.4485200  96.5931070  86.9480370  41.0601620
  87.6080530 104.3256240  36.1870300  87.4402570 103.6926920  36.8852190
  86.7415040 104.5315640  35.8364490  88.2308550  88.1573020  33.6902160
  88.9887910  88.2701900  33.1166190  87.7685720  88.9942220  33.6445590
  90.6033700  88.6837070  32.2304130  91.1326460  87.8966870  32.1012080
  91.2362020  89.3628260  32.4639660  92.7971540  88.4212210  35.2849520
  92.1674280  87.7199520  35.4519650  92.2576680  89.1816340  35.0682680
  95.7363490 105.0351440  47.9560130  96.6630800 104.7995710  47.9996090
  95.7213920 105.8623440  47.4746160  98.4300710  95.1342240  18.6617220
  98.3494760  94.2196850  18.3908930  98.0165130  95.6309310  17.9556930
  96.5618750  96.9121260  20.5426490  95.7860850  96.4321700  20.8325060
  97.2131680  96.2326910  20.3682650  90.5784580  97.2241070  21.4202250
  89.7469460  96.9689780  21.8198760  91.1865560  97.2951840  22.1560170
 100.5826180 101.3181450  19.3225620 100.1207710 100.5468690  19.6512790
 101.3951730 101.3447520  19.8278070  90.5585840 101.2581160  21.6160270
  90.8613880 100.3678900  21.4370490  91.3029430 101.8151380  21.3882520
  96.8089490 103.6039460  18.9429610  96.1900930 104.0596960  18.3724050
  97.6641270 103.7590920  18.5419310  96.0027740  99.5878450  20.5496650
  95.9336020  98.6468390  20.3885780  96.7647600  99.6779860  21.1219220
  88.1934410  90.1932970  22.8753270  88.0137250  89.2958720  23.1556030
  87.7914490  90.7404840  23.5500220  97.0332910  92.3948830  20.7765580
  97.4097730  91.5220710  20.6639250  96.9352420  92.7307530  19.8856020
 100.8157030  89.8899270  17.7093920 101.6366650  89.3995840  17.7519400
 100.8491110  90.4796930  18.4625760  93.0045650  93.7360830  20.5708200
  93.5123870  94.2341800  21.2113220  93.5358890  92.9596030  20.3947560
  91.2881750  88.3759390  24.8371620  91.2900190  88.8931780  24.0317520
  90.4586060  87.8989570  24.8141550  97.6752840  98.4878700  16.3361520
  97.0570110  98.9528150  15.7724240  98.1876090  99.1806180  16.7531030
  92.5384600  98.0154570  23.0145120  92.2053980  98.6423490  23.6566190
  92.7151280  98.5416450  22.2346790 101.0518510  91.8299650  20.4821460
 100.3474080  92.1184540  21.0624570 101.4130670  92.6399760  20.1221020
  90.9697080  90.0869350  22.8442070  91.3113890  90.9311400  22.5495940
  90.0312890  90.2353090  22.9607410  91.7503700  99.9835370  24.8294300
  92.3677700 100.6586450  24.5478750  90.8896820 100.3923350  24.7381800
  87.0436040  99.1735230  13.7101150  86.6664020  99.6622330  12.9786050
  87.3009110  99.8460510  14.3407680 102.6681290 101.4474780  22.7448940
 101.9844810 102.1173890  22.7365610 103.2075580 101.6455430  21.9793800
 104.1205430  91.2754440  20.8730670 103.1730340  91.3093420  21.0046100
 104.4455420  92.0893390  21.2580030  94.6524970  87.5751620  19.1686660
  94.9599950  87.0198510  18.4522160  93.7225670  87.7096080  18.9859650
 100.2040030 103.2918910  21.4594120 100.2167190 102.8881200  20.5916380
  99.6515250 104.0666200  21.3555550 101.4985450 100.0135130  16.5484290
 101.3881780  99.0709460  16.6733710 101.4953700 100.3750770  17.4347050
  99.6025470  98.1948750  22.7876730 100.0194260  97.9808860  21.9530190
 100.3265290  98.4521540  23.3585350  97.0405730  95.6400450  15.9046780
  96.1135010  95.5737830  16.1335250  97.1930550  96.5780580  15.7902020
  97.0274810  91.9117450  12.9013940  96.0878480  92.0731410  12.9866400
  97.3458070  92.6303130  12.3549930 101.0703020  97.2020750  16.4082030
 100.4515440  96.8640300  15.7608330 101.0527470  96.5580510  17.1161220
  92.6462370  96.1665190  18.6866510  92.2419370  95.4542440  18.1912410
  92.7325490  95.8218430  19.5754550  93.1144070  99.8532750  20.8505720
  92.8172360  99.2478220  20.1713500  94.0643890  99.8910060  20.7395080
  91.3590990  92.9408400  22.4665550  91.9105580  93.0503740  21.6918800
  91.8734500  93.3146000  23.1820780 101.2029680 103.4264620  24.5128820
 100.7260240 104.2336810  24.3201430 100.5191470 102.7742950  24.6655030
  92.2062500  99.5914440  27.5013520  91.3091030  99.8154410  27.7486920
  92.2315370  99.7149380  26.5524920  99.2467720  96.4407560  13.4154780
  99.6861000  95.6029990  13.2692600  99.9596140  97.0736960  13.5018920
  91.0333720  96.4627760  26.0770890  90.8941490  97.3350560  26.4458290
  90.1515080  96.1200570  25.9318830  97.3563100 101.3803630  17.3836020
  97.7959010 102.1227960  16.9691410  97.2949990 101.6230200  18.3074980
 102.8284860  87.6950370  11.7295820 102.5157520  87.7877200  12.6294890
 103.5897330  88.2731400  11.6793250  86.9852370  98.2325310  21.9941800
  87.0632790  98.3674080  21.0497520  87.5994050  97.5241200  22.1869920
  88.2300000  99.9325500  18.4047980  87.8228080 100.0740090  17.5501580
  89.1213010  99.6485660  18.2019190 104.1862140 100.3789410  26.7420220
 104.3125200 100.1401290  25.8237400 104.2283520  99.5473950  27.2142300
  98.0478880 104.0817410  25.3115030  98.5623550 103.9925420  26.1137460
  97.2047960 104.4277110  25.6042940 100.0233280 104.3672750  14.7399030
  99.8634420 104.0775690  15.6380860  99.8579990 103.5912880  14.2044260
  92.5021660 104.1471280  16.5170650  92.3264140 103.2306820  16.3038450
  91.6477400 104.5058570  16.7568450  99.7259410 101.8760310  13.2997030
  99.0324570 101.8737600  12.6399310 100.4682270 101.4519630  12.8691200
  99.2909340 103.5023020  17.3745520  99.7466290 102.7212400  17.6884140
  99.6301860 104.2129840  17.9186700  87.0411890  99.2739480  24.5336260
  87.2042930  98.8044840  23.7155630  87.5064340  98.7663040  25.1985100
  91.8130660  88.4045240  19.5696830  91.3698810  89.1854780  19.2381350
  92.3715650  88.7275130  20.2767770  96.1000470  91.2713760  25.1732150
  95.6379840  91.4796780  25.9852090  95.6978580  90.4573110  24.8702820
  94.9289480  88.0255940  14.4502660  94.3043660  88.0215810  15.1755970
  94.8419600  87.1586900  14.0538630  93.8506560  88.9492570  21.4286430
  94.1478890  89.8555400  21.3478450  94.3992120  88.4611350  20.8146000
  98.8342640  93.5342180  15.8968730  98.2351530  94.2577980  15.7132350
  99.3822250  93.4718960  15.1145180  94.0444090  94.4264390  27.9638350
  93.9487690  93.4859120  27.8138750  94.8876070  94.6479460  27.5686420
  97.4407510  92.1705720  17.9272010  97.8337080  92.4877920  17.1140700
  97.8024360  91.2917600  18.0416530  89.1754630  90.8378060  26.1172130
  88.7818020  91.6853270  26.3244910  88.4873030  90.2004430  26.3080770
  95.7499680  90.9213030  29.1868870  95.0598000  90.7285230  29.8214960
  96.4931980  91.2047670  29.7193170  86.6641910  92.7026640  11.3604930
  86.5816580  93.6457400  11.5019920  86.3124970  92.5601550  10.4817280
  98.0262650  94.7611470  22.0222790  97.2943770  95.2698280  22.3712890
  97.6286990  93.9441450  21.7211570  94.4640040  91.4365670  20.4275280
  94.4676100  90.9955620  19.5779820  95.3591160  91.7583000  20.5347100
  94.5260190  92.4377750  13.4182040  94.6473010  92.3964230  14.3667860
  94.1408700  93.3001900  13.2628770  98.4888560  90.2145150  21.4345730
  98.5061300  90.6653800  22.2787580  98.2404140  89.3150790  21.6479170
  93.5381690  94.7478890  12.8165340  92.9698590  94.2997140  12.1901250
  94.2470690  95.1071670  12.2830490 101.9159310  87.6277330  27.2732110
 102.2405080  86.8966990  27.7990090 101.9515820  87.3090970  26.3713100
  88.6150870  98.6490910  26.6932070  88.2305660  98.0084580  27.2915030
  88.9263060  99.3527030  27.2626800  94.7648010  95.4967450  22.1740690
  95.1318140  95.0226020  22.9202030  94.5753070  96.3709020  22.5149030
  92.5547380  94.5376090  24.4924900  92.2504450  95.4168070  24.7175260
  93.5093840  94.5975880  24.5282340  91.0829170  98.7437080  15.0891750
  90.3091430  98.2034700  14.9290470  91.8123800  98.2243690  14.7509510
 101.8417150  97.7402440  20.8818140 102.5616270  98.2357730  20.4914250
 101.6398970  97.0620330  20.2372010  97.3027090  89.1340400  15.0247530
  96.4891700  88.6353570  14.9492840  97.1089040  89.9738650  14.6083880
  97.2235950  97.8111500  26.7687140  97.1573260  96.8907170  26.5144730
  96.5941090  97.9086940  27.4831780 100.0175480  93.5060050  13.3209690
 100.9055100  93.8177280  13.1461030  99.9880570  92.6332300  12.9290270
  91.1266570  98.4117460  18.7270560  91.6445240  97.6085720  18.6727450
  90.6750590  98.3496600  19.5687390  96.0136070  99.6783740  13.9997860
  96.3551770 100.4225970  13.5041180  95.1848780  99.9914860  14.3622690
  88.6111110  95.3778830  25.6396260  88.2526050  96.0432680  26.2269600
  88.3165670  94.5462380  26.0108880  91.8124230  95.8363070  28.5235810
  91.5124370  95.9820250  27.6263630  92.5835470  95.2768360  28.4309200
  97.1552680 100.6332070  26.5190940  97.1697220  99.7013030  26.3009850
  96.4477780 100.7191830  27.1580710 102.2889750  94.8171890  12.7889550
 102.2053470  95.2486110  11.9385990 103.0083940  95.2770240  13.2216370
 103.3177000 101.6714150  15.5171680 102.6753160 101.0169770  15.7915400
 102.9307660 102.0769240  14.7412350  98.8963480  98.9999580  19.3643370
  99.2487300  98.4027710  18.7044740  98.0125810  98.6743810  19.5351620
  94.9826760  99.7597270  16.7713780  95.6697890 100.3066480  17.1521370
  94.1959180 100.3038000  16.8063390  87.1219160  95.3770090  12.2630860
  87.9914010  95.6594890  12.5466780  86.6309480  96.1905960  12.1479670
  94.2853970  96.7643300  16.3839140  94.7416750  97.5748550  16.6099330
  93.9342180  96.4466440  17.2157630  96.5886580 102.2749640  23.6131440
  97.2328800 102.4809020  24.2904860  96.9516020 101.5138040  23.1602290
  90.1865750  87.1080950  16.8561660  90.0580380  87.0998850  17.8046580
  89.3627770  87.4464040  16.5052670  97.8618660 100.2781990  22.3308890
  98.5040890  99.5775150  22.4441060  98.3868010 101.0580430  22.1505780
 101.7074380 100.5630610  12.0548030 101.4811960  99.8461050  12.6472670
 101.3170580 100.3143050  11.2169780  99.6356280 101.0776890  25.5344950
  99.9712520 101.6643580  26.2122870  98.7156620 100.9469600  25.7642740
  87.4890410 104.5897470  12.8292490  87.8488050 105.1886810  12.1749760
  87.3482750 105.1357360  13.6027520  87.1859680  88.8672070  26.3168360
  86.4718200  89.0668990  26.9220970  87.6054720  88.0911640  26.6883160
 101.2890630  98.4802550  13.7162190 101.0012330  98.9415240  14.5040070
 102.0842800  98.0200320  13.9846410  87.4732270 102.8552330  27.3034890
  87.5823390 101.9147070  27.1630280  86.8212830 103.1207080  26.6548620
  93.5059030 101.9728670  13.6466160  93.4969130 102.7058360  13.0310670
  92.5857390 101.7260250  13.7393120  89.1065670  97.1943560  14.3912920
  88.4993620  97.9342460  14.4008220  89.5815020  97.2842920  13.5651120
  98.6798460  91.3594380  24.0669810  99.0479280  90.5389590  24.3949380
  97.8196660  91.4196270  24.4825460 102.0460490  90.3151320  14.8757370
 101.4173650  90.4196990  14.1615600 101.5512410  90.5348100  15.6651250
  96.4918630 102.0356910  12.3091350  96.5930610 101.8320900  11.3793330
  95.5920370 101.7815190  12.5139130  94.0144520  92.5937270  16.2915250
  93.3060670  93.0623610  16.7328860  94.2989000  91.9359280  16.9260440
  95.6400450  94.0133970  24.2907780  96.1385700  94.4879790  24.9559630
  95.7823400  93.0897490  24.4977810  98.0459950  89.3187930  17.7311040
  97.9227730  89.3374060  16.7820550  98.9944510  89.3666870  17.8509440
  95.1336740 104.5543230  17.0039020  95.3878240 104.5164620  16.0818390
  94.1849220 104.4276560  16.9967270  92.2179540  90.9022350  13.6665960
  93.0670070  91.3392500  13.6006150  91.8510810  91.2142610  14.4938020
 101.1389320  95.4735110  18.5797530 100.1979460  95.4885340  18.7545220
 101.4533390  94.6871070  19.0257830  91.1170960  97.1554710  12.1401490
  91.8834230  97.0436070  12.7026920  91.1945650  96.4592680  11.4878260
  89.8117720  94.5879780  12.8234380  89.8921310  93.6407290  12.9351780
  90.7037470  94.9186660  12.9295040 103.1414900 102.6443960  20.2551790
 103.2662320 103.4675130  20.7275600 104.0080460 102.4334690  19.9075940
  90.6132430 104.7375170  19.9268920  91.3494910 104.1890630  20.1977490
  90.9973350 105.6031180  19.7874910  87.4977910 100.8048740  15.8010430
  86.5717690 101.0469880  15.7915840  87.9634340 101.6323000  15.6795180
  93.7234740 103.9105480  11.7494490  94.5163350 104.1994310  11.2976280
  93.2039090 103.4797650  11.0706970  98.4555340 100.0301110  29.0629910
  97.8493500 100.0532710  28.3225660  98.1509450  99.2984150  29.5997160
  99.8855710 103.7581400  27.6739320 100.8377460 103.6739420  27.6239560
  99.7383930 104.4223110  28.3473110 102.7764910 103.1375610  13.1731230
 102.4906420 102.7240750  12.3585410 102.5784460 104.0663320  13.0531750
  87.3388520  96.4094700  28.0590550  87.8427540  95.8301980  28.6306780
  86.5995940  96.6934930  28.5966920  94.2412140  99.1308890  11.6136840
  94.1362780  98.5161240  12.3398220  94.0736360  98.6074780  10.8299850
  94.3926460  97.8165690  27.5926070  93.6272130  98.3850690  27.5080740
  94.5742420  97.5241900  26.6994300  97.4814870  98.1928920  12.2178830
  96.9324970  98.6398220  12.8621570  98.1034130  97.6878170  12.7416500
 101.5349810  99.5471020  28.1501090 102.2759280  99.8846780  27.6468550
 100.7722490  99.7163080  27.5970860  89.3711600  94.5524290  28.9540620
  89.4116940  94.2538160  29.8625850  90.2257100  94.9531900  28.7948140
  93.1489990  97.1519840  14.1144130  93.5706410  96.9859710  14.9575520
  93.2740830  96.3420070  13.6199270  91.3117410  93.1316390  26.9215110
  90.7813870  92.6407340  26.2938450  91.9805480  93.5600590  26.3873040
  95.6617630  96.1757450  11.3621230  96.1823290  95.4606470  10.9962380
  96.3086030  96.8143320  11.6621740 100.2095470  97.5985850  26.6856300
 100.6236490  97.7530930  27.5346720  99.2746470  97.7241070  26.8482080
 100.6817640  94.9382010  28.6895450 101.2638410  94.1834330  28.6015930
 100.8579410  95.4689450  27.9126930  91.7989710  90.0978760  27.0012400
  91.7046580  89.4799510  26.2763270  91.2187100  90.8245050  26.7742310
  94.5651150  88.6552000  24.0339790  94.1168450  88.6776260  23.1885340
  93.9316350  88.2571020  24.6310090  94.9710700  97.5506330  24.6552230
  95.3898810  98.3939060  24.4828470  94.0519330  97.6878370  24.4259010
  97.3074600  95.2822510  26.0390070  97.4270810  94.6863650  26.7784910
  98.1668600  95.3192200  25.6191370  92.0448890  93.2253070  11.0602290
  91.8437950  92.3620430  11.4215630  91.8740940  93.1386430  10.1223890
  92.8218120 103.8559340  25.7709960  92.2839210 104.5805400  25.4518660
  93.0752080 103.3789680  24.9807300  94.0743370  91.8243860  27.2965890
  94.6643060  91.5159710  27.9843710  93.2563610  91.3523610  27.4525790
  98.8936800  91.4409670  27.5298910  98.2052320  90.7791210  27.4648900
  99.6142820  90.9947940  27.9747370  99.5237200  88.0361300  13.5889170
  99.8039490  87.1929200  13.9448590  98.7502930  88.2684410  14.1027920
  90.8431690  90.3253690  11.0480170  91.1457590  90.3321120  10.1399320
  91.5826280  89.9751550  11.5447830  95.6780330 105.0910550  26.0296610
  95.6039030 105.9945690  26.3368980  94.7759170 104.7722450  26.0018680
  94.0616620  89.2688310  12.0336370  93.7138620  88.5912300  11.4538820
  94.2629390  88.8077820  12.8479760  96.2265660 104.2569060  13.6522970
  97.1216450 104.5954030  13.6741730  96.2583290 103.5348470  13.0247250
  89.8661820  99.6296110  11.8809970  90.3036690 100.1725780  12.5367550
  90.3509550  98.8043060  11.8906310  87.0807620 102.4185140  19.3330230
  87.4110630 101.5506200  19.1008870  87.5098620 102.6243660  20.1635190
  91.6769540 100.7494150  16.9932200  91.3765080 100.6259120  17.8936110
  91.5707030  99.8902740  16.5847930  87.5697830 103.2855730  22.0711860
  87.1328820 103.4656530  22.9036010  88.1375510 104.0430350  21.9293580
 103.2060010 102.7872730  26.3589170 102.6062000 102.8465290  25.6153090
 103.3353910 101.8477710  26.4886020 104.4461460 100.5290550  11.6958880
 103.6154420 100.5967200  12.1666110 104.6233290 101.4194670  11.3925740
 103.9017920  97.2738030  14.1993080 104.6636830  97.8434680  14.3052770
 103.9172290  96.7065230  14.9701390 104.9077890  98.1288130  19.0435010
 105.2786720  97.3455450  18.6370980 105.5479820  98.8177230  18.8652310
 101.8911650  99.5124710  24.4565330 101.0771490  99.9421870  24.7191120
 102.2985850 100.1243120  23.8434380 103.9537090  97.5672400  11.3565600
 104.2285930  98.4751280  11.2284820 103.7647830  97.5034930  12.2927590
 100.3512700  90.5917250  12.6519230 100.7697580  90.4048230  11.8115890
 100.0448760  89.7396300  12.9622160 103.8502430  95.5041390  16.3495030
 103.4746030  94.7369320  15.9176320 103.1205550  95.8864090  16.8369960
  88.4398190  96.1828530  22.9704080  88.8071230  96.0955930  23.8500100
  87.8709010  95.4195080  22.8710940 101.6790120  89.8769340  28.7614250
 102.5560300  89.8852740  29.1448250 101.6910960  89.1400180  28.1506600
 103.1253390  93.7298880  19.6502270 103.6490870  93.2361530  19.0192440
 103.7112810  93.8649240  20.3949840  89.1587550  92.0640430  12.2820450
  89.8679250  91.6423650  11.7967730  88.4427490  92.1315660  11.6503800
  88.8061710  88.1179760  11.3223100  89.5289840  88.6588700  11.6404320
  89.0786230  87.8443180  10.4464640 102.6153360  92.9872230  15.5894680
 103.1112480  92.7543100  16.3743560 102.4169430  92.1484070  15.1732320
  88.4953900  87.3685950  21.2245720  89.1430090  86.8183330  20.7840880
  88.9155740  87.6229100  22.0461530 104.0440520  91.6233180  18.1232360
 103.9339800  91.4689220  19.0614630 104.8048110  91.0954120  17.8807770
 102.3906240  87.5627310  24.5815360 103.0278460  88.1761450  24.9474550
 102.5381130  87.5987970  23.6364590 104.9330790  89.4541100  11.3638500
 105.8580100  89.3222280  11.1556790 104.9106580  89.5333920  12.3174950
 105.0069280  90.2251760  13.9895210 104.2120780  90.1596880  14.5188120
 105.2112560  91.1602400  13.9780560 101.9487700 104.2643310  17.9833600
 102.5446770 103.9427880  17.3068020 102.2065850 103.7915130  18.7746870
  88.2485900  87.5241620  23.9671040  87.9000720  87.9805440  24.7329220
  87.9173600  86.6298750  24.0493470  89.8550270 100.6961220  28.1324230
  89.8119900 100.3254130  29.0138690  89.9861280 101.6338790  28.2726050
  93.5556300 102.2520810  23.7333950  93.3147660 102.5195370  22.8464470
  94.4958940 102.4226540  23.7884810  95.7610720  88.7153500  27.4890460
  95.6999610  89.3075330  28.2385870  96.7011100  88.6079460  27.3440720
  98.3985280  88.3723560  27.1282750  99.0125690  88.6902850  26.4663830
  98.9434840  87.8872150  27.7478610 104.8160460 104.2715190  24.5344590
 104.3218740 104.6684060  23.8171720 104.2073750 103.6464400  24.9281870
  88.9206540  87.0517820  27.2421810  89.4689530  86.8705870  26.4787920
  88.9861850  86.2611930  27.7778120  89.6938300 103.6423470  25.2522010
  89.0998620 103.5108170  25.9912050  89.6862140 102.8061610  24.7864110
  99.1393320  86.9355700  23.4552040  98.2653160  87.2690810  23.2524970
  99.0304070  86.4628880  24.2803910 100.0465300  89.1426570  24.8393760
  99.7178660  88.3278330  24.4595490 100.9947600  89.0996380  24.7159450
 102.4999910 104.9138610  21.8131330 102.0402880 105.6654420  21.4389350
 101.8712370 104.1945080  21.7546130  89.3250530 101.0081850  24.2030050
  88.5984590 100.3887140  24.1356000  89.3859680 101.4022460  23.3328130
  92.9295630 103.2226850  20.9879460  93.4460650 102.6114210  20.4627720
  93.5793010 103.7255630  21.4790470  95.6691130 104.1135340  21.8148440
  95.9568940 103.8589640  20.9381450  96.1814350 103.5612700  22.4054010
  96.8868140  87.8525540  22.3944950  96.1039930  88.3271040  22.6741710
  96.5931070  86.9480370  22.2858130 101.4389210  88.5548640  20.4394040
 101.8797300  88.4993740  19.5915640 101.1696800  89.4706650  20.5104220
 103.3027780  88.1863880  18.4502860 103.2416180  87.2425100  18.3033880
 104.0819810  88.2943970  18.9956320  87.6080530 104.3256240  17.4126810
  87.4402570 103.6926920  18.1108700  86.7415040 104.5315640  17.0621000
  94.7722360  90.2712290  17.9060980  93.9596870  89.8969180  17.5656860
  95.2764000  89.5157370  18.2082170  99.2747340  86.9354740  19.1444050
  99.8776710  87.5074950  19.6192570  98.5340330  87.4994180  18.9217950
 102.4181940  87.3376300  14.4184330 102.6132570  88.2359750  14.6851760
 101.6311810  87.1063380  14.9117280  89.2143230 103.0189470  14.8576950
  88.6890850 103.3997500  14.1538910  89.1387810 103.6440240  15.5786660
  90.6033700  88.6837070  13.4560640  91.1326460  87.8966870  13.3268590
  91.2362020  89.3628260  13.6896170  92.7971540  88.4212210  16.5106030
  92.1674280  87.7199520  16.6776160  92.2576680  89.1816340  16.2939190
 103.9708550 104.5777010  16.1790890 104.1460740 103.8914750  15.5351810
 103.2730120 105.1024060  15.7867560  92.9227100  87.6996190  28.9458520
  92.6411370  88.2029790  28.1819340  93.3046800  86.9017940  28.5800650
  91.8136200 104.9671850  13.7326200  92.5455020 104.6831130  13.1850090
  92.0729870 104.7285130  14.6225580  90.9750990 101.0836580  13.7372530
  90.3459870 101.5521680  14.2858360  91.0898820 100.2385800  14.1718720
  99.5242560  87.1149770  29.5238990  99.4108010  87.4344380  30.4190510
 100.3412300  87.5162280  29.2276270 102.3041050 104.2621300  29.0057680
 103.0966370 103.7670530  28.7983640 102.5974200 104.9411440  29.6133290
  96.5618750  96.9121260   1.7683000  95.7860850  96.4321700   2.0581570
  97.2131680  96.2326910   1.5939160  90.5784580  97.2241070   2.6458760
  89.7469460  96.9689780   3.0455270  91.1865560  97.2951840   3.3816680
  90.5585840 101.2581160   2.8416780  90.8613880 100.3678900   2.6627000
  91.3029430 101.8151380   2.6139030  96.0027740  99.5878450   1.7753160
  95.9336020  98.6468390   1.6142290  96.7647600  99.6779860   2.3475730
  88.1934410  90.1932970   4.1009780  88.0137250  89.2958720   4.3812540
  87.7914490  90.7404840   4.7756730  88.8121080  92.6893470   2.7092120
  89.4931190  92.9531840   3.3279520  88.4969130  91.8494340   3.0430130
  93.0045650  93.7360830   1.7964710  93.5123870  94.2341800   2.4369730
  93.5358890  92.9596030   1.6204070 105.1056580  91.9066020   5.4994060
 104.4008750  92.2947730   4.9809170 105.3714500  92.6016310   6.1014990
  91.2881750  88.3759390   6.0628130  91.2900190  88.8931780   5.2574030
  90.4586060  87.8989570   6.0398060  92.5384600  98.0154570   4.2401630
  92.2053980  98.6423490   4.8822700  92.7151280  98.5416450   3.4603300
  90.9697080  90.0869350   4.0698580  91.3113890  90.9311400   3.7752450
  90.0312890  90.2353090   4.1863920  91.7503700  99.9835370   6.0550810
  92.3677700 100.6586450   5.7735260  90.8896820 100.3923350   5.9638310
 102.6681290 101.4474780   3.9705450 101.9844810 102.1173890   3.9622120
 103.2075580 101.6455430   3.2050310 104.1205430  91.2754440   2.0987180
 103.1730340  91.3093420   2.2302610 104.4455420  92.0893390   2.4836540
 100.2040030 103.2918910   2.6850630 100.2167190 102.8881200   1.8172890
  99.6515250 104.0666200   2.5812060  99.6025470  98.1948750   4.0133240
 100.0194260  97.9808860   3.1786700 100.3265290  98.4521540   4.5841860
 103.5487570  96.5935970   4.1049480 102.7206200  96.6629060   3.6299610
 104.1438050  97.1790280   3.6365310 100.5129580  93.3805290   5.0504350
 100.1000760  94.2059000   5.3044340  99.7805530  92.7950330   4.8580710
  91.3590990  92.9408400   3.6922060  91.9105580  93.0503740   2.9175310
  91.8734500  93.3146000   4.4077290 101.2029680 103.4264620   5.7385330
 100.7260240 104.2336810   5.5457940 100.5191470 102.7742950   5.8911540
  92.2062500  99.5914440   8.7270030  91.3091030  99.8154410   8.9743430
  92.2315370  99.7149380   7.7781430  91.0333720  96.4627760   7.3027400
  90.8941490  97.3350560   7.6714800  90.1515080  96.1200570   7.1575340
  92.8314070 102.4049460   9.5112550  92.8029500 102.8092410   8.6440980
  92.6679040 101.4759820   9.3484150 104.7828890 103.1876560  10.8076720
 105.2588610 103.6659450  11.4865800 105.4036050 103.1194050  10.0822220
  86.9852370  98.2325310   3.2198310  87.0632790  98.3674080   2.2754030
  87.5994050  97.5241200   3.4126430 104.1862140 100.3789410   7.9676730
 104.3125200 100.1401290   7.0493910 104.2283520  99.5473950   8.4398810
  98.0478880 104.0817410   6.5371540  98.5623550 103.9925420   7.3393970
  97.2047960 104.4277110   6.8299450 104.0386150  92.4321870   8.9326470
 103.4230420  92.9401540   8.4041930 103.7182570  91.5320200   8.8752410
  87.0411890  99.2739480   5.7592770  87.2042930  98.8044840   4.9412140
  87.5064340  98.7663040   6.4241610  96.1000470  91.2713760   6.3988660
  95.6379840  91.4796780   7.2108600  95.6978580  90.4573110   6.0959330
 101.1004980  92.4922710   7.5285320 100.2498570  92.1928460   7.8494390
 100.9406770  92.7364720   6.6169140  98.1954690  93.9924460   9.6284110
  98.5208100  93.1588210   9.2886340  98.9835020  94.5152980   9.7762440
  93.8506560  88.9492570   2.6542940  94.1478890  89.8555400   2.5734960
  94.3992120  88.4611350   2.0402510  94.0444090  94.4264390   9.1894860
  93.9487690  93.4859120   9.0395260  94.8876070  94.6479460   8.7942930
  89.1754630  90.8378060   7.3428640  88.7818020  91.6853270   7.5501420
  88.4873030  90.2004430   7.5337280  95.7499680  90.9213030  10.4125380
  95.0598000  90.7285230  11.0471470  96.4931980  91.2047670  10.9449680
  98.0262650  94.7611470   3.2479300  97.2943770  95.2698280   3.5969400
  97.6286990  93.9441450   2.9468080  98.4888560  90.2145150   2.6602240
  98.5061300  90.6653800   3.5044090  98.2404140  89.3150790   2.8735680
 101.9159310  87.6277330   8.4988620 102.2405080  86.8966990   9.0246600
 101.9515820  87.3090970   7.5969610  88.6150870  98.6490910   7.9188580
  88.2305660  98.0084580   8.5171540  88.9263060  99.3527030   8.4883310
  94.7648010  95.4967450   3.3997200  95.1318140  95.0226020   4.1458540
  94.5753070  96.3709020   3.7405540  92.5547380  94.5376090   5.7181410
  92.2504450  95.4168070   5.9431770  93.5093840  94.5975880   5.7538850
 101.8417150  97.7402440   2.1074650 102.5616270  98.2357730   1.7170760
 101.6398970  97.0620330   1.4628520  97.2235950  97.8111500   7.9943650
  97.1573260  96.8907170   7.7401240  96.5941090  97.9086940   8.7088290
  88.6111110  95.3778830   6.8652770  88.2526050  96.0432680   7.4526110
  88.3165670  94.5462380   7.2365390  91.8124230  95.8363070   9.7492320
  91.5124370  95.9820250   8.8520140  92.5835470  95.2768360   9.6565710
  97.1552680 100.6332070   7.7447450  97.1697220  99.7013030   7.5266360
  96.4477780 100.7191830   8.3837220 103.3663890  97.2739410   7.0916030
 102.6412080  97.8668190   6.8945420 103.8939350  97.2662950   6.2929400
  96.5886580 102.2749640   4.8387950  97.2328800 102.4809020   5.5161370
  96.9516020 101.5138040   4.3858800  97.8618660 100.2781990   3.5565400
  98.5040890  99.5775150   3.6697570  98.3868010 101.0580430   3.3762290
  99.6356280 101.0776890   6.7601460  99.9712520 101.6643580   7.4379380
  98.7156620 100.9469600   6.9899250  87.1859680  88.8672070   7.5424870
  86.4718200  89.0668990   8.1477480  87.6054720  88.0911640   7.9139670
  87.4732270 102.8552330   8.5291400  87.5823390 101.9147070   8.3886790
  86.8212830 103.1207080   7.8805130  95.4644860 101.1268220   9.9289520
  95.1441730 100.4077460  10.4735210  94.7903220 101.8023290  10.0025580
  98.6798460  91.3594380   5.2926320  99.0479280  90.5389590   5.6205890
  97.8196660  91.4196270   5.7081970  95.6400450  94.0133970   5.5164290
  96.1385700  94.4879790   6.1816140  95.7823400  93.0897490   5.7234320
 102.8467310  90.2301930   6.3592680 102.3440910  90.9707330   6.6986490
 103.6623970  90.6185930   6.0429470  89.6190710 103.9221240  10.3411010
  90.4203440 104.2433290  10.7546410  89.1042530 103.5616820  11.0630920
  98.4555340 100.0301110  10.2886420  97.8493500 100.0532710   9.5482170
  98.1509450  99.2984150  10.8253670  99.8855710 103.7581400   8.8995830
 100.8377460 103.6739420   8.8496070  99.7383930 104.4223110   9.5729620
  87.3388520  96.4094700   9.2847060  87.8427540  95.8301980   9.8563290
  86.5995940  96.6934930   9.8223430  94.3926460  97.8165690   8.8182580
  93.6272130  98.3850690   8.7337250  94.5742420  97.5241900   7.9250810
 101.5349810  99.5471020   9.3757600 102.2759280  99.8846780   8.8725060
 100.7722490  99.7163080   8.8227370  89.3711600  94.5524290  10.1797130
  89.4116940  94.2538160  11.0882360  90.2257100  94.9531900  10.0204650
  91.3117410  93.1316390   8.1471620  90.7813870  92.6407340   7.5194960
  91.9805480  93.5600590   7.6129550 100.2095470  97.5985850   7.9112810
 100.6236490  97.7530930   8.7603230  99.2746470  97.7241070   8.0738590
 100.6817640  94.9382010   9.9151960 101.2638410  94.1834330   9.8272440
 100.8579410  95.4689450   9.1383440  91.7989710  90.0978760   8.2268910
  91.7046580  89.4799510   7.5019780  91.2187100  90.8245050   7.9998820
  94.5651150  88.6552000   5.2596300  94.1168450  88.6776260   4.4141850
  93.9316350  88.2571020   5.8566600  94.9710700  97.5506330   5.8808740
  95.3898810  98.3939060   5.7084980  94.0519330  97.6878370   5.6515520
  97.3074600  95.2822510   7.2646580  97.4270810  94.6863650   8.0041420
  98.1668600  95.3192200   6.8447880  99.6462500  95.8359700   5.8409090
  99.1197720  96.3602320   5.2374230  99.9893840  96.4687090   6.4718820
  92.8218120 103.8559340   6.9966470  92.2839210 104.5805400   6.6775170
  93.0752080 103.3789680   6.2063810  94.0743370  91.8243860   8.5222400
  94.6643060  91.5159710   9.2100220  93.2563610  91.3523610   8.6782300
  98.8936800  91.4409670   8.7555420  98.2052320  90.7791210   8.6905410
  99.6142820  90.9947940   9.2003880  95.6780330 105.0910550   7.2553120
  95.6039030 105.9945690   7.5625490  94.7759170 104.7722450   7.2275190
  87.5697830 103.2855730   3.2968370  87.1328820 103.4656530   4.1292520
  88.1375510 104.0430350   3.1550090 103.2060010 102.7872730   7.5845680
 102.6062000 102.8465290   6.8409600 103.3353910 101.8477710   7.7142530
 101.8911650  99.5124710   5.6821840 101.0771490  99.9421870   5.9447630
 102.2985850 100.1243120   5.0690890  88.4398190  96.1828530   4.1960590
  88.8071230  96.0955930   5.0756610  87.8709010  95.4195080   4.0967450
 103.2402050  94.6512910   7.2091060 103.0088140  94.4225660   6.3089010
 103.5006600  95.5712460   7.1635950  87.9914190  93.0937620   8.1019010
  87.0970240  93.0604380   8.4412720  88.5311740  93.2924410   8.8670260
 101.6790120  89.8769340   9.9870760 102.5560300  89.8852740  10.3704760
 101.6910960  89.1400180   9.3763110 103.3043110  93.8138750   4.3978330
 102.3545820  93.7802290   4.5123320 103.4856120  94.7238860   4.1628100
  88.4953900  87.3685950   2.4502230  89.1430090  86.8183330   2.0097390
  88.9155740  87.6229100   3.2718040 102.3906240  87.5627310   5.8071870
 103.0278460  88.1761450   6.1731060 102.5381130  87.5987970   4.8621100
  88.2485900  87.5241620   5.1927550  87.9000720  87.9805440   5.9585730
  87.9173600  86.6298750   5.2749980  89.8550270 100.6961220   9.3580740
  89.8119900 100.3254130  10.2395200  89.9861280 101.6338790   9.4982560
  93.5556300 102.2520810   4.9590460  93.3147660 102.5195370   4.0720980
  94.4958940 102.4226540   5.0141320  95.7610720  88.7153500   8.7146970
  95.6999610  89.3075330   9.4642380  96.7011100  88.6079460   8.5697230
  98.3985280  88.3723560   8.3539260  99.0125690  88.6902850   7.6920340
  98.9434840  87.8872150   8.9735120 104.8160460 104.2715190   5.7601100
 104.3218740 104.6684060   5.0428230 104.2073750 103.6464400   6.1538380
  88.9206540  87.0517820   8.4678320  89.4689530  86.8705870   7.7044430
  88.9861850  86.2611930   9.0034630  89.6938300 103.6423470   6.4778520
  89.0998620 103.5108170   7.2168560  89.6862140 102.8061610   6.0120620
  99.1393320  86.9355700   4.6808550  98.2653160  87.2690810   4.4781480
  99.0304070  86.4628880   5.5060420 100.0465300  89.1426570   6.0650270
  99.7178660  88.3278330   5.6852000 100.9947600  89.0996380   5.9415960
 102.4999910 104.9138610   3.0387840 102.0402880 105.6654420   2.6645860
 101.8712370 104.1945080   2.9802640  89.3250530 101.0081850   5.4286560
  88.5984590 100.3887140   5.3612510  89.3859680 101.4022460   4.5584640
  92.9295630 103.2226850   2.2135970  93.4460650 102.6114210   1.6884230
  93.5793010 103.7255630   2.7046980  95.6691130 104.1135340   3.0404950
  95.9568940 103.8589640   2.1637960  96.1814350 103.5612700   3.6310520
  96.8868140  87.8525540   3.6201460  96.1039930  88.3271040   3.8998220
  96.5931070  86.9480370   3.5114640  95.7363490 105.0351440  10.4073150
  96.6630800 104.7995710  10.4509110  95.7213920 105.8623440   9.9259180
  92.9227100  87.6996190  10.1715030  92.6411370  88.2029790   9.4075850
  93.3046800  86.9017940   9.8057160  99.5242560  87.1149770  10.7495500
  99.4108010  87.4344380  11.6447020 100.3412300  87.5162280  10.4532780
 102.3041050 104.2621300  10.2314190 103.0966370 103.7670530  10.0240150
 102.5974200 104.9411440  10.8389800  98.4300710  76.3598750 150.0821650
  98.3494760  75.4453360 149.8113360  98.0165130  76.8565820 149.3761360
 100.5826180  82.5437960 150.7430050 100.1207710  81.7725200 151.0717220
 101.3951730  82.5704030 151.2482500  88.9876530  73.4099470 146.6249070
  88.0993230  73.7515440 146.5228950  89.2717720  73.2099790 145.7329900
  96.8089490  84.8295970 150.3634040  96.1900930  85.2853470 149.7928480
  97.6641270  84.9847430 149.9623740  91.1637920  71.9930970 147.6587450
  91.2704670  72.8934700 147.9656210  90.2530280  71.9448940 147.3682100
 100.8157030  71.1155780 149.1298350 101.6366650  70.6252350 149.1723830
 100.8491110  71.7053440 149.8830190  97.6752840  79.7135210 147.7565950
  97.0570110  80.1784660 147.1928670  98.1876090  80.4062690 148.1735460
  87.0436040  80.3991740 145.1305580  86.6664020  80.8878840 144.3990480
  87.3009110  81.0717020 145.7612110  94.6524970  68.8008130 150.5891090
  94.9599950  68.2455020 149.8726590  93.7225670  68.9352590 150.4064080
 101.4985450  81.2391640 147.9688720 101.3881780  80.2965970 148.0938140
 101.4953700  81.6007280 148.8551480  97.0405730  76.8656960 147.3251210
  96.1135010  76.7994340 147.5539680  97.1930550  77.8037090 147.2106450
  97.0274810  73.1373960 144.3218370  96.0878480  73.2987920 144.4070830
  97.3458070  73.8559640 143.7754360 101.0703020  78.4277260 147.8286460
 100.4515440  78.0896810 147.1812760 101.0527470  77.7837020 148.5365650
  92.6462370  77.3921700 150.1070940  92.2419370  76.6798950 149.6116840
  92.7325490  77.0474940 150.9958980  99.2467720  77.6664070 144.8359210
  99.6861000  76.8286500 144.6897030  99.9596140  78.2993470 144.9223350
  97.3563100  82.6060140 148.8040450  97.7959010  83.3484470 148.3895840
  97.2949990  82.8486710 149.7279410 102.8284860  68.9206880 143.1500250
 102.5157520  69.0133710 144.0499320 103.5897330  69.4987910 143.0997680
  89.3467000  76.2866680 147.6077590  89.2264600  77.0128770 146.9958860
  89.0367890  75.5169590 147.1305500  88.2300000  81.1582010 149.8252410
  87.8228080  81.2996600 148.9706010  89.1213010  80.8742170 149.6223620
 100.0233280  85.5929260 146.1603460  99.8634420  85.3032200 147.0585290
  99.8579990  84.8169390 145.6248690  92.5021660  85.3727790 147.9375080
  92.3264140  84.4563330 147.7242880  91.6477400  85.7315080 148.1772880
  99.7259410  83.1016820 144.7201460  99.0324570  83.0994110 144.0603740
 100.4682270  82.6776140 144.2895630  99.2909340  84.7279530 148.7949950
  99.7466290  83.9468910 149.1088570  99.6301860  85.4386350 149.3391130
  91.8130660  69.6301750 150.9901260  91.3698810  70.4111290 150.6585780
  92.3715650  69.9531640 151.6972200  94.9289480  69.2512450 145.8707090
  94.3043660  69.2472320 146.5960400  94.8419600  68.3843410 145.4743060
  91.6044880  74.7535320 148.7182510  91.3785800  74.5372490 149.6229130
  90.8237410  75.1863780 148.3728480  98.8342640  74.7598690 147.3173160
  98.2351530  75.4834490 147.1336780  99.3822250  74.6975470 146.5349610
  97.4407510  73.3962230 149.3476440  97.8337080  73.7134430 148.5345130
  97.8024360  72.5174110 149.4620960  86.6641910  73.9283150 142.7809360
  86.5816580  74.8713910 142.9224350  86.3124970  73.7858060 141.9021710
  90.3142420  72.5448670 150.8073920  89.9742470  73.0223900 151.5640970
  89.5519740  72.0913790 150.4475020  94.5260190  73.6634260 144.8386470
  94.6473010  73.6220740 145.7872290  94.1408700  74.5258410 144.6833200
  93.5381690  75.9735400 144.2369770  92.9698590  75.5253650 143.6105680
  94.2470690  76.3328180 143.7034920  87.6288500  71.4667650 149.7238590
  87.3435420  71.1023320 150.5617210  87.5667360  70.7348110 149.1101730
  91.0829170  79.9693590 146.5096180  90.3091430  79.4291210 146.3494900
  91.8123800  79.4500200 146.1713940  97.3027090  70.3596910 146.4451960
  96.4891700  69.8610080 146.3697270  97.1089040  71.1995160 146.0288310
 100.0175480  74.7316560 144.7414120 100.9055100  75.0433790 144.5665460
  99.9880570  73.8588810 144.3494700  91.1266570  79.6373970 150.1474990
  91.6445240  78.8342230 150.0931880  90.6750590  79.5753110 150.9891820
  96.0136070  80.9040250 145.4202290  96.3551770  81.6482480 144.9245610
  95.1848780  81.2171370 145.7827120 102.2889750  76.0428400 144.2093980
 102.2053470  76.4742620 143.3590420 103.0083940  76.5026750 144.6420800
 103.3177000  82.8970660 146.9376110 102.6753160  82.2426280 147.2119830
 102.9307660  83.3025750 146.1616780  98.8963480  80.2256090 150.7847800
  99.2487300  79.6284220 150.1249170  98.0125810  79.9000320 150.9556050
  94.9826760  80.9853780 148.1918210  95.6697890  81.5322990 148.5725800
  94.1959180  81.5294510 148.2267820  87.1219160  76.6026600 143.6835290
  87.9914010  76.8851400 143.9671210  86.6309480  77.4162470 143.5684100
  94.2853970  77.9899810 147.8043570  94.7416750  78.8005060 148.0303760
  93.9342180  77.6722950 148.6362060  90.1865750  68.3337460 148.2766090
  90.0580380  68.3255360 149.2251010  89.3627770  68.6720550 147.9257100
 101.7074380  81.7887120 143.4752460 101.4811960  81.0717560 144.0677100
 101.3170580  81.5399560 142.6374210  87.4890410  85.8153980 144.2496920
  87.8488050  86.4143320 143.5954190  87.3482750  86.3613870 145.0231950
 101.2890630  79.7059060 145.1366620 101.0012330  80.1671750 145.9244500
 102.0842800  79.2456830 145.4050840  93.5059030  83.1985180 145.0670590
  93.4969130  83.9314870 144.4515100  92.5857390  82.9516760 145.1597550
  89.1065670  78.4200070 145.8117350  88.4993620  79.1598970 145.8212650
  89.5815020  78.5099430 144.9855550 102.0460490  71.5407830 146.2961800
 101.4173650  71.6453500 145.5820030 101.5512410  71.7604610 147.0855680
  96.4918630  83.2613420 143.7295780  96.5930610  83.0577410 142.7997760
  95.5920370  83.0071700 143.9343560  94.0144520  73.8193780 147.7119680
  93.3060670  74.2880120 148.1533290  94.2989000  73.1615790 148.3464870
  98.0459950  70.5444440 149.1515470  97.9227730  70.5630570 148.2024980
  98.9944510  70.5923380 149.2713870  95.1336740  85.7799740 148.4243450
  95.3878240  85.7421130 147.5022820  94.1849220  85.6533070 148.4171700
  92.2179540  72.1278860 145.0870390  93.0670070  72.5649010 145.0210580
  91.8510810  72.4399120 145.9142450 101.1389320  76.6991620 150.0001960
 100.1979460  76.7141850 150.1749650 101.4533390  75.9127580 150.4462260
  91.1170960  78.3811220 143.5605920  91.8834230  78.2692580 144.1231350
  91.1945650  77.6849190 142.9082690  89.8117720  75.8136290 144.2438810
  89.8921310  74.8663800 144.3556210  90.7037470  76.1443170 144.3499470
  90.6132430  85.9631680 151.3473350  91.3494910  85.4147140 151.6181920
  90.9973350  86.8287690 151.2079340  87.4977910  82.0305250 147.2214860
  86.5717690  82.2726390 147.2120270  87.9634340  82.8579510 147.0999610
  93.7234740  85.1361990 143.1698920  94.5163350  85.4250820 142.7180710
  93.2039090  84.7054160 142.4911400 102.7764910  84.3632120 144.5935660
 102.4906420  83.9497260 143.7789840 102.5784460  85.2919830 144.4736180
  94.2412140  80.3565400 143.0341270  94.1362780  79.7417750 143.7602650
  94.0736360  79.8331290 142.2504280  97.4814870  79.4185430 143.6383260
  96.9324970  79.8654730 144.2826000  98.1034130  78.9134680 144.1620930
  93.1489990  78.3776350 145.5348560  93.5706410  78.2116220 146.3779950
  93.2740830  77.5676580 145.0403700  95.6617630  77.4013960 142.7825660
  96.1823290  76.6862980 142.4166810  96.3086030  78.0399830 143.0826170
  92.0448890  74.4509580 142.4806720  91.8437950  73.5876940 142.8420060
  91.8740940  74.3642940 141.5428320  99.5237200  69.2617810 145.0093600
  99.8039490  68.4185710 145.3653020  98.7502930  69.4940920 145.5232350
  90.8431690  71.5510200 142.4684600  91.1457590  71.5577630 141.5603750
  91.5826280  71.2008060 142.9652260  94.0616620  70.4944820 143.4540800
  93.7138620  69.8168810 142.8743250  94.2629390  70.0334330 144.2684190
  96.2265660  85.4825570 145.0727400  97.1216450  85.8210540 145.0946160
  96.2583290  84.7604980 144.4451680  89.8661820  80.8552620 143.3014400
  90.3036690  81.3982290 143.9571980  90.3509550  80.0299570 143.3110740
  87.0807620  83.6441650 150.7534660  87.4110630  82.7762710 150.5213300
  87.5098620  83.8500170 151.5839620  91.6769540  81.9750660 148.4136630
  91.3765080  81.8515630 149.3140540  91.5707030  81.1159250 148.0052360
 104.4461460  81.7547060 143.1163310 103.6154420  81.8223710 143.5870540
 104.6233290  82.6451180 142.8130170 103.9017920  78.4994540 145.6197510
 104.6636830  79.0691190 145.7257200 103.9172290  77.9321740 146.3905820
  87.4022260  77.0232470 149.8505170  86.7471100  76.7544110 149.2064870
  88.2400210  76.9136950 149.4007150 104.9077890  79.3544640 150.4639440
 105.2786720  78.5711960 150.0575410 105.5479820  80.0433740 150.2856740
 103.9537090  78.7928910 142.7770030 104.2285930  79.7007790 142.6489250
 103.7647830  78.7291440 143.7132020 100.3512700  71.8173760 144.0723660
 100.7697580  71.6304740 143.2320320 100.0448760  70.9652810 144.3826590
 103.8502430  76.7297900 147.7699460 103.4746030  75.9625830 147.3380750
 103.1205550  77.1120600 148.2574390  86.6160340  74.2331400 145.7930500
  85.7124420  74.4961600 145.6182160  87.1000960  74.5042570 145.0130460
  89.1587550  73.2896940 143.7024880  89.8679250  72.8680160 143.2172160
  88.4427490  73.3572170 143.0708230  88.8061710  69.3436270 142.7427530
  89.5289840  69.8845210 143.0608750  89.0786230  69.0699690 141.8669070
 102.6153360  74.2128740 147.0099110 103.1112480  73.9799610 147.7947990
 102.4169430  73.3740580 146.5936750 104.0440520  72.8489690 149.5436790
 103.9339800  72.6945730 150.4819060 104.8048110  72.3210630 149.3012200
 104.9330790  70.6797610 142.7842930 105.8580100  70.5478790 142.5761220
 104.9106580  70.7590430 143.7379380 105.0069280  71.4508270 145.4099640
 104.2120780  71.3853390 145.9392550 105.2112560  72.3858910 145.3984990
 101.9487700  85.4899820 149.4038030 102.5446770  85.1684390 148.7272450
 102.2065850  85.0171640 150.1951300 103.3027780  69.4120390 149.8707290
 103.2416180  68.4681610 149.7238310 104.0819810  69.5200480 150.4160750
  87.6080530  85.5512750 148.8331240  87.4402570  84.9183430 149.5313130
  86.7415040  85.7572150 148.4825430  88.2308550  69.3829530 146.3363100
  88.9887910  69.4958410 145.7627130  87.7685720  70.2198730 146.2906530
  94.7722360  71.4968800 149.3265410  93.9596870  71.1225690 148.9861290
  95.2764000  70.7413880 149.6286600  99.2747340  68.1611250 150.5648480
  99.8776710  68.7331460 151.0397000  98.5340330  68.7250690 150.3422380
 102.4181940  68.5632810 145.8388760 102.6132570  69.4616260 146.1056190
 101.6311810  68.3319890 146.3321710  89.2143230  84.2445980 146.2781380
  88.6890850  84.6254010 145.5743340  89.1387810  84.8696750 146.9991090
  90.6033700  69.9093580 144.8765070  91.1326460  69.1223380 144.7473020
  91.2362020  70.5884770 145.1100600  92.7971540  69.6468720 147.9310460
  92.1674280  68.9456030 148.0980590  92.2576680  70.4072850 147.7143620
 103.9708550  85.8033520 147.5995320 104.1460740  85.1171260 146.9556240
 103.2730120  86.3280570 147.2071990  91.8136200  86.1928360 145.1530630
  92.5455020  85.9087640 144.6054520  92.0729870  85.9541640 146.0430010
  90.9750990  82.3093090 145.1576960  90.3459870  82.7778190 145.7062790
  91.0898820  81.4642310 145.5923150  98.4300710  76.3598750 131.3078160
  98.3494760  75.4453360 131.0369870  98.0165130  76.8565820 130.6017870
  96.5618750  78.1377770 133.1887430  95.7860850  77.6578210 133.4786000
  97.2131680  77.4583420 133.0143590  90.5585840  82.4837670 134.2621210
  90.8613880  81.5935410 134.0831430  91.3029430  83.0407890 134.0343460
  88.1934410  71.4189480 135.5214210  88.0137250  70.5215230 135.8016970
  87.7914490  71.9661350 136.1961160  97.0332910  73.6205340 133.4226520
  97.4097730  72.7477220 133.3100190  96.9352420  73.9564040 132.5316960
  91.1637920  71.9930970 128.8843960  91.2704670  72.8934700 129.1912720
  90.2530280  71.9448940 128.5938610 100.8157030  71.1155780 130.3554860
 101.6366650  70.6252350 130.3980340 100.8491110  71.7053440 131.1086700
  93.0045650  74.9617340 133.2169140  93.5123870  75.4598310 133.8574160
  93.5358890  74.1852540 133.0408500 105.1056580  73.1322530 136.9198490
 104.4008750  73.5204240 136.4013600 105.3714500  73.8272820 137.5219420
  91.2881750  69.6015900 137.4832560  91.2900190  70.1188290 136.6778460
  90.4586060  69.1246080 137.4602490  97.6752840  79.7135210 128.9822460
  97.0570110  80.1784660 128.4185180  98.1876090  80.4062690 129.3991970
  92.5384600  79.2411080 135.6606060  92.2053980  79.8680000 136.3027130
  92.7151280  79.7672960 134.8807730  90.9697080  71.3125860 135.4903010
  91.3113890  72.1567910 135.1956880  90.0312890  71.4609600 135.6068350
  91.7503700  81.2091880 137.4755240  92.3677700  81.8842960 137.1939690
  90.8896820  81.6179860 137.3842740 102.6681290  82.6731290 135.3909880
 101.9844810  83.3430400 135.3826550 103.2075580  82.8711940 134.6254740
 101.4985450  81.2391640 129.1945230 101.3881780  80.2965970 129.3194650
 101.4953700  81.6007280 130.0807990  99.6025470  79.4205260 135.4337670
 100.0194260  79.2065370 134.5991130 100.3265290  79.6778050 136.0046290
  97.0405730  76.8656960 128.5507720  96.1135010  76.7994340 128.7796190
  97.1930550  77.8037090 128.4362960  97.0274810  73.1373960 125.5474880
  96.0878480  73.2987920 125.6327340  97.3458070  73.8559640 125.0010870
 103.5487570  77.8192480 135.5253910 102.7206200  77.8885570 135.0504040
 104.1438050  78.4046790 135.0569740 101.0703020  78.4277260 129.0542970
 100.4515440  78.0896810 128.4069270 101.0527470  77.7837020 129.7622160
 100.5129580  74.6061800 136.4708780 100.1000760  75.4315510 136.7248770
  99.7805530  74.0206840 136.2785140  93.1144070  81.0789260 133.4966660
  92.8172360  80.4734730 132.8174440  94.0643890  81.1166570 133.3856020
  91.3590990  74.1664910 135.1126490  91.9105580  74.2760250 134.3379740
  91.8734500  74.5402510 135.8281720 101.2029680  84.6521130 137.1589760
 100.7260240  85.4593320 136.9662370 100.5191470  83.9999460 137.3115970
  92.2062500  80.8170950 140.1474460  91.3091030  81.0410920 140.3947860
  92.2315370  80.9405890 139.1985860  99.2467720  77.6664070 126.0615720
  99.6861000  76.8286500 125.9153540  99.9596140  78.2993470 126.1479860
  91.0333720  77.6884270 138.7231830  90.8941490  78.5607070 139.0919230
  90.1515080  77.3457080 138.5779770  97.3563100  82.6060140 130.0296960
  97.7959010  83.3484470 129.6152350  97.2949990  82.8486710 130.9535920
  92.8314070  83.6305970 140.9316980  92.8029500  84.0348920 140.0645410
  92.6679040  82.7016330 140.7688580 102.8284860  68.9206880 124.3756760
 102.5157520  69.0133710 125.2755830 103.5897330  69.4987910 124.3254190
 104.7828890  84.4133070 142.2281150 105.2588610  84.8915960 142.9070230
 105.4036050  84.3450560 141.5026650 104.1862140  81.6045920 139.3881160
 104.3125200  81.3657800 138.4698340 104.2283520  80.7730460 139.8603240
  99.7259410  83.1016820 125.9457970  99.0324570  83.0994110 125.2860250
 100.4682270  82.6776140 125.5152140  99.2909340  84.7279530 130.0206460
  99.7466290  83.9468910 130.3345080  99.6301860  85.4386350 130.5647640
 104.0386150  73.6578380 140.3530900 103.4230420  74.1658050 139.8246360
 103.7182570  72.7576710 140.2956840  87.0411890  80.4995990 137.1797200
  87.2042930  80.0301350 136.3616570  87.5064340  79.9919550 137.8446040
  96.1000470  72.4970270 137.8193090  95.6379840  72.7053290 138.6313030
  95.6978580  71.6829620 137.5163760 101.1004980  73.7179220 138.9489750
 100.2498570  73.4184970 139.2698820 100.9406770  73.9621230 138.0373570
  98.1954690  75.2180970 141.0488540  98.5208100  74.3844720 140.7090770
  98.9835020  75.7409490 141.1966870  93.8506560  70.1749080 134.0747370
  94.1478890  71.0811910 133.9939390  94.3992120  69.6867860 133.4606940
  98.8342640  74.7598690 128.5429670  98.2351530  75.4834490 128.3593290
  99.3822250  74.6975470 127.7606120  94.0444090  75.6520900 140.6099290
  93.9487690  74.7115630 140.4599690  94.8876070  75.8735970 140.2147360
  97.4407510  73.3962230 130.5732950  97.8337080  73.7134430 129.7601640
  97.8024360  72.5174110 130.6877470  89.1754630  72.0634570 138.7633070
  88.7818020  72.9109780 138.9705850  88.4873030  71.4260940 138.9541710
  95.7499680  72.1469540 141.8329810  95.0598000  71.9541740 142.4675900
  96.4931980  72.4304180 142.3654110  98.0262650  75.9867980 134.6683730
  97.2943770  76.4954790 135.0173830  97.6286990  75.1697960 134.3672510
  94.4640040  72.6622180 133.0736220  94.4676100  72.2212130 132.2240760
  95.3591160  72.9839510 133.1808040  90.3142420  72.5448670 132.0330430
  89.9742470  73.0223900 132.7897480  89.5519740  72.0913790 131.6731530
  94.5260190  73.6634260 126.0642980  94.6473010  73.6220740 127.0128800
  94.1408700  74.5258410 125.9089710  98.4888560  71.4401660 134.0806670
  98.5061300  71.8910310 134.9248520  98.2404140  70.5407300 134.2940110
  93.5381690  75.9735400 125.4626280  92.9698590  75.5253650 124.8362190
  94.2470690  76.3328180 124.9291430 101.9159310  68.8533840 139.9193050
 102.2405080  68.1223500 140.4451030 101.9515820  68.5347480 139.0174040
  88.6150870  79.8747420 139.3393010  88.2305660  79.2341090 139.9375970
  88.9263060  80.5783540 139.9087740  94.7648010  76.7223960 134.8201630
  95.1318140  76.2482530 135.5662970  94.5753070  77.5965530 135.1609970
  92.5547380  75.7632600 137.1385840  92.2504450  76.6424580 137.3636200
  93.5093840  75.8232390 137.1743280  91.0829170  79.9693590 127.7352690
  90.3091430  79.4291210 127.5751410  91.8123800  79.4500200 127.3970450
 101.8417150  78.9658950 133.5279080 102.5616270  79.4614240 133.1375190
 101.6398970  78.2876840 132.8832950  97.2235950  79.0368010 139.4148080
  97.1573260  78.1163680 139.1605670  96.5941090  79.1343450 140.1292720
 100.0175480  74.7316560 125.9670630 100.9055100  75.0433790 125.7921970
  99.9880570  73.8588810 125.5751210  88.6111110  76.6035340 138.2857200
  88.2526050  77.2689190 138.8730540  88.3165670  75.7718890 138.6569820
  91.8124230  77.0619580 141.1696750  91.5124370  77.2076760 140.2724570
  92.5835470  76.5024870 141.0770140 103.3663890  78.4995920 138.5120460
 102.6412080  79.0924700 138.3149850 103.8939350  78.4919460 137.7133830
  98.8963480  80.2256090 132.0104310  99.2487300  79.6284220 131.3505680
  98.0125810  79.9000320 132.1812560  94.2853970  77.9899810 129.0300080
  94.7416750  78.8005060 129.2560270  93.9342180  77.6722950 129.8618570
 101.7074380  81.7887120 124.7008970 101.4811960  81.0717560 125.2933610
 101.3170580  81.5399560 123.8630720  87.4890410  85.8153980 125.4753430
  87.8488050  86.4143320 124.8210700  87.3482750  86.3613870 126.2488460
  87.1859680  70.0928580 138.9629300  86.4718200  70.2925500 139.5681910
  87.6054720  69.3168150 139.3344100 101.2890630  79.7059060 126.3623130
 101.0012330  80.1671750 127.1501010 102.0842800  79.2456830 126.6307350
  87.4732270  84.0808840 139.9495830  87.5823390  83.1403580 139.8091220
  86.8212830  84.3463590 139.3009560  95.4644860  82.3524730 141.3493950
  95.1441730  81.6333970 141.8939640  94.7903220  83.0279800 141.4230010
  89.1065670  78.4200070 127.0373860  88.4993620  79.1598970 127.0469160
  89.5815020  78.5099430 126.2112060  98.6798460  72.5850890 136.7130750
  99.0479280  71.7646100 137.0410320  97.8196660  72.6452780 137.1286400
 102.0460490  71.5407830 127.5218310 101.4173650  71.6453500 126.8076540
 101.5512410  71.7604610 128.3112190  94.0144520  73.8193780 128.9376190
  93.3060670  74.2880120 129.3789800  94.2989000  73.1615790 129.5721380
  95.6400450  75.2390480 136.9368720  96.1385700  75.7136300 137.6020570
  95.7823400  74.3154000 137.1438750  92.2179540  72.1278860 126.3126900
  93.0670070  72.5649010 126.2467090  91.8510810  72.4399120 127.1398960
 102.8467310  71.4558440 137.7797110 102.3440910  72.1963840 138.1190920
 103.6623970  71.8442440 137.4633900  91.1170960  78.3811220 124.7862430
  91.8834230  78.2692580 125.3487860  91.1945650  77.6849190 124.1339200
  89.8117720  75.8136290 125.4695320  89.8921310  74.8663800 125.5812720
  90.7037470  76.1443170 125.5755980  90.6132430  85.9631680 132.5729860
  91.3494910  85.4147140 132.8438430  90.9973350  86.8287690 132.4335850
  87.4977910  82.0305250 128.4471370  86.5717690  82.2726390 128.4376780
  87.9634340  82.8579510 128.3256120  89.6190710  85.1477750 141.7615440
  90.4203440  85.4689800 142.1750840  89.1042530  84.7873330 142.4835350
  98.4555340  81.2557620 141.7090850  97.8493500  81.2789220 140.9686600
  98.1509450  80.5240660 142.2458100  99.8855710  84.9837910 140.3200260
 100.8377460  84.8995930 140.2700500  99.7383930  85.6479620 140.9934050
  87.3388520  77.6351210 140.7051490  87.8427540  77.0558490 141.2767720
  86.5995940  77.9191440 141.2427860  94.3926460  79.0422200 140.2387010
  93.6272130  79.6107200 140.1541680  94.5742420  78.7498410 139.3455240
  97.4814870  79.4185430 124.8639770  96.9324970  79.8654730 125.5082510
  98.1034130  78.9134680 125.3877440 101.5349810  80.7727530 140.7962030
 102.2759280  81.1103290 140.2929490 100.7722490  80.9419590 140.2431800
  89.3711600  75.7780800 141.6001560  89.4116940  75.4794670 142.5086790
  90.2257100  76.1788410 141.4409080  93.1489990  78.3776350 126.7605070
  93.5706410  78.2116220 127.6036460  93.2740830  77.5676580 126.2660210
  91.3117410  74.3572900 139.5676050  90.7813870  73.8663850 138.9399390
  91.9805480  74.7857100 139.0333980  95.6617630  77.4013960 124.0082170
  96.1823290  76.6862980 123.6423320  96.3086030  78.0399830 124.3082680
 100.2095470  78.8242360 139.3317240 100.6236490  78.9787440 140.1807660
  99.2746470  78.9497580 139.4943020 100.6817640  76.1638520 141.3356390
 101.2638410  75.4090840 141.2476870 100.8579410  76.6945960 140.5587870
  91.7989710  71.3235270 139.6473340  91.7046580  70.7056020 138.9224210
  91.2187100  72.0501560 139.4203250  94.5651150  69.8808510 136.6800730
  94.1168450  69.9032770 135.8346280  93.9316350  69.4827530 137.2771030
  94.9710700  78.7762840 137.3013170  95.3898810  79.6195570 137.1289410
  94.0519330  78.9134880 137.0719950  97.3074600  76.5079020 138.6851010
  97.4270810  75.9120160 139.4245850  98.1668600  76.5448710 138.2652310
  99.6462500  77.0616210 137.2613520  99.1197720  77.5858830 136.6578660
  99.9893840  77.6943600 137.8923250  92.0448890  74.4509580 123.7063230
  91.8437950  73.5876940 124.0676570  91.8740940  74.3642940 122.7684830
  92.8218120  85.0815850 138.4170900  92.2839210  85.8061910 138.0979600
  93.0752080  84.6046190 137.6268240  94.0743370  73.0500370 139.9426830
  94.6643060  72.7416220 140.6304650  93.2563610  72.5780120 140.0986730
  98.8936800  72.6666180 140.1759850  98.2052320  72.0047720 140.1109840
  99.6142820  72.2204450 140.6208310  99.5237200  69.2617810 126.2350110
  99.8039490  68.4185710 126.5909530  98.7502930  69.4940920 126.7488860
  90.8431690  71.5510200 123.6941110  91.1457590  71.5577630 122.7860260
  91.5826280  71.2008060 124.1908770  94.0616620  70.4944820 124.6797310
  93.7138620  69.8168810 124.0999760  94.2629390  70.0334330 125.4940700
  89.8661820  80.8552620 124.5270910  90.3036690  81.3982290 125.1828490
  90.3509550  80.0299570 124.5367250  87.0807620  83.6441650 131.9791170
  87.4110630  82.7762710 131.7469810  87.5098620  83.8500170 132.8096130
  91.6769540  81.9750660 129.6393140  91.3765080  81.8515630 130.5397050
  91.5707030  81.1159250 129.2308870  87.5697830  84.5112240 134.7172800
  87.1328820  84.6913040 135.5496950  88.1375510  85.2686860 134.5754520
 103.2060010  84.0129240 139.0050110 102.6062000  84.0721800 138.2614030
 103.3353910  83.0734220 139.1346960 104.4461460  81.7547060 124.3419820
 103.6154420  81.8223710 124.8127050 104.6233290  82.6451180 124.0386680
 101.8911650  80.7381220 137.1026270 101.0771490  81.1678380 137.3652060
 102.2985850  81.3499630 136.4895320 103.9537090  78.7928910 124.0026540
 104.2285930  79.7007790 123.8745760 103.7647830  78.7291440 124.9388530
 100.3512700  71.8173760 125.2980170 100.7697580  71.6304740 124.4576830
 100.0448760  70.9652810 125.6083100 103.2402050  75.8769420 138.6295490
 103.0088140  75.6482170 137.7293440 103.5006600  76.7968970 138.5840380
  87.9914190  74.3194130 139.5223440  87.0970240  74.2860890 139.8617150
  88.5311740  74.5180920 140.2874690 101.6790120  71.1025850 141.4075190
 102.5560300  71.1109250 141.7909190 101.6910960  70.3656690 140.7967540
 103.3043110  75.0395260 135.8182760 102.3545820  75.0058800 135.9327750
 103.4856120  75.9495370 135.5832530  88.4953900  68.5942460 133.8706660
  89.1430090  68.0439840 133.4301820  88.9155740  68.8485610 134.6922470
 102.3906240  68.7883820 137.2276300 103.0278460  69.4017960 137.5935490
 102.5381130  68.8244480 136.2825530 104.9330790  70.6797610 124.0099440
 105.8580100  70.5478790 123.8017730 104.9106580  70.7590430 124.9635890
  88.2485900  68.7498130 136.6131980  87.9000720  69.2061950 137.3790160
  87.9173600  67.8555260 136.6954410  89.8550270  81.9217730 140.7785170
  89.8119900  81.5510640 141.6599630  89.9861280  82.8595300 140.9186990
  95.7610720  69.9410010 140.1351400  95.6999610  70.5331840 140.8846810
  96.7011100  69.8335970 139.9901660  98.3985280  69.5980070 139.7743690
  99.0125690  69.9159360 139.1124770  98.9434840  69.1128660 140.3939550
 104.8160460  85.4971700 137.1805530 104.3218740  85.8940570 136.4632660
 104.2073750  84.8720910 137.5742810  88.9206540  68.2774330 139.8882750
  89.4689530  68.0962380 139.1248860  88.9861850  67.4868440 140.4239060
  89.6938300  84.8679980 137.8982950  89.0998620  84.7364680 138.6372990
  89.6862140  84.0318120 137.4325050  99.1393320  68.1612210 136.1012980
  98.2653160  68.4947320 135.8985910  99.0304070  67.6885390 136.9264850
 100.0465300  70.3683080 137.4854700  99.7178660  69.5534840 137.1056430
 100.9947600  70.3252890 137.3620390 102.4999910  86.1395120 134.4592270
 102.0402880  86.8910930 134.0850290 101.8712370  85.4201590 134.4007070
  89.3250530  82.2338360 136.8490990  88.5984590  81.6143650 136.7816940
  89.3859680  82.6278970 135.9789070 101.4389210  69.7805150 133.0854980
 101.8797300  69.7250250 132.2376580 101.1696800  70.6963160 133.1565160
 103.3027780  69.4120390 131.0963800 103.2416180  68.4681610 130.9494820
 104.0819810  69.5200480 131.6417260  87.6080530  85.5512750 130.0587750
  87.4402570  84.9183430 130.7569640  86.7415040  85.7572150 129.7081940
 102.4181940  68.5632810 127.0645270 102.6132570  69.4616260 127.3312700
 101.6311810  68.3319890 127.5578220  89.2143230  84.2445980 127.5037890
  88.6890850  84.6254010 126.7999850  89.1387810  84.8696750 128.2247600
  95.7363490  86.2607950 141.8277580  96.6630800  86.0252220 141.8713540
  95.7213920  87.0879950 141.3463610  92.9227100  68.9252700 141.5919460
  92.6411370  69.4286300 140.8280280  93.3046800  68.1274450 141.2261590
  90.9750990  82.3093090 126.3833470  90.3459870  82.7778190 126.9319300
  91.0898820  81.4642310 126.8179660  99.5242560  68.3406280 142.1699930
  99.4108010  68.6600890 143.0651450 100.3412300  68.7418790 141.8737210
 102.3041050  85.4877810 141.6518620 103.0966370  84.9927040 141.4444580
 102.5974200  86.1667950 142.2594230  90.5784580  78.4497580 115.2919700
  89.7469460  78.1946290 115.6916210  91.1865560  78.5208350 116.0277620
 100.5826180  82.5437960 113.1943070 100.1207710  81.7725200 113.5230240
 101.3951730  82.5704030 113.6995520  88.9876530  73.4099470 109.0762090
  88.0993230  73.7515440 108.9741970  89.2717720  73.2099790 108.1842920
  86.9509540  76.0105120 114.9601790  87.5225650  75.2427320 114.9605430
  86.9511080  76.3093880 114.0508400  96.8089490  84.8295970 112.8147060
  96.1900930  85.2853470 112.2441500  97.6641270  84.9847430 112.4136760
  96.0027740  80.8134960 114.4214100  95.9336020  79.8724900 114.2603230
  96.7647600  80.9036370 114.9936670  88.1934410  71.4189480 116.7470720
  88.0137250  70.5215230 117.0273480  87.7914490  71.9661350 117.4217670
  91.1637920  71.9930970 110.1100470  91.2704670  72.8934700 110.4169230
  90.2530280  71.9448940 109.8195120  88.8121080  73.9149980 115.3553060
  89.4931190  74.1788350 115.9740460  88.4969130  73.0750850 115.6891070
  91.2881750  69.6015900 118.7089070  91.2900190  70.1188290 117.9034970
  90.4586060  69.1246080 118.6859000  97.6752840  79.7135210 110.2078970
  97.0570110  80.1784660 109.6441690  98.1876090  80.4062690 110.6248480
  92.5384600  79.2411080 116.8862570  92.2053980  79.8680000 117.5283640
  92.7151280  79.7672960 116.1064240  90.9697080  71.3125860 116.7159520
  91.3113890  72.1567910 116.4213390  90.0312890  71.4609600 116.8324860
  91.7503700  81.2091880 118.7011750  92.3677700  81.8842960 118.4196200
  90.8896820  81.6179860 118.6099250 102.6681290  82.6731290 116.6166390
 101.9844810  83.3430400 116.6083060 103.2075580  82.8711940 115.8511250
  94.6524970  68.8008130 113.0404110  94.9599950  68.2455020 112.3239610
  93.7225670  68.9352590 112.8577100 100.2040030  84.5175420 115.3311570
 100.2167190  84.1137710 114.4633830  99.6515250  85.2922710 115.2273000
 101.4985450  81.2391640 110.4201740 101.3881780  80.2965970 110.5451160
 101.4953700  81.6007280 111.3064500  97.0405730  76.8656960 109.7764230
  96.1135010  76.7994340 110.0052700  97.1930550  77.8037090 109.6619470
  97.0274810  73.1373960 106.7731390  96.0878480  73.2987920 106.8583850
  97.3458070  73.8559640 106.2267380 101.0703020  78.4277260 110.2799480
 100.4515440  78.0896810 109.6325780 101.0527470  77.7837020 110.9878670
  92.6462370  77.3921700 112.5583960  92.2419370  76.6798950 112.0629860
  92.7325490  77.0474940 113.4472000  93.1144070  81.0789260 114.7223170
  92.8172360  80.4734730 114.0430950  94.0643890  81.1166570 114.6112530
  91.3590990  74.1664910 116.3383000  91.9105580  74.2760250 115.5636250
  91.8734500  74.5402510 117.0538230 101.2029680  84.6521130 118.3846270
 100.7260240  85.4593320 118.1918880 100.5191470  83.9999460 118.5372480
  92.2062500  80.8170950 121.3730970  91.3091030  81.0410920 121.6204370
  92.2315370  80.9405890 120.4242370  99.2467720  77.6664070 107.2872230
  99.6861000  76.8286500 107.1410050  99.9596140  78.2993470 107.3736370
  91.0333720  77.6884270 119.9488340  90.8941490  78.5607070 120.3175740
  90.1515080  77.3457080 119.8036280  97.3563100  82.6060140 111.2553470
  97.7959010  83.3484470 110.8408860  97.2949990  82.8486710 112.1792430
  89.3467000  76.2866680 110.0590610  89.2264600  77.0128770 109.4471880
  89.0367890  75.5169590 109.5818520 104.7828890  84.4133070 123.4537660
 105.2588610  84.8915960 124.1326740 105.4036050  84.3450560 122.7283160
  86.9852370  79.4581820 115.8659250  87.0632790  79.5930590 114.9214970
  87.5994050  78.7497710 116.0587370  88.2300000  81.1582010 112.2765430
  87.8228080  81.2996600 111.4219030  89.1213010  80.8742170 112.0736640
 104.1862140  81.6045920 120.6137670 104.3125200  81.3657800 119.6954850
 104.2283520  80.7730460 121.0859750  98.0478880  85.3073920 119.1832480
  98.5623550  85.2181930 119.9854910  97.2047960  85.6533620 119.4760390
 100.0233280  85.5929260 108.6116480  99.8634420  85.3032200 109.5098310
  99.8579990  84.8169390 108.0761710  99.7259410  83.1016820 107.1714480
  99.0324570  83.0994110 106.5116760 100.4682270  82.6776140 106.7408650
  99.2909340  84.7279530 111.2462970  99.7466290  83.9468910 111.5601590
  99.6301860  85.4386350 111.7904150  87.0411890  80.4995990 118.4053710
  87.2042930  80.0301350 117.5873080  87.5064340  79.9919550 119.0702550
  91.8130660  69.6301750 113.4414280  91.3698810  70.4111290 113.1098800
  92.3715650  69.9531640 114.1485220  98.1954690  75.2180970 122.2745050
  98.5208100  74.3844720 121.9347280  98.9835020  75.7409490 122.4223380
  94.9289480  69.2512450 108.3220110  94.3043660  69.2472320 109.0473420
  94.8419600  68.3843410 107.9256080  93.8506560  70.1749080 115.3003880
  94.1478890  71.0811910 115.2195900  94.3992120  69.6867860 114.6863450
  91.6044880  74.7535320 111.1695530  91.3785800  74.5372490 112.0742150
  90.8237410  75.1863780 110.8241500  98.8342640  74.7598690 109.7686180
  98.2351530  75.4834490 109.5849800  99.3822250  74.6975470 108.9862630
  94.0444090  75.6520900 121.8355800  93.9487690  74.7115630 121.6856200
  94.8876070  75.8735970 121.4403870  89.1754630  72.0634570 119.9889580
  88.7818020  72.9109780 120.1962360  88.4873030  71.4260940 120.1798220
  95.7499680  72.1469540 123.0586320  95.0598000  71.9541740 123.6932410
  96.4931980  72.4304180 123.5910620  86.4771680  69.9863030 114.0219660
  86.1884730  70.5565890 114.7344640  87.2217440  69.5067480 114.3850890
  90.3142420  72.5448670 113.2586940  89.9742470  73.0223900 114.0153990
  89.5519740  72.0913790 112.8988040  94.5260190  73.6634260 107.2899490
  94.6473010  73.6220740 108.2385310  94.1408700  74.5258410 107.1346220
  98.4888560  71.4401660 115.3063180  98.5061300  71.8910310 116.1505030
  98.2404140  70.5407300 115.5196620  93.5381690  75.9735400 106.6882790
  92.9698590  75.5253650 106.0618700  94.2470690  76.3328180 106.1547940
 101.9159310  68.8533840 121.1449560 102.2405080  68.1223500 121.6707540
 101.9515820  68.5347480 120.2430550  87.6288500  71.4667650 112.1751610
  87.3435420  71.1023320 113.0130230  87.5667360  70.7348110 111.5614750
 101.8417150  78.9658950 114.7535590 102.5616270  79.4614240 114.3631700
 101.6398970  78.2876840 114.1089460  97.2235950  79.0368010 120.6404590
  97.1573260  78.1163680 120.3862180  96.5941090  79.1343450 121.3549230
 100.0175480  74.7316560 107.1927140 100.9055100  75.0433790 107.0178480
  99.9880570  73.8588810 106.8007720  91.1266570  79.6373970 112.5988010
  91.6445240  78.8342230 112.5444900  90.6750590  79.5753110 113.4404840
  96.0136070  80.9040250 107.8715310  96.3551770  81.6482480 107.3758630
  95.1848780  81.2171370 108.2340140  91.8124230  77.0619580 122.3953260
  91.5124370  77.2076760 121.4981080  92.5835470  76.5024870 122.3026650
  97.1552680  81.8588580 120.3908390  97.1697220  80.9269540 120.1727300
  96.4477780  81.9448340 121.0298160 102.2889750  76.0428400 106.6607000
 102.2053470  76.4742620 105.8103440 103.0083940  76.5026750 107.0933820
 103.3177000  82.8970660 109.3889130 102.6753160  82.2426280 109.6632850
 102.9307660  83.3025750 108.6129800  98.8963480  80.2256090 113.2360820
  99.2487300  79.6284220 112.5762190  98.0125810  79.9000320 113.4069070
  94.9826760  80.9853780 110.6431230  95.6697890  81.5322990 111.0238820
  94.1959180  81.5294510 110.6780840  94.2853970  77.9899810 110.2556590
  94.7416750  78.8005060 110.4816780  93.9342180  77.6722950 111.0875080
  96.5886580  83.5006150 117.4848890  97.2328800  83.7065530 118.1622310
  96.9516020  82.7394550 117.0319740  90.1865750  68.3337460 110.7279110
  90.0580380  68.3255360 111.6764030  89.3627770  68.6720550 110.3770120
  97.8618660  81.5038500 116.2026340  98.5040890  80.8031660 116.3158510
  98.3868010  82.2836940 116.0223230 101.7074380  81.7887120 105.9265480
 101.4811960  81.0717560 106.5190120 101.3170580  81.5399560 105.0887230
  99.6356280  82.3033400 119.4062400  99.9712520  82.8900090 120.0840320
  98.7156620  82.1726110 119.6360190 101.2890630  79.7059060 107.5879640
 101.0012330  80.1671750 108.3757520 102.0842800  79.2456830 107.8563860
  87.4732270  84.0808840 121.1752340  87.5823390  83.1403580 121.0347730
  86.8212830  84.3463590 120.5266070  96.4918630  83.2613420 106.1808800
  96.5930610  83.0577410 105.2510780  95.5920370  83.0071700 106.3856580
  94.0144520  73.8193780 110.1632700  93.3060670  74.2880120 110.6046310
  94.2989000  73.1615790 110.7977890  98.0459950  70.5444440 111.6028490
  97.9227730  70.5630570 110.6538000  98.9944510  70.5923380 111.7226890
  95.1336740  85.7799740 110.8756470  95.3878240  85.7421130 109.9535840
  94.1849220  85.6533070 110.8684720  92.2179540  72.1278860 107.5383410
  93.0670070  72.5649010 107.4723600  91.8510810  72.4399120 108.3655470
 101.1389320  76.6991620 112.4514980 100.1979460  76.7141850 112.6262670
 101.4533390  75.9127580 112.8975280 103.1414900  83.8700470 114.1269240
 103.2662320  84.6931640 114.5993050 104.0080460  83.6591200 113.7793390
  89.6190710  85.1477750 122.9871950  90.4203440  85.4689800 123.4007350
  89.1042530  84.7873330 123.7091860  98.4555340  81.2557620 122.9347360
  97.8493500  81.2789220 122.1943110  98.1509450  80.5240660 123.4714610
  99.8855710  84.9837910 121.5456770 100.8377460  84.8995930 121.4957010
  99.7383930  85.6479620 122.2190560 102.7764910  84.3632120 107.0448680
 102.4906420  83.9497260 106.2302860 102.5784460  85.2919830 106.9249200
  94.3926460  79.0422200 121.4643520  93.6272130  79.6107200 121.3798190
  94.5742420  78.7498410 120.5711750  97.4814870  79.4185430 106.0896280
  96.9324970  79.8654730 106.7339020  98.1034130  78.9134680 106.6133950
 101.5349810  80.7727530 122.0218540 102.2759280  81.1103290 121.5186000
 100.7722490  80.9419590 121.4688310  93.1489990  78.3776350 107.9861580
  93.5706410  78.2116220 108.8292970  93.2740830  77.5676580 107.4916720
  91.3117410  74.3572900 120.7932560  90.7813870  73.8663850 120.1655900
  91.9805480  74.7857100 120.2590490  95.6617630  77.4013960 105.2338680
  96.1823290  76.6862980 104.8679830  96.3086030  78.0399830 105.5339190
  91.7989710  71.3235270 120.8729850  91.7046580  70.7056020 120.1480720
  91.2187100  72.0501560 120.6459760  94.5651150  69.8808510 117.9057240
  94.1168450  69.9032770 117.0602790  93.9316350  69.4827530 118.5027540
  94.9710700  78.7762840 118.5269680  95.3898810  79.6195570 118.3545920
  94.0519330  78.9134880 118.2976460  92.0448890  74.4509580 104.9319740
  91.8437950  73.5876940 105.2933080  91.8740940  74.3642940 103.9941340
  94.0743370  73.0500370 121.1683340  94.6643060  72.7416220 121.8561160
  93.2563610  72.5780120 121.3243240  98.8936800  72.6666180 121.4016360
  98.2052320  72.0047720 121.3366350  99.6142820  72.2204450 121.8464820
  90.8431690  71.5510200 104.9197620  91.1457590  71.5577630 104.0116770
  91.5826280  71.2008060 105.4165280  95.6780330  86.3167060 119.9014060
  95.6039030  87.2202200 120.2086430  94.7759170  85.9978960 119.8736130
  94.0616620  70.4944820 105.9053820  93.7138620  69.8168810 105.3256270
  94.2629390  70.0334330 106.7197210  87.0807620  83.6441650 113.2047680
  87.4110630  82.7762710 112.9726320  87.5098620  83.8500170 114.0352640
  87.5697830  84.5112240 115.9429310  87.1328820  84.6913040 116.7753460
  88.1375510  85.2686860 115.8011030 103.2060010  84.0129240 120.2306620
 102.6062000  84.0721800 119.4870540 103.3353910  83.0734220 120.3603470
 103.9017920  78.4994540 108.0710530 104.6636830  79.0691190 108.1770220
 103.9172290  77.9321740 108.8418840  87.4022260  77.0232470 112.3018190
  86.7471100  76.7544110 111.6577890  88.2400210  76.9136950 111.8520170
 104.9077890  79.3544640 112.9152460 105.2786720  78.5711960 112.5088430
 105.5479820  80.0433740 112.7369760 103.9537090  78.7928910 105.2283050
 104.2285930  79.7007790 105.1002270 103.7647830  78.7291440 106.1645040
 103.8502430  76.7297900 110.2212480 103.4746030  75.9625830 109.7893770
 103.1205550  77.1120600 110.7087410  88.4398190  77.4085040 116.8421530
  88.8071230  77.3212440 117.7217550  87.8709010  76.6451590 116.7428390
 101.6790120  71.1025850 122.6331700 102.5560300  71.1109250 123.0165700
 101.6910960  70.3656690 122.0224050  89.1587550  73.2896940 106.1537900
  89.8679250  72.8680160 105.6685180  88.4427490  73.3572170 105.5221250
  88.8061710  69.3436270 105.1940550  89.5289840  69.8845210 105.5121770
  89.0786230  69.0699690 104.3182090  88.4953900  68.5942460 115.0963170
  89.1430090  68.0439840 114.6558330  88.9155740  68.8485610 115.9178980
 102.3906240  68.7883820 118.4532810 103.0278460  69.4017960 118.8192000
 102.5381130  68.8244480 117.5082040 104.9330790  70.6797610 105.2355950
 105.8580100  70.5478790 105.0274240 104.9106580  70.7590430 106.1892400
 101.9487700  85.4899820 111.8551050 102.5446770  85.1684390 111.1785470
 102.2065850  85.0171640 112.6464320  88.2485900  68.7498130 117.8388490
  87.9000720  69.2061950 118.6046670  87.9173600  67.8555260 117.9210920
  89.8550270  81.9217730 122.0041680  89.8119900  81.5510640 122.8856140
  89.9861280  82.8595300 122.1443500  93.5556300  83.4777320 117.6051400
  93.3147660  83.7451880 116.7181920  94.4958940  83.6483050 117.6602260
  95.7610720  69.9410010 121.3607910  95.6999610  70.5331840 122.1103320
  96.7011100  69.8335970 121.2158170  98.3985280  69.5980070 121.0000200
  99.0125690  69.9159360 120.3381280  98.9434840  69.1128660 121.6196060
  88.9206540  68.2774330 121.1139260  89.4689530  68.0962380 120.3505370
  88.9861850  67.4868440 121.6495570  99.1393320  68.1612210 117.3269490
  98.2653160  68.4947320 117.1242420  99.0304070  67.6885390 118.1521360
 100.0465300  70.3683080 118.7111210  99.7178660  69.5534840 118.3312940
 100.9947600  70.3252890 118.5876900  89.3250530  82.2338360 118.0747500
  88.5984590  81.6143650 118.0073450  89.3859680  82.6278970 117.2045580
  95.6691130  85.3391850 115.6865890  95.9568940  85.0846150 114.8098900
  96.1814350  84.7869210 116.2771460  96.8868140  69.0782050 116.2662400
  96.1039930  69.5527550 116.5459160  96.5931070  68.1736880 116.1575580
  88.2308550  69.3829530 108.7876120  88.9887910  69.4958410 108.2140150
  87.7685720  70.2198730 108.7419550  94.7722360  71.4968800 111.7778430
  93.9596870  71.1225690 111.4374310  95.2764000  70.7413880 112.0799620
  99.2747340  68.1611250 113.0161500  99.8776710  68.7331460 113.4910020
  98.5340330  68.7250690 112.7935400  90.6033700  69.9093580 107.3278090
  91.1326460  69.1223380 107.1986040  91.2362020  70.5884770 107.5613620
  92.7971540  69.6468720 110.3823480  92.1674280  68.9456030 110.5493610
  92.2576680  70.4072850 110.1656640 103.9708550  85.8033520 110.0508340
 104.1460740  85.1171260 109.4069260 103.2730120  86.3280570 109.6585010
  92.9227100  68.9252700 122.8175970  92.6411370  69.4286300 122.0536790
  93.3046800  68.1274450 122.4518100  99.5242560  68.3406280 123.3956440
  99.4108010  68.6600890 124.2907960 100.3412300  68.7418790 123.0993720
 102.3041050  85.4877810 122.8775130 103.0966370  84.9927040 122.6701090
 102.5974200  86.1667950 123.4850740  98.4300710  76.3598750  93.7591180
  98.3494760  75.4453360  93.4882890  98.0165130  76.8565820  93.0530890
 100.5826180  82.5437960  94.4199580 100.1207710  81.7725200  94.7486750
 101.3951730  82.5704030  94.9252030  96.8089490  84.8295970  94.0403570
  96.1900930  85.2853470  93.4698010  97.6641270  84.9847430  93.6393270
 100.8157030  71.1155780  92.8067880 101.6366650  70.6252350  92.8493360
 100.8491110  71.7053440  93.5599720 105.1056580  73.1322530  99.3711510
 104.4008750  73.5204240  98.8526620 105.3714500  73.8272820  99.9732440
  91.2881750  69.6015900  99.9345580  91.2900190  70.1188290  99.1291480
  90.4586060  69.1246080  99.9115510  97.6752840  79.7135210  91.4335480
  97.0570110  80.1784660  90.8698200  98.1876090  80.4062690  91.8504990
 101.0518510  73.0556160  95.5795420 100.3474080  73.3441050  96.1598530
 101.4130670  73.8656270  95.2194980 102.6681290  82.6731290  97.8422900
 101.9844810  83.3430400  97.8339570 103.2075580  82.8711940  97.0767760
 104.1205430  72.5010950  95.9704630 103.1730340  72.5349930  96.1020060
 104.4455420  73.3149900  96.3553990 100.2040030  84.5175420  96.5568080
 100.2167190  84.1137710  95.6890340  99.6515250  85.2922710  96.4529510
 101.4985450  81.2391640  91.6458250 101.3881780  80.2965970  91.7707670
 101.4953700  81.6007280  92.5321010  99.6025470  79.4205260  97.8850690
 100.0194260  79.2065370  97.0504150 100.3265290  79.6778050  98.4559310
  97.0405730  76.8656960  91.0020740  96.1135010  76.7994340  91.2309210
  97.1930550  77.8037090  90.8875980 103.5487570  77.8192480  97.9766930
 102.7206200  77.8885570  97.5017060 104.1438050  78.4046790  97.5082760
 101.0703020  78.4277260  91.5055990 100.4515440  78.0896810  90.8582290
 101.0527470  77.7837020  92.2135180 100.5129580  74.6061800  98.9221800
 100.1000760  75.4315510  99.1761790  99.7805530  74.0206840  98.7298160
 101.2029680  84.6521130  99.6102780 100.7260240  85.4593320  99.4175390
 100.5191470  83.9999460  99.7628990  99.2467720  77.6664070  88.5128740
  99.6861000  76.8286500  88.3666560  99.9596140  78.2993470  88.5992880
  97.3563100  82.6060140  92.4809980  97.7959010  83.3484470  92.0665370
  97.2949990  82.8486710  93.4048940 102.8284860  68.9206880  86.8269780
 102.5157520  69.0133710  87.7268850 103.5897330  69.4987910  86.7767210
  98.0478880  85.3073920 100.4088990  98.5623550  85.2181930 101.2111420
  97.2047960  85.6533620 100.7016900 100.0233280  85.5929260  89.8372990
  99.8634420  85.3032200  90.7354820  99.8579990  84.8169390  89.3018220
  99.7259410  83.1016820  88.3970990  99.0324570  83.0994110  87.7373270
 100.4682270  82.6776140  87.9665160  99.2909340  84.7279530  92.4719480
  99.7466290  83.9468910  92.7858100  99.6301860  85.4386350  93.0160660
 104.0386150  73.6578380 102.8043920 103.4230420  74.1658050 102.2759380
 103.7182570  72.7576710 102.7469860  96.1000470  72.4970270 100.2706110
  95.6379840  72.7053290 101.0826050  95.6978580  71.6829620  99.9676780
 101.1004980  73.7179220 101.4002770 100.2498570  73.4184970 101.7211840
 100.9406770  73.9621230 100.4886590  98.1954690  75.2180970 103.5001560
  98.5208100  74.3844720 103.1603790  98.9835020  75.7409490 103.6479890
  98.8342640  74.7598690  90.9942690  98.2351530  75.4834490  90.8106310
  99.3822250  74.6975470  90.2119140  94.0444090  75.6520900 103.0612310
  93.9487690  74.7115630 102.9112710  94.8876070  75.8735970 102.6660380
  95.7499680  72.1469540 104.2842830  95.0598000  71.9541740 104.9188920
  96.4931980  72.4304180 104.8167130  98.0262650  75.9867980  97.1196750
  97.2943770  76.4954790  97.4686850  97.6286990  75.1697960  96.8185530
  98.4888560  71.4401660  96.5319690  98.5061300  71.8910310  97.3761540
  98.2404140  70.5407300  96.7453130  94.7648010  76.7223960  97.2714650
  95.1318140  76.2482530  98.0175990  94.5753070  77.5965530  97.6122990
 101.8417150  78.9658950  95.9792100 102.5616270  79.4614240  95.5888210
 101.6398970  78.2876840  95.3345970  97.2235950  79.0368010 101.8661100
  97.1573260  78.1163680 101.6118690  96.5941090  79.1343450 102.5805740
 100.0175480  74.7316560  88.4183650 100.9055100  75.0433790  88.2434990
  99.9880570  73.8588810  88.0264230  96.0136070  80.9040250  89.0971820
  96.3551770  81.6482480  88.6015140  95.1848780  81.2171370  89.4596650
  97.1552680  81.8588580 101.6164900  97.1697220  80.9269540 101.3983810
  96.4477780  81.9448340 102.2554670 102.2889750  76.0428400  87.8863510
 102.2053470  76.4742620  87.0359950 103.0083940  76.5026750  88.3190330
 103.3663890  78.4995920 100.9633480 102.6412080  79.0924700 100.7662870
 103.8939350  78.4919460 100.1646850 103.3177000  82.8970660  90.6145640
 102.6753160  82.2426280  90.8889360 102.9307660  83.3025750  89.8386310
  98.8963480  80.2256090  94.4617330  99.2487300  79.6284220  93.8018700
  98.0125810  79.9000320  94.6325580  96.5886580  83.5006150  98.7105400
  97.2328800  83.7065530  99.3878820  96.9516020  82.7394550  98.2576250
  97.8618660  81.5038500  97.4282850  98.5040890  80.8031660  97.5415020
  98.3868010  82.2836940  97.2479740 101.7074380  81.7887120  87.1521990
 101.4811960  81.0717560  87.7446630 101.3170580  81.5399560  86.3143740
  99.6356280  82.3033400 100.6318910  99.9712520  82.8900090 101.3096830
  98.7156620  82.1726110 100.8616700 101.2890630  79.7059060  88.8136150
 101.0012330  80.1671750  89.6014030 102.0842800  79.2456830  89.0820370
  95.4644860  82.3524730 103.8006970  95.1441730  81.6333970 104.3452660
  94.7903220  83.0279800 103.8743030  98.6798460  72.5850890  99.1643770
  99.0479280  71.7646100  99.4923340  97.8196660  72.6452780  99.5799420
 102.0460490  71.5407830  89.9731330 101.4173650  71.6453500  89.2589560
 101.5512410  71.7604610  90.7625210  96.4918630  83.2613420  87.4065310
  96.5930610  83.0577410  86.4767290  95.5920370  83.0071700  87.6113090
  95.6400450  75.2390480  99.3881740  96.1385700  75.7136300 100.0533590
  95.7823400  74.3154000  99.5951770  98.0459950  70.5444440  92.8285000
  97.9227730  70.5630570  91.8794510  98.9944510  70.5923380  92.9483400
  95.1336740  85.7799740  92.1012980  95.3878240  85.7421130  91.1792350
  94.1849220  85.6533070  92.0941230 102.8467310  71.4558440 100.2310130
 102.3440910  72.1963840 100.5703940 103.6623970  71.8442440  99.9146920
 101.1389320  76.6991620  93.6771490 100.1979460  76.7141850  93.8519180
 101.4533390  75.9127580  94.1231790 103.1414900  83.8700470  95.3525750
 103.2662320  84.6931640  95.8249560 104.0080460  83.6591200  95.0049900
  98.4555340  81.2557620 104.1603870  97.8493500  81.2789220 103.4199620
  98.1509450  80.5240660 104.6971120  99.8855710  84.9837910 102.7713280
 100.8377460  84.8995930 102.7213520  99.7383930  85.6479620 103.4447070
 102.7764910  84.3632120  88.2705190 102.4906420  83.9497260  87.4559370
 102.5784460  85.2919830  88.1505710  94.3926460  79.0422200 102.6900030
  93.6272130  79.6107200 102.6054700  94.5742420  78.7498410 101.7968260
  97.4814870  79.4185430  87.3152790  96.9324970  79.8654730  87.9595530
  98.1034130  78.9134680  87.8390460 101.5349810  80.7727530 103.2475050
 102.2759280  81.1103290 102.7442510 100.7722490  80.9419590 102.6944820
 100.2095470  78.8242360 101.7830260 100.6236490  78.9787440 102.6320680
  99.2746470  78.9497580 101.9456040 100.6817640  76.1638520 103.7869410
 101.2638410  75.4090840 103.6989890 100.8579410  76.6945960 103.0100890
  94.9710700  78.7762840  99.7526190  95.3898810  79.6195570  99.5802430
  94.0519330  78.9134880  99.5232970  97.3074600  76.5079020 101.1364030
  97.4270810  75.9120160 101.8758870  98.1668600  76.5448710 100.7165330
  99.6462500  77.0616210  99.7126540  99.1197720  77.5858830  99.1091680
  99.9893840  77.6943600 100.3436270  94.0743370  73.0500370 102.3939850
  94.6643060  72.7416220 103.0817670  93.2563610  72.5780120 102.5499750
  98.8936800  72.6666180 102.6272870  98.2052320  72.0047720 102.5622860
  99.6142820  72.2204450 103.0721330  99.5237200  69.2617810  88.6863130
  99.8039490  68.4185710  89.0422550  98.7502930  69.4940920  89.2001880
  95.6780330  86.3167060 101.1270570  95.6039030  87.2202200 101.4342940
  94.7759170  85.9978960 101.0992640 103.9017920  78.4994540  89.2967040
 104.6636830  79.0691190  89.4026730 103.9172290  77.9321740  90.0675350
 104.9077890  79.3544640  94.1408970 105.2786720  78.5711960  93.7344940
 105.5479820  80.0433740  93.9626270 101.8911650  80.7381220  99.5539290
 101.0771490  81.1678380  99.8165080 102.2985850  81.3499630  98.9408340
 103.9537090  78.7928910  86.4539560 104.2285930  79.7007790  86.3258780
 103.7647830  78.7291440  87.3901550 100.3512700  71.8173760  87.7493190
 100.7697580  71.6304740  86.9089850 100.0448760  70.9652810  88.0596120
 103.8502430  76.7297900  91.4468990 103.4746030  75.9625830  91.0150280
 103.1205550  77.1120600  91.9343920 103.2402050  75.8769420 101.0808510
 103.0088140  75.6482170 100.1806460 103.5006600  76.7968970 101.0353400
 103.1253390  74.9555390  94.7476230 103.6490870  74.4618040  94.1166400
 103.7112810  75.0905750  95.4923800 103.3043110  75.0395260  98.2695780
 102.3545820  75.0058800  98.3840770 103.4856120  75.9495370  98.0345550
 102.6153360  74.2128740  90.6868640 103.1112480  73.9799610  91.4717520
 102.4169430  73.3740580  90.2706280 104.0440520  72.8489690  93.2206320
 103.9339800  72.6945730  94.1588590 104.8048110  72.3210630  92.9781730
 102.3906240  68.7883820  99.6789320 103.0278460  69.4017960 100.0448510
 102.5381130  68.8244480  98.7338550 104.9330790  70.6797610  86.4612460
 105.8580100  70.5478790  86.2530750 104.9106580  70.7590430  87.4148910
 105.0069280  71.4508270  89.0869170 104.2120780  71.3853390  89.6162080
 105.2112560  72.3858910  89.0754520 101.9487700  85.4899820  93.0807560
 102.5446770  85.1684390  92.4041980 102.2065850  85.0171640  93.8720830
  95.7610720  69.9410010 102.5864420  95.6999610  70.5331840 103.3359830
  96.7011100  69.8335970 102.4414680  99.1393320  68.1612210  98.5526000
  98.2653160  68.4947320  98.3498930  99.0304070  67.6885390  99.3777870
 100.0465300  70.3683080  99.9367720  99.7178660  69.5534840  99.5569450
 100.9947600  70.3252890  99.8133410 102.4999910  86.1395120  96.9105290
 102.0402880  86.8910930  96.5363310 101.8712370  85.4201590  96.8520090
  95.6691130  85.3391850  96.9122400  95.9568940  85.0846150  96.0355410
  96.1814350  84.7869210  97.5027970  96.8868140  69.0782050  97.4918910
  96.1039930  69.5527550  97.7715670  96.5931070  68.1736880  97.3832090
 101.4389210  69.7805150  95.5368000 101.8797300  69.7250250  94.6889600
 101.1696800  70.6963160  95.6078180 103.3027780  69.4120390  93.5476820
 103.2416180  68.4681610  93.4007840 104.0819810  69.5200480  94.0930280
  99.2747340  68.1611250  94.2418010  99.8776710  68.7331460  94.7166530
  98.5340330  68.7250690  94.0191910 102.4181940  68.5632810  89.5158290
 102.6132570  69.4616260  89.7825720 101.6311810  68.3319890  90.0091240
  95.7363490  86.2607950 104.2790600  96.6630800  86.0252220 104.3226560
  95.7213920  87.0879950 103.7976630 103.9708550  85.8033520  91.2764850
 104.1460740  85.1171260  90.6325770 103.2730120  86.3280570  90.8841520
  92.9227100  68.9252700 104.0432480  92.6411370  69.4286300 103.2793300
  93.3046800  68.1274450 103.6774610  98.4300710  76.3598750  74.9847690
  98.3494760  75.4453360  74.7139400  98.0165130  76.8565820  74.2787400
  96.5618750  78.1377770  76.8656960  95.7860850  77.6578210  77.1555530
  97.2131680  77.4583420  76.6913120  88.9876530  73.4099470  71.5275110
  88.0993230  73.7515440  71.4254990  89.2717720  73.2099790  70.6355940
  96.8089490  84.8295970  75.2660080  96.1900930  85.2853470  74.6954520
  97.6641270  84.9847430  74.8649780  96.0027740  80.8134960  76.8727120
  95.9336020  79.8724900  76.7116250  96.7647600  80.9036370  77.4449690
  97.0332910  73.6205340  77.0996050  97.4097730  72.7477220  76.9869720
  96.9352420  73.9564040  76.2086490  91.1637920  71.9930970  72.5613490
  91.2704670  72.8934700  72.8682250  90.2530280  71.9448940  72.2708140
 100.8157030  71.1155780  74.0324390 101.6366650  70.6252350  74.0749870
 100.8491110  71.7053440  74.7856230 105.1056580  73.1322530  80.5968020
 104.4008750  73.5204240  80.0783130 105.3714500  73.8272820  81.1988950
  97.6752840  79.7135210  72.6591990  97.0570110  80.1784660  72.0954710
  98.1876090  80.4062690  73.0761500  94.6524970  68.8008130  75.4917130
  94.9599950  68.2455020  74.7752630  93.7225670  68.9352590  75.3090120
  99.6025470  79.4205260  79.1107200 100.0194260  79.2065370  78.2760660
 100.3265290  79.6778050  79.6815820  97.0274810  73.1373960  69.2244410
  96.0878480  73.2987920  69.3096870  97.3458070  73.8559640  68.6780400
 101.2029680  84.6521130  80.8359290 100.7260240  85.4593320  80.6431900
 100.5191470  83.9999460  80.9885500  99.2467720  77.6664070  69.7385250
  99.6861000  76.8286500  69.5923070  99.9596140  78.2993470  69.8249390
  97.3563100  82.6060140  73.7066490  97.7959010  83.3484470  73.2921880
  97.2949990  82.8486710  74.6305450 102.8284860  68.9206880  68.0526290
 102.5157520  69.0133710  68.9525360 103.5897330  69.4987910  68.0023720
  98.0478880  85.3073920  81.6345500  98.5623550  85.2181930  82.4367930
  97.2047960  85.6533620  81.9273410  99.7259410  83.1016820  69.6227500
  99.0324570  83.0994110  68.9629780 100.4682270  82.6776140  69.1921670
 104.0386150  73.6578380  84.0300430 103.4230420  74.1658050  83.5015890
 103.7182570  72.7576710  83.9726370  96.1000470  72.4970270  81.4962620
  95.6379840  72.7053290  82.3082560  95.6978580  71.6829620  81.1933290
 101.1004980  73.7179220  82.6259280 100.2498570  73.4184970  82.9468350
 100.9406770  73.9621230  81.7143100  98.1954690  75.2180970  84.7258070
  98.5208100  74.3844720  84.3860300  98.9835020  75.7409490  84.8736400
  94.9289480  69.2512450  70.7733130  94.3043660  69.2472320  71.4986440
  94.8419600  68.3843410  70.3769100  98.8342640  74.7598690  72.2199200
  98.2351530  75.4834490  72.0362820  99.3822250  74.6975470  71.4375650
  97.4407510  73.3962230  74.2502480  97.8337080  73.7134430  73.4371170
  97.8024360  72.5174110  74.3647000  98.0262650  75.9867980  78.3453260
  97.2943770  76.4954790  78.6943360  97.6286990  75.1697960  78.0442040
  98.4888560  71.4401660  77.7576200  98.5061300  71.8910310  78.6018050
  98.2404140  70.5407300  77.9709640 101.9159310  68.8533840  83.5962580
 102.2405080  68.1223500  84.1220560 101.9515820  68.5347480  82.6943570
  97.3027090  70.3596910  71.3478000  96.4891700  69.8610080  71.2723310
  97.1089040  71.1995160  70.9314350  97.2235950  79.0368010  83.0917610
  97.1573260  78.1163680  82.8375200  96.5941090  79.1343450  83.8062250
 100.0175480  74.7316560  69.6440160 100.9055100  75.0433790  69.4691500
  99.9880570  73.8588810  69.2520740  96.0136070  80.9040250  70.3228330
  96.3551770  81.6482480  69.8271650  95.1848780  81.2171370  70.6853160
  97.1552680  81.8588580  82.8421410  97.1697220  80.9269540  82.6240320
  96.4477780  81.9448340  83.4811180 102.2889750  76.0428400  69.1120020
 102.2053470  76.4742620  68.2616460 103.0083940  76.5026750  69.5446840
  98.8963480  80.2256090  75.6873840  99.2487300  79.6284220  75.0275210
  98.0125810  79.9000320  75.8582090  97.8618660  81.5038500  78.6539360
  98.5040890  80.8031660  78.7671530  98.3868010  82.2836940  78.4736250
 101.7074380  81.7887120  68.3778500 101.4811960  81.0717560  68.9703140
 101.3170580  81.5399560  67.5400250  99.6356280  82.3033400  81.8575420
  99.9712520  82.8900090  82.5353340  98.7156620  82.1726110  82.0873210
 101.2890630  79.7059060  70.0392660 101.0012330  80.1671750  70.8270540
 102.0842800  79.2456830  70.3076880  87.4732270  84.0808840  83.6265360
  87.5823390  83.1403580  83.4860750  86.8212830  84.3463590  82.9779090
  98.6798460  72.5850890  80.3900280  99.0479280  71.7646100  80.7179850
  97.8196660  72.6452780  80.8055930 102.0460490  71.5407830  71.1987840
 101.4173650  71.6453500  70.4846070 101.5512410  71.7604610  71.9881720
  96.4918630  83.2613420  68.6321820  96.5930610  83.0577410  67.7023800
  95.5920370  83.0071700  68.8369600  98.0459950  70.5444440  74.0541510
  97.9227730  70.5630570  73.1051020  98.9944510  70.5923380  74.1739910
  92.2179540  72.1278860  69.9896430  93.0670070  72.5649010  69.9236620
  91.8510810  72.4399120  70.8168490 102.8467310  71.4558440  81.4566640
 102.3440910  72.1963840  81.7960450 103.6623970  71.8442440  81.1403430
  98.4555340  81.2557620  85.3860380  97.8493500  81.2789220  84.6456130
  98.1509450  80.5240660  85.9227630  99.8855710  84.9837910  83.9969790
 100.8377460  84.8995930  83.9470030  99.7383930  85.6479620  84.6703580
  94.2412140  80.3565400  67.9367310  94.1362780  79.7417750  68.6628690
  94.0736360  79.8331290  67.1530320  97.4814870  79.4185430  68.5409300
  96.9324970  79.8654730  69.1852040  98.1034130  78.9134680  69.0646970
 101.5349810  80.7727530  84.4731560 102.2759280  81.1103290  83.9699020
 100.7722490  80.9419590  83.9201330  95.6617630  77.4013960  67.6851700
  96.1823290  76.6862980  67.3192850  96.3086030  78.0399830  67.9852210
 100.2095470  78.8242360  83.0086770 100.6236490  78.9787440  83.8577190
  99.2746470  78.9497580  83.1712550 100.6817640  76.1638520  85.0125920
 101.2638410  75.4090840  84.9246400 100.8579410  76.6945960  84.2357400
  94.9710700  78.7762840  80.9782700  95.3898810  79.6195570  80.8058940
  94.0519330  78.9134880  80.7489480  97.3074600  76.5079020  82.3620540
  97.4270810  75.9120160  83.1015380  98.1668600  76.5448710  81.9421840
  99.6462500  77.0616210  80.9383050  99.1197720  77.5858830  80.3348190
  99.9893840  77.6943600  81.5692780  98.8936800  72.6666180  83.8529380
  98.2052320  72.0047720  83.7879370  99.6142820  72.2204450  84.2977840
  99.5237200  69.2617810  69.9119640  99.8039490  68.4185710  70.2679060
  98.7502930  69.4940920  70.4258390  94.0616620  70.4944820  68.3566840
  93.7138620  69.8168810  67.7769290  94.2629390  70.0334330  69.1710230
 103.2060010  84.0129240  82.6819640 102.6062000  84.0721800  81.9383560
 103.3353910  83.0734220  82.8116490 104.4461460  81.7547060  68.0189350
 103.6154420  81.8223710  68.4896580 104.6233290  82.6451180  67.7156210
 101.8911650  80.7381220  80.7795800 101.0771490  81.1678380  81.0421590
 102.2985850  81.3499630  80.1664850 103.9537090  78.7928910  67.6796070
 104.2285930  79.7007790  67.5515290 103.7647830  78.7291440  68.6158060
 100.3512700  71.8173760  68.9749700 100.7697580  71.6304740  68.1346360
 100.0448760  70.9652810  69.2852630 101.6790120  71.1025850  85.0844720
 102.5560300  71.1109250  85.4678720 101.6910960  70.3656690  84.4737070
 102.6153360  74.2128740  71.9125150 103.1112480  73.9799610  72.6974030
 102.4169430  73.3740580  71.4962790 102.3906240  68.7883820  80.9045830
 103.0278460  69.4017960  81.2705020 102.5381130  68.8244480  79.9595060
 104.9330790  70.6797610  67.6868970 105.8580100  70.5478790  67.4787260
 104.9106580  70.7590430  68.6405420 105.0069280  71.4508270  70.3125680
 104.2120780  71.3853390  70.8418590 105.2112560  72.3858910  70.3011030
  98.3985280  69.5980070  83.4513220  99.0125690  69.9159360  82.7894300
  98.9434840  69.1128660  84.0709080  99.1393320  68.1612210  79.7782510
  98.2653160  68.4947320  79.5755440  99.0304070  67.6885390  80.6034380
 100.0465300  70.3683080  81.1624230  99.7178660  69.5534840  80.7825960
 100.9947600  70.3252890  81.0389920  95.6691130  85.3391850  78.1378910
  95.9568940  85.0846150  77.2611920  96.1814350  84.7869210  78.7284480
  96.8868140  69.0782050  78.7175420  96.1039930  69.5527550  78.9972180
  96.5931070  68.1736880  78.6088600 101.4389210  69.7805150  76.7624510
 101.8797300  69.7250250  75.9146110 101.1696800  70.6963160  76.8334690
 103.3027780  69.4120390  74.7733330 103.2416180  68.4681610  74.6264350
 104.0819810  69.5200480  75.3186790  88.2308550  69.3829530  71.2389140
  88.9887910  69.4958410  70.6653170  87.7685720  70.2198730  71.1932570
  94.7722360  71.4968800  74.2291450  93.9596870  71.1225690  73.8887330
  95.2764000  70.7413880  74.5312640  99.2747340  68.1611250  75.4674520
  99.8776710  68.7331460  75.9423040  98.5340330  68.7250690  75.2448420
 102.4181940  68.5632810  70.7414800 102.6132570  69.4616260  71.0082230
 101.6311810  68.3319890  71.2347750  92.7971540  69.6468720  72.8336500
  92.1674280  68.9456030  73.0006630  92.2576680  70.4072850  72.6169660
  99.5242560  68.3406280  85.8469460  99.4108010  68.6600890  86.7420980
 100.3412300  68.7418790  85.5506740 102.3041050  85.4877810  85.3288150
 103.0966370  84.9927040  85.1214110 102.5974200  86.1667950  85.9363760
  98.4300710  76.3598750  56.2104200  98.3494760  75.4453360  55.9395910
  98.0165130  76.8565820  55.5043910  96.5618750  78.1377770  58.0913470
  95.7860850  77.6578210  58.3812040  97.2131680  77.4583420  57.9169630
 100.5826180  82.5437960  56.8712600 100.1207710  81.7725200  57.1999770
 101.3951730  82.5704030  57.3765050  96.8089490  84.8295970  56.4916590
  96.1900930  85.2853470  55.9211030  97.6641270  84.9847430  56.0906290
  97.0332910  73.6205340  58.3252560  97.4097730  72.7477220  58.2126230
  96.9352420  73.9564040  57.4343000 100.8157030  71.1155780  55.2580900
 101.6366650  70.6252350  55.3006380 100.8491110  71.7053440  56.0112740
  91.2881750  69.6015900  62.3858600  91.2900190  70.1188290  61.5804500
  90.4586060  69.1246080  62.3628530  97.6752840  79.7135210  53.8848500
  97.0570110  80.1784660  53.3211220  98.1876090  80.4062690  54.3018010
 101.0518510  73.0556160  58.0308440 100.3474080  73.3441050  58.6111550
 101.4130670  73.8656270  57.6708000 102.6681290  82.6731290  60.2935920
 101.9844810  83.3430400  60.2852590 103.2075580  82.8711940  59.5280780
 104.1205430  72.5010950  58.4217650 103.1730340  72.5349930  58.5533080
 104.4455420  73.3149900  58.8067010  94.6524970  68.8008130  56.7173640
  94.9599950  68.2455020  56.0009140  93.7225670  68.9352590  56.5346630
 100.2040030  84.5175420  59.0081100 100.2167190  84.1137710  58.1403360
  99.6515250  85.2922710  58.9042530 101.4985450  81.2391640  54.0971270
 101.3881780  80.2965970  54.2220690 101.4953700  81.6007280  54.9834030
  99.6025470  79.4205260  60.3363710 100.0194260  79.2065370  59.5017170
 100.3265290  79.6778050  60.9072330  97.0405730  76.8656960  53.4533760
  96.1135010  76.7994340  53.6822230  97.1930550  77.8037090  53.3389000
  97.0274810  73.1373960  50.4500920  96.0878480  73.2987920  50.5353380
  97.3458070  73.8559640  49.9036910 101.0703020  78.4277260  53.9569010
 100.4515440  78.0896810  53.3095310 101.0527470  77.7837020  54.6648200
 100.5129580  74.6061800  61.3734820 100.1000760  75.4315510  61.6274810
  99.7805530  74.0206840  61.1811180 101.2029680  84.6521130  62.0615800
 100.7260240  85.4593320  61.8688410 100.5191470  83.9999460  62.2142010
  99.2467720  77.6664070  50.9641760  99.6861000  76.8286500  50.8179580
  99.9596140  78.2993470  51.0505900  97.3563100  82.6060140  54.9323000
  97.7959010  83.3484470  54.5178390  97.2949990  82.8486710  55.8561960
 104.7828890  84.4133070  67.1307190 105.2588610  84.8915960  67.8096270
 105.4036050  84.3450560  66.4052690 104.1862140  81.6045920  64.2907200
 104.3125200  81.3657800  63.3724380 104.2283520  80.7730460  64.7629280
  98.0478880  85.3073920  62.8602010  98.5623550  85.2181930  63.6624440
  97.2047960  85.6533620  63.1529920 100.0233280  85.5929260  52.2886010
  99.8634420  85.3032200  53.1867840  99.8579990  84.8169390  51.7531240
  92.5021660  85.3727790  54.0657630  92.3264140  84.4563330  53.8525430
  91.6477400  85.7315080  54.3055430  99.7259410  83.1016820  50.8484010
  99.0324570  83.0994110  50.1886290 100.4682270  82.6776140  50.4178180
  99.2909340  84.7279530  54.9232500  99.7466290  83.9468910  55.2371120
  99.6301860  85.4386350  55.4673680 104.0386150  73.6578380  65.2556940
 103.4230420  74.1658050  64.7272400 103.7182570  72.7576710  65.1982880
  96.1000470  72.4970270  62.7219130  95.6379840  72.7053290  63.5339070
  95.6978580  71.6829620  62.4189800 101.1004980  73.7179220  63.8515790
 100.2498570  73.4184970  64.1724860 100.9406770  73.9621230  62.9399610
  98.1954690  75.2180970  65.9514580  98.5208100  74.3844720  65.6116810
  98.9835020  75.7409490  66.0992910  94.9289480  69.2512450  51.9989640
  94.3043660  69.2472320  52.7242950  94.8419600  68.3843410  51.6025610
  93.8506560  70.1749080  58.9773410  94.1478890  71.0811910  58.8965430
  94.3992120  69.6867860  58.3632980  91.6044880  74.7535320  54.8465060
  91.3785800  74.5372490  55.7511680  90.8237410  75.1863780  54.5011030
  98.8342640  74.7598690  53.4455710  98.2351530  75.4834490  53.2619330
  99.3822250  74.6975470  52.6632160  97.4407510  73.3962230  55.4758990
  97.8337080  73.7134430  54.6627680  97.8024360  72.5174110  55.5903510
  95.7499680  72.1469540  66.7355850  95.0598000  71.9541740  67.3701940
  96.4931980  72.4304180  67.2680150  98.0262650  75.9867980  59.5709770
  97.2943770  76.4954790  59.9199870  97.6286990  75.1697960  59.2698550
  94.5260190  73.6634260  50.9669020  94.6473010  73.6220740  51.9154840
  94.1408700  74.5258410  50.8115750  98.4888560  71.4401660  58.9832710
  98.5061300  71.8910310  59.8274560  98.2404140  70.5407300  59.1966150
  93.5381690  75.9735400  50.3652320  92.9698590  75.5253650  49.7388230
  94.2470690  76.3328180  49.8317470 101.9159310  68.8533840  64.8219090
 102.2405080  68.1223500  65.3477070 101.9515820  68.5347480  63.9200080
  91.0829170  79.9693590  52.6378730  90.3091430  79.4291210  52.4777450
  91.8123800  79.4500200  52.2996490 101.8417150  78.9658950  58.4305120
 102.5616270  79.4614240  58.0401230 101.6398970  78.2876840  57.7858990
  97.3027090  70.3596910  52.5734510  96.4891700  69.8610080  52.4979820
  97.1089040  71.1995160  52.1570860  97.2235950  79.0368010  64.3174120
  97.1573260  78.1163680  64.0631710  96.5941090  79.1343450  65.0318760
 100.0175480  74.7316560  50.8696670 100.9055100  75.0433790  50.6948010
  99.9880570  73.8588810  50.4777250  96.0136070  80.9040250  51.5484840
  96.3551770  81.6482480  51.0528160  95.1848780  81.2171370  51.9109670
 102.2889750  76.0428400  50.3376530 102.2053470  76.4742620  49.4872970
 103.0083940  76.5026750  50.7703350 103.3663890  78.4995920  63.4146500
 102.6412080  79.0924700  63.2175890 103.8939350  78.4919460  62.6159870
 103.3177000  82.8970660  53.0658660 102.6753160  82.2426280  53.3402380
 102.9307660  83.3025750  52.2899330  98.8963480  80.2256090  56.9130350
  99.2487300  79.6284220  56.2531720  98.0125810  79.9000320  57.0838600
  94.9826760  80.9853780  54.3200760  95.6697890  81.5322990  54.7008350
  94.1959180  81.5294510  54.3550370  94.2853970  77.9899810  53.9326120
  94.7416750  78.8005060  54.1586310  93.9342180  77.6722950  54.7644610
  97.8618660  81.5038500  59.8795870  98.5040890  80.8031660  59.9928040
  98.3868010  82.2836940  59.6992760 101.7074380  81.7887120  49.6035010
 101.4811960  81.0717560  50.1959650 101.3170580  81.5399560  48.7656760
  99.6356280  82.3033400  63.0831930  99.9712520  82.8900090  63.7609850
  98.7156620  82.1726110  63.3129720  87.4890410  85.8153980  50.3779470
  87.8488050  86.4143320  49.7236740  87.3482750  86.3613870  51.1514500
 101.2890630  79.7059060  51.2649170 101.0012330  80.1671750  52.0527050
 102.0842800  79.2456830  51.5333390  93.5059030  83.1985180  51.1953140
  93.4969130  83.9314870  50.5797650  92.5857390  82.9516760  51.2880100
  98.6798460  72.5850890  61.6156790  99.0479280  71.7646100  61.9436360
  97.8196660  72.6452780  62.0312440  96.4918630  83.2613420  49.8578330
  96.5930610  83.0577410  48.9280310  95.5920370  83.0071700  50.0626110
  94.0144520  73.8193780  53.8402230  93.3060670  74.2880120  54.2815840
  94.2989000  73.1615790  54.4747420  95.6400450  75.2390480  61.8394760
  96.1385700  75.7136300  62.5046610  95.7823400  74.3154000  62.0464790
  98.0459950  70.5444440  55.2798020  97.9227730  70.5630570  54.3307530
  98.9944510  70.5923380  55.3996420  95.1336740  85.7799740  54.5526000
  95.3878240  85.7421130  53.6305370  94.1849220  85.6533070  54.5454250
  92.2179540  72.1278860  51.2152940  93.0670070  72.5649010  51.1493130
  91.8510810  72.4399120  52.0425000 102.8467310  71.4558440  62.6823150
 102.3440910  72.1963840  63.0216960 103.6623970  71.8442440  62.3659940
 101.1389320  76.6991620  56.1284510 100.1979460  76.7141850  56.3032200
 101.4533390  75.9127580  56.5744810  91.1170960  78.3811220  49.6888470
  91.8834230  78.2692580  50.2513900  91.1945650  77.6849190  49.0365240
 103.1414900  83.8700470  57.8038770 103.2662320  84.6931640  58.2762580
 104.0080460  83.6591200  57.4562920  90.6132430  85.9631680  57.4755900
  91.3494910  85.4147140  57.7464470  90.9973350  86.8287690  57.3361890
  93.7234740  85.1361990  49.2981470  94.5163350  85.4250820  48.8463260
  93.2039090  84.7054160  48.6193950  98.4555340  81.2557620  66.6116890
  97.8493500  81.2789220  65.8712640  98.1509450  80.5240660  67.1484140
  99.8855710  84.9837910  65.2226300 100.8377460  84.8995930  65.1726540
  99.7383930  85.6479620  65.8960090  94.2412140  80.3565400  49.1623820
  94.1362780  79.7417750  49.8885200  94.0736360  79.8331290  48.3786830
  97.4814870  79.4185430  49.7665810  96.9324970  79.8654730  50.4108550
  98.1034130  78.9134680  50.2903480 101.5349810  80.7727530  65.6988070
 102.2759280  81.1103290  65.1955530 100.7722490  80.9419590  65.1457840
  93.1489990  78.3776350  51.6631110  93.5706410  78.2116220  52.5062500
  93.2740830  77.5676580  51.1686250  95.6617630  77.4013960  48.9108210
  96.1823290  76.6862980  48.5449360  96.3086030  78.0399830  49.2108720
 100.2095470  78.8242360  64.2343280 100.6236490  78.9787440  65.0833700
  99.2746470  78.9497580  64.3969060 100.6817640  76.1638520  66.2382430
 101.2638410  75.4090840  66.1502910 100.8579410  76.6945960  65.4613910
  94.5651150  69.8808510  61.5826770  94.1168450  69.9032770  60.7372320
  93.9316350  69.4827530  62.1797070  97.3074600  76.5079020  63.5877050
  97.4270810  75.9120160  64.3271890  98.1668600  76.5448710  63.1678350
  99.6462500  77.0616210  62.1639560  99.1197720  77.5858830  61.5604700
  99.9893840  77.6943600  62.7949290  92.0448890  74.4509580  48.6089270
  91.8437950  73.5876940  48.9702610  91.8740940  74.3642940  47.6710870
  94.0743370  73.0500370  64.8452870  94.6643060  72.7416220  65.5330690
  93.2563610  72.5780120  65.0012770  98.8936800  72.6666180  65.0785890
  98.2052320  72.0047720  65.0135880  99.6142820  72.2204450  65.5234350
  94.0616620  70.4944820  49.5823350  93.7138620  69.8168810  49.0025800
  94.2629390  70.0334330  50.3966740  96.2265660  85.4825570  51.2009950
  97.1216450  85.8210540  51.2228710  96.2583290  84.7604980  50.5734230
  89.8661820  80.8552620  49.4296950  90.3036690  81.3982290  50.0854530
  90.3509550  80.0299570  49.4393290 103.2060010  84.0129240  63.9076150
 102.6062000  84.0721800  63.1640070 103.3353910  83.0734220  64.0373000
 104.4461460  81.7547060  49.2445860 103.6154420  81.8223710  49.7153090
 104.6233290  82.6451180  48.9412720 103.9017920  78.4994540  51.7480060
 104.6636830  79.0691190  51.8539750 103.9172290  77.9321740  52.5188370
 104.9077890  79.3544640  56.5921990 105.2786720  78.5711960  56.1857960
 105.5479820  80.0433740  56.4139290 101.8911650  80.7381220  62.0052310
 101.0771490  81.1678380  62.2678100 102.2985850  81.3499630  61.3921360
 103.9537090  78.7928910  48.9052580 104.2285930  79.7007790  48.7771800
 103.7647830  78.7291440  49.8414570 103.8502430  76.7297900  53.8982010
 103.4746030  75.9625830  53.4663300 103.1205550  77.1120600  54.3856940
 101.6790120  71.1025850  66.3101230 102.5560300  71.1109250  66.6935230
 101.6910960  70.3656690  65.6993580 103.1253390  74.9555390  57.1989250
 103.6490870  74.4618040  56.5679420 103.7112810  75.0905750  57.9436820
 102.6153360  74.2128740  53.1381660 103.1112480  73.9799610  53.9230540
 102.4169430  73.3740580  52.7219300 104.0440520  72.8489690  55.6719340
 103.9339800  72.6945730  56.6101610 104.8048110  72.3210630  55.4294750
 102.3906240  68.7883820  62.1302340 103.0278460  69.4017960  62.4961530
 102.5381130  68.8244480  61.1851570 101.9487700  85.4899820  55.5320580
 102.5446770  85.1684390  54.8555000 102.2065850  85.0171640  56.3233850
  95.7610720  69.9410010  65.0377440  95.6999610  70.5331840  65.7872850
  96.7011100  69.8335970  64.8927700  98.3985280  69.5980070  64.6769730
  99.0125690  69.9159360  64.0150810  98.9434840  69.1128660  65.2965590
 104.8160460  85.4971700  62.0831570 104.3218740  85.8940570  61.3658700
 104.2073750  84.8720910  62.4768850  99.1393320  68.1612210  61.0039020
  98.2653160  68.4947320  60.8011950  99.0304070  67.6885390  61.8290890
 100.0465300  70.3683080  62.3880740  99.7178660  69.5534840  62.0082470
 100.9947600  70.3252890  62.2646430 102.4999910  86.1395120  59.3618310
 102.0402880  86.8910930  58.9876330 101.8712370  85.4201590  59.3033110
  96.8868140  69.0782050  59.9431930  96.1039930  69.5527550  60.2228690
  96.5931070  68.1736880  59.8345110 101.4389210  69.7805150  57.9881020
 101.8797300  69.7250250  57.1402620 101.1696800  70.6963160  58.0591200
 103.3027780  69.4120390  55.9989840 103.2416180  68.4681610  55.8520860
 104.0819810  69.5200480  56.5443300  87.6080530  85.5512750  54.9613790
  87.4402570  84.9183430  55.6595680  86.7415040  85.7572150  54.6107980
  94.7722360  71.4968800  55.4547960  93.9596870  71.1225690  55.1143840
  95.2764000  70.7413880  55.7569150  99.2747340  68.1611250  56.6931030
  99.8776710  68.7331460  57.1679550  98.5340330  68.7250690  56.4704930
  89.2143230  84.2445980  52.4063930  88.6890850  84.6254010  51.7025890
  89.1387810  84.8696750  53.1273640  95.7363490  86.2607950  66.7303620
  96.6630800  86.0252220  66.7739580  95.7213920  87.0879950  66.2489650
 103.9708550  85.8033520  53.7277870 104.1460740  85.1171260  53.0838790
 103.2730120  86.3280570  53.3354540  91.8136200  86.1928360  51.2813180
  92.5455020  85.9087640  50.7337070  92.0729870  85.9541640  52.1712560
  90.9750990  82.3093090  51.2859510  90.3459870  82.7778190  51.8345340
  91.0898820  81.4642310  51.7205700  99.5242560  68.3406280  67.0725970
  99.4108010  68.6600890  67.9677490 100.3412300  68.7418790  66.7763250
 102.3041050  85.4877810  66.5544660 103.0966370  84.9927040  66.3470620
 102.5974200  86.1667950  67.1620270  90.5784580  78.4497580  40.1945740
  89.7469460  78.1946290  40.5942250  91.1865560  78.5208350  40.9303660
 100.5826180  82.5437960  38.0969110 100.1207710  81.7725200  38.4256280
 101.3951730  82.5704030  38.6021560  90.5585840  82.4837670  40.3903760
  90.8613880  81.5935410  40.2113980  91.3029430  83.0407890  40.1626010
  96.8089490  84.8295970  37.7173100  96.1900930  85.2853470  37.1467540
  97.6641270  84.9847430  37.3162800  93.0045650  74.9617340  39.3451690
  93.5123870  75.4598310  39.9856710  93.5358890  74.1852540  39.1691050
  97.6752840  79.7135210  35.1105010  97.0570110  80.1784660  34.5467730
  98.1876090  80.4062690  35.5274520  90.9697080  71.3125860  41.6185560
  91.3113890  72.1567910  41.3239430  90.0312890  71.4609600  41.7350900
  91.7503700  81.2091880  43.6037790  92.3677700  81.8842960  43.3222240
  90.8896820  81.6179860  43.5125290  87.0436040  80.3991740  32.4844640
  86.6664020  80.8878840  31.7529540  87.3009110  81.0717020  33.1151170
 102.6681290  82.6731290  41.5192430 101.9844810  83.3430400  41.5109100
 103.2075580  82.8711940  40.7537290  94.6524970  68.8008130  37.9430150
  94.9599950  68.2455020  37.2265650  93.7225670  68.9352590  37.7603140
 100.2040030  84.5175420  40.2337610 100.2167190  84.1137710  39.3659870
  99.6515250  85.2922710  40.1299040 101.4985450  81.2391640  35.3227780
 101.3881780  80.2965970  35.4477200 101.4953700  81.6007280  36.2090540
  97.0405730  76.8656960  34.6790270  96.1135010  76.7994340  34.9078740
  97.1930550  77.8037090  34.5645510  97.0274810  73.1373960  31.6757430
  96.0878480  73.2987920  31.7609890  97.3458070  73.8559640  31.1293420
 101.0703020  78.4277260  35.1825520 100.4515440  78.0896810  34.5351820
 101.0527470  77.7837020  35.8904710  92.6462370  77.3921700  37.4610000
  92.2419370  76.6798950  36.9655900  92.7325490  77.0474940  38.3498040
  93.1144070  81.0789260  39.6249210  92.8172360  80.4734730  38.9456990
  94.0643890  81.1166570  39.5138570  91.3590990  74.1664910  41.2409040
  91.9105580  74.2760250  40.4662290  91.8734500  74.5402510  41.9564270
  92.2062500  80.8170950  46.2757010  91.3091030  81.0410920  46.5230410
  92.2315370  80.9405890  45.3268410  99.2467720  77.6664070  32.1898270
  99.6861000  76.8286500  32.0436090  99.9596140  78.2993470  32.2762410
  97.3563100  82.6060140  36.1579510  97.7959010  83.3484470  35.7434900
  97.2949990  82.8486710  37.0818470  92.8314070  83.6305970  47.0599530
  92.8029500  84.0348920  46.1927960  92.6679040  82.7016330  46.8971130
 102.8284860  68.9206880  30.5039310 102.5157520  69.0133710  31.4038380
 103.5897330  69.4987910  30.4536740 104.1862140  81.6045920  45.5163710
 104.3125200  81.3657800  44.5980890 104.2283520  80.7730460  45.9885790
  98.0478880  85.3073920  44.0858520  98.5623550  85.2181930  44.8880950
  97.2047960  85.6533620  44.3786430  92.5021660  85.3727790  35.2914140
  92.3264140  84.4563330  35.0781940  91.6477400  85.7315080  35.5311940
  99.2909340  84.7279530  36.1489010  99.7466290  83.9468910  36.4627630
  99.6301860  85.4386350  36.6930190  87.0411890  80.4995990  43.3079750
  87.2042930  80.0301350  42.4899120  87.5064340  79.9919550  43.9728590
  91.8130660  69.6301750  38.3440320  91.3698810  70.4111290  38.0124840
  92.3715650  69.9531640  39.0511260  96.1000470  72.4970270  43.9475640
  95.6379840  72.7053290  44.7595580  95.6978580  71.6829620  43.6446310
  94.9289480  69.2512450  33.2246150  94.3043660  69.2472320  33.9499460
  94.8419600  68.3843410  32.8282120  93.8506560  70.1749080  40.2029920
  94.1478890  71.0811910  40.1221940  94.3992120  69.6867860  39.5889490
  91.6044880  74.7535320  36.0721570  91.3785800  74.5372490  36.9768190
  90.8237410  75.1863780  35.7267540  95.7499680  72.1469540  47.9612360
  95.0598000  71.9541740  48.5958450  96.4931980  72.4304180  48.4936660
  86.6641910  73.9283150  30.1348420  86.5816580  74.8713910  30.2763410
  86.3124970  73.7858060  29.2560770  98.0262650  75.9867980  40.7966280
  97.2943770  76.4954790  41.1456380  97.6286990  75.1697960  40.4955060
  94.4640040  72.6622180  39.2018770  94.4676100  72.2212130  38.3523310
  95.3591160  72.9839510  39.3090590  94.5260190  73.6634260  32.1925530
  94.6473010  73.6220740  33.1411350  94.1408700  74.5258410  32.0372260
  88.6150870  79.8747420  45.4675560  88.2305660  79.2341090  46.0658520
  88.9263060  80.5783540  46.0370290  91.0829170  79.9693590  33.8635240
  90.3091430  79.4291210  33.7033960  91.8123800  79.4500200  33.5253000
 101.8417150  78.9658950  39.6561630 102.5616270  79.4614240  39.2657740
 101.6398970  78.2876840  39.0115500  97.3027090  70.3596910  33.7991020
  96.4891700  69.8610080  33.7236330  97.1089040  71.1995160  33.3827370
 100.0175480  74.7316560  32.0953180 100.9055100  75.0433790  31.9204520
  99.9880570  73.8588810  31.7033760  91.1266570  79.6373970  37.5014050
  91.6445240  78.8342230  37.4470940  90.6750590  79.5753110  38.3430880
  96.0136070  80.9040250  32.7741350  96.3551770  81.6482480  32.2784670
  95.1848780  81.2171370  33.1366180  88.6111110  76.6035340  44.4139750
  88.2526050  77.2689190  45.0013090  88.3165670  75.7718890  44.7852370
  91.8124230  77.0619580  47.2979300  91.5124370  77.2076760  46.4007120
  92.5835470  76.5024870  47.2052690  97.1552680  81.8588580  45.2934430
  97.1697220  80.9269540  45.0753340  96.4477780  81.9448340  45.9324200
 102.2889750  76.0428400  31.5633040 102.2053470  76.4742620  30.7129480
 103.0083940  76.5026750  31.9959860  98.8963480  80.2256090  38.1386860
  99.2487300  79.6284220  37.4788230  98.0125810  79.9000320  38.3095110
  94.9826760  80.9853780  35.5457270  95.6697890  81.5322990  35.9264860
  94.1959180  81.5294510  35.5806880  87.1219160  76.6026600  31.0374350
  87.9914010  76.8851400  31.3210270  86.6309480  77.4162470  30.9223160
  94.2853970  77.9899810  35.1582630  94.7416750  78.8005060  35.3842820
  93.9342180  77.6722950  35.9901120  96.5886580  83.5006150  42.3874930
  97.2328800  83.7065530  43.0648350  96.9516020  82.7394550  41.9345780
  99.6356280  82.3033400  44.3088440  99.9712520  82.8900090  44.9866360
  98.7156620  82.1726110  44.5386230  87.4890410  85.8153980  31.6035980
  87.8488050  86.4143320  30.9493250  87.3482750  86.3613870  32.3771010
 101.2890630  79.7059060  32.4905680 101.0012330  80.1671750  33.2783560
 102.0842800  79.2456830  32.7589900  87.4732270  84.0808840  46.0778380
  87.5823390  83.1403580  45.9373770  86.8212830  84.3463590  45.4292110
  95.4644860  82.3524730  47.4776500  95.1441730  81.6333970  48.0222190
  94.7903220  83.0279800  47.5512560  93.5059030  83.1985180  32.4209650
  93.4969130  83.9314870  31.8054160  92.5857390  82.9516760  32.5136610
  94.0144520  73.8193780  35.0658740  93.3060670  74.2880120  35.5072350
  94.2989000  73.1615790  35.7003930  95.1336740  85.7799740  35.7782510
  95.3878240  85.7421130  34.8561880  94.1849220  85.6533070  35.7710760
  92.2179540  72.1278860  32.4409450  93.0670070  72.5649010  32.3749640
  91.8510810  72.4399120  33.2681510  90.6132430  85.9631680  38.7012410
  91.3494910  85.4147140  38.9720980  90.9973350  86.8287690  38.5618400
  87.4977910  82.0305250  34.5753920  86.5717690  82.2726390  34.5659330
  87.9634340  82.8579510  34.4538670  89.6190710  85.1477750  47.8897990
  90.4203440  85.4689800  48.3033390  89.1042530  84.7873330  48.6117900
  93.7234740  85.1361990  30.5237980  94.5163350  85.4250820  30.0719770
  93.2039090  84.7054160  29.8450460  98.4555340  81.2557620  47.8373400
  97.8493500  81.2789220  47.0969150  98.1509450  80.5240660  48.3740650
  87.3388520  77.6351210  46.8334040  87.8427540  77.0558490  47.4050270
  86.5995940  77.9191440  47.3710410  97.4814870  79.4185430  30.9922320
  96.9324970  79.8654730  31.6365060  98.1034130  78.9134680  31.5159990
 101.5349810  80.7727530  46.9244580 102.2759280  81.1103290  46.4212040
 100.7722490  80.9419590  46.3714350  89.3711600  75.7780800  47.7284110
  89.4116940  75.4794670  48.6369340  90.2257100  76.1788410  47.5691630
  93.1489990  78.3776350  32.8887620  93.5706410  78.2116220  33.7319010
  93.2740830  77.5676580  32.3942760  91.3117410  74.3572900  45.6958600
  90.7813870  73.8663850  45.0681940  91.9805480  74.7857100  45.1616530
  95.6617630  77.4013960  30.1364720  96.1823290  76.6862980  29.7705870
  96.3086030  78.0399830  30.4365230 100.6817640  76.1638520  47.4638940
 101.2638410  75.4090840  47.3759420 100.8579410  76.6945960  46.6870420
  94.5651150  69.8808510  42.8083280  94.1168450  69.9032770  41.9628830
  93.9316350  69.4827530  43.4053580  94.0743370  73.0500370  46.0709380
  94.6643060  72.7416220  46.7587200  93.2563610  72.5780120  46.2269280
  99.5237200  69.2617810  32.3632660  99.8039490  68.4185710  32.7192080
  98.7502930  69.4940920  32.8771410  90.8431690  71.5510200  29.8223660
  91.1457590  71.5577630  28.9142810  91.5826280  71.2008060  30.3191320
  94.0616620  70.4944820  30.8079860  93.7138620  69.8168810  30.2282310
  94.2629390  70.0334330  31.6223250  96.2265660  85.4825570  32.4266460
  97.1216450  85.8210540  32.4485220  96.2583290  84.7604980  31.7990740
  89.8661820  80.8552620  30.6553460  90.3036690  81.3982290  31.3111040
  90.3509550  80.0299570  30.6649800  87.0807620  83.6441650  38.1073720
  87.4110630  82.7762710  37.8752360  87.5098620  83.8500170  38.9378680
  91.6769540  81.9750660  35.7675690  91.3765080  81.8515630  36.6679600
  91.5707030  81.1159250  35.3591420  87.5697830  84.5112240  40.8455350
  87.1328820  84.6913040  41.6779500  88.1375510  85.2686860  40.7037070
 103.9017920  78.4994540  32.9736570 104.6636830  79.0691190  33.0796260
 103.9172290  77.9321740  33.7444880 104.9077890  79.3544640  37.8178500
 105.2786720  78.5711960  37.4114470 105.5479820  80.0433740  37.6395800
 101.8911650  80.7381220  43.2308820 101.0771490  81.1678380  43.4934610
 102.2985850  81.3499630  42.6177870 100.3512700  71.8173760  31.4262720
 100.7697580  71.6304740  30.5859380 100.0448760  70.9652810  31.7365650
 103.8502430  76.7297900  35.1238520 103.4746030  75.9625830  34.6919810
 103.1205550  77.1120600  35.6113450  88.4398190  77.4085040  41.7447570
  88.8071230  77.3212440  42.6243590  87.8709010  76.6451590  41.6454430
  87.9914190  74.3194130  45.6505990  87.0970240  74.2860890  45.9899700
  88.5311740  74.5180920  46.4157240  86.6160340  74.2331400  33.1469560
  85.7124420  74.4961600  32.9721220  87.1000960  74.5042570  32.3669520
  88.8061710  69.3436270  30.0966590  89.5289840  69.8845210  30.4147810
  89.0786230  69.0699690  29.2208130 104.9330790  70.6797610  30.1381990
 105.8580100  70.5478790  29.9300280 104.9106580  70.7590430  31.0918440
 105.0069280  71.4508270  32.7638700 104.2120780  71.3853390  33.2931610
 105.2112560  72.3858910  32.7524050  89.8550270  81.9217730  46.9067720
  89.8119900  81.5510640  47.7882180  89.9861280  82.8595300  47.0469540
  93.5556300  83.4777320  42.5077440  93.3147660  83.7451880  41.6207960
  94.4958940  83.6483050  42.5628300  95.7610720  69.9410010  46.2633950
  95.6999610  70.5331840  47.0129360  96.7011100  69.8335970  46.1184210
  89.3250530  82.2338360  42.9773540  88.5984590  81.6143650  42.9099490
  89.3859680  82.6278970  42.1071620  92.9295630  84.4483360  39.7622950
  93.4460650  83.8370720  39.2371210  93.5793010  84.9512140  40.2533960
  95.6691130  85.3391850  40.5891930  95.9568940  85.0846150  39.7124940
  96.1814350  84.7869210  41.1797500  96.8868140  69.0782050  41.1688440
  96.1039930  69.5527550  41.4485200  96.5931070  68.1736880  41.0601620
 103.3027780  69.4120390  37.2246350 103.2416180  68.4681610  37.0777370
 104.0819810  69.5200480  37.7699810  87.6080530  85.5512750  36.1870300
  87.4402570  84.9183430  36.8852190  86.7415040  85.7572150  35.8364490
  94.7722360  71.4968800  36.6804470  93.9596870  71.1225690  36.3400350
  95.2764000  70.7413880  36.9825660 102.4181940  68.5632810  33.1927820
 102.6132570  69.4616260  33.4595250 101.6311810  68.3319890  33.6860770
  89.2143230  84.2445980  33.6320440  88.6890850  84.6254010  32.9282400
  89.1387810  84.8696750  34.3530150  90.6033700  69.9093580  32.2304130
  91.1326460  69.1223380  32.1012080  91.2362020  70.5884770  32.4639660
  92.7971540  69.6468720  35.2849520  92.1674280  68.9456030  35.4519650
  92.2576680  70.4072850  35.0682680  95.7363490  86.2607950  47.9560130
  96.6630800  86.0252220  47.9996090  95.7213920  87.0879950  47.4746160
  91.8136200  86.1928360  32.5069690  92.5455020  85.9087640  31.9593580
  92.0729870  85.9541640  33.3969070  90.9750990  82.3093090  32.5116020
  90.3459870  82.7778190  33.0601850  91.0898820  81.4642310  32.9462210
  90.5784580  78.4497580  21.4202250  89.7469460  78.1946290  21.8198760
  91.1865560  78.5208350  22.1560170  90.5585840  82.4837670  21.6160270
  90.8613880  81.5935410  21.4370490  91.3029430  83.0407890  21.3882520
  96.8089490  84.8295970  18.9429610  96.1900930  85.2853470  18.3724050
  97.6641270  84.9847430  18.5419310  88.1934410  71.4189480  22.8753270
  88.0137250  70.5215230  23.1556030  87.7914490  71.9661350  23.5500220
  97.0332910  73.6205340  20.7765580  97.4097730  72.7477220  20.6639250
  96.9352420  73.9564040  19.8856020  91.1637920  71.9930970  16.2383020
  91.2704670  72.8934700  16.5451780  90.2530280  71.9448940  15.9477670
 100.8157030  71.1155780  17.7093920 101.6366650  70.6252350  17.7519400
 100.8491110  71.7053440  18.4625760  93.0045650  74.9617340  20.5708200
  93.5123870  75.4598310  21.2113220  93.5358890  74.1852540  20.3947560
 105.1056580  73.1322530  24.2737550 104.4008750  73.5204240  23.7552660
 105.3714500  73.8272820  24.8758480  91.2881750  69.6015900  24.8371620
  91.2900190  70.1188290  24.0317520  90.4586060  69.1246080  24.8141550
  92.5384600  79.2411080  23.0145120  92.2053980  79.8680000  23.6566190
  92.7151280  79.7672960  22.2346790 101.0518510  73.0556160  20.4821460
 100.3474080  73.3441050  21.0624570 101.4130670  73.8656270  20.1221020
  90.9697080  71.3125860  22.8442070  91.3113890  72.1567910  22.5495940
  90.0312890  71.4609600  22.9607410  87.0436040  80.3991740  13.7101150
  86.6664020  80.8878840  12.9786050  87.3009110  81.0717020  14.3407680
 104.1205430  72.5010950  20.8730670 103.1730340  72.5349930  21.0046100
 104.4455420  73.3149900  21.2580030  94.6524970  68.8008130  19.1686660
  94.9599950  68.2455020  18.4522160  93.7225670  68.9352590  18.9859650
 100.2040030  84.5175420  21.4594120 100.2167190  84.1137710  20.5916380
  99.6515250  85.2922710  21.3555550  97.0274810  73.1373960  12.9013940
  96.0878480  73.2987920  12.9866400  97.3458070  73.8559640  12.3549930
 100.5129580  74.6061800  23.8247840 100.1000760  75.4315510  24.0787830
  99.7805530  74.0206840  23.6324200  92.6462370  77.3921700  18.6866510
  92.2419370  76.6798950  18.1912410  92.7325490  77.0474940  19.5754550
  93.1144070  81.0789260  20.8505720  92.8172360  80.4734730  20.1713500
  94.0643890  81.1166570  20.7395080 102.8284860  68.9206880  11.7295820
 102.5157520  69.0133710  12.6294890 103.5897330  69.4987910  11.6793250
  86.9852370  79.4581820  21.9941800  87.0632790  79.5930590  21.0497520
  87.5994050  78.7497710  22.1869920  88.2300000  81.1582010  18.4047980
  87.8228080  81.2996600  17.5501580  89.1213010  80.8742170  18.2019190
  98.0478880  85.3073920  25.3115030  98.5623550  85.2181930  26.1137460
  97.2047960  85.6533620  25.6042940 100.0233280  85.5929260  14.7399030
  99.8634420  85.3032200  15.6380860  99.8579990  84.8169390  14.2044260
  92.5021660  85.3727790  16.5170650  92.3264140  84.4563330  16.3038450
  91.6477400  85.7315080  16.7568450  99.7259410  83.1016820  13.2997030
  99.0324570  83.0994110  12.6399310 100.4682270  82.6776140  12.8691200
  99.2909340  84.7279530  17.3745520  99.7466290  83.9468910  17.6884140
  99.6301860  85.4386350  17.9186700 104.0386150  73.6578380  27.7069960
 103.4230420  74.1658050  27.1785420 103.7182570  72.7576710  27.6495900
  87.0411890  80.4995990  24.5336260  87.2042930  80.0301350  23.7155630
  87.5064340  79.9919550  25.1985100  91.8130660  69.6301750  19.5696830
  91.3698810  70.4111290  19.2381350  92.3715650  69.9531640  20.2767770
  96.1000470  72.4970270  25.1732150  95.6379840  72.7053290  25.9852090
  95.6978580  71.6829620  24.8702820 101.1004980  73.7179220  26.3028810
 100.2498570  73.4184970  26.6237880 100.9406770  73.9621230  25.3912630
  98.1954690  75.2180970  28.4027600  98.5208100  74.3844720  28.0629830
  98.9835020  75.7409490  28.5505930  94.9289480  69.2512450  14.4502660
  94.3043660  69.2472320  15.1755970  94.8419600  68.3843410  14.0538630
  93.8506560  70.1749080  21.4286430  94.1478890  71.0811910  21.3478450
  94.3992120  69.6867860  20.8146000  91.6044880  74.7535320  17.2978080
  91.3785800  74.5372490  18.2024700  90.8237410  75.1863780  16.9524050
  98.8342640  74.7598690  15.8968730  98.2351530  75.4834490  15.7132350
  99.3822250  74.6975470  15.1145180  97.4407510  73.3962230  17.9272010
  97.8337080  73.7134430  17.1140700  97.8024360  72.5174110  18.0416530
  95.7499680  72.1469540  29.1868870  95.0598000  71.9541740  29.8214960
  96.4931980  72.4304180  29.7193170  86.4771680  69.9863030  20.1502210
  86.1884730  70.5565890  20.8627190  87.2217440  69.5067480  20.5133440
  86.6641910  73.9283150  11.3604930  86.5816580  74.8713910  11.5019920
  86.3124970  73.7858060  10.4817280  98.0262650  75.9867980  22.0222790
  97.2943770  76.4954790  22.3712890  97.6286990  75.1697960  21.7211570
  94.4640040  72.6622180  20.4275280  94.4676100  72.2212130  19.5779820
  95.3591160  72.9839510  20.5347100  94.5260190  73.6634260  13.4182040
  94.6473010  73.6220740  14.3667860  94.1408700  74.5258410  13.2628770
  98.4888560  71.4401660  21.4345730  98.5061300  71.8910310  22.2787580
  98.2404140  70.5407300  21.6479170  93.5381690  75.9735400  12.8165340
  92.9698590  75.5253650  12.1901250  94.2470690  76.3328180  12.2830490
 101.9159310  68.8533840  27.2732110 102.2405080  68.1223500  27.7990090
 101.9515820  68.5347480  26.3713100  88.6150870  79.8747420  26.6932070
  88.2305660  79.2341090  27.2915030  88.9263060  80.5783540  27.2626800
  91.0829170  79.9693590  15.0891750  90.3091430  79.4291210  14.9290470
  91.8123800  79.4500200  14.7509510  97.3027090  70.3596910  15.0247530
  96.4891700  69.8610080  14.9492840  97.1089040  71.1995160  14.6083880
 100.0175480  74.7316560  13.3209690 100.9055100  75.0433790  13.1461030
  99.9880570  73.8588810  12.9290270  91.1266570  79.6373970  18.7270560
  91.6445240  78.8342230  18.6727450  90.6750590  79.5753110  19.5687390
 102.2889750  76.0428400  12.7889550 102.2053470  76.4742620  11.9385990
 103.0083940  76.5026750  13.2216370 103.3177000  82.8970660  15.5171680
 102.6753160  82.2426280  15.7915400 102.9307660  83.3025750  14.7412350
  87.1219160  76.6026600  12.2630860  87.9914010  76.8851400  12.5466780
  86.6309480  77.4162470  12.1479670  90.1865750  68.3337460  16.8561660
  90.0580380  68.3255360  17.8046580  89.3627770  68.6720550  16.5052670
 101.7074380  81.7887120  12.0548030 101.4811960  81.0717560  12.6472670
 101.3170580  81.5399560  11.2169780  87.4890410  85.8153980  12.8292490
  87.8488050  86.4143320  12.1749760  87.3482750  86.3613870  13.6027520
  87.1859680  70.0928580  26.3168360  86.4718200  70.2925500  26.9220970
  87.6054720  69.3168150  26.6883160 101.2890630  79.7059060  13.7162190
 101.0012330  80.1671750  14.5040070 102.0842800  79.2456830  13.9846410
  87.4732270  84.0808840  27.3034890  87.5823390  83.1403580  27.1630280
  86.8212830  84.3463590  26.6548620  93.5059030  83.1985180  13.6466160
  93.4969130  83.9314870  13.0310670  92.5857390  82.9516760  13.7393120
  89.1065670  78.4200070  14.3912920  88.4993620  79.1598970  14.4008220
  89.5815020  78.5099430  13.5651120  98.6798460  72.5850890  24.0669810
  99.0479280  71.7646100  24.3949380  97.8196660  72.6452780  24.4825460
 102.0460490  71.5407830  14.8757370 101.4173650  71.6453500  14.1615600
 101.5512410  71.7604610  15.6651250  96.4918630  83.2613420  12.3091350
  96.5930610  83.0577410  11.3793330  95.5920370  83.0071700  12.5139130
  94.0144520  73.8193780  16.2915250  93.3060670  74.2880120  16.7328860
  94.2989000  73.1615790  16.9260440  98.0459950  70.5444440  17.7311040
  97.9227730  70.5630570  16.7820550  98.9944510  70.5923380  17.8509440
  95.1336740  85.7799740  17.0039020  95.3878240  85.7421130  16.0818390
  94.1849220  85.6533070  16.9967270  92.2179540  72.1278860  13.6665960
  93.0670070  72.5649010  13.6006150  91.8510810  72.4399120  14.4938020
 102.8467310  71.4558440  25.1336170 102.3440910  72.1963840  25.4729980
 103.6623970  71.8442440  24.8172960 101.1389320  76.6991620  18.5797530
 100.1979460  76.7141850  18.7545220 101.4533390  75.9127580  19.0257830
  91.1170960  78.3811220  12.1401490  91.8834230  78.2692580  12.7026920
  91.1945650  77.6849190  11.4878260  89.8117720  75.8136290  12.8234380
  89.8921310  74.8663800  12.9351780  90.7037470  76.1443170  12.9295040
  90.6132430  85.9631680  19.9268920  91.3494910  85.4147140  20.1977490
  90.9973350  86.8287690  19.7874910  87.4977910  82.0305250  15.8010430
  86.5717690  82.2726390  15.7915840  87.9634340  82.8579510  15.6795180
  89.6190710  85.1477750  29.1154500  90.4203440  85.4689800  29.5289900
  89.1042530  84.7873330  29.8374410  93.7234740  85.1361990  11.7494490
  94.5163350  85.4250820  11.2976280  93.2039090  84.7054160  11.0706970
  99.8855710  84.9837910  27.6739320 100.8377460  84.8995930  27.6239560
  99.7383930  85.6479620  28.3473110 102.7764910  84.3632120  13.1731230
 102.4906420  83.9497260  12.3585410 102.5784460  85.2919830  13.0531750
  87.3388520  77.6351210  28.0590550  87.8427540  77.0558490  28.6306780
  86.5995940  77.9191440  28.5966920  94.2412140  80.3565400  11.6136840
  94.1362780  79.7417750  12.3398220  94.0736360  79.8331290  10.8299850
  97.4814870  79.4185430  12.2178830  96.9324970  79.8654730  12.8621570
  98.1034130  78.9134680  12.7416500  93.1489990  78.3776350  14.1144130
  93.5706410  78.2116220  14.9575520  93.2740830  77.5676580  13.6199270
  95.6617630  77.4013960  11.3621230  96.1823290  76.6862980  10.9962380
  96.3086030  78.0399830  11.6621740 100.2095470  78.8242360  26.6856300
 100.6236490  78.9787440  27.5346720  99.2746470  78.9497580  26.8482080
 100.6817640  76.1638520  28.6895450 101.2638410  75.4090840  28.6015930
 100.8579410  76.6945960  27.9126930  94.5651150  69.8808510  24.0339790
  94.1168450  69.9032770  23.1885340  93.9316350  69.4827530  24.6310090
  97.3074600  76.5079020  26.0390070  97.4270810  75.9120160  26.7784910
  98.1668600  76.5448710  25.6191370  99.6462500  77.0616210  24.6152580
  99.1197720  77.5858830  24.0117720  99.9893840  77.6943600  25.2462310
  92.0448890  74.4509580  11.0602290  91.8437950  73.5876940  11.4215630
  91.8740940  74.3642940  10.1223890  92.8218120  85.0815850  25.7709960
  92.2839210  85.8061910  25.4518660  93.0752080  84.6046190  24.9807300
  98.8936800  72.6666180  27.5298910  98.2052320  72.0047720  27.4648900
  99.6142820  72.2204450  27.9747370  99.5237200  69.2617810  13.5889170
  99.8039490  68.4185710  13.9448590  98.7502930  69.4940920  14.1027920
  90.8431690  71.5510200  11.0480170  91.1457590  71.5577630  10.1399320
  91.5826280  71.2008060  11.5447830  95.6780330  86.3167060  26.0296610
  95.6039030  87.2202200  26.3368980  94.7759170  85.9978960  26.0018680
  94.0616620  70.4944820  12.0336370  93.7138620  69.8168810  11.4538820
  94.2629390  70.0334330  12.8479760  96.2265660  85.4825570  13.6522970
  97.1216450  85.8210540  13.6741730  96.2583290  84.7604980  13.0247250
  89.8661820  80.8552620  11.8809970  90.3036690  81.3982290  12.5367550
  90.3509550  80.0299570  11.8906310  87.0807620  83.6441650  19.3330230
  87.4110630  82.7762710  19.1008870  87.5098620  83.8500170  20.1635190
  91.6769540  81.9750660  16.9932200  91.3765080  81.8515630  17.8936110
  91.5707030  81.1159250  16.5847930  87.5697830  84.5112240  22.0711860
  87.1328820  84.6913040  22.9036010  88.1375510  85.2686860  21.9293580
 104.4461460  81.7547060  11.6958880 103.6154420  81.8223710  12.1666110
 104.6233290  82.6451180  11.3925740 103.9017920  78.4994540  14.1993080
 104.6636830  79.0691190  14.3052770 103.9172290  77.9321740  14.9701390
 103.9537090  78.7928910  11.3565600 104.2285930  79.7007790  11.2284820
 103.7647830  78.7291440  12.2927590 100.3512700  71.8173760  12.6519230
 100.7697580  71.6304740  11.8115890 100.0448760  70.9652810  12.9622160
 103.8502430  76.7297900  16.3495030 103.4746030  75.9625830  15.9176320
 103.1205550  77.1120600  16.8369960 103.2402050  75.8769420  25.9834550
 103.0088140  75.6482170  25.0832500 103.5006600  76.7968970  25.9379440
 101.6790120  71.1025850  28.7614250 102.5560300  71.1109250  29.1448250
 101.6910960  70.3656690  28.1506600  86.6160340  74.2331400  14.3726070
  85.7124420  74.4961600  14.1977730  87.1000960  74.5042570  13.5926030
 103.1253390  74.9555390  19.6502270 103.6490870  74.4618040  19.0192440
 103.7112810  75.0905750  20.3949840 103.3043110  75.0395260  23.1721820
 102.3545820  75.0058800  23.2866810 103.4856120  75.9495370  22.9371590
  89.1587550  73.2896940  12.2820450  89.8679250  72.8680160  11.7967730
  88.4427490  73.3572170  11.6503800  88.8061710  69.3436270  11.3223100
  89.5289840  69.8845210  11.6404320  89.0786230  69.0699690  10.4464640
 102.6153360  74.2128740  15.5894680 103.1112480  73.9799610  16.3743560
 102.4169430  73.3740580  15.1732320  88.4953900  68.5942460  21.2245720
  89.1430090  68.0439840  20.7840880  88.9155740  68.8485610  22.0461530
 104.0440520  72.8489690  18.1232360 103.9339800  72.6945730  19.0614630
 104.8048110  72.3210630  17.8807770 102.3906240  68.7883820  24.5815360
 103.0278460  69.4017960  24.9474550 102.5381130  68.8244480  23.6364590
 104.9330790  70.6797610  11.3638500 105.8580100  70.5478790  11.1556790
 104.9106580  70.7590430  12.3174950 105.0069280  71.4508270  13.9895210
 104.2120780  71.3853390  14.5188120 105.2112560  72.3858910  13.9780560
 101.9487700  85.4899820  17.9833600 102.5446770  85.1684390  17.3068020
 102.2065850  85.0171640  18.7746870  88.2485900  68.7498130  23.9671040
  87.9000720  69.2061950  24.7329220  87.9173600  67.8555260  24.0493470
  89.8550270  81.9217730  28.1324230  89.8119900  81.5510640  29.0138690
  89.9861280  82.8595300  28.2726050  95.7610720  69.9410010  27.4890460
  95.6999610  70.5331840  28.2385870  96.7011100  69.8335970  27.3440720
  98.3985280  69.5980070  27.1282750  99.0125690  69.9159360  26.4663830
  98.9434840  69.1128660  27.7478610 104.8160460  85.4971700  24.5344590
 104.3218740  85.8940570  23.8171720 104.2073750  84.8720910  24.9281870
  88.9206540  68.2774330  27.2421810  89.4689530  68.0962380  26.4787920
  88.9861850  67.4868440  27.7778120  89.6938300  84.8679980  25.2522010
  89.0998620  84.7364680  25.9912050  89.6862140  84.0318120  24.7864110
  99.1393320  68.1612210  23.4552040  98.2653160  68.4947320  23.2524970
  99.0304070  67.6885390  24.2803910 100.0465300  70.3683080  24.8393760
  99.7178660  69.5534840  24.4595490 100.9947600  70.3252890  24.7159450
 102.4999910  86.1395120  21.8131330 102.0402880  86.8910930  21.4389350
 101.8712370  85.4201590  21.7546130  89.3250530  82.2338360  24.2030050
  88.5984590  81.6143650  24.1356000  89.3859680  82.6278970  23.3328130
  92.9295630  84.4483360  20.9879460  93.4460650  83.8370720  20.4627720
  93.5793010  84.9512140  21.4790470  95.6691130  85.3391850  21.8148440
  95.9568940  85.0846150  20.9381450  96.1814350  84.7869210  22.4054010
  96.8868140  69.0782050  22.3944950  96.1039930  69.5527550  22.6741710
  96.5931070  68.1736880  22.2858130 101.4389210  69.7805150  20.4394040
 101.8797300  69.7250250  19.5915640 101.1696800  70.6963160  20.5104220
 103.3027780  69.4120390  18.4502860 103.2416180  68.4681610  18.3033880
 104.0819810  69.5200480  18.9956320  87.6080530  85.5512750  17.4126810
  87.4402570  84.9183430  18.1108700  86.7415040  85.7572150  17.0621000
  88.2308550  69.3829530  14.9158670  88.9887910  69.4958410  14.3422700
  87.7685720  70.2198730  14.8702100  94.7722360  71.4968800  17.9060980
  93.9596870  71.1225690  17.5656860  95.2764000  70.7413880  18.2082170
  99.2747340  68.1611250  19.1444050  99.8776710  68.7331460  19.6192570
  98.5340330  68.7250690  18.9217950 102.4181940  68.5632810  14.4184330
 102.6132570  69.4616260  14.6851760 101.6311810  68.3319890  14.9117280
  89.2143230  84.2445980  14.8576950  88.6890850  84.6254010  14.1538910
  89.1387810  84.8696750  15.5786660  90.6033700  69.9093580  13.4560640
  91.1326460  69.1223380  13.3268590  91.2362020  70.5884770  13.6896170
  92.7971540  69.6468720  16.5106030  92.1674280  68.9456030  16.6776160
  92.2576680  70.4072850  16.2939190  95.7363490  86.2607950  29.1816640
  96.6630800  86.0252220  29.2252600  95.7213920  87.0879950  28.7002670
 103.9708550  85.8033520  16.1790890 104.1460740  85.1171260  15.5351810
 103.2730120  86.3280570  15.7867560  92.9227100  68.9252700  28.9458520
  92.6411370  69.4286300  28.1819340  93.3046800  68.1274450  28.5800650
  91.8136200  86.1928360  13.7326200  92.5455020  85.9087640  13.1850090
  92.0729870  85.9541640  14.6225580  90.9750990  82.3093090  13.7372530
  90.3459870  82.7778190  14.2858360  91.0898820  81.4642310  14.1718720
  99.5242560  68.3406280  29.5238990  99.4108010  68.6600890  30.4190510
 100.3412300  68.7418790  29.2276270  96.5618750  78.1377770   1.7683000
  95.7860850  77.6578210   2.0581570  97.2131680  77.4583420   1.5939160
  90.5784580  78.4497580   2.6458760  89.7469460  78.1946290   3.0455270
  91.1865560  78.5208350   3.3816680  90.5585840  82.4837670   2.8416780
  90.8613880  81.5935410   2.6627000  91.3029430  83.0407890   2.6139030
  96.0027740  80.8134960   1.7753160  95.9336020  79.8724900   1.6142290
  96.7647600  80.9036370   2.3475730  88.1934410  71.4189480   4.1009780
  88.0137250  70.5215230   4.3812540  87.7914490  71.9661350   4.7756730
  88.8121080  73.9149980   2.7092120  89.4931190  74.1788350   3.3279520
  88.4969130  73.0750850   3.0430130  93.0045650  74.9617340   1.7964710
  93.5123870  75.4598310   2.4369730  93.5358890  74.1852540   1.6204070
 105.1056580  73.1322530   5.4994060 104.4008750  73.5204240   4.9809170
 105.3714500  73.8272820   6.1014990  91.2881750  69.6015900   6.0628130
  91.2900190  70.1188290   5.2574030  90.4586060  69.1246080   6.0398060
  92.5384600  79.2411080   4.2401630  92.2053980  79.8680000   4.8822700
  92.7151280  79.7672960   3.4603300  90.9697080  71.3125860   4.0698580
  91.3113890  72.1567910   3.7752450  90.0312890  71.4609600   4.1863920
  91.7503700  81.2091880   6.0550810  92.3677700  81.8842960   5.7735260
  90.8896820  81.6179860   5.9638310 102.6681290  82.6731290   3.9705450
 101.9844810  83.3430400   3.9622120 103.2075580  82.8711940   3.2050310
 104.1205430  72.5010950   2.0987180 103.1730340  72.5349930   2.2302610
 104.4455420  73.3149900   2.4836540 100.2040030  84.5175420   2.6850630
 100.2167190  84.1137710   1.8172890  99.6515250  85.2922710   2.5812060
  99.6025470  79.4205260   4.0133240 100.0194260  79.2065370   3.1786700
 100.3265290  79.6778050   4.5841860 103.5487570  77.8192480   4.1049480
 102.7206200  77.8885570   3.6299610 104.1438050  78.4046790   3.6365310
 100.5129580  74.6061800   5.0504350 100.1000760  75.4315510   5.3044340
  99.7805530  74.0206840   4.8580710  91.3590990  74.1664910   3.6922060
  91.9105580  74.2760250   2.9175310  91.8734500  74.5402510   4.4077290
 101.2029680  84.6521130   5.7385330 100.7260240  85.4593320   5.5457940
 100.5191470  83.9999460   5.8911540  92.2062500  80.8170950   8.7270030
  91.3091030  81.0410920   8.9743430  92.2315370  80.9405890   7.7781430
  91.0333720  77.6884270   7.3027400  90.8941490  78.5607070   7.6714800
  90.1515080  77.3457080   7.1575340  92.8314070  83.6305970   9.5112550
  92.8029500  84.0348920   8.6440980  92.6679040  82.7016330   9.3484150
 104.7828890  84.4133070  10.8076720 105.2588610  84.8915960  11.4865800
 105.4036050  84.3450560  10.0822220  86.9852370  79.4581820   3.2198310
  87.0632790  79.5930590   2.2754030  87.5994050  78.7497710   3.4126430
 104.1862140  81.6045920   7.9676730 104.3125200  81.3657800   7.0493910
 104.2283520  80.7730460   8.4398810  98.0478880  85.3073920   6.5371540
  98.5623550  85.2181930   7.3393970  97.2047960  85.6533620   6.8299450
 104.0386150  73.6578380   8.9326470 103.4230420  74.1658050   8.4041930
 103.7182570  72.7576710   8.8752410  87.0411890  80.4995990   5.7592770
  87.2042930  80.0301350   4.9412140  87.5064340  79.9919550   6.4241610
  96.1000470  72.4970270   6.3988660  95.6379840  72.7053290   7.2108600
  95.6978580  71.6829620   6.0959330 101.1004980  73.7179220   7.5285320
 100.2498570  73.4184970   7.8494390 100.9406770  73.9621230   6.6169140
  98.1954690  75.2180970   9.6284110  98.5208100  74.3844720   9.2886340
  98.9835020  75.7409490   9.7762440  93.8506560  70.1749080   2.6542940
  94.1478890  71.0811910   2.5734960  94.3992120  69.6867860   2.0402510
  94.0444090  75.6520900   9.1894860  93.9487690  74.7115630   9.0395260
  94.8876070  75.8735970   8.7942930  89.1754630  72.0634570   7.3428640
  88.7818020  72.9109780   7.5501420  88.4873030  71.4260940   7.5337280
  95.7499680  72.1469540  10.4125380  95.0598000  71.9541740  11.0471470
  96.4931980  72.4304180  10.9449680  98.0262650  75.9867980   3.2479300
  97.2943770  76.4954790   3.5969400  97.6286990  75.1697960   2.9468080
  98.4888560  71.4401660   2.6602240  98.5061300  71.8910310   3.5044090
  98.2404140  70.5407300   2.8735680 101.9159310  68.8533840   8.4988620
 102.2405080  68.1223500   9.0246600 101.9515820  68.5347480   7.5969610
  88.6150870  79.8747420   7.9188580  88.2305660  79.2341090   8.5171540
  88.9263060  80.5783540   8.4883310  94.7648010  76.7223960   3.3997200
  95.1318140  76.2482530   4.1458540  94.5753070  77.5965530   3.7405540
  92.5547380  75.7632600   5.7181410  92.2504450  76.6424580   5.9431770
  93.5093840  75.8232390   5.7538850 101.8417150  78.9658950   2.1074650
 102.5616270  79.4614240   1.7170760 101.6398970  78.2876840   1.4628520
  97.2235950  79.0368010   7.9943650  97.1573260  78.1163680   7.7401240
  96.5941090  79.1343450   8.7088290  88.6111110  76.6035340   6.8652770
  88.2526050  77.2689190   7.4526110  88.3165670  75.7718890   7.2365390
  91.8124230  77.0619580   9.7492320  91.5124370  77.2076760   8.8520140
  92.5835470  76.5024870   9.6565710  97.1552680  81.8588580   7.7447450
  97.1697220  80.9269540   7.5266360  96.4477780  81.9448340   8.3837220
 103.3663890  78.4995920   7.0916030 102.6412080  79.0924700   6.8945420
 103.8939350  78.4919460   6.2929400  96.5886580  83.5006150   4.8387950
  97.2328800  83.7065530   5.5161370  96.9516020  82.7394550   4.3858800
  97.8618660  81.5038500   3.5565400  98.5040890  80.8031660   3.6697570
  98.3868010  82.2836940   3.3762290  99.6356280  82.3033400   6.7601460
  99.9712520  82.8900090   7.4379380  98.7156620  82.1726110   6.9899250
  87.1859680  70.0928580   7.5424870  86.4718200  70.2925500   8.1477480
  87.6054720  69.3168150   7.9139670  87.4732270  84.0808840   8.5291400
  87.5823390  83.1403580   8.3886790  86.8212830  84.3463590   7.8805130
  95.4644860  82.3524730   9.9289520  95.1441730  81.6333970  10.4735210
  94.7903220  83.0279800  10.0025580  98.6798460  72.5850890   5.2926320
  99.0479280  71.7646100   5.6205890  97.8196660  72.6452780   5.7081970
  95.6400450  75.2390480   5.5164290  96.1385700  75.7136300   6.1816140
  95.7823400  74.3154000   5.7234320 102.8467310  71.4558440   6.3592680
 102.3440910  72.1963840   6.6986490 103.6623970  71.8442440   6.0429470
  89.6190710  85.1477750  10.3411010  90.4203440  85.4689800  10.7546410
  89.1042530  84.7873330  11.0630920  98.4555340  81.2557620  10.2886420
  97.8493500  81.2789220   9.5482170  98.1509450  80.5240660  10.8253670
  99.8855710  84.9837910   8.8995830 100.8377460  84.8995930   8.8496070
  99.7383930  85.6479620   9.5729620  87.3388520  77.6351210   9.2847060
  87.8427540  77.0558490   9.8563290  86.5995940  77.9191440   9.8223430
  94.3926460  79.0422200   8.8182580  93.6272130  79.6107200   8.7337250
  94.5742420  78.7498410   7.9250810 101.5349810  80.7727530   9.3757600
 102.2759280  81.1103290   8.8725060 100.7722490  80.9419590   8.8227370
  89.3711600  75.7780800  10.1797130  89.4116940  75.4794670  11.0882360
  90.2257100  76.1788410  10.0204650  91.3117410  74.3572900   8.1471620
  90.7813870  73.8663850   7.5194960  91.9805480  74.7857100   7.6129550
 100.2095470  78.8242360   7.9112810 100.6236490  78.9787440   8.7603230
  99.2746470  78.9497580   8.0738590 100.6817640  76.1638520   9.9151960
 101.2638410  75.4090840   9.8272440 100.8579410  76.6945960   9.1383440
  91.7989710  71.3235270   8.2268910  91.7046580  70.7056020   7.5019780
  91.2187100  72.0501560   7.9998820  94.5651150  69.8808510   5.2596300
  94.1168450  69.9032770   4.4141850  93.9316350  69.4827530   5.8566600
  94.9710700  78.7762840   5.8808740  95.3898810  79.6195570   5.7084980
  94.0519330  78.9134880   5.6515520  97.3074600  76.5079020   7.2646580
  97.4270810  75.9120160   8.0041420  98.1668600  76.5448710   6.8447880
  99.6462500  77.0616210   5.8409090  99.1197720  77.5858830   5.2374230
  99.9893840  77.6943600   6.4718820  92.8218120  85.0815850   6.9966470
  92.2839210  85.8061910   6.6775170  93.0752080  84.6046190   6.2063810
  94.0743370  73.0500370   8.5222400  94.6643060  72.7416220   9.2100220
  93.2563610  72.5780120   8.6782300  98.8936800  72.6666180   8.7555420
  98.2052320  72.0047720   8.6905410  99.6142820  72.2204450   9.2003880
  95.6780330  86.3167060   7.2553120  95.6039030  87.2202200   7.5625490
  94.7759170  85.9978960   7.2275190  87.5697830  84.5112240   3.2968370
  87.1328820  84.6913040   4.1292520  88.1375510  85.2686860   3.1550090
 103.2060010  84.0129240   7.5845680 102.6062000  84.0721800   6.8409600
 103.3353910  83.0734220   7.7142530 101.8911650  80.7381220   5.6821840
 101.0771490  81.1678380   5.9447630 102.2985850  81.3499630   5.0690890
  88.4398190  77.4085040   4.1960590  88.8071230  77.3212440   5.0756610
  87.8709010  76.6451590   4.0967450 103.2402050  75.8769420   7.2091060
 103.0088140  75.6482170   6.3089010 103.5006600  76.7968970   7.1635950
  87.9914190  74.3194130   8.1019010  87.0970240  74.2860890   8.4412720
  88.5311740  74.5180920   8.8670260 101.6790120  71.1025850   9.9870760
 102.5560300  71.1109250  10.3704760 101.6910960  70.3656690   9.3763110
 103.3043110  75.0395260   4.3978330 102.3545820  75.0058800   4.5123320
 103.4856120  75.9495370   4.1628100  88.4953900  68.5942460   2.4502230
  89.1430090  68.0439840   2.0097390  88.9155740  68.8485610   3.2718040
 102.3906240  68.7883820   5.8071870 103.0278460  69.4017960   6.1731060
 102.5381130  68.8244480   4.8621100  88.2485900  68.7498130   5.1927550
  87.9000720  69.2061950   5.9585730  87.9173600  67.8555260   5.2749980
  89.8550270  81.9217730   9.3580740  89.8119900  81.5510640  10.2395200
  89.9861280  82.8595300   9.4982560  93.5556300  83.4777320   4.9590460
  93.3147660  83.7451880   4.0720980  94.4958940  83.6483050   5.0141320
  95.7610720  69.9410010   8.7146970  95.6999610  70.5331840   9.4642380
  96.7011100  69.8335970   8.5697230  98.3985280  69.5980070   8.3539260
  99.0125690  69.9159360   7.6920340  98.9434840  69.1128660   8.9735120
 104.8160460  85.4971700   5.7601100 104.3218740  85.8940570   5.0428230
 104.2073750  84.8720910   6.1538380  88.9206540  68.2774330   8.4678320
  89.4689530  68.0962380   7.7044430  88.9861850  67.4868440   9.0034630
  89.6938300  84.8679980   6.4778520  89.0998620  84.7364680   7.2168560
  89.6862140  84.0318120   6.0120620  99.1393320  68.1612210   4.6808550
  98.2653160  68.4947320   4.4781480  99.0304070  67.6885390   5.5060420
 100.0465300  70.3683080   6.0650270  99.7178660  69.5534840   5.6852000
 100.9947600  70.3252890   5.9415960 102.4999910  86.1395120   3.0387840
 102.0402880  86.8910930   2.6645860 101.8712370  85.4201590   2.9802640
  89.3250530  82.2338360   5.4286560  88.5984590  81.6143650   5.3612510
  89.3859680  82.6278970   4.5584640  92.9295630  84.4483360   2.2135970
  93.4460650  83.8370720   1.6884230  93.5793010  84.9512140   2.7046980
  95.6691130  85.3391850   3.0404950  95.9568940  85.0846150   2.1637960
  96.1814350  84.7869210   3.6310520  96.8868140  69.0782050   3.6201460
  96.1039930  69.5527550   3.8998220  96.5931070  68.1736880   3.5114640
  95.7363490  86.2607950  10.4073150  96.6630800  86.0252220  10.4509110
  95.7213920  87.0879950   9.9259180  92.9227100  68.9252700  10.1715030
  92.6411370  69.4286300   9.4075850  93.3046800  68.1274450   9.8057160
  99.5242560  68.3406280  10.7495500  99.4108010  68.6600890  11.6447020
 100.3412300  68.7418790  10.4532780 102.3041050  85.4877810  10.2314190
 103.0966370  84.9927040  10.0240150 102.5974200  86.1667950  10.8389800
  98.4300710  57.5855260 150.0821650  98.3494760  56.6709870 149.8113360
  98.0165130  58.0822330 149.3761360 100.5826180  63.7694470 150.7430050
 100.1207710  62.9981710 151.0717220 101.3951730  63.7960540 151.2482500
  88.9876530  54.6355980 146.6249070  88.0993230  54.9771950 146.5228950
  89.2717720  54.4356300 145.7329900  96.8089490  66.0552480 150.3634040
  96.1900930  66.5109980 149.7928480  97.6641270  66.2103940 149.9623740
  91.1637920  53.2187480 147.6587450  91.2704670  54.1191210 147.9656210
  90.2530280  53.1705450 147.3682100 100.8157030  52.3412290 149.1298350
 101.6366650  51.8508860 149.1723830 100.8491110  52.9309950 149.8830190
  97.6752840  60.9391720 147.7565950  97.0570110  61.4041170 147.1928670
  98.1876090  61.6319200 148.1735460  87.0436040  61.6248250 145.1305580
  86.6664020  62.1135350 144.3990480  87.3009110  62.2973530 145.7612110
  94.6524970  50.0264640 150.5891090  94.9599950  49.4711530 149.8726590
  93.7225670  50.1609100 150.4064080 101.4985450  62.4648150 147.9688720
 101.3881780  61.5222480 148.0938140 101.4953700  62.8263790 148.8551480
  97.0405730  58.0913470 147.3251210  96.1135010  58.0250850 147.5539680
  97.1930550  59.0293600 147.2106450  97.0274810  54.3630470 144.3218370
  96.0878480  54.5244430 144.4070830  97.3458070  55.0816150 143.7754360
 101.0703020  59.6533770 147.8286460 100.4515440  59.3153320 147.1812760
 101.0527470  59.0093530 148.5365650  92.6462370  58.6178210 150.1070940
  92.2419370  57.9055460 149.6116840  92.7325490  58.2731450 150.9958980
  99.2467720  58.8920580 144.8359210  99.6861000  58.0543010 144.6897030
  99.9596140  59.5249980 144.9223350  97.3563100  63.8316650 148.8040450
  97.7959010  64.5740980 148.3895840  97.2949990  64.0743220 149.7279410
 102.8284860  50.1463390 143.1500250 102.5157520  50.2390220 144.0499320
 103.5897330  50.7244420 143.0997680  89.3467000  57.5123190 147.6077590
  89.2264600  58.2385280 146.9958860  89.0367890  56.7426100 147.1305500
  88.2300000  62.3838520 149.8252410  87.8228080  62.5253110 148.9706010
  89.1213010  62.0998680 149.6223620 100.0233280  66.8185770 146.1603460
  99.8634420  66.5288710 147.0585290  99.8579990  66.0425900 145.6248690
  92.5021660  66.5984300 147.9375080  92.3264140  65.6819840 147.7242880
  91.6477400  66.9571590 148.1772880  99.7259410  64.3273330 144.7201460
  99.0324570  64.3250620 144.0603740 100.4682270  63.9032650 144.2895630
  99.2909340  65.9536040 148.7949950  99.7466290  65.1725420 149.1088570
  99.6301860  66.6642860 149.3391130  91.8130660  50.8558260 150.9901260
  91.3698810  51.6367800 150.6585780  92.3715650  51.1788150 151.6972200
  94.9289480  50.4768960 145.8707090  94.3043660  50.4728830 146.5960400
  94.8419600  49.6099920 145.4743060  91.6044880  55.9791830 148.7182510
  91.3785800  55.7629000 149.6229130  90.8237410  56.4120290 148.3728480
  98.8342640  55.9855200 147.3173160  98.2351530  56.7091000 147.1336780
  99.3822250  55.9231980 146.5349610  97.4407510  54.6218740 149.3476440
  97.8337080  54.9390940 148.5345130  97.8024360  53.7430620 149.4620960
  86.6641910  55.1539660 142.7809360  86.5816580  56.0970420 142.9224350
  86.3124970  55.0114570 141.9021710  90.3142420  53.7705180 150.8073920
  89.9742470  54.2480410 151.5640970  89.5519740  53.3170300 150.4475020
  94.5260190  54.8890770 144.8386470  94.6473010  54.8477250 145.7872290
  94.1408700  55.7514920 144.6833200  93.5381690  57.1991910 144.2369770
  92.9698590  56.7510160 143.6105680  94.2470690  57.5584690 143.7034920
  87.6288500  52.6924160 149.7238590  87.3435420  52.3279830 150.5617210
  87.5667360  51.9604620 149.1101730  91.0829170  61.1950100 146.5096180
  90.3091430  60.6547720 146.3494900  91.8123800  60.6756710 146.1713940
  97.3027090  51.5853420 146.4451960  96.4891700  51.0866590 146.3697270
  97.1089040  52.4251670 146.0288310 100.0175480  55.9573070 144.7414120
 100.9055100  56.2690300 144.5665460  99.9880570  55.0845320 144.3494700
  91.1266570  60.8630480 150.1474990  91.6445240  60.0598740 150.0931880
  90.6750590  60.8009620 150.9891820  96.0136070  62.1296760 145.4202290
  96.3551770  62.8738990 144.9245610  95.1848780  62.4427880 145.7827120
 102.2889750  57.2684910 144.2093980 102.2053470  57.6999130 143.3590420
 103.0083940  57.7283260 144.6420800 103.3177000  64.1227170 146.9376110
 102.6753160  63.4682790 147.2119830 102.9307660  64.5282260 146.1616780
  98.8963480  61.4512600 150.7847800  99.2487300  60.8540730 150.1249170
  98.0125810  61.1256830 150.9556050  94.9826760  62.2110290 148.1918210
  95.6697890  62.7579500 148.5725800  94.1959180  62.7551020 148.2267820
  87.1219160  57.8283110 143.6835290  87.9914010  58.1107910 143.9671210
  86.6309480  58.6418980 143.5684100  94.2853970  59.2156320 147.8043570
  94.7416750  60.0261570 148.0303760  93.9342180  58.8979460 148.6362060
  90.1865750  49.5593970 148.2766090  90.0580380  49.5511870 149.2251010
  89.3627770  49.8977060 147.9257100 101.7074380  63.0143630 143.4752460
 101.4811960  62.2974070 144.0677100 101.3170580  62.7656070 142.6374210
  87.4890410  67.0410490 144.2496920  87.8488050  67.6399830 143.5954190
  87.3482750  67.5870380 145.0231950 101.2890630  60.9315570 145.1366620
 101.0012330  61.3928260 145.9244500 102.0842800  60.4713340 145.4050840
  93.5059030  64.4241690 145.0670590  93.4969130  65.1571380 144.4515100
  92.5857390  64.1773270 145.1597550  89.1065670  59.6456580 145.8117350
  88.4993620  60.3855480 145.8212650  89.5815020  59.7355940 144.9855550
 102.0460490  52.7664340 146.2961800 101.4173650  52.8710010 145.5820030
 101.5512410  52.9861120 147.0855680  96.4918630  64.4869930 143.7295780
  96.5930610  64.2833920 142.7997760  95.5920370  64.2328210 143.9343560
  94.0144520  55.0450290 147.7119680  93.3060670  55.5136630 148.1533290
  94.2989000  54.3872300 148.3464870  98.0459950  51.7700950 149.1515470
  97.9227730  51.7887080 148.2024980  98.9944510  51.8179890 149.2713870
  95.1336740  67.0056250 148.4243450  95.3878240  66.9677640 147.5022820
  94.1849220  66.8789580 148.4171700  92.2179540  53.3535370 145.0870390
  93.0670070  53.7905520 145.0210580  91.8510810  53.6655630 145.9142450
 101.1389320  57.9248130 150.0001960 100.1979460  57.9398360 150.1749650
 101.4533390  57.1384090 150.4462260  91.1170960  59.6067730 143.5605920
  91.8834230  59.4949090 144.1231350  91.1945650  58.9105700 142.9082690
  89.8117720  57.0392800 144.2438810  89.8921310  56.0920310 144.3556210
  90.7037470  57.3699680 144.3499470  90.6132430  67.1888190 151.3473350
  91.3494910  66.6403650 151.6181920  90.9973350  68.0544200 151.2079340
  87.4977910  63.2561760 147.2214860  86.5717690  63.4982900 147.2120270
  87.9634340  64.0836020 147.0999610  93.7234740  66.3618500 143.1698920
  94.5163350  66.6507330 142.7180710  93.2039090  65.9310670 142.4911400
 102.7764910  65.5888630 144.5935660 102.4906420  65.1753770 143.7789840
 102.5784460  66.5176340 144.4736180  94.2412140  61.5821910 143.0341270
  94.1362780  60.9674260 143.7602650  94.0736360  61.0587800 142.2504280
  97.4814870  60.6441940 143.6383260  96.9324970  61.0911240 144.2826000
  98.1034130  60.1391190 144.1620930  93.1489990  59.6032860 145.5348560
  93.5706410  59.4372730 146.3779950  93.2740830  58.7933090 145.0403700
  95.6617630  58.6270470 142.7825660  96.1823290  57.9119490 142.4166810
  96.3086030  59.2656340 143.0826170  92.0448890  55.6766090 142.4806720
  91.8437950  54.8133450 142.8420060  91.8740940  55.5899450 141.5428320
  99.5237200  50.4874320 145.0093600  99.8039490  49.6442220 145.3653020
  98.7502930  50.7197430 145.5232350  90.8431690  52.7766710 142.4684600
  91.1457590  52.7834140 141.5603750  91.5826280  52.4264570 142.9652260
  94.0616620  51.7201330 143.4540800  93.7138620  51.0425320 142.8743250
  94.2629390  51.2590840 144.2684190  96.2265660  66.7082080 145.0727400
  97.1216450  67.0467050 145.0946160  96.2583290  65.9861490 144.4451680
  89.8661820  62.0809130 143.3014400  90.3036690  62.6238800 143.9571980
  90.3509550  61.2556080 143.3110740  87.0807620  64.8698160 150.7534660
  87.4110630  64.0019220 150.5213300  87.5098620  65.0756680 151.5839620
  91.6769540  63.2007170 148.4136630  91.3765080  63.0772140 149.3140540
  91.5707030  62.3415760 148.0052360 104.4461460  62.9803570 143.1163310
 103.6154420  63.0480220 143.5870540 104.6233290  63.8707690 142.8130170
 103.9017920  59.7251050 145.6197510 104.6636830  60.2947700 145.7257200
 103.9172290  59.1578250 146.3905820  87.4022260  58.2488980 149.8505170
  86.7471100  57.9800620 149.2064870  88.2400210  58.1393460 149.4007150
 104.9077890  60.5801150 150.4639440 105.2786720  59.7968470 150.0575410
 105.5479820  61.2690250 150.2856740 103.9537090  60.0185420 142.7770030
 104.2285930  60.9264300 142.6489250 103.7647830  59.9547950 143.7132020
 100.3512700  53.0430270 144.0723660 100.7697580  52.8561250 143.2320320
 100.0448760  52.1909320 144.3826590 103.8502430  57.9554410 147.7699460
 103.4746030  57.1882340 147.3380750 103.1205550  58.3377110 148.2574390
  86.6160340  55.4587910 145.7930500  85.7124420  55.7218110 145.6182160
  87.1000960  55.7299080 145.0130460  89.1587550  54.5153450 143.7024880
  89.8679250  54.0936670 143.2172160  88.4427490  54.5828680 143.0708230
  88.8061710  50.5692780 142.7427530  89.5289840  51.1101720 143.0608750
  89.0786230  50.2956200 141.8669070 102.6153360  55.4385250 147.0099110
 103.1112480  55.2056120 147.7947990 102.4169430  54.5997090 146.5936750
 104.0440520  54.0746200 149.5436790 103.9339800  53.9202240 150.4819060
 104.8048110  53.5467140 149.3012200 104.9330790  51.9054120 142.7842930
 105.8580100  51.7735300 142.5761220 104.9106580  51.9846940 143.7379380
 105.0069280  52.6764780 145.4099640 104.2120780  52.6109900 145.9392550
 105.2112560  53.6115420 145.3984990 101.9487700  66.7156330 149.4038030
 102.5446770  66.3940900 148.7272450 102.2065850  66.2428150 150.1951300
 103.3027780  50.6376900 149.8707290 103.2416180  49.6938120 149.7238310
 104.0819810  50.7456990 150.4160750  87.6080530  66.7769260 148.8331240
  87.4402570  66.1439940 149.5313130  86.7415040  66.9828660 148.4825430
  88.2308550  50.6086040 146.3363100  88.9887910  50.7214920 145.7627130
  87.7685720  51.4455240 146.2906530  94.7722360  52.7225310 149.3265410
  93.9596870  52.3482200 148.9861290  95.2764000  51.9670390 149.6286600
  99.2747340  49.3867760 150.5648480  99.8776710  49.9587970 151.0397000
  98.5340330  49.9507200 150.3422380 102.4181940  49.7889320 145.8388760
 102.6132570  50.6872770 146.1056190 101.6311810  49.5576400 146.3321710
  89.2143230  65.4702490 146.2781380  88.6890850  65.8510520 145.5743340
  89.1387810  66.0953260 146.9991090  90.6033700  51.1350090 144.8765070
  91.1326460  50.3479890 144.7473020  91.2362020  51.8141280 145.1100600
  92.7971540  50.8725230 147.9310460  92.1674280  50.1712540 148.0980590
  92.2576680  51.6329360 147.7143620 103.9708550  67.0290030 147.5995320
 104.1460740  66.3427770 146.9556240 103.2730120  67.5537080 147.2071990
  91.8136200  67.4184870 145.1530630  92.5455020  67.1344150 144.6054520
  92.0729870  67.1798150 146.0430010  90.9750990  63.5349600 145.1576960
  90.3459870  64.0034700 145.7062790  91.0898820  62.6898820 145.5923150
  98.4300710  57.5855260 131.3078160  98.3494760  56.6709870 131.0369870
  98.0165130  58.0822330 130.6017870  96.5618750  59.3634280 133.1887430
  95.7860850  58.8834720 133.4786000  97.2131680  58.6839930 133.0143590
  90.5784580  59.6754090 134.0663190  89.7469460  59.4202800 134.4659700
  91.1865560  59.7464860 134.8021110 100.5826180  63.7694470 131.9686560
 100.1207710  62.9981710 132.2973730 101.3951730  63.7960540 132.4739010
  90.5585840  63.7094180 134.2621210  90.8613880  62.8191920 134.0831430
  91.3029430  64.2664400 134.0343460  88.9876530  54.6355980 127.8505580
  88.0993230  54.9771950 127.7485460  89.2717720  54.4356300 126.9586410
  86.9509540  57.2361630 133.7345280  87.5225650  56.4683830 133.7348920
  86.9511080  57.5350390 132.8251890  96.0027740  62.0391470 133.1957590
  95.9336020  61.0981410 133.0346720  96.7647600  62.1292880 133.7680160
  97.0332910  54.8461850 133.4226520  97.4097730  53.9733730 133.3100190
  96.9352420  55.1820550 132.5316960  91.1637920  53.2187480 128.8843960
  91.2704670  54.1191210 129.1912720  90.2530280  53.1705450 128.5938610
  93.0045650  56.1873850 133.2169140  93.5123870  56.6854820 133.8574160
  93.5358890  55.4109050 133.0408500 105.1056580  54.3579040 136.9198490
 104.4008750  54.7460750 136.4013600 105.3714500  55.0529330 137.5219420
  91.2881750  50.8272410 137.4832560  91.2900190  51.3444800 136.6778460
  90.4586060  50.3502590 137.4602490  97.6752840  60.9391720 128.9822460
  97.0570110  61.4041170 128.4185180  98.1876090  61.6319200 129.3991970
  92.5384600  60.4667590 135.6606060  92.2053980  61.0936510 136.3027130
  92.7151280  60.9929470 134.8807730 101.0518510  54.2812670 133.1282400
 100.3474080  54.5697560 133.7085510 101.4130670  55.0912780 132.7681960
  91.7503700  62.4348390 137.4755240  92.3677700  63.1099470 137.1939690
  90.8896820  62.8436370 137.3842740  87.0436040  61.6248250 126.3562090
  86.6664020  62.1135350 125.6246990  87.3009110  62.2973530 126.9868620
 102.6681290  63.8987800 135.3909880 101.9844810  64.5686910 135.3826550
 103.2075580  64.0968450 134.6254740 104.1205430  53.7267460 133.5191610
 103.1730340  53.7606440 133.6507040 104.4455420  54.5406410 133.9040970
  94.6524970  50.0264640 131.8147600  94.9599950  49.4711530 131.0983100
  93.7225670  50.1609100 131.6320590 100.2040030  65.7431930 134.1055060
 100.2167190  65.3394220 133.2377320  99.6515250  66.5179220 134.0016490
 101.4985450  62.4648150 129.1945230 101.3881780  61.5222480 129.3194650
 101.4953700  62.8263790 130.0807990  99.6025470  60.6461770 135.4337670
 100.0194260  60.4321880 134.5991130 100.3265290  60.9034560 136.0046290
  97.0405730  58.0913470 128.5507720  96.1135010  58.0250850 128.7796190
  97.1930550  59.0293600 128.4362960  97.0274810  54.3630470 125.5474880
  96.0878480  54.5244430 125.6327340  97.3458070  55.0816150 125.0010870
 103.5487570  59.0448990 135.5253910 102.7206200  59.1142080 135.0504040
 104.1438050  59.6303300 135.0569740 101.0703020  59.6533770 129.0542970
 100.4515440  59.3153320 128.4069270 101.0527470  59.0093530 129.7622160
 100.5129580  55.8318310 136.4708780 100.1000760  56.6572020 136.7248770
  99.7805530  55.2463350 136.2785140  92.6462370  58.6178210 131.3327450
  92.2419370  57.9055460 130.8373350  92.7325490  58.2731450 132.2215490
  93.1144070  62.3045770 133.4966660  92.8172360  61.6991240 132.8174440
  94.0643890  62.3423080 133.3856020 101.2029680  65.8777640 137.1589760
 100.7260240  66.6849830 136.9662370 100.5191470  65.2255970 137.3115970
  92.2062500  62.0427460 140.1474460  91.3091030  62.2667430 140.3947860
  92.2315370  62.1662400 139.1985860  99.2467720  58.8920580 126.0615720
  99.6861000  58.0543010 125.9153540  99.9596140  59.5249980 126.1479860
  91.0333720  58.9140780 138.7231830  90.8941490  59.7863580 139.0919230
  90.1515080  58.5713590 138.5779770  97.3563100  63.8316650 130.0296960
  97.7959010  64.5740980 129.6152350  97.2949990  64.0743220 130.9535920
  92.8314070  64.8562480 140.9316980  92.8029500  65.2605430 140.0645410
  92.6679040  63.9272840 140.7688580 102.8284860  50.1463390 124.3756760
 102.5157520  50.2390220 125.2755830 103.5897330  50.7244420 124.3254190
  89.3467000  57.5123190 128.8334100  89.2264600  58.2385280 128.2215370
  89.0367890  56.7426100 128.3562010 104.7828890  65.6389580 142.2281150
 105.2588610  66.1172470 142.9070230 105.4036050  65.5707070 141.5026650
  86.9852370  60.6838330 134.6402740  87.0632790  60.8187100 133.6958460
  87.5994050  59.9754220 134.8330860  88.2300000  62.3838520 131.0508920
  87.8228080  62.5253110 130.1962520  89.1213010  62.0998680 130.8480130
 104.1862140  62.8302430 139.3881160 104.3125200  62.5914310 138.4698340
 104.2283520  61.9986970 139.8603240  98.0478880  66.5330430 137.9575970
  98.5623550  66.4438440 138.7598400  97.2047960  66.8790130 138.2503880
 100.0233280  66.8185770 127.3859970  99.8634420  66.5288710 128.2841800
  99.8579990  66.0425900 126.8505200  99.7259410  64.3273330 125.9457970
  99.0324570  64.3250620 125.2860250 100.4682270  63.9032650 125.5152140
 104.0386150  54.8834890 140.3530900 103.4230420  55.3914560 139.8246360
 103.7182570  53.9833220 140.2956840  87.0411890  61.7252500 137.1797200
  87.2042930  61.2557860 136.3616570  87.5064340  61.2176060 137.8446040
  96.1000470  53.7226780 137.8193090  95.6379840  53.9309800 138.6313030
  95.6978580  52.9086130 137.5163760 101.1004980  54.9435730 138.9489750
 100.2498570  54.6441480 139.2698820 100.9406770  55.1877740 138.0373570
  98.1954690  56.4437480 141.0488540  98.5208100  55.6101230 140.7090770
  98.9835020  56.9666000 141.1966870  94.9289480  50.4768960 127.0963600
  94.3043660  50.4728830 127.8216910  94.8419600  49.6099920 126.6999570
  93.8506560  51.4005590 134.0747370  94.1478890  52.3068420 133.9939390
  94.3992120  50.9124370 133.4606940  91.6044880  55.9791830 129.9439020
  91.3785800  55.7629000 130.8485640  90.8237410  56.4120290 129.5984990
  98.8342640  55.9855200 128.5429670  98.2351530  56.7091000 128.3593290
  99.3822250  55.9231980 127.7606120  94.0444090  56.8777410 140.6099290
  93.9487690  55.9372140 140.4599690  94.8876070  57.0992480 140.2147360
  97.4407510  54.6218740 130.5732950  97.8337080  54.9390940 129.7601640
  97.8024360  53.7430620 130.6877470  89.1754630  53.2891080 138.7633070
  88.7818020  54.1366290 138.9705850  88.4873030  52.6517450 138.9541710
  95.7499680  53.3726050 141.8329810  95.0598000  53.1798250 142.4675900
  96.4931980  53.6560690 142.3654110  98.0262650  57.2124490 134.6683730
  97.2943770  57.7211300 135.0173830  97.6286990  56.3954470 134.3672510
  94.4640040  53.8878690 133.0736220  94.4676100  53.4468640 132.2240760
  95.3591160  54.2096020 133.1808040  94.5260190  54.8890770 126.0642980
  94.6473010  54.8477250 127.0128800  94.1408700  55.7514920 125.9089710
  98.4888560  52.6658170 134.0806670  98.5061300  53.1166820 134.9248520
  98.2404140  51.7663810 134.2940110  93.5381690  57.1991910 125.4626280
  92.9698590  56.7510160 124.8362190  94.2470690  57.5584690 124.9291430
 101.9159310  50.0790350 139.9193050 102.2405080  49.3480010 140.4451030
 101.9515820  49.7603990 139.0174040  88.6150870  61.1003930 139.3393010
  88.2305660  60.4597600 139.9375970  88.9263060  61.8040050 139.9087740
  94.7648010  57.9480470 134.8201630  95.1318140  57.4739040 135.5662970
  94.5753070  58.8222040 135.1609970  92.5547380  56.9889110 137.1385840
  92.2504450  57.8681090 137.3636200  93.5093840  57.0488900 137.1743280
  91.0829170  61.1950100 127.7352690  90.3091430  60.6547720 127.5751410
  91.8123800  60.6756710 127.3970450 101.8417150  60.1915460 133.5279080
 102.5616270  60.6870750 133.1375190 101.6398970  59.5133350 132.8832950
  97.3027090  51.5853420 127.6708470  96.4891700  51.0866590 127.5953780
  97.1089040  52.4251670 127.2544820  97.2235950  60.2624520 139.4148080
  97.1573260  59.3420190 139.1605670  96.5941090  60.3599960 140.1292720
  91.1266570  60.8630480 131.3731500  91.6445240  60.0598740 131.3188390
  90.6750590  60.8009620 132.2148330  96.0136070  62.1296760 126.6458800
  96.3551770  62.8738990 126.1502120  95.1848780  62.4427880 127.0083630
  88.6111110  57.8291850 138.2857200  88.2526050  58.4945700 138.8730540
  88.3165670  56.9975400 138.6569820  91.8124230  58.2876090 141.1696750
  91.5124370  58.4333270 140.2724570  92.5835470  57.7281380 141.0770140
  97.1552680  63.0845090 139.1651880  97.1697220  62.1526050 138.9470790
  96.4477780  63.1704850 139.8041650 102.2889750  57.2684910 125.4350490
 102.2053470  57.6999130 124.5846930 103.0083940  57.7283260 125.8677310
 103.3663890  59.7252430 138.5120460 102.6412080  60.3181210 138.3149850
 103.8939350  59.7175970 137.7133830 103.3177000  64.1227170 128.1632620
 102.6753160  63.4682790 128.4376340 102.9307660  64.5282260 127.3873290
  98.8963480  61.4512600 132.0104310  99.2487300  60.8540730 131.3505680
  98.0125810  61.1256830 132.1812560  94.9826760  62.2110290 129.4174720
  95.6697890  62.7579500 129.7982310  94.1959180  62.7551020 129.4524330
  94.2853970  59.2156320 129.0300080  94.7416750  60.0261570 129.2560270
  93.9342180  58.8979460 129.8618570  97.8618660  62.7295010 134.9769830
  98.5040890  62.0288170 135.0902000  98.3868010  63.5093450 134.7966720
 101.7074380  63.0143630 124.7008970 101.4811960  62.2974070 125.2933610
 101.3170580  62.7656070 123.8630720  99.6356280  63.5289910 138.1805890
  99.9712520  64.1156600 138.8583810  98.7156620  63.3982620 138.4103680
  87.1859680  51.3185090 138.9629300  86.4718200  51.5182010 139.5681910
  87.6054720  50.5424660 139.3344100 101.2890630  60.9315570 126.3623130
 101.0012330  61.3928260 127.1501010 102.0842800  60.4713340 126.6307350
  87.4732270  65.3065350 139.9495830  87.5823390  64.3660090 139.8091220
  86.8212830  65.5720100 139.3009560  95.4644860  63.5781240 141.3493950
  95.1441730  62.8590480 141.8939640  94.7903220  64.2536310 141.4230010
  93.5059030  64.4241690 126.2927100  93.4969130  65.1571380 125.6771610
  92.5857390  64.1773270 126.3854060  89.1065670  59.6456580 127.0373860
  88.4993620  60.3855480 127.0469160  89.5815020  59.7355940 126.2112060
  98.6798460  53.8107400 136.7130750  99.0479280  52.9902610 137.0410320
  97.8196660  53.8709290 137.1286400  96.4918630  64.4869930 124.9552290
  96.5930610  64.2833920 124.0254270  95.5920370  64.2328210 125.1600070
  94.0144520  55.0450290 128.9376190  93.3060670  55.5136630 129.3789800
  94.2989000  54.3872300 129.5721380  95.6400450  56.4646990 136.9368720
  96.1385700  56.9392810 137.6020570  95.7823400  55.5410510 137.1438750
  98.0459950  51.7700950 130.3771980  97.9227730  51.7887080 129.4281490
  98.9944510  51.8179890 130.4970380  92.2179540  53.3535370 126.3126900
  93.0670070  53.7905520 126.2467090  91.8510810  53.6655630 127.1398960
 102.8467310  52.6814950 137.7797110 102.3440910  53.4220350 138.1190920
 103.6623970  53.0698950 137.4633900 101.1389320  57.9248130 131.2258470
 100.1979460  57.9398360 131.4006160 101.4533390  57.1384090 131.6718770
  91.1170960  59.6067730 124.7862430  91.8834230  59.4949090 125.3487860
  91.1945650  58.9105700 124.1339200  89.8117720  57.0392800 125.4695320
  89.8921310  56.0920310 125.5812720  90.7037470  57.3699680 125.5755980
 103.1414900  65.0956980 132.9012730 103.2662320  65.9188150 133.3736540
 104.0080460  64.8847710 132.5536880  90.6132430  67.1888190 132.5729860
  91.3494910  66.6403650 132.8438430  90.9973350  68.0544200 132.4335850
  89.6190710  66.3734260 141.7615440  90.4203440  66.6946310 142.1750840
  89.1042530  66.0129840 142.4835350  93.7234740  66.3618500 124.3955430
  94.5163350  66.6507330 123.9437220  93.2039090  65.9310670 123.7167910
  98.4555340  62.4814130 141.7090850  97.8493500  62.5045730 140.9686600
  98.1509450  61.7497170 142.2458100  99.8855710  66.2094420 140.3200260
 100.8377460  66.1252440 140.2700500  99.7383930  66.8736130 140.9934050
 102.7764910  65.5888630 125.8192170 102.4906420  65.1753770 125.0046350
 102.5784460  66.5176340 125.6992690  87.3388520  58.8607720 140.7051490
  87.8427540  58.2815000 141.2767720  86.5995940  59.1447950 141.2427860
  94.2412140  61.5821910 124.2597780  94.1362780  60.9674260 124.9859160
  94.0736360  61.0587800 123.4760790  94.3926460  60.2678710 140.2387010
  93.6272130  60.8363710 140.1541680  94.5742420  59.9754920 139.3455240
  97.4814870  60.6441940 124.8639770  96.9324970  61.0911240 125.5082510
  98.1034130  60.1391190 125.3877440 101.5349810  61.9984040 140.7962030
 102.2759280  62.3359800 140.2929490 100.7722490  62.1676100 140.2431800
  89.3711600  57.0037310 141.6001560  89.4116940  56.7051180 142.5086790
  90.2257100  57.4044920 141.4409080  93.1489990  59.6032860 126.7605070
  93.5706410  59.4372730 127.6036460  93.2740830  58.7933090 126.2660210
  91.3117410  55.5829410 139.5676050  90.7813870  55.0920360 138.9399390
  91.9805480  56.0113610 139.0333980  95.6617630  58.6270470 124.0082170
  96.1823290  57.9119490 123.6423320  96.3086030  59.2656340 124.3082680
 100.2095470  60.0498870 139.3317240 100.6236490  60.2043950 140.1807660
  99.2746470  60.1754090 139.4943020 100.6817640  57.3895030 141.3356390
 101.2638410  56.6347350 141.2476870 100.8579410  57.9202470 140.5587870
  91.7989710  52.5491780 139.6473340  91.7046580  51.9312530 138.9224210
  91.2187100  53.2758070 139.4203250  94.5651150  51.1065020 136.6800730
  94.1168450  51.1289280 135.8346280  93.9316350  50.7084040 137.2771030
  94.9710700  60.0019350 137.3013170  95.3898810  60.8452080 137.1289410
  94.0519330  60.1391390 137.0719950  97.3074600  57.7335530 138.6851010
  97.4270810  57.1376670 139.4245850  98.1668600  57.7705220 138.2652310
  99.6462500  58.2872720 137.2613520  99.1197720  58.8115340 136.6578660
  99.9893840  58.9200110 137.8923250  92.8218120  66.3072360 138.4170900
  92.2839210  67.0318420 138.0979600  93.0752080  65.8302700 137.6268240
  94.0743370  54.2756880 139.9426830  94.6643060  53.9672730 140.6304650
  93.2563610  53.8036630 140.0986730  98.8936800  53.8922690 140.1759850
  98.2052320  53.2304230 140.1109840  99.6142820  53.4460960 140.6208310
  95.6780330  67.5423570 138.6757550  95.6039030  68.4458710 138.9829920
  94.7759170  67.2235470 138.6479620  96.2265660  66.7082080 126.2983910
  97.1216450  67.0467050 126.3202670  96.2583290  65.9861490 125.6708190
  89.8661820  62.0809130 124.5270910  90.3036690  62.6238800 125.1828490
  90.3509550  61.2556080 124.5367250  87.0807620  64.8698160 131.9791170
  87.4110630  64.0019220 131.7469810  87.5098620  65.0756680 132.8096130
  91.6769540  63.2007170 129.6393140  91.3765080  63.0772140 130.5397050
  91.5707030  62.3415760 129.2308870  87.5697830  65.7368750 134.7172800
  87.1328820  65.9169550 135.5496950  88.1375510  66.4943370 134.5754520
 103.2060010  65.2385750 139.0050110 102.6062000  65.2978310 138.2614030
 103.3353910  64.2990730 139.1346960 104.4461460  62.9803570 124.3419820
 103.6154420  63.0480220 124.8127050 104.6233290  63.8707690 124.0386680
 103.9017920  59.7251050 126.8454020 104.6636830  60.2947700 126.9513710
 103.9172290  59.1578250 127.6162330  87.4022260  58.2488980 131.0761680
  86.7471100  57.9800620 130.4321380  88.2400210  58.1393460 130.6263660
 104.9077890  60.5801150 131.6895950 105.2786720  59.7968470 131.2831920
 105.5479820  61.2690250 131.5113250 101.8911650  61.9637730 137.1026270
 101.0771490  62.3934890 137.3652060 102.2985850  62.5756140 136.4895320
 103.9537090  60.0185420 124.0026540 104.2285930  60.9264300 123.8745760
 103.7647830  59.9547950 124.9388530 103.8502430  57.9554410 128.9955970
 103.4746030  57.1882340 128.5637260 103.1205550  58.3377110 129.4830900
  88.4398190  58.6341550 135.6165020  88.8071230  58.5468950 136.4961040
  87.8709010  57.8708100 135.5171880 103.2402050  57.1025930 138.6295490
 103.0088140  56.8738680 137.7293440 103.5006600  58.0225480 138.5840380
  87.9914190  55.5450640 139.5223440  87.0970240  55.5117400 139.8617150
  88.5311740  55.7437430 140.2874690 101.6790120  52.3282360 141.4075190
 102.5560300  52.3365760 141.7909190 101.6910960  51.5913200 140.7967540
  86.6160340  55.4587910 127.0187010  85.7124420  55.7218110 126.8438670
  87.1000960  55.7299080 126.2386970 103.1253390  56.1811900 132.2963210
 103.6490870  55.6874550 131.6653380 103.7112810  56.3162260 133.0410780
 103.3043110  56.2651770 135.8182760 102.3545820  56.2315310 135.9327750
 103.4856120  57.1751880 135.5832530  88.8061710  50.5692780 123.9684040
  89.5289840  51.1101720 124.2865260  89.0786230  50.2956200 123.0925580
 102.3906240  50.0140330 137.2276300 103.0278460  50.6274470 137.5935490
 102.5381130  50.0500990 136.2825530 101.9487700  66.7156330 130.6294540
 102.5446770  66.3940900 129.9528960 102.2065850  66.2428150 131.4207810
  89.8550270  63.1474240 140.7785170  89.8119900  62.7767150 141.6599630
  89.9861280  64.0851810 140.9186990  93.5556300  64.7033830 136.3794890
  93.3147660  64.9708390 135.4925410  94.4958940  64.8739560 136.4345750
  95.7610720  51.1666520 140.1351400  95.6999610  51.7588350 140.8846810
  96.7011100  51.0592480 139.9901660  98.3985280  50.8236580 139.7743690
  99.0125690  51.1415870 139.1124770  98.9434840  50.3385170 140.3939550
 104.8160460  66.7228210 137.1805530 104.3218740  67.1197080 136.4632660
 104.2073750  66.0977420 137.5742810  88.9206540  49.5030840 139.8882750
  89.4689530  49.3218890 139.1248860  88.9861850  48.7124950 140.4239060
  89.6938300  66.0936490 137.8982950  89.0998620  65.9621190 138.6372990
  89.6862140  65.2574630 137.4325050  99.1393320  49.3868720 136.1012980
  98.2653160  49.7203830 135.8985910  99.0304070  48.9141900 136.9264850
 100.0465300  51.5939590 137.4854700  99.7178660  50.7791350 137.1056430
 100.9947600  51.5509400 137.3620390 102.4999910  67.3651630 134.4592270
 102.0402880  68.1167440 134.0850290 101.8712370  66.6458100 134.4007070
  89.3250530  63.4594870 136.8490990  88.5984590  62.8400160 136.7816940
  89.3859680  63.8535480 135.9789070  96.8868140  50.3038560 135.0405890
  96.1039930  50.7784060 135.3202650  96.5931070  49.3993390 134.9319070
 101.4389210  51.0061660 133.0854980 101.8797300  50.9506760 132.2376580
 101.1696800  51.9219670 133.1565160  94.7722360  52.7225310 130.5521920
  93.9596870  52.3482200 130.2117800  95.2764000  51.9670390 130.8543110
  99.2747340  49.3867760 131.7904990  99.8776710  49.9587970 132.2653510
  98.5340330  49.9507200 131.5678890  95.7363490  67.4864460 141.8277580
  96.6630800  67.2508730 141.8713540  95.7213920  68.3136460 141.3463610
 103.9708550  67.0290030 128.8251830 104.1460740  66.3427770 128.1812750
 103.2730120  67.5537080 128.4328500  92.9227100  50.1509210 141.5919460
  92.6411370  50.6542810 140.8280280  93.3046800  49.3530960 141.2261590
  91.8136200  67.4184870 126.3787140  92.5455020  67.1344150 125.8311030
  92.0729870  67.1798150 127.2686520  90.9750990  63.5349600 126.3833470
  90.3459870  64.0034700 126.9319300  91.0898820  62.6898820 126.8179660
  99.5242560  49.5662790 142.1699930  99.4108010  49.8857400 143.0651450
 100.3412300  49.9675300 141.8737210 102.3041050  66.7134320 141.6518620
 103.0966370  66.2183550 141.4444580 102.5974200  67.3924460 142.2594230
  90.5784580  59.6754090 115.2919700  89.7469460  59.4202800 115.6916210
  91.1865560  59.7464860 116.0277620  90.5585840  63.7094180 115.4877720
  90.8613880  62.8191920 115.3087940  91.3029430  64.2664400 115.2599970
  88.9876530  54.6355980 109.0762090  88.0993230  54.9771950 108.9741970
  89.2717720  54.4356300 108.1842920  88.1934410  52.6445990 116.7470720
  88.0137250  51.7471740 117.0273480  87.7914490  53.1917860 117.4217670
  97.0332910  54.8461850 114.6483030  97.4097730  53.9733730 114.5356700
  96.9352420  55.1820550 113.7573470 100.8157030  52.3412290 111.5811370
 101.6366650  51.8508860 111.6236850 100.8491110  52.9309950 112.3343210
 105.1056580  54.3579040 118.1455000 104.4008750  54.7460750 117.6270110
 105.3714500  55.0529330 118.7475930  91.2881750  50.8272410 118.7089070
  91.2900190  51.3444800 117.9034970  90.4586060  50.3502590 118.6859000
  92.5384600  60.4667590 116.8862570  92.2053980  61.0936510 117.5283640
  92.7151280  60.9929470 116.1064240  90.9697080  52.5382370 116.7159520
  91.3113890  53.3824420 116.4213390  90.0312890  52.6866110 116.8324860
  91.7503700  62.4348390 118.7011750  92.3677700  63.1099470 118.4196200
  90.8896820  62.8436370 118.6099250 102.6681290  63.8987800 116.6166390
 101.9844810  64.5686910 116.6083060 103.2075580  64.0968450 115.8511250
 104.1205430  53.7267460 114.7448120 103.1730340  53.7606440 114.8763550
 104.4455420  54.5406410 115.1297480 101.4985450  62.4648150 110.4201740
 101.3881780  61.5222480 110.5451160 101.4953700  62.8263790 111.3064500
  99.6025470  60.6461770 116.6594180 100.0194260  60.4321880 115.8247640
 100.3265290  60.9034560 117.2302800  97.0274810  54.3630470 106.7731390
  96.0878480  54.5244430 106.8583850  97.3458070  55.0816150 106.2267380
  91.3590990  55.3921420 116.3383000  91.9105580  55.5016760 115.5636250
  91.8734500  55.7659020 117.0538230 101.2029680  65.8777640 118.3846270
 100.7260240  66.6849830 118.1918880 100.5191470  65.2255970 118.5372480
  92.2062500  62.0427460 121.3730970  91.3091030  62.2667430 121.6204370
  92.2315370  62.1662400 120.4242370  99.2467720  58.8920580 107.2872230
  99.6861000  58.0543010 107.1410050  99.9596140  59.5249980 107.3736370
  91.0333720  58.9140780 119.9488340  90.8941490  59.7863580 120.3175740
  90.1515080  58.5713590 119.8036280  92.8314070  64.8562480 122.1573490
  92.8029500  65.2605430 121.2901920  92.6679040  63.9272840 121.9945090
 102.8284860  50.1463390 105.6013270 102.5157520  50.2390220 106.5012340
 103.5897330  50.7244420 105.5510700  89.3467000  57.5123190 110.0590610
  89.2264600  58.2385280 109.4471880  89.0367890  56.7426100 109.5818520
 104.7828890  65.6389580 123.4537660 105.2588610  66.1172470 124.1326740
 105.4036050  65.5707070 122.7283160 104.1862140  62.8302430 120.6137670
 104.3125200  62.5914310 119.6954850 104.2283520  61.9986970 121.0859750
  98.0478880  66.5330430 119.1832480  98.5623550  66.4438440 119.9854910
  97.2047960  66.8790130 119.4760390  92.5021660  66.5984300 110.3888100
  92.3264140  65.6819840 110.1755900  91.6477400  66.9571590 110.6285900
 104.0386150  54.8834890 121.5787410 103.4230420  55.3914560 121.0502870
 103.7182570  53.9833220 121.5213350 101.1004980  54.9435730 120.1746260
 100.2498570  54.6441480 120.4955330 100.9406770  55.1877740 119.2630080
  98.1954690  56.4437480 122.2745050  98.5208100  55.6101230 121.9347280
  98.9835020  56.9666000 122.4223380  98.8342640  55.9855200 109.7686180
  98.2351530  56.7091000 109.5849800  99.3822250  55.9231980 108.9862630
  86.4771680  51.2119540 114.0219660  86.1884730  51.7822400 114.7344640
  87.2217440  50.7323990 114.3850890  86.6641910  55.1539660 105.2322380
  86.5816580  56.0970420 105.3737370  86.3124970  55.0114570 104.3534730
  98.4888560  52.6658170 115.3063180  98.5061300  53.1166820 116.1505030
  98.2404140  51.7663810 115.5196620 101.9159310  50.0790350 121.1449560
 102.2405080  49.3480010 121.6707540 101.9515820  49.7603990 120.2430550
  88.6150870  61.1003930 120.5649520  88.2305660  60.4597600 121.1632480
  88.9263060  61.8040050 121.1344250  94.7648010  57.9480470 116.0458140
  95.1318140  57.4739040 116.7919480  94.5753070  58.8222040 116.3866480
  87.6288500  52.6924160 112.1751610  87.3435420  52.3279830 113.0130230
  87.5667360  51.9604620 111.5614750  97.2235950  60.2624520 120.6404590
  97.1573260  59.3420190 120.3862180  96.5941090  60.3599960 121.3549230
 100.0175480  55.9573070 107.1927140 100.9055100  56.2690300 107.0178480
  99.9880570  55.0845320 106.8007720  91.1266570  60.8630480 112.5988010
  91.6445240  60.0598740 112.5444900  90.6750590  60.8009620 113.4404840
  96.0136070  62.1296760 107.8715310  96.3551770  62.8738990 107.3758630
  95.1848780  62.4427880 108.2340140  91.8124230  58.2876090 122.3953260
  91.5124370  58.4333270 121.4981080  92.5835470  57.7281380 122.3026650
  97.1552680  63.0845090 120.3908390  97.1697220  62.1526050 120.1727300
  96.4477780  63.1704850 121.0298160 102.2889750  57.2684910 106.6607000
 102.2053470  57.6999130 105.8103440 103.0083940  57.7283260 107.0933820
  87.1219160  57.8283110 106.1348310  87.9914010  58.1107910 106.4184230
  86.6309480  58.6418980 106.0197120  96.5886580  64.7262660 117.4848890
  97.2328800  64.9322040 118.1622310  96.9516020  63.9651060 117.0319740
  90.1865750  49.5593970 110.7279110  90.0580380  49.5511870 111.6764030
  89.3627770  49.8977060 110.3770120  99.6356280  63.5289910 119.4062400
  99.9712520  64.1156600 120.0840320  98.7156620  63.3982620 119.6360190
  87.4890410  67.0410490 106.7009940  87.8488050  67.6399830 106.0467210
  87.3482750  67.5870380 107.4744970  87.1859680  51.3185090 120.1885810
  86.4718200  51.5182010 120.7938420  87.6054720  50.5424660 120.5600610
  95.4644860  63.5781240 122.5750460  95.1441730  62.8590480 123.1196150
  94.7903220  64.2536310 122.6486520  93.5059030  64.4241690 107.5183610
  93.4969130  65.1571380 106.9028120  92.5857390  64.1773270 107.6110570
 102.0460490  52.7664340 108.7474820 101.4173650  52.8710010 108.0333050
 101.5512410  52.9861120 109.5368700  96.4918630  64.4869930 106.1808800
  96.5930610  64.2833920 105.2510780  95.5920370  64.2328210 106.3856580
  98.0459950  51.7700950 111.6028490  97.9227730  51.7887080 110.6538000
  98.9944510  51.8179890 111.7226890 102.8467310  52.6814950 119.0053620
 102.3440910  53.4220350 119.3447430 103.6623970  53.0698950 118.6890410
 103.1414900  65.0956980 114.1269240 103.2662320  65.9188150 114.5993050
 104.0080460  64.8847710 113.7793390  90.6132430  67.1888190 113.7986370
  91.3494910  66.6403650 114.0694940  90.9973350  68.0544200 113.6592360
  93.7234740  66.3618500 105.6211940  94.5163350  66.6507330 105.1693730
  93.2039090  65.9310670 104.9424420  98.4555340  62.4814130 122.9347360
  97.8493500  62.5045730 122.1943110  98.1509450  61.7497170 123.4714610
  99.8855710  66.2094420 121.5456770 100.8377460  66.1252440 121.4957010
  99.7383930  66.8736130 122.2190560  94.2412140  61.5821910 105.4854290
  94.1362780  60.9674260 106.2115670  94.0736360  61.0587800 104.7017300
  94.3926460  60.2678710 121.4643520  93.6272130  60.8363710 121.3798190
  94.5742420  59.9754920 120.5711750  97.4814870  60.6441940 106.0896280
  96.9324970  61.0911240 106.7339020  98.1034130  60.1391190 106.6133950
 101.5349810  61.9984040 122.0218540 102.2759280  62.3359800 121.5186000
 100.7722490  62.1676100 121.4688310 100.2095470  60.0498870 120.5573750
 100.6236490  60.2043950 121.4064170  99.2746470  60.1754090 120.7199530
 100.6817640  57.3895030 122.5612900 101.2638410  56.6347350 122.4733380
 100.8579410  57.9202470 121.7844380  94.9710700  60.0019350 118.5269680
  95.3898810  60.8452080 118.3545920  94.0519330  60.1391390 118.2976460
  97.3074600  57.7335530 119.9107520  97.4270810  57.1376670 120.6502360
  98.1668600  57.7705220 119.4908820  92.8218120  66.3072360 119.6427410
  92.2839210  67.0318420 119.3236110  93.0752080  65.8302700 118.8524750
  98.8936800  53.8922690 121.4016360  98.2052320  53.2304230 121.3366350
  99.6142820  53.4460960 121.8464820  99.5237200  50.4874320 107.4606620
  99.8039490  49.6442220 107.8166040  98.7502930  50.7197430 107.9745370
  95.6780330  67.5423570 119.9014060  95.6039030  68.4458710 120.2086430
  94.7759170  67.2235470 119.8736130  96.2265660  66.7082080 107.5240420
  97.1216450  67.0467050 107.5459180  96.2583290  65.9861490 106.8964700
  89.8661820  62.0809130 105.7527420  90.3036690  62.6238800 106.4085000
  90.3509550  61.2556080 105.7623760  87.5697830  65.7368750 115.9429310
  87.1328820  65.9169550 116.7753460  88.1375510  66.4943370 115.8011030
 103.2060010  65.2385750 120.2306620 102.6062000  65.2978310 119.4870540
 103.3353910  64.2990730 120.3603470 101.8911650  61.9637730 118.3282780
 101.0771490  62.3934890 118.5908570 102.2985850  62.5756140 117.7151830
 100.3512700  53.0430270 106.5236680 100.7697580  52.8561250 105.6833340
 100.0448760  52.1909320 106.8339610  88.8061710  50.5692780 105.1940550
  89.5289840  51.1101720 105.5121770  89.0786230  50.2956200 104.3182090
 102.6153360  55.4385250 109.4612130 103.1112480  55.2056120 110.2461010
 102.4169430  54.5997090 109.0449770  88.4953900  49.8198970 115.0963170
  89.1430090  49.2696350 114.6558330  88.9155740  50.0742120 115.9178980
 104.0440520  54.0746200 111.9949810 103.9339800  53.9202240 112.9332080
 104.8048110  53.5467140 111.7525220 102.3906240  50.0140330 118.4532810
 103.0278460  50.6274470 118.8192000 102.5381130  50.0500990 117.5082040
 104.9330790  51.9054120 105.2355950 105.8580100  51.7735300 105.0274240
 104.9106580  51.9846940 106.1892400 105.0069280  52.6764780 107.8612660
 104.2120780  52.6109900 108.3905570 105.2112560  53.6115420 107.8498010
 101.9487700  66.7156330 111.8551050 102.5446770  66.3940900 111.1785470
 102.2065850  66.2428150 112.6464320  88.2485900  49.9754640 117.8388490
  87.9000720  50.4318460 118.6046670  87.9173600  49.0811770 117.9210920
  89.8550270  63.1474240 122.0041680  89.8119900  62.7767150 122.8856140
  89.9861280  64.0851810 122.1443500  93.5556300  64.7033830 117.6051400
  93.3147660  64.9708390 116.7181920  94.4958940  64.8739560 117.6602260
 104.8160460  66.7228210 118.4062040 104.3218740  67.1197080 117.6889170
 104.2073750  66.0977420 118.7999320  88.9206540  49.5030840 121.1139260
  89.4689530  49.3218890 120.3505370  88.9861850  48.7124950 121.6495570
  89.6938300  66.0936490 119.1239460  89.0998620  65.9621190 119.8629500
  89.6862140  65.2574630 118.6581560  99.1393320  49.3868720 117.3269490
  98.2653160  49.7203830 117.1242420  99.0304070  48.9141900 118.1521360
 100.0465300  51.5939590 118.7111210  99.7178660  50.7791350 118.3312940
 100.9947600  51.5509400 118.5876900 102.4999910  67.3651630 115.6848780
 102.0402880  68.1167440 115.3106800 101.8712370  66.6458100 115.6263580
  89.3250530  63.4594870 118.0747500  88.5984590  62.8400160 118.0073450
  89.3859680  63.8535480 117.2045580  96.8868140  50.3038560 116.2662400
  96.1039930  50.7784060 116.5459160  96.5931070  49.3993390 116.1575580
 101.4389210  51.0061660 114.3111490 101.8797300  50.9506760 113.4633090
 101.1696800  51.9219670 114.3821670 103.3027780  50.6376900 112.3220310
 103.2416180  49.6938120 112.1751330 104.0819810  50.7456990 112.8673770
  88.2308550  50.6086040 108.7876120  88.9887910  50.7214920 108.2140150
  87.7685720  51.4455240 108.7419550  99.2747340  49.3867760 113.0161500
  99.8776710  49.9587970 113.4910020  98.5340330  49.9507200 112.7935400
 102.4181940  49.7889320 108.2901780 102.6132570  50.6872770 108.5569210
 101.6311810  49.5576400 108.7834730  95.7363490  67.4864460 123.0534090
  96.6630800  67.2508730 123.0970050  95.7213920  68.3136460 122.5720120
 103.9708550  67.0290030 110.0508340 104.1460740  66.3427770 109.4069260
 103.2730120  67.5537080 109.6585010  91.8136200  67.4184870 107.6043650
  92.5455020  67.1344150 107.0567540  92.0729870  67.1798150 108.4943030
  99.5242560  49.5662790 123.3956440  99.4108010  49.8857400 124.2907960
 100.3412300  49.9675300 123.0993720 102.3041050  66.7134320 122.8775130
 103.0966370  66.2183550 122.6701090 102.5974200  67.3924460 123.4850740
  90.5784580  59.6754090  96.5176210  89.7469460  59.4202800  96.9172720
  91.1865560  59.7464860  97.2534130 100.5826180  63.7694470  94.4199580
 100.1207710  62.9981710  94.7486750 101.3951730  63.7960540  94.9252030
  90.5585840  63.7094180  96.7134230  90.8613880  62.8191920  96.5344450
  91.3029430  64.2664400  96.4856480  88.9876530  54.6355980  90.3018600
  88.0993230  54.9771950  90.1998480  89.2717720  54.4356300  89.4099430
  86.9509540  57.2361630  96.1858300  87.5225650  56.4683830  96.1861940
  86.9511080  57.5350390  95.2764910  96.8089490  66.0552480  94.0403570
  96.1900930  66.5109980  93.4698010  97.6641270  66.2103940  93.6393270
  88.1934410  52.6445990  97.9727230  88.0137250  51.7471740  98.2529990
  87.7914490  53.1917860  98.6474180  91.1637920  53.2187480  91.3356980
  91.2704670  54.1191210  91.6425740  90.2530280  53.1705450  91.0451630
  88.8121080  55.1406490  96.5809570  89.4931190  55.4044860  97.1996970
  88.4969130  54.3007360  96.9147580  93.0045650  56.1873850  95.6682160
  93.5123870  56.6854820  96.3087180  93.5358890  55.4109050  95.4921520
 105.1056580  54.3579040  99.3711510 104.4008750  54.7460750  98.8526620
 105.3714500  55.0529330  99.9732440  91.2881750  50.8272410  99.9345580
  91.2900190  51.3444800  99.1291480  90.4586060  50.3502590  99.9115510
  97.6752840  60.9391720  91.4335480  97.0570110  61.4041170  90.8698200
  98.1876090  61.6319200  91.8504990  92.5384600  60.4667590  98.1119080
  92.2053980  61.0936510  98.7540150  92.7151280  60.9929470  97.3320750
  90.9697080  52.5382370  97.9416030  91.3113890  53.3824420  97.6469900
  90.0312890  52.6866110  98.0581370  91.7503700  62.4348390  99.9268260
  92.3677700  63.1099470  99.6452710  90.8896820  62.8436370  99.8355760
 100.2040030  65.7431930  96.5568080 100.2167190  65.3394220  95.6890340
  99.6515250  66.5179220  96.4529510 101.4985450  62.4648150  91.6458250
 101.3881780  61.5222480  91.7707670 101.4953700  62.8263790  92.5321010
  97.0405730  58.0913470  91.0020740  96.1135010  58.0250850  91.2309210
  97.1930550  59.0293600  90.8875980  97.0274810  54.3630470  87.9987900
  96.0878480  54.5244430  88.0840360  97.3458070  55.0816150  87.4523890
 101.0703020  59.6533770  91.5055990 100.4515440  59.3153320  90.8582290
 101.0527470  59.0093530  92.2135180  92.6462370  58.6178210  93.7840470
  92.2419370  57.9055460  93.2886370  92.7325490  58.2731450  94.6728510
  93.1144070  62.3045770  95.9479680  92.8172360  61.6991240  95.2687460
  94.0643890  62.3423080  95.8369040  91.3590990  55.3921420  97.5639510
  91.9105580  55.5016760  96.7892760  91.8734500  55.7659020  98.2794740
 101.2029680  65.8777640  99.6102780 100.7260240  66.6849830  99.4175390
 100.5191470  65.2255970  99.7628990  92.2062500  62.0427460 102.5987480
  91.3091030  62.2667430 102.8460880  92.2315370  62.1662400 101.6498880
  99.2467720  58.8920580  88.5128740  99.6861000  58.0543010  88.3666560
  99.9596140  59.5249980  88.5992880  91.0333720  58.9140780 101.1744850
  90.8941490  59.7863580 101.5432250  90.1515080  58.5713590 101.0292790
  97.3563100  63.8316650  92.4809980  97.7959010  64.5740980  92.0665370
  97.2949990  64.0743220  93.4048940  92.8314070  64.8562480 103.3830000
  92.8029500  65.2605430 102.5158430  92.6679040  63.9272840 103.2201600
 102.8284860  50.1463390  86.8269780 102.5157520  50.2390220  87.7268850
 103.5897330  50.7244420  86.7767210 104.7828890  65.6389580 104.6794170
 105.2588610  66.1172470 105.3583250 105.4036050  65.5707070 103.9539670
  86.9852370  60.6838330  97.0915760  87.0632790  60.8187100  96.1471480
  87.5994050  59.9754220  97.2843880  88.2300000  62.3838520  93.5021940
  87.8228080  62.5253110  92.6475540  89.1213010  62.0998680  93.2993150
  98.0478880  66.5330430 100.4088990  98.5623550  66.4438440 101.2111420
  97.2047960  66.8790130 100.7016900 100.0233280  66.8185770  89.8372990
  99.8634420  66.5288710  90.7354820  99.8579990  66.0425900  89.3018220
  92.5021660  66.5984300  91.6144610  92.3264140  65.6819840  91.4012410
  91.6477400  66.9571590  91.8542410  99.7259410  64.3273330  88.3970990
  99.0324570  64.3250620  87.7373270 100.4682270  63.9032650  87.9665160
  99.2909340  65.9536040  92.4719480  99.7466290  65.1725420  92.7858100
  99.6301860  66.6642860  93.0160660 104.0386150  54.8834890 102.8043920
 103.4230420  55.3914560 102.2759380 103.7182570  53.9833220 102.7469860
  91.8130660  50.8558260  94.6670790  91.3698810  51.6367800  94.3355310
  92.3715650  51.1788150  95.3741730  98.1954690  56.4437480 103.5001560
  98.5208100  55.6101230 103.1603790  98.9835020  56.9666000 103.6479890
  94.9289480  50.4768960  89.5476620  94.3043660  50.4728830  90.2729930
  94.8419600  49.6099920  89.1512590  93.8506560  51.4005590  96.5260390
  94.1478890  52.3068420  96.4452410  94.3992120  50.9124370  95.9119960
  91.6044880  55.9791830  92.3952040  91.3785800  55.7629000  93.2998660
  90.8237410  56.4120290  92.0498010  89.1754630  53.2891080 101.2146090
  88.7818020  54.1366290 101.4218870  88.4873030  52.6517450 101.4054730
  86.4771680  51.2119540  95.2476170  86.1884730  51.7822400  95.9601150
  87.2217440  50.7323990  95.6107400  94.4640040  53.8878690  95.5249240
  94.4676100  53.4468640  94.6753780  95.3591160  54.2096020  95.6321060
  90.3142420  53.7705180  94.4843450  89.9742470  54.2480410  95.2410500
  89.5519740  53.3170300  94.1244550  94.5260190  54.8890770  88.5156000
  94.6473010  54.8477250  89.4641820  94.1408700  55.7514920  88.3602730
  93.5381690  57.1991910  87.9139300  92.9698590  56.7510160  87.2875210
  94.2470690  57.5584690  87.3804450 101.9159310  50.0790350 102.3706070
 102.2405080  49.3480010 102.8964050 101.9515820  49.7603990 101.4687060
  88.6150870  61.1003930 101.7906030  88.2305660  60.4597600 102.3888990
  88.9263060  61.8040050 102.3600760  94.7648010  57.9480470  97.2714650
  95.1318140  57.4739040  98.0175990  94.5753070  58.8222040  97.6122990
  87.6288500  52.6924160  93.4008120  87.3435420  52.3279830  94.2386740
  87.5667360  51.9604620  92.7871260  92.5547380  56.9889110  99.5898860
  92.2504450  57.8681090  99.8149220  93.5093840  57.0488900  99.6256300
  97.2235950  60.2624520 101.8661100  97.1573260  59.3420190 101.6118690
  96.5941090  60.3599960 102.5805740 100.0175480  55.9573070  88.4183650
 100.9055100  56.2690300  88.2434990  99.9880570  55.0845320  88.0264230
  91.1266570  60.8630480  93.8244520  91.6445240  60.0598740  93.7701410
  90.6750590  60.8009620  94.6661350  88.6111110  57.8291850 100.7370220
  88.2526050  58.4945700 101.3243560  88.3165670  56.9975400 101.1082840
  97.1552680  63.0845090 101.6164900  97.1697220  62.1526050 101.3983810
  96.4477780  63.1704850 102.2554670 102.2889750  57.2684910  87.8863510
 102.2053470  57.6999130  87.0359950 103.0083940  57.7283260  88.3190330
 103.3663890  59.7252430 100.9633480 102.6412080  60.3181210 100.7662870
 103.8939350  59.7175970 100.1646850 103.3177000  64.1227170  90.6145640
 102.6753160  63.4682790  90.8889360 102.9307660  64.5282260  89.8386310
  94.9826760  62.2110290  91.8687740  95.6697890  62.7579500  92.2495330
  94.1959180  62.7551020  91.9037350  94.2853970  59.2156320  91.4813100
  94.7416750  60.0261570  91.7073290  93.9342180  58.8979460  92.3131590
  96.5886580  64.7262660  98.7105400  97.2328800  64.9322040  99.3878820
  96.9516020  63.9651060  98.2576250  90.1865750  49.5593970  91.9535620
  90.0580380  49.5511870  92.9020540  89.3627770  49.8977060  91.6026630
 101.7074380  63.0143630  87.1521990 101.4811960  62.2974070  87.7446630
 101.3170580  62.7656070  86.3143740  99.6356280  63.5289910 100.6318910
  99.9712520  64.1156600 101.3096830  98.7156620  63.3982620 100.8616700
  87.1859680  51.3185090 101.4142320  86.4718200  51.5182010 102.0194930
  87.6054720  50.5424660 101.7857120 101.2890630  60.9315570  88.8136150
 101.0012330  61.3928260  89.6014030 102.0842800  60.4713340  89.0820370
  87.4732270  65.3065350 102.4008850  87.5823390  64.3660090 102.2604240
  86.8212830  65.5720100 101.7522580  95.4644860  63.5781240 103.8006970
  95.1441730  62.8590480 104.3452660  94.7903220  64.2536310 103.8743030
  96.4918630  64.4869930  87.4065310  96.5930610  64.2833920  86.4767290
  95.5920370  64.2328210  87.6113090  94.0144520  55.0450290  91.3889210
  93.3060670  55.5136630  91.8302820  94.2989000  54.3872300  92.0234400
  95.1336740  67.0056250  92.1012980  95.3878240  66.9677640  91.1792350
  94.1849220  66.8789580  92.0941230  92.2179540  53.3535370  88.7639920
  93.0670070  53.7905520  88.6980110  91.8510810  53.6655630  89.5911980
  90.6132430  67.1888190  95.0242880  91.3494910  66.6403650  95.2951450
  90.9973350  68.0544200  94.8848870  89.6190710  66.3734260 104.2128460
  90.4203440  66.6946310 104.6263860  89.1042530  66.0129840 104.9348370
  98.4555340  62.4814130 104.1603870  97.8493500  62.5045730 103.4199620
  98.1509450  61.7497170 104.6971120 102.7764910  65.5888630  88.2705190
 102.4906420  65.1753770  87.4559370 102.5784460  66.5176340  88.1505710
  87.3388520  58.8607720 103.1564510  87.8427540  58.2815000 103.7280740
  86.5995940  59.1447950 103.6940880  94.3926460  60.2678710 102.6900030
  93.6272130  60.8363710 102.6054700  94.5742420  59.9754920 101.7968260
  97.4814870  60.6441940  87.3152790  96.9324970  61.0911240  87.9595530
  98.1034130  60.1391190  87.8390460 101.5349810  61.9984040 103.2475050
 102.2759280  62.3359800 102.7442510 100.7722490  62.1676100 102.6944820
  89.3711600  57.0037310 104.0514580  89.4116940  56.7051180 104.9599810
  90.2257100  57.4044920 103.8922100 100.2095470  60.0498870 101.7830260
 100.6236490  60.2043950 102.6320680  99.2746470  60.1754090 101.9456040
 100.6817640  57.3895030 103.7869410 101.2638410  56.6347350 103.6989890
 100.8579410  57.9202470 103.0100890  94.9710700  60.0019350  99.7526190
  95.3898810  60.8452080  99.5802430  94.0519330  60.1391390  99.5232970
  97.3074600  57.7335530 101.1364030  97.4270810  57.1376670 101.8758870
  98.1668600  57.7705220 100.7165330  99.6462500  58.2872720  99.7126540
  99.1197720  58.8115340  99.1091680  99.9893840  58.9200110 100.3436270
  92.0448890  55.6766090  86.1576250  91.8437950  54.8133450  86.5189590
  91.8740940  55.5899450  85.2197850  92.8218120  66.3072360 100.8683920
  92.2839210  67.0318420 100.5492620  93.0752080  65.8302700 100.0781260
  99.5237200  50.4874320  88.6863130  99.8039490  49.6442220  89.0422550
  98.7502930  50.7197430  89.2001880  90.8431690  52.7766710  86.1454130
  91.1457590  52.7834140  85.2373280  91.5826280  52.4264570  86.6421790
  95.6780330  67.5423570 101.1270570  95.6039030  68.4458710 101.4342940
  94.7759170  67.2235470 101.0992640  87.5697830  65.7368750  97.1685820
  87.1328820  65.9169550  98.0009970  88.1375510  66.4943370  97.0267540
 103.2060010  65.2385750 101.4563130 102.6062000  65.2978310 100.7127050
 103.3353910  64.2990730 101.5859980 104.4461460  62.9803570  86.7932840
 103.6154420  63.0480220  87.2640070 104.6233290  63.8707690  86.4899700
 103.9017920  59.7251050  89.2967040 104.6636830  60.2947700  89.4026730
 103.9172290  59.1578250  90.0675350  87.4022260  58.2488980  93.5274700
  86.7471100  57.9800620  92.8834400  88.2400210  58.1393460  93.0776680
 103.9537090  60.0185420  86.4539560 104.2285930  60.9264300  86.3258780
 103.7647830  59.9547950  87.3901550 100.3512700  53.0430270  87.7493190
 100.7697580  52.8561250  86.9089850 100.0448760  52.1909320  88.0596120
 103.8502430  57.9554410  91.4468990 103.4746030  57.1882340  91.0150280
 103.1205550  58.3377110  91.9343920  88.4398190  58.6341550  98.0678040
  88.8071230  58.5468950  98.9474060  87.8709010  57.8708100  97.9684900
 103.2402050  57.1025930 101.0808510 103.0088140  56.8738680 100.1806460
 103.5006600  58.0225480 101.0353400  87.9914190  55.5450640 101.9736460
  87.0970240  55.5117400 102.3130170  88.5311740  55.7437430 102.7387710
 101.6790120  52.3282360 103.8588210 102.5560300  52.3365760 104.2422210
 101.6910960  51.5913200 103.2480560  88.4953900  49.8198970  96.3219680
  89.1430090  49.2696350  95.8814840  88.9155740  50.0742120  97.1435490
 101.9487700  66.7156330  93.0807560 102.5446770  66.3940900  92.4041980
 102.2065850  66.2428150  93.8720830  88.2485900  49.9754640  99.0645000
  87.9000720  50.4318460  99.8303180  87.9173600  49.0811770  99.1467430
  89.8550270  63.1474240 103.2298190  89.8119900  62.7767150 104.1112650
  89.9861280  64.0851810 103.3700010  93.5556300  64.7033830  98.8307910
  93.3147660  64.9708390  97.9438430  94.4958940  64.8739560  98.8858770
 104.8160460  66.7228210  99.6318550 104.3218740  67.1197080  98.9145680
 104.2073750  66.0977420 100.0255830  88.9206540  49.5030840 102.3395770
  89.4689530  49.3218890 101.5761880  88.9861850  48.7124950 102.8752080
  89.6938300  66.0936490 100.3495970  89.0998620  65.9621190 101.0886010
  89.6862140  65.2574630  99.8838070 102.4999910  67.3651630  96.9105290
 102.0402880  68.1167440  96.5363310 101.8712370  66.6458100  96.8520090
  89.3250530  63.4594870  99.3004010  88.5984590  62.8400160  99.2329960
  89.3859680  63.8535480  98.4302090  92.9295630  65.6739870  96.0853420
  93.4460650  65.0627230  95.5601680  93.5793010  66.1768650  96.5764430
  95.6691130  66.5648360  96.9122400  95.9568940  66.3102660  96.0355410
  96.1814350  66.0125720  97.5027970  88.2308550  50.6086040  90.0132630
  88.9887910  50.7214920  89.4396660  87.7685720  51.4455240  89.9676060
  90.6033700  51.1350090  88.5534600  91.1326460  50.3479890  88.4242550
  91.2362020  51.8141280  88.7870130  92.7971540  50.8725230  91.6079990
  92.1674280  50.1712540  91.7750120  92.2576680  51.6329360  91.3913150
  95.7363490  67.4864460 104.2790600  96.6630800  67.2508730 104.3226560
  95.7213920  68.3136460 103.7976630 103.9708550  67.0290030  91.2764850
 104.1460740  66.3427770  90.6325770 103.2730120  67.5537080  90.8841520
  98.4300710  57.5855260  74.9847690  98.3494760  56.6709870  74.7139400
  98.0165130  58.0822330  74.2787400  96.5618750  59.3634280  76.8656960
  95.7860850  58.8834720  77.1555530  97.2131680  58.6839930  76.6913120
 100.5826180  63.7694470  75.6456090 100.1207710  62.9981710  75.9743260
 101.3951730  63.7960540  76.1508540  96.8089490  66.0552480  75.2660080
  96.1900930  66.5109980  74.6954520  97.6641270  66.2103940  74.8649780
  96.0027740  62.0391470  76.8727120  95.9336020  61.0981410  76.7116250
  96.7647600  62.1292880  77.4449690  97.0332910  54.8461850  77.0996050
  97.4097730  53.9733730  76.9869720  96.9352420  55.1820550  76.2086490
 100.8157030  52.3412290  74.0324390 101.6366650  51.8508860  74.0749870
 100.8491110  52.9309950  74.7856230 105.1056580  54.3579040  80.5968020
 104.4008750  54.7460750  80.0783130 105.3714500  55.0529330  81.1988950
  97.6752840  60.9391720  72.6591990  97.0570110  61.4041170  72.0954710
  98.1876090  61.6319200  73.0761500 101.0518510  54.2812670  76.8051930
 100.3474080  54.5697560  77.3855040 101.4130670  55.0912780  76.4451490
 102.6681290  63.8987800  79.0679410 101.9844810  64.5686910  79.0596080
 103.2075580  64.0968450  78.3024270 104.1205430  53.7267460  77.1961140
 103.1730340  53.7606440  77.3276570 104.4455420  54.5406410  77.5810500
  94.6524970  50.0264640  75.4917130  94.9599950  49.4711530  74.7752630
  93.7225670  50.1609100  75.3090120 100.2040030  65.7431930  77.7824590
 100.2167190  65.3394220  76.9146850  99.6515250  66.5179220  77.6786020
 101.4985450  62.4648150  72.8714760 101.3881780  61.5222480  72.9964180
 101.4953700  62.8263790  73.7577520  99.6025470  60.6461770  79.1107200
 100.0194260  60.4321880  78.2760660 100.3265290  60.9034560  79.6815820
 103.5487570  59.0448990  79.2023440 102.7206200  59.1142080  78.7273570
 104.1438050  59.6303300  78.7339270 101.0703020  59.6533770  72.7312500
 100.4515440  59.3153320  72.0838800 101.0527470  59.0093530  73.4391690
 100.5129580  55.8318310  80.1478310 100.1000760  56.6572020  80.4018300
  99.7805530  55.2463350  79.9554670 101.2029680  65.8777640  80.8359290
 100.7260240  66.6849830  80.6431900 100.5191470  65.2255970  80.9885500
  97.3563100  63.8316650  73.7066490  97.7959010  64.5740980  73.2921880
  97.2949990  64.0743220  74.6305450 104.7828890  65.6389580  85.9050680
 105.2588610  66.1172470  86.5839760 105.4036050  65.5707070  85.1796180
 104.1862140  62.8302430  83.0650690 104.3125200  62.5914310  82.1467870
 104.2283520  61.9986970  83.5372770  98.0478880  66.5330430  81.6345500
  98.5623550  66.4438440  82.4367930  97.2047960  66.8790130  81.9273410
 100.0233280  66.8185770  71.0629500  99.8634420  66.5288710  71.9611330
  99.8579990  66.0425900  70.5274730  92.5021660  66.5984300  72.8401120
  92.3264140  65.6819840  72.6268920  91.6477400  66.9571590  73.0798920
  99.2909340  65.9536040  73.6975990  99.7466290  65.1725420  74.0114610
  99.6301860  66.6642860  74.2417170 104.0386150  54.8834890  84.0300430
 103.4230420  55.3914560  83.5015890 103.7182570  53.9833220  83.9726370
  96.1000470  53.7226780  81.4962620  95.6379840  53.9309800  82.3082560
  95.6978580  52.9086130  81.1933290 101.1004980  54.9435730  82.6259280
 100.2498570  54.6441480  82.9468350 100.9406770  55.1877740  81.7143100
  98.1954690  56.4437480  84.7258070  98.5208100  55.6101230  84.3860300
  98.9835020  56.9666000  84.8736400  93.8506560  51.4005590  77.7516900
  94.1478890  52.3068420  77.6708920  94.3992120  50.9124370  77.1376470
  98.8342640  55.9855200  72.2199200  98.2351530  56.7091000  72.0362820
  99.3822250  55.9231980  71.4375650  97.4407510  54.6218740  74.2502480
  97.8337080  54.9390940  73.4371170  97.8024360  53.7430620  74.3647000
  98.0262650  57.2124490  78.3453260  97.2943770  57.7211300  78.6943360
  97.6286990  56.3954470  78.0442040  98.4888560  52.6658170  77.7576200
  98.5061300  53.1166820  78.6018050  98.2404140  51.7663810  77.9709640
 101.8417150  60.1915460  77.2048610 102.5616270  60.6870750  76.8144720
 101.6398970  59.5133350  76.5602480  97.3027090  51.5853420  71.3478000
  96.4891700  51.0866590  71.2723310  97.1089040  52.4251670  70.9314350
  97.2235950  60.2624520  83.0917610  97.1573260  59.3420190  82.8375200
  96.5941090  60.3599960  83.8062250 100.0175480  55.9573070  69.6440160
 100.9055100  56.2690300  69.4691500  99.9880570  55.0845320  69.2520740
 102.2889750  57.2684910  69.1120020 102.2053470  57.6999130  68.2616460
 103.0083940  57.7283260  69.5446840 103.3663890  59.7252430  82.1889990
 102.6412080  60.3181210  81.9919380 103.8939350  59.7175970  81.3903360
 103.3177000  64.1227170  71.8402150 102.6753160  63.4682790  72.1145870
 102.9307660  64.5282260  71.0642820  98.8963480  61.4512600  75.6873840
  99.2487300  60.8540730  75.0275210  98.0125810  61.1256830  75.8582090
  94.9826760  62.2110290  73.0944250  95.6697890  62.7579500  73.4751840
  94.1959180  62.7551020  73.1293860  97.8618660  62.7295010  78.6539360
  98.5040890  62.0288170  78.7671530  98.3868010  63.5093450  78.4736250
 101.7074380  63.0143630  68.3778500 101.4811960  62.2974070  68.9703140
 101.3170580  62.7656070  67.5400250  99.6356280  63.5289910  81.8575420
  99.9712520  64.1156600  82.5353340  98.7156620  63.3982620  82.0873210
 101.2890630  60.9315570  70.0392660 101.0012330  61.3928260  70.8270540
 102.0842800  60.4713340  70.3076880  98.6798460  53.8107400  80.3900280
  99.0479280  52.9902610  80.7179850  97.8196660  53.8709290  80.8055930
 102.0460490  52.7664340  71.1987840 101.4173650  52.8710010  70.4846070
 101.5512410  52.9861120  71.9881720  95.6400450  56.4646990  80.6138250
  96.1385700  56.9392810  81.2790100  95.7823400  55.5410510  80.8208280
  98.0459950  51.7700950  74.0541510  97.9227730  51.7887080  73.1051020
  98.9944510  51.8179890  74.1739910  95.1336740  67.0056250  73.3269490
  95.3878240  66.9677640  72.4048860  94.1849220  66.8789580  73.3197740
 102.8467310  52.6814950  81.4566640 102.3440910  53.4220350  81.7960450
 103.6623970  53.0698950  81.1403430 101.1389320  57.9248130  74.9028000
 100.1979460  57.9398360  75.0775690 101.4533390  57.1384090  75.3488300
  98.4555340  62.4814130  85.3860380  97.8493500  62.5045730  84.6456130
  98.1509450  61.7497170  85.9227630  99.8855710  66.2094420  83.9969790
 100.8377460  66.1252440  83.9470030  99.7383930  66.8736130  84.6703580
 102.7764910  65.5888630  69.4961700 102.4906420  65.1753770  68.6815880
 102.5784460  66.5176340  69.3762220 101.5349810  61.9984040  84.4731560
 102.2759280  62.3359800  83.9699020 100.7722490  62.1676100  83.9201330
 100.2095470  60.0498870  83.0086770 100.6236490  60.2043950  83.8577190
  99.2746470  60.1754090  83.1712550 100.6817640  57.3895030  85.0125920
 101.2638410  56.6347350  84.9246400 100.8579410  57.9202470  84.2357400
  91.7989710  52.5491780  83.3242870  91.7046580  51.9312530  82.5993740
  91.2187100  53.2758070  83.0972780  94.5651150  51.1065020  80.3570260
  94.1168450  51.1289280  79.5115810  93.9316350  50.7084040  80.9540560
  97.3074600  57.7335530  82.3620540  97.4270810  57.1376670  83.1015380
  98.1668600  57.7705220  81.9421840  99.6462500  58.2872720  80.9383050
  99.1197720  58.8115340  80.3348190  99.9893840  58.9200110  81.5692780
  94.0743370  54.2756880  83.6196360  94.6643060  53.9672730  84.3074180
  93.2563610  53.8036630  83.7756260  99.5237200  50.4874320  69.9119640
  99.8039490  49.6442220  70.2679060  98.7502930  50.7197430  70.4258390
 103.2060010  65.2385750  82.6819640 102.6062000  65.2978310  81.9383560
 103.3353910  64.2990730  82.8116490 104.4461460  62.9803570  68.0189350
 103.6154420  63.0480220  68.4896580 104.6233290  63.8707690  67.7156210
 103.9017920  59.7251050  70.5223550 104.6636830  60.2947700  70.6283240
 103.9172290  59.1578250  71.2931860 104.9077890  60.5801150  75.3665480
 105.2786720  59.7968470  74.9601450 105.5479820  61.2690250  75.1882780
 101.8911650  61.9637730  80.7795800 101.0771490  62.3934890  81.0421590
 102.2985850  62.5756140  80.1664850 103.9537090  60.0185420  67.6796070
 104.2285930  60.9264300  67.5515290 103.7647830  59.9547950  68.6158060
 100.3512700  53.0430270  68.9749700 100.7697580  52.8561250  68.1346360
 100.0448760  52.1909320  69.2852630 103.8502430  57.9554410  72.6725500
 103.4746030  57.1882340  72.2406790 103.1205550  58.3377110  73.1600430
 103.2402050  57.1025930  82.3065020 103.0088140  56.8738680  81.4062970
 103.5006600  58.0225480  82.2609910 101.6790120  52.3282360  85.0844720
 102.5560300  52.3365760  85.4678720 101.6910960  51.5913200  84.4737070
 103.1253390  56.1811900  75.9732740 103.6490870  55.6874550  75.3422910
 103.7112810  56.3162260  76.7180310 103.3043110  56.2651770  79.4952290
 102.3545820  56.2315310  79.6097280 103.4856120  57.1751880  79.2602060
 102.6153360  55.4385250  71.9125150 103.1112480  55.2056120  72.6974030
 102.4169430  54.5997090  71.4962790 104.0440520  54.0746200  74.4462830
 103.9339800  53.9202240  75.3845100 104.8048110  53.5467140  74.2038240
 102.3906240  50.0140330  80.9045830 103.0278460  50.6274470  81.2705020
 102.5381130  50.0500990  79.9595060 104.9330790  51.9054120  67.6868970
 105.8580100  51.7735300  67.4787260 104.9106580  51.9846940  68.6405420
 105.0069280  52.6764780  70.3125680 104.2120780  52.6109900  70.8418590
 105.2112560  53.6115420  70.3011030 101.9487700  66.7156330  74.3064070
 102.5446770  66.3940900  73.6298490 102.2065850  66.2428150  75.0977340
 100.0465300  51.5939590  81.1624230  99.7178660  50.7791350  80.7825960
 100.9947600  51.5509400  81.0389920 102.4999910  67.3651630  78.1361800
 102.0402880  68.1167440  77.7619820 101.8712370  66.6458100  78.0776600
  96.8868140  50.3038560  78.7175420  96.1039930  50.7784060  78.9972180
  96.5931070  49.3993390  78.6088600 101.4389210  51.0061660  76.7624510
 101.8797300  50.9506760  75.9146110 101.1696800  51.9219670  76.8334690
 103.3027780  50.6376900  74.7733330 103.2416180  49.6938120  74.6264350
 104.0819810  50.7456990  75.3186790  99.2747340  49.3867760  75.4674520
  99.8776710  49.9587970  75.9423040  98.5340330  49.9507200  75.2448420
 103.9708550  67.0290030  72.5021360 104.1460740  66.3427770  71.8582280
 103.2730120  67.5537080  72.1098030 102.3041050  66.7134320  85.3288150
 103.0966370  66.2183550  85.1214110 102.5974200  67.3924460  85.9363760
  98.4300710  57.5855260  56.2104200  98.3494760  56.6709870  55.9395910
  98.0165130  58.0822330  55.5043910 100.5826180  63.7694470  56.8712600
 100.1207710  62.9981710  57.1999770 101.3951730  63.7960540  57.3765050
 100.8157030  52.3412290  55.2580900 101.6366650  51.8508860  55.3006380
 100.8491110  52.9309950  56.0112740 105.1056580  54.3579040  61.8224530
 104.4008750  54.7460750  61.3039640 105.3714500  55.0529330  62.4245460
 101.0518510  54.2812670  58.0308440 100.3474080  54.5697560  58.6111550
 101.4130670  55.0912780  57.6708000 102.6681290  63.8987800  60.2935920
 101.9844810  64.5686910  60.2852590 103.2075580  64.0968450  59.5280780
 104.1205430  53.7267460  58.4217650 103.1730340  53.7606440  58.5533080
 104.4455420  54.5406410  58.8067010 100.2040030  65.7431930  59.0081100
 100.2167190  65.3394220  58.1403360  99.6515250  66.5179220  58.9042530
 101.4985450  62.4648150  54.0971270 101.3881780  61.5222480  54.2220690
 101.4953700  62.8263790  54.9834030  99.6025470  60.6461770  60.3363710
 100.0194260  60.4321880  59.5017170 100.3265290  60.9034560  60.9072330
  97.0405730  58.0913470  53.4533760  96.1135010  58.0250850  53.6822230
  97.1930550  59.0293600  53.3389000  97.0274810  54.3630470  50.4500920
  96.0878480  54.5244430  50.5353380  97.3458070  55.0816150  49.9036910
 103.5487570  59.0448990  60.4279950 102.7206200  59.1142080  59.9530080
 104.1438050  59.6303300  59.9595780 101.0703020  59.6533770  53.9569010
 100.4515440  59.3153320  53.3095310 101.0527470  59.0093530  54.6648200
 101.2029680  65.8777640  62.0615800 100.7260240  66.6849830  61.8688410
 100.5191470  65.2255970  62.2142010  99.2467720  58.8920580  50.9641760
  99.6861000  58.0543010  50.8179580  99.9596140  59.5249980  51.0505900
 102.8284860  50.1463390  49.2782800 102.5157520  50.2390220  50.1781870
 103.5897330  50.7244420  49.2280230 104.7828890  65.6389580  67.1307190
 105.2588610  66.1172470  67.8096270 105.4036050  65.5707070  66.4052690
 104.1862140  62.8302430  64.2907200 104.3125200  62.5914310  63.3724380
 104.2283520  61.9986970  64.7629280  98.0478880  66.5330430  62.8602010
  98.5623550  66.4438440  63.6624440  97.2047960  66.8790130  63.1529920
 104.0386150  54.8834890  65.2556940 103.4230420  55.3914560  64.7272400
 103.7182570  53.9833220  65.1982880  98.8342640  55.9855200  53.4455710
  98.2351530  56.7091000  53.2619330  99.3822250  55.9231980  52.6632160
 101.8417150  60.1915460  58.4305120 102.5616270  60.6870750  58.0401230
 101.6398970  59.5133350  57.7858990  97.3027090  51.5853420  52.5734510
  96.4891700  51.0866590  52.4979820  97.1089040  52.4251670  52.1570860
 100.0175480  55.9573070  50.8696670 100.9055100  56.2690300  50.6948010
  99.9880570  55.0845320  50.4777250 102.2889750  57.2684910  50.3376530
 102.2053470  57.6999130  49.4872970 103.0083940  57.7283260  50.7703350
 103.3663890  59.7252430  63.4146500 102.6412080  60.3181210  63.2175890
 103.8939350  59.7175970  62.6159870 103.3177000  64.1227170  53.0658660
 102.6753160  63.4682790  53.3402380 102.9307660  64.5282260  52.2899330
  98.8963480  61.4512600  56.9130350  99.2487300  60.8540730  56.2531720
  98.0125810  61.1256830  57.0838600 101.7074380  63.0143630  49.6035010
 101.4811960  62.2974070  50.1959650 101.3170580  62.7656070  48.7656760
  99.6356280  63.5289910  63.0831930  99.9712520  64.1156600  63.7609850
  98.7156620  63.3982620  63.3129720 101.2890630  60.9315570  51.2649170
 101.0012330  61.3928260  52.0527050 102.0842800  60.4713340  51.5333390
 102.0460490  52.7664340  52.4244350 101.4173650  52.8710010  51.7102580
 101.5512410  52.9861120  53.2138230  98.0459950  51.7700950  55.2798020
  97.9227730  51.7887080  54.3307530  98.9944510  51.8179890  55.3996420
 101.1389320  57.9248130  56.1284510 100.1979460  57.9398360  56.3032200
 101.4533390  57.1384090  56.5744810 103.1414900  65.0956980  57.8038770
 103.2662320  65.9188150  58.2762580 104.0080460  64.8847710  57.4562920
  93.7234740  66.3618500  49.2981470  94.5163350  66.6507330  48.8463260
  93.2039090  65.9310670  48.6193950  99.8855710  66.2094420  65.2226300
 100.8377460  66.1252440  65.1726540  99.7383930  66.8736130  65.8960090
 102.7764910  65.5888630  50.7218210 102.4906420  65.1753770  49.9072390
 102.5784460  66.5176340  50.6018730  94.2412140  61.5821910  49.1623820
  94.1362780  60.9674260  49.8885200  94.0736360  61.0587800  48.3786830
  95.6617630  58.6270470  48.9108210  96.1823290  57.9119490  48.5449360
  96.3086030  59.2656340  49.2108720  99.6462500  58.2872720  62.1639560
  99.1197720  58.8115340  61.5604700  99.9893840  58.9200110  62.7949290
  92.0448890  55.6766090  48.6089270  91.8437950  54.8133450  48.9702610
  91.8740940  55.5899450  47.6710870  99.5237200  50.4874320  51.1376150
  99.8039490  49.6442220  51.4935570  98.7502930  50.7197430  51.6514900
  90.8431690  52.7766710  48.5967150  91.1457590  52.7834140  47.6886300
  91.5826280  52.4264570  49.0934810  95.6780330  67.5423570  63.5783590
  95.6039030  68.4458710  63.8855960  94.7759170  67.2235470  63.5505660
  94.0616620  51.7201330  49.5823350  93.7138620  51.0425320  49.0025800
  94.2629390  51.2590840  50.3966740  91.6769540  63.2007170  54.5419180
  91.3765080  63.0772140  55.4423090  91.5707030  62.3415760  54.1334910
 103.2060010  65.2385750  63.9076150 102.6062000  65.2978310  63.1640070
 103.3353910  64.2990730  64.0373000 104.4461460  62.9803570  49.2445860
 103.6154420  63.0480220  49.7153090 104.6233290  63.8707690  48.9412720
 103.9017920  59.7251050  51.7480060 104.6636830  60.2947700  51.8539750
 103.9172290  59.1578250  52.5188370 104.9077890  60.5801150  56.5921990
 105.2786720  59.7968470  56.1857960 105.5479820  61.2690250  56.4139290
 101.8911650  61.9637730  62.0052310 101.0771490  62.3934890  62.2678100
 102.2985850  62.5756140  61.3921360 103.9537090  60.0185420  48.9052580
 104.2285930  60.9264300  48.7771800 103.7647830  59.9547950  49.8414570
 100.3512700  53.0430270  50.2006210 100.7697580  52.8561250  49.3602870
 100.0448760  52.1909320  50.5109140 103.8502430  57.9554410  53.8982010
 103.4746030  57.1882340  53.4663300 103.1205550  58.3377110  54.3856940
 103.2402050  57.1025930  63.5321530 103.0088140  56.8738680  62.6319480
 103.5006600  58.0225480  63.4866420 103.1253390  56.1811900  57.1989250
 103.6490870  55.6874550  56.5679420 103.7112810  56.3162260  57.9436820
 103.3043110  56.2651770  60.7208800 102.3545820  56.2315310  60.8353790
 103.4856120  57.1751880  60.4858570  89.1587550  54.5153450  49.8307430
  89.8679250  54.0936670  49.3454710  88.4427490  54.5828680  49.1990780
 102.6153360  55.4385250  53.1381660 103.1112480  55.2056120  53.9230540
 102.4169430  54.5997090  52.7219300 104.0440520  54.0746200  55.6719340
 103.9339800  53.9202240  56.6101610 104.8048110  53.5467140  55.4294750
 102.3906240  50.0140330  62.1302340 103.0278460  50.6274470  62.4961530
 102.5381130  50.0500990  61.1851570 104.9330790  51.9054120  48.9125480
 105.8580100  51.7735300  48.7043770 104.9106580  51.9846940  49.8661930
 105.0069280  52.6764780  51.5382190 104.2120780  52.6109900  52.0675100
 105.2112560  53.6115420  51.5267540 101.9487700  66.7156330  55.5320580
 102.5446770  66.3940900  54.8555000 102.2065850  66.2428150  56.3233850
 104.8160460  66.7228210  62.0831570 104.3218740  67.1197080  61.3658700
 104.2073750  66.0977420  62.4768850 102.4999910  67.3651630  59.3618310
 102.0402880  68.1167440  58.9876330 101.8712370  66.6458100  59.3033110
  92.9295630  65.6739870  58.5366440  93.4460650  65.0627230  58.0114700
  93.5793010  66.1768650  59.0277450  95.6691130  66.5648360  59.3635420
  95.9568940  66.3102660  58.4868430  96.1814350  66.0125720  59.9540990
 101.4389210  51.0061660  57.9881020 101.8797300  50.9506760  57.1402620
 101.1696800  51.9219670  58.0591200 102.4181940  49.7889320  51.9671310
 102.6132570  50.6872770  52.2338740 101.6311810  49.5576400  52.4604260
 103.9708550  67.0290030  53.7277870 104.1460740  66.3427770  53.0838790
 103.2730120  67.5537080  53.3354540 102.3041050  66.7134320  66.5544660
 103.0966370  66.2183550  66.3470620 102.5974200  67.3924460  67.1620270
  98.4300710  57.5855260  37.4360710  98.3494760  56.6709870  37.1652420
  98.0165130  58.0822330  36.7300420  96.5618750  59.3634280  39.3169980
  95.7860850  58.8834720  39.6068550  97.2131680  58.6839930  39.1426140
  90.5784580  59.6754090  40.1945740  89.7469460  59.4202800  40.5942250
  91.1865560  59.7464860  40.9303660 100.5826180  63.7694470  38.0969110
 100.1207710  62.9981710  38.4256280 101.3951730  63.7960540  38.6021560
  90.5585840  63.7094180  40.3903760  90.8613880  62.8191920  40.2113980
  91.3029430  64.2664400  40.1626010  88.9876530  54.6355980  33.9788130
  88.0993230  54.9771950  33.8768010  89.2717720  54.4356300  33.0868960
  86.9509540  57.2361630  39.8627830  87.5225650  56.4683830  39.8631470
  86.9511080  57.5350390  38.9534440  96.8089490  66.0552480  37.7173100
  96.1900930  66.5109980  37.1467540  97.6641270  66.2103940  37.3162800
  96.0027740  62.0391470  39.3240140  95.9336020  61.0981410  39.1629270
  96.7647600  62.1292880  39.8962710  88.1934410  52.6445990  41.6496760
  88.0137250  51.7471740  41.9299520  87.7914490  53.1917860  42.3243710
  91.1637920  53.2187480  35.0126510  91.2704670  54.1191210  35.3195270
  90.2530280  53.1705450  34.7221160 100.8157030  52.3412290  36.4837410
 101.6366650  51.8508860  36.5262890 100.8491110  52.9309950  37.2369250
  88.8121080  55.1406490  40.2579100  89.4931190  55.4044860  40.8766500
  88.4969130  54.3007360  40.5917110  93.0045650  56.1873850  39.3451690
  93.5123870  56.6854820  39.9856710  93.5358890  55.4109050  39.1691050
 105.1056580  54.3579040  43.0481040 104.4008750  54.7460750  42.5296150
 105.3714500  55.0529330  43.6501970  91.2881750  50.8272410  43.6115110
  91.2900190  51.3444800  42.8061010  90.4586060  50.3502590  43.5885040
  97.6752840  60.9391720  35.1105010  97.0570110  61.4041170  34.5467730
  98.1876090  61.6319200  35.5274520  92.5384600  60.4667590  41.7888610
  92.2053980  61.0936510  42.4309680  92.7151280  60.9929470  41.0090280
  90.9697080  52.5382370  41.6185560  91.3113890  53.3824420  41.3239430
  90.0312890  52.6866110  41.7350900  87.0436040  61.6248250  32.4844640
  86.6664020  62.1135350  31.7529540  87.3009110  62.2973530  33.1151170
 102.6681290  63.8987800  41.5192430 101.9844810  64.5686910  41.5109100
 103.2075580  64.0968450  40.7537290 104.1205430  53.7267460  39.6474160
 103.1730340  53.7606440  39.7789590 104.4455420  54.5406410  40.0323520
  94.6524970  50.0264640  37.9430150  94.9599950  49.4711530  37.2265650
  93.7225670  50.1609100  37.7603140  97.0405730  58.0913470  34.6790270
  96.1135010  58.0250850  34.9078740  97.1930550  59.0293600  34.5645510
  92.6462370  58.6178210  37.4610000  92.2419370  57.9055460  36.9655900
  92.7325490  58.2731450  38.3498040  93.1144070  62.3045770  39.6249210
  92.8172360  61.6991240  38.9456990  94.0643890  62.3423080  39.5138570
  91.3590990  55.3921420  41.2409040  91.9105580  55.5016760  40.4662290
  91.8734500  55.7659020  41.9564270  91.0333720  58.9140780  44.8514380
  90.8941490  59.7863580  45.2201780  90.1515080  58.5713590  44.7062320
  97.3563100  63.8316650  36.1579510  97.7959010  64.5740980  35.7434900
  97.2949990  64.0743220  37.0818470 102.8284860  50.1463390  30.5039310
 102.5157520  50.2390220  31.4038380 103.5897330  50.7244420  30.4536740
  89.3467000  57.5123190  34.9616650  89.2264600  58.2385280  34.3497920
  89.0367890  56.7426100  34.4844560  86.9852370  60.6838330  40.7685290
  87.0632790  60.8187100  39.8241010  87.5994050  59.9754220  40.9613410
  88.2300000  62.3838520  37.1791470  87.8228080  62.5253110  36.3245070
  89.1213010  62.0998680  36.9762680 104.1862140  62.8302430  45.5163710
 104.3125200  62.5914310  44.5980890 104.2283520  61.9986970  45.9885790
 100.0233280  66.8185770  33.5142520  99.8634420  66.5288710  34.4124350
  99.8579990  66.0425900  32.9787750  92.5021660  66.5984300  35.2914140
  92.3264140  65.6819840  35.0781940  91.6477400  66.9571590  35.5311940
  99.7259410  64.3273330  32.0740520  99.0324570  64.3250620  31.4142800
 100.4682270  63.9032650  31.6434690  99.2909340  65.9536040  36.1489010
  99.7466290  65.1725420  36.4627630  99.6301860  66.6642860  36.6930190
 104.0386150  54.8834890  46.4813450 103.4230420  55.3914560  45.9528910
 103.7182570  53.9833220  46.4239390  91.8130660  50.8558260  38.3440320
  91.3698810  51.6367800  38.0124840  92.3715650  51.1788150  39.0511260
  94.9289480  50.4768960  33.2246150  94.3043660  50.4728830  33.9499460
  94.8419600  49.6099920  32.8282120  93.8506560  51.4005590  40.2029920
  94.1478890  52.3068420  40.1221940  94.3992120  50.9124370  39.5889490
  91.6044880  55.9791830  36.0721570  91.3785800  55.7629000  36.9768190
  90.8237410  56.4120290  35.7267540  94.0444090  56.8777410  46.7381840
  93.9487690  55.9372140  46.5882240  94.8876070  57.0992480  46.3429910
  97.4407510  54.6218740  36.7015500  97.8337080  54.9390940  35.8884190
  97.8024360  53.7430620  36.8160020  89.1754630  53.2891080  44.8915620
  88.7818020  54.1366290  45.0988400  88.4873030  52.6517450  45.0824260
  95.7499680  53.3726050  47.9612360  95.0598000  53.1798250  48.5958450
  96.4931980  53.6560690  48.4936660  86.4771680  51.2119540  38.9245700
  86.1884730  51.7822400  39.6370680  87.2217440  50.7323990  39.2876930
  86.6641910  55.1539660  30.1348420  86.5816580  56.0970420  30.2763410
  86.3124970  55.0114570  29.2560770  94.4640040  53.8878690  39.2018770
  94.4676100  53.4468640  38.3523310  95.3591160  54.2096020  39.3090590
  90.3142420  53.7705180  38.1612980  89.9742470  54.2480410  38.9180030
  89.5519740  53.3170300  37.8014080  94.5260190  54.8890770  32.1925530
  94.6473010  54.8477250  33.1411350  94.1408700  55.7514920  32.0372260
  93.5381690  57.1991910  31.5908830  92.9698590  56.7510160  30.9644740
  94.2470690  57.5584690  31.0573980 101.9159310  50.0790350  46.0475600
 102.2405080  49.3480010  46.5733580 101.9515820  49.7603990  45.1456590
  94.7648010  57.9480470  40.9484180  95.1318140  57.4739040  41.6945520
  94.5753070  58.8222040  41.2892520  87.6288500  52.6924160  37.0777650
  87.3435420  52.3279830  37.9156270  87.5667360  51.9604620  36.4640790
  92.5547380  56.9889110  43.2668390  92.2504450  57.8681090  43.4918750
  93.5093840  57.0488900  43.3025830  91.0829170  61.1950100  33.8635240
  90.3091430  60.6547720  33.7033960  91.8123800  60.6756710  33.5253000
 101.8417150  60.1915460  39.6561630 102.5616270  60.6870750  39.2657740
 101.6398970  59.5133350  39.0115500  97.3027090  51.5853420  33.7991020
  96.4891700  51.0866590  33.7236330  97.1089040  52.4251670  33.3827370
  91.1266570  60.8630480  37.5014050  91.6445240  60.0598740  37.4470940
  90.6750590  60.8009620  38.3430880  96.0136070  62.1296760  32.7741350
  96.3551770  62.8738990  32.2784670  95.1848780  62.4427880  33.1366180
  88.6111110  57.8291850  44.4139750  88.2526050  58.4945700  45.0013090
  88.3165670  56.9975400  44.7852370  91.8124230  58.2876090  47.2979300
  91.5124370  58.4333270  46.4007120  92.5835470  57.7281380  47.2052690
  97.1552680  63.0845090  45.2934430  97.1697220  62.1526050  45.0753340
  96.4477780  63.1704850  45.9324200  98.8963480  61.4512600  38.1386860
  99.2487300  60.8540730  37.4788230  98.0125810  61.1256830  38.3095110
  94.9826760  62.2110290  35.5457270  95.6697890  62.7579500  35.9264860
  94.1959180  62.7551020  35.5806880  87.1219160  57.8283110  31.0374350
  87.9914010  58.1107910  31.3210270  86.6309480  58.6418980  30.9223160
  94.2853970  59.2156320  35.1582630  94.7416750  60.0261570  35.3842820
  93.9342180  58.8979460  35.9901120  96.5886580  64.7262660  42.3874930
  97.2328800  64.9322040  43.0648350  96.9516020  63.9651060  41.9345780
  90.1865750  49.5593970  35.6305150  90.0580380  49.5511870  36.5790070
  89.3627770  49.8977060  35.2796160  87.4890410  67.0410490  31.6035980
  87.8488050  67.6399830  30.9493250  87.3482750  67.5870380  32.3771010
  87.1859680  51.3185090  45.0911850  86.4718200  51.5182010  45.6964460
  87.6054720  50.5424660  45.4626650  95.4644860  63.5781240  47.4776500
  95.1441730  62.8590480  48.0222190  94.7903220  64.2536310  47.5512560
  93.5059030  64.4241690  32.4209650  93.4969130  65.1571380  31.8054160
  92.5857390  64.1773270  32.5136610  89.1065670  59.6456580  33.1656410
  88.4993620  60.3855480  33.1751710  89.5815020  59.7355940  32.3394610
  96.4918630  64.4869930  31.0834840  96.5930610  64.2833920  30.1536820
  95.5920370  64.2328210  31.2882620  94.0144520  55.0450290  35.0658740
  93.3060670  55.5136630  35.5072350  94.2989000  54.3872300  35.7003930
  98.0459950  51.7700950  36.5054530  97.9227730  51.7887080  35.5564040
  98.9944510  51.8179890  36.6252930  95.1336740  67.0056250  35.7782510
  95.3878240  66.9677640  34.8561880  94.1849220  66.8789580  35.7710760
  92.2179540  53.3535370  32.4409450  93.0670070  53.7905520  32.3749640
  91.8510810  53.6655630  33.2681510  91.1170960  59.6067730  30.9144980
  91.8834230  59.4949090  31.4770410  91.1945650  58.9105700  30.2621750
  89.8117720  57.0392800  31.5977870  89.8921310  56.0920310  31.7095270
  90.7037470  57.3699680  31.7038530 103.1414900  65.0956980  39.0295280
 103.2662320  65.9188150  39.5019090 104.0080460  64.8847710  38.6819430
  90.6132430  67.1888190  38.7012410  91.3494910  66.6403650  38.9720980
  90.9973350  68.0544200  38.5618400  87.4977910  63.2561760  34.5753920
  86.5717690  63.4982900  34.5659330  87.9634340  64.0836020  34.4538670
  93.7234740  66.3618500  30.5237980  94.5163350  66.6507330  30.0719770
  93.2039090  65.9310670  29.8450460  98.4555340  62.4814130  47.8373400
  97.8493500  62.5045730  47.0969150  98.1509450  61.7497170  48.3740650
  94.2412140  61.5821910  30.3880330  94.1362780  60.9674260  31.1141710
  94.0736360  61.0587800  29.6043340  94.3926460  60.2678710  46.3669560
  93.6272130  60.8363710  46.2824230  94.5742420  59.9754920  45.4737790
  97.4814870  60.6441940  30.9922320  96.9324970  61.0911240  31.6365060
  98.1034130  60.1391190  31.5159990  89.3711600  57.0037310  47.7284110
  89.4116940  56.7051180  48.6369340  90.2257100  57.4044920  47.5691630
  93.1489990  59.6032860  32.8887620  93.5706410  59.4372730  33.7319010
  93.2740830  58.7933090  32.3942760  91.3117410  55.5829410  45.6958600
  90.7813870  55.0920360  45.0681940  91.9805480  56.0113610  45.1616530
  91.7989710  52.5491780  45.7755890  91.7046580  51.9312530  45.0506760
  91.2187100  53.2758070  45.5485800  94.5651150  51.1065020  42.8083280
  94.1168450  51.1289280  41.9628830  93.9316350  50.7084040  43.4053580
  94.9710700  60.0019350  43.4295720  95.3898810  60.8452080  43.2571960
  94.0519330  60.1391390  43.2002500  94.0743370  54.2756880  46.0709380
  94.6643060  53.9672730  46.7587200  93.2563610  53.8036630  46.2269280
  90.8431690  52.7766710  29.8223660  91.1457590  52.7834140  28.9142810
  91.5826280  52.4264570  30.3191320  95.6780330  67.5423570  44.8040100
  95.6039030  68.4458710  45.1112470  94.7759170  67.2235470  44.7762170
  94.0616620  51.7201330  30.8079860  93.7138620  51.0425320  30.2282310
  94.2629390  51.2590840  31.6223250  96.2265660  66.7082080  32.4266460
  97.1216450  67.0467050  32.4485220  96.2583290  65.9861490  31.7990740
  89.8661820  62.0809130  30.6553460  90.3036690  62.6238800  31.3111040
  90.3509550  61.2556080  30.6649800  87.0807620  64.8698160  38.1073720
  87.4110630  64.0019220  37.8752360  87.5098620  65.0756680  38.9378680
  91.6769540  63.2007170  35.7675690  91.3765080  63.0772140  36.6679600
  91.5707030  62.3415760  35.3591420  87.5697830  65.7368750  40.8455350
  87.1328820  65.9169550  41.6779500  88.1375510  66.4943370  40.7037070
  87.4022260  58.2488980  37.2044230  86.7471100  57.9800620  36.5603930
  88.2400210  58.1393460  36.7546210  88.4398190  58.6341550  41.7447570
  88.8071230  58.5468950  42.6243590  87.8709010  57.8708100  41.6454430
  87.9914190  55.5450640  45.6505990  87.0970240  55.5117400  45.9899700
  88.5311740  55.7437430  46.4157240 101.6790120  52.3282360  47.5357740
 102.5560300  52.3365760  47.9191740 101.6910960  51.5913200  46.9250090
  86.6160340  55.4587910  33.1469560  85.7124420  55.7218110  32.9721220
  87.1000960  55.7299080  32.3669520  89.1587550  54.5153450  31.0563940
  89.8679250  54.0936670  30.5711220  88.4427490  54.5828680  30.4247290
  88.4953900  49.8198970  39.9989210  89.1430090  49.2696350  39.5584370
  88.9155740  50.0742120  40.8205020 102.3906240  50.0140330  43.3558850
 103.0278460  50.6274470  43.7218040 102.5381130  50.0500990  42.4108080
 104.9330790  51.9054120  30.1381990 105.8580100  51.7735300  29.9300280
 104.9106580  51.9846940  31.0918440 105.0069280  52.6764780  32.7638700
 104.2120780  52.6109900  33.2931610 105.2112560  53.6115420  32.7524050
 101.9487700  66.7156330  36.7577090 102.5446770  66.3940900  36.0811510
 102.2065850  66.2428150  37.5490360  88.2485900  49.9754640  42.7414530
  87.9000720  50.4318460  43.5072710  87.9173600  49.0811770  42.8236960
  93.5556300  64.7033830  42.5077440  93.3147660  64.9708390  41.6207960
  94.4958940  64.8739560  42.5628300  95.7610720  51.1666520  46.2633950
  95.6999610  51.7588350  47.0129360  96.7011100  51.0592480  46.1184210
  98.3985280  50.8236580  45.9026240  99.0125690  51.1415870  45.2407320
  98.9434840  50.3385170  46.5222100 104.8160460  66.7228210  43.3088080
 104.3218740  67.1197080  42.5915210 104.2073750  66.0977420  43.7025360
  99.1393320  49.3868720  42.2295530  98.2653160  49.7203830  42.0268460
  99.0304070  48.9141900  43.0547400  92.9295630  65.6739870  39.7622950
  93.4460650  65.0627230  39.2371210  93.5793010  66.1768650  40.2533960
  95.6691130  66.5648360  40.5891930  95.9568940  66.3102660  39.7124940
  96.1814350  66.0125720  41.1797500  96.8868140  50.3038560  41.1688440
  96.1039930  50.7784060  41.4485200  96.5931070  49.3993390  41.0601620
 101.4389210  51.0061660  39.2137530 101.8797300  50.9506760  38.3659130
 101.1696800  51.9219670  39.2847710 103.3027780  50.6376900  37.2246350
 103.2416180  49.6938120  37.0777370 104.0819810  50.7456990  37.7699810
  94.7722360  52.7225310  36.6804470  93.9596870  52.3482200  36.3400350
  95.2764000  51.9670390  36.9825660  99.2747340  49.3867760  37.9187540
  99.8776710  49.9587970  38.3936060  98.5340330  49.9507200  37.6961440
 102.4181940  49.7889320  33.1927820 102.6132570  50.6872770  33.4595250
 101.6311810  49.5576400  33.6860770  89.2143230  65.4702490  33.6320440
  88.6890850  65.8510520  32.9282400  89.1387810  66.0953260  34.3530150
  92.7971540  50.8725230  35.2849520  92.1674280  50.1712540  35.4519650
  92.2576680  51.6329360  35.0682680  95.7363490  67.4864460  47.9560130
  96.6630800  67.2508730  47.9996090  95.7213920  68.3136460  47.4746160
 103.9708550  67.0290030  34.9534380 104.1460740  66.3427770  34.3095300
 103.2730120  67.5537080  34.5611050  92.9227100  50.1509210  47.7202010
  92.6411370  50.6542810  46.9562830  93.3046800  49.3530960  47.3544140
  91.8136200  67.4184870  32.5069690  92.5455020  67.1344150  31.9593580
  92.0729870  67.1798150  33.3969070  90.9750990  63.5349600  32.5116020
  90.3459870  64.0034700  33.0601850  91.0898820  62.6898820  32.9462210
  99.5242560  49.5662790  48.2982480  99.4108010  49.8857400  49.1934000
 100.3412300  49.9675300  48.0019760  98.4300710  57.5855260  18.6617220
  98.3494760  56.6709870  18.3908930  98.0165130  58.0822330  17.9556930
 100.5826180  63.7694470  19.3225620 100.1207710  62.9981710  19.6512790
 101.3951730  63.7960540  19.8278070  90.5585840  63.7094180  21.6160270
  90.8613880  62.8191920  21.4370490  91.3029430  64.2664400  21.3882520
  88.9876530  54.6355980  15.2044640  88.0993230  54.9771950  15.1024520
  89.2717720  54.4356300  14.3125470  86.9509540  57.2361630  21.0884340
  87.5225650  56.4683830  21.0887980  86.9511080  57.5350390  20.1790950
  96.8089490  66.0552480  18.9429610  96.1900930  66.5109980  18.3724050
  97.6641270  66.2103940  18.5419310  96.0027740  62.0391470  20.5496650
  95.9336020  61.0981410  20.3885780  96.7647600  62.1292880  21.1219220
  88.1934410  52.6445990  22.8753270  88.0137250  51.7471740  23.1556030
  87.7914490  53.1917860  23.5500220  91.1637920  53.2187480  16.2383020
  91.2704670  54.1191210  16.5451780  90.2530280  53.1705450  15.9477670
 100.8157030  52.3412290  17.7093920 101.6366650  51.8508860  17.7519400
 100.8491110  52.9309950  18.4625760 105.1056580  54.3579040  24.2737550
 104.4008750  54.7460750  23.7552660 105.3714500  55.0529330  24.8758480
  91.2881750  50.8272410  24.8371620  91.2900190  51.3444800  24.0317520
  90.4586060  50.3502590  24.8141550  97.6752840  60.9391720  16.3361520
  97.0570110  61.4041170  15.7724240  98.1876090  61.6319200  16.7531030
  90.9697080  52.5382370  22.8442070  91.3113890  53.3824420  22.5495940
  90.0312890  52.6866110  22.9607410  87.0436040  61.6248250  13.7101150
  86.6664020  62.1135350  12.9786050  87.3009110  62.2973530  14.3407680
 102.6681290  63.8987800  22.7448940 101.9844810  64.5686910  22.7365610
 103.2075580  64.0968450  21.9793800 104.1205430  53.7267460  20.8730670
 103.1730340  53.7606440  21.0046100 104.4455420  54.5406410  21.2580030
  94.6524970  50.0264640  19.1686660  94.9599950  49.4711530  18.4522160
  93.7225670  50.1609100  18.9859650 100.2040030  65.7431930  21.4594120
 100.2167190  65.3394220  20.5916380  99.6515250  66.5179220  21.3555550
 101.4985450  62.4648150  16.5484290 101.3881780  61.5222480  16.6733710
 101.4953700  62.8263790  17.4347050  99.6025470  60.6461770  22.7876730
 100.0194260  60.4321880  21.9530190 100.3265290  60.9034560  23.3585350
  97.0405730  58.0913470  15.9046780  96.1135010  58.0250850  16.1335250
  97.1930550  59.0293600  15.7902020  97.0274810  54.3630470  12.9013940
  96.0878480  54.5244430  12.9866400  97.3458070  55.0816150  12.3549930
 103.5487570  59.0448990  22.8792970 102.7206200  59.1142080  22.4043100
 104.1438050  59.6303300  22.4108800 101.0703020  59.6533770  16.4082030
 100.4515440  59.3153320  15.7608330 101.0527470  59.0093530  17.1161220
 100.5129580  55.8318310  23.8247840 100.1000760  56.6572020  24.0787830
  99.7805530  55.2463350  23.6324200  93.1144070  62.3045770  20.8505720
  92.8172360  61.6991240  20.1713500  94.0643890  62.3423080  20.7395080
 101.2029680  65.8777640  24.5128820 100.7260240  66.6849830  24.3201430
 100.5191470  65.2255970  24.6655030  92.2062500  62.0427460  27.5013520
  91.3091030  62.2667430  27.7486920  92.2315370  62.1662400  26.5524920
  99.2467720  58.8920580  13.4154780  99.6861000  58.0543010  13.2692600
  99.9596140  59.5249980  13.5018920  97.3563100  63.8316650  17.3836020
  97.7959010  64.5740980  16.9691410  97.2949990  64.0743220  18.3074980
  92.8314070  64.8562480  28.2856040  92.8029500  65.2605430  27.4184470
  92.6679040  63.9272840  28.1227640 102.8284860  50.1463390  11.7295820
 102.5157520  50.2390220  12.6294890 103.5897330  50.7244420  11.6793250
  89.3467000  57.5123190  16.1873160  89.2264600  58.2385280  15.5754430
  89.0367890  56.7426100  15.7101070  86.9852370  60.6838330  21.9941800
  87.0632790  60.8187100  21.0497520  87.5994050  59.9754220  22.1869920
  88.2300000  62.3838520  18.4047980  87.8228080  62.5253110  17.5501580
  89.1213010  62.0998680  18.2019190 104.1862140  62.8302430  26.7420220
 104.3125200  62.5914310  25.8237400 104.2283520  61.9986970  27.2142300
  98.0478880  66.5330430  25.3115030  98.5623550  66.4438440  26.1137460
  97.2047960  66.8790130  25.6042940 100.0233280  66.8185770  14.7399030
  99.8634420  66.5288710  15.6380860  99.8579990  66.0425900  14.2044260
  92.5021660  66.5984300  16.5170650  92.3264140  65.6819840  16.3038450
  91.6477400  66.9571590  16.7568450  99.7259410  64.3273330  13.2997030
  99.0324570  64.3250620  12.6399310 100.4682270  63.9032650  12.8691200
  99.2909340  65.9536040  17.3745520  99.7466290  65.1725420  17.6884140
  99.6301860  66.6642860  17.9186700 104.0386150  54.8834890  27.7069960
 103.4230420  55.3914560  27.1785420 103.7182570  53.9833220  27.6495900
  87.0411890  61.7252500  24.5336260  87.2042930  61.2557860  23.7155630
  87.5064340  61.2176060  25.1985100  91.8130660  50.8558260  19.5696830
  91.3698810  51.6367800  19.2381350  92.3715650  51.1788150  20.2767770
  94.9289480  50.4768960  14.4502660  94.3043660  50.4728830  15.1755970
  94.8419600  49.6099920  14.0538630  93.8506560  51.4005590  21.4286430
  94.1478890  52.3068420  21.3478450  94.3992120  50.9124370  20.8146000
  91.6044880  55.9791830  17.2978080  91.3785800  55.7629000  18.2024700
  90.8237410  56.4120290  16.9524050  98.8342640  55.9855200  15.8968730
  98.2351530  56.7091000  15.7132350  99.3822250  55.9231980  15.1145180
  97.4407510  54.6218740  17.9272010  97.8337080  54.9390940  17.1140700
  97.8024360  53.7430620  18.0416530  86.4771680  51.2119540  20.1502210
  86.1884730  51.7822400  20.8627190  87.2217440  50.7323990  20.5133440
  86.6641910  55.1539660  11.3604930  86.5816580  56.0970420  11.5019920
  86.3124970  55.0114570  10.4817280  90.3142420  53.7705180  19.3869490
  89.9742470  54.2480410  20.1436540  89.5519740  53.3170300  19.0270590
  94.5260190  54.8890770  13.4182040  94.6473010  54.8477250  14.3667860
  94.1408700  55.7514920  13.2628770  93.5381690  57.1991910  12.8165340
  92.9698590  56.7510160  12.1901250  94.2470690  57.5584690  12.2830490
  88.6150870  61.1003930  26.6932070  88.2305660  60.4597600  27.2915030
  88.9263060  61.8040050  27.2626800  87.6288500  52.6924160  18.3034160
  87.3435420  52.3279830  19.1412780  87.5667360  51.9604620  17.6897300
  91.0829170  61.1950100  15.0891750  90.3091430  60.6547720  14.9290470
  91.8123800  60.6756710  14.7509510 101.8417150  60.1915460  20.8818140
 102.5616270  60.6870750  20.4914250 101.6398970  59.5133350  20.2372010
  97.3027090  51.5853420  15.0247530  96.4891700  51.0866590  14.9492840
  97.1089040  52.4251670  14.6083880 100.0175480  55.9573070  13.3209690
 100.9055100  56.2690300  13.1461030  99.9880570  55.0845320  12.9290270
  91.1266570  60.8630480  18.7270560  91.6445240  60.0598740  18.6727450
  90.6750590  60.8009620  19.5687390  96.0136070  62.1296760  13.9997860
  96.3551770  62.8738990  13.5041180  95.1848780  62.4427880  14.3622690
  88.6111110  57.8291850  25.6396260  88.2526050  58.4945700  26.2269600
  88.3165670  56.9975400  26.0108880  97.1552680  63.0845090  26.5190940
  97.1697220  62.1526050  26.3009850  96.4477780  63.1704850  27.1580710
 102.2889750  57.2684910  12.7889550 102.2053470  57.6999130  11.9385990
 103.0083940  57.7283260  13.2216370 103.3663890  59.7252430  25.8659520
 102.6412080  60.3181210  25.6688910 103.8939350  59.7175970  25.0672890
 103.3177000  64.1227170  15.5171680 102.6753160  63.4682790  15.7915400
 102.9307660  64.5282260  14.7412350  98.8963480  61.4512600  19.3643370
  99.2487300  60.8540730  18.7044740  98.0125810  61.1256830  19.5351620
  94.9826760  62.2110290  16.7713780  95.6697890  62.7579500  17.1521370
  94.1959180  62.7551020  16.8063390  87.1219160  57.8283110  12.2630860
  87.9914010  58.1107910  12.5466780  86.6309480  58.6418980  12.1479670
  94.2853970  59.2156320  16.3839140  94.7416750  60.0261570  16.6099330
  93.9342180  58.8979460  17.2157630  96.5886580  64.7262660  23.6131440
  97.2328800  64.9322040  24.2904860  96.9516020  63.9651060  23.1602290
  90.1865750  49.5593970  16.8561660  90.0580380  49.5511870  17.8046580
  89.3627770  49.8977060  16.5052670  97.8618660  62.7295010  22.3308890
  98.5040890  62.0288170  22.4441060  98.3868010  63.5093450  22.1505780
 101.7074380  63.0143630  12.0548030 101.4811960  62.2974070  12.6472670
 101.3170580  62.7656070  11.2169780  99.6356280  63.5289910  25.5344950
  99.9712520  64.1156600  26.2122870  98.7156620  63.3982620  25.7642740
  87.4890410  67.0410490  12.8292490  87.8488050  67.6399830  12.1749760
  87.3482750  67.5870380  13.6027520  87.1859680  51.3185090  26.3168360
  86.4718200  51.5182010  26.9220970  87.6054720  50.5424660  26.6883160
 101.2890630  60.9315570  13.7162190 101.0012330  61.3928260  14.5040070
 102.0842800  60.4713340  13.9846410  87.4732270  65.3065350  27.3034890
  87.5823390  64.3660090  27.1630280  86.8212830  65.5720100  26.6548620
  95.4644860  63.5781240  28.7033010  95.1441730  62.8590480  29.2478700
  94.7903220  64.2536310  28.7769070  93.5059030  64.4241690  13.6466160
  93.4969130  65.1571380  13.0310670  92.5857390  64.1773270  13.7393120
  89.1065670  59.6456580  14.3912920  88.4993620  60.3855480  14.4008220
  89.5815020  59.7355940  13.5651120 102.0460490  52.7664340  14.8757370
 101.4173650  52.8710010  14.1615600 101.5512410  52.9861120  15.6651250
  96.4918630  64.4869930  12.3091350  96.5930610  64.2833920  11.3793330
  95.5920370  64.2328210  12.5139130  94.0144520  55.0450290  16.2915250
  93.3060670  55.5136630  16.7328860  94.2989000  54.3872300  16.9260440
  98.0459950  51.7700950  17.7311040  97.9227730  51.7887080  16.7820550
  98.9944510  51.8179890  17.8509440  95.1336740  67.0056250  17.0039020
  95.3878240  66.9677640  16.0818390  94.1849220  66.8789580  16.9967270
  92.2179540  53.3535370  13.6665960  93.0670070  53.7905520  13.6006150
  91.8510810  53.6655630  14.4938020 102.8467310  52.6814950  25.1336170
 102.3440910  53.4220350  25.4729980 103.6623970  53.0698950  24.8172960
 101.1389320  57.9248130  18.5797530 100.1979460  57.9398360  18.7545220
 101.4533390  57.1384090  19.0257830  91.1170960  59.6067730  12.1401490
  91.8834230  59.4949090  12.7026920  91.1945650  58.9105700  11.4878260
  89.8117720  57.0392800  12.8234380  89.8921310  56.0920310  12.9351780
  90.7037470  57.3699680  12.9295040 103.1414900  65.0956980  20.2551790
 103.2662320  65.9188150  20.7275600 104.0080460  64.8847710  19.9075940
  90.6132430  67.1888190  19.9268920  91.3494910  66.6403650  20.1977490
  90.9973350  68.0544200  19.7874910  87.4977910  63.2561760  15.8010430
  86.5717690  63.4982900  15.7915840  87.9634340  64.0836020  15.6795180
  89.6190710  66.3734260  29.1154500  90.4203440  66.6946310  29.5289900
  89.1042530  66.0129840  29.8374410  93.7234740  66.3618500  11.7494490
  94.5163350  66.6507330  11.2976280  93.2039090  65.9310670  11.0706970
  98.4555340  62.4814130  29.0629910  97.8493500  62.5045730  28.3225660
  98.1509450  61.7497170  29.5997160  99.8855710  66.2094420  27.6739320
 100.8377460  66.1252440  27.6239560  99.7383930  66.8736130  28.3473110
 102.7764910  65.5888630  13.1731230 102.4906420  65.1753770  12.3585410
 102.5784460  66.5176340  13.0531750  87.3388520  58.8607720  28.0590550
  87.8427540  58.2815000  28.6306780  86.5995940  59.1447950  28.5966920
  94.2412140  61.5821910  11.6136840  94.1362780  60.9674260  12.3398220
  94.0736360  61.0587800  10.8299850  97.4814870  60.6441940  12.2178830
  96.9324970  61.0911240  12.8621570  98.1034130  60.1391190  12.7416500
 101.5349810  61.9984040  28.1501090 102.2759280  62.3359800  27.6468550
 100.7722490  62.1676100  27.5970860  93.1489990  59.6032860  14.1144130
  93.5706410  59.4372730  14.9575520  93.2740830  58.7933090  13.6199270
  95.6617630  58.6270470  11.3621230  96.1823290  57.9119490  10.9962380
  96.3086030  59.2656340  11.6621740 100.2095470  60.0498870  26.6856300
 100.6236490  60.2043950  27.5346720  99.2746470  60.1754090  26.8482080
  99.6462500  58.2872720  24.6152580  99.1197720  58.8115340  24.0117720
  99.9893840  58.9200110  25.2462310  92.0448890  55.6766090  11.0602290
  91.8437950  54.8133450  11.4215630  91.8740940  55.5899450  10.1223890
  92.8218120  66.3072360  25.7709960  92.2839210  67.0318420  25.4518660
  93.0752080  65.8302700  24.9807300  99.5237200  50.4874320  13.5889170
  99.8039490  49.6442220  13.9448590  98.7502930  50.7197430  14.1027920
  90.8431690  52.7766710  11.0480170  91.1457590  52.7834140  10.1399320
  91.5826280  52.4264570  11.5447830  95.6780330  67.5423570  26.0296610
  95.6039030  68.4458710  26.3368980  94.7759170  67.2235470  26.0018680
  94.0616620  51.7201330  12.0336370  93.7138620  51.0425320  11.4538820
  94.2629390  51.2590840  12.8479760  96.2265660  66.7082080  13.6522970
  97.1216450  67.0467050  13.6741730  96.2583290  65.9861490  13.0247250
  89.8661820  62.0809130  11.8809970  90.3036690  62.6238800  12.5367550
  90.3509550  61.2556080  11.8906310  87.0807620  64.8698160  19.3330230
  87.4110630  64.0019220  19.1008870  87.5098620  65.0756680  20.1635190
  91.6769540  63.2007170  16.9932200  91.3765080  63.0772140  17.8936110
  91.5707030  62.3415760  16.5847930  87.5697830  65.7368750  22.0711860
  87.1328820  65.9169550  22.9036010  88.1375510  66.4943370  21.9293580
 103.2060010  65.2385750  26.3589170 102.6062000  65.2978310  25.6153090
 103.3353910  64.2990730  26.4886020 104.4461460  62.9803570  11.6958880
 103.6154420  63.0480220  12.1666110 104.6233290  63.8707690  11.3925740
 103.9017920  59.7251050  14.1993080 104.6636830  60.2947700  14.3052770
 103.9172290  59.1578250  14.9701390  87.4022260  58.2488980  18.4300740
  86.7471100  57.9800620  17.7860440  88.2400210  58.1393460  17.9802720
 104.9077890  60.5801150  19.0435010 105.2786720  59.7968470  18.6370980
 105.5479820  61.2690250  18.8652310 101.8911650  61.9637730  24.4565330
 101.0771490  62.3934890  24.7191120 102.2985850  62.5756140  23.8434380
 103.9537090  60.0185420  11.3565600 104.2285930  60.9264300  11.2284820
 103.7647830  59.9547950  12.2927590 100.3512700  53.0430270  12.6519230
 100.7697580  52.8561250  11.8115890 100.0448760  52.1909320  12.9622160
 103.8502430  57.9554410  16.3495030 103.4746030  57.1882340  15.9176320
 103.1205550  58.3377110  16.8369960 103.2402050  57.1025930  25.9834550
 103.0088140  56.8738680  25.0832500 103.5006600  58.0225480  25.9379440
  87.9914190  55.5450640  26.8762500  87.0970240  55.5117400  27.2156210
  88.5311740  55.7437430  27.6413750  86.6160340  55.4587910  14.3726070
  85.7124420  55.7218110  14.1977730  87.1000960  55.7299080  13.5926030
 103.1253390  56.1811900  19.6502270 103.6490870  55.6874550  19.0192440
 103.7112810  56.3162260  20.3949840 103.3043110  56.2651770  23.1721820
 102.3545820  56.2315310  23.2866810 103.4856120  57.1751880  22.9371590
  89.1587550  54.5153450  12.2820450  89.8679250  54.0936670  11.7967730
  88.4427490  54.5828680  11.6503800  88.8061710  50.5692780  11.3223100
  89.5289840  51.1101720  11.6404320  89.0786230  50.2956200  10.4464640
 102.6153360  55.4385250  15.5894680 103.1112480  55.2056120  16.3743560
 102.4169430  54.5997090  15.1732320  88.4953900  49.8198970  21.2245720
  89.1430090  49.2696350  20.7840880  88.9155740  50.0742120  22.0461530
 104.0440520  54.0746200  18.1232360 103.9339800  53.9202240  19.0614630
 104.8048110  53.5467140  17.8807770 104.9330790  51.9054120  11.3638500
 105.8580100  51.7735300  11.1556790 104.9106580  51.9846940  12.3174950
 105.0069280  52.6764780  13.9895210 104.2120780  52.6109900  14.5188120
 105.2112560  53.6115420  13.9780560 101.9487700  66.7156330  17.9833600
 102.5446770  66.3940900  17.3068020 102.2065850  66.2428150  18.7746870
  88.2485900  49.9754640  23.9671040  87.9000720  50.4318460  24.7329220
  87.9173600  49.0811770  24.0493470  89.8550270  63.1474240  28.1324230
  89.8119900  62.7767150  29.0138690  89.9861280  64.0851810  28.2726050
  93.5556300  64.7033830  23.7333950  93.3147660  64.9708390  22.8464470
  94.4958940  64.8739560  23.7884810 104.8160460  66.7228210  24.5344590
 104.3218740  67.1197080  23.8171720 104.2073750  66.0977420  24.9281870
  89.6938300  66.0936490  25.2522010  89.0998620  65.9621190  25.9912050
  89.6862140  65.2574630  24.7864110 102.4999910  67.3651630  21.8131330
 102.0402880  68.1167440  21.4389350 101.8712370  66.6458100  21.7546130
  89.3250530  63.4594870  24.2030050  88.5984590  62.8400160  24.1356000
  89.3859680  63.8535480  23.3328130  92.9295630  65.6739870  20.9879460
  93.4460650  65.0627230  20.4627720  93.5793010  66.1768650  21.4790470
  95.6691130  66.5648360  21.8148440  95.9568940  66.3102660  20.9381450
  96.1814350  66.0125720  22.4054010 103.3027780  50.6376900  18.4502860
 103.2416180  49.6938120  18.3033880 104.0819810  50.7456990  18.9956320
  87.6080530  66.7769260  17.4126810  87.4402570  66.1439940  18.1108700
  86.7415040  66.9828660  17.0621000  88.2308550  50.6086040  14.9158670
  88.9887910  50.7214920  14.3422700  87.7685720  51.4455240  14.8702100
  94.7722360  52.7225310  17.9060980  93.9596870  52.3482200  17.5656860
  95.2764000  51.9670390  18.2082170 102.4181940  49.7889320  14.4184330
 102.6132570  50.6872770  14.6851760 101.6311810  49.5576400  14.9117280
  89.2143230  65.4702490  14.8576950  88.6890850  65.8510520  14.1538910
  89.1387810  66.0953260  15.5786660  90.6033700  51.1350090  13.4560640
  91.1326460  50.3479890  13.3268590  91.2362020  51.8141280  13.6896170
  92.7971540  50.8725230  16.5106030  92.1674280  50.1712540  16.6776160
  92.2576680  51.6329360  16.2939190  95.7363490  67.4864460  29.1816640
  96.6630800  67.2508730  29.2252600  95.7213920  68.3136460  28.7002670
 103.9708550  67.0290030  16.1790890 104.1460740  66.3427770  15.5351810
 103.2730120  67.5537080  15.7867560  92.9227100  50.1509210  28.9458520
  92.6411370  50.6542810  28.1819340  93.3046800  49.3530960  28.5800650
  91.8136200  67.4184870  13.7326200  92.5455020  67.1344150  13.1850090
  92.0729870  67.1798150  14.6225580  90.9750990  63.5349600  13.7372530
  90.3459870  64.0034700  14.2858360  91.0898820  62.6898820  14.1718720
 102.3041050  66.7134320  29.0057680 103.0966370  66.2183550  28.7983640
 102.5974200  67.3924460  29.6133290  96.5618750  59.3634280   1.7683000
  95.7860850  58.8834720   2.0581570  97.2131680  58.6839930   1.5939160
  90.5784580  59.6754090   2.6458760  89.7469460  59.4202800   3.0455270
  91.1865560  59.7464860   3.3816680  90.5585840  63.7094180   2.8416780
  90.8613880  62.8191920   2.6627000  91.3029430  64.2664400   2.6139030
  96.0027740  62.0391470   1.7753160  95.9336020  61.0981410   1.6142290
  96.7647600  62.1292880   2.3475730  88.1934410  52.6445990   4.1009780
  88.0137250  51.7471740   4.3812540  87.7914490  53.1917860   4.7756730
  88.8121080  55.1406490   2.7092120  89.4931190  55.4044860   3.3279520
  88.4969130  54.3007360   3.0430130  93.0045650  56.1873850   1.7964710
  93.5123870  56.6854820   2.4369730  93.5358890  55.4109050   1.6204070
 105.1056580  54.3579040   5.4994060 104.4008750  54.7460750   4.9809170
 105.3714500  55.0529330   6.1014990  91.2881750  50.8272410   6.0628130
  91.2900190  51.3444800   5.2574030  90.4586060  50.3502590   6.0398060
  92.5384600  60.4667590   4.2401630  92.2053980  61.0936510   4.8822700
  92.7151280  60.9929470   3.4603300  90.9697080  52.5382370   4.0698580
  91.3113890  53.3824420   3.7752450  90.0312890  52.6866110   4.1863920
  91.7503700  62.4348390   6.0550810  92.3677700  63.1099470   5.7735260
  90.8896820  62.8436370   5.9638310 102.6681290  63.8987800   3.9705450
 101.9844810  64.5686910   3.9622120 103.2075580  64.0968450   3.2050310
 104.1205430  53.7267460   2.0987180 103.1730340  53.7606440   2.2302610
 104.4455420  54.5406410   2.4836540 100.2040030  65.7431930   2.6850630
 100.2167190  65.3394220   1.8172890  99.6515250  66.5179220   2.5812060
  99.6025470  60.6461770   4.0133240 100.0194260  60.4321880   3.1786700
 100.3265290  60.9034560   4.5841860 103.5487570  59.0448990   4.1049480
 102.7206200  59.1142080   3.6299610 104.1438050  59.6303300   3.6365310
 100.5129580  55.8318310   5.0504350 100.1000760  56.6572020   5.3044340
  99.7805530  55.2463350   4.8580710  91.3590990  55.3921420   3.6922060
  91.9105580  55.5016760   2.9175310  91.8734500  55.7659020   4.4077290
 101.2029680  65.8777640   5.7385330 100.7260240  66.6849830   5.5457940
 100.5191470  65.2255970   5.8911540  92.2062500  62.0427460   8.7270030
  91.3091030  62.2667430   8.9743430  92.2315370  62.1662400   7.7781430
  91.0333720  58.9140780   7.3027400  90.8941490  59.7863580   7.6714800
  90.1515080  58.5713590   7.1575340  92.8314070  64.8562480   9.5112550
  92.8029500  65.2605430   8.6440980  92.6679040  63.9272840   9.3484150
 104.7828890  65.6389580  10.8076720 105.2588610  66.1172470  11.4865800
 105.4036050  65.5707070  10.0822220  86.9852370  60.6838330   3.2198310
  87.0632790  60.8187100   2.2754030  87.5994050  59.9754220   3.4126430
 104.1862140  62.8302430   7.9676730 104.3125200  62.5914310   7.0493910
 104.2283520  61.9986970   8.4398810  98.0478880  66.5330430   6.5371540
  98.5623550  66.4438440   7.3393970  97.2047960  66.8790130   6.8299450
 104.0386150  54.8834890   8.9326470 103.4230420  55.3914560   8.4041930
 103.7182570  53.9833220   8.8752410  87.0411890  61.7252500   5.7592770
  87.2042930  61.2557860   4.9412140  87.5064340  61.2176060   6.4241610
  96.1000470  53.7226780   6.3988660  95.6379840  53.9309800   7.2108600
  95.6978580  52.9086130   6.0959330 101.1004980  54.9435730   7.5285320
 100.2498570  54.6441480   7.8494390 100.9406770  55.1877740   6.6169140
  98.1954690  56.4437480   9.6284110  98.5208100  55.6101230   9.2886340
  98.9835020  56.9666000   9.7762440  93.8506560  51.4005590   2.6542940
  94.1478890  52.3068420   2.5734960  94.3992120  50.9124370   2.0402510
  94.0444090  56.8777410   9.1894860  93.9487690  55.9372140   9.0395260
  94.8876070  57.0992480   8.7942930  89.1754630  53.2891080   7.3428640
  88.7818020  54.1366290   7.5501420  88.4873030  52.6517450   7.5337280
  95.7499680  53.3726050  10.4125380  95.0598000  53.1798250  11.0471470
  96.4931980  53.6560690  10.9449680  98.0262650  57.2124490   3.2479300
  97.2943770  57.7211300   3.5969400  97.6286990  56.3954470   2.9468080
  98.4888560  52.6658170   2.6602240  98.5061300  53.1166820   3.5044090
  98.2404140  51.7663810   2.8735680 101.9159310  50.0790350   8.4988620
 102.2405080  49.3480010   9.0246600 101.9515820  49.7603990   7.5969610
  88.6150870  61.1003930   7.9188580  88.2305660  60.4597600   8.5171540
  88.9263060  61.8040050   8.4883310  94.7648010  57.9480470   3.3997200
  95.1318140  57.4739040   4.1458540  94.5753070  58.8222040   3.7405540
  92.5547380  56.9889110   5.7181410  92.2504450  57.8681090   5.9431770
  93.5093840  57.0488900   5.7538850 101.8417150  60.1915460   2.1074650
 102.5616270  60.6870750   1.7170760 101.6398970  59.5133350   1.4628520
  97.2235950  60.2624520   7.9943650  97.1573260  59.3420190   7.7401240
  96.5941090  60.3599960   8.7088290  88.6111110  57.8291850   6.8652770
  88.2526050  58.4945700   7.4526110  88.3165670  56.9975400   7.2365390
  91.8124230  58.2876090   9.7492320  91.5124370  58.4333270   8.8520140
  92.5835470  57.7281380   9.6565710  97.1552680  63.0845090   7.7447450
  97.1697220  62.1526050   7.5266360  96.4477780  63.1704850   8.3837220
 103.3663890  59.7252430   7.0916030 102.6412080  60.3181210   6.8945420
 103.8939350  59.7175970   6.2929400  96.5886580  64.7262660   4.8387950
  97.2328800  64.9322040   5.5161370  96.9516020  63.9651060   4.3858800
  97.8618660  62.7295010   3.5565400  98.5040890  62.0288170   3.6697570
  98.3868010  63.5093450   3.3762290  99.6356280  63.5289910   6.7601460
  99.9712520  64.1156600   7.4379380  98.7156620  63.3982620   6.9899250
  87.1859680  51.3185090   7.5424870  86.4718200  51.5182010   8.1477480
  87.6054720  50.5424660   7.9139670  87.4732270  65.3065350   8.5291400
  87.5823390  64.3660090   8.3886790  86.8212830  65.5720100   7.8805130
  95.4644860  63.5781240   9.9289520  95.1441730  62.8590480  10.4735210
  94.7903220  64.2536310  10.0025580  98.6798460  53.8107400   5.2926320
  99.0479280  52.9902610   5.6205890  97.8196660  53.8709290   5.7081970
  95.6400450  56.4646990   5.5164290  96.1385700  56.9392810   6.1816140
  95.7823400  55.5410510   5.7234320 102.8467310  52.6814950   6.3592680
 102.3440910  53.4220350   6.6986490 103.6623970  53.0698950   6.0429470
  89.6190710  66.3734260  10.3411010  90.4203440  66.6946310  10.7546410
  89.1042530  66.0129840  11.0630920  98.4555340  62.4814130  10.2886420
  97.8493500  62.5045730   9.5482170  98.1509450  61.7497170  10.8253670
  99.8855710  66.2094420   8.8995830 100.8377460  66.1252440   8.8496070
  99.7383930  66.8736130   9.5729620  87.3388520  58.8607720   9.2847060
  87.8427540  58.2815000   9.8563290  86.5995940  59.1447950   9.8223430
  94.3926460  60.2678710   8.8182580  93.6272130  60.8363710   8.7337250
  94.5742420  59.9754920   7.9250810 101.5349810  61.9984040   9.3757600
 102.2759280  62.3359800   8.8725060 100.7722490  62.1676100   8.8227370
  89.3711600  57.0037310  10.1797130  89.4116940  56.7051180  11.0882360
  90.2257100  57.4044920  10.0204650  91.3117410  55.5829410   8.1471620
  90.7813870  55.0920360   7.5194960  91.9805480  56.0113610   7.6129550
 100.2095470  60.0498870   7.9112810 100.6236490  60.2043950   8.7603230
  99.2746470  60.1754090   8.0738590 100.6817640  57.3895030   9.9151960
 101.2638410  56.6347350   9.8272440 100.8579410  57.9202470   9.1383440
  91.7989710  52.5491780   8.2268910  91.7046580  51.9312530   7.5019780
  91.2187100  53.2758070   7.9998820  94.5651150  51.1065020   5.2596300
  94.1168450  51.1289280   4.4141850  93.9316350  50.7084040   5.8566600
  94.9710700  60.0019350   5.8808740  95.3898810  60.8452080   5.7084980
  94.0519330  60.1391390   5.6515520  97.3074600  57.7335530   7.2646580
  97.4270810  57.1376670   8.0041420  98.1668600  57.7705220   6.8447880
  99.6462500  58.2872720   5.8409090  99.1197720  58.8115340   5.2374230
  99.9893840  58.9200110   6.4718820  92.8218120  66.3072360   6.9966470
  92.2839210  67.0318420   6.6775170  93.0752080  65.8302700   6.2063810
  94.0743370  54.2756880   8.5222400  94.6643060  53.9672730   9.2100220
  93.2563610  53.8036630   8.6782300  98.8936800  53.8922690   8.7555420
  98.2052320  53.2304230   8.6905410  99.6142820  53.4460960   9.2003880
  95.6780330  67.5423570   7.2553120  95.6039030  68.4458710   7.5625490
  94.7759170  67.2235470   7.2275190  87.5697830  65.7368750   3.2968370
  87.1328820  65.9169550   4.1292520  88.1375510  66.4943370   3.1550090
 103.2060010  65.2385750   7.5845680 102.6062000  65.2978310   6.8409600
 103.3353910  64.2990730   7.7142530 101.8911650  61.9637730   5.6821840
 101.0771490  62.3934890   5.9447630 102.2985850  62.5756140   5.0690890
  88.4398190  58.6341550   4.1960590  88.8071230  58.5468950   5.0756610
  87.8709010  57.8708100   4.0967450 103.2402050  57.1025930   7.2091060
 103.0088140  56.8738680   6.3089010 103.5006600  58.0225480   7.1635950
  87.9914190  55.5450640   8.1019010  87.0970240  55.5117400   8.4412720
  88.5311740  55.7437430   8.8670260 101.6790120  52.3282360   9.9870760
 102.5560300  52.3365760  10.3704760 101.6910960  51.5913200   9.3763110
 103.3043110  56.2651770   4.3978330 102.3545820  56.2315310   4.5123320
 103.4856120  57.1751880   4.1628100  88.4953900  49.8198970   2.4502230
  89.1430090  49.2696350   2.0097390  88.9155740  50.0742120   3.2718040
 102.3906240  50.0140330   5.8071870 103.0278460  50.6274470   6.1731060
 102.5381130  50.0500990   4.8621100  88.2485900  49.9754640   5.1927550
  87.9000720  50.4318460   5.9585730  87.9173600  49.0811770   5.2749980
  89.8550270  63.1474240   9.3580740  89.8119900  62.7767150  10.2395200
  89.9861280  64.0851810   9.4982560  93.5556300  64.7033830   4.9590460
  93.3147660  64.9708390   4.0720980  94.4958940  64.8739560   5.0141320
  95.7610720  51.1666520   8.7146970  95.6999610  51.7588350   9.4642380
  96.7011100  51.0592480   8.5697230  98.3985280  50.8236580   8.3539260
  99.0125690  51.1415870   7.6920340  98.9434840  50.3385170   8.9735120
 104.8160460  66.7228210   5.7601100 104.3218740  67.1197080   5.0428230
 104.2073750  66.0977420   6.1538380  88.9206540  49.5030840   8.4678320
  89.4689530  49.3218890   7.7044430  88.9861850  48.7124950   9.0034630
  89.6938300  66.0936490   6.4778520  89.0998620  65.9621190   7.2168560
  89.6862140  65.2574630   6.0120620  99.1393320  49.3868720   4.6808550
  98.2653160  49.7203830   4.4781480  99.0304070  48.9141900   5.5060420
 100.0465300  51.5939590   6.0650270  99.7178660  50.7791350   5.6852000
 100.9947600  51.5509400   5.9415960 102.4999910  67.3651630   3.0387840
 102.0402880  68.1167440   2.6645860 101.8712370  66.6458100   2.9802640
  89.3250530  63.4594870   5.4286560  88.5984590  62.8400160   5.3612510
  89.3859680  63.8535480   4.5584640  92.9295630  65.6739870   2.2135970
  93.4460650  65.0627230   1.6884230  93.5793010  66.1768650   2.7046980
  95.6691130  66.5648360   3.0404950  95.9568940  66.3102660   2.1637960
  96.1814350  66.0125720   3.6310520  96.8868140  50.3038560   3.6201460
  96.1039930  50.7784060   3.8998220  96.5931070  49.3993390   3.5114640
  95.7363490  67.4864460  10.4073150  96.6630800  67.2508730  10.4509110
  95.7213920  68.3136460   9.9259180  92.9227100  50.1509210  10.1715030
  92.6411370  50.6542810   9.4075850  93.3046800  49.3530960   9.8057160
  99.5242560  49.5662790  10.7495500  99.4108010  49.8857400  11.6447020
 100.3412300  49.9675300  10.4532780 102.3041050  66.7134320  10.2314190
 103.0966370  66.2183550  10.0240150 102.5974200  67.3924460  10.8389800
  98.4300710  38.8111770 150.0821650  98.3494760  37.8966380 149.8113360
  98.0165130  39.3078840 149.3761360 100.5826180  44.9950980 150.7430050
 100.1207710  44.2238220 151.0717220 101.3951730  45.0217050 151.2482500
  88.9876530  35.8612490 146.6249070  88.0993230  36.2028460 146.5228950
  89.2717720  35.6612810 145.7329900  96.8089490  47.2808990 150.3634040
  96.1900930  47.7366490 149.7928480  97.6641270  47.4360450 149.9623740
  91.1637920  34.4443990 147.6587450  91.2704670  35.3447720 147.9656210
  90.2530280  34.3961960 147.3682100 100.8157030  33.5668800 149.1298350
 101.6366650  33.0765370 149.1723830 100.8491110  34.1566460 149.8830190
  97.6752840  42.1648230 147.7565950  97.0570110  42.6297680 147.1928670
  98.1876090  42.8575710 148.1735460  87.0436040  42.8504760 145.1305580
  86.6664020  43.3391860 144.3990480  87.3009110  43.5230040 145.7612110
  94.6524970  31.2521150 150.5891090  94.9599950  30.6968040 149.8726590
  93.7225670  31.3865610 150.4064080 101.4985450  43.6904660 147.9688720
 101.3881780  42.7478990 148.0938140 101.4953700  44.0520300 148.8551480
  97.0405730  39.3169980 147.3251210  96.1135010  39.2507360 147.5539680
  97.1930550  40.2550110 147.2106450  97.0274810  35.5886980 144.3218370
  96.0878480  35.7500940 144.4070830  97.3458070  36.3072660 143.7754360
 101.0703020  40.8790280 147.8286460 100.4515440  40.5409830 147.1812760
 101.0527470  40.2350040 148.5365650  92.6462370  39.8434720 150.1070940
  92.2419370  39.1311970 149.6116840  92.7325490  39.4987960 150.9958980
  99.2467720  40.1177090 144.8359210  99.6861000  39.2799520 144.6897030
  99.9596140  40.7506490 144.9223350  97.3563100  45.0573160 148.8040450
  97.7959010  45.7997490 148.3895840  97.2949990  45.2999730 149.7279410
 102.8284860  31.3719900 143.1500250 102.5157520  31.4646730 144.0499320
 103.5897330  31.9500930 143.0997680  89.3467000  38.7379700 147.6077590
  89.2264600  39.4641790 146.9958860  89.0367890  37.9682610 147.1305500
  88.2300000  43.6095030 149.8252410  87.8228080  43.7509620 148.9706010
  89.1213010  43.3255190 149.6223620 100.0233280  48.0442280 146.1603460
  99.8634420  47.7545220 147.0585290  99.8579990  47.2682410 145.6248690
  92.5021660  47.8240810 147.9375080  92.3264140  46.9076350 147.7242880
  91.6477400  48.1828100 148.1772880  99.7259410  45.5529840 144.7201460
  99.0324570  45.5507130 144.0603740 100.4682270  45.1289160 144.2895630
  99.2909340  47.1792550 148.7949950  99.7466290  46.3981930 149.1088570
  99.6301860  47.8899370 149.3391130  91.8130660  32.0814770 150.9901260
  91.3698810  32.8624310 150.6585780  92.3715650  32.4044660 151.6972200
  94.9289480  31.7025470 145.8707090  94.3043660  31.6985340 146.5960400
  94.8419600  30.8356430 145.4743060  91.6044880  37.2048340 148.7182510
  91.3785800  36.9885510 149.6229130  90.8237410  37.6376800 148.3728480
  98.8342640  37.2111710 147.3173160  98.2351530  37.9347510 147.1336780
  99.3822250  37.1488490 146.5349610  97.4407510  35.8475250 149.3476440
  97.8337080  36.1647450 148.5345130  97.8024360  34.9687130 149.4620960
  86.6641910  36.3796170 142.7809360  86.5816580  37.3226930 142.9224350
  86.3124970  36.2371080 141.9021710  90.3142420  34.9961690 150.8073920
  89.9742470  35.4736920 151.5640970  89.5519740  34.5426810 150.4475020
  94.5260190  36.1147280 144.8386470  94.6473010  36.0733760 145.7872290
  94.1408700  36.9771430 144.6833200  93.5381690  38.4248420 144.2369770
  92.9698590  37.9766670 143.6105680  94.2470690  38.7841200 143.7034920
  87.6288500  33.9180670 149.7238590  87.3435420  33.5536340 150.5617210
  87.5667360  33.1861130 149.1101730  91.0829170  42.4206610 146.5096180
  90.3091430  41.8804230 146.3494900  91.8123800  41.9013220 146.1713940
  97.3027090  32.8109930 146.4451960  96.4891700  32.3123100 146.3697270
  97.1089040  33.6508180 146.0288310 100.0175480  37.1829580 144.7414120
 100.9055100  37.4946810 144.5665460  99.9880570  36.3101830 144.3494700
  91.1266570  42.0886990 150.1474990  91.6445240  41.2855250 150.0931880
  90.6750590  42.0266130 150.9891820  96.0136070  43.3553270 145.4202290
  96.3551770  44.0995500 144.9245610  95.1848780  43.6684390 145.7827120
 102.2889750  38.4941420 144.2093980 102.2053470  38.9255640 143.3590420
 103.0083940  38.9539770 144.6420800 103.3177000  45.3483680 146.9376110
 102.6753160  44.6939300 147.2119830 102.9307660  45.7538770 146.1616780
  98.8963480  42.6769110 150.7847800  99.2487300  42.0797240 150.1249170
  98.0125810  42.3513340 150.9556050  94.9826760  43.4366800 148.1918210
  95.6697890  43.9836010 148.5725800  94.1959180  43.9807530 148.2267820
  87.1219160  39.0539620 143.6835290  87.9914010  39.3364420 143.9671210
  86.6309480  39.8675490 143.5684100  94.2853970  40.4412830 147.8043570
  94.7416750  41.2518080 148.0303760  93.9342180  40.1235970 148.6362060
  90.1865750  30.7850480 148.2766090  90.0580380  30.7768380 149.2251010
  89.3627770  31.1233570 147.9257100 101.7074380  44.2400140 143.4752460
 101.4811960  43.5230580 144.0677100 101.3170580  43.9912580 142.6374210
  87.4890410  48.2667000 144.2496920  87.8488050  48.8656340 143.5954190
  87.3482750  48.8126890 145.0231950 101.2890630  42.1572080 145.1366620
 101.0012330  42.6184770 145.9244500 102.0842800  41.6969850 145.4050840
  93.5059030  45.6498200 145.0670590  93.4969130  46.3827890 144.4515100
  92.5857390  45.4029780 145.1597550  89.1065670  40.8713090 145.8117350
  88.4993620  41.6111990 145.8212650  89.5815020  40.9612450 144.9855550
 102.0460490  33.9920850 146.2961800 101.4173650  34.0966520 145.5820030
 101.5512410  34.2117630 147.0855680  96.4918630  45.7126440 143.7295780
  96.5930610  45.5090430 142.7997760  95.5920370  45.4584720 143.9343560
  94.0144520  36.2706800 147.7119680  93.3060670  36.7393140 148.1533290
  94.2989000  35.6128810 148.3464870  98.0459950  32.9957460 149.1515470
  97.9227730  33.0143590 148.2024980  98.9944510  33.0436400 149.2713870
  95.1336740  48.2312760 148.4243450  95.3878240  48.1934150 147.5022820
  94.1849220  48.1046090 148.4171700  92.2179540  34.5791880 145.0870390
  93.0670070  35.0162030 145.0210580  91.8510810  34.8912140 145.9142450
 101.1389320  39.1504640 150.0001960 100.1979460  39.1654870 150.1749650
 101.4533390  38.3640600 150.4462260  91.1170960  40.8324240 143.5605920
  91.8834230  40.7205600 144.1231350  91.1945650  40.1362210 142.9082690
  89.8117720  38.2649310 144.2438810  89.8921310  37.3176820 144.3556210
  90.7037470  38.5956190 144.3499470  90.6132430  48.4144700 151.3473350
  91.3494910  47.8660160 151.6181920  90.9973350  49.2800710 151.2079340
  87.4977910  44.4818270 147.2214860  86.5717690  44.7239410 147.2120270
  87.9634340  45.3092530 147.0999610  93.7234740  47.5875010 143.1698920
  94.5163350  47.8763840 142.7180710  93.2039090  47.1567180 142.4911400
 102.7764910  46.8145140 144.5935660 102.4906420  46.4010280 143.7789840
 102.5784460  47.7432850 144.4736180  94.2412140  42.8078420 143.0341270
  94.1362780  42.1930770 143.7602650  94.0736360  42.2844310 142.2504280
  97.4814870  41.8698450 143.6383260  96.9324970  42.3167750 144.2826000
  98.1034130  41.3647700 144.1620930  93.1489990  40.8289370 145.5348560
  93.5706410  40.6629240 146.3779950  93.2740830  40.0189600 145.0403700
  95.6617630  39.8526980 142.7825660  96.1823290  39.1376000 142.4166810
  96.3086030  40.4912850 143.0826170  92.0448890  36.9022600 142.4806720
  91.8437950  36.0389960 142.8420060  91.8740940  36.8155960 141.5428320
  99.5237200  31.7130830 145.0093600  99.8039490  30.8698730 145.3653020
  98.7502930  31.9453940 145.5232350  90.8431690  34.0023220 142.4684600
  91.1457590  34.0090650 141.5603750  91.5826280  33.6521080 142.9652260
  94.0616620  32.9457840 143.4540800  93.7138620  32.2681830 142.8743250
  94.2629390  32.4847350 144.2684190  96.2265660  47.9338590 145.0727400
  97.1216450  48.2723560 145.0946160  96.2583290  47.2118000 144.4451680
  89.8661820  43.3065640 143.3014400  90.3036690  43.8495310 143.9571980
  90.3509550  42.4812590 143.3110740  87.0807620  46.0954670 150.7534660
  87.4110630  45.2275730 150.5213300  87.5098620  46.3013190 151.5839620
  91.6769540  44.4263680 148.4136630  91.3765080  44.3028650 149.3140540
  91.5707030  43.5672270 148.0052360 104.4461460  44.2060080 143.1163310
 103.6154420  44.2736730 143.5870540 104.6233290  45.0964200 142.8130170
 103.9017920  40.9507560 145.6197510 104.6636830  41.5204210 145.7257200
 103.9172290  40.3834760 146.3905820  87.4022260  39.4745490 149.8505170
  86.7471100  39.2057130 149.2064870  88.2400210  39.3649970 149.4007150
 104.9077890  41.8057660 150.4639440 105.2786720  41.0224980 150.0575410
 105.5479820  42.4946760 150.2856740 103.9537090  41.2441930 142.7770030
 104.2285930  42.1520810 142.6489250 103.7647830  41.1804460 143.7132020
 100.3512700  34.2686780 144.0723660 100.7697580  34.0817760 143.2320320
 100.0448760  33.4165830 144.3826590 103.8502430  39.1810920 147.7699460
 103.4746030  38.4138850 147.3380750 103.1205550  39.5633620 148.2574390
  86.6160340  36.6844420 145.7930500  85.7124420  36.9474620 145.6182160
  87.1000960  36.9555590 145.0130460  89.1587550  35.7409960 143.7024880
  89.8679250  35.3193180 143.2172160  88.4427490  35.8085190 143.0708230
  88.8061710  31.7949290 142.7427530  89.5289840  32.3358230 143.0608750
  89.0786230  31.5212710 141.8669070 102.6153360  36.6641760 147.0099110
 103.1112480  36.4312630 147.7947990 102.4169430  35.8253600 146.5936750
 104.0440520  35.3002710 149.5436790 103.9339800  35.1458750 150.4819060
 104.8048110  34.7723650 149.3012200 104.9330790  33.1310630 142.7842930
 105.8580100  32.9991810 142.5761220 104.9106580  33.2103450 143.7379380
 105.0069280  33.9021290 145.4099640 104.2120780  33.8366410 145.9392550
 105.2112560  34.8371930 145.3984990 101.9487700  47.9412840 149.4038030
 102.5446770  47.6197410 148.7272450 102.2065850  47.4684660 150.1951300
 103.3027780  31.8633410 149.8707290 103.2416180  30.9194630 149.7238310
 104.0819810  31.9713500 150.4160750  87.6080530  48.0025770 148.8331240
  87.4402570  47.3696450 149.5313130  86.7415040  48.2085170 148.4825430
  88.2308550  31.8342550 146.3363100  88.9887910  31.9471430 145.7627130
  87.7685720  32.6711750 146.2906530  94.7722360  33.9481820 149.3265410
  93.9596870  33.5738710 148.9861290  95.2764000  33.1926900 149.6286600
  99.2747340  30.6124270 150.5648480  99.8776710  31.1844480 151.0397000
  98.5340330  31.1763710 150.3422380 102.4181940  31.0145830 145.8388760
 102.6132570  31.9129280 146.1056190 101.6311810  30.7832910 146.3321710
  89.2143230  46.6959000 146.2781380  88.6890850  47.0767030 145.5743340
  89.1387810  47.3209770 146.9991090  90.6033700  32.3606600 144.8765070
  91.1326460  31.5736400 144.7473020  91.2362020  33.0397790 145.1100600
  92.7971540  32.0981740 147.9310460  92.1674280  31.3969050 148.0980590
  92.2576680  32.8585870 147.7143620 103.9708550  48.2546540 147.5995320
 104.1460740  47.5684280 146.9556240 103.2730120  48.7793590 147.2071990
  91.8136200  48.6441380 145.1530630  92.5455020  48.3600660 144.6054520
  92.0729870  48.4054660 146.0430010  90.9750990  44.7606110 145.1576960
  90.3459870  45.2291210 145.7062790  91.0898820  43.9155330 145.5923150
  98.4300710  38.8111770 131.3078160  98.3494760  37.8966380 131.0369870
  98.0165130  39.3078840 130.6017870  96.5618750  40.5890790 133.1887430
  95.7860850  40.1091230 133.4786000  97.2131680  39.9096440 133.0143590
  90.5784580  40.9010600 134.0663190  89.7469460  40.6459310 134.4659700
  91.1865560  40.9721370 134.8021110 100.5826180  44.9950980 131.9686560
 100.1207710  44.2238220 132.2973730 101.3951730  45.0217050 132.4739010
  90.5585840  44.9350690 134.2621210  90.8613880  44.0448430 134.0831430
  91.3029430  45.4920910 134.0343460  88.9876530  35.8612490 127.8505580
  88.0993230  36.2028460 127.7485460  89.2717720  35.6612810 126.9586410
  86.9509540  38.4618140 133.7345280  87.5225650  37.6940340 133.7348920
  86.9511080  38.7606900 132.8251890  96.8089490  47.2808990 131.5890550
  96.1900930  47.7366490 131.0184990  97.6641270  47.4360450 131.1880250
  96.0027740  43.2647980 133.1957590  95.9336020  42.3237920 133.0346720
  96.7647600  43.3549390 133.7680160  88.1934410  33.8702500 135.5214210
  88.0137250  32.9728250 135.8016970  87.7914490  34.4174370 136.1961160
  97.0332910  36.0718360 133.4226520  97.4097730  35.1990240 133.3100190
  96.9352420  36.4077060 132.5316960  91.1637920  34.4443990 128.8843960
  91.2704670  35.3447720 129.1912720  90.2530280  34.3961960 128.5938610
 100.8157030  33.5668800 130.3554860 101.6366650  33.0765370 130.3980340
 100.8491110  34.1566460 131.1086700  88.8121080  36.3663000 134.1296550
  89.4931190  36.6301370 134.7483950  88.4969130  35.5263870 134.4634560
  93.0045650  37.4130360 133.2169140  93.5123870  37.9111330 133.8574160
  93.5358890  36.6365560 133.0408500 105.1056580  35.5835550 136.9198490
 104.4008750  35.9717260 136.4013600 105.3714500  36.2785840 137.5219420
  91.2881750  32.0528920 137.4832560  91.2900190  32.5701310 136.6778460
  90.4586060  31.5759100 137.4602490  97.6752840  42.1648230 128.9822460
  97.0570110  42.6297680 128.4185180  98.1876090  42.8575710 129.3991970
  92.5384600  41.6924100 135.6606060  92.2053980  42.3193020 136.3027130
  92.7151280  42.2185980 134.8807730 101.0518510  35.5069180 133.1282400
 100.3474080  35.7954070 133.7085510 101.4130670  36.3169290 132.7681960
  90.9697080  33.7638880 135.4903010  91.3113890  34.6080930 135.1956880
  90.0312890  33.9122620 135.6068350  91.7503700  43.6604900 137.4755240
  92.3677700  44.3355980 137.1939690  90.8896820  44.0692880 137.3842740
  87.0436040  42.8504760 126.3562090  86.6664020  43.3391860 125.6246990
  87.3009110  43.5230040 126.9868620 102.6681290  45.1244310 135.3909880
 101.9844810  45.7943420 135.3826550 103.2075580  45.3224960 134.6254740
 104.1205430  34.9523970 133.5191610 103.1730340  34.9862950 133.6507040
 104.4455420  35.7662920 133.9040970  94.6524970  31.2521150 131.8147600
  94.9599950  30.6968040 131.0983100  93.7225670  31.3865610 131.6320590
 100.2040030  46.9688440 134.1055060 100.2167190  46.5650730 133.2377320
  99.6515250  47.7435730 134.0016490 101.4985450  43.6904660 129.1945230
 101.3881780  42.7478990 129.3194650 101.4953700  44.0520300 130.0807990
  99.6025470  41.8718280 135.4337670 100.0194260  41.6578390 134.5991130
 100.3265290  42.1291070 136.0046290  97.0405730  39.3169980 128.5507720
  96.1135010  39.2507360 128.7796190  97.1930550  40.2550110 128.4362960
  97.0274810  35.5886980 125.5474880  96.0878480  35.7500940 125.6327340
  97.3458070  36.3072660 125.0010870 103.5487570  40.2705500 135.5253910
 102.7206200  40.3398590 135.0504040 104.1438050  40.8559810 135.0569740
 101.0703020  40.8790280 129.0542970 100.4515440  40.5409830 128.4069270
 101.0527470  40.2350040 129.7622160 100.5129580  37.0574820 136.4708780
 100.1000760  37.8828530 136.7248770  99.7805530  36.4719860 136.2785140
  92.6462370  39.8434720 131.3327450  92.2419370  39.1311970 130.8373350
  92.7325490  39.4987960 132.2215490  93.1144070  43.5302280 133.4966660
  92.8172360  42.9247750 132.8174440  94.0643890  43.5679590 133.3856020
  91.3590990  36.6177930 135.1126490  91.9105580  36.7273270 134.3379740
  91.8734500  36.9915530 135.8281720 101.2029680  47.1034150 137.1589760
 100.7260240  47.9106340 136.9662370 100.5191470  46.4512480 137.3115970
  92.2062500  43.2683970 140.1474460  91.3091030  43.4923940 140.3947860
  92.2315370  43.3918910 139.1985860  99.2467720  40.1177090 126.0615720
  99.6861000  39.2799520 125.9153540  99.9596140  40.7506490 126.1479860
  91.0333720  40.1397290 138.7231830  90.8941490  41.0120090 139.0919230
  90.1515080  39.7970100 138.5779770  97.3563100  45.0573160 130.0296960
  97.7959010  45.7997490 129.6152350  97.2949990  45.2999730 130.9535920
  92.8314070  46.0818990 140.9316980  92.8029500  46.4861940 140.0645410
  92.6679040  45.1529350 140.7688580 102.8284860  31.3719900 124.3756760
 102.5157520  31.4646730 125.2755830 103.5897330  31.9500930 124.3254190
  89.3467000  38.7379700 128.8334100  89.2264600  39.4641790 128.2215370
  89.0367890  37.9682610 128.3562010 104.7828890  46.8646090 142.2281150
 105.2588610  47.3428980 142.9070230 105.4036050  46.7963580 141.5026650
  86.9852370  41.9094840 134.6402740  87.0632790  42.0443610 133.6958460
  87.5994050  41.2010730 134.8330860  88.2300000  43.6095030 131.0508920
  87.8228080  43.7509620 130.1962520  89.1213010  43.3255190 130.8480130
 104.1862140  44.0558940 139.3881160 104.3125200  43.8170820 138.4698340
 104.2283520  43.2243480 139.8603240  98.0478880  47.7586940 137.9575970
  98.5623550  47.6694950 138.7598400  97.2047960  48.1046640 138.2503880
 100.0233280  48.0442280 127.3859970  99.8634420  47.7545220 128.2841800
  99.8579990  47.2682410 126.8505200  99.7259410  45.5529840 125.9457970
  99.0324570  45.5507130 125.2860250 100.4682270  45.1289160 125.5152140
  99.2909340  47.1792550 130.0206460  99.7466290  46.3981930 130.3345080
  99.6301860  47.8899370 130.5647640 104.0386150  36.1091400 140.3530900
 103.4230420  36.6171070 139.8246360 103.7182570  35.2089730 140.2956840
  87.0411890  42.9509010 137.1797200  87.2042930  42.4814370 136.3616570
  87.5064340  42.4432570 137.8446040  91.8130660  32.0814770 132.2157770
  91.3698810  32.8624310 131.8842290  92.3715650  32.4044660 132.9228710
  96.1000470  34.9483290 137.8193090  95.6379840  35.1566310 138.6313030
  95.6978580  34.1342640 137.5163760 101.1004980  36.1692240 138.9489750
 100.2498570  35.8697990 139.2698820 100.9406770  36.4134250 138.0373570
  98.1954690  37.6693990 141.0488540  98.5208100  36.8357740 140.7090770
  98.9835020  38.1922510 141.1966870  94.9289480  31.7025470 127.0963600
  94.3043660  31.6985340 127.8216910  94.8419600  30.8356430 126.6999570
  93.8506560  32.6262100 134.0747370  94.1478890  33.5324930 133.9939390
  94.3992120  32.1380880 133.4606940  91.6044880  37.2048340 129.9439020
  91.3785800  36.9885510 130.8485640  90.8237410  37.6376800 129.5984990
  98.8342640  37.2111710 128.5429670  98.2351530  37.9347510 128.3593290
  99.3822250  37.1488490 127.7606120  94.0444090  38.1033920 140.6099290
  93.9487690  37.1628650 140.4599690  94.8876070  38.3248990 140.2147360
  97.4407510  35.8475250 130.5732950  97.8337080  36.1647450 129.7601640
  97.8024360  34.9687130 130.6877470  89.1754630  34.5147590 138.7633070
  88.7818020  35.3622800 138.9705850  88.4873030  33.8773960 138.9541710
  95.7499680  34.5982560 141.8329810  95.0598000  34.4054760 142.4675900
  96.4931980  34.8817200 142.3654110  86.4771680  32.4376050 132.7963150
  86.1884730  33.0078910 133.5088130  87.2217440  31.9580500 133.1594380
  98.0262650  38.4381000 134.6683730  97.2943770  38.9467810 135.0173830
  97.6286990  37.6210980 134.3672510  94.4640040  35.1135200 133.0736220
  94.4676100  34.6725150 132.2240760  95.3591160  35.4352530 133.1808040
  90.3142420  34.9961690 132.0330430  89.9742470  35.4736920 132.7897480
  89.5519740  34.5426810 131.6731530  94.5260190  36.1147280 126.0642980
  94.6473010  36.0733760 127.0128800  94.1408700  36.9771430 125.9089710
  98.4888560  33.8914680 134.0806670  98.5061300  34.3423330 134.9248520
  98.2404140  32.9920320 134.2940110  93.5381690  38.4248420 125.4626280
  92.9698590  37.9766670 124.8362190  94.2470690  38.7841200 124.9291430
 101.9159310  31.3046860 139.9193050 102.2405080  30.5736520 140.4451030
 101.9515820  30.9860500 139.0174040  88.6150870  42.3260440 139.3393010
  88.2305660  41.6854110 139.9375970  88.9263060  43.0296560 139.9087740
  94.7648010  39.1736980 134.8201630  95.1318140  38.6995550 135.5662970
  94.5753070  40.0478550 135.1609970  87.6288500  33.9180670 130.9495100
  87.3435420  33.5536340 131.7873720  87.5667360  33.1861130 130.3358240
  92.5547380  38.2145620 137.1385840  92.2504450  39.0937600 137.3636200
  93.5093840  38.2745410 137.1743280  91.0829170  42.4206610 127.7352690
  90.3091430  41.8804230 127.5751410  91.8123800  41.9013220 127.3970450
 101.8417150  41.4171970 133.5279080 102.5616270  41.9127260 133.1375190
 101.6398970  40.7389860 132.8832950  97.3027090  32.8109930 127.6708470
  96.4891700  32.3123100 127.5953780  97.1089040  33.6508180 127.2544820
  97.2235950  41.4881030 139.4148080  97.1573260  40.5676700 139.1605670
  96.5941090  41.5856470 140.1292720 100.0175480  37.1829580 125.9670630
 100.9055100  37.4946810 125.7921970  99.9880570  36.3101830 125.5751210
  91.1266570  42.0886990 131.3731500  91.6445240  41.2855250 131.3188390
  90.6750590  42.0266130 132.2148330  96.0136070  43.3553270 126.6458800
  96.3551770  44.0995500 126.1502120  95.1848780  43.6684390 127.0083630
  88.6111110  39.0548360 138.2857200  88.2526050  39.7202210 138.8730540
  88.3165670  38.2231910 138.6569820  91.8124230  39.5132600 141.1696750
  91.5124370  39.6589780 140.2724570  92.5835470  38.9537890 141.0770140
  97.1552680  44.3101600 139.1651880  97.1697220  43.3782560 138.9470790
  96.4477780  44.3961360 139.8041650 102.2889750  38.4941420 125.4350490
 102.2053470  38.9255640 124.5846930 103.0083940  38.9539770 125.8677310
 103.3663890  40.9508940 138.5120460 102.6412080  41.5437720 138.3149850
 103.8939350  40.9432480 137.7133830 103.3177000  45.3483680 128.1632620
 102.6753160  44.6939300 128.4376340 102.9307660  45.7538770 127.3873290
  98.8963480  42.6769110 132.0104310  99.2487300  42.0797240 131.3505680
  98.0125810  42.3513340 132.1812560  94.9826760  43.4366800 129.4174720
  95.6697890  43.9836010 129.7982310  94.1959180  43.9807530 129.4524330
  94.2853970  40.4412830 129.0300080  94.7416750  41.2518080 129.2560270
  93.9342180  40.1235970 129.8618570  96.5886580  45.9519170 136.2592380
  97.2328800  46.1578550 136.9365800  96.9516020  45.1907570 135.8063230
  90.1865750  30.7850480 129.5022600  90.0580380  30.7768380 130.4507520
  89.3627770  31.1233570 129.1513610  97.8618660  43.9551520 134.9769830
  98.5040890  43.2544680 135.0902000  98.3868010  44.7349960 134.7966720
 101.7074380  44.2400140 124.7008970 101.4811960  43.5230580 125.2933610
 101.3170580  43.9912580 123.8630720  99.6356280  44.7546420 138.1805890
  99.9712520  45.3413110 138.8583810  98.7156620  44.6239130 138.4103680
  87.4890410  48.2667000 125.4753430  87.8488050  48.8656340 124.8210700
  87.3482750  48.8126890 126.2488460  87.1859680  32.5441600 138.9629300
  86.4718200  32.7438520 139.5681910  87.6054720  31.7681170 139.3344100
 101.2890630  42.1572080 126.3623130 101.0012330  42.6184770 127.1501010
 102.0842800  41.6969850 126.6307350  87.4732270  46.5321860 139.9495830
  87.5823390  45.5916600 139.8091220  86.8212830  46.7976610 139.3009560
  95.4644860  44.8037750 141.3493950  95.1441730  44.0846990 141.8939640
  94.7903220  45.4792820 141.4230010  89.1065670  40.8713090 127.0373860
  88.4993620  41.6111990 127.0469160  89.5815020  40.9612450 126.2112060
  98.6798460  35.0363910 136.7130750  99.0479280  34.2159120 137.0410320
  97.8196660  35.0965800 137.1286400 102.0460490  33.9920850 127.5218310
 101.4173650  34.0966520 126.8076540 101.5512410  34.2117630 128.3112190
  96.4918630  45.7126440 124.9552290  96.5930610  45.5090430 124.0254270
  95.5920370  45.4584720 125.1600070  94.0144520  36.2706800 128.9376190
  93.3060670  36.7393140 129.3789800  94.2989000  35.6128810 129.5721380
  95.6400450  37.6903500 136.9368720  96.1385700  38.1649320 137.6020570
  95.7823400  36.7667020 137.1438750  98.0459950  32.9957460 130.3771980
  97.9227730  33.0143590 129.4281490  98.9944510  33.0436400 130.4970380
  95.1336740  48.2312760 129.6499960  95.3878240  48.1934150 128.7279330
  94.1849220  48.1046090 129.6428210  92.2179540  34.5791880 126.3126900
  93.0670070  35.0162030 126.2467090  91.8510810  34.8912140 127.1398960
 102.8467310  33.9071460 137.7797110 102.3440910  34.6476860 138.1190920
 103.6623970  34.2955460 137.4633900 101.1389320  39.1504640 131.2258470
 100.1979460  39.1654870 131.4006160 101.4533390  38.3640600 131.6718770
 103.1414900  46.3213490 132.9012730 103.2662320  47.1444660 133.3736540
 104.0080460  46.1104220 132.5536880  89.6190710  47.5990770 141.7615440
  90.4203440  47.9202820 142.1750840  89.1042530  47.2386350 142.4835350
  98.4555340  43.7070640 141.7090850  97.8493500  43.7302240 140.9686600
  98.1509450  42.9753680 142.2458100  99.8855710  47.4350930 140.3200260
 100.8377460  47.3508950 140.2700500  99.7383930  48.0992640 140.9934050
 102.7764910  46.8145140 125.8192170 102.4906420  46.4010280 125.0046350
 102.5784460  47.7432850 125.6992690  87.3388520  40.0864230 140.7051490
  87.8427540  39.5071510 141.2767720  86.5995940  40.3704460 141.2427860
  94.2412140  42.8078420 124.2597780  94.1362780  42.1930770 124.9859160
  94.0736360  42.2844310 123.4760790  94.3926460  41.4935220 140.2387010
  93.6272130  42.0620220 140.1541680  94.5742420  41.2011430 139.3455240
  97.4814870  41.8698450 124.8639770  96.9324970  42.3167750 125.5082510
  98.1034130  41.3647700 125.3877440 101.5349810  43.2240550 140.7962030
 102.2759280  43.5616310 140.2929490 100.7722490  43.3932610 140.2431800
  89.3711600  38.2293820 141.6001560  89.4116940  37.9307690 142.5086790
  90.2257100  38.6301430 141.4409080  93.1489990  40.8289370 126.7605070
  93.5706410  40.6629240 127.6036460  93.2740830  40.0189600 126.2660210
  91.3117410  36.8085920 139.5676050  90.7813870  36.3176870 138.9399390
  91.9805480  37.2370120 139.0333980  95.6617630  39.8526980 124.0082170
  96.1823290  39.1376000 123.6423320  96.3086030  40.4912850 124.3082680
 100.2095470  41.2755380 139.3317240 100.6236490  41.4300460 140.1807660
  99.2746470  41.4010600 139.4943020 100.6817640  38.6151540 141.3356390
 101.2638410  37.8603860 141.2476870 100.8579410  39.1458980 140.5587870
  91.7989710  33.7748290 139.6473340  91.7046580  33.1569040 138.9224210
  91.2187100  34.5014580 139.4203250  94.5651150  32.3321530 136.6800730
  94.1168450  32.3545790 135.8346280  93.9316350  31.9340550 137.2771030
  94.9710700  41.2275860 137.3013170  95.3898810  42.0708590 137.1289410
  94.0519330  41.3647900 137.0719950  97.3074600  38.9592040 138.6851010
  97.4270810  38.3633180 139.4245850  98.1668600  38.9961730 138.2652310
  99.6462500  39.5129230 137.2613520  99.1197720  40.0371850 136.6578660
  99.9893840  40.1456620 137.8923250  92.8218120  47.5328870 138.4170900
  92.2839210  48.2574930 138.0979600  93.0752080  47.0559210 137.6268240
  94.0743370  35.5013390 139.9426830  94.6643060  35.1929240 140.6304650
  93.2563610  35.0293140 140.0986730  98.8936800  35.1179200 140.1759850
  98.2052320  34.4560740 140.1109840  99.6142820  34.6717470 140.6208310
  99.5237200  31.7130830 126.2350110  99.8039490  30.8698730 126.5909530
  98.7502930  31.9453940 126.7488860  90.8431690  34.0023220 123.6941110
  91.1457590  34.0090650 122.7860260  91.5826280  33.6521080 124.1908770
  95.6780330  48.7680080 138.6757550  95.6039030  49.6715220 138.9829920
  94.7759170  48.4491980 138.6479620  94.0616620  32.9457840 124.6797310
  93.7138620  32.2681830 124.0999760  94.2629390  32.4847350 125.4940700
  96.2265660  47.9338590 126.2983910  97.1216450  48.2723560 126.3202670
  96.2583290  47.2118000 125.6708190  89.8661820  43.3065640 124.5270910
  90.3036690  43.8495310 125.1828490  90.3509550  42.4812590 124.5367250
  87.0807620  46.0954670 131.9791170  87.4110630  45.2275730 131.7469810
  87.5098620  46.3013190 132.8096130  87.5697830  46.9625260 134.7172800
  87.1328820  47.1426060 135.5496950  88.1375510  47.7199880 134.5754520
 103.2060010  46.4642260 139.0050110 102.6062000  46.5234820 138.2614030
 103.3353910  45.5247240 139.1346960 104.4461460  44.2060080 124.3419820
 103.6154420  44.2736730 124.8127050 104.6233290  45.0964200 124.0386680
 103.9017920  40.9507560 126.8454020 104.6636830  41.5204210 126.9513710
 103.9172290  40.3834760 127.6162330  87.4022260  39.4745490 131.0761680
  86.7471100  39.2057130 130.4321380  88.2400210  39.3649970 130.6263660
 104.9077890  41.8057660 131.6895950 105.2786720  41.0224980 131.2831920
 105.5479820  42.4946760 131.5113250 101.8911650  43.1894240 137.1026270
 101.0771490  43.6191400 137.3652060 102.2985850  43.8012650 136.4895320
 103.9537090  41.2441930 124.0026540 104.2285930  42.1520810 123.8745760
 103.7647830  41.1804460 124.9388530 100.3512700  34.2686780 125.2980170
 100.7697580  34.0817760 124.4576830 100.0448760  33.4165830 125.6083100
 103.8502430  39.1810920 128.9955970 103.4746030  38.4138850 128.5637260
 103.1205550  39.5633620 129.4830900  88.4398190  39.8598060 135.6165020
  88.8071230  39.7725460 136.4961040  87.8709010  39.0964610 135.5171880
 103.2402050  38.3282440 138.6295490 103.0088140  38.0995190 137.7293440
 103.5006600  39.2481990 138.5840380  87.9914190  36.7707150 139.5223440
  87.0970240  36.7373910 139.8617150  88.5311740  36.9693940 140.2874690
 101.6790120  33.5538870 141.4075190 102.5560300  33.5622270 141.7909190
 101.6910960  32.8169710 140.7967540  86.6160340  36.6844420 127.0187010
  85.7124420  36.9474620 126.8438670  87.1000960  36.9555590 126.2386970
 103.1253390  37.4068410 132.2963210 103.6490870  36.9131060 131.6653380
 103.7112810  37.5418770 133.0410780 103.3043110  37.4908280 135.8182760
 102.3545820  37.4571820 135.9327750 103.4856120  38.4008390 135.5832530
  88.8061710  31.7949290 123.9684040  89.5289840  32.3358230 124.2865260
  89.0786230  31.5212710 123.0925580 102.6153360  36.6641760 128.2355620
 103.1112480  36.4312630 129.0204500 102.4169430  35.8253600 127.8193260
  88.4953900  31.0455480 133.8706660  89.1430090  30.4952860 133.4301820
  88.9155740  31.2998630 134.6922470 104.0440520  35.3002710 130.7693300
 103.9339800  35.1458750 131.7075570 104.8048110  34.7723650 130.5268710
 102.3906240  31.2396840 137.2276300 103.0278460  31.8530980 137.5935490
 102.5381130  31.2757500 136.2825530 104.9330790  33.1310630 124.0099440
 105.8580100  32.9991810 123.8017730 104.9106580  33.2103450 124.9635890
 105.0069280  33.9021290 126.6356150 104.2120780  33.8366410 127.1649060
 105.2112560  34.8371930 126.6241500 101.9487700  47.9412840 130.6294540
 102.5446770  47.6197410 129.9528960 102.2065850  47.4684660 131.4207810
  88.2485900  31.2011150 136.6131980  87.9000720  31.6574970 137.3790160
  87.9173600  30.3068280 136.6954410  89.8550270  44.3730750 140.7785170
  89.8119900  44.0023660 141.6599630  89.9861280  45.3108320 140.9186990
  93.5556300  45.9290340 136.3794890  93.3147660  46.1964900 135.4925410
  94.4958940  46.0996070 136.4345750  95.7610720  32.3923030 140.1351400
  95.6999610  32.9844860 140.8846810  96.7011100  32.2848990 139.9901660
  98.3985280  32.0493090 139.7743690  99.0125690  32.3672380 139.1124770
  98.9434840  31.5641680 140.3939550 104.8160460  47.9484720 137.1805530
 104.3218740  48.3453590 136.4632660 104.2073750  47.3233930 137.5742810
  88.9206540  30.7287350 139.8882750  89.4689530  30.5475400 139.1248860
  88.9861850  29.9381460 140.4239060  89.6938300  47.3193000 137.8982950
  89.0998620  47.1877700 138.6372990  89.6862140  46.4831140 137.4325050
  99.1393320  30.6125230 136.1012980  98.2653160  30.9460340 135.8985910
  99.0304070  30.1398410 136.9264850 100.0465300  32.8196100 137.4854700
  99.7178660  32.0047860 137.1056430 100.9947600  32.7765910 137.3620390
 102.4999910  48.5908140 134.4592270 102.0402880  49.3423950 134.0850290
 101.8712370  47.8714610 134.4007070  89.3250530  44.6851380 136.8490990
  88.5984590  44.0656670 136.7816940  89.3859680  45.0791990 135.9789070
  92.9295630  46.8996380 133.6340400  93.4460650  46.2883740 133.1088660
  93.5793010  47.4025160 134.1251410  95.6691130  47.7904870 134.4609380
  95.9568940  47.5359170 133.5842390  96.1814350  47.2382230 135.0514950
  96.8868140  31.5295070 135.0405890  96.1039930  32.0040570 135.3202650
  96.5931070  30.6249900 134.9319070 101.4389210  32.2318170 133.0854980
 101.8797300  32.1763270 132.2376580 101.1696800  33.1476180 133.1565160
 103.3027780  31.8633410 131.0963800 103.2416180  30.9194630 130.9494820
 104.0819810  31.9713500 131.6417260  88.2308550  31.8342550 127.5619610
  88.9887910  31.9471430 126.9883640  87.7685720  32.6711750 127.5163040
  94.7722360  33.9481820 130.5521920  93.9596870  33.5738710 130.2117800
  95.2764000  33.1926900 130.8543110  99.2747340  30.6124270 131.7904990
  99.8776710  31.1844480 132.2653510  98.5340330  31.1763710 131.5678890
 102.4181940  31.0145830 127.0645270 102.6132570  31.9129280 127.3312700
 101.6311810  30.7832910 127.5578220  90.6033700  32.3606600 126.1021580
  91.1326460  31.5736400 125.9729530  91.2362020  33.0397790 126.3357110
  92.7971540  32.0981740 129.1566970  92.1674280  31.3969050 129.3237100
  92.2576680  32.8585870 128.9400130  95.7363490  48.7120970 141.8277580
  96.6630800  48.4765240 141.8713540  95.7213920  49.5392970 141.3463610
 103.9708550  48.2546540 128.8251830 104.1460740  47.5684280 128.1812750
 103.2730120  48.7793590 128.4328500  92.9227100  31.3765720 141.5919460
  92.6411370  31.8799320 140.8280280  93.3046800  30.5787470 141.2261590
  99.5242560  30.7919300 142.1699930  99.4108010  31.1113910 143.0651450
 100.3412300  31.1931810 141.8737210 102.3041050  47.9390830 141.6518620
 103.0966370  47.4440060 141.4444580 102.5974200  48.6180970 142.2594230
 100.5826180  44.9950980 113.1943070 100.1207710  44.2238220 113.5230240
 101.3951730  45.0217050 113.6995520  96.8089490  47.2808990 112.8147060
  96.1900930  47.7366490 112.2441500  97.6641270  47.4360450 112.4136760
 100.8157030  33.5668800 111.5811370 101.6366650  33.0765370 111.6236850
 100.8491110  34.1566460 112.3343210  93.0045650  37.4130360 114.4425650
  93.5123870  37.9111330 115.0830670  93.5358890  36.6365560 114.2665010
  91.2881750  32.0528920 118.7089070  91.2900190  32.5701310 117.9034970
  90.4586060  31.5759100 118.6859000  87.0436040  42.8504760 107.5818600
  86.6664020  43.3391860 106.8503500  87.3009110  43.5230040 108.2125130
 102.6681290  45.1244310 116.6166390 101.9844810  45.7943420 116.6083060
 103.2075580  45.3224960 115.8511250  94.6524970  31.2521150 113.0404110
  94.9599950  30.6968040 112.3239610  93.7225670  31.3865610 112.8577100
 100.2040030  46.9688440 115.3311570 100.2167190  46.5650730 114.4633830
  99.6515250  47.7435730 115.2273000 101.4985450  43.6904660 110.4201740
 101.3881780  42.7478990 110.5451160 101.4953700  44.0520300 111.3064500
  99.6025470  41.8718280 116.6594180 100.0194260  41.6578390 115.8247640
 100.3265290  42.1291070 117.2302800 101.0703020  40.8790280 110.2799480
 100.4515440  40.5409830 109.6325780 101.0527470  40.2350040 110.9878670
 101.2029680  47.1034150 118.3846270 100.7260240  47.9106340 118.1918880
 100.5191470  46.4512480 118.5372480  92.2062500  43.2683970 121.3730970
  91.3091030  43.4923940 121.6204370  92.2315370  43.3918910 120.4242370
  92.8314070  46.0818990 122.1573490  92.8029500  46.4861940 121.2901920
  92.6679040  45.1529350 121.9945090 102.8284860  31.3719900 105.6013270
 102.5157520  31.4646730 106.5012340 103.5897330  31.9500930 105.5510700
 104.7828890  46.8646090 123.4537660 105.2588610  47.3428980 124.1326740
 105.4036050  46.7963580 122.7283160 104.1862140  44.0558940 120.6137670
 104.3125200  43.8170820 119.6954850 104.2283520  43.2243480 121.0859750
  98.0478880  47.7586940 119.1832480  98.5623550  47.6694950 119.9854910
  97.2047960  48.1046640 119.4760390 100.0233280  48.0442280 108.6116480
  99.8634420  47.7545220 109.5098310  99.8579990  47.2682410 108.0761710
  92.5021660  47.8240810 110.3888100  92.3264140  46.9076350 110.1755900
  91.6477400  48.1828100 110.6285900  99.2909340  47.1792550 111.2462970
  99.7466290  46.3981930 111.5601590  99.6301860  47.8899370 111.7904150
 104.0386150  36.1091400 121.5787410 103.4230420  36.6171070 121.0502870
 103.7182570  35.2089730 121.5213350  91.8130660  32.0814770 113.4414280
  91.3698810  32.8624310 113.1098800  92.3715650  32.4044660 114.1485220
  96.1000470  34.9483290 119.0449600  95.6379840  35.1566310 119.8569540
  95.6978580  34.1342640 118.7420270  98.1954690  37.6693990 122.2745050
  98.5208100  36.8357740 121.9347280  98.9835020  38.1922510 122.4223380
  94.9289480  31.7025470 108.3220110  94.3043660  31.6985340 109.0473420
  94.8419600  30.8356430 107.9256080  93.8506560  32.6262100 115.3003880
  94.1478890  33.5324930 115.2195900  94.3992120  32.1380880 114.6863450
  94.0444090  38.1033920 121.8355800  93.9487690  37.1628650 121.6856200
  94.8876070  38.3248990 121.4403870  95.7499680  34.5982560 123.0586320
  95.0598000  34.4054760 123.6932410  96.4931980  34.8817200 123.5910620
  94.4640040  35.1135200 114.2992730  94.4676100  34.6725150 113.4497270
  95.3591160  35.4352530 114.4064550 101.9159310  31.3046860 121.1449560
 102.2405080  30.5736520 121.6707540 101.9515820  30.9860500 120.2430550
 101.8417150  41.4171970 114.7535590 102.5616270  41.9127260 114.3631700
 101.6398970  40.7389860 114.1089460  97.3027090  32.8109930 108.8964980
  96.4891700  32.3123100 108.8210290  97.1089040  33.6508180 108.4801330
  97.2235950  41.4881030 120.6404590  97.1573260  40.5676700 120.3862180
  96.5941090  41.5856470 121.3549230 100.0175480  37.1829580 107.1927140
 100.9055100  37.4946810 107.0178480  99.9880570  36.3101830 106.8007720
  97.1552680  44.3101600 120.3908390  97.1697220  43.3782560 120.1727300
  96.4477780  44.3961360 121.0298160 102.2889750  38.4941420 106.6607000
 102.2053470  38.9255640 105.8103440 103.0083940  38.9539770 107.0933820
 103.3663890  40.9508940 119.7376970 102.6412080  41.5437720 119.5406360
 103.8939350  40.9432480 118.9390340 103.3177000  45.3483680 109.3889130
 102.6753160  44.6939300 109.6632850 102.9307660  45.7538770 108.6129800
  90.1865750  30.7850480 110.7279110  90.0580380  30.7768380 111.6764030
  89.3627770  31.1233570 110.3770120  97.8618660  43.9551520 116.2026340
  98.5040890  43.2544680 116.3158510  98.3868010  44.7349960 116.0223230
 101.7074380  44.2400140 105.9265480 101.4811960  43.5230580 106.5190120
 101.3170580  43.9912580 105.0887230  99.6356280  44.7546420 119.4062400
  99.9712520  45.3413110 120.0840320  98.7156620  44.6239130 119.6360190
  87.1859680  32.5441600 120.1885810  86.4718200  32.7438520 120.7938420
  87.6054720  31.7681170 120.5600610 101.2890630  42.1572080 107.5879640
 101.0012330  42.6184770 108.3757520 102.0842800  41.6969850 107.8563860
  87.4732270  46.5321860 121.1752340  87.5823390  45.5916600 121.0347730
  86.8212830  46.7976610 120.5266070  95.4644860  44.8037750 122.5750460
  95.1441730  44.0846990 123.1196150  94.7903220  45.4792820 122.6486520
  89.1065670  40.8713090 108.2630370  88.4993620  41.6111990 108.2725670
  89.5815020  40.9612450 107.4368570 102.0460490  33.9920850 108.7474820
 101.4173650  34.0966520 108.0333050 101.5512410  34.2117630 109.5368700
  95.6400450  37.6903500 118.1625230  96.1385700  38.1649320 118.8277080
  95.7823400  36.7667020 118.3695260  98.0459950  32.9957460 111.6028490
  97.9227730  33.0143590 110.6538000  98.9944510  33.0436400 111.7226890
  95.1336740  48.2312760 110.8756470  95.3878240  48.1934150 109.9535840
  94.1849220  48.1046090 110.8684720 101.1389320  39.1504640 112.4514980
 100.1979460  39.1654870 112.6262670 101.4533390  38.3640600 112.8975280
 103.1414900  46.3213490 114.1269240 103.2662320  47.1444660 114.5993050
 104.0080460  46.1104220 113.7793390  87.4977910  44.4818270 109.6727880
  86.5717690  44.7239410 109.6633290  87.9634340  45.3092530 109.5512630
  98.4555340  43.7070640 122.9347360  97.8493500  43.7302240 122.1943110
  98.1509450  42.9753680 123.4714610  99.8855710  47.4350930 121.5456770
 100.8377460  47.3508950 121.4957010  99.7383930  48.0992640 122.2190560
 102.7764910  46.8145140 107.0448680 102.4906420  46.4010280 106.2302860
 102.5784460  47.7432850 106.9249200  94.2412140  42.8078420 105.4854290
  94.1362780  42.1930770 106.2115670  94.0736360  42.2844310 104.7017300
  94.3926460  41.4935220 121.4643520  93.6272130  42.0620220 121.3798190
  94.5742420  41.2011430 120.5711750  97.4814870  41.8698450 106.0896280
  96.9324970  42.3167750 106.7339020  98.1034130  41.3647700 106.6133950
 101.5349810  43.2240550 122.0218540 102.2759280  43.5616310 121.5186000
 100.7722490  43.3932610 121.4688310 100.2095470  41.2755380 120.5573750
 100.6236490  41.4300460 121.4064170  99.2746470  41.4010600 120.7199530
 100.6817640  38.6151540 122.5612900 101.2638410  37.8603860 122.4733380
 100.8579410  39.1458980 121.7844380  91.7989710  33.7748290 120.8729850
  91.7046580  33.1569040 120.1480720  91.2187100  34.5014580 120.6459760
  94.5651150  32.3321530 117.9057240  94.1168450  32.3545790 117.0602790
  93.9316350  31.9340550 118.5027540  97.3074600  38.9592040 119.9107520
  97.4270810  38.3633180 120.6502360  98.1668600  38.9961730 119.4908820
  94.0743370  35.5013390 121.1683340  94.6643060  35.1929240 121.8561160
  93.2563610  35.0293140 121.3243240  98.8936800  35.1179200 121.4016360
  98.2052320  34.4560740 121.3366350  99.6142820  34.6717470 121.8464820
  99.5237200  31.7130830 107.4606620  99.8039490  30.8698730 107.8166040
  98.7502930  31.9453940 107.9745370  90.8431690  34.0023220 104.9197620
  91.1457590  34.0090650 104.0116770  91.5826280  33.6521080 105.4165280
  94.0616620  32.9457840 105.9053820  93.7138620  32.2681830 105.3256270
  94.2629390  32.4847350 106.7197210  96.2265660  47.9338590 107.5240420
  97.1216450  48.2723560 107.5459180  96.2583290  47.2118000 106.8964700
  89.8661820  43.3065640 105.7527420  90.3036690  43.8495310 106.4085000
  90.3509550  42.4812590 105.7623760  87.0807620  46.0954670 113.2047680
  87.4110630  45.2275730 112.9726320  87.5098620  46.3013190 114.0352640
  87.5697830  46.9625260 115.9429310  87.1328820  47.1426060 116.7753460
  88.1375510  47.7199880 115.8011030 103.2060010  46.4642260 120.2306620
 102.6062000  46.5234820 119.4870540 103.3353910  45.5247240 120.3603470
 104.4461460  44.2060080 105.5676330 103.6154420  44.2736730 106.0383560
 104.6233290  45.0964200 105.2643190 103.9017920  40.9507560 108.0710530
 104.6636830  41.5204210 108.1770220 103.9172290  40.3834760 108.8418840
 104.9077890  41.8057660 112.9152460 105.2786720  41.0224980 112.5088430
 105.5479820  42.4946760 112.7369760 101.8911650  43.1894240 118.3282780
 101.0771490  43.6191400 118.5908570 102.2985850  43.8012650 117.7151830
 103.9537090  41.2441930 105.2283050 104.2285930  42.1520810 105.1002270
 103.7647830  41.1804460 106.1645040 103.8502430  39.1810920 110.2212480
 103.4746030  38.4138850 109.7893770 103.1205550  39.5633620 110.7087410
 103.2402050  38.3282440 119.8552000 103.0088140  38.0995190 118.9549950
 103.5006600  39.2481990 119.8096890 101.6790120  33.5538870 122.6331700
 102.5560300  33.5622270 123.0165700 101.6910960  32.8169710 122.0224050
  88.8061710  31.7949290 105.1940550  89.5289840  32.3358230 105.5121770
  89.0786230  31.5212710 104.3182090 102.6153360  36.6641760 109.4612130
 103.1112480  36.4312630 110.2461010 102.4169430  35.8253600 109.0449770
 104.0440520  35.3002710 111.9949810 103.9339800  35.1458750 112.9332080
 104.8048110  34.7723650 111.7525220 104.9330790  33.1310630 105.2355950
 105.8580100  32.9991810 105.0274240 104.9106580  33.2103450 106.1892400
 105.0069280  33.9021290 107.8612660 104.2120780  33.8366410 108.3905570
 105.2112560  34.8371930 107.8498010 101.9487700  47.9412840 111.8551050
 102.5446770  47.6197410 111.1785470 102.2065850  47.4684660 112.6464320
  88.2485900  31.2011150 117.8388490  87.9000720  31.6574970 118.6046670
  87.9173600  30.3068280 117.9210920  89.8550270  44.3730750 122.0041680
  89.8119900  44.0023660 122.8856140  89.9861280  45.3108320 122.1443500
  95.7610720  32.3923030 121.3607910  95.6999610  32.9844860 122.1103320
  96.7011100  32.2848990 121.2158170  98.3985280  32.0493090 121.0000200
  99.0125690  32.3672380 120.3381280  98.9434840  31.5641680 121.6196060
 104.8160460  47.9484720 118.4062040 104.3218740  48.3453590 117.6889170
 104.2073750  47.3233930 118.7999320  88.9206540  30.7287350 121.1139260
  89.4689530  30.5475400 120.3505370  88.9861850  29.9381460 121.6495570
 102.4999910  48.5908140 115.6848780 102.0402880  49.3423950 115.3106800
 101.8712370  47.8714610 115.6263580  87.6080530  48.0025770 111.2844260
  87.4402570  47.3696450 111.9826150  86.7415040  48.2085170 110.9338450
  88.2308550  31.8342550 108.7876120  88.9887910  31.9471430 108.2140150
  87.7685720  32.6711750 108.7419550  94.7722360  33.9481820 111.7778430
  93.9596870  33.5738710 111.4374310  95.2764000  33.1926900 112.0799620
  99.2747340  30.6124270 113.0161500  99.8776710  31.1844480 113.4910020
  98.5340330  31.1763710 112.7935400 102.4181940  31.0145830 108.2901780
 102.6132570  31.9129280 108.5569210 101.6311810  30.7832910 108.7834730
  90.6033700  32.3606600 107.3278090  91.1326460  31.5736400 107.1986040
  91.2362020  33.0397790 107.5613620  92.7971540  32.0981740 110.3823480
  92.1674280  31.3969050 110.5493610  92.2576680  32.8585870 110.1656640
 103.9708550  48.2546540 110.0508340 104.1460740  47.5684280 109.4069260
 103.2730120  48.7793590 109.6585010  92.9227100  31.3765720 122.8175970
  92.6411370  31.8799320 122.0536790  93.3046800  30.5787470 122.4518100
  99.5242560  30.7919300 123.3956440  99.4108010  31.1113910 124.2907960
 100.3412300  31.1931810 123.0993720 102.3041050  47.9390830 122.8775130
 103.0966370  47.4440060 122.6701090 102.5974200  48.6180970 123.4850740
  98.4300710  38.8111770  93.7591180  98.3494760  37.8966380  93.4882890
  98.0165130  39.3078840  93.0530890  96.5618750  40.5890790  95.6400450
  95.7860850  40.1091230  95.9299020  97.2131680  39.9096440  95.4656610
  90.5784580  40.9010600  96.5176210  89.7469460  40.6459310  96.9172720
  91.1865560  40.9721370  97.2534130 100.5826180  44.9950980  94.4199580
 100.1207710  44.2238220  94.7486750 101.3951730  45.0217050  94.9252030
  90.5585840  44.9350690  96.7134230  90.8613880  44.0448430  96.5344450
  91.3029430  45.4920910  96.4856480  88.9876530  35.8612490  90.3018600
  88.0993230  36.2028460  90.1998480  89.2717720  35.6612810  89.4099430
  86.9509540  38.4618140  96.1858300  87.5225650  37.6940340  96.1861940
  86.9511080  38.7606900  95.2764910  96.0027740  43.2647980  95.6470610
  95.9336020  42.3237920  95.4859740  96.7647600  43.3549390  96.2193180
  88.1934410  33.8702500  97.9727230  88.0137250  32.9728250  98.2529990
  87.7914490  34.4174370  98.6474180  97.0332910  36.0718360  95.8739540
  97.4097730  35.1990240  95.7613210  96.9352420  36.4077060  94.9829980
 100.8157030  33.5668800  92.8067880 101.6366650  33.0765370  92.8493360
 100.8491110  34.1566460  93.5599720  88.8121080  36.3663000  96.5809570
  89.4931190  36.6301370  97.1996970  88.4969130  35.5263870  96.9147580
  93.0045650  37.4130360  95.6682160  93.5123870  37.9111330  96.3087180
  93.5358890  36.6365560  95.4921520  91.2881750  32.0528920  99.9345580
  91.2900190  32.5701310  99.1291480  90.4586060  31.5759100  99.9115510
  97.6752840  42.1648230  91.4335480  97.0570110  42.6297680  90.8698200
  98.1876090  42.8575710  91.8504990  92.5384600  41.6924100  98.1119080
  92.2053980  42.3193020  98.7540150  92.7151280  42.2185980  97.3320750
  90.9697080  33.7638880  97.9416030  91.3113890  34.6080930  97.6469900
  90.0312890  33.9122620  98.0581370  91.7503700  43.6604900  99.9268260
  92.3677700  44.3355980  99.6452710  90.8896820  44.0692880  99.8355760
  87.0436040  42.8504760  88.8075110  86.6664020  43.3391860  88.0760010
  87.3009110  43.5230040  89.4381640 102.6681290  45.1244310  97.8422900
 101.9844810  45.7943420  97.8339570 103.2075580  45.3224960  97.0767760
 101.4985450  43.6904660  91.6458250 101.3881780  42.7478990  91.7707670
 101.4953700  44.0520300  92.5321010  99.6025470  41.8718280  97.8850690
 100.0194260  41.6578390  97.0504150 100.3265290  42.1291070  98.4559310
 101.0703020  40.8790280  91.5055990 100.4515440  40.5409830  90.8582290
 101.0527470  40.2350040  92.2135180  92.6462370  39.8434720  93.7840470
  92.2419370  39.1311970  93.2886370  92.7325490  39.4987960  94.6728510
  93.1144070  43.5302280  95.9479680  92.8172360  42.9247750  95.2687460
  94.0643890  43.5679590  95.8369040  91.3590990  36.6177930  97.5639510
  91.9105580  36.7273270  96.7892760  91.8734500  36.9915530  98.2794740
  92.2062500  43.2683970 102.5987480  91.3091030  43.4923940 102.8460880
  92.2315370  43.3918910 101.6498880  99.2467720  40.1177090  88.5128740
  99.6861000  39.2799520  88.3666560  99.9596140  40.7506490  88.5992880
  91.0333720  40.1397290 101.1744850  90.8941490  41.0120090 101.5432250
  90.1515080  39.7970100 101.0292790  97.3563100  45.0573160  92.4809980
  97.7959010  45.7997490  92.0665370  97.2949990  45.2999730  93.4048940
  89.3467000  38.7379700  91.2847120  89.2264600  39.4641790  90.6728390
  89.0367890  37.9682610  90.8075030 104.7828890  46.8646090 104.6794170
 105.2588610  47.3428980 105.3583250 105.4036050  46.7963580 103.9539670
  86.9852370  41.9094840  97.0915760  87.0632790  42.0443610  96.1471480
  87.5994050  41.2010730  97.2843880  88.2300000  43.6095030  93.5021940
  87.8228080  43.7509620  92.6475540  89.1213010  43.3255190  93.2993150
 104.1862140  44.0558940 101.8394180 104.3125200  43.8170820 100.9211360
 104.2283520  43.2243480 102.3116260  92.5021660  47.8240810  91.6144610
  92.3264140  46.9076350  91.4012410  91.6477400  48.1828100  91.8542410
 104.0386150  36.1091400 102.8043920 103.4230420  36.6171070 102.2759380
 103.7182570  35.2089730 102.7469860  87.0411890  42.9509010  99.6310220
  87.2042930  42.4814370  98.8129590  87.5064340  42.4432570 100.2959060
  91.8130660  32.0814770  94.6670790  91.3698810  32.8624310  94.3355310
  92.3715650  32.4044660  95.3741730  94.9289480  31.7025470  89.5476620
  94.3043660  31.6985340  90.2729930  94.8419600  30.8356430  89.1512590
  93.8506560  32.6262100  96.5260390  94.1478890  33.5324930  96.4452410
  94.3992120  32.1380880  95.9119960  91.6044880  37.2048340  92.3952040
  91.3785800  36.9885510  93.2998660  90.8237410  37.6376800  92.0498010
  98.8342640  37.2111710  90.9942690  98.2351530  37.9347510  90.8106310
  99.3822250  37.1488490  90.2119140  97.4407510  35.8475250  93.0245970
  97.8337080  36.1647450  92.2114660  97.8024360  34.9687130  93.1390490
  89.1754630  34.5147590 101.2146090  88.7818020  35.3622800 101.4218870
  88.4873030  33.8773960 101.4054730  86.6641910  36.3796170  86.4578890
  86.5816580  37.3226930  86.5993880  86.3124970  36.2371080  85.5791240
  98.0262650  38.4381000  97.1196750  97.2943770  38.9467810  97.4686850
  97.6286990  37.6210980  96.8185530  94.4640040  35.1135200  95.5249240
  94.4676100  34.6725150  94.6753780  95.3591160  35.4352530  95.6321060
  90.3142420  34.9961690  94.4843450  89.9742470  35.4736920  95.2410500
  89.5519740  34.5426810  94.1244550  88.6150870  42.3260440 101.7906030
  88.2305660  41.6854110 102.3888990  88.9263060  43.0296560 102.3600760
  94.7648010  39.1736980  97.2714650  95.1318140  38.6995550  98.0175990
  94.5753070  40.0478550  97.6122990  92.5547380  38.2145620  99.5898860
  92.2504450  39.0937600  99.8149220  93.5093840  38.2745410  99.6256300
 101.8417150  41.4171970  95.9792100 102.5616270  41.9127260  95.5888210
 101.6398970  40.7389860  95.3345970  97.3027090  32.8109930  90.1221490
  96.4891700  32.3123100  90.0466800  97.1089040  33.6508180  89.7057840
  97.2235950  41.4881030 101.8661100  97.1573260  40.5676700 101.6118690
  96.5941090  41.5856470 102.5805740 100.0175480  37.1829580  88.4183650
 100.9055100  37.4946810  88.2434990  99.9880570  36.3101830  88.0264230
  91.1266570  42.0886990  93.8244520  91.6445240  41.2855250  93.7701410
  90.6750590  42.0266130  94.6661350  88.6111110  39.0548360 100.7370220
  88.2526050  39.7202210 101.3243560  88.3165670  38.2231910 101.1082840
 103.3663890  40.9508940 100.9633480 102.6412080  41.5437720 100.7662870
 103.8939350  40.9432480 100.1646850 103.3177000  45.3483680  90.6145640
 102.6753160  44.6939300  90.8889360 102.9307660  45.7538770  89.8386310
  98.8963480  42.6769110  94.4617330  99.2487300  42.0797240  93.8018700
  98.0125810  42.3513340  94.6325580  94.9826760  43.4366800  91.8687740
  95.6697890  43.9836010  92.2495330  94.1959180  43.9807530  91.9037350
  87.1219160  39.0539620  87.3604820  87.9914010  39.3364420  87.6440740
  86.6309480  39.8675490  87.2453630  96.5886580  45.9519170  98.7105400
  97.2328800  46.1578550  99.3878820  96.9516020  45.1907570  98.2576250
  97.8618660  43.9551520  97.4282850  98.5040890  43.2544680  97.5415020
  98.3868010  44.7349960  97.2479740 101.7074380  44.2400140  87.1521990
 101.4811960  43.5230580  87.7446630 101.3170580  43.9912580  86.3143740
  99.6356280  44.7546420 100.6318910  99.9712520  45.3413110 101.3096830
  98.7156620  44.6239130 100.8616700  87.4890410  48.2667000  87.9266450
  87.8488050  48.8656340  87.2723720  87.3482750  48.8126890  88.7001480
  87.1859680  32.5441600 101.4142320  86.4718200  32.7438520 102.0194930
  87.6054720  31.7681170 101.7857120  87.4732270  46.5321860 102.4008850
  87.5823390  45.5916600 102.2604240  86.8212830  46.7976610 101.7522580
  93.5059030  45.6498200  88.7440120  93.4969130  46.3827890  88.1284630
  92.5857390  45.4029780  88.8367080  94.0144520  36.2706800  91.3889210
  93.3060670  36.7393140  91.8302820  94.2989000  35.6128810  92.0234400
  95.6400450  37.6903500  99.3881740  96.1385700  38.1649320 100.0533590
  95.7823400  36.7667020  99.5951770  98.0459950  32.9957460  92.8285000
  97.9227730  33.0143590  91.8794510  98.9944510  33.0436400  92.9483400
  95.1336740  48.2312760  92.1012980  95.3878240  48.1934150  91.1792350
  94.1849220  48.1046090  92.0941230 101.1389320  39.1504640  93.6771490
 100.1979460  39.1654870  93.8519180 101.4533390  38.3640600  94.1231790
  90.6132430  48.4144700  95.0242880  91.3494910  47.8660160  95.2951450
  90.9973350  49.2800710  94.8848870  87.4977910  44.4818270  90.8984390
  86.5717690  44.7239410  90.8889800  87.9634340  45.3092530  90.7769140
 102.7764910  46.8145140  88.2705190 102.4906420  46.4010280  87.4559370
 102.5784460  47.7432850  88.1505710  87.3388520  40.0864230 103.1564510
  87.8427540  39.5071510 103.7280740  86.5995940  40.3704460 103.6940880
  94.3926460  41.4935220 102.6900030  93.6272130  42.0620220 102.6054700
  94.5742420  41.2011430 101.7968260 101.5349810  43.2240550 103.2475050
 102.2759280  43.5616310 102.7442510 100.7722490  43.3932610 102.6944820
  91.3117410  36.8085920 102.0189070  90.7813870  36.3176870 101.3912410
  91.9805480  37.2370120 101.4847000 100.2095470  41.2755380 101.7830260
 100.6236490  41.4300460 102.6320680  99.2746470  41.4010600 101.9456040
 100.6817640  38.6151540 103.7869410 101.2638410  37.8603860 103.6989890
 100.8579410  39.1458980 103.0100890  91.7989710  33.7748290 102.0986360
  91.7046580  33.1569040 101.3737230  91.2187100  34.5014580 101.8716270
  94.5651150  32.3321530  99.1313750  94.1168450  32.3545790  98.2859300
  93.9316350  31.9340550  99.7284050  94.9710700  41.2275860  99.7526190
  95.3898810  42.0708590  99.5802430  94.0519330  41.3647900  99.5232970
  99.6462500  39.5129230  99.7126540  99.1197720  40.0371850  99.1091680
  99.9893840  40.1456620 100.3436270  94.0743370  35.5013390 102.3939850
  94.6643060  35.1929240 103.0817670  93.2563610  35.0293140 102.5499750
  99.5237200  31.7130830  88.6863130  99.8039490  30.8698730  89.0422550
  98.7502930  31.9453940  89.2001880  90.8431690  34.0023220  86.1454130
  91.1457590  34.0090650  85.2373280  91.5826280  33.6521080  86.6421790
  94.0616620  32.9457840  87.1310330  93.7138620  32.2681830  86.5512780
  94.2629390  32.4847350  87.9453720  89.8661820  43.3065640  86.9783930
  90.3036690  43.8495310  87.6341510  90.3509550  42.4812590  86.9880270
  87.0807620  46.0954670  94.4304190  87.4110630  45.2275730  94.1982830
  87.5098620  46.3013190  95.2609150  91.6769540  44.4263680  92.0906160
  91.3765080  44.3028650  92.9910070  91.5707030  43.5672270  91.6821890
  87.5697830  46.9625260  97.1685820  87.1328820  47.1426060  98.0009970
  88.1375510  47.7199880  97.0267540 103.2060010  46.4642260 101.4563130
 102.6062000  46.5234820 100.7127050 103.3353910  45.5247240 101.5859980
  87.4022260  39.4745490  93.5274700  86.7471100  39.2057130  92.8834400
  88.2400210  39.3649970  93.0776680 101.8911650  43.1894240  99.5539290
 101.0771490  43.6191400  99.8165080 102.2985850  43.8012650  98.9408340
 100.3512700  34.2686780  87.7493190 100.7697580  34.0817760  86.9089850
 100.0448760  33.4165830  88.0596120  88.4398190  39.8598060  98.0678040
  88.8071230  39.7725460  98.9474060  87.8709010  39.0964610  97.9684900
 103.2402050  38.3282440 101.0808510 103.0088140  38.0995190 100.1806460
 103.5006600  39.2481990 101.0353400  87.9914190  36.7707150 101.9736460
  87.0970240  36.7373910 102.3130170  88.5311740  36.9693940 102.7387710
  86.6160340  36.6844420  89.4700030  85.7124420  36.9474620  89.2951690
  87.1000960  36.9555590  88.6899990  89.1587550  35.7409960  87.3794410
  89.8679250  35.3193180  86.8941690  88.4427490  35.8085190  86.7477760
  88.8061710  31.7949290  86.4197060  89.5289840  32.3358230  86.7378280
  89.0786230  31.5212710  85.5438600 102.3906240  31.2396840  99.6789320
 103.0278460  31.8530980 100.0448510 102.5381130  31.2757500  98.7338550
  88.2485900  31.2011150  99.0645000  87.9000720  31.6574970  99.8303180
  87.9173600  30.3068280  99.1467430  89.8550270  44.3730750 103.2298190
  89.8119900  44.0023660 104.1112650  89.9861280  45.3108320 103.3700010
  93.5556300  45.9290340  98.8307910  93.3147660  46.1964900  97.9438430
  94.4958940  46.0996070  98.8858770 104.8160460  47.9484720  99.6318550
 104.3218740  48.3453590  98.9145680 104.2073750  47.3233930 100.0255830
  88.9206540  30.7287350 102.3395770  89.4689530  30.5475400 101.5761880
  88.9861850  29.9381460 102.8752080  89.6938300  47.3193000 100.3495970
  89.0998620  47.1877700 101.0886010  89.6862140  46.4831140  99.8838070
  89.3250530  44.6851380  99.3004010  88.5984590  44.0656670  99.2329960
  89.3859680  45.0791990  98.4302090  92.9295630  46.8996380  96.0853420
  93.4460650  46.2883740  95.5601680  93.5793010  47.4025160  96.5764430
  96.8868140  31.5295070  97.4918910  96.1039930  32.0040570  97.7715670
  96.5931070  30.6249900  97.3832090  87.6080530  48.0025770  92.5100770
  87.4402570  47.3696450  93.2082660  86.7415040  48.2085170  92.1594960
  94.7722360  33.9481820  93.0034940  93.9596870  33.5738710  92.6630820
  95.2764000  33.1926900  93.3056130  99.2747340  30.6124270  94.2418010
  99.8776710  31.1844480  94.7166530  98.5340330  31.1763710  94.0191910
 102.4181940  31.0145830  89.5158290 102.6132570  31.9129280  89.7825720
 101.6311810  30.7832910  90.0091240  89.2143230  46.6959000  89.9550910
  88.6890850  47.0767030  89.2512870  89.1387810  47.3209770  90.6760620
  92.7971540  32.0981740  91.6079990  92.1674280  31.3969050  91.7750120
  92.2576680  32.8585870  91.3913150  91.8136200  48.6441380  88.8300160
  92.5455020  48.3600660  88.2824050  92.0729870  48.4054660  89.7199540
  90.9750990  44.7606110  88.8346490  90.3459870  45.2291210  89.3832320
  91.0898820  43.9155330  89.2692680  98.4300710  38.8111770  74.9847690
  98.3494760  37.8966380  74.7139400  98.0165130  39.3078840  74.2787400
  96.5618750  40.5890790  76.8656960  95.7860850  40.1091230  77.1555530
  97.2131680  39.9096440  76.6913120  90.5784580  40.9010600  77.7432720
  89.7469460  40.6459310  78.1429230  91.1865560  40.9721370  78.4790640
 100.5826180  44.9950980  75.6456090 100.1207710  44.2238220  75.9743260
 101.3951730  45.0217050  76.1508540  90.5585840  44.9350690  77.9390740
  90.8613880  44.0448430  77.7600960  91.3029430  45.4920910  77.7112990
  88.9876530  35.8612490  71.5275110  88.0993230  36.2028460  71.4254990
  89.2717720  35.6612810  70.6355940  96.8089490  47.2808990  75.2660080
  96.1900930  47.7366490  74.6954520  97.6641270  47.4360450  74.8649780
  96.0027740  43.2647980  76.8727120  95.9336020  42.3237920  76.7116250
  96.7647600  43.3549390  77.4449690  88.1934410  33.8702500  79.1983740
  88.0137250  32.9728250  79.4786500  87.7914490  34.4174370  79.8730690
  91.1637920  34.4443990  72.5613490  91.2704670  35.3447720  72.8682250
  90.2530280  34.3961960  72.2708140  88.8121080  36.3663000  77.8066080
  89.4931190  36.6301370  78.4253480  88.4969130  35.5263870  78.1404090
  93.0045650  37.4130360  76.8938670  93.5123870  37.9111330  77.5343690
  93.5358890  36.6365560  76.7178030  91.2881750  32.0528920  81.1602090
  91.2900190  32.5701310  80.3547990  90.4586060  31.5759100  81.1372020
  97.6752840  42.1648230  72.6591990  97.0570110  42.6297680  72.0954710
  98.1876090  42.8575710  73.0761500  92.5384600  41.6924100  79.3375590
  92.2053980  42.3193020  79.9796660  92.7151280  42.2185980  78.5577260
  90.9697080  33.7638880  79.1672540  91.3113890  34.6080930  78.8726410
  90.0312890  33.9122620  79.2837880  91.7503700  43.6604900  81.1524770
  92.3677700  44.3355980  80.8709220  90.8896820  44.0692880  81.0612270
  97.0405730  39.3169980  72.2277250  96.1135010  39.2507360  72.4565720
  97.1930550  40.2550110  72.1132490  97.0274810  35.5886980  69.2244410
  96.0878480  35.7500940  69.3096870  97.3458070  36.3072660  68.6780400
 101.0703020  40.8790280  72.7312500 100.4515440  40.5409830  72.0838800
 101.0527470  40.2350040  73.4391690  92.6462370  39.8434720  75.0096980
  92.2419370  39.1311970  74.5142880  92.7325490  39.4987960  75.8985020
  93.1144070  43.5302280  77.1736190  92.8172360  42.9247750  76.4943970
  94.0643890  43.5679590  77.0625550  91.3590990  36.6177930  78.7896020
  91.9105580  36.7273270  78.0149270  91.8734500  36.9915530  79.5051250
  92.2062500  43.2683970  83.8243990  91.3091030  43.4923940  84.0717390
  92.2315370  43.3918910  82.8755390  99.2467720  40.1177090  69.7385250
  99.6861000  39.2799520  69.5923070  99.9596140  40.7506490  69.8249390
  91.0333720  40.1397290  82.4001360  90.8941490  41.0120090  82.7688760
  90.1515080  39.7970100  82.2549300  97.3563100  45.0573160  73.7066490
  97.7959010  45.7997490  73.2921880  97.2949990  45.2999730  74.6305450
  89.3467000  38.7379700  72.5103630  89.2264600  39.4641790  71.8984900
  89.0367890  37.9682610  72.0331540 104.7828890  46.8646090  85.9050680
 105.2588610  47.3428980  86.5839760 105.4036050  46.7963580  85.1796180
  99.2909340  47.1792550  73.6975990  99.7466290  46.3981930  74.0114610
  99.6301860  47.8899370  74.2417170  91.8130660  32.0814770  75.8927300
  91.3698810  32.8624310  75.5611820  92.3715650  32.4044660  76.5998240
  91.6044880  37.2048340  73.6208550  91.3785800  36.9885510  74.5255170
  90.8237410  37.6376800  73.2754520  98.8342640  37.2111710  72.2199200
  98.2351530  37.9347510  72.0362820  99.3822250  37.1488490  71.4375650
  94.0444090  38.1033920  84.2868820  93.9487690  37.1628650  84.1369220
  94.8876070  38.3248990  83.8916890  97.4407510  35.8475250  74.2502480
  97.8337080  36.1647450  73.4371170  97.8024360  34.9687130  74.3647000
  89.1754630  34.5147590  82.4402600  88.7818020  35.3622800  82.6475380
  88.4873030  33.8773960  82.6311240  95.7499680  34.5982560  85.5099340
  95.0598000  34.4054760  86.1445430  96.4931980  34.8817200  86.0423640
  86.4771680  32.4376050  76.4732680  86.1884730  33.0078910  77.1857660
  87.2217440  31.9580500  76.8363910  90.3142420  34.9961690  75.7099960
  89.9742470  35.4736920  76.4667010  89.5519740  34.5426810  75.3501060
  94.5260190  36.1147280  69.7412510  94.6473010  36.0733760  70.6898330
  94.1408700  36.9771430  69.5859240  93.5381690  38.4248420  69.1395810
  92.9698590  37.9766670  68.5131720  94.2470690  38.7841200  68.6060960
  94.7648010  39.1736980  78.4971160  95.1318140  38.6995550  79.2432500
  94.5753070  40.0478550  78.8379500  87.6288500  33.9180670  74.6264630
  87.3435420  33.5536340  75.4643250  87.5667360  33.1861130  74.0127770
  92.5547380  38.2145620  80.8155370  92.2504450  39.0937600  81.0405730
  93.5093840  38.2745410  80.8512810 100.0175480  37.1829580  69.6440160
 100.9055100  37.4946810  69.4691500  99.9880570  36.3101830  69.2520740
  91.1266570  42.0886990  75.0501030  91.6445240  41.2855250  74.9957920
  90.6750590  42.0266130  75.8917860  96.0136070  43.3553270  70.3228330
  96.3551770  44.0995500  69.8271650  95.1848780  43.6684390  70.6853160
  88.6111110  39.0548360  81.9626730  88.2526050  39.7202210  82.5500070
  88.3165670  38.2231910  82.3339350  91.8124230  39.5132600  84.8466280
  91.5124370  39.6589780  83.9494100  92.5835470  38.9537890  84.7539670
 102.2889750  38.4941420  69.1120020 102.2053470  38.9255640  68.2616460
 103.0083940  38.9539770  69.5446840  98.8963480  42.6769110  75.6873840
  99.2487300  42.0797240  75.0275210  98.0125810  42.3513340  75.8582090
  94.9826760  43.4366800  73.0944250  95.6697890  43.9836010  73.4751840
  94.1959180  43.9807530  73.1293860  94.2853970  40.4412830  72.7069610
  94.7416750  41.2518080  72.9329800  93.9342180  40.1235970  73.5388100
  90.1865750  30.7850480  73.1792130  90.0580380  30.7768380  74.1277050
  89.3627770  31.1233570  72.8283140  87.1859680  32.5441600  82.6398830
  86.4718200  32.7438520  83.2451440  87.6054720  31.7681170  83.0113630
 101.2890630  42.1572080  70.0392660 101.0012330  42.6184770  70.8270540
 102.0842800  41.6969850  70.3076880  94.0144520  36.2706800  72.6145720
  93.3060670  36.7393140  73.0559330  94.2989000  35.6128810  73.2490910
  95.1336740  48.2312760  73.3269490  95.3878240  48.1934150  72.4048860
  94.1849220  48.1046090  73.3197740  92.2179540  34.5791880  69.9896430
  93.0670070  35.0162030  69.9236620  91.8510810  34.8912140  70.8168490
 101.1389320  39.1504640  74.9028000 100.1979460  39.1654870  75.0775690
 101.4533390  38.3640600  75.3488300  89.8117720  38.2649310  69.1464850
  89.8921310  37.3176820  69.2582250  90.7037470  38.5956190  69.2525510
 103.1414900  46.3213490  76.5782260 103.2662320  47.1444660  77.0506070
 104.0080460  46.1104220  76.2306410  90.6132430  48.4144700  76.2499390
  91.3494910  47.8660160  76.5207960  90.9973350  49.2800710  76.1105380
  89.6190710  47.5990770  85.4384970  90.4203440  47.9202820  85.8520370
  89.1042530  47.2386350  86.1604880  97.4814870  41.8698450  68.5409300
  96.9324970  42.3167750  69.1852040  98.1034130  41.3647700  69.0646970
  89.3711600  38.2293820  85.2771090  89.4116940  37.9307690  86.1856320
  90.2257100  38.6301430  85.1178610  93.1489990  40.8289370  70.4374600
  93.5706410  40.6629240  71.2805990  93.2740830  40.0189600  69.9429740
  91.3117410  36.8085920  83.2445580  90.7813870  36.3176870  82.6168920
  91.9805480  37.2370120  82.7103510  95.6617630  39.8526980  67.6851700
  96.1823290  39.1376000  67.3192850  96.3086030  40.4912850  67.9852210
  91.7989710  33.7748290  83.3242870  91.7046580  33.1569040  82.5993740
  91.2187100  34.5014580  83.0972780  92.0448890  36.9022600  67.3832760
  91.8437950  36.0389960  67.7446100  91.8740940  36.8155960  66.4454360
  92.8218120  47.5328870  82.0940430  92.2839210  48.2574930  81.7749130
  93.0752080  47.0559210  81.3037770  94.0743370  35.5013390  83.6196360
  94.6643060  35.1929240  84.3074180  93.2563610  35.0293140  83.7756260
  90.8431690  34.0023220  67.3710640  91.1457590  34.0090650  66.4629790
  91.5826280  33.6521080  67.8678300  94.0616620  32.9457840  68.3566840
  93.7138620  32.2681830  67.7769290  94.2629390  32.4847350  69.1710230
  96.2265660  47.9338590  69.9753440  97.1216450  48.2723560  69.9972200
  96.2583290  47.2118000  69.3477720 103.9017920  40.9507560  70.5223550
 104.6636830  41.5204210  70.6283240 103.9172290  40.3834760  71.2931860
 103.9537090  41.2441930  67.6796070 104.2285930  42.1520810  67.5515290
 103.7647830  41.1804460  68.6158060 100.3512700  34.2686780  68.9749700
 100.7697580  34.0817760  68.1346360 100.0448760  33.4165830  69.2852630
 103.8502430  39.1810920  72.6725500 103.4746030  38.4138850  72.2406790
 103.1205550  39.5633620  73.1600430  88.4398190  39.8598060  79.2934550
  88.8071230  39.7725460  80.1730570  87.8709010  39.0964610  79.1941410
  87.9914190  36.7707150  83.1992970  87.0970240  36.7373910  83.5386680
  88.5311740  36.9693940  83.9644220  86.6160340  36.6844420  70.6956540
  85.7124420  36.9474620  70.5208200  87.1000960  36.9555590  69.9156500
 103.1253390  37.4068410  75.9732740 103.6490870  36.9131060  75.3422910
 103.7112810  37.5418770  76.7180310  89.1587550  35.7409960  68.6050920
  89.8679250  35.3193180  68.1198200  88.4427490  35.8085190  67.9734270
  88.8061710  31.7949290  67.6453570  89.5289840  32.3358230  67.9634790
  89.0786230  31.5212710  66.7695110 102.6153360  36.6641760  71.9125150
 103.1112480  36.4312630  72.6974030 102.4169430  35.8253600  71.4962790
  88.4953900  31.0455480  77.5476190  89.1430090  30.4952860  77.1071350
  88.9155740  31.2998630  78.3692000 101.9487700  47.9412840  74.3064070
 102.5446770  47.6197410  73.6298490 102.2065850  47.4684660  75.0977340
  88.2485900  31.2011150  80.2901510  87.9000720  31.6574970  81.0559690
  87.9173600  30.3068280  80.3723940  93.5556300  45.9290340  80.0564420
  93.3147660  46.1964900  79.1694940  94.4958940  46.0996070  80.1115280
 104.8160460  47.9484720  80.8575060 104.3218740  48.3453590  80.1402190
 104.2073750  47.3233930  81.2512340  88.9206540  30.7287350  83.5652280
  89.4689530  30.5475400  82.8018390  88.9861850  29.9381460  84.1008590
  89.3250530  44.6851380  80.5260520  88.5984590  44.0656670  80.4586470
  89.3859680  45.0791990  79.6558600  92.9295630  46.8996380  77.3109930
  93.4460650  46.2883740  76.7858190  93.5793010  47.4025160  77.8020940
  95.6691130  47.7904870  78.1378910  95.9568940  47.5359170  77.2611920
  96.1814350  47.2382230  78.7284480  88.2308550  31.8342550  71.2389140
  88.9887910  31.9471430  70.6653170  87.7685720  32.6711750  71.1932570
  90.6033700  32.3606600  69.7791110  91.1326460  31.5736400  69.6499060
  91.2362020  33.0397790  70.0126640  92.9227100  31.3765720  85.2688990
  92.6411370  31.8799320  84.5049810  93.3046800  30.5787470  84.9031120
  90.5784580  40.9010600  58.9689230  89.7469460  40.6459310  59.3685740
  91.1865560  40.9721370  59.7047150 100.5826180  44.9950980  56.8712600
 100.1207710  44.2238220  57.1999770 101.3951730  45.0217050  57.3765050
  88.9876530  35.8612490  52.7531620  88.0993230  36.2028460  52.6511500
  89.2717720  35.6612810  51.8612450  88.1934410  33.8702500  60.4240250
  88.0137250  32.9728250  60.7043010  87.7914490  34.4174370  61.0987200
  91.1637920  34.4443990  53.7870000  91.2704670  35.3447720  54.0938760
  90.2530280  34.3961960  53.4964650  88.8121080  36.3663000  59.0322590
  89.4931190  36.6301370  59.6509990  88.4969130  35.5263870  59.3660600
 105.1056580  35.5835550  61.8224530 104.4008750  35.9717260  61.3039640
 105.3714500  36.2785840  62.4245460  91.2881750  32.0528920  62.3858600
  91.2900190  32.5701310  61.5804500  90.4586060  31.5759100  62.3628530
  97.6752840  42.1648230  53.8848500  97.0570110  42.6297680  53.3211220
  98.1876090  42.8575710  54.3018010  90.9697080  33.7638880  60.3929050
  91.3113890  34.6080930  60.0982920  90.0312890  33.9122620  60.5094390
 102.6681290  45.1244310  60.2935920 101.9844810  45.7943420  60.2852590
 103.2075580  45.3224960  59.5280780  94.6524970  31.2521150  56.7173640
  94.9599950  30.6968040  56.0009140  93.7225670  31.3865610  56.5346630
 101.4985450  43.6904660  54.0971270 101.3881780  42.7478990  54.2220690
 101.4953700  44.0520300  54.9834030 103.5487570  40.2705500  60.4279950
 102.7206200  40.3398590  59.9530080 104.1438050  40.8559810  59.9595780
 101.0703020  40.8790280  53.9569010 100.4515440  40.5409830  53.3095310
 101.0527470  40.2350040  54.6648200  92.6462370  39.8434720  56.2353490
  92.2419370  39.1311970  55.7399390  92.7325490  39.4987960  57.1241530
  91.3590990  36.6177930  60.0152530  91.9105580  36.7273270  59.2405780
  91.8734500  36.9915530  60.7307760  99.2467720  40.1177090  50.9641760
  99.6861000  39.2799520  50.8179580  99.9596140  40.7506490  51.0505900
  89.3467000  38.7379700  53.7360140  89.2264600  39.4641790  53.1241410
  89.0367890  37.9682610  53.2588050 104.1862140  44.0558940  64.2907200
 104.3125200  43.8170820  63.3724380 104.2283520  43.2243480  64.7629280
 100.0233280  48.0442280  52.2886010  99.8634420  47.7545220  53.1867840
  99.8579990  47.2682410  51.7531240  99.7259410  45.5529840  50.8484010
  99.0324570  45.5507130  50.1886290 100.4682270  45.1289160  50.4178180
 104.0386150  36.1091400  65.2556940 103.4230420  36.6171070  64.7272400
 103.7182570  35.2089730  65.1982880  96.1000470  34.9483290  62.7219130
  95.6379840  35.1566310  63.5339070  95.6978580  34.1342640  62.4189800
  98.1954690  37.6693990  65.9514580  98.5208100  36.8357740  65.6116810
  98.9835020  38.1922510  66.0992910  94.9289480  31.7025470  51.9989640
  94.3043660  31.6985340  52.7242950  94.8419600  30.8356430  51.6025610
  93.8506560  32.6262100  58.9773410  94.1478890  33.5324930  58.8965430
  94.3992120  32.1380880  58.3632980  91.6044880  37.2048340  54.8465060
  91.3785800  36.9885510  55.7511680  90.8237410  37.6376800  54.5011030
  94.0444090  38.1033920  65.5125330  93.9487690  37.1628650  65.3625730
  94.8876070  38.3248990  65.1173400  89.1754630  34.5147590  63.6659110
  88.7818020  35.3622800  63.8731890  88.4873030  33.8773960  63.8567750
  95.7499680  34.5982560  66.7355850  95.0598000  34.4054760  67.3701940
  96.4931980  34.8817200  67.2680150  86.4771680  32.4376050  57.6989190
  86.1884730  33.0078910  58.4114170  87.2217440  31.9580500  58.0620420
  90.3142420  34.9961690  56.9356470  89.9742470  35.4736920  57.6923520
  89.5519740  34.5426810  56.5757570  93.5381690  38.4248420  50.3652320
  92.9698590  37.9766670  49.7388230  94.2470690  38.7841200  49.8317470
 101.9159310  31.3046860  64.8219090 102.2405080  30.5736520  65.3477070
 101.9515820  30.9860500  63.9200080  87.6288500  33.9180670  55.8521140
  87.3435420  33.5536340  56.6899760  87.5667360  33.1861130  55.2384280
  92.5547380  38.2145620  62.0411880  92.2504450  39.0937600  62.2662240
  93.5093840  38.2745410  62.0769320  91.0829170  42.4206610  52.6378730
  90.3091430  41.8804230  52.4777450  91.8123800  41.9013220  52.2996490
 101.8417150  41.4171970  58.4305120 102.5616270  41.9127260  58.0401230
 101.6398970  40.7389860  57.7858990  91.1266570  42.0886990  56.2757540
  91.6445240  41.2855250  56.2214430  90.6750590  42.0266130  57.1174370
  96.0136070  43.3553270  51.5484840  96.3551770  44.0995500  51.0528160
  95.1848780  43.6684390  51.9109670 102.2889750  38.4941420  50.3376530
 102.2053470  38.9255640  49.4872970 103.0083940  38.9539770  50.7703350
 103.3663890  40.9508940  63.4146500 102.6412080  41.5437720  63.2175890
 103.8939350  40.9432480  62.6159870 103.3177000  45.3483680  53.0658660
 102.6753160  44.6939300  53.3402380 102.9307660  45.7538770  52.2899330
  87.1219160  39.0539620  49.8117840  87.9914010  39.3364420  50.0953760
  86.6309480  39.8675490  49.6966650  94.2853970  40.4412830  53.9326120
  94.7416750  41.2518080  54.1586310  93.9342180  40.1235970  54.7644610
 101.7074380  44.2400140  49.6035010 101.4811960  43.5230580  50.1959650
 101.3170580  43.9912580  48.7656760  87.1859680  32.5441600  63.8655340
  86.4718200  32.7438520  64.4707950  87.6054720  31.7681170  64.2370140
 101.2890630  42.1572080  51.2649170 101.0012330  42.6184770  52.0527050
 102.0842800  41.6969850  51.5333390  93.5059030  45.6498200  51.1953140
  93.4969130  46.3827890  50.5797650  92.5857390  45.4029780  51.2880100
  89.1065670  40.8713090  51.9399900  88.4993620  41.6111990  51.9495200
  89.5815020  40.9612450  51.1138100  96.4918630  45.7126440  49.8578330
  96.5930610  45.5090430  48.9280310  95.5920370  45.4584720  50.0626110
  92.2179540  34.5791880  51.2152940  93.0670070  35.0162030  51.1493130
  91.8510810  34.8912140  52.0425000 101.1389320  39.1504640  56.1284510
 100.1979460  39.1654870  56.3032200 101.4533390  38.3640600  56.5744810
  91.1170960  40.8324240  49.6888470  91.8834230  40.7205600  50.2513900
  91.1945650  40.1362210  49.0365240  89.8117720  38.2649310  50.3721360
  89.8921310  37.3176820  50.4838760  90.7037470  38.5956190  50.4782020
 103.1414900  46.3213490  57.8038770 103.2662320  47.1444660  58.2762580
 104.0080460  46.1104220  57.4562920  93.7234740  47.5875010  49.2981470
  94.5163350  47.8763840  48.8463260  93.2039090  47.1567180  48.6193950
  99.8855710  47.4350930  65.2226300 100.8377460  47.3508950  65.1726540
  99.7383930  48.0992640  65.8960090 102.7764910  46.8145140  50.7218210
 102.4906420  46.4010280  49.9072390 102.5784460  47.7432850  50.6018730
  94.2412140  42.8078420  49.1623820  94.1362780  42.1930770  49.8885200
  94.0736360  42.2844310  48.3786830  97.4814870  41.8698450  49.7665810
  96.9324970  42.3167750  50.4108550  98.1034130  41.3647700  50.2903480
 101.5349810  43.2240550  65.6988070 102.2759280  43.5616310  65.1955530
 100.7722490  43.3932610  65.1457840  93.1489990  40.8289370  51.6631110
  93.5706410  40.6629240  52.5062500  93.2740830  40.0189600  51.1686250
  91.3117410  36.8085920  64.4702090  90.7813870  36.3176870  63.8425430
  91.9805480  37.2370120  63.9360020  95.6617630  39.8526980  48.9108210
  96.1823290  39.1376000  48.5449360  96.3086030  40.4912850  49.2108720
 100.2095470  41.2755380  64.2343280 100.6236490  41.4300460  65.0833700
  99.2746470  41.4010600  64.3969060 100.6817640  38.6151540  66.2382430
 101.2638410  37.8603860  66.1502910 100.8579410  39.1458980  65.4613910
  91.7989710  33.7748290  64.5499380  91.7046580  33.1569040  63.8250250
  91.2187100  34.5014580  64.3229290  94.5651150  32.3321530  61.5826770
  94.1168450  32.3545790  60.7372320  93.9316350  31.9340550  62.1797070
  97.3074600  38.9592040  63.5877050  97.4270810  38.3633180  64.3271890
  98.1668600  38.9961730  63.1678350  92.0448890  36.9022600  48.6089270
  91.8437950  36.0389960  48.9702610  91.8740940  36.8155960  47.6710870
  94.0743370  35.5013390  64.8452870  94.6643060  35.1929240  65.5330690
  93.2563610  35.0293140  65.0012770  98.8936800  35.1179200  65.0785890
  98.2052320  34.4560740  65.0135880  99.6142820  34.6717470  65.5234350
  94.0616620  32.9457840  49.5823350  93.7138620  32.2681830  49.0025800
  94.2629390  32.4847350  50.3966740  96.2265660  47.9338590  51.2009950
  97.1216450  48.2723560  51.2228710  96.2583290  47.2118000  50.5734230
 103.2060010  46.4642260  63.9076150 102.6062000  46.5234820  63.1640070
 103.3353910  45.5247240  64.0373000 104.4461460  44.2060080  49.2445860
 103.6154420  44.2736730  49.7153090 104.6233290  45.0964200  48.9412720
 103.9017920  40.9507560  51.7480060 104.6636830  41.5204210  51.8539750
 103.9172290  40.3834760  52.5188370  87.4022260  39.4745490  55.9787720
  86.7471100  39.2057130  55.3347420  88.2400210  39.3649970  55.5289700
 104.9077890  41.8057660  56.5921990 105.2786720  41.0224980  56.1857960
 105.5479820  42.4946760  56.4139290 101.8911650  43.1894240  62.0052310
 101.0771490  43.6191400  62.2678100 102.2985850  43.8012650  61.3921360
 103.9537090  41.2441930  48.9052580 104.2285930  42.1520810  48.7771800
 103.7647830  41.1804460  49.8414570 103.8502430  39.1810920  53.8982010
 103.4746030  38.4138850  53.4663300 103.1205550  39.5633620  54.3856940
 103.2402050  38.3282440  63.5321530 103.0088140  38.0995190  62.6319480
 103.5006600  39.2481990  63.4866420 101.6790120  33.5538870  66.3101230
 102.5560300  33.5622270  66.6935230 101.6910960  32.8169710  65.6993580
  86.6160340  36.6844420  51.9213050  85.7124420  36.9474620  51.7464710
  87.1000960  36.9555590  51.1413010 102.6153360  36.6641760  53.1381660
 103.1112480  36.4312630  53.9230540 102.4169430  35.8253600  52.7219300
 101.9487700  47.9412840  55.5320580 102.5446770  47.6197410  54.8555000
 102.2065850  47.4684660  56.3233850  88.2485900  31.2011150  61.5158020
  87.9000720  31.6574970  62.2816200  87.9173600  30.3068280  61.5980450
  95.7610720  32.3923030  65.0377440  95.6999610  32.9844860  65.7872850
  96.7011100  32.2848990  64.8927700  98.3985280  32.0493090  64.6769730
  99.0125690  32.3672380  64.0150810  98.9434840  31.5641680  65.2965590
  88.9206540  30.7287350  64.7908790  89.4689530  30.5475400  64.0274900
  88.9861850  29.9381460  65.3265100  99.1393320  30.6125230  61.0039020
  98.2653160  30.9460340  60.8011950  99.0304070  30.1398410  61.8290890
 102.4999910  48.5908140  59.3618310 102.0402880  49.3423950  58.9876330
 101.8712370  47.8714610  59.3033110  96.8868140  31.5295070  59.9431930
  96.1039930  32.0040570  60.2228690  96.5931070  30.6249900  59.8345110
  94.7722360  33.9481820  55.4547960  93.9596870  33.5738710  55.1143840
  95.2764000  33.1926900  55.7569150  99.2747340  30.6124270  56.6931030
  99.8776710  31.1844480  57.1679550  98.5340330  31.1763710  56.4704930
 103.9708550  48.2546540  53.7277870 104.1460740  47.5684280  53.0838790
 103.2730120  48.7793590  53.3354540  92.9227100  31.3765720  66.4945500
  92.6411370  31.8799320  65.7306320  93.3046800  30.5787470  66.1287630
  99.5242560  30.7919300  67.0725970  99.4108010  31.1113910  67.9677490
 100.3412300  31.1931810  66.7763250 102.3041050  47.9390830  66.5544660
 103.0966370  47.4440060  66.3470620 102.5974200  48.6180970  67.1620270
  90.5784580  40.9010600  40.1945740  89.7469460  40.6459310  40.5942250
  91.1865560  40.9721370  40.9303660  90.5585840  44.9350690  40.3903760
  90.8613880  44.0448430  40.2113980  91.3029430  45.4920910  40.1626010
  88.9876530  35.8612490  33.9788130  88.0993230  36.2028460  33.8768010
  89.2717720  35.6612810  33.0868960  96.8089490  47.2808990  37.7173100
  96.1900930  47.7366490  37.1467540  97.6641270  47.4360450  37.3162800
  88.1934410  33.8702500  41.6496760  88.0137250  32.9728250  41.9299520
  87.7914490  34.4174370  42.3243710  88.8121080  36.3663000  40.2579100
  89.4931190  36.6301370  40.8766500  88.4969130  35.5263870  40.5917110
  93.0045650  37.4130360  39.3451690  93.5123870  37.9111330  39.9856710
  93.5358890  36.6365560  39.1691050 105.1056580  35.5835550  43.0481040
 104.4008750  35.9717260  42.5296150 105.3714500  36.2785840  43.6501970
  97.6752840  42.1648230  35.1105010  97.0570110  42.6297680  34.5467730
  98.1876090  42.8575710  35.5274520  92.5384600  41.6924100  41.7888610
  92.2053980  42.3193020  42.4309680  92.7151280  42.2185980  41.0090280
  90.9697080  33.7638880  41.6185560  91.3113890  34.6080930  41.3239430
  90.0312890  33.9122620  41.7350900  91.7503700  43.6604900  43.6037790
  92.3677700  44.3355980  43.3222240  90.8896820  44.0692880  43.5125290
 104.1205430  34.9523970  39.6474160 103.1730340  34.9862950  39.7789590
 104.4455420  35.7662920  40.0323520  94.6524970  31.2521150  37.9430150
  94.9599950  30.6968040  37.2265650  93.7225670  31.3865610  37.7603140
 100.2040030  46.9688440  40.2337610 100.2167190  46.5650730  39.3659870
  99.6515250  47.7435730  40.1299040 101.4985450  43.6904660  35.3227780
 101.3881780  42.7478990  35.4477200 101.4953700  44.0520300  36.2090540
 103.5487570  40.2705500  41.6536460 102.7206200  40.3398590  41.1786590
 104.1438050  40.8559810  41.1852290 101.0703020  40.8790280  35.1825520
 100.4515440  40.5409830  34.5351820 101.0527470  40.2350040  35.8904710
  92.6462370  39.8434720  37.4610000  92.2419370  39.1311970  36.9655900
  92.7325490  39.4987960  38.3498040  93.1144070  43.5302280  39.6249210
  92.8172360  42.9247750  38.9456990  94.0643890  43.5679590  39.5138570
  91.3590990  36.6177930  41.2409040  91.9105580  36.7273270  40.4662290
  91.8734500  36.9915530  41.9564270  92.2062500  43.2683970  46.2757010
  91.3091030  43.4923940  46.5230410  92.2315370  43.3918910  45.3268410
  99.2467720  40.1177090  32.1898270  99.6861000  39.2799520  32.0436090
  99.9596140  40.7506490  32.2762410  91.0333720  40.1397290  44.8514380
  90.8941490  41.0120090  45.2201780  90.1515080  39.7970100  44.7062320
  97.3563100  45.0573160  36.1579510  97.7959010  45.7997490  35.7434900
  97.2949990  45.2999730  37.0818470 102.8284860  31.3719900  30.5039310
 102.5157520  31.4646730  31.4038380 103.5897330  31.9500930  30.4536740
  89.3467000  38.7379700  34.9616650  89.2264600  39.4641790  34.3497920
  89.0367890  37.9682610  34.4844560 104.7828890  46.8646090  48.3563700
 105.2588610  47.3428980  49.0352780 105.4036050  46.7963580  47.6309200
  86.9852370  41.9094840  40.7685290  87.0632790  42.0443610  39.8241010
  87.5994050  41.2010730  40.9613410  98.0478880  47.7586940  44.0858520
  98.5623550  47.6694950  44.8880950  97.2047960  48.1046640  44.3786430
 100.0233280  48.0442280  33.5142520  99.8634420  47.7545220  34.4124350
  99.8579990  47.2682410  32.9787750  92.5021660  47.8240810  35.2914140
  92.3264140  46.9076350  35.0781940  91.6477400  48.1828100  35.5311940
  99.7259410  45.5529840  32.0740520  99.0324570  45.5507130  31.4142800
 100.4682270  45.1289160  31.6434690  99.2909340  47.1792550  36.1489010
  99.7466290  46.3981930  36.4627630  99.6301860  47.8899370  36.6930190
  87.0411890  42.9509010  43.3079750  87.2042930  42.4814370  42.4899120
  87.5064340  42.4432570  43.9728590  91.8130660  32.0814770  38.3440320
  91.3698810  32.8624310  38.0124840  92.3715650  32.4044660  39.0511260
  96.1000470  34.9483290  43.9475640  95.6379840  35.1566310  44.7595580
  95.6978580  34.1342640  43.6446310 101.1004980  36.1692240  45.0772300
 100.2498570  35.8697990  45.3981370 100.9406770  36.4134250  44.1656120
  98.1954690  37.6693990  47.1771090  98.5208100  36.8357740  46.8373320
  98.9835020  38.1922510  47.3249420  93.8506560  32.6262100  40.2029920
  94.1478890  33.5324930  40.1221940  94.3992120  32.1380880  39.5889490
  94.0444090  38.1033920  46.7381840  93.9487690  37.1628650  46.5882240
  94.8876070  38.3248990  46.3429910  89.1754630  34.5147590  44.8915620
  88.7818020  35.3622800  45.0988400  88.4873030  33.8773960  45.0824260
  86.4771680  32.4376050  38.9245700  86.1884730  33.0078910  39.6370680
  87.2217440  31.9580500  39.2876930  86.6641910  36.3796170  30.1348420
  86.5816580  37.3226930  30.2763410  86.3124970  36.2371080  29.2560770
  94.4640040  35.1135200  39.2018770  94.4676100  34.6725150  38.3523310
  95.3591160  35.4352530  39.3090590  90.3142420  34.9961690  38.1612980
  89.9742470  35.4736920  38.9180030  89.5519740  34.5426810  37.8014080
 101.9159310  31.3046860  46.0475600 102.2405080  30.5736520  46.5733580
 101.9515820  30.9860500  45.1456590  88.6150870  42.3260440  45.4675560
  88.2305660  41.6854110  46.0658520  88.9263060  43.0296560  46.0370290
  94.7648010  39.1736980  40.9484180  95.1318140  38.6995550  41.6945520
  94.5753070  40.0478550  41.2892520  87.6288500  33.9180670  37.0777650
  87.3435420  33.5536340  37.9156270  87.5667360  33.1861130  36.4640790
  92.5547380  38.2145620  43.2668390  92.2504450  39.0937600  43.4918750
  93.5093840  38.2745410  43.3025830  91.1266570  42.0886990  37.5014050
  91.6445240  41.2855250  37.4470940  90.6750590  42.0266130  38.3430880
  96.0136070  43.3553270  32.7741350  96.3551770  44.0995500  32.2784670
  95.1848780  43.6684390  33.1366180  88.6111110  39.0548360  44.4139750
  88.2526050  39.7202210  45.0013090  88.3165670  38.2231910  44.7852370
  91.8124230  39.5132600  47.2979300  91.5124370  39.6589780  46.4007120
  92.5835470  38.9537890  47.2052690 102.2889750  38.4941420  31.5633040
 102.2053470  38.9255640  30.7129480 103.0083940  38.9539770  31.9959860
 103.3663890  40.9508940  44.6403010 102.6412080  41.5437720  44.4432400
 103.8939350  40.9432480  43.8416380 103.3177000  45.3483680  34.2915170
 102.6753160  44.6939300  34.5658890 102.9307660  45.7538770  33.5155840
  94.9826760  43.4366800  35.5457270  95.6697890  43.9836010  35.9264860
  94.1959180  43.9807530  35.5806880  87.1219160  39.0539620  31.0374350
  87.9914010  39.3364420  31.3210270  86.6309480  39.8675490  30.9223160
  90.1865750  30.7850480  35.6305150  90.0580380  30.7768380  36.5790070
  89.3627770  31.1233570  35.2796160 101.7074380  44.2400140  30.8291520
 101.4811960  43.5230580  31.4216160 101.3170580  43.9912580  29.9913270
 101.2890630  42.1572080  32.4905680 101.0012330  42.6184770  33.2783560
 102.0842800  41.6969850  32.7589900  95.4644860  44.8037750  47.4776500
  95.1441730  44.0846990  48.0222190  94.7903220  45.4792820  47.5512560
  93.5059030  45.6498200  32.4209650  93.4969130  46.3827890  31.8054160
  92.5857390  45.4029780  32.5136610  98.6798460  35.0363910  42.8413300
  99.0479280  34.2159120  43.1692870  97.8196660  35.0965800  43.2568950
  96.4918630  45.7126440  31.0834840  96.5930610  45.5090430  30.1536820
  95.5920370  45.4584720  31.2882620  95.1336740  48.2312760  35.7782510
  95.3878240  48.1934150  34.8561880  94.1849220  48.1046090  35.7710760
 102.8467310  33.9071460  43.9079660 102.3440910  34.6476860  44.2473470
 103.6623970  34.2955460  43.5916450  89.8117720  38.2649310  31.5977870
  89.8921310  37.3176820  31.7095270  90.7037470  38.5956190  31.7038530
  90.6132430  48.4144700  38.7012410  91.3494910  47.8660160  38.9720980
  90.9973350  49.2800710  38.5618400  93.7234740  47.5875010  30.5237980
  94.5163350  47.8763840  30.0719770  93.2039090  47.1567180  29.8450460
  98.4555340  43.7070640  47.8373400  97.8493500  43.7302240  47.0969150
  98.1509450  42.9753680  48.3740650  99.8855710  47.4350930  46.4482810
 100.8377460  47.3508950  46.3983050  99.7383930  48.0992640  47.1216600
 102.7764910  46.8145140  31.9474720 102.4906420  46.4010280  31.1328900
 102.5784460  47.7432850  31.8275240  87.3388520  40.0864230  46.8334040
  87.8427540  39.5071510  47.4050270  86.5995940  40.3704460  47.3710410
  97.4814870  41.8698450  30.9922320  96.9324970  42.3167750  31.6365060
  98.1034130  41.3647700  31.5159990 101.5349810  43.2240550  46.9244580
 102.2759280  43.5616310  46.4212040 100.7722490  43.3932610  46.3714350
  89.3711600  38.2293820  47.7284110  89.4116940  37.9307690  48.6369340
  90.2257100  38.6301430  47.5691630  93.1489990  40.8289370  32.8887620
  93.5706410  40.6629240  33.7319010  93.2740830  40.0189600  32.3942760
  91.3117410  36.8085920  45.6958600  90.7813870  36.3176870  45.0681940
  91.9805480  37.2370120  45.1616530  95.6617630  39.8526980  30.1364720
  96.1823290  39.1376000  29.7705870  96.3086030  40.4912850  30.4365230
 100.6817640  38.6151540  47.4638940 101.2638410  37.8603860  47.3759420
 100.8579410  39.1458980  46.6870420  91.7989710  33.7748290  45.7755890
  91.7046580  33.1569040  45.0506760  91.2187100  34.5014580  45.5485800
  94.5651150  32.3321530  42.8083280  94.1168450  32.3545790  41.9628830
  93.9316350  31.9340550  43.4053580  92.0448890  36.9022600  29.8345780
  91.8437950  36.0389960  30.1959120  91.8740940  36.8155960  28.8967380
  92.8218120  47.5328870  44.5453450  92.2839210  48.2574930  44.2262150
  93.0752080  47.0559210  43.7550790  94.0743370  35.5013390  46.0709380
  94.6643060  35.1929240  46.7587200  93.2563610  35.0293140  46.2269280
  98.8936800  35.1179200  46.3042400  98.2052320  34.4560740  46.2392390
  99.6142820  34.6717470  46.7490860  99.5237200  31.7130830  32.3632660
  99.8039490  30.8698730  32.7192080  98.7502930  31.9453940  32.8771410
  90.8431690  34.0023220  29.8223660  91.1457590  34.0090650  28.9142810
  91.5826280  33.6521080  30.3191320  95.6780330  48.7680080  44.8040100
  95.6039030  49.6715220  45.1112470  94.7759170  48.4491980  44.7762170
  96.2265660  47.9338590  32.4266460  97.1216450  48.2723560  32.4485220
  96.2583290  47.2118000  31.7990740  87.0807620  46.0954670  38.1073720
  87.4110630  45.2275730  37.8752360  87.5098620  46.3013190  38.9378680
  91.6769540  44.4263680  35.7675690  91.3765080  44.3028650  36.6679600
  91.5707030  43.5672270  35.3591420  87.5697830  46.9625260  40.8455350
  87.1328820  47.1426060  41.6779500  88.1375510  47.7199880  40.7037070
 104.4461460  44.2060080  30.4702370 103.6154420  44.2736730  30.9409600
 104.6233290  45.0964200  30.1669230 103.9017920  40.9507560  32.9736570
 104.6636830  41.5204210  33.0796260 103.9172290  40.3834760  33.7444880
  87.4022260  39.4745490  37.2044230  86.7471100  39.2057130  36.5603930
  88.2400210  39.3649970  36.7546210 103.9537090  41.2441930  30.1309090
 104.2285930  42.1520810  30.0028310 103.7647830  41.1804460  31.0671080
  88.4398190  39.8598060  41.7447570  88.8071230  39.7725460  42.6243590
  87.8709010  39.0964610  41.6454430 103.2402050  38.3282440  44.7578040
 103.0088140  38.0995190  43.8575990 103.5006600  39.2481990  44.7122930
  87.9914190  36.7707150  45.6505990  87.0970240  36.7373910  45.9899700
  88.5311740  36.9693940  46.4157240  86.6160340  36.6844420  33.1469560
  85.7124420  36.9474620  32.9721220  87.1000960  36.9555590  32.3669520
 103.3043110  37.4908280  41.9465310 102.3545820  37.4571820  42.0610300
 103.4856120  38.4008390  41.7115080  89.1587550  35.7409960  31.0563940
  89.8679250  35.3193180  30.5711220  88.4427490  35.8085190  30.4247290
  88.8061710  31.7949290  30.0966590  89.5289840  32.3358230  30.4147810
  89.0786230  31.5212710  29.2208130  88.4953900  31.0455480  39.9989210
  89.1430090  30.4952860  39.5584370  88.9155740  31.2998630  40.8205020
 102.3906240  31.2396840  43.3558850 103.0278460  31.8530980  43.7218040
 102.5381130  31.2757500  42.4108080 104.9330790  33.1310630  30.1381990
 105.8580100  32.9991810  29.9300280 104.9106580  33.2103450  31.0918440
 105.0069280  33.9021290  32.7638700 104.2120780  33.8366410  33.2931610
 105.2112560  34.8371930  32.7524050 101.9487700  47.9412840  36.7577090
 102.5446770  47.6197410  36.0811510 102.2065850  47.4684660  37.5490360
  93.5556300  45.9290340  42.5077440  93.3147660  46.1964900  41.6207960
  94.4958940  46.0996070  42.5628300  95.7610720  32.3923030  46.2633950
  95.6999610  32.9844860  47.0129360  96.7011100  32.2848990  46.1184210
  98.3985280  32.0493090  45.9026240  99.0125690  32.3672380  45.2407320
  98.9434840  31.5641680  46.5222100  89.6938300  47.3193000  44.0265500
  89.0998620  47.1877700  44.7655540  89.6862140  46.4831140  43.5607600
  99.1393320  30.6125230  42.2295530  98.2653160  30.9460340  42.0268460
  99.0304070  30.1398410  43.0547400 100.0465300  32.8196100  43.6137250
  99.7178660  32.0047860  43.2338980 100.9947600  32.7765910  43.4902940
 102.4999910  48.5908140  40.5874820 102.0402880  49.3423950  40.2132840
 101.8712370  47.8714610  40.5289620  89.3250530  44.6851380  42.9773540
  88.5984590  44.0656670  42.9099490  89.3859680  45.0791990  42.1071620
  92.9295630  46.8996380  39.7622950  93.4460650  46.2883740  39.2371210
  93.5793010  47.4025160  40.2533960  95.6691130  47.7904870  40.5891930
  95.9568940  47.5359170  39.7124940  96.1814350  47.2382230  41.1797500
  96.8868140  31.5295070  41.1688440  96.1039930  32.0040570  41.4485200
  96.5931070  30.6249900  41.0601620 101.4389210  32.2318170  39.2137530
 101.8797300  32.1763270  38.3659130 101.1696800  33.1476180  39.2847710
 103.3027780  31.8633410  37.2246350 103.2416180  30.9194630  37.0777370
 104.0819810  31.9713500  37.7699810  87.6080530  48.0025770  36.1870300
  87.4402570  47.3696450  36.8852190  86.7415040  48.2085170  35.8364490
  88.2308550  31.8342550  33.6902160  88.9887910  31.9471430  33.1166190
  87.7685720  32.6711750  33.6445590  99.2747340  30.6124270  37.9187540
  99.8776710  31.1844480  38.3936060  98.5340330  31.1763710  37.6961440
 102.4181940  31.0145830  33.1927820 102.6132570  31.9129280  33.4595250
 101.6311810  30.7832910  33.6860770  90.6033700  32.3606600  32.2304130
  91.1326460  31.5736400  32.1012080  91.2362020  33.0397790  32.4639660
  92.7971540  32.0981740  35.2849520  92.1674280  31.3969050  35.4519650
  92.2576680  32.8585870  35.0682680  95.7363490  48.7120970  47.9560130
  96.6630800  48.4765240  47.9996090  95.7213920  49.5392970  47.4746160
 103.9708550  48.2546540  34.9534380 104.1460740  47.5684280  34.3095300
 103.2730120  48.7793590  34.5611050  99.5242560  30.7919300  48.2982480
  99.4108010  31.1113910  49.1934000 100.3412300  31.1931810  48.0019760
 102.3041050  47.9390830  47.7801170 103.0966370  47.4440060  47.5727130
 102.5974200  48.6180970  48.3876780  98.4300710  38.8111770  18.6617220
  98.3494760  37.8966380  18.3908930  98.0165130  39.3078840  17.9556930
  96.5618750  40.5890790  20.5426490  95.7860850  40.1091230  20.8325060
  97.2131680  39.9096440  20.3682650  90.5784580  40.9010600  21.4202250
  89.7469460  40.6459310  21.8198760  91.1865560  40.9721370  22.1560170
 100.5826180  44.9950980  19.3225620 100.1207710  44.2238220  19.6512790
 101.3951730  45.0217050  19.8278070  90.5585840  44.9350690  21.6160270
  90.8613880  44.0448430  21.4370490  91.3029430  45.4920910  21.3882520
  88.9876530  35.8612490  15.2044640  88.0993230  36.2028460  15.1024520
  89.2717720  35.6612810  14.3125470  86.9509540  38.4618140  21.0884340
  87.5225650  37.6940340  21.0887980  86.9511080  38.7606900  20.1790950
  96.8089490  47.2808990  18.9429610  96.1900930  47.7366490  18.3724050
  97.6641270  47.4360450  18.5419310  96.0027740  43.2647980  20.5496650
  95.9336020  42.3237920  20.3885780  96.7647600  43.3549390  21.1219220
  88.1934410  33.8702500  22.8753270  88.0137250  32.9728250  23.1556030
  87.7914490  34.4174370  23.5500220  97.0332910  36.0718360  20.7765580
  97.4097730  35.1990240  20.6639250  96.9352420  36.4077060  19.8856020
  91.1637920  34.4443990  16.2383020  91.2704670  35.3447720  16.5451780
  90.2530280  34.3961960  15.9477670 100.8157030  33.5668800  17.7093920
 101.6366650  33.0765370  17.7519400 100.8491110  34.1566460  18.4625760
  88.8121080  36.3663000  21.4835610  89.4931190  36.6301370  22.1023010
  88.4969130  35.5263870  21.8173620  93.0045650  37.4130360  20.5708200
  93.5123870  37.9111330  21.2113220  93.5358890  36.6365560  20.3947560
 105.1056580  35.5835550  24.2737550 104.4008750  35.9717260  23.7552660
 105.3714500  36.2785840  24.8758480  91.2881750  32.0528920  24.8371620
  91.2900190  32.5701310  24.0317520  90.4586060  31.5759100  24.8141550
  97.6752840  42.1648230  16.3361520  97.0570110  42.6297680  15.7724240
  98.1876090  42.8575710  16.7531030 101.0518510  35.5069180  20.4821460
 100.3474080  35.7954070  21.0624570 101.4130670  36.3169290  20.1221020
  90.9697080  33.7638880  22.8442070  91.3113890  34.6080930  22.5495940
  90.0312890  33.9122620  22.9607410  87.0436040  42.8504760  13.7101150
  86.6664020  43.3391860  12.9786050  87.3009110  43.5230040  14.3407680
 102.6681290  45.1244310  22.7448940 101.9844810  45.7943420  22.7365610
 103.2075580  45.3224960  21.9793800 104.1205430  34.9523970  20.8730670
 103.1730340  34.9862950  21.0046100 104.4455420  35.7662920  21.2580030
  94.6524970  31.2521150  19.1686660  94.9599950  30.6968040  18.4522160
  93.7225670  31.3865610  18.9859650 101.4985450  43.6904660  16.5484290
 101.3881780  42.7478990  16.6733710 101.4953700  44.0520300  17.4347050
  99.6025470  41.8718280  22.7876730 100.0194260  41.6578390  21.9530190
 100.3265290  42.1291070  23.3585350  97.0405730  39.3169980  15.9046780
  96.1135010  39.2507360  16.1335250  97.1930550  40.2550110  15.7902020
  97.0274810  35.5886980  12.9013940  96.0878480  35.7500940  12.9866400
  97.3458070  36.3072660  12.3549930 103.5487570  40.2705500  22.8792970
 102.7206200  40.3398590  22.4043100 104.1438050  40.8559810  22.4108800
 101.0703020  40.8790280  16.4082030 100.4515440  40.5409830  15.7608330
 101.0527470  40.2350040  17.1161220 100.5129580  37.0574820  23.8247840
 100.1000760  37.8828530  24.0787830  99.7805530  36.4719860  23.6324200
  92.6462370  39.8434720  18.6866510  92.2419370  39.1311970  18.1912410
  92.7325490  39.4987960  19.5754550  93.1144070  43.5302280  20.8505720
  92.8172360  42.9247750  20.1713500  94.0643890  43.5679590  20.7395080
  91.3590990  36.6177930  22.4665550  91.9105580  36.7273270  21.6918800
  91.8734500  36.9915530  23.1820780  99.2467720  40.1177090  13.4154780
  99.6861000  39.2799520  13.2692600  99.9596140  40.7506490  13.5018920
  97.3563100  45.0573160  17.3836020  97.7959010  45.7997490  16.9691410
  97.2949990  45.2999730  18.3074980 102.8284860  31.3719900  11.7295820
 102.5157520  31.4646730  12.6294890 103.5897330  31.9500930  11.6793250
  89.3467000  38.7379700  16.1873160  89.2264600  39.4641790  15.5754430
  89.0367890  37.9682610  15.7101070 104.7828890  46.8646090  29.5820210
 105.2588610  47.3428980  30.2609290 105.4036050  46.7963580  28.8565710
  86.9852370  41.9094840  21.9941800  87.0632790  42.0443610  21.0497520
  87.5994050  41.2010730  22.1869920  88.2300000  43.6095030  18.4047980
  87.8228080  43.7509620  17.5501580  89.1213010  43.3255190  18.2019190
 104.1862140  44.0558940  26.7420220 104.3125200  43.8170820  25.8237400
 104.2283520  43.2243480  27.2142300 100.0233280  48.0442280  14.7399030
  99.8634420  47.7545220  15.6380860  99.8579990  47.2682410  14.2044260
  92.5021660  47.8240810  16.5170650  92.3264140  46.9076350  16.3038450
  91.6477400  48.1828100  16.7568450  99.7259410  45.5529840  13.2997030
  99.0324570  45.5507130  12.6399310 100.4682270  45.1289160  12.8691200
  99.2909340  47.1792550  17.3745520  99.7466290  46.3981930  17.6884140
  99.6301860  47.8899370  17.9186700 104.0386150  36.1091400  27.7069960
 103.4230420  36.6171070  27.1785420 103.7182570  35.2089730  27.6495900
  87.0411890  42.9509010  24.5336260  87.2042930  42.4814370  23.7155630
  87.5064340  42.4432570  25.1985100  91.8130660  32.0814770  19.5696830
  91.3698810  32.8624310  19.2381350  92.3715650  32.4044660  20.2767770
  96.1000470  34.9483290  25.1732150  95.6379840  35.1566310  25.9852090
  95.6978580  34.1342640  24.8702820 101.1004980  36.1692240  26.3028810
 100.2498570  35.8697990  26.6237880 100.9406770  36.4134250  25.3912630
  98.1954690  37.6693990  28.4027600  98.5208100  36.8357740  28.0629830
  98.9835020  38.1922510  28.5505930  94.9289480  31.7025470  14.4502660
  94.3043660  31.6985340  15.1755970  94.8419600  30.8356430  14.0538630
  93.8506560  32.6262100  21.4286430  94.1478890  33.5324930  21.3478450
  94.3992120  32.1380880  20.8146000  91.6044880  37.2048340  17.2978080
  91.3785800  36.9885510  18.2024700  90.8237410  37.6376800  16.9524050
  98.8342640  37.2111710  15.8968730  98.2351530  37.9347510  15.7132350
  99.3822250  37.1488490  15.1145180  94.0444090  38.1033920  27.9638350
  93.9487690  37.1628650  27.8138750  94.8876070  38.3248990  27.5686420
  97.4407510  35.8475250  17.9272010  97.8337080  36.1647450  17.1140700
  97.8024360  34.9687130  18.0416530  89.1754630  34.5147590  26.1172130
  88.7818020  35.3622800  26.3244910  88.4873030  33.8773960  26.3080770
  95.7499680  34.5982560  29.1868870  95.0598000  34.4054760  29.8214960
  96.4931980  34.8817200  29.7193170  86.4771680  32.4376050  20.1502210
  86.1884730  33.0078910  20.8627190  87.2217440  31.9580500  20.5133440
  86.6641910  36.3796170  11.3604930  86.5816580  37.3226930  11.5019920
  86.3124970  36.2371080  10.4817280  98.0262650  38.4381000  22.0222790
  97.2943770  38.9467810  22.3712890  97.6286990  37.6210980  21.7211570
  94.4640040  35.1135200  20.4275280  94.4676100  34.6725150  19.5779820
  95.3591160  35.4352530  20.5347100  90.3142420  34.9961690  19.3869490
  89.9742470  35.4736920  20.1436540  89.5519740  34.5426810  19.0270590
  94.5260190  36.1147280  13.4182040  94.6473010  36.0733760  14.3667860
  94.1408700  36.9771430  13.2628770  98.4888560  33.8914680  21.4345730
  98.5061300  34.3423330  22.2787580  98.2404140  32.9920320  21.6479170
  93.5381690  38.4248420  12.8165340  92.9698590  37.9766670  12.1901250
  94.2470690  38.7841200  12.2830490 101.9159310  31.3046860  27.2732110
 102.2405080  30.5736520  27.7990090 101.9515820  30.9860500  26.3713100
  94.7648010  39.1736980  22.1740690  95.1318140  38.6995550  22.9202030
  94.5753070  40.0478550  22.5149030  87.6288500  33.9180670  18.3034160
  87.3435420  33.5536340  19.1412780  87.5667360  33.1861130  17.6897300
  92.5547380  38.2145620  24.4924900  92.2504450  39.0937600  24.7175260
  93.5093840  38.2745410  24.5282340  91.0829170  42.4206610  15.0891750
  90.3091430  41.8804230  14.9290470  91.8123800  41.9013220  14.7509510
 101.8417150  41.4171970  20.8818140 102.5616270  41.9127260  20.4914250
 101.6398970  40.7389860  20.2372010  97.3027090  32.8109930  15.0247530
  96.4891700  32.3123100  14.9492840  97.1089040  33.6508180  14.6083880
 100.0175480  37.1829580  13.3209690 100.9055100  37.4946810  13.1461030
  99.9880570  36.3101830  12.9290270  91.1266570  42.0886990  18.7270560
  91.6445240  41.2855250  18.6727450  90.6750590  42.0266130  19.5687390
  96.0136070  43.3553270  13.9997860  96.3551770  44.0995500  13.5041180
  95.1848780  43.6684390  14.3622690  88.6111110  39.0548360  25.6396260
  88.2526050  39.7202210  26.2269600  88.3165670  38.2231910  26.0108880
 102.2889750  38.4941420  12.7889550 102.2053470  38.9255640  11.9385990
 103.0083940  38.9539770  13.2216370 103.3663890  40.9508940  25.8659520
 102.6412080  41.5437720  25.6688910 103.8939350  40.9432480  25.0672890
 103.3177000  45.3483680  15.5171680 102.6753160  44.6939300  15.7915400
 102.9307660  45.7538770  14.7412350  98.8963480  42.6769110  19.3643370
  99.2487300  42.0797240  18.7044740  98.0125810  42.3513340  19.5351620
  94.9826760  43.4366800  16.7713780  95.6697890  43.9836010  17.1521370
  94.1959180  43.9807530  16.8063390  87.1219160  39.0539620  12.2630860
  87.9914010  39.3364420  12.5466780  86.6309480  39.8675490  12.1479670
  94.2853970  40.4412830  16.3839140  94.7416750  41.2518080  16.6099330
  93.9342180  40.1235970  17.2157630  90.1865750  30.7850480  16.8561660
  90.0580380  30.7768380  17.8046580  89.3627770  31.1233570  16.5052670
  97.8618660  43.9551520  22.3308890  98.5040890  43.2544680  22.4441060
  98.3868010  44.7349960  22.1505780 101.7074380  44.2400140  12.0548030
 101.4811960  43.5230580  12.6472670 101.3170580  43.9912580  11.2169780
  99.6356280  44.7546420  25.5344950  99.9712520  45.3413110  26.2122870
  98.7156620  44.6239130  25.7642740  87.4890410  48.2667000  12.8292490
  87.8488050  48.8656340  12.1749760  87.3482750  48.8126890  13.6027520
  87.1859680  32.5441600  26.3168360  86.4718200  32.7438520  26.9220970
  87.6054720  31.7681170  26.6883160 101.2890630  42.1572080  13.7162190
 101.0012330  42.6184770  14.5040070 102.0842800  41.6969850  13.9846410
  93.5059030  45.6498200  13.6466160  93.4969130  46.3827890  13.0310670
  92.5857390  45.4029780  13.7393120  89.1065670  40.8713090  14.3912920
  88.4993620  41.6111990  14.4008220  89.5815020  40.9612450  13.5651120
  98.6798460  35.0363910  24.0669810  99.0479280  34.2159120  24.3949380
  97.8196660  35.0965800  24.4825460 102.0460490  33.9920850  14.8757370
 101.4173650  34.0966520  14.1615600 101.5512410  34.2117630  15.6651250
  96.4918630  45.7126440  12.3091350  96.5930610  45.5090430  11.3793330
  95.5920370  45.4584720  12.5139130  94.0144520  36.2706800  16.2915250
  93.3060670  36.7393140  16.7328860  94.2989000  35.6128810  16.9260440
  95.6400450  37.6903500  24.2907780  96.1385700  38.1649320  24.9559630
  95.7823400  36.7667020  24.4977810  98.0459950  32.9957460  17.7311040
  97.9227730  33.0143590  16.7820550  98.9944510  33.0436400  17.8509440
  95.1336740  48.2312760  17.0039020  95.3878240  48.1934150  16.0818390
  94.1849220  48.1046090  16.9967270  92.2179540  34.5791880  13.6665960
  93.0670070  35.0162030  13.6006150  91.8510810  34.8912140  14.4938020
 102.8467310  33.9071460  25.1336170 102.3440910  34.6476860  25.4729980
 103.6623970  34.2955460  24.8172960 101.1389320  39.1504640  18.5797530
 100.1979460  39.1654870  18.7545220 101.4533390  38.3640600  19.0257830
  91.1170960  40.8324240  12.1401490  91.8834230  40.7205600  12.7026920
  91.1945650  40.1362210  11.4878260  89.8117720  38.2649310  12.8234380
  89.8921310  37.3176820  12.9351780  90.7037470  38.5956190  12.9295040
 103.1414900  46.3213490  20.2551790 103.2662320  47.1444660  20.7275600
 104.0080460  46.1104220  19.9075940  90.6132430  48.4144700  19.9268920
  91.3494910  47.8660160  20.1977490  90.9973350  49.2800710  19.7874910
  87.4977910  44.4818270  15.8010430  86.5717690  44.7239410  15.7915840
  87.9634340  45.3092530  15.6795180  93.7234740  47.5875010  11.7494490
  94.5163350  47.8763840  11.2976280  93.2039090  47.1567180  11.0706970
  98.4555340  43.7070640  29.0629910  97.8493500  43.7302240  28.3225660
  98.1509450  42.9753680  29.5997160  99.8855710  47.4350930  27.6739320
 100.8377460  47.3508950  27.6239560  99.7383930  48.0992640  28.3473110
 102.7764910  46.8145140  13.1731230 102.4906420  46.4010280  12.3585410
 102.5784460  47.7432850  13.0531750  87.3388520  40.0864230  28.0590550
  87.8427540  39.5071510  28.6306780  86.5995940  40.3704460  28.5966920
  94.2412140  42.8078420  11.6136840  94.1362780  42.1930770  12.3398220
  94.0736360  42.2844310  10.8299850  97.4814870  41.8698450  12.2178830
  96.9324970  42.3167750  12.8621570  98.1034130  41.3647700  12.7416500
 101.5349810  43.2240550  28.1501090 102.2759280  43.5616310  27.6468550
 100.7722490  43.3932610  27.5970860  89.3711600  38.2293820  28.9540620
  89.4116940  37.9307690  29.8625850  90.2257100  38.6301430  28.7948140
  93.1489990  40.8289370  14.1144130  93.5706410  40.6629240  14.9575520
  93.2740830  40.0189600  13.6199270  91.3117410  36.8085920  26.9215110
  90.7813870  36.3176870  26.2938450  91.9805480  37.2370120  26.3873040
  95.6617630  39.8526980  11.3621230  96.1823290  39.1376000  10.9962380
  96.3086030  40.4912850  11.6621740 100.2095470  41.2755380  26.6856300
 100.6236490  41.4300460  27.5346720  99.2746470  41.4010600  26.8482080
 100.6817640  38.6151540  28.6895450 101.2638410  37.8603860  28.6015930
 100.8579410  39.1458980  27.9126930  91.7989710  33.7748290  27.0012400
  91.7046580  33.1569040  26.2763270  91.2187100  34.5014580  26.7742310
  94.5651150  32.3321530  24.0339790  94.1168450  32.3545790  23.1885340
  93.9316350  31.9340550  24.6310090  97.3074600  38.9592040  26.0390070
  97.4270810  38.3633180  26.7784910  98.1668600  38.9961730  25.6191370
  99.6462500  39.5129230  24.6152580  99.1197720  40.0371850  24.0117720
  99.9893840  40.1456620  25.2462310  92.0448890  36.9022600  11.0602290
  91.8437950  36.0389960  11.4215630  91.8740940  36.8155960  10.1223890
  92.8218120  47.5328870  25.7709960  92.2839210  48.2574930  25.4518660
  93.0752080  47.0559210  24.9807300  94.0743370  35.5013390  27.2965890
  94.6643060  35.1929240  27.9843710  93.2563610  35.0293140  27.4525790
  98.8936800  35.1179200  27.5298910  98.2052320  34.4560740  27.4648900
  99.6142820  34.6717470  27.9747370  99.5237200  31.7130830  13.5889170
  99.8039490  30.8698730  13.9448590  98.7502930  31.9453940  14.1027920
  90.8431690  34.0023220  11.0480170  91.1457590  34.0090650  10.1399320
  91.5826280  33.6521080  11.5447830  95.6780330  48.7680080  26.0296610
  95.6039030  49.6715220  26.3368980  94.7759170  48.4491980  26.0018680
  94.0616620  32.9457840  12.0336370  93.7138620  32.2681830  11.4538820
  94.2629390  32.4847350  12.8479760  96.2265660  47.9338590  13.6522970
  97.1216450  48.2723560  13.6741730  96.2583290  47.2118000  13.0247250
  89.8661820  43.3065640  11.8809970  90.3036690  43.8495310  12.5367550
  90.3509550  42.4812590  11.8906310  87.0807620  46.0954670  19.3330230
  87.4110630  45.2275730  19.1008870  87.5098620  46.3013190  20.1635190
  91.6769540  44.4263680  16.9932200  91.3765080  44.3028650  17.8936110
  91.5707030  43.5672270  16.5847930  87.5697830  46.9625260  22.0711860
  87.1328820  47.1426060  22.9036010  88.1375510  47.7199880  21.9293580
 103.2060010  46.4642260  26.3589170 102.6062000  46.5234820  25.6153090
 103.3353910  45.5247240  26.4886020 104.4461460  44.2060080  11.6958880
 103.6154420  44.2736730  12.1666110 104.6233290  45.0964200  11.3925740
 103.9017920  40.9507560  14.1993080 104.6636830  41.5204210  14.3052770
 103.9172290  40.3834760  14.9701390  87.4022260  39.4745490  18.4300740
  86.7471100  39.2057130  17.7860440  88.2400210  39.3649970  17.9802720
 104.9077890  41.8057660  19.0435010 105.2786720  41.0224980  18.6370980
 105.5479820  42.4946760  18.8652310 101.8911650  43.1894240  24.4565330
 101.0771490  43.6191400  24.7191120 102.2985850  43.8012650  23.8434380
 103.9537090  41.2441930  11.3565600 104.2285930  42.1520810  11.2284820
 103.7647830  41.1804460  12.2927590 100.3512700  34.2686780  12.6519230
 100.7697580  34.0817760  11.8115890 100.0448760  33.4165830  12.9622160
 103.8502430  39.1810920  16.3495030 103.4746030  38.4138850  15.9176320
 103.1205550  39.5633620  16.8369960  88.4398190  39.8598060  22.9704080
  88.8071230  39.7725460  23.8500100  87.8709010  39.0964610  22.8710940
 103.2402050  38.3282440  25.9834550 103.0088140  38.0995190  25.0832500
 103.5006600  39.2481990  25.9379440  87.9914190  36.7707150  26.8762500
  87.0970240  36.7373910  27.2156210  88.5311740  36.9693940  27.6413750
 101.6790120  33.5538870  28.7614250 102.5560300  33.5622270  29.1448250
 101.6910960  32.8169710  28.1506600  86.6160340  36.6844420  14.3726070
  85.7124420  36.9474620  14.1977730  87.1000960  36.9555590  13.5926030
 103.1253390  37.4068410  19.6502270 103.6490870  36.9131060  19.0192440
 103.7112810  37.5418770  20.3949840 103.3043110  37.4908280  23.1721820
 102.3545820  37.4571820  23.2866810 103.4856120  38.4008390  22.9371590
  89.1587550  35.7409960  12.2820450  89.8679250  35.3193180  11.7967730
  88.4427490  35.8085190  11.6503800  88.8061710  31.7949290  11.3223100
  89.5289840  32.3358230  11.6404320  89.0786230  31.5212710  10.4464640
 102.6153360  36.6641760  15.5894680 103.1112480  36.4312630  16.3743560
 102.4169430  35.8253600  15.1732320  88.4953900  31.0455480  21.2245720
  89.1430090  30.4952860  20.7840880  88.9155740  31.2998630  22.0461530
 104.0440520  35.3002710  18.1232360 103.9339800  35.1458750  19.0614630
 104.8048110  34.7723650  17.8807770 102.3906240  31.2396840  24.5815360
 103.0278460  31.8530980  24.9474550 102.5381130  31.2757500  23.6364590
 104.9330790  33.1310630  11.3638500 105.8580100  32.9991810  11.1556790
 104.9106580  33.2103450  12.3174950 105.0069280  33.9021290  13.9895210
 104.2120780  33.8366410  14.5188120 105.2112560  34.8371930  13.9780560
 101.9487700  47.9412840  17.9833600 102.5446770  47.6197410  17.3068020
 102.2065850  47.4684660  18.7746870  88.2485900  31.2011150  23.9671040
  87.9000720  31.6574970  24.7329220  87.9173600  30.3068280  24.0493470
  95.7610720  32.3923030  27.4890460  95.6999610  32.9844860  28.2385870
  96.7011100  32.2848990  27.3440720  98.3985280  32.0493090  27.1282750
  99.0125690  32.3672380  26.4663830  98.9434840  31.5641680  27.7478610
 104.8160460  47.9484720  24.5344590 104.3218740  48.3453590  23.8171720
 104.2073750  47.3233930  24.9281870  88.9206540  30.7287350  27.2421810
  89.4689530  30.5475400  26.4787920  88.9861850  29.9381460  27.7778120
  89.6938300  47.3193000  25.2522010  89.0998620  47.1877700  25.9912050
  89.6862140  46.4831140  24.7864110  99.1393320  30.6125230  23.4552040
  98.2653160  30.9460340  23.2524970  99.0304070  30.1398410  24.2803910
 100.0465300  32.8196100  24.8393760  99.7178660  32.0047860  24.4595490
 100.9947600  32.7765910  24.7159450  89.3250530  44.6851380  24.2030050
  88.5984590  44.0656670  24.1356000  89.3859680  45.0791990  23.3328130
  92.9295630  46.8996380  20.9879460  93.4460650  46.2883740  20.4627720
  93.5793010  47.4025160  21.4790470  96.8868140  31.5295070  22.3944950
  96.1039930  32.0040570  22.6741710  96.5931070  30.6249900  22.2858130
 101.4389210  32.2318170  20.4394040 101.8797300  32.1763270  19.5915640
 101.1696800  33.1476180  20.5104220 103.3027780  31.8633410  18.4502860
 103.2416180  30.9194630  18.3033880 104.0819810  31.9713500  18.9956320
  87.6080530  48.0025770  17.4126810  87.4402570  47.3696450  18.1108700
  86.7415040  48.2085170  17.0621000  88.2308550  31.8342550  14.9158670
  88.9887910  31.9471430  14.3422700  87.7685720  32.6711750  14.8702100
  94.7722360  33.9481820  17.9060980  93.9596870  33.5738710  17.5656860
  95.2764000  33.1926900  18.2082170  99.2747340  30.6124270  19.1444050
  99.8776710  31.1844480  19.6192570  98.5340330  31.1763710  18.9217950
 102.4181940  31.0145830  14.4184330 102.6132570  31.9129280  14.6851760
 101.6311810  30.7832910  14.9117280  89.2143230  46.6959000  14.8576950
  88.6890850  47.0767030  14.1538910  89.1387810  47.3209770  15.5786660
  90.6033700  32.3606600  13.4560640  91.1326460  31.5736400  13.3268590
  91.2362020  33.0397790  13.6896170  92.7971540  32.0981740  16.5106030
  92.1674280  31.3969050  16.6776160  92.2576680  32.8585870  16.2939190
  95.7363490  48.7120970  29.1816640  96.6630800  48.4765240  29.2252600
  95.7213920  49.5392970  28.7002670 103.9708550  48.2546540  16.1790890
 104.1460740  47.5684280  15.5351810 103.2730120  48.7793590  15.7867560
  92.9227100  31.3765720  28.9458520  92.6411370  31.8799320  28.1819340
  93.3046800  30.5787470  28.5800650  91.8136200  48.6441380  13.7326200
  92.5455020  48.3600660  13.1850090  92.0729870  48.4054660  14.6225580
  90.9750990  44.7606110  13.7372530  90.3459870  45.2291210  14.2858360
  91.0898820  43.9155330  14.1718720  99.5242560  30.7919300  29.5238990
  99.4108010  31.1113910  30.4190510 100.3412300  31.1931810  29.2276270
 102.3041050  47.9390830  29.0057680 103.0966370  47.4440060  28.7983640
 102.5974200  48.6180970  29.6133290  96.5618750  40.5890790   1.7683000
  95.7860850  40.1091230   2.0581570  97.2131680  39.9096440   1.5939160
  90.5784580  40.9010600   2.6458760  89.7469460  40.6459310   3.0455270
  91.1865560  40.9721370   3.3816680  90.5585840  44.9350690   2.8416780
  90.8613880  44.0448430   2.6627000  91.3029430  45.4920910   2.6139030
  96.0027740  43.2647980   1.7753160  95.9336020  42.3237920   1.6142290
  96.7647600  43.3549390   2.3475730  88.1934410  33.8702500   4.1009780
  88.0137250  32.9728250   4.3812540  87.7914490  34.4174370   4.7756730
  88.8121080  36.3663000   2.7092120  89.4931190  36.6301370   3.3279520
  88.4969130  35.5263870   3.0430130  93.0045650  37.4130360   1.7964710
  93.5123870  37.9111330   2.4369730  93.5358890  36.6365560   1.6204070
 105.1056580  35.5835550   5.4994060 104.4008750  35.9717260   4.9809170
 105.3714500  36.2785840   6.1014990  91.2881750  32.0528920   6.0628130
  91.2900190  32.5701310   5.2574030  90.4586060  31.5759100   6.0398060
  92.5384600  41.6924100   4.2401630  92.2053980  42.3193020   4.8822700
  92.7151280  42.2185980   3.4603300  90.9697080  33.7638880   4.0698580
  91.3113890  34.6080930   3.7752450  90.0312890  33.9122620   4.1863920
  91.7503700  43.6604900   6.0550810  92.3677700  44.3355980   5.7735260
  90.8896820  44.0692880   5.9638310 102.6681290  45.1244310   3.9705450
 101.9844810  45.7943420   3.9622120 103.2075580  45.3224960   3.2050310
 104.1205430  34.9523970   2.0987180 103.1730340  34.9862950   2.2302610
 104.4455420  35.7662920   2.4836540 100.2040030  46.9688440   2.6850630
 100.2167190  46.5650730   1.8172890  99.6515250  47.7435730   2.5812060
  99.6025470  41.8718280   4.0133240 100.0194260  41.6578390   3.1786700
 100.3265290  42.1291070   4.5841860 103.5487570  40.2705500   4.1049480
 102.7206200  40.3398590   3.6299610 104.1438050  40.8559810   3.6365310
 100.5129580  37.0574820   5.0504350 100.1000760  37.8828530   5.3044340
  99.7805530  36.4719860   4.8580710  91.3590990  36.6177930   3.6922060
  91.9105580  36.7273270   2.9175310  91.8734500  36.9915530   4.4077290
 101.2029680  47.1034150   5.7385330 100.7260240  47.9106340   5.5457940
 100.5191470  46.4512480   5.8911540  92.2062500  43.2683970   8.7270030
  91.3091030  43.4923940   8.9743430  92.2315370  43.3918910   7.7781430
  91.0333720  40.1397290   7.3027400  90.8941490  41.0120090   7.6714800
  90.1515080  39.7970100   7.1575340  92.8314070  46.0818990   9.5112550
  92.8029500  46.4861940   8.6440980  92.6679040  45.1529350   9.3484150
 104.7828890  46.8646090  10.8076720 105.2588610  47.3428980  11.4865800
 105.4036050  46.7963580  10.0822220  86.9852370  41.9094840   3.2198310
  87.0632790  42.0443610   2.2754030  87.5994050  41.2010730   3.4126430
 104.1862140  44.0558940   7.9676730 104.3125200  43.8170820   7.0493910
 104.2283520  43.2243480   8.4398810  98.0478880  47.7586940   6.5371540
  98.5623550  47.6694950   7.3393970  97.2047960  48.1046640   6.8299450
 104.0386150  36.1091400   8.9326470 103.4230420  36.6171070   8.4041930
 103.7182570  35.2089730   8.8752410  87.0411890  42.9509010   5.7592770
  87.2042930  42.4814370   4.9412140  87.5064340  42.4432570   6.4241610
  96.1000470  34.9483290   6.3988660  95.6379840  35.1566310   7.2108600
  95.6978580  34.1342640   6.0959330 101.1004980  36.1692240   7.5285320
 100.2498570  35.8697990   7.8494390 100.9406770  36.4134250   6.6169140
  98.1954690  37.6693990   9.6284110  98.5208100  36.8357740   9.2886340
  98.9835020  38.1922510   9.7762440  93.8506560  32.6262100   2.6542940
  94.1478890  33.5324930   2.5734960  94.3992120  32.1380880   2.0402510
  94.0444090  38.1033920   9.1894860  93.9487690  37.1628650   9.0395260
  94.8876070  38.3248990   8.7942930  89.1754630  34.5147590   7.3428640
  88.7818020  35.3622800   7.5501420  88.4873030  33.8773960   7.5337280
  95.7499680  34.5982560  10.4125380  95.0598000  34.4054760  11.0471470
  96.4931980  34.8817200  10.9449680  98.0262650  38.4381000   3.2479300
  97.2943770  38.9467810   3.5969400  97.6286990  37.6210980   2.9468080
  98.4888560  33.8914680   2.6602240  98.5061300  34.3423330   3.5044090
  98.2404140  32.9920320   2.8735680 101.9159310  31.3046860   8.4988620
 102.2405080  30.5736520   9.0246600 101.9515820  30.9860500   7.5969610
  88.6150870  42.3260440   7.9188580  88.2305660  41.6854110   8.5171540
  88.9263060  43.0296560   8.4883310  94.7648010  39.1736980   3.3997200
  95.1318140  38.6995550   4.1458540  94.5753070  40.0478550   3.7405540
  92.5547380  38.2145620   5.7181410  92.2504450  39.0937600   5.9431770
  93.5093840  38.2745410   5.7538850 101.8417150  41.4171970   2.1074650
 102.5616270  41.9127260   1.7170760 101.6398970  40.7389860   1.4628520
  97.2235950  41.4881030   7.9943650  97.1573260  40.5676700   7.7401240
  96.5941090  41.5856470   8.7088290  88.6111110  39.0548360   6.8652770
  88.2526050  39.7202210   7.4526110  88.3165670  38.2231910   7.2365390
  91.8124230  39.5132600   9.7492320  91.5124370  39.6589780   8.8520140
  92.5835470  38.9537890   9.6565710  97.1552680  44.3101600   7.7447450
  97.1697220  43.3782560   7.5266360  96.4477780  44.3961360   8.3837220
 103.3663890  40.9508940   7.0916030 102.6412080  41.5437720   6.8945420
 103.8939350  40.9432480   6.2929400  96.5886580  45.9519170   4.8387950
  97.2328800  46.1578550   5.5161370  96.9516020  45.1907570   4.3858800
  97.8618660  43.9551520   3.5565400  98.5040890  43.2544680   3.6697570
  98.3868010  44.7349960   3.3762290  99.6356280  44.7546420   6.7601460
  99.9712520  45.3413110   7.4379380  98.7156620  44.6239130   6.9899250
  87.1859680  32.5441600   7.5424870  86.4718200  32.7438520   8.1477480
  87.6054720  31.7681170   7.9139670  87.4732270  46.5321860   8.5291400
  87.5823390  45.5916600   8.3886790  86.8212830  46.7976610   7.8805130
  95.4644860  44.8037750   9.9289520  95.1441730  44.0846990  10.4735210
  94.7903220  45.4792820  10.0025580  98.6798460  35.0363910   5.2926320
  99.0479280  34.2159120   5.6205890  97.8196660  35.0965800   5.7081970
  95.6400450  37.6903500   5.5164290  96.1385700  38.1649320   6.1816140
  95.7823400  36.7667020   5.7234320 102.8467310  33.9071460   6.3592680
 102.3440910  34.6476860   6.6986490 103.6623970  34.2955460   6.0429470
  89.6190710  47.5990770  10.3411010  90.4203440  47.9202820  10.7546410
  89.1042530  47.2386350  11.0630920  98.4555340  43.7070640  10.2886420
  97.8493500  43.7302240   9.5482170  98.1509450  42.9753680  10.8253670
  99.8855710  47.4350930   8.8995830 100.8377460  47.3508950   8.8496070
  99.7383930  48.0992640   9.5729620  87.3388520  40.0864230   9.2847060
  87.8427540  39.5071510   9.8563290  86.5995940  40.3704460   9.8223430
  94.3926460  41.4935220   8.8182580  93.6272130  42.0620220   8.7337250
  94.5742420  41.2011430   7.9250810 101.5349810  43.2240550   9.3757600
 102.2759280  43.5616310   8.8725060 100.7722490  43.3932610   8.8227370
  89.3711600  38.2293820  10.1797130  89.4116940  37.9307690  11.0882360
  90.2257100  38.6301430  10.0204650  91.3117410  36.8085920   8.1471620
  90.7813870  36.3176870   7.5194960  91.9805480  37.2370120   7.6129550
 100.2095470  41.2755380   7.9112810 100.6236490  41.4300460   8.7603230
  99.2746470  41.4010600   8.0738590 100.6817640  38.6151540   9.9151960
 101.2638410  37.8603860   9.8272440 100.8579410  39.1458980   9.1383440
  91.7989710  33.7748290   8.2268910  91.7046580  33.1569040   7.5019780
  91.2187100  34.5014580   7.9998820  94.5651150  32.3321530   5.2596300
  94.1168450  32.3545790   4.4141850  93.9316350  31.9340550   5.8566600
  94.9710700  41.2275860   5.8808740  95.3898810  42.0708590   5.7084980
  94.0519330  41.3647900   5.6515520  97.3074600  38.9592040   7.2646580
  97.4270810  38.3633180   8.0041420  98.1668600  38.9961730   6.8447880
  99.6462500  39.5129230   5.8409090  99.1197720  40.0371850   5.2374230
  99.9893840  40.1456620   6.4718820  92.8218120  47.5328870   6.9966470
  92.2839210  48.2574930   6.6775170  93.0752080  47.0559210   6.2063810
  94.0743370  35.5013390   8.5222400  94.6643060  35.1929240   9.2100220
  93.2563610  35.0293140   8.6782300  98.8936800  35.1179200   8.7555420
  98.2052320  34.4560740   8.6905410  99.6142820  34.6717470   9.2003880
  95.6780330  48.7680080   7.2553120  95.6039030  49.6715220   7.5625490
  94.7759170  48.4491980   7.2275190  87.5697830  46.9625260   3.2968370
  87.1328820  47.1426060   4.1292520  88.1375510  47.7199880   3.1550090
 103.2060010  46.4642260   7.5845680 102.6062000  46.5234820   6.8409600
 103.3353910  45.5247240   7.7142530 101.8911650  43.1894240   5.6821840
 101.0771490  43.6191400   5.9447630 102.2985850  43.8012650   5.0690890
  88.4398190  39.8598060   4.1960590  88.8071230  39.7725460   5.0756610
  87.8709010  39.0964610   4.0967450 103.2402050  38.3282440   7.2091060
 103.0088140  38.0995190   6.3089010 103.5006600  39.2481990   7.1635950
  87.9914190  36.7707150   8.1019010  87.0970240  36.7373910   8.4412720
  88.5311740  36.9693940   8.8670260 101.6790120  33.5538870   9.9870760
 102.5560300  33.5622270  10.3704760 101.6910960  32.8169710   9.3763110
 103.3043110  37.4908280   4.3978330 102.3545820  37.4571820   4.5123320
 103.4856120  38.4008390   4.1628100  88.4953900  31.0455480   2.4502230
  89.1430090  30.4952860   2.0097390  88.9155740  31.2998630   3.2718040
 102.3906240  31.2396840   5.8071870 103.0278460  31.8530980   6.1731060
 102.5381130  31.2757500   4.8621100  88.2485900  31.2011150   5.1927550
  87.9000720  31.6574970   5.9585730  87.9173600  30.3068280   5.2749980
  89.8550270  44.3730750   9.3580740  89.8119900  44.0023660  10.2395200
  89.9861280  45.3108320   9.4982560  93.5556300  45.9290340   4.9590460
  93.3147660  46.1964900   4.0720980  94.4958940  46.0996070   5.0141320
  95.7610720  32.3923030   8.7146970  95.6999610  32.9844860   9.4642380
  96.7011100  32.2848990   8.5697230  98.3985280  32.0493090   8.3539260
  99.0125690  32.3672380   7.6920340  98.9434840  31.5641680   8.9735120
 104.8160460  47.9484720   5.7601100 104.3218740  48.3453590   5.0428230
 104.2073750  47.3233930   6.1538380  88.9206540  30.7287350   8.4678320
  89.4689530  30.5475400   7.7044430  88.9861850  29.9381460   9.0034630
  89.6938300  47.3193000   6.4778520  89.0998620  47.1877700   7.2168560
  89.6862140  46.4831140   6.0120620  99.1393320  30.6125230   4.6808550
  98.2653160  30.9460340   4.4781480  99.0304070  30.1398410   5.5060420
 100.0465300  32.8196100   6.0650270  99.7178660  32.0047860   5.6852000
 100.9947600  32.7765910   5.9415960 102.4999910  48.5908140   3.0387840
 102.0402880  49.3423950   2.6645860 101.8712370  47.8714610   2.9802640
  89.3250530  44.6851380   5.4286560  88.5984590  44.0656670   5.3612510
  89.3859680  45.0791990   4.5584640  92.9295630  46.8996380   2.2135970
  93.4460650  46.2883740   1.6884230  93.5793010  47.4025160   2.7046980
  95.6691130  47.7904870   3.0404950  95.9568940  47.5359170   2.1637960
  96.1814350  47.2382230   3.6310520  96.8868140  31.5295070   3.6201460
  96.1039930  32.0040570   3.8998220  96.5931070  30.6249900   3.5114640
  95.7363490  48.7120970  10.4073150  96.6630800  48.4765240  10.4509110
  95.7213920  49.5392970   9.9259180  92.9227100  31.3765720  10.1715030
  92.6411370  31.8799320   9.4075850  93.3046800  30.5787470   9.8057160
  99.5242560  30.7919300  10.7495500  99.4108010  31.1113910  11.6447020
 100.3412300  31.1931810  10.4532780 102.3041050  47.9390830  10.2314190
 103.0966370  47.4440060  10.0240150 102.5974200  48.6180970  10.8389800
  98.4300710  20.0368280 150.0821650  98.3494760  19.1222890 149.8113360
  98.0165130  20.5335350 149.3761360 100.5826180  26.2207490 150.7430050
 100.1207710  25.4494730 151.0717220 101.3951730  26.2473560 151.2482500
  88.9876530  17.0869000 146.6249070  88.0993230  17.4284970 146.5228950
  89.2717720  16.8869320 145.7329900  96.8089490  28.5065500 150.3634040
  96.1900930  28.9623000 149.7928480  97.6641270  28.6616960 149.9623740
  91.1637920  15.6700500 147.6587450  91.2704670  16.5704230 147.9656210
  90.2530280  15.6218470 147.3682100 100.8157030  14.7925310 149.1298350
 101.6366650  14.3021880 149.1723830 100.8491110  15.3822970 149.8830190
  97.6752840  23.3904740 147.7565950  97.0570110  23.8554190 147.1928670
  98.1876090  24.0832220 148.1735460  87.0436040  24.0761270 145.1305580
  86.6664020  24.5648370 144.3990480  87.3009110  24.7486550 145.7612110
  94.6524970  12.4777660 150.5891090  94.9599950  11.9224550 149.8726590
  93.7225670  12.6122120 150.4064080 101.4985450  24.9161170 147.9688720
 101.3881780  23.9735500 148.0938140 101.4953700  25.2776810 148.8551480
  97.0405730  20.5426490 147.3251210  96.1135010  20.4763870 147.5539680
  97.1930550  21.4806620 147.2106450  97.0274810  16.8143490 144.3218370
  96.0878480  16.9757450 144.4070830  97.3458070  17.5329170 143.7754360
 101.0703020  22.1046790 147.8286460 100.4515440  21.7666340 147.1812760
 101.0527470  21.4606550 148.5365650  92.6462370  21.0691230 150.1070940
  92.2419370  20.3568480 149.6116840  92.7325490  20.7244470 150.9958980
  99.2467720  21.3433600 144.8359210  99.6861000  20.5056030 144.6897030
  99.9596140  21.9763000 144.9223350  97.3563100  26.2829670 148.8040450
  97.7959010  27.0254000 148.3895840  97.2949990  26.5256240 149.7279410
 102.8284860  12.5976410 143.1500250 102.5157520  12.6903240 144.0499320
 103.5897330  13.1757440 143.0997680  89.3467000  19.9636210 147.6077590
  89.2264600  20.6898300 146.9958860  89.0367890  19.1939120 147.1305500
  88.2300000  24.8351540 149.8252410  87.8228080  24.9766130 148.9706010
  89.1213010  24.5511700 149.6223620 100.0233280  29.2698790 146.1603460
  99.8634420  28.9801730 147.0585290  99.8579990  28.4938920 145.6248690
  92.5021660  29.0497320 147.9375080  92.3264140  28.1332860 147.7242880
  91.6477400  29.4084610 148.1772880  99.7259410  26.7786350 144.7201460
  99.0324570  26.7763640 144.0603740 100.4682270  26.3545670 144.2895630
  99.2909340  28.4049060 148.7949950  99.7466290  27.6238440 149.1088570
  99.6301860  29.1155880 149.3391130  91.8130660  13.3071280 150.9901260
  91.3698810  14.0880820 150.6585780  92.3715650  13.6301170 151.6972200
  94.9289480  12.9281980 145.8707090  94.3043660  12.9241850 146.5960400
  94.8419600  12.0612940 145.4743060  91.6044880  18.4304850 148.7182510
  91.3785800  18.2142020 149.6229130  90.8237410  18.8633310 148.3728480
  98.8342640  18.4368220 147.3173160  98.2351530  19.1604020 147.1336780
  99.3822250  18.3745000 146.5349610  97.4407510  17.0731760 149.3476440
  97.8337080  17.3903960 148.5345130  97.8024360  16.1943640 149.4620960
  86.6641910  17.6052680 142.7809360  86.5816580  18.5483440 142.9224350
  86.3124970  17.4627590 141.9021710  90.3142420  16.2218200 150.8073920
  89.9742470  16.6993430 151.5640970  89.5519740  15.7683320 150.4475020
  94.5260190  17.3403790 144.8386470  94.6473010  17.2990270 145.7872290
  94.1408700  18.2027940 144.6833200  93.5381690  19.6504930 144.2369770
  92.9698590  19.2023180 143.6105680  94.2470690  20.0097710 143.7034920
  87.6288500  15.1437180 149.7238590  87.3435420  14.7792850 150.5617210
  87.5667360  14.4117640 149.1101730  91.0829170  23.6463120 146.5096180
  90.3091430  23.1060740 146.3494900  91.8123800  23.1269730 146.1713940
  97.3027090  14.0366440 146.4451960  96.4891700  13.5379610 146.3697270
  97.1089040  14.8764690 146.0288310 100.0175480  18.4086090 144.7414120
 100.9055100  18.7203320 144.5665460  99.9880570  17.5358340 144.3494700
  91.1266570  23.3143500 150.1474990  91.6445240  22.5111760 150.0931880
  90.6750590  23.2522640 150.9891820  96.0136070  24.5809780 145.4202290
  96.3551770  25.3252010 144.9245610  95.1848780  24.8940900 145.7827120
 102.2889750  19.7197930 144.2093980 102.2053470  20.1512150 143.3590420
 103.0083940  20.1796280 144.6420800 103.3177000  26.5740190 146.9376110
 102.6753160  25.9195810 147.2119830 102.9307660  26.9795280 146.1616780
  98.8963480  23.9025620 150.7847800  99.2487300  23.3053750 150.1249170
  98.0125810  23.5769850 150.9556050  94.9826760  24.6623310 148.1918210
  95.6697890  25.2092520 148.5725800  94.1959180  25.2064040 148.2267820
  87.1219160  20.2796130 143.6835290  87.9914010  20.5620930 143.9671210
  86.6309480  21.0932000 143.5684100  94.2853970  21.6669340 147.8043570
  94.7416750  22.4774590 148.0303760  93.9342180  21.3492480 148.6362060
  90.1865750  12.0106990 148.2766090  90.0580380  12.0024890 149.2251010
  89.3627770  12.3490080 147.9257100 101.7074380  25.4656650 143.4752460
 101.4811960  24.7487090 144.0677100 101.3170580  25.2169090 142.6374210
  87.4890410  29.4923510 144.2496920  87.8488050  30.0912850 143.5954190
  87.3482750  30.0383400 145.0231950 101.2890630  23.3828590 145.1366620
 101.0012330  23.8441280 145.9244500 102.0842800  22.9226360 145.4050840
  93.5059030  26.8754710 145.0670590  93.4969130  27.6084400 144.4515100
  92.5857390  26.6286290 145.1597550  89.1065670  22.0969600 145.8117350
  88.4993620  22.8368500 145.8212650  89.5815020  22.1868960 144.9855550
 102.0460490  15.2177360 146.2961800 101.4173650  15.3223030 145.5820030
 101.5512410  15.4374140 147.0855680  96.4918630  26.9382950 143.7295780
  96.5930610  26.7346940 142.7997760  95.5920370  26.6841230 143.9343560
  94.0144520  17.4963310 147.7119680  93.3060670  17.9649650 148.1533290
  94.2989000  16.8385320 148.3464870  98.0459950  14.2213970 149.1515470
  97.9227730  14.2400100 148.2024980  98.9944510  14.2692910 149.2713870
  95.1336740  29.4569270 148.4243450  95.3878240  29.4190660 147.5022820
  94.1849220  29.3302600 148.4171700  92.2179540  15.8048390 145.0870390
  93.0670070  16.2418540 145.0210580  91.8510810  16.1168650 145.9142450
 101.1389320  20.3761150 150.0001960 100.1979460  20.3911380 150.1749650
 101.4533390  19.5897110 150.4462260  91.1170960  22.0580750 143.5605920
  91.8834230  21.9462110 144.1231350  91.1945650  21.3618720 142.9082690
  89.8117720  19.4905820 144.2438810  89.8921310  18.5433330 144.3556210
  90.7037470  19.8212700 144.3499470  90.6132430  29.6401210 151.3473350
  91.3494910  29.0916670 151.6181920  90.9973350  30.5057220 151.2079340
  87.4977910  25.7074780 147.2214860  86.5717690  25.9495920 147.2120270
  87.9634340  26.5349040 147.0999610  93.7234740  28.8131520 143.1698920
  94.5163350  29.1020350 142.7180710  93.2039090  28.3823690 142.4911400
 102.7764910  28.0401650 144.5935660 102.4906420  27.6266790 143.7789840
 102.5784460  28.9689360 144.4736180  94.2412140  24.0334930 143.0341270
  94.1362780  23.4187280 143.7602650  94.0736360  23.5100820 142.2504280
  97.4814870  23.0954960 143.6383260  96.9324970  23.5424260 144.2826000
  98.1034130  22.5904210 144.1620930  93.1489990  22.0545880 145.5348560
  93.5706410  21.8885750 146.3779950  93.2740830  21.2446110 145.0403700
  95.6617630  21.0783490 142.7825660  96.1823290  20.3632510 142.4166810
  96.3086030  21.7169360 143.0826170  92.0448890  18.1279110 142.4806720
  91.8437950  17.2646470 142.8420060  91.8740940  18.0412470 141.5428320
  99.5237200  12.9387340 145.0093600  99.8039490  12.0955240 145.3653020
  98.7502930  13.1710450 145.5232350  90.8431690  15.2279730 142.4684600
  91.1457590  15.2347160 141.5603750  91.5826280  14.8777590 142.9652260
  94.0616620  14.1714350 143.4540800  93.7138620  13.4938340 142.8743250
  94.2629390  13.7103860 144.2684190  96.2265660  29.1595100 145.0727400
  97.1216450  29.4980070 145.0946160  96.2583290  28.4374510 144.4451680
  89.8661820  24.5322150 143.3014400  90.3036690  25.0751820 143.9571980
  90.3509550  23.7069100 143.3110740  87.0807620  27.3211180 150.7534660
  87.4110630  26.4532240 150.5213300  87.5098620  27.5269700 151.5839620
  91.6769540  25.6520190 148.4136630  91.3765080  25.5285160 149.3140540
  91.5707030  24.7928780 148.0052360 104.4461460  25.4316590 143.1163310
 103.6154420  25.4993240 143.5870540 104.6233290  26.3220710 142.8130170
 103.9017920  22.1764070 145.6197510 104.6636830  22.7460720 145.7257200
 103.9172290  21.6091270 146.3905820  87.4022260  20.7002000 149.8505170
  86.7471100  20.4313640 149.2064870  88.2400210  20.5906480 149.4007150
 104.9077890  23.0314170 150.4639440 105.2786720  22.2481490 150.0575410
 105.5479820  23.7203270 150.2856740 103.9537090  22.4698440 142.7770030
 104.2285930  23.3777320 142.6489250 103.7647830  22.4060970 143.7132020
 100.3512700  15.4943290 144.0723660 100.7697580  15.3074270 143.2320320
 100.0448760  14.6422340 144.3826590 103.8502430  20.4067430 147.7699460
 103.4746030  19.6395360 147.3380750 103.1205550  20.7890130 148.2574390
  86.6160340  17.9100930 145.7930500  85.7124420  18.1731130 145.6182160
  87.1000960  18.1812100 145.0130460  89.1587550  16.9666470 143.7024880
  89.8679250  16.5449690 143.2172160  88.4427490  17.0341700 143.0708230
  88.8061710  13.0205800 142.7427530  89.5289840  13.5614740 143.0608750
  89.0786230  12.7469220 141.8669070 102.6153360  17.8898270 147.0099110
 103.1112480  17.6569140 147.7947990 102.4169430  17.0510110 146.5936750
 104.0440520  16.5259220 149.5436790 103.9339800  16.3715260 150.4819060
 104.8048110  15.9980160 149.3012200 104.9330790  14.3567140 142.7842930
 105.8580100  14.2248320 142.5761220 104.9106580  14.4359960 143.7379380
 105.0069280  15.1277800 145.4099640 104.2120780  15.0622920 145.9392550
 105.2112560  16.0628440 145.3984990 101.9487700  29.1669350 149.4038030
 102.5446770  28.8453920 148.7272450 102.2065850  28.6941170 150.1951300
 103.3027780  13.0889920 149.8707290 103.2416180  12.1451140 149.7238310
 104.0819810  13.1970010 150.4160750  87.6080530  29.2282280 148.8331240
  87.4402570  28.5952960 149.5313130  86.7415040  29.4341680 148.4825430
  88.2308550  13.0599060 146.3363100  88.9887910  13.1727940 145.7627130
  87.7685720  13.8968260 146.2906530  94.7722360  15.1738330 149.3265410
  93.9596870  14.7995220 148.9861290  95.2764000  14.4183410 149.6286600
  99.2747340  11.8380780 150.5648480  99.8776710  12.4100990 151.0397000
  98.5340330  12.4020220 150.3422380 102.4181940  12.2402340 145.8388760
 102.6132570  13.1385790 146.1056190 101.6311810  12.0089420 146.3321710
  89.2143230  27.9215510 146.2781380  88.6890850  28.3023540 145.5743340
  89.1387810  28.5466280 146.9991090  90.6033700  13.5863110 144.8765070
  91.1326460  12.7992910 144.7473020  91.2362020  14.2654300 145.1100600
  92.7971540  13.3238250 147.9310460  92.1674280  12.6225560 148.0980590
  92.2576680  14.0842380 147.7143620 103.9708550  29.4803050 147.5995320
 104.1460740  28.7940790 146.9556240 103.2730120  30.0050100 147.2071990
  91.8136200  29.8697890 145.1530630  92.5455020  29.5857170 144.6054520
  92.0729870  29.6311170 146.0430010  90.9750990  25.9862620 145.1576960
  90.3459870  26.4547720 145.7062790  91.0898820  25.1411840 145.5923150
  98.4300710  20.0368280 131.3078160  98.3494760  19.1222890 131.0369870
  98.0165130  20.5335350 130.6017870  96.5618750  21.8147300 133.1887430
  95.7860850  21.3347740 133.4786000  97.2131680  21.1352950 133.0143590
  90.5784580  22.1267110 134.0663190  89.7469460  21.8715820 134.4659700
  91.1865560  22.1977880 134.8021110 100.5826180  26.2207490 131.9686560
 100.1207710  25.4494730 132.2973730 101.3951730  26.2473560 132.4739010
  90.5585840  26.1607200 134.2621210  90.8613880  25.2704940 134.0831430
  91.3029430  26.7177420 134.0343460  88.9876530  17.0869000 127.8505580
  88.0993230  17.4284970 127.7485460  89.2717720  16.8869320 126.9586410
  86.9509540  19.6874650 133.7345280  87.5225650  18.9196850 133.7348920
  86.9511080  19.9863410 132.8251890  96.8089490  28.5065500 131.5890550
  96.1900930  28.9623000 131.0184990  97.6641270  28.6616960 131.1880250
  96.0027740  24.4904490 133.1957590  95.9336020  23.5494430 133.0346720
  96.7647600  24.5805900 133.7680160  88.1934410  15.0959010 135.5214210
  88.0137250  14.1984760 135.8016970  87.7914490  15.6430880 136.1961160
  97.0332910  17.2974870 133.4226520  97.4097730  16.4246750 133.3100190
  96.9352420  17.6333570 132.5316960  91.1637920  15.6700500 128.8843960
  91.2704670  16.5704230 129.1912720  90.2530280  15.6218470 128.5938610
 100.8157030  14.7925310 130.3554860 101.6366650  14.3021880 130.3980340
 100.8491110  15.3822970 131.1086700  88.8121080  17.5919510 134.1296550
  89.4931190  17.8557880 134.7483950  88.4969130  16.7520380 134.4634560
  93.0045650  18.6386870 133.2169140  93.5123870  19.1367840 133.8574160
  93.5358890  17.8622070 133.0408500 105.1056580  16.8092060 136.9198490
 104.4008750  17.1973770 136.4013600 105.3714500  17.5042350 137.5219420
  91.2881750  13.2785430 137.4832560  91.2900190  13.7957820 136.6778460
  90.4586060  12.8015610 137.4602490  97.6752840  23.3904740 128.9822460
  97.0570110  23.8554190 128.4185180  98.1876090  24.0832220 129.3991970
  92.5384600  22.9180610 135.6606060  92.2053980  23.5449530 136.3027130
  92.7151280  23.4442490 134.8807730 101.0518510  16.7325690 133.1282400
 100.3474080  17.0210580 133.7085510 101.4130670  17.5425800 132.7681960
  90.9697080  14.9895390 135.4903010  91.3113890  15.8337440 135.1956880
  90.0312890  15.1379130 135.6068350  91.7503700  24.8861410 137.4755240
  92.3677700  25.5612490 137.1939690  90.8896820  25.2949390 137.3842740
  87.0436040  24.0761270 126.3562090  86.6664020  24.5648370 125.6246990
  87.3009110  24.7486550 126.9868620 102.6681290  26.3500820 135.3909880
 101.9844810  27.0199930 135.3826550 103.2075580  26.5481470 134.6254740
 104.1205430  16.1780480 133.5191610 103.1730340  16.2119460 133.6507040
 104.4455420  16.9919430 133.9040970  94.6524970  12.4777660 131.8147600
  94.9599950  11.9224550 131.0983100  93.7225670  12.6122120 131.6320590
 100.2040030  28.1944950 134.1055060 100.2167190  27.7907240 133.2377320
  99.6515250  28.9692240 134.0016490 101.4985450  24.9161170 129.1945230
 101.3881780  23.9735500 129.3194650 101.4953700  25.2776810 130.0807990
  99.6025470  23.0974790 135.4337670 100.0194260  22.8834900 134.5991130
 100.3265290  23.3547580 136.0046290  97.0405730  20.5426490 128.5507720
  96.1135010  20.4763870 128.7796190  97.1930550  21.4806620 128.4362960
  97.0274810  16.8143490 125.5474880  96.0878480  16.9757450 125.6327340
  97.3458070  17.5329170 125.0010870 103.5487570  21.4962010 135.5253910
 102.7206200  21.5655100 135.0504040 104.1438050  22.0816320 135.0569740
 101.0703020  22.1046790 129.0542970 100.4515440  21.7666340 128.4069270
 101.0527470  21.4606550 129.7622160 100.5129580  18.2831330 136.4708780
 100.1000760  19.1085040 136.7248770  99.7805530  17.6976370 136.2785140
  92.6462370  21.0691230 131.3327450  92.2419370  20.3568480 130.8373350
  92.7325490  20.7244470 132.2215490  93.1144070  24.7558790 133.4966660
  92.8172360  24.1504260 132.8174440  94.0643890  24.7936100 133.3856020
  91.3590990  17.8434440 135.1126490  91.9105580  17.9529780 134.3379740
  91.8734500  18.2172040 135.8281720 101.2029680  28.3290660 137.1589760
 100.7260240  29.1362850 136.9662370 100.5191470  27.6768990 137.3115970
  92.2062500  24.4940480 140.1474460  91.3091030  24.7180450 140.3947860
  92.2315370  24.6175420 139.1985860  99.2467720  21.3433600 126.0615720
  99.6861000  20.5056030 125.9153540  99.9596140  21.9763000 126.1479860
  91.0333720  21.3653800 138.7231830  90.8941490  22.2376600 139.0919230
  90.1515080  21.0226610 138.5779770  97.3563100  26.2829670 130.0296960
  97.7959010  27.0254000 129.6152350  97.2949990  26.5256240 130.9535920
  92.8314070  27.3075500 140.9316980  92.8029500  27.7118450 140.0645410
  92.6679040  26.3785860 140.7688580 102.8284860  12.5976410 124.3756760
 102.5157520  12.6903240 125.2755830 103.5897330  13.1757440 124.3254190
  89.3467000  19.9636210 128.8334100  89.2264600  20.6898300 128.2215370
  89.0367890  19.1939120 128.3562010 104.7828890  28.0902600 142.2281150
 105.2588610  28.5685490 142.9070230 105.4036050  28.0220090 141.5026650
  86.9852370  23.1351350 134.6402740  87.0632790  23.2700120 133.6958460
  87.5994050  22.4267240 134.8330860  88.2300000  24.8351540 131.0508920
  87.8228080  24.9766130 130.1962520  89.1213010  24.5511700 130.8480130
 104.1862140  25.2815450 139.3881160 104.3125200  25.0427330 138.4698340
 104.2283520  24.4499990 139.8603240  98.0478880  28.9843450 137.9575970
  98.5623550  28.8951460 138.7598400  97.2047960  29.3303150 138.2503880
 100.0233280  29.2698790 127.3859970  99.8634420  28.9801730 128.2841800
  99.8579990  28.4938920 126.8505200  92.5021660  29.0497320 129.1631590
  92.3264140  28.1332860 128.9499390  91.6477400  29.4084610 129.4029390
  99.7259410  26.7786350 125.9457970  99.0324570  26.7763640 125.2860250
 100.4682270  26.3545670 125.5152140  99.2909340  28.4049060 130.0206460
  99.7466290  27.6238440 130.3345080  99.6301860  29.1155880 130.5647640
 104.0386150  17.3347910 140.3530900 103.4230420  17.8427580 139.8246360
 103.7182570  16.4346240 140.2956840  87.0411890  24.1765520 137.1797200
  87.2042930  23.7070880 136.3616570  87.5064340  23.6689080 137.8446040
  91.8130660  13.3071280 132.2157770  91.3698810  14.0880820 131.8842290
  92.3715650  13.6301170 132.9228710  96.1000470  16.1739800 137.8193090
  95.6379840  16.3822820 138.6313030  95.6978580  15.3599150 137.5163760
 101.1004980  17.3948750 138.9489750 100.2498570  17.0954500 139.2698820
 100.9406770  17.6390760 138.0373570  98.1954690  18.8950500 141.0488540
  98.5208100  18.0614250 140.7090770  98.9835020  19.4179020 141.1966870
  94.9289480  12.9281980 127.0963600  94.3043660  12.9241850 127.8216910
  94.8419600  12.0612940 126.6999570  93.8506560  13.8518610 134.0747370
  94.1478890  14.7581440 133.9939390  94.3992120  13.3637390 133.4606940
  91.6044880  18.4304850 129.9439020  91.3785800  18.2142020 130.8485640
  90.8237410  18.8633310 129.5984990  98.8342640  18.4368220 128.5429670
  98.2351530  19.1604020 128.3593290  99.3822250  18.3745000 127.7606120
  94.0444090  19.3290430 140.6099290  93.9487690  18.3885160 140.4599690
  94.8876070  19.5505500 140.2147360  97.4407510  17.0731760 130.5732950
  97.8337080  17.3903960 129.7601640  97.8024360  16.1943640 130.6877470
  89.1754630  15.7404100 138.7633070  88.7818020  16.5879310 138.9705850
  88.4873030  15.1030470 138.9541710  95.7499680  15.8239070 141.8329810
  95.0598000  15.6311270 142.4675900  96.4931980  16.1073710 142.3654110
  86.4771680  13.6632560 132.7963150  86.1884730  14.2335420 133.5088130
  87.2217440  13.1837010 133.1594380  86.6641910  17.6052680 124.0065870
  86.5816580  18.5483440 124.1480860  86.3124970  17.4627590 123.1278220
  98.0262650  19.6637510 134.6683730  97.2943770  20.1724320 135.0173830
  97.6286990  18.8467490 134.3672510  94.4640040  16.3391710 133.0736220
  94.4676100  15.8981660 132.2240760  95.3591160  16.6609040 133.1808040
  90.3142420  16.2218200 132.0330430  89.9742470  16.6993430 132.7897480
  89.5519740  15.7683320 131.6731530  94.5260190  17.3403790 126.0642980
  94.6473010  17.2990270 127.0128800  94.1408700  18.2027940 125.9089710
  98.4888560  15.1171190 134.0806670  98.5061300  15.5679840 134.9248520
  98.2404140  14.2176830 134.2940110  93.5381690  19.6504930 125.4626280
  92.9698590  19.2023180 124.8362190  94.2470690  20.0097710 124.9291430
 101.9159310  12.5303370 139.9193050 102.2405080  11.7993030 140.4451030
 101.9515820  12.2117010 139.0174040  88.6150870  23.5516950 139.3393010
  88.2305660  22.9110620 139.9375970  88.9263060  24.2553070 139.9087740
  94.7648010  20.3993490 134.8201630  95.1318140  19.9252060 135.5662970
  94.5753070  21.2735060 135.1609970  87.6288500  15.1437180 130.9495100
  87.3435420  14.7792850 131.7873720  87.5667360  14.4117640 130.3358240
  92.5547380  19.4402130 137.1385840  92.2504450  20.3194110 137.3636200
  93.5093840  19.5001920 137.1743280  91.0829170  23.6463120 127.7352690
  90.3091430  23.1060740 127.5751410  91.8123800  23.1269730 127.3970450
 101.8417150  22.6428480 133.5279080 102.5616270  23.1383770 133.1375190
 101.6398970  21.9646370 132.8832950  97.3027090  14.0366440 127.6708470
  96.4891700  13.5379610 127.5953780  97.1089040  14.8764690 127.2544820
  97.2235950  22.7137540 139.4148080  97.1573260  21.7933210 139.1605670
  96.5941090  22.8112980 140.1292720 100.0175480  18.4086090 125.9670630
 100.9055100  18.7203320 125.7921970  99.9880570  17.5358340 125.5751210
  91.1266570  23.3143500 131.3731500  91.6445240  22.5111760 131.3188390
  90.6750590  23.2522640 132.2148330  96.0136070  24.5809780 126.6458800
  96.3551770  25.3252010 126.1502120  95.1848780  24.8940900 127.0083630
  88.6111110  20.2804870 138.2857200  88.2526050  20.9458720 138.8730540
  88.3165670  19.4488420 138.6569820  91.8124230  20.7389110 141.1696750
  91.5124370  20.8846290 140.2724570  92.5835470  20.1794400 141.0770140
  97.1552680  25.5358110 139.1651880  97.1697220  24.6039070 138.9470790
  96.4477780  25.6217870 139.8041650 102.2889750  19.7197930 125.4350490
 102.2053470  20.1512150 124.5846930 103.0083940  20.1796280 125.8677310
 103.3663890  22.1765450 138.5120460 102.6412080  22.7694230 138.3149850
 103.8939350  22.1688990 137.7133830 103.3177000  26.5740190 128.1632620
 102.6753160  25.9195810 128.4376340 102.9307660  26.9795280 127.3873290
  98.8963480  23.9025620 132.0104310  99.2487300  23.3053750 131.3505680
  98.0125810  23.5769850 132.1812560  94.9826760  24.6623310 129.4174720
  95.6697890  25.2092520 129.7982310  94.1959180  25.2064040 129.4524330
  87.1219160  20.2796130 124.9091800  87.9914010  20.5620930 125.1927720
  86.6309480  21.0932000 124.7940610  94.2853970  21.6669340 129.0300080
  94.7416750  22.4774590 129.2560270  93.9342180  21.3492480 129.8618570
  96.5886580  27.1775680 136.2592380  97.2328800  27.3835060 136.9365800
  96.9516020  26.4164080 135.8063230  90.1865750  12.0106990 129.5022600
  90.0580380  12.0024890 130.4507520  89.3627770  12.3490080 129.1513610
  97.8618660  25.1808030 134.9769830  98.5040890  24.4801190 135.0902000
  98.3868010  25.9606470 134.7966720 101.7074380  25.4656650 124.7008970
 101.4811960  24.7487090 125.2933610 101.3170580  25.2169090 123.8630720
  99.6356280  25.9802930 138.1805890  99.9712520  26.5669620 138.8583810
  98.7156620  25.8495640 138.4103680  87.4890410  29.4923510 125.4753430
  87.8488050  30.0912850 124.8210700  87.3482750  30.0383400 126.2488460
  87.1859680  13.7698110 138.9629300  86.4718200  13.9695030 139.5681910
  87.6054720  12.9937680 139.3344100 101.2890630  23.3828590 126.3623130
 101.0012330  23.8441280 127.1501010 102.0842800  22.9226360 126.6307350
  87.4732270  27.7578370 139.9495830  87.5823390  26.8173110 139.8091220
  86.8212830  28.0233120 139.3009560  95.4644860  26.0294260 141.3493950
  95.1441730  25.3103500 141.8939640  94.7903220  26.7049330 141.4230010
  93.5059030  26.8754710 126.2927100  93.4969130  27.6084400 125.6771610
  92.5857390  26.6286290 126.3854060  89.1065670  22.0969600 127.0373860
  88.4993620  22.8368500 127.0469160  89.5815020  22.1868960 126.2112060
  98.6798460  16.2620420 136.7130750  99.0479280  15.4415630 137.0410320
  97.8196660  16.3222310 137.1286400 102.0460490  15.2177360 127.5218310
 101.4173650  15.3223030 126.8076540 101.5512410  15.4374140 128.3112190
  96.4918630  26.9382950 124.9552290  96.5930610  26.7346940 124.0254270
  95.5920370  26.6841230 125.1600070  94.0144520  17.4963310 128.9376190
  93.3060670  17.9649650 129.3789800  94.2989000  16.8385320 129.5721380
  95.6400450  18.9160010 136.9368720  96.1385700  19.3905830 137.6020570
  95.7823400  17.9923530 137.1438750  98.0459950  14.2213970 130.3771980
  97.9227730  14.2400100 129.4281490  98.9944510  14.2692910 130.4970380
  95.1336740  29.4569270 129.6499960  95.3878240  29.4190660 128.7279330
  94.1849220  29.3302600 129.6428210  92.2179540  15.8048390 126.3126900
  93.0670070  16.2418540 126.2467090  91.8510810  16.1168650 127.1398960
 102.8467310  15.1327970 137.7797110 102.3440910  15.8733370 138.1190920
 103.6623970  15.5211970 137.4633900 101.1389320  20.3761150 131.2258470
 100.1979460  20.3911380 131.4006160 101.4533390  19.5897110 131.6718770
  91.1170960  22.0580750 124.7862430  91.8834230  21.9462110 125.3487860
  91.1945650  21.3618720 124.1339200  89.8117720  19.4905820 125.4695320
  89.8921310  18.5433330 125.5812720  90.7037470  19.8212700 125.5755980
 103.1414900  27.5470000 132.9012730 103.2662320  28.3701170 133.3736540
 104.0080460  27.3360730 132.5536880  90.6132430  29.6401210 132.5729860
  91.3494910  29.0916670 132.8438430  90.9973350  30.5057220 132.4335850
  87.4977910  25.7074780 128.4471370  86.5717690  25.9495920 128.4376780
  87.9634340  26.5349040 128.3256120  89.6190710  28.8247280 141.7615440
  90.4203440  29.1459330 142.1750840  89.1042530  28.4642860 142.4835350
  93.7234740  28.8131520 124.3955430  94.5163350  29.1020350 123.9437220
  93.2039090  28.3823690 123.7167910  98.4555340  24.9327150 141.7090850
  97.8493500  24.9558750 140.9686600  98.1509450  24.2010190 142.2458100
  99.8855710  28.6607440 140.3200260 100.8377460  28.5765460 140.2700500
  99.7383930  29.3249150 140.9934050 102.7764910  28.0401650 125.8192170
 102.4906420  27.6266790 125.0046350 102.5784460  28.9689360 125.6992690
  87.3388520  21.3120740 140.7051490  87.8427540  20.7328020 141.2767720
  86.5995940  21.5960970 141.2427860  94.2412140  24.0334930 124.2597780
  94.1362780  23.4187280 124.9859160  94.0736360  23.5100820 123.4760790
  94.3926460  22.7191730 140.2387010  93.6272130  23.2876730 140.1541680
  94.5742420  22.4267940 139.3455240  97.4814870  23.0954960 124.8639770
  96.9324970  23.5424260 125.5082510  98.1034130  22.5904210 125.3877440
 101.5349810  24.4497060 140.7962030 102.2759280  24.7872820 140.2929490
 100.7722490  24.6189120 140.2431800  89.3711600  19.4550330 141.6001560
  89.4116940  19.1564200 142.5086790  90.2257100  19.8557940 141.4409080
  93.1489990  22.0545880 126.7605070  93.5706410  21.8885750 127.6036460
  93.2740830  21.2446110 126.2660210  91.3117410  18.0342430 139.5676050
  90.7813870  17.5433380 138.9399390  91.9805480  18.4626630 139.0333980
  95.6617630  21.0783490 124.0082170  96.1823290  20.3632510 123.6423320
  96.3086030  21.7169360 124.3082680 100.2095470  22.5011890 139.3317240
 100.6236490  22.6556970 140.1807660  99.2746470  22.6267110 139.4943020
 100.6817640  19.8408050 141.3356390 101.2638410  19.0860370 141.2476870
 100.8579410  20.3715490 140.5587870  91.7989710  15.0004800 139.6473340
  91.7046580  14.3825550 138.9224210  91.2187100  15.7271090 139.4203250
  94.5651150  13.5578040 136.6800730  94.1168450  13.5802300 135.8346280
  93.9316350  13.1597060 137.2771030  94.9710700  22.4532370 137.3013170
  95.3898810  23.2965100 137.1289410  94.0519330  22.5904410 137.0719950
  97.3074600  20.1848550 138.6851010  97.4270810  19.5889690 139.4245850
  98.1668600  20.2218240 138.2652310  99.6462500  20.7385740 137.2613520
  99.1197720  21.2628360 136.6578660  99.9893840  21.3713130 137.8923250
  92.0448890  18.1279110 123.7063230  91.8437950  17.2646470 124.0676570
  91.8740940  18.0412470 122.7684830  92.8218120  28.7585380 138.4170900
  92.2839210  29.4831440 138.0979600  93.0752080  28.2815720 137.6268240
  94.0743370  16.7269900 139.9426830  94.6643060  16.4185750 140.6304650
  93.2563610  16.2549650 140.0986730  98.8936800  16.3435710 140.1759850
  98.2052320  15.6817250 140.1109840  99.6142820  15.8973980 140.6208310
  99.5237200  12.9387340 126.2350110  99.8039490  12.0955240 126.5909530
  98.7502930  13.1710450 126.7488860  90.8431690  15.2279730 123.6941110
  91.1457590  15.2347160 122.7860260  91.5826280  14.8777590 124.1908770
  95.6780330  29.9936590 138.6757550  95.6039030  30.8971730 138.9829920
  94.7759170  29.6748490 138.6479620  94.0616620  14.1714350 124.6797310
  93.7138620  13.4938340 124.0999760  94.2629390  13.7103860 125.4940700
  96.2265660  29.1595100 126.2983910  97.1216450  29.4980070 126.3202670
  96.2583290  28.4374510 125.6708190  89.8661820  24.5322150 124.5270910
  90.3036690  25.0751820 125.1828490  90.3509550  23.7069100 124.5367250
  87.0807620  27.3211180 131.9791170  87.4110630  26.4532240 131.7469810
  87.5098620  27.5269700 132.8096130  91.6769540  25.6520190 129.6393140
  91.3765080  25.5285160 130.5397050  91.5707030  24.7928780 129.2308870
  87.5697830  28.1881770 134.7172800  87.1328820  28.3682570 135.5496950
  88.1375510  28.9456390 134.5754520 103.2060010  27.6898770 139.0050110
 102.6062000  27.7491330 138.2614030 103.3353910  26.7503750 139.1346960
 104.4461460  25.4316590 124.3419820 103.6154420  25.4993240 124.8127050
 104.6233290  26.3220710 124.0386680 103.9017920  22.1764070 126.8454020
 104.6636830  22.7460720 126.9513710 103.9172290  21.6091270 127.6162330
  87.4022260  20.7002000 131.0761680  86.7471100  20.4313640 130.4321380
  88.2400210  20.5906480 130.6263660 104.9077890  23.0314170 131.6895950
 105.2786720  22.2481490 131.2831920 105.5479820  23.7203270 131.5113250
 101.8911650  24.4150750 137.1026270 101.0771490  24.8447910 137.3652060
 102.2985850  25.0269160 136.4895320 103.9537090  22.4698440 124.0026540
 104.2285930  23.3777320 123.8745760 103.7647830  22.4060970 124.9388530
 100.3512700  15.4943290 125.2980170 100.7697580  15.3074270 124.4576830
 100.0448760  14.6422340 125.6083100 103.8502430  20.4067430 128.9955970
 103.4746030  19.6395360 128.5637260 103.1205550  20.7890130 129.4830900
  88.4398190  21.0854570 135.6165020  88.8071230  20.9981970 136.4961040
  87.8709010  20.3221120 135.5171880 103.2402050  19.5538950 138.6295490
 103.0088140  19.3251700 137.7293440 103.5006600  20.4738500 138.5840380
  87.9914190  17.9963660 139.5223440  87.0970240  17.9630420 139.8617150
  88.5311740  18.1950450 140.2874690 101.6790120  14.7795380 141.4075190
 102.5560300  14.7878780 141.7909190 101.6910960  14.0426220 140.7967540
  86.6160340  17.9100930 127.0187010  85.7124420  18.1731130 126.8438670
  87.1000960  18.1812100 126.2386970 103.1253390  18.6324920 132.2963210
 103.6490870  18.1387570 131.6653380 103.7112810  18.7675280 133.0410780
 103.3043110  18.7164790 135.8182760 102.3545820  18.6828330 135.9327750
 103.4856120  19.6264900 135.5832530  89.1587550  16.9666470 124.9281390
  89.8679250  16.5449690 124.4428670  88.4427490  17.0341700 124.2964740
  88.8061710  13.0205800 123.9684040  89.5289840  13.5614740 124.2865260
  89.0786230  12.7469220 123.0925580 102.6153360  17.8898270 128.2355620
 103.1112480  17.6569140 129.0204500 102.4169430  17.0510110 127.8193260
  88.4953900  12.2711990 133.8706660  89.1430090  11.7209370 133.4301820
  88.9155740  12.5255140 134.6922470 104.0440520  16.5259220 130.7693300
 103.9339800  16.3715260 131.7075570 104.8048110  15.9980160 130.5268710
 102.3906240  12.4653350 137.2276300 103.0278460  13.0787490 137.5935490
 102.5381130  12.5014010 136.2825530 104.9330790  14.3567140 124.0099440
 105.8580100  14.2248320 123.8017730 104.9106580  14.4359960 124.9635890
 105.0069280  15.1277800 126.6356150 104.2120780  15.0622920 127.1649060
 105.2112560  16.0628440 126.6241500 101.9487700  29.1669350 130.6294540
 102.5446770  28.8453920 129.9528960 102.2065850  28.6941170 131.4207810
  88.2485900  12.4267660 136.6131980  87.9000720  12.8831480 137.3790160
  87.9173600  11.5324790 136.6954410  89.8550270  25.5987260 140.7785170
  89.8119900  25.2280170 141.6599630  89.9861280  26.5364830 140.9186990
  93.5556300  27.1546850 136.3794890  93.3147660  27.4221410 135.4925410
  94.4958940  27.3252580 136.4345750  95.7610720  13.6179540 140.1351400
  95.6999610  14.2101370 140.8846810  96.7011100  13.5105500 139.9901660
  98.3985280  13.2749600 139.7743690  99.0125690  13.5928890 139.1124770
  98.9434840  12.7898190 140.3939550 104.8160460  29.1741230 137.1805530
 104.3218740  29.5710100 136.4632660 104.2073750  28.5490440 137.5742810
  88.9206540  11.9543860 139.8882750  89.4689530  11.7731910 139.1248860
  88.9861850  11.1637970 140.4239060  89.6938300  28.5449510 137.8982950
  89.0998620  28.4134210 138.6372990  89.6862140  27.7087650 137.4325050
  99.1393320  11.8381740 136.1012980  98.2653160  12.1716850 135.8985910
  99.0304070  11.3654920 136.9264850 100.0465300  14.0452610 137.4854700
  99.7178660  13.2304370 137.1056430 100.9947600  14.0022420 137.3620390
 102.4999910  29.8164650 134.4592270 102.0402880  30.5680460 134.0850290
 101.8712370  29.0971120 134.4007070  89.3250530  25.9107890 136.8490990
  88.5984590  25.2913180 136.7816940  89.3859680  26.3048500 135.9789070
  92.9295630  28.1252890 133.6340400  93.4460650  27.5140250 133.1088660
  93.5793010  28.6281670 134.1251410  95.6691130  29.0161380 134.4609380
  95.9568940  28.7615680 133.5842390  96.1814350  28.4638740 135.0514950
  96.8868140  12.7551580 135.0405890  96.1039930  13.2297080 135.3202650
  96.5931070  11.8506410 134.9319070 101.4389210  13.4574680 133.0854980
 101.8797300  13.4019780 132.2376580 101.1696800  14.3732690 133.1565160
 103.3027780  13.0889920 131.0963800 103.2416180  12.1451140 130.9494820
 104.0819810  13.1970010 131.6417260  87.6080530  29.2282280 130.0587750
  87.4402570  28.5952960 130.7569640  86.7415040  29.4341680 129.7081940
  88.2308550  13.0599060 127.5619610  88.9887910  13.1727940 126.9883640
  87.7685720  13.8968260 127.5163040  94.7722360  15.1738330 130.5521920
  93.9596870  14.7995220 130.2117800  95.2764000  14.4183410 130.8543110
  99.2747340  11.8380780 131.7904990  99.8776710  12.4100990 132.2653510
  98.5340330  12.4020220 131.5678890 102.4181940  12.2402340 127.0645270
 102.6132570  13.1385790 127.3312700 101.6311810  12.0089420 127.5578220
  89.2143230  27.9215510 127.5037890  88.6890850  28.3023540 126.7999850
  89.1387810  28.5466280 128.2247600  90.6033700  13.5863110 126.1021580
  91.1326460  12.7992910 125.9729530  91.2362020  14.2654300 126.3357110
  92.7971540  13.3238250 129.1566970  92.1674280  12.6225560 129.3237100
  92.2576680  14.0842380 128.9400130  95.7363490  29.9377480 141.8277580
  96.6630800  29.7021750 141.8713540  95.7213920  30.7649480 141.3463610
 103.9708550  29.4803050 128.8251830 104.1460740  28.7940790 128.1812750
 103.2730120  30.0050100 128.4328500  92.9227100  12.6022230 141.5919460
  92.6411370  13.1055830 140.8280280  93.3046800  11.8043980 141.2261590
  91.8136200  29.8697890 126.3787140  92.5455020  29.5857170 125.8311030
  92.0729870  29.6311170 127.2686520  90.9750990  25.9862620 126.3833470
  90.3459870  26.4547720 126.9319300  91.0898820  25.1411840 126.8179660
  99.5242560  12.0175810 142.1699930  99.4108010  12.3370420 143.0651450
 100.3412300  12.4188320 141.8737210 102.3041050  29.1647340 141.6518620
 103.0966370  28.6696570 141.4444580 102.5974200  29.8437480 142.2594230
  98.4300710  20.0368280 112.5334670  98.3494760  19.1222890 112.2626380
  98.0165130  20.5335350 111.8274380  96.5618750  21.8147300 114.4143940
  95.7860850  21.3347740 114.7042510  97.2131680  21.1352950 114.2400100
  90.5784580  22.1267110 115.2919700  89.7469460  21.8715820 115.6916210
  91.1865560  22.1977880 116.0277620 100.5826180  26.2207490 113.1943070
 100.1207710  25.4494730 113.5230240 101.3951730  26.2473560 113.6995520
  90.5585840  26.1607200 115.4877720  90.8613880  25.2704940 115.3087940
  91.3029430  26.7177420 115.2599970  88.9876530  17.0869000 109.0762090
  88.0993230  17.4284970 108.9741970  89.2717720  16.8869320 108.1842920
  86.9509540  19.6874650 114.9601790  87.5225650  18.9196850 114.9605430
  86.9511080  19.9863410 114.0508400  96.8089490  28.5065500 112.8147060
  96.1900930  28.9623000 112.2441500  97.6641270  28.6616960 112.4136760
  96.0027740  24.4904490 114.4214100  95.9336020  23.5494430 114.2603230
  96.7647600  24.5805900 114.9936670  88.1934410  15.0959010 116.7470720
  88.0137250  14.1984760 117.0273480  87.7914490  15.6430880 117.4217670
  97.0332910  17.2974870 114.6483030  97.4097730  16.4246750 114.5356700
  96.9352420  17.6333570 113.7573470  91.1637920  15.6700500 110.1100470
  91.2704670  16.5704230 110.4169230  90.2530280  15.6218470 109.8195120
 100.8157030  14.7925310 111.5811370 101.6366650  14.3021880 111.6236850
 100.8491110  15.3822970 112.3343210  88.8121080  17.5919510 115.3553060
  89.4931190  17.8557880 115.9740460  88.4969130  16.7520380 115.6891070
  93.0045650  18.6386870 114.4425650  93.5123870  19.1367840 115.0830670
  93.5358890  17.8622070 114.2665010 105.1056580  16.8092060 118.1455000
 104.4008750  17.1973770 117.6270110 105.3714500  17.5042350 118.7475930
  91.2881750  13.2785430 118.7089070  91.2900190  13.7957820 117.9034970
  90.4586060  12.8015610 118.6859000  97.6752840  23.3904740 110.2078970
  97.0570110  23.8554190 109.6441690  98.1876090  24.0832220 110.6248480
  92.5384600  22.9180610 116.8862570  92.2053980  23.5449530 117.5283640
  92.7151280  23.4442490 116.1064240 101.0518510  16.7325690 114.3538910
 100.3474080  17.0210580 114.9342020 101.4130670  17.5425800 113.9938470
  90.9697080  14.9895390 116.7159520  91.3113890  15.8337440 116.4213390
  90.0312890  15.1379130 116.8324860  91.7503700  24.8861410 118.7011750
  92.3677700  25.5612490 118.4196200  90.8896820  25.2949390 118.6099250
 102.6681290  26.3500820 116.6166390 101.9844810  27.0199930 116.6083060
 103.2075580  26.5481470 115.8511250 104.1205430  16.1780480 114.7448120
 103.1730340  16.2119460 114.8763550 104.4455420  16.9919430 115.1297480
  94.6524970  12.4777660 113.0404110  94.9599950  11.9224550 112.3239610
  93.7225670  12.6122120 112.8577100 100.2040030  28.1944950 115.3311570
 100.2167190  27.7907240 114.4633830  99.6515250  28.9692240 115.2273000
 101.4985450  24.9161170 110.4201740 101.3881780  23.9735500 110.5451160
 101.4953700  25.2776810 111.3064500  99.6025470  23.0974790 116.6594180
 100.0194260  22.8834900 115.8247640 100.3265290  23.3547580 117.2302800
  97.0405730  20.5426490 109.7764230  96.1135010  20.4763870 110.0052700
  97.1930550  21.4806620 109.6619470  97.0274810  16.8143490 106.7731390
  96.0878480  16.9757450 106.8583850  97.3458070  17.5329170 106.2267380
 103.5487570  21.4962010 116.7510420 102.7206200  21.5655100 116.2760550
 104.1438050  22.0816320 116.2826250 101.0703020  22.1046790 110.2799480
 100.4515440  21.7666340 109.6325780 101.0527470  21.4606550 110.9878670
 100.5129580  18.2831330 117.6965290 100.1000760  19.1085040 117.9505280
  99.7805530  17.6976370 117.5041650  92.6462370  21.0691230 112.5583960
  92.2419370  20.3568480 112.0629860  92.7325490  20.7244470 113.4472000
  93.1144070  24.7558790 114.7223170  92.8172360  24.1504260 114.0430950
  94.0643890  24.7936100 114.6112530  91.3590990  17.8434440 116.3383000
  91.9105580  17.9529780 115.5636250  91.8734500  18.2172040 117.0538230
 101.2029680  28.3290660 118.3846270 100.7260240  29.1362850 118.1918880
 100.5191470  27.6768990 118.5372480  92.2062500  24.4940480 121.3730970
  91.3091030  24.7180450 121.6204370  92.2315370  24.6175420 120.4242370
  99.2467720  21.3433600 107.2872230  99.6861000  20.5056030 107.1410050
  99.9596140  21.9763000 107.3736370  91.0333720  21.3653800 119.9488340
  90.8941490  22.2376600 120.3175740  90.1515080  21.0226610 119.8036280
  97.3563100  26.2829670 111.2553470  97.7959010  27.0254000 110.8408860
  97.2949990  26.5256240 112.1792430  92.8314070  27.3075500 122.1573490
  92.8029500  27.7118450 121.2901920  92.6679040  26.3785860 121.9945090
 102.8284860  12.5976410 105.6013270 102.5157520  12.6903240 106.5012340
 103.5897330  13.1757440 105.5510700 104.7828890  28.0902600 123.4537660
 105.2588610  28.5685490 124.1326740 105.4036050  28.0220090 122.7283160
  86.9852370  23.1351350 115.8659250  87.0632790  23.2700120 114.9214970
  87.5994050  22.4267240 116.0587370 104.1862140  25.2815450 120.6137670
 104.3125200  25.0427330 119.6954850 104.2283520  24.4499990 121.0859750
  98.0478880  28.9843450 119.1832480  98.5623550  28.8951460 119.9854910
  97.2047960  29.3303150 119.4760390 100.0233280  29.2698790 108.6116480
  99.8634420  28.9801730 109.5098310  99.8579990  28.4938920 108.0761710
  92.5021660  29.0497320 110.3888100  92.3264140  28.1332860 110.1755900
  91.6477400  29.4084610 110.6285900  99.7259410  26.7786350 107.1714480
  99.0324570  26.7763640 106.5116760 100.4682270  26.3545670 106.7408650
  99.2909340  28.4049060 111.2462970  99.7466290  27.6238440 111.5601590
  99.6301860  29.1155880 111.7904150 104.0386150  17.3347910 121.5787410
 103.4230420  17.8427580 121.0502870 103.7182570  16.4346240 121.5213350
  87.0411890  24.1765520 118.4053710  87.2042930  23.7070880 117.5873080
  87.5064340  23.6689080 119.0702550  91.8130660  13.3071280 113.4414280
  91.3698810  14.0880820 113.1098800  92.3715650  13.6301170 114.1485220
  96.1000470  16.1739800 119.0449600  95.6379840  16.3822820 119.8569540
  95.6978580  15.3599150 118.7420270 101.1004980  17.3948750 120.1746260
 100.2498570  17.0954500 120.4955330 100.9406770  17.6390760 119.2630080
  98.1954690  18.8950500 122.2745050  98.5208100  18.0614250 121.9347280
  98.9835020  19.4179020 122.4223380  94.9289480  12.9281980 108.3220110
  94.3043660  12.9241850 109.0473420  94.8419600  12.0612940 107.9256080
  93.8506560  13.8518610 115.3003880  94.1478890  14.7581440 115.2195900
  94.3992120  13.3637390 114.6863450  91.6044880  18.4304850 111.1695530
  91.3785800  18.2142020 112.0742150  90.8237410  18.8633310 110.8241500
  98.8342640  18.4368220 109.7686180  98.2351530  19.1604020 109.5849800
  99.3822250  18.3745000 108.9862630  94.0444090  19.3290430 121.8355800
  93.9487690  18.3885160 121.6856200  94.8876070  19.5505500 121.4403870
  97.4407510  17.0731760 111.7989460  97.8337080  17.3903960 110.9858150
  97.8024360  16.1943640 111.9133980  89.1754630  15.7404100 119.9889580
  88.7818020  16.5879310 120.1962360  88.4873030  15.1030470 120.1798220
  95.7499680  15.8239070 123.0586320  95.0598000  15.6311270 123.6932410
  96.4931980  16.1073710 123.5910620  86.4771680  13.6632560 114.0219660
  86.1884730  14.2335420 114.7344640  87.2217440  13.1837010 114.3850890
  86.6641910  17.6052680 105.2322380  86.5816580  18.5483440 105.3737370
  86.3124970  17.4627590 104.3534730  98.0262650  19.6637510 115.8940240
  97.2943770  20.1724320 116.2430340  97.6286990  18.8467490 115.5929020
  94.4640040  16.3391710 114.2992730  94.4676100  15.8981660 113.4497270
  95.3591160  16.6609040 114.4064550  90.3142420  16.2218200 113.2586940
  89.9742470  16.6993430 114.0153990  89.5519740  15.7683320 112.8988040
  94.5260190  17.3403790 107.2899490  94.6473010  17.2990270 108.2385310
  94.1408700  18.2027940 107.1346220  98.4888560  15.1171190 115.3063180
  98.5061300  15.5679840 116.1505030  98.2404140  14.2176830 115.5196620
  93.5381690  19.6504930 106.6882790  92.9698590  19.2023180 106.0618700
  94.2470690  20.0097710 106.1547940 101.9159310  12.5303370 121.1449560
 102.2405080  11.7993030 121.6707540 101.9515820  12.2117010 120.2430550
  88.6150870  23.5516950 120.5649520  88.2305660  22.9110620 121.1632480
  88.9263060  24.2553070 121.1344250  94.7648010  20.3993490 116.0458140
  95.1318140  19.9252060 116.7919480  94.5753070  21.2735060 116.3866480
  87.6288500  15.1437180 112.1751610  87.3435420  14.7792850 113.0130230
  87.5667360  14.4117640 111.5614750  92.5547380  19.4402130 118.3642350
  92.2504450  20.3194110 118.5892710  93.5093840  19.5001920 118.3999790
 101.8417150  22.6428480 114.7535590 102.5616270  23.1383770 114.3631700
 101.6398970  21.9646370 114.1089460  97.3027090  14.0366440 108.8964980
  96.4891700  13.5379610 108.8210290  97.1089040  14.8764690 108.4801330
  97.2235950  22.7137540 120.6404590  97.1573260  21.7933210 120.3862180
  96.5941090  22.8112980 121.3549230 100.0175480  18.4086090 107.1927140
 100.9055100  18.7203320 107.0178480  99.9880570  17.5358340 106.8007720
  91.1266570  23.3143500 112.5988010  91.6445240  22.5111760 112.5444900
  90.6750590  23.2522640 113.4404840  96.0136070  24.5809780 107.8715310
  96.3551770  25.3252010 107.3758630  95.1848780  24.8940900 108.2340140
  88.6111110  20.2804870 119.5113710  88.2526050  20.9458720 120.0987050
  88.3165670  19.4488420 119.8826330  91.8124230  20.7389110 122.3953260
  91.5124370  20.8846290 121.4981080  92.5835470  20.1794400 122.3026650
  97.1552680  25.5358110 120.3908390  97.1697220  24.6039070 120.1727300
  96.4477780  25.6217870 121.0298160 102.2889750  19.7197930 106.6607000
 102.2053470  20.1512150 105.8103440 103.0083940  20.1796280 107.0933820
 103.3663890  22.1765450 119.7376970 102.6412080  22.7694230 119.5406360
 103.8939350  22.1688990 118.9390340 103.3177000  26.5740190 109.3889130
 102.6753160  25.9195810 109.6632850 102.9307660  26.9795280 108.6129800
  98.8963480  23.9025620 113.2360820  99.2487300  23.3053750 112.5762190
  98.0125810  23.5769850 113.4069070  94.9826760  24.6623310 110.6431230
  95.6697890  25.2092520 111.0238820  94.1959180  25.2064040 110.6780840
  87.1219160  20.2796130 106.1348310  87.9914010  20.5620930 106.4184230
  86.6309480  21.0932000 106.0197120  94.2853970  21.6669340 110.2556590
  94.7416750  22.4774590 110.4816780  93.9342180  21.3492480 111.0875080
  96.5886580  27.1775680 117.4848890  97.2328800  27.3835060 118.1622310
  96.9516020  26.4164080 117.0319740  90.1865750  12.0106990 110.7279110
  90.0580380  12.0024890 111.6764030  89.3627770  12.3490080 110.3770120
  97.8618660  25.1808030 116.2026340  98.5040890  24.4801190 116.3158510
  98.3868010  25.9606470 116.0223230 101.7074380  25.4656650 105.9265480
 101.4811960  24.7487090 106.5190120 101.3170580  25.2169090 105.0887230
  99.6356280  25.9802930 119.4062400  99.9712520  26.5669620 120.0840320
  98.7156620  25.8495640 119.6360190  87.4890410  29.4923510 106.7009940
  87.8488050  30.0912850 106.0467210  87.3482750  30.0383400 107.4744970
  87.1859680  13.7698110 120.1885810  86.4718200  13.9695030 120.7938420
  87.6054720  12.9937680 120.5600610 101.2890630  23.3828590 107.5879640
 101.0012330  23.8441280 108.3757520 102.0842800  22.9226360 107.8563860
  87.4732270  27.7578370 121.1752340  87.5823390  26.8173110 121.0347730
  86.8212830  28.0233120 120.5266070  95.4644860  26.0294260 122.5750460
  95.1441730  25.3103500 123.1196150  94.7903220  26.7049330 122.6486520
  98.6798460  16.2620420 117.9387260  99.0479280  15.4415630 118.2666830
  97.8196660  16.3222310 118.3542910 102.0460490  15.2177360 108.7474820
 101.4173650  15.3223030 108.0333050 101.5512410  15.4374140 109.5368700
  94.0144520  17.4963310 110.1632700  93.3060670  17.9649650 110.6046310
  94.2989000  16.8385320 110.7977890  95.6400450  18.9160010 118.1625230
  96.1385700  19.3905830 118.8277080  95.7823400  17.9923530 118.3695260
  98.0459950  14.2213970 111.6028490  97.9227730  14.2400100 110.6538000
  98.9944510  14.2692910 111.7226890  95.1336740  29.4569270 110.8756470
  95.3878240  29.4190660 109.9535840  94.1849220  29.3302600 110.8684720
  92.2179540  15.8048390 107.5383410  93.0670070  16.2418540 107.4723600
  91.8510810  16.1168650 108.3655470 102.8467310  15.1327970 119.0053620
 102.3440910  15.8733370 119.3447430 103.6623970  15.5211970 118.6890410
 101.1389320  20.3761150 112.4514980 100.1979460  20.3911380 112.6262670
 101.4533390  19.5897110 112.8975280 103.1414900  27.5470000 114.1269240
 103.2662320  28.3701170 114.5993050 104.0080460  27.3360730 113.7793390
  90.6132430  29.6401210 113.7986370  91.3494910  29.0916670 114.0694940
  90.9973350  30.5057220 113.6592360  89.6190710  28.8247280 122.9871950
  90.4203440  29.1459330 123.4007350  89.1042530  28.4642860 123.7091860
  98.4555340  24.9327150 122.9347360  97.8493500  24.9558750 122.1943110
  98.1509450  24.2010190 123.4714610  99.8855710  28.6607440 121.5456770
 100.8377460  28.5765460 121.4957010  99.7383930  29.3249150 122.2190560
 102.7764910  28.0401650 107.0448680 102.4906420  27.6266790 106.2302860
 102.5784460  28.9689360 106.9249200  87.3388520  21.3120740 121.9308000
  87.8427540  20.7328020 122.5024230  86.5995940  21.5960970 122.4684370
  94.2412140  24.0334930 105.4854290  94.1362780  23.4187280 106.2115670
  94.0736360  23.5100820 104.7017300  94.3926460  22.7191730 121.4643520
  93.6272130  23.2876730 121.3798190  94.5742420  22.4267940 120.5711750
  97.4814870  23.0954960 106.0896280  96.9324970  23.5424260 106.7339020
  98.1034130  22.5904210 106.6133950 101.5349810  24.4497060 122.0218540
 102.2759280  24.7872820 121.5186000 100.7722490  24.6189120 121.4688310
  89.3711600  19.4550330 122.8258070  89.4116940  19.1564200 123.7343300
  90.2257100  19.8557940 122.6665590  91.3117410  18.0342430 120.7932560
  90.7813870  17.5433380 120.1655900  91.9805480  18.4626630 120.2590490
  95.6617630  21.0783490 105.2338680  96.1823290  20.3632510 104.8679830
  96.3086030  21.7169360 105.5339190 100.2095470  22.5011890 120.5573750
 100.6236490  22.6556970 121.4064170  99.2746470  22.6267110 120.7199530
 100.6817640  19.8408050 122.5612900 101.2638410  19.0860370 122.4733380
 100.8579410  20.3715490 121.7844380  91.7989710  15.0004800 120.8729850
  91.7046580  14.3825550 120.1480720  91.2187100  15.7271090 120.6459760
  94.5651150  13.5578040 117.9057240  94.1168450  13.5802300 117.0602790
  93.9316350  13.1597060 118.5027540  94.9710700  22.4532370 118.5269680
  95.3898810  23.2965100 118.3545920  94.0519330  22.5904410 118.2976460
  97.3074600  20.1848550 119.9107520  97.4270810  19.5889690 120.6502360
  98.1668600  20.2218240 119.4908820  99.6462500  20.7385740 118.4870030
  99.1197720  21.2628360 117.8835170  99.9893840  21.3713130 119.1179760
  92.0448890  18.1279110 104.9319740  91.8437950  17.2646470 105.2933080
  91.8740940  18.0412470 103.9941340  92.8218120  28.7585380 119.6427410
  92.2839210  29.4831440 119.3236110  93.0752080  28.2815720 118.8524750
  94.0743370  16.7269900 121.1683340  94.6643060  16.4185750 121.8561160
  93.2563610  16.2549650 121.3243240  98.8936800  16.3435710 121.4016360
  98.2052320  15.6817250 121.3366350  99.6142820  15.8973980 121.8464820
  99.5237200  12.9387340 107.4606620  99.8039490  12.0955240 107.8166040
  98.7502930  13.1710450 107.9745370  90.8431690  15.2279730 104.9197620
  91.1457590  15.2347160 104.0116770  91.5826280  14.8777590 105.4165280
  95.6780330  29.9936590 119.9014060  95.6039030  30.8971730 120.2086430
  94.7759170  29.6748490 119.8736130  94.0616620  14.1714350 105.9053820
  93.7138620  13.4938340 105.3256270  94.2629390  13.7103860 106.7197210
  96.2265660  29.1595100 107.5240420  97.1216450  29.4980070 107.5459180
  96.2583290  28.4374510 106.8964700  87.5697830  28.1881770 115.9429310
  87.1328820  28.3682570 116.7753460  88.1375510  28.9456390 115.8011030
 103.2060010  27.6898770 120.2306620 102.6062000  27.7491330 119.4870540
 103.3353910  26.7503750 120.3603470 104.4461460  25.4316590 105.5676330
 103.6154420  25.4993240 106.0383560 104.6233290  26.3220710 105.2643190
 103.9017920  22.1764070 108.0710530 104.6636830  22.7460720 108.1770220
 103.9172290  21.6091270 108.8418840  87.4022260  20.7002000 112.3018190
  86.7471100  20.4313640 111.6577890  88.2400210  20.5906480 111.8520170
 104.9077890  23.0314170 112.9152460 105.2786720  22.2481490 112.5088430
 105.5479820  23.7203270 112.7369760 101.8911650  24.4150750 118.3282780
 101.0771490  24.8447910 118.5908570 102.2985850  25.0269160 117.7151830
 103.9537090  22.4698440 105.2283050 104.2285930  23.3777320 105.1002270
 103.7647830  22.4060970 106.1645040 100.3512700  15.4943290 106.5236680
 100.7697580  15.3074270 105.6833340 100.0448760  14.6422340 106.8339610
 103.8502430  20.4067430 110.2212480 103.4746030  19.6395360 109.7893770
 103.1205550  20.7890130 110.7087410  88.4398190  21.0854570 116.8421530
  88.8071230  20.9981970 117.7217550  87.8709010  20.3221120 116.7428390
 103.2402050  19.5538950 119.8552000 103.0088140  19.3251700 118.9549950
 103.5006600  20.4738500 119.8096890  87.9914190  17.9963660 120.7479950
  87.0970240  17.9630420 121.0873660  88.5311740  18.1950450 121.5131200
 101.6790120  14.7795380 122.6331700 102.5560300  14.7878780 123.0165700
 101.6910960  14.0426220 122.0224050  86.6160340  17.9100930 108.2443520
  85.7124420  18.1731130 108.0695180  87.1000960  18.1812100 107.4643480
 103.1253390  18.6324920 113.5219720 103.6490870  18.1387570 112.8909890
 103.7112810  18.7675280 114.2667290 103.3043110  18.7164790 117.0439270
 102.3545820  18.6828330 117.1584260 103.4856120  19.6264900 116.8089040
  89.1587550  16.9666470 106.1537900  89.8679250  16.5449690 105.6685180
  88.4427490  17.0341700 105.5221250  88.8061710  13.0205800 105.1940550
  89.5289840  13.5614740 105.5121770  89.0786230  12.7469220 104.3182090
 102.6153360  17.8898270 109.4612130 103.1112480  17.6569140 110.2461010
 102.4169430  17.0510110 109.0449770  88.4953900  12.2711990 115.0963170
  89.1430090  11.7209370 114.6558330  88.9155740  12.5255140 115.9178980
 104.0440520  16.5259220 111.9949810 103.9339800  16.3715260 112.9332080
 104.8048110  15.9980160 111.7525220 102.3906240  12.4653350 118.4532810
 103.0278460  13.0787490 118.8192000 102.5381130  12.5014010 117.5082040
 104.9330790  14.3567140 105.2355950 105.8580100  14.2248320 105.0274240
 104.9106580  14.4359960 106.1892400 105.0069280  15.1277800 107.8612660
 104.2120780  15.0622920 108.3905570 105.2112560  16.0628440 107.8498010
 101.9487700  29.1669350 111.8551050 102.5446770  28.8453920 111.1785470
 102.2065850  28.6941170 112.6464320  88.2485900  12.4267660 117.8388490
  87.9000720  12.8831480 118.6046670  87.9173600  11.5324790 117.9210920
  89.8550270  25.5987260 122.0041680  89.8119900  25.2280170 122.8856140
  89.9861280  26.5364830 122.1443500  93.5556300  27.1546850 117.6051400
  93.3147660  27.4221410 116.7181920  94.4958940  27.3252580 117.6602260
  95.7610720  13.6179540 121.3607910  95.6999610  14.2101370 122.1103320
  96.7011100  13.5105500 121.2158170  98.3985280  13.2749600 121.0000200
  99.0125690  13.5928890 120.3381280  98.9434840  12.7898190 121.6196060
 104.8160460  29.1741230 118.4062040 104.3218740  29.5710100 117.6889170
 104.2073750  28.5490440 118.7999320  88.9206540  11.9543860 121.1139260
  89.4689530  11.7731910 120.3505370  88.9861850  11.1637970 121.6495570
  89.6938300  28.5449510 119.1239460  89.0998620  28.4134210 119.8629500
  89.6862140  27.7087650 118.6581560  99.1393320  11.8381740 117.3269490
  98.2653160  12.1716850 117.1242420  99.0304070  11.3654920 118.1521360
 100.0465300  14.0452610 118.7111210  99.7178660  13.2304370 118.3312940
 100.9947600  14.0022420 118.5876900 102.4999910  29.8164650 115.6848780
 102.0402880  30.5680460 115.3106800 101.8712370  29.0971120 115.6263580
  89.3250530  25.9107890 118.0747500  88.5984590  25.2913180 118.0073450
  89.3859680  26.3048500 117.2045580  92.9295630  28.1252890 114.8596910
  93.4460650  27.5140250 114.3345170  93.5793010  28.6281670 115.3507920
  95.6691130  29.0161380 115.6865890  95.9568940  28.7615680 114.8098900
  96.1814350  28.4638740 116.2771460  96.8868140  12.7551580 116.2662400
  96.1039930  13.2297080 116.5459160  96.5931070  11.8506410 116.1575580
 101.4389210  13.4574680 114.3111490 101.8797300  13.4019780 113.4633090
 101.1696800  14.3732690 114.3821670 103.3027780  13.0889920 112.3220310
 103.2416180  12.1451140 112.1751330 104.0819810  13.1970010 112.8673770
  88.2308550  13.0599060 108.7876120  88.9887910  13.1727940 108.2140150
  87.7685720  13.8968260 108.7419550  94.7722360  15.1738330 111.7778430
  93.9596870  14.7995220 111.4374310  95.2764000  14.4183410 112.0799620
  99.2747340  11.8380780 113.0161500  99.8776710  12.4100990 113.4910020
  98.5340330  12.4020220 112.7935400 102.4181940  12.2402340 108.2901780
 102.6132570  13.1385790 108.5569210 101.6311810  12.0089420 108.7834730
  90.6033700  13.5863110 107.3278090  91.1326460  12.7992910 107.1986040
  91.2362020  14.2654300 107.5613620  92.7971540  13.3238250 110.3823480
  92.1674280  12.6225560 110.5493610  92.2576680  14.0842380 110.1656640
  95.7363490  29.9377480 123.0534090  96.6630800  29.7021750 123.0970050
  95.7213920  30.7649480 122.5720120 103.9708550  29.4803050 110.0508340
 104.1460740  28.7940790 109.4069260 103.2730120  30.0050100 109.6585010
  92.9227100  12.6022230 122.8175970  92.6411370  13.1055830 122.0536790
  93.3046800  11.8043980 122.4518100  91.8136200  29.8697890 107.6043650
  92.5455020  29.5857170 107.0567540  92.0729870  29.6311170 108.4943030
  99.5242560  12.0175810 123.3956440  99.4108010  12.3370420 124.2907960
 100.3412300  12.4188320 123.0993720 102.3041050  29.1647340 122.8775130
 103.0966370  28.6696570 122.6701090 102.5974200  29.8437480 123.4850740
  96.5618750  21.8147300  95.6400450  95.7860850  21.3347740  95.9299020
  97.2131680  21.1352950  95.4656610 100.5826180  26.2207490  94.4199580
 100.1207710  25.4494730  94.7486750 101.3951730  26.2473560  94.9252030
  90.5585840  26.1607200  96.7134230  90.8613880  25.2704940  96.5344450
  91.3029430  26.7177420  96.4856480  88.9876530  17.0869000  90.3018600
  88.0993230  17.4284970  90.1998480  89.2717720  16.8869320  89.4099430
  96.0027740  24.4904490  95.6470610  95.9336020  23.5494430  95.4859740
  96.7647600  24.5805900  96.2193180  88.1934410  15.0959010  97.9727230
  88.0137250  14.1984760  98.2529990  87.7914490  15.6430880  98.6474180
  97.0332910  17.2974870  95.8739540  97.4097730  16.4246750  95.7613210
  96.9352420  17.6333570  94.9829980  91.1637920  15.6700500  91.3356980
  91.2704670  16.5704230  91.6425740  90.2530280  15.6218470  91.0451630
 100.8157030  14.7925310  92.8067880 101.6366650  14.3021880  92.8493360
 100.8491110  15.3822970  93.5599720  88.8121080  17.5919510  96.5809570
  89.4931190  17.8557880  97.1996970  88.4969130  16.7520380  96.9147580
 105.1056580  16.8092060  99.3711510 104.4008750  17.1973770  98.8526620
 105.3714500  17.5042350  99.9732440  91.2881750  13.2785430  99.9345580
  91.2900190  13.7957820  99.1291480  90.4586060  12.8015610  99.9115510
 101.0518510  16.7325690  95.5795420 100.3474080  17.0210580  96.1598530
 101.4130670  17.5425800  95.2194980  90.9697080  14.9895390  97.9416030
  91.3113890  15.8337440  97.6469900  90.0312890  15.1379130  98.0581370
 104.1205430  16.1780480  95.9704630 103.1730340  16.2119460  96.1020060
 104.4455420  16.9919430  96.3553990  94.6524970  12.4777660  94.2660620
  94.9599950  11.9224550  93.5496120  93.7225670  12.6122120  94.0833610
 100.2040030  28.1944950  96.5568080 100.2167190  27.7907240  95.6890340
  99.6515250  28.9692240  96.4529510 101.4985450  24.9161170  91.6458250
 101.3881780  23.9735500  91.7707670 101.4953700  25.2776810  92.5321010
  97.0274810  16.8143490  87.9987900  96.0878480  16.9757450  88.0840360
  97.3458070  17.5329170  87.4523890 101.0703020  22.1046790  91.5055990
 100.4515440  21.7666340  90.8582290 101.0527470  21.4606550  92.2135180
 100.5129580  18.2831330  98.9221800 100.1000760  19.1085040  99.1761790
  99.7805530  17.6976370  98.7298160  91.3590990  17.8434440  97.5639510
  91.9105580  17.9529780  96.7892760  91.8734500  18.2172040  98.2794740
  99.2467720  21.3433600  88.5128740  99.6861000  20.5056030  88.3666560
  99.9596140  21.9763000  88.5992880  91.0333720  21.3653800 101.1744850
  90.8941490  22.2376600 101.5432250  90.1515080  21.0226610 101.0292790
 102.8284860  12.5976410  86.8269780 102.5157520  12.6903240  87.7268850
 103.5897330  13.1757440  86.7767210 104.7828890  28.0902600 104.6794170
 105.2588610  28.5685490 105.3583250 105.4036050  28.0220090 103.9539670
  88.2300000  24.8351540  93.5021940  87.8228080  24.9766130  92.6475540
  89.1213010  24.5511700  93.2993150 100.0233280  29.2698790  89.8372990
  99.8634420  28.9801730  90.7354820  99.8579990  28.4938920  89.3018220
  99.7259410  26.7786350  88.3970990  99.0324570  26.7763640  87.7373270
 100.4682270  26.3545670  87.9665160 104.0386150  17.3347910 102.8043920
 103.4230420  17.8427580 102.2759380 103.7182570  16.4346240 102.7469860
  91.8130660  13.3071280  94.6670790  91.3698810  14.0880820  94.3355310
  92.3715650  13.6301170  95.3741730  96.1000470  16.1739800 100.2706110
  95.6379840  16.3822820 101.0826050  95.6978580  15.3599150  99.9676780
 101.1004980  17.3948750 101.4002770 100.2498570  17.0954500 101.7211840
 100.9406770  17.6390760 100.4886590  98.1954690  18.8950500 103.5001560
  98.5208100  18.0614250 103.1603790  98.9835020  19.4179020 103.6479890
  94.9289480  12.9281980  89.5476620  94.3043660  12.9241850  90.2729930
  94.8419600  12.0612940  89.1512590  93.8506560  13.8518610  96.5260390
  94.1478890  14.7581440  96.4452410  94.3992120  13.3637390  95.9119960
  94.0444090  19.3290430 103.0612310  93.9487690  18.3885160 102.9112710
  94.8876070  19.5505500 102.6660380  97.4407510  17.0731760  93.0245970
  97.8337080  17.3903960  92.2114660  97.8024360  16.1943640  93.1390490
  89.1754630  15.7404100 101.2146090  88.7818020  16.5879310 101.4218870
  88.4873030  15.1030470 101.4054730  95.7499680  15.8239070 104.2842830
  95.0598000  15.6311270 104.9188920  96.4931980  16.1073710 104.8167130
  86.4771680  13.6632560  95.2476170  86.1884730  14.2335420  95.9601150
  87.2217440  13.1837010  95.6107400  98.0262650  19.6637510  97.1196750
  97.2943770  20.1724320  97.4686850  97.6286990  18.8467490  96.8185530
  94.4640040  16.3391710  95.5249240  94.4676100  15.8981660  94.6753780
  95.3591160  16.6609040  95.6321060  90.3142420  16.2218200  94.4843450
  89.9742470  16.6993430  95.2410500  89.5519740  15.7683320  94.1244550
  98.4888560  15.1171190  96.5319690  98.5061300  15.5679840  97.3761540
  98.2404140  14.2176830  96.7453130 101.9159310  12.5303370 102.3706070
 102.2405080  11.7993030 102.8964050 101.9515820  12.2117010 101.4687060
  94.7648010  20.3993490  97.2714650  95.1318140  19.9252060  98.0175990
  94.5753070  21.2735060  97.6122990  92.5547380  19.4402130  99.5898860
  92.2504450  20.3194110  99.8149220  93.5093840  19.5001920  99.6256300
 101.8417150  22.6428480  95.9792100 102.5616270  23.1383770  95.5888210
 101.6398970  21.9646370  95.3345970  97.3027090  14.0366440  90.1221490
  96.4891700  13.5379610  90.0466800  97.1089040  14.8764690  89.7057840
 100.0175480  18.4086090  88.4183650 100.9055100  18.7203320  88.2434990
  99.9880570  17.5358340  88.0264230  91.8124230  20.7389110 103.6209770
  91.5124370  20.8846290 102.7237590  92.5835470  20.1794400 103.5283160
 103.3177000  26.5740190  90.6145640 102.6753160  25.9195810  90.8889360
 102.9307660  26.9795280  89.8386310  98.8963480  23.9025620  94.4617330
  99.2487300  23.3053750  93.8018700  98.0125810  23.5769850  94.6325580
  90.1865750  12.0106990  91.9535620  90.0580380  12.0024890  92.9020540
  89.3627770  12.3490080  91.6026630  97.8618660  25.1808030  97.4282850
  98.5040890  24.4801190  97.5415020  98.3868010  25.9606470  97.2479740
  87.1859680  13.7698110 101.4142320  86.4718200  13.9695030 102.0194930
  87.6054720  12.9937680 101.7857120  98.6798460  16.2620420  99.1643770
  99.0479280  15.4415630  99.4923340  97.8196660  16.3222310  99.5799420
 102.0460490  15.2177360  89.9731330 101.4173650  15.3223030  89.2589560
 101.5512410  15.4374140  90.7625210  96.4918630  26.9382950  87.4065310
  96.5930610  26.7346940  86.4767290  95.5920370  26.6841230  87.6113090
  94.0144520  17.4963310  91.3889210  93.3060670  17.9649650  91.8302820
  94.2989000  16.8385320  92.0234400  95.6400450  18.9160010  99.3881740
  96.1385700  19.3905830 100.0533590  95.7823400  17.9923530  99.5951770
  98.0459950  14.2213970  92.8285000  97.9227730  14.2400100  91.8794510
  98.9944510  14.2692910  92.9483400  92.2179540  15.8048390  88.7639920
  93.0670070  16.2418540  88.6980110  91.8510810  16.1168650  89.5911980
 102.8467310  15.1327970 100.2310130 102.3440910  15.8733370 100.5703940
 103.6623970  15.5211970  99.9146920 101.1389320  20.3761150  93.6771490
 100.1979460  20.3911380  93.8519180 101.4533390  19.5897110  94.1231790
 103.1414900  27.5470000  95.3525750 103.2662320  28.3701170  95.8249560
 104.0080460  27.3360730  95.0049900  93.7234740  28.8131520  86.8468450
  94.5163350  29.1020350  86.3950240  93.2039090  28.3823690  86.1680930
  98.4555340  24.9327150 104.1603870  97.8493500  24.9558750 103.4199620
  98.1509450  24.2010190 104.6971120 102.7764910  28.0401650  88.2705190
 102.4906420  27.6266790  87.4559370 102.5784460  28.9689360  88.1505710
  94.3926460  22.7191730 102.6900030  93.6272130  23.2876730 102.6054700
  94.5742420  22.4267940 101.7968260  89.3711600  19.4550330 104.0514580
  89.4116940  19.1564200 104.9599810  90.2257100  19.8557940 103.8922100
  91.3117410  18.0342430 102.0189070  90.7813870  17.5433380 101.3912410
  91.9805480  18.4626630 101.4847000 100.6817640  19.8408050 103.7869410
 101.2638410  19.0860370 103.6989890 100.8579410  20.3715490 103.0100890
  91.7989710  15.0004800 102.0986360  91.7046580  14.3825550 101.3737230
  91.2187100  15.7271090 101.8716270  94.5651150  13.5578040  99.1313750
  94.1168450  13.5802300  98.2859300  93.9316350  13.1597060  99.7284050
  94.9710700  22.4532370  99.7526190  95.3898810  23.2965100  99.5802430
  94.0519330  22.5904410  99.5232970  97.3074600  20.1848550 101.1364030
  97.4270810  19.5889690 101.8758870  98.1668600  20.2218240 100.7165330
  92.0448890  18.1279110  86.1576250  91.8437950  17.2646470  86.5189590
  91.8740940  18.0412470  85.2197850  94.0743370  16.7269900 102.3939850
  94.6643060  16.4185750 103.0817670  93.2563610  16.2549650 102.5499750
  98.8936800  16.3435710 102.6272870  98.2052320  15.6817250 102.5622860
  99.6142820  15.8973980 103.0721330  99.5237200  12.9387340  88.6863130
  99.8039490  12.0955240  89.0422550  98.7502930  13.1710450  89.2001880
  90.8431690  15.2279730  86.1454130  91.1457590  15.2347160  85.2373280
  91.5826280  14.8777590  86.6421790  94.0616620  14.1714350  87.1310330
  93.7138620  13.4938340  86.5512780  94.2629390  13.7103860  87.9453720
  87.5697830  28.1881770  97.1685820  87.1328820  28.3682570  98.0009970
  88.1375510  28.9456390  97.0267540 104.9077890  23.0314170  94.1408970
 105.2786720  22.2481490  93.7344940 105.5479820  23.7203270  93.9626270
 100.3512700  15.4943290  87.7493190 100.7697580  15.3074270  86.9089850
 100.0448760  14.6422340  88.0596120 103.8502430  20.4067430  91.4468990
 103.4746030  19.6395360  91.0150280 103.1205550  20.7890130  91.9343920
  87.9914190  17.9963660 101.9736460  87.0970240  17.9630420 102.3130170
  88.5311740  18.1950450 102.7387710 101.6790120  14.7795380 103.8588210
 102.5560300  14.7878780 104.2422210 101.6910960  14.0426220 103.2480560
 103.1253390  18.6324920  94.7476230 103.6490870  18.1387570  94.1166400
 103.7112810  18.7675280  95.4923800 103.3043110  18.7164790  98.2695780
 102.3545820  18.6828330  98.3840770 103.4856120  19.6264900  98.0345550
  89.1587550  16.9666470  87.3794410  89.8679250  16.5449690  86.8941690
  88.4427490  17.0341700  86.7477760  88.8061710  13.0205800  86.4197060
  89.5289840  13.5614740  86.7378280  89.0786230  12.7469220  85.5438600
 102.6153360  17.8898270  90.6868640 103.1112480  17.6569140  91.4717520
 102.4169430  17.0510110  90.2706280  88.4953900  12.2711990  96.3219680
  89.1430090  11.7209370  95.8814840  88.9155740  12.5255140  97.1435490
 104.0440520  16.5259220  93.2206320 103.9339800  16.3715260  94.1588590
 104.8048110  15.9980160  92.9781730 102.3906240  12.4653350  99.6789320
 103.0278460  13.0787490 100.0448510 102.5381130  12.5014010  98.7338550
 104.9330790  14.3567140  86.4612460 105.8580100  14.2248320  86.2530750
 104.9106580  14.4359960  87.4148910 105.0069280  15.1277800  89.0869170
 104.2120780  15.0622920  89.6162080 105.2112560  16.0628440  89.0754520
 101.9487700  29.1669350  93.0807560 102.5446770  28.8453920  92.4041980
 102.2065850  28.6941170  93.8720830  88.2485900  12.4267660  99.0645000
  87.9000720  12.8831480  99.8303180  87.9173600  11.5324790  99.1467430
  95.7610720  13.6179540 102.5864420  95.6999610  14.2101370 103.3359830
  96.7011100  13.5105500 102.4414680  98.3985280  13.2749600 102.2256710
  99.0125690  13.5928890 101.5637790  98.9434840  12.7898190 102.8452570
 104.8160460  29.1741230  99.6318550 104.3218740  29.5710100  98.9145680
 104.2073750  28.5490440 100.0255830  88.9206540  11.9543860 102.3395770
  89.4689530  11.7731910 101.5761880  88.9861850  11.1637970 102.8752080
  99.1393320  11.8381740  98.5526000  98.2653160  12.1716850  98.3498930
  99.0304070  11.3654920  99.3777870 100.0465300  14.0452610  99.9367720
  99.7178660  13.2304370  99.5569450 100.9947600  14.0022420  99.8133410
 102.4999910  29.8164650  96.9105290 102.0402880  30.5680460  96.5363310
 101.8712370  29.0971120  96.8520090  96.8868140  12.7551580  97.4918910
  96.1039930  13.2297080  97.7715670  96.5931070  11.8506410  97.3832090
 101.4389210  13.4574680  95.5368000 101.8797300  13.4019780  94.6889600
 101.1696800  14.3732690  95.6078180 103.3027780  13.0889920  93.5476820
 103.2416180  12.1451140  93.4007840 104.0819810  13.1970010  94.0930280
  88.2308550  13.0599060  90.0132630  88.9887910  13.1727940  89.4396660
  87.7685720  13.8968260  89.9676060  94.7722360  15.1738330  93.0034940
  93.9596870  14.7995220  92.6630820  95.2764000  14.4183410  93.3056130
  99.2747340  11.8380780  94.2418010  99.8776710  12.4100990  94.7166530
  98.5340330  12.4020220  94.0191910 102.4181940  12.2402340  89.5158290
 102.6132570  13.1385790  89.7825720 101.6311810  12.0089420  90.0091240
  90.6033700  13.5863110  88.5534600  91.1326460  12.7992910  88.4242550
  91.2362020  14.2654300  88.7870130  92.7971540  13.3238250  91.6079990
  92.1674280  12.6225560  91.7750120  92.2576680  14.0842380  91.3913150
 103.9708550  29.4803050  91.2764850 104.1460740  28.7940790  90.6325770
 103.2730120  30.0050100  90.8841520  92.9227100  12.6022230 104.0432480
  92.6411370  13.1055830 103.2793300  93.3046800  11.8043980 103.6774610
  99.5242560  12.0175810 104.6212950  99.4108010  12.3370420 105.5164470
 100.3412300  12.4188320 104.3250230 102.3041050  29.1647340 104.1031640
 103.0966370  28.6696570 103.8957600 102.5974200  29.8437480 104.7107250
  90.5784580  22.1267110  77.7432720  89.7469460  21.8715820  78.1429230
  91.1865560  22.1977880  78.4790640  90.5585840  26.1607200  77.9390740
  90.8613880  25.2704940  77.7600960  91.3029430  26.7177420  77.7112990
  88.9876530  17.0869000  71.5275110  88.0993230  17.4284970  71.4254990
  89.2717720  16.8869320  70.6355940  86.9509540  19.6874650  77.4114810
  87.5225650  18.9196850  77.4118450  86.9511080  19.9863410  76.5021420
  88.1934410  15.0959010  79.1983740  88.0137250  14.1984760  79.4786500
  87.7914490  15.6430880  79.8730690  97.0332910  17.2974870  77.0996050
  97.4097730  16.4246750  76.9869720  96.9352420  17.6333570  76.2086490
  91.1637920  15.6700500  72.5613490  91.2704670  16.5704230  72.8682250
  90.2530280  15.6218470  72.2708140 100.8157030  14.7925310  74.0324390
 101.6366650  14.3021880  74.0749870 100.8491110  15.3822970  74.7856230
  88.8121080  17.5919510  77.8066080  89.4931190  17.8557880  78.4253480
  88.4969130  16.7520380  78.1404090  93.0045650  18.6386870  76.8938670
  93.5123870  19.1367840  77.5343690  93.5358890  17.8622070  76.7178030
 105.1056580  16.8092060  80.5968020 104.4008750  17.1973770  80.0783130
 105.3714500  17.5042350  81.1988950  91.2881750  13.2785430  81.1602090
  91.2900190  13.7957820  80.3547990  90.4586060  12.8015610  81.1372020
 101.0518510  16.7325690  76.8051930 100.3474080  17.0210580  77.3855040
 101.4130670  17.5425800  76.4451490  90.9697080  14.9895390  79.1672540
  91.3113890  15.8337440  78.8726410  90.0312890  15.1379130  79.2837880
  87.0436040  24.0761270  70.0331620  86.6664020  24.5648370  69.3016520
  87.3009110  24.7486550  70.6638150 104.1205430  16.1780480  77.1961140
 103.1730340  16.2119460  77.3276570 104.4455420  16.9919430  77.5810500
  94.6524970  12.4777660  75.4917130  94.9599950  11.9224550  74.7752630
  93.7225670  12.6122120  75.3090120 101.4985450  24.9161170  72.8714760
 101.3881780  23.9735500  72.9964180 101.4953700  25.2776810  73.7577520
  97.0405730  20.5426490  72.2277250  96.1135010  20.4763870  72.4565720
  97.1930550  21.4806620  72.1132490  97.0274810  16.8143490  69.2244410
  96.0878480  16.9757450  69.3096870  97.3458070  17.5329170  68.6780400
 101.0703020  22.1046790  72.7312500 100.4515440  21.7666340  72.0838800
 101.0527470  21.4606550  73.4391690 100.5129580  18.2831330  80.1478310
 100.1000760  19.1085040  80.4018300  99.7805530  17.6976370  79.9554670
  92.6462370  21.0691230  75.0096980  92.2419370  20.3568480  74.5142880
  92.7325490  20.7244470  75.8985020  93.1144070  24.7558790  77.1736190
  92.8172360  24.1504260  76.4943970  94.0643890  24.7936100  77.0625550
  91.3590990  17.8434440  78.7896020  91.9105580  17.9529780  78.0149270
  91.8734500  18.2172040  79.5051250  92.8314070  27.3075500  84.6086510
  92.8029500  27.7118450  83.7414940  92.6679040  26.3785860  84.4458110
 102.8284860  12.5976410  68.0526290 102.5157520  12.6903240  68.9525360
 103.5897330  13.1757440  68.0023720  89.3467000  19.9636210  72.5103630
  89.2264600  20.6898300  71.8984900  89.0367890  19.1939120  72.0331540
  88.2300000  24.8351540  74.7278450  87.8228080  24.9766130  73.8732050
  89.1213010  24.5511700  74.5249660 104.1862140  25.2815450  83.0650690
 104.3125200  25.0427330  82.1467870 104.2283520  24.4499990  83.5372770
 100.0233280  29.2698790  71.0629500  99.8634420  28.9801730  71.9611330
  99.8579990  28.4938920  70.5274730  91.8130660  13.3071280  75.8927300
  91.3698810  14.0880820  75.5611820  92.3715650  13.6301170  76.5998240
  96.1000470  16.1739800  81.4962620  95.6379840  16.3822820  82.3082560
  95.6978580  15.3599150  81.1933290 101.1004980  17.3948750  82.6259280
 100.2498570  17.0954500  82.9468350 100.9406770  17.6390760  81.7143100
  98.1954690  18.8950500  84.7258070  98.5208100  18.0614250  84.3860300
  98.9835020  19.4179020  84.8736400  94.9289480  12.9281980  70.7733130
  94.3043660  12.9241850  71.4986440  94.8419600  12.0612940  70.3769100
  93.8506560  13.8518610  77.7516900  94.1478890  14.7581440  77.6708920
  94.3992120  13.3637390  77.1376470  91.6044880  18.4304850  73.6208550
  91.3785800  18.2142020  74.5255170  90.8237410  18.8633310  73.2754520
  98.8342640  18.4368220  72.2199200  98.2351530  19.1604020  72.0362820
  99.3822250  18.3745000  71.4375650  97.4407510  17.0731760  74.2502480
  97.8337080  17.3903960  73.4371170  97.8024360  16.1943640  74.3647000
  89.1754630  15.7404100  82.4402600  88.7818020  16.5879310  82.6475380
  88.4873030  15.1030470  82.6311240  95.7499680  15.8239070  85.5099340
  95.0598000  15.6311270  86.1445430  96.4931980  16.1073710  86.0423640
  86.4771680  13.6632560  76.4732680  86.1884730  14.2335420  77.1857660
  87.2217440  13.1837010  76.8363910  94.4640040  16.3391710  76.7505750
  94.4676100  15.8981660  75.9010290  95.3591160  16.6609040  76.8577570
  90.3142420  16.2218200  75.7099960  89.9742470  16.6993430  76.4667010
  89.5519740  15.7683320  75.3501060  94.5260190  17.3403790  69.7412510
  94.6473010  17.2990270  70.6898330  94.1408700  18.2027940  69.5859240
  98.4888560  15.1171190  77.7576200  98.5061300  15.5679840  78.6018050
  98.2404140  14.2176830  77.9709640  93.5381690  19.6504930  69.1395810
  92.9698590  19.2023180  68.5131720  94.2470690  20.0097710  68.6060960
 101.9159310  12.5303370  83.5962580 102.2405080  11.7993030  84.1220560
 101.9515820  12.2117010  82.6943570  87.6288500  15.1437180  74.6264630
  87.3435420  14.7792850  75.4643250  87.5667360  14.4117640  74.0127770
  91.0829170  23.6463120  71.4122220  90.3091430  23.1060740  71.2520940
  91.8123800  23.1269730  71.0739980  97.3027090  14.0366440  71.3478000
  96.4891700  13.5379610  71.2723310  97.1089040  14.8764690  70.9314350
 100.0175480  18.4086090  69.6440160 100.9055100  18.7203320  69.4691500
  99.9880570  17.5358340  69.2520740  91.1266570  23.3143500  75.0501030
  91.6445240  22.5111760  74.9957920  90.6750590  23.2522640  75.8917860
  96.0136070  24.5809780  70.3228330  96.3551770  25.3252010  69.8271650
  95.1848780  24.8940900  70.6853160 103.3177000  26.5740190  71.8402150
 102.6753160  25.9195810  72.1145870 102.9307660  26.9795280  71.0642820
  87.1219160  20.2796130  68.5861330  87.9914010  20.5620930  68.8697250
  86.6309480  21.0932000  68.4710140  94.2853970  21.6669340  72.7069610
  94.7416750  22.4774590  72.9329800  93.9342180  21.3492480  73.5388100
  90.1865750  12.0106990  73.1792130  90.0580380  12.0024890  74.1277050
  89.3627770  12.3490080  72.8283140  87.4890410  29.4923510  69.1522960
  87.8488050  30.0912850  68.4980230  87.3482750  30.0383400  69.9257990
  87.4732270  27.7578370  83.6265360  87.5823390  26.8173110  83.4860750
  86.8212830  28.0233120  82.9779090  89.1065670  22.0969600  70.7143390
  88.4993620  22.8368500  70.7238690  89.5815020  22.1868960  69.8881590
  98.6798460  16.2620420  80.3900280  99.0479280  15.4415630  80.7179850
  97.8196660  16.3222310  80.8055930 102.0460490  15.2177360  71.1987840
 101.4173650  15.3223030  70.4846070 101.5512410  15.4374140  71.9881720
  94.0144520  17.4963310  72.6145720  93.3060670  17.9649650  73.0559330
  94.2989000  16.8385320  73.2490910  98.0459950  14.2213970  74.0541510
  97.9227730  14.2400100  73.1051020  98.9944510  14.2692910  74.1739910
  92.2179540  15.8048390  69.9896430  93.0670070  16.2418540  69.9236620
  91.8510810  16.1168650  70.8168490 102.8467310  15.1327970  81.4566640
 102.3440910  15.8733370  81.7960450 103.6623970  15.5211970  81.1403430
  91.1170960  22.0580750  68.4631960  91.8834230  21.9462110  69.0257390
  91.1945650  21.3618720  67.8108730  89.8117720  19.4905820  69.1464850
  89.8921310  18.5433330  69.2582250  90.7037470  19.8212700  69.2525510
  90.6132430  29.6401210  76.2499390  91.3494910  29.0916670  76.5207960
  90.9973350  30.5057220  76.1105380  87.4977910  25.7074780  72.1240900
  86.5717690  25.9495920  72.1146310  87.9634340  26.5349040  72.0025650
  89.6190710  28.8247280  85.4384970  90.4203440  29.1459330  85.8520370
  89.1042530  28.4642860  86.1604880  94.2412140  24.0334930  67.9367310
  94.1362780  23.4187280  68.6628690  94.0736360  23.5100820  67.1530320
 101.5349810  24.4497060  84.4731560 102.2759280  24.7872820  83.9699020
 100.7722490  24.6189120  83.9201330  93.1489990  22.0545880  70.4374600
  93.5706410  21.8885750  71.2805990  93.2740830  21.2446110  69.9429740
  95.6617630  21.0783490  67.6851700  96.1823290  20.3632510  67.3192850
  96.3086030  21.7169360  67.9852210  91.7989710  15.0004800  83.3242870
  91.7046580  14.3825550  82.5993740  91.2187100  15.7271090  83.0972780
  94.5651150  13.5578040  80.3570260  94.1168450  13.5802300  79.5115810
  93.9316350  13.1597060  80.9540560  92.0448890  18.1279110  67.3832760
  91.8437950  17.2646470  67.7446100  91.8740940  18.0412470  66.4454360
  94.0743370  16.7269900  83.6196360  94.6643060  16.4185750  84.3074180
  93.2563610  16.2549650  83.7756260  98.8936800  16.3435710  83.8529380
  98.2052320  15.6817250  83.7879370  99.6142820  15.8973980  84.2977840
  99.5237200  12.9387340  69.9119640  99.8039490  12.0955240  70.2679060
  98.7502930  13.1710450  70.4258390  90.8431690  15.2279730  67.3710640
  91.1457590  15.2347160  66.4629790  91.5826280  14.8777590  67.8678300
  94.0616620  14.1714350  68.3566840  93.7138620  13.4938340  67.7769290
  94.2629390  13.7103860  69.1710230  89.8661820  24.5322150  68.2040440
  90.3036690  25.0751820  68.8598020  90.3509550  23.7069100  68.2136780
  87.0807620  27.3211180  75.6560700  87.4110630  26.4532240  75.4239340
  87.5098620  27.5269700  76.4865660  91.6769540  25.6520190  73.3162670
  91.3765080  25.5285160  74.2166580  91.5707030  24.7928780  72.9078400
  87.5697830  28.1881770  78.3942330  87.1328820  28.3682570  79.2266480
  88.1375510  28.9456390  78.2524050 103.9017920  22.1764070  70.5223550
 104.6636830  22.7460720  70.6283240 103.9172290  21.6091270  71.2931860
  87.4022260  20.7002000  74.7531210  86.7471100  20.4313640  74.1090910
  88.2400210  20.5906480  74.3033190 100.3512700  15.4943290  68.9749700
 100.7697580  15.3074270  68.1346360 100.0448760  14.6422340  69.2852630
 103.8502430  20.4067430  72.6725500 103.4746030  19.6395360  72.2406790
 103.1205550  20.7890130  73.1600430 101.6790120  14.7795380  85.0844720
 102.5560300  14.7878780  85.4678720 101.6910960  14.0426220  84.4737070
  86.6160340  17.9100930  70.6956540  85.7124420  18.1731130  70.5208200
  87.1000960  18.1812100  69.9156500 103.1253390  18.6324920  75.9732740
 103.6490870  18.1387570  75.3422910 103.7112810  18.7675280  76.7180310
 103.3043110  18.7164790  79.4952290 102.3545820  18.6828330  79.6097280
 103.4856120  19.6264900  79.2602060  89.1587550  16.9666470  68.6050920
  89.8679250  16.5449690  68.1198200  88.4427490  17.0341700  67.9734270
  88.8061710  13.0205800  67.6453570  89.5289840  13.5614740  67.9634790
  89.0786230  12.7469220  66.7695110 102.6153360  17.8898270  71.9125150
 103.1112480  17.6569140  72.6974030 102.4169430  17.0510110  71.4962790
  88.4953900  12.2711990  77.5476190  89.1430090  11.7209370  77.1071350
  88.9155740  12.5255140  78.3692000 104.0440520  16.5259220  74.4462830
 103.9339800  16.3715260  75.3845100 104.8048110  15.9980160  74.2038240
 102.3906240  12.4653350  80.9045830 103.0278460  13.0787490  81.2705020
 102.5381130  12.5014010  79.9595060 104.9330790  14.3567140  67.6868970
 105.8580100  14.2248320  67.4787260 104.9106580  14.4359960  68.6405420
 105.0069280  15.1277800  70.3125680 104.2120780  15.0622920  70.8418590
 105.2112560  16.0628440  70.3011030  88.2485900  12.4267660  80.2901510
  87.9000720  12.8831480  81.0559690  87.9173600  11.5324790  80.3723940
  93.5556300  27.1546850  80.0564420  93.3147660  27.4221410  79.1694940
  94.4958940  27.3252580  80.1115280  95.7610720  13.6179540  83.8120930
  95.6999610  14.2101370  84.5616340  96.7011100  13.5105500  83.6671190
  98.3985280  13.2749600  83.4513220  99.0125690  13.5928890  82.7894300
  98.9434840  12.7898190  84.0709080  88.9206540  11.9543860  83.5652280
  89.4689530  11.7731910  82.8018390  88.9861850  11.1637970  84.1008590
  89.6938300  28.5449510  81.5752480  89.0998620  28.4134210  82.3142520
  89.6862140  27.7087650  81.1094580  99.1393320  11.8381740  79.7782510
  98.2653160  12.1716850  79.5755440  99.0304070  11.3654920  80.6034380
 100.0465300  14.0452610  81.1624230  99.7178660  13.2304370  80.7825960
 100.9947600  14.0022420  81.0389920  92.9295630  28.1252890  77.3109930
  93.4460650  27.5140250  76.7858190  93.5793010  28.6281670  77.8020940
  96.8868140  12.7551580  78.7175420  96.1039930  13.2297080  78.9972180
  96.5931070  11.8506410  78.6088600 101.4389210  13.4574680  76.7624510
 101.8797300  13.4019780  75.9146110 101.1696800  14.3732690  76.8334690
 103.3027780  13.0889920  74.7733330 103.2416180  12.1451140  74.6264350
 104.0819810  13.1970010  75.3186790  87.6080530  29.2282280  73.7357280
  87.4402570  28.5952960  74.4339170  86.7415040  29.4341680  73.3851470
  88.2308550  13.0599060  71.2389140  88.9887910  13.1727940  70.6653170
  87.7685720  13.8968260  71.1932570  94.7722360  15.1738330  74.2291450
  93.9596870  14.7995220  73.8887330  95.2764000  14.4183410  74.5312640
  99.2747340  11.8380780  75.4674520  99.8776710  12.4100990  75.9423040
  98.5340330  12.4020220  75.2448420 102.4181940  12.2402340  70.7414800
 102.6132570  13.1385790  71.0082230 101.6311810  12.0089420  71.2347750
  89.2143230  27.9215510  71.1807420  88.6890850  28.3023540  70.4769380
  89.1387810  28.5466280  71.9017130  90.6033700  13.5863110  69.7791110
  91.1326460  12.7992910  69.6499060  91.2362020  14.2654300  70.0126640
  92.7971540  13.3238250  72.8336500  92.1674280  12.6225560  73.0006630
  92.2576680  14.0842380  72.6169660 103.9708550  29.4803050  72.5021360
 104.1460740  28.7940790  71.8582280 103.2730120  30.0050100  72.1098030
  92.9227100  12.6022230  85.2688990  92.6411370  13.1055830  84.5049810
  93.3046800  11.8043980  84.9031120  91.8136200  29.8697890  70.0556670
  92.5455020  29.5857170  69.5080560  92.0729870  29.6311170  70.9456050
  90.9750990  25.9862620  70.0603000  90.3459870  26.4547720  70.6088830
  91.0898820  25.1411840  70.4949190  99.5242560  12.0175810  85.8469460
  99.4108010  12.3370420  86.7420980 100.3412300  12.4188320  85.5506740
  98.4300710  20.0368280  56.2104200  98.3494760  19.1222890  55.9395910
  98.0165130  20.5335350  55.5043910  96.5618750  21.8147300  58.0913470
  95.7860850  21.3347740  58.3812040  97.2131680  21.1352950  57.9169630
  90.5784580  22.1267110  58.9689230  89.7469460  21.8715820  59.3685740
  91.1865560  22.1977880  59.7047150 100.5826180  26.2207490  56.8712600
 100.1207710  25.4494730  57.1999770 101.3951730  26.2473560  57.3765050
  88.9876530  17.0869000  52.7531620  88.0993230  17.4284970  52.6511500
  89.2717720  16.8869320  51.8612450  86.9509540  19.6874650  58.6371320
  87.5225650  18.9196850  58.6374960  86.9511080  19.9863410  57.7277930
  96.8089490  28.5065500  56.4916590  96.1900930  28.9623000  55.9211030
  97.6641270  28.6616960  56.0906290  88.1934410  15.0959010  60.4240250
  88.0137250  14.1984760  60.7043010  87.7914490  15.6430880  61.0987200
  97.0332910  17.2974870  58.3252560  97.4097730  16.4246750  58.2126230
  96.9352420  17.6333570  57.4343000  91.1637920  15.6700500  53.7870000
  91.2704670  16.5704230  54.0938760  90.2530280  15.6218470  53.4964650
 100.8157030  14.7925310  55.2580900 101.6366650  14.3021880  55.3006380
 100.8491110  15.3822970  56.0112740  88.8121080  17.5919510  59.0322590
  89.4931190  17.8557880  59.6509990  88.4969130  16.7520380  59.3660600
  93.0045650  18.6386870  58.1195180  93.5123870  19.1367840  58.7600200
  93.5358890  17.8622070  57.9434540  91.2881750  13.2785430  62.3858600
  91.2900190  13.7957820  61.5804500  90.4586060  12.8015610  62.3628530
  97.6752840  23.3904740  53.8848500  97.0570110  23.8554190  53.3211220
  98.1876090  24.0832220  54.3018010 101.0518510  16.7325690  58.0308440
 100.3474080  17.0210580  58.6111550 101.4130670  17.5425800  57.6708000
  90.9697080  14.9895390  60.3929050  91.3113890  15.8337440  60.0982920
  90.0312890  15.1379130  60.5094390  91.7503700  24.8861410  62.3781280
  92.3677700  25.5612490  62.0965730  90.8896820  25.2949390  62.2868780
 104.1205430  16.1780480  58.4217650 103.1730340  16.2119460  58.5533080
 104.4455420  16.9919430  58.8067010  94.6524970  12.4777660  56.7173640
  94.9599950  11.9224550  56.0009140  93.7225670  12.6122120  56.5346630
 100.2040030  28.1944950  59.0081100 100.2167190  27.7907240  58.1403360
  99.6515250  28.9692240  58.9042530 101.4985450  24.9161170  54.0971270
 101.3881780  23.9735500  54.2220690 101.4953700  25.2776810  54.9834030
  97.0405730  20.5426490  53.4533760  96.1135010  20.4763870  53.6822230
  97.1930550  21.4806620  53.3389000  97.0274810  16.8143490  50.4500920
  96.0878480  16.9757450  50.5353380  97.3458070  17.5329170  49.9036910
 101.0703020  22.1046790  53.9569010 100.4515440  21.7666340  53.3095310
 101.0527470  21.4606550  54.6648200  92.6462370  21.0691230  56.2353490
  92.2419370  20.3568480  55.7399390  92.7325490  20.7244470  57.1241530
  93.1144070  24.7558790  58.3992700  92.8172360  24.1504260  57.7200480
  94.0643890  24.7936100  58.2882060  91.3590990  17.8434440  60.0152530
  91.9105580  17.9529780  59.2405780  91.8734500  18.2172040  60.7307760
 101.2029680  28.3290660  62.0615800 100.7260240  29.1362850  61.8688410
 100.5191470  27.6768990  62.2142010  92.2062500  24.4940480  65.0500500
  91.3091030  24.7180450  65.2973900  92.2315370  24.6175420  64.1011900
  99.2467720  21.3433600  50.9641760  99.6861000  20.5056030  50.8179580
  99.9596140  21.9763000  51.0505900  91.0333720  21.3653800  63.6257870
  90.8941490  22.2376600  63.9945270  90.1515080  21.0226610  63.4805810
  97.3563100  26.2829670  54.9323000  97.7959010  27.0254000  54.5178390
  97.2949990  26.5256240  55.8561960  92.8314070  27.3075500  65.8343020
  92.8029500  27.7118450  64.9671450  92.6679040  26.3785860  65.6714620
 102.8284860  12.5976410  49.2782800 102.5157520  12.6903240  50.1781870
 103.5897330  13.1757440  49.2280230  89.3467000  19.9636210  53.7360140
  89.2264600  20.6898300  53.1241410  89.0367890  19.1939120  53.2588050
 104.7828890  28.0902600  67.1307190 105.2588610  28.5685490  67.8096270
 105.4036050  28.0220090  66.4052690  86.9852370  23.1351350  59.5428780
  87.0632790  23.2700120  58.5984500  87.5994050  22.4267240  59.7356900
  88.2300000  24.8351540  55.9534960  87.8228080  24.9766130  55.0988560
  89.1213010  24.5511700  55.7506170  98.0478880  28.9843450  62.8602010
  98.5623550  28.8951460  63.6624440  97.2047960  29.3303150  63.1529920
 100.0233280  29.2698790  52.2886010  99.8634420  28.9801730  53.1867840
  99.8579990  28.4938920  51.7531240  99.7259410  26.7786350  50.8484010
  99.0324570  26.7763640  50.1886290 100.4682270  26.3545670  50.4178180
  99.2909340  28.4049060  54.9232500  99.7466290  27.6238440  55.2371120
  99.6301860  29.1155880  55.4673680  87.0411890  24.1765520  62.0823240
  87.2042930  23.7070880  61.2642610  87.5064340  23.6689080  62.7472080
  91.8130660  13.3071280  57.1183810  91.3698810  14.0880820  56.7868330
  92.3715650  13.6301170  57.8254750  96.1000470  16.1739800  62.7219130
  95.6379840  16.3822820  63.5339070  95.6978580  15.3599150  62.4189800
  94.9289480  12.9281980  51.9989640  94.3043660  12.9241850  52.7242950
  94.8419600  12.0612940  51.6025610  93.8506560  13.8518610  58.9773410
  94.1478890  14.7581440  58.8965430  94.3992120  13.3637390  58.3632980
  91.6044880  18.4304850  54.8465060  91.3785800  18.2142020  55.7511680
  90.8237410  18.8633310  54.5011030  98.8342640  18.4368220  53.4455710
  98.2351530  19.1604020  53.2619330  99.3822250  18.3745000  52.6632160
  94.0444090  19.3290430  65.5125330  93.9487690  18.3885160  65.3625730
  94.8876070  19.5505500  65.1173400  97.4407510  17.0731760  55.4758990
  97.8337080  17.3903960  54.6627680  97.8024360  16.1943640  55.5903510
  89.1754630  15.7404100  63.6659110  88.7818020  16.5879310  63.8731890
  88.4873030  15.1030470  63.8567750  95.7499680  15.8239070  66.7355850
  95.0598000  15.6311270  67.3701940  96.4931980  16.1073710  67.2680150
  86.4771680  13.6632560  57.6989190  86.1884730  14.2335420  58.4114170
  87.2217440  13.1837010  58.0620420  86.6641910  17.6052680  48.9091910
  86.5816580  18.5483440  49.0506900  86.3124970  17.4627590  48.0304260
  94.4640040  16.3391710  57.9762260  94.4676100  15.8981660  57.1266800
  95.3591160  16.6609040  58.0834080  90.3142420  16.2218200  56.9356470
  89.9742470  16.6993430  57.6923520  89.5519740  15.7683320  56.5757570
  94.5260190  17.3403790  50.9669020  94.6473010  17.2990270  51.9154840
  94.1408700  18.2027940  50.8115750  98.4888560  15.1171190  58.9832710
  98.5061300  15.5679840  59.8274560  98.2404140  14.2176830  59.1966150
  93.5381690  19.6504930  50.3652320  92.9698590  19.2023180  49.7388230
  94.2470690  20.0097710  49.8317470 101.9159310  12.5303370  64.8219090
 102.2405080  11.7993030  65.3477070 101.9515820  12.2117010  63.9200080
  88.6150870  23.5516950  64.2419050  88.2305660  22.9110620  64.8402010
  88.9263060  24.2553070  64.8113780  87.6288500  15.1437180  55.8521140
  87.3435420  14.7792850  56.6899760  87.5667360  14.4117640  55.2384280
  92.5547380  19.4402130  62.0411880  92.2504450  20.3194110  62.2662240
  93.5093840  19.5001920  62.0769320  91.0829170  23.6463120  52.6378730
  90.3091430  23.1060740  52.4777450  91.8123800  23.1269730  52.2996490
  97.3027090  14.0366440  52.5734510  96.4891700  13.5379610  52.4979820
  97.1089040  14.8764690  52.1570860 100.0175480  18.4086090  50.8696670
 100.9055100  18.7203320  50.6948010  99.9880570  17.5358340  50.4777250
  91.1266570  23.3143500  56.2757540  91.6445240  22.5111760  56.2214430
  90.6750590  23.2522640  57.1174370  96.0136070  24.5809780  51.5484840
  96.3551770  25.3252010  51.0528160  95.1848780  24.8940900  51.9109670
  88.6111110  20.2804870  63.1883240  88.2526050  20.9458720  63.7756580
  88.3165670  19.4488420  63.5595860  91.8124230  20.7389110  66.0722790
  91.5124370  20.8846290  65.1750610  92.5835470  20.1794400  65.9796180
 102.2889750  19.7197930  50.3376530 102.2053470  20.1512150  49.4872970
 103.0083940  20.1796280  50.7703350 103.3177000  26.5740190  53.0658660
 102.6753160  25.9195810  53.3402380 102.9307660  26.9795280  52.2899330
  98.8963480  23.9025620  56.9130350  99.2487300  23.3053750  56.2531720
  98.0125810  23.5769850  57.0838600  94.9826760  24.6623310  54.3200760
  95.6697890  25.2092520  54.7008350  94.1959180  25.2064040  54.3550370
  94.2853970  21.6669340  53.9326120  94.7416750  22.4774590  54.1586310
  93.9342180  21.3492480  54.7644610  90.1865750  12.0106990  54.4048640
  90.0580380  12.0024890  55.3533560  89.3627770  12.3490080  54.0539650
 101.7074380  25.4656650  49.6035010 101.4811960  24.7487090  50.1959650
 101.3170580  25.2169090  48.7656760 101.2890630  23.3828590  51.2649170
 101.0012330  23.8441280  52.0527050 102.0842800  22.9226360  51.5333390
  87.4732270  27.7578370  64.8521870  87.5823390  26.8173110  64.7117260
  86.8212830  28.0233120  64.2035600  95.4644860  26.0294260  66.2519990
  95.1441730  25.3103500  66.7965680  94.7903220  26.7049330  66.3256050
  93.5059030  26.8754710  51.1953140  93.4969130  27.6084400  50.5797650
  92.5857390  26.6286290  51.2880100 102.0460490  15.2177360  52.4244350
 101.4173650  15.3223030  51.7102580 101.5512410  15.4374140  53.2138230
  96.4918630  26.9382950  49.8578330  96.5930610  26.7346940  48.9280310
  95.5920370  26.6841230  50.0626110  94.0144520  17.4963310  53.8402230
  93.3060670  17.9649650  54.2815840  94.2989000  16.8385320  54.4747420
  98.0459950  14.2213970  55.2798020  97.9227730  14.2400100  54.3307530
  98.9944510  14.2692910  55.3996420  92.2179540  15.8048390  51.2152940
  93.0670070  16.2418540  51.1493130  91.8510810  16.1168650  52.0425000
 102.8467310  15.1327970  62.6823150 102.3440910  15.8733370  63.0216960
 103.6623970  15.5211970  62.3659940 101.1389320  20.3761150  56.1284510
 100.1979460  20.3911380  56.3032200 101.4533390  19.5897110  56.5744810
  89.8117720  19.4905820  50.3721360  89.8921310  18.5433330  50.4838760
  90.7037470  19.8212700  50.4782020 103.1414900  27.5470000  57.8038770
 103.2662320  28.3701170  58.2762580 104.0080460  27.3360730  57.4562920
  87.4977910  25.7074780  53.3497410  86.5717690  25.9495920  53.3402820
  87.9634340  26.5349040  53.2282160  89.6190710  28.8247280  66.6641480
  90.4203440  29.1459330  67.0776880  89.1042530  28.4642860  67.3861390
  93.7234740  28.8131520  49.2981470  94.5163350  29.1020350  48.8463260
  93.2039090  28.3823690  48.6193950  99.8855710  28.6607440  65.2226300
 100.8377460  28.5765460  65.1726540  99.7383930  29.3249150  65.8960090
 102.7764910  28.0401650  50.7218210 102.4906420  27.6266790  49.9072390
 102.5784460  28.9689360  50.6018730  87.3388520  21.3120740  65.6077530
  87.8427540  20.7328020  66.1793760  86.5995940  21.5960970  66.1453900
  94.2412140  24.0334930  49.1623820  94.1362780  23.4187280  49.8885200
  94.0736360  23.5100820  48.3786830  97.4814870  23.0954960  49.7665810
  96.9324970  23.5424260  50.4108550  98.1034130  22.5904210  50.2903480
  89.3711600  19.4550330  66.5027600  89.4116940  19.1564200  67.4112830
  90.2257100  19.8557940  66.3435120  93.1489990  22.0545880  51.6631110
  93.5706410  21.8885750  52.5062500  93.2740830  21.2446110  51.1686250
  91.3117410  18.0342430  64.4702090  90.7813870  17.5433380  63.8425430
  91.9805480  18.4626630  63.9360020  95.6617630  21.0783490  48.9108210
  96.1823290  20.3632510  48.5449360  96.3086030  21.7169360  49.2108720
  91.7989710  15.0004800  64.5499380  91.7046580  14.3825550  63.8250250
  91.2187100  15.7271090  64.3229290  94.5651150  13.5578040  61.5826770
  94.1168450  13.5802300  60.7372320  93.9316350  13.1597060  62.1797070
  92.0448890  18.1279110  48.6089270  91.8437950  17.2646470  48.9702610
  91.8740940  18.0412470  47.6710870  92.8218120  28.7585380  63.3196940
  92.2839210  29.4831440  63.0005640  93.0752080  28.2815720  62.5294280
  94.0743370  16.7269900  64.8452870  94.6643060  16.4185750  65.5330690
  93.2563610  16.2549650  65.0012770  99.5237200  12.9387340  51.1376150
  99.8039490  12.0955240  51.4935570  98.7502930  13.1710450  51.6514900
  90.8431690  15.2279730  48.5967150  91.1457590  15.2347160  47.6886300
  91.5826280  14.8777590  49.0934810  95.6780330  29.9936590  63.5783590
  95.6039030  30.8971730  63.8855960  94.7759170  29.6748490  63.5505660
  94.0616620  14.1714350  49.5823350  93.7138620  13.4938340  49.0025800
  94.2629390  13.7103860  50.3966740  96.2265660  29.1595100  51.2009950
  97.1216450  29.4980070  51.2228710  96.2583290  28.4374510  50.5734230
 104.4461460  25.4316590  49.2445860 103.6154420  25.4993240  49.7153090
 104.6233290  26.3220710  48.9412720 103.9017920  22.1764070  51.7480060
 104.6636830  22.7460720  51.8539750 103.9172290  21.6091270  52.5188370
  87.4022260  20.7002000  55.9787720  86.7471100  20.4313640  55.3347420
  88.2400210  20.5906480  55.5289700 104.9077890  23.0314170  56.5921990
 105.2786720  22.2481490  56.1857960 105.5479820  23.7203270  56.4139290
 103.9537090  22.4698440  48.9052580 104.2285930  23.3777320  48.7771800
 103.7647830  22.4060970  49.8414570 100.3512700  15.4943290  50.2006210
 100.7697580  15.3074270  49.3602870 100.0448760  14.6422340  50.5109140
 103.8502430  20.4067430  53.8982010 103.4746030  19.6395360  53.4663300
 103.1205550  20.7890130  54.3856940  88.4398190  21.0854570  60.5191060
  88.8071230  20.9981970  61.3987080  87.8709010  20.3221120  60.4197920
 101.6790120  14.7795380  66.3101230 102.5560300  14.7878780  66.6935230
 101.6910960  14.0426220  65.6993580  86.6160340  17.9100930  51.9213050
  85.7124420  18.1731130  51.7464710  87.1000960  18.1812100  51.1413010
 103.1253390  18.6324920  57.1989250 103.6490870  18.1387570  56.5679420
 103.7112810  18.7675280  57.9436820  89.1587550  16.9666470  49.8307430
  89.8679250  16.5449690  49.3454710  88.4427490  17.0341700  49.1990780
  88.8061710  13.0205800  48.8710080  89.5289840  13.5614740  49.1891300
  89.0786230  12.7469220  47.9951620 102.6153360  17.8898270  53.1381660
 103.1112480  17.6569140  53.9230540 102.4169430  17.0510110  52.7219300
  88.4953900  12.2711990  58.7732700  89.1430090  11.7209370  58.3327860
  88.9155740  12.5255140  59.5948510 104.0440520  16.5259220  55.6719340
 103.9339800  16.3715260  56.6101610 104.8048110  15.9980160  55.4294750
 102.3906240  12.4653350  62.1302340 103.0278460  13.0787490  62.4961530
 102.5381130  12.5014010  61.1851570 104.9330790  14.3567140  48.9125480
 105.8580100  14.2248320  48.7043770 104.9106580  14.4359960  49.8661930
 105.0069280  15.1277800  51.5382190 104.2120780  15.0622920  52.0675100
 105.2112560  16.0628440  51.5267540 101.9487700  29.1669350  55.5320580
 102.5446770  28.8453920  54.8555000 102.2065850  28.6941170  56.3233850
  88.2485900  12.4267660  61.5158020  87.9000720  12.8831480  62.2816200
  87.9173600  11.5324790  61.5980450  89.8550270  25.5987260  65.6811210
  89.8119900  25.2280170  66.5625670  89.9861280  26.5364830  65.8213030
  93.5556300  27.1546850  61.2820930  93.3147660  27.4221410  60.3951450
  94.4958940  27.3252580  61.3371790  95.7610720  13.6179540  65.0377440
  95.6999610  14.2101370  65.7872850  96.7011100  13.5105500  64.8927700
  98.3985280  13.2749600  64.6769730  99.0125690  13.5928890  64.0150810
  98.9434840  12.7898190  65.2965590  88.9206540  11.9543860  64.7908790
  89.4689530  11.7731910  64.0274900  88.9861850  11.1637970  65.3265100
  89.6938300  28.5449510  62.8008990  89.0998620  28.4134210  63.5399030
  89.6862140  27.7087650  62.3351090  99.1393320  11.8381740  61.0039020
  98.2653160  12.1716850  60.8011950  99.0304070  11.3654920  61.8290890
 100.0465300  14.0452610  62.3880740  99.7178660  13.2304370  62.0082470
 100.9947600  14.0022420  62.2646430 102.4999910  29.8164650  59.3618310
 102.0402880  30.5680460  58.9876330 101.8712370  29.0971120  59.3033110
  89.3250530  25.9107890  61.7517030  88.5984590  25.2913180  61.6842980
  89.3859680  26.3048500  60.8815110  95.6691130  29.0161380  59.3635420
  95.9568940  28.7615680  58.4868430  96.1814350  28.4638740  59.9540990
  96.8868140  12.7551580  59.9431930  96.1039930  13.2297080  60.2228690
  96.5931070  11.8506410  59.8345110 101.4389210  13.4574680  57.9881020
 101.8797300  13.4019780  57.1402620 101.1696800  14.3732690  58.0591200
 103.3027780  13.0889920  55.9989840 103.2416180  12.1451140  55.8520860
 104.0819810  13.1970010  56.5443300  88.2308550  13.0599060  52.4645650
  88.9887910  13.1727940  51.8909680  87.7685720  13.8968260  52.4189080
  94.7722360  15.1738330  55.4547960  93.9596870  14.7995220  55.1143840
  95.2764000  14.4183410  55.7569150  99.2747340  11.8380780  56.6931030
  99.8776710  12.4100990  57.1679550  98.5340330  12.4020220  56.4704930
 102.4181940  12.2402340  51.9671310 102.6132570  13.1385790  52.2338740
 101.6311810  12.0089420  52.4604260  90.6033700  13.5863110  51.0047620
  91.1326460  12.7992910  50.8755570  91.2362020  14.2654300  51.2383150
  92.7971540  13.3238250  54.0593010  92.1674280  12.6225560  54.2263140
  92.2576680  14.0842380  53.8426170  95.7363490  29.9377480  66.7303620
  96.6630800  29.7021750  66.7739580  95.7213920  30.7649480  66.2489650
 103.9708550  29.4803050  53.7277870 104.1460740  28.7940790  53.0838790
 103.2730120  30.0050100  53.3354540  92.9227100  12.6022230  66.4945500
  92.6411370  13.1055830  65.7306320  93.3046800  11.8043980  66.1287630
  90.9750990  25.9862620  51.2859510  90.3459870  26.4547720  51.8345340
  91.0898820  25.1411840  51.7205700  99.5242560  12.0175810  67.0725970
  99.4108010  12.3370420  67.9677490 100.3412300  12.4188320  66.7763250
 102.3041050  29.1647340  66.5544660 103.0966370  28.6696570  66.3470620
 102.5974200  29.8437480  67.1620270  98.4300710  20.0368280  37.4360710
  98.3494760  19.1222890  37.1652420  98.0165130  20.5335350  36.7300420
  96.5618750  21.8147300  39.3169980  95.7860850  21.3347740  39.6068550
  97.2131680  21.1352950  39.1426140  90.5784580  22.1267110  40.1945740
  89.7469460  21.8715820  40.5942250  91.1865560  22.1977880  40.9303660
 100.5826180  26.2207490  38.0969110 100.1207710  25.4494730  38.4256280
 101.3951730  26.2473560  38.6021560  90.5585840  26.1607200  40.3903760
  90.8613880  25.2704940  40.2113980  91.3029430  26.7177420  40.1626010
  88.9876530  17.0869000  33.9788130  88.0993230  17.4284970  33.8768010
  89.2717720  16.8869320  33.0868960  86.9509540  19.6874650  39.8627830
  87.5225650  18.9196850  39.8631470  86.9511080  19.9863410  38.9534440
  96.8089490  28.5065500  37.7173100  96.1900930  28.9623000  37.1467540
  97.6641270  28.6616960  37.3162800  96.0027740  24.4904490  39.3240140
  95.9336020  23.5494430  39.1629270  96.7647600  24.5805900  39.8962710
  88.1934410  15.0959010  41.6496760  88.0137250  14.1984760  41.9299520
  87.7914490  15.6430880  42.3243710  97.0332910  17.2974870  39.5509070
  97.4097730  16.4246750  39.4382740  96.9352420  17.6333570  38.6599510
  91.1637920  15.6700500  35.0126510  91.2704670  16.5704230  35.3195270
  90.2530280  15.6218470  34.7221160 100.8157030  14.7925310  36.4837410
 101.6366650  14.3021880  36.5262890 100.8491110  15.3822970  37.2369250
  88.8121080  17.5919510  40.2579100  89.4931190  17.8557880  40.8766500
  88.4969130  16.7520380  40.5917110  93.0045650  18.6386870  39.3451690
  93.5123870  19.1367840  39.9856710  93.5358890  17.8622070  39.1691050
 105.1056580  16.8092060  43.0481040 104.4008750  17.1973770  42.5296150
 105.3714500  17.5042350  43.6501970  91.2881750  13.2785430  43.6115110
  91.2900190  13.7957820  42.8061010  90.4586060  12.8015610  43.5885040
  97.6752840  23.3904740  35.1105010  97.0570110  23.8554190  34.5467730
  98.1876090  24.0832220  35.5274520  92.5384600  22.9180610  41.7888610
  92.2053980  23.5449530  42.4309680  92.7151280  23.4442490  41.0090280
 101.0518510  16.7325690  39.2564950 100.3474080  17.0210580  39.8368060
 101.4130670  17.5425800  38.8964510  90.9697080  14.9895390  41.6185560
  91.3113890  15.8337440  41.3239430  90.0312890  15.1379130  41.7350900
  91.7503700  24.8861410  43.6037790  92.3677700  25.5612490  43.3222240
  90.8896820  25.2949390  43.5125290  87.0436040  24.0761270  32.4844640
  86.6664020  24.5648370  31.7529540  87.3009110  24.7486550  33.1151170
 102.6681290  26.3500820  41.5192430 101.9844810  27.0199930  41.5109100
 103.2075580  26.5481470  40.7537290 104.1205430  16.1780480  39.6474160
 103.1730340  16.2119460  39.7789590 104.4455420  16.9919430  40.0323520
  94.6524970  12.4777660  37.9430150  94.9599950  11.9224550  37.2265650
  93.7225670  12.6122120  37.7603140 100.2040030  28.1944950  40.2337610
 100.2167190  27.7907240  39.3659870  99.6515250  28.9692240  40.1299040
 101.4985450  24.9161170  35.3227780 101.3881780  23.9735500  35.4477200
 101.4953700  25.2776810  36.2090540  99.6025470  23.0974790  41.5620220
 100.0194260  22.8834900  40.7273680 100.3265290  23.3547580  42.1328840
  97.0405730  20.5426490  34.6790270  96.1135010  20.4763870  34.9078740
  97.1930550  21.4806620  34.5645510  97.0274810  16.8143490  31.6757430
  96.0878480  16.9757450  31.7609890  97.3458070  17.5329170  31.1293420
 103.5487570  21.4962010  41.6536460 102.7206200  21.5655100  41.1786590
 104.1438050  22.0816320  41.1852290 101.0703020  22.1046790  35.1825520
 100.4515440  21.7666340  34.5351820 101.0527470  21.4606550  35.8904710
 100.5129580  18.2831330  42.5991330 100.1000760  19.1085040  42.8531320
  99.7805530  17.6976370  42.4067690  92.6462370  21.0691230  37.4610000
  92.2419370  20.3568480  36.9655900  92.7325490  20.7244470  38.3498040
  93.1144070  24.7558790  39.6249210  92.8172360  24.1504260  38.9456990
  94.0643890  24.7936100  39.5138570  91.3590990  17.8434440  41.2409040
  91.9105580  17.9529780  40.4662290  91.8734500  18.2172040  41.9564270
 101.2029680  28.3290660  43.2872310 100.7260240  29.1362850  43.0944920
 100.5191470  27.6768990  43.4398520  92.2062500  24.4940480  46.2757010
  91.3091030  24.7180450  46.5230410  92.2315370  24.6175420  45.3268410
  99.2467720  21.3433600  32.1898270  99.6861000  20.5056030  32.0436090
  99.9596140  21.9763000  32.2762410  91.0333720  21.3653800  44.8514380
  90.8941490  22.2376600  45.2201780  90.1515080  21.0226610  44.7062320
  97.3563100  26.2829670  36.1579510  97.7959010  27.0254000  35.7434900
  97.2949990  26.5256240  37.0818470 102.8284860  12.5976410  30.5039310
 102.5157520  12.6903240  31.4038380 103.5897330  13.1757440  30.4536740
  89.3467000  19.9636210  34.9616650  89.2264600  20.6898300  34.3497920
  89.0367890  19.1939120  34.4844560 104.7828890  28.0902600  48.3563700
 105.2588610  28.5685490  49.0352780 105.4036050  28.0220090  47.6309200
  86.9852370  23.1351350  40.7685290  87.0632790  23.2700120  39.8241010
  87.5994050  22.4267240  40.9613410  88.2300000  24.8351540  37.1791470
  87.8228080  24.9766130  36.3245070  89.1213010  24.5511700  36.9762680
 104.1862140  25.2815450  45.5163710 104.3125200  25.0427330  44.5980890
 104.2283520  24.4499990  45.9885790  98.0478880  28.9843450  44.0858520
  98.5623550  28.8951460  44.8880950  97.2047960  29.3303150  44.3786430
 100.0233280  29.2698790  33.5142520  99.8634420  28.9801730  34.4124350
  99.8579990  28.4938920  32.9787750  92.5021660  29.0497320  35.2914140
  92.3264140  28.1332860  35.0781940  91.6477400  29.4084610  35.5311940
  99.7259410  26.7786350  32.0740520  99.0324570  26.7763640  31.4142800
 100.4682270  26.3545670  31.6434690  99.2909340  28.4049060  36.1489010
  99.7466290  27.6238440  36.4627630  99.6301860  29.1155880  36.6930190
 104.0386150  17.3347910  46.4813450 103.4230420  17.8427580  45.9528910
 103.7182570  16.4346240  46.4239390  87.0411890  24.1765520  43.3079750
  87.2042930  23.7070880  42.4899120  87.5064340  23.6689080  43.9728590
  91.8130660  13.3071280  38.3440320  91.3698810  14.0880820  38.0124840
  92.3715650  13.6301170  39.0511260  96.1000470  16.1739800  43.9475640
  95.6379840  16.3822820  44.7595580  95.6978580  15.3599150  43.6446310
 101.1004980  17.3948750  45.0772300 100.2498570  17.0954500  45.3981370
 100.9406770  17.6390760  44.1656120  98.1954690  18.8950500  47.1771090
  98.5208100  18.0614250  46.8373320  98.9835020  19.4179020  47.3249420
  94.9289480  12.9281980  33.2246150  94.3043660  12.9241850  33.9499460
  94.8419600  12.0612940  32.8282120  93.8506560  13.8518610  40.2029920
  94.1478890  14.7581440  40.1221940  94.3992120  13.3637390  39.5889490
  91.6044880  18.4304850  36.0721570  91.3785800  18.2142020  36.9768190
  90.8237410  18.8633310  35.7267540  98.8342640  18.4368220  34.6712220
  98.2351530  19.1604020  34.4875840  99.3822250  18.3745000  33.8888670
  94.0444090  19.3290430  46.7381840  93.9487690  18.3885160  46.5882240
  94.8876070  19.5505500  46.3429910  97.4407510  17.0731760  36.7015500
  97.8337080  17.3903960  35.8884190  97.8024360  16.1943640  36.8160020
  89.1754630  15.7404100  44.8915620  88.7818020  16.5879310  45.0988400
  88.4873030  15.1030470  45.0824260  95.7499680  15.8239070  47.9612360
  95.0598000  15.6311270  48.5958450  96.4931980  16.1073710  48.4936660
  86.4771680  13.6632560  38.9245700  86.1884730  14.2335420  39.6370680
  87.2217440  13.1837010  39.2876930  86.6641910  17.6052680  30.1348420
  86.5816580  18.5483440  30.2763410  86.3124970  17.4627590  29.2560770
  98.0262650  19.6637510  40.7966280  97.2943770  20.1724320  41.1456380
  97.6286990  18.8467490  40.4955060  94.4640040  16.3391710  39.2018770
  94.4676100  15.8981660  38.3523310  95.3591160  16.6609040  39.3090590
  90.3142420  16.2218200  38.1612980  89.9742470  16.6993430  38.9180030
  89.5519740  15.7683320  37.8014080  94.5260190  17.3403790  32.1925530
  94.6473010  17.2990270  33.1411350  94.1408700  18.2027940  32.0372260
  98.4888560  15.1171190  40.2089220  98.5061300  15.5679840  41.0531070
  98.2404140  14.2176830  40.4222660  93.5381690  19.6504930  31.5908830
  92.9698590  19.2023180  30.9644740  94.2470690  20.0097710  31.0573980
 101.9159310  12.5303370  46.0475600 102.2405080  11.7993030  46.5733580
 101.9515820  12.2117010  45.1456590  94.7648010  20.3993490  40.9484180
  95.1318140  19.9252060  41.6945520  94.5753070  21.2735060  41.2892520
  87.6288500  15.1437180  37.0777650  87.3435420  14.7792850  37.9156270
  87.5667360  14.4117640  36.4640790  92.5547380  19.4402130  43.2668390
  92.2504450  20.3194110  43.4918750  93.5093840  19.5001920  43.3025830
  91.0829170  23.6463120  33.8635240  90.3091430  23.1060740  33.7033960
  91.8123800  23.1269730  33.5253000 101.8417150  22.6428480  39.6561630
 102.5616270  23.1383770  39.2657740 101.6398970  21.9646370  39.0115500
  97.3027090  14.0366440  33.7991020  96.4891700  13.5379610  33.7236330
  97.1089040  14.8764690  33.3827370  97.2235950  22.7137540  45.5430630
  97.1573260  21.7933210  45.2888220  96.5941090  22.8112980  46.2575270
 100.0175480  18.4086090  32.0953180 100.9055100  18.7203320  31.9204520
  99.9880570  17.5358340  31.7033760  91.1266570  23.3143500  37.5014050
  91.6445240  22.5111760  37.4470940  90.6750590  23.2522640  38.3430880
  96.0136070  24.5809780  32.7741350  96.3551770  25.3252010  32.2784670
  95.1848780  24.8940900  33.1366180  91.8124230  20.7389110  47.2979300
  91.5124370  20.8846290  46.4007120  92.5835470  20.1794400  47.2052690
  97.1552680  25.5358110  45.2934430  97.1697220  24.6039070  45.0753340
  96.4477780  25.6217870  45.9324200 102.2889750  19.7197930  31.5633040
 102.2053470  20.1512150  30.7129480 103.0083940  20.1796280  31.9959860
 103.3663890  22.1765450  44.6403010 102.6412080  22.7694230  44.4432400
 103.8939350  22.1688990  43.8416380 103.3177000  26.5740190  34.2915170
 102.6753160  25.9195810  34.5658890 102.9307660  26.9795280  33.5155840
  98.8963480  23.9025620  38.1386860  99.2487300  23.3053750  37.4788230
  98.0125810  23.5769850  38.3095110  94.9826760  24.6623310  35.5457270
  95.6697890  25.2092520  35.9264860  94.1959180  25.2064040  35.5806880
  87.1219160  20.2796130  31.0374350  87.9914010  20.5620930  31.3210270
  86.6309480  21.0932000  30.9223160  94.2853970  21.6669340  35.1582630
  94.7416750  22.4774590  35.3842820  93.9342180  21.3492480  35.9901120
  96.5886580  27.1775680  42.3874930  97.2328800  27.3835060  43.0648350
  96.9516020  26.4164080  41.9345780  90.1865750  12.0106990  35.6305150
  90.0580380  12.0024890  36.5790070  89.3627770  12.3490080  35.2796160
  97.8618660  25.1808030  41.1052380  98.5040890  24.4801190  41.2184550
  98.3868010  25.9606470  40.9249270 101.7074380  25.4656650  30.8291520
 101.4811960  24.7487090  31.4216160 101.3170580  25.2169090  29.9913270
  99.6356280  25.9802930  44.3088440  99.9712520  26.5669620  44.9866360
  98.7156620  25.8495640  44.5386230  87.4890410  29.4923510  31.6035980
  87.8488050  30.0912850  30.9493250  87.3482750  30.0383400  32.3771010
  87.1859680  13.7698110  45.0911850  86.4718200  13.9695030  45.6964460
  87.6054720  12.9937680  45.4626650 101.2890630  23.3828590  32.4905680
 101.0012330  23.8441280  33.2783560 102.0842800  22.9226360  32.7589900
  95.4644860  26.0294260  47.4776500  95.1441730  25.3103500  48.0222190
  94.7903220  26.7049330  47.5512560  93.5059030  26.8754710  32.4209650
  93.4969130  27.6084400  31.8054160  92.5857390  26.6286290  32.5136610
  89.1065670  22.0969600  33.1656410  88.4993620  22.8368500  33.1751710
  89.5815020  22.1868960  32.3394610  98.6798460  16.2620420  42.8413300
  99.0479280  15.4415630  43.1692870  97.8196660  16.3222310  43.2568950
 102.0460490  15.2177360  33.6500860 101.4173650  15.3223030  32.9359090
 101.5512410  15.4374140  34.4394740  96.4918630  26.9382950  31.0834840
  96.5930610  26.7346940  30.1536820  95.5920370  26.6841230  31.2882620
  94.0144520  17.4963310  35.0658740  93.3060670  17.9649650  35.5072350
  94.2989000  16.8385320  35.7003930  95.6400450  18.9160010  43.0651270
  96.1385700  19.3905830  43.7303120  95.7823400  17.9923530  43.2721300
  98.0459950  14.2213970  36.5054530  97.9227730  14.2400100  35.5564040
  98.9944510  14.2692910  36.6252930  95.1336740  29.4569270  35.7782510
  95.3878240  29.4190660  34.8561880  94.1849220  29.3302600  35.7710760
  92.2179540  15.8048390  32.4409450  93.0670070  16.2418540  32.3749640
  91.8510810  16.1168650  33.2681510 102.8467310  15.1327970  43.9079660
 102.3440910  15.8733370  44.2473470 103.6623970  15.5211970  43.5916450
 101.1389320  20.3761150  37.3541020 100.1979460  20.3911380  37.5288710
 101.4533390  19.5897110  37.8001320  91.1170960  22.0580750  30.9144980
  91.8834230  21.9462110  31.4770410  91.1945650  21.3618720  30.2621750
  89.8117720  19.4905820  31.5977870  89.8921310  18.5433330  31.7095270
  90.7037470  19.8212700  31.7038530 103.1414900  27.5470000  39.0295280
 103.2662320  28.3701170  39.5019090 104.0080460  27.3360730  38.6819430
  90.6132430  29.6401210  38.7012410  91.3494910  29.0916670  38.9720980
  90.9973350  30.5057220  38.5618400  87.4977910  25.7074780  34.5753920
  86.5717690  25.9495920  34.5659330  87.9634340  26.5349040  34.4538670
  93.7234740  28.8131520  30.5237980  94.5163350  29.1020350  30.0719770
  93.2039090  28.3823690  29.8450460  98.4555340  24.9327150  47.8373400
  97.8493500  24.9558750  47.0969150  98.1509450  24.2010190  48.3740650
  99.8855710  28.6607440  46.4482810 100.8377460  28.5765460  46.3983050
  99.7383930  29.3249150  47.1216600 102.7764910  28.0401650  31.9474720
 102.4906420  27.6266790  31.1328900 102.5784460  28.9689360  31.8275240
  94.2412140  24.0334930  30.3880330  94.1362780  23.4187280  31.1141710
  94.0736360  23.5100820  29.6043340  94.3926460  22.7191730  46.3669560
  93.6272130  23.2876730  46.2824230  94.5742420  22.4267940  45.4737790
  97.4814870  23.0954960  30.9922320  96.9324970  23.5424260  31.6365060
  98.1034130  22.5904210  31.5159990 101.5349810  24.4497060  46.9244580
 102.2759280  24.7872820  46.4212040 100.7722490  24.6189120  46.3714350
  93.1489990  22.0545880  32.8887620  93.5706410  21.8885750  33.7319010
  93.2740830  21.2446110  32.3942760  91.3117410  18.0342430  45.6958600
  90.7813870  17.5433380  45.0681940  91.9805480  18.4626630  45.1616530
  95.6617630  21.0783490  30.1364720  96.1823290  20.3632510  29.7705870
  96.3086030  21.7169360  30.4365230 100.2095470  22.5011890  45.4599790
 100.6236490  22.6556970  46.3090210  99.2746470  22.6267110  45.6225570
 100.6817640  19.8408050  47.4638940 101.2638410  19.0860370  47.3759420
 100.8579410  20.3715490  46.6870420  91.7989710  15.0004800  45.7755890
  91.7046580  14.3825550  45.0506760  91.2187100  15.7271090  45.5485800
  94.5651150  13.5578040  42.8083280  94.1168450  13.5802300  41.9628830
  93.9316350  13.1597060  43.4053580  94.9710700  22.4532370  43.4295720
  95.3898810  23.2965100  43.2571960  94.0519330  22.5904410  43.2002500
  97.3074600  20.1848550  44.8133560  97.4270810  19.5889690  45.5528400
  98.1668600  20.2218240  44.3934860  99.6462500  20.7385740  43.3896070
  99.1197720  21.2628360  42.7861210  99.9893840  21.3713130  44.0205800
  92.0448890  18.1279110  29.8345780  91.8437950  17.2646470  30.1959120
  91.8740940  18.0412470  28.8967380  94.0743370  16.7269900  46.0709380
  94.6643060  16.4185750  46.7587200  93.2563610  16.2549650  46.2269280
  98.8936800  16.3435710  46.3042400  98.2052320  15.6817250  46.2392390
  99.6142820  15.8973980  46.7490860  99.5237200  12.9387340  32.3632660
  99.8039490  12.0955240  32.7192080  98.7502930  13.1710450  32.8771410
  90.8431690  15.2279730  29.8223660  91.1457590  15.2347160  28.9142810
  91.5826280  14.8777590  30.3191320  95.6780330  29.9936590  44.8040100
  95.6039030  30.8971730  45.1112470  94.7759170  29.6748490  44.7762170
  94.0616620  14.1714350  30.8079860  93.7138620  13.4938340  30.2282310
  94.2629390  13.7103860  31.6223250  96.2265660  29.1595100  32.4266460
  97.1216450  29.4980070  32.4485220  96.2583290  28.4374510  31.7990740
  89.8661820  24.5322150  30.6553460  90.3036690  25.0751820  31.3111040
  90.3509550  23.7069100  30.6649800  87.0807620  27.3211180  38.1073720
  87.4110630  26.4532240  37.8752360  87.5098620  27.5269700  38.9378680
  91.6769540  25.6520190  35.7675690  91.3765080  25.5285160  36.6679600
  91.5707030  24.7928780  35.3591420  87.5697830  28.1881770  40.8455350
  87.1328820  28.3682570  41.6779500  88.1375510  28.9456390  40.7037070
 103.2060010  27.6898770  45.1332660 102.6062000  27.7491330  44.3896580
 103.3353910  26.7503750  45.2629510 104.4461460  25.4316590  30.4702370
 103.6154420  25.4993240  30.9409600 104.6233290  26.3220710  30.1669230
 103.9017920  22.1764070  32.9736570 104.6636830  22.7460720  33.0796260
 103.9172290  21.6091270  33.7444880  87.4022260  20.7002000  37.2044230
  86.7471100  20.4313640  36.5603930  88.2400210  20.5906480  36.7546210
 104.9077890  23.0314170  37.8178500 105.2786720  22.2481490  37.4114470
 105.5479820  23.7203270  37.6395800 101.8911650  24.4150750  43.2308820
 101.0771490  24.8447910  43.4934610 102.2985850  25.0269160  42.6177870
 103.9537090  22.4698440  30.1309090 104.2285930  23.3777320  30.0028310
 103.7647830  22.4060970  31.0671080 100.3512700  15.4943290  31.4262720
 100.7697580  15.3074270  30.5859380 100.0448760  14.6422340  31.7365650
 103.8502430  20.4067430  35.1238520 103.4746030  19.6395360  34.6919810
 103.1205550  20.7890130  35.6113450  88.4398190  21.0854570  41.7447570
  88.8071230  20.9981970  42.6243590  87.8709010  20.3221120  41.6454430
 103.2402050  19.5538950  44.7578040 103.0088140  19.3251700  43.8575990
 103.5006600  20.4738500  44.7122930  87.9914190  17.9963660  45.6505990
  87.0970240  17.9630420  45.9899700  88.5311740  18.1950450  46.4157240
 101.6790120  14.7795380  47.5357740 102.5560300  14.7878780  47.9191740
 101.6910960  14.0426220  46.9250090  86.6160340  17.9100930  33.1469560
  85.7124420  18.1731130  32.9721220  87.1000960  18.1812100  32.3669520
 103.1253390  18.6324920  38.4245760 103.6490870  18.1387570  37.7935930
 103.7112810  18.7675280  39.1693330 103.3043110  18.7164790  41.9465310
 102.3545820  18.6828330  42.0610300 103.4856120  19.6264900  41.7115080
  89.1587550  16.9666470  31.0563940  89.8679250  16.5449690  30.5711220
  88.4427490  17.0341700  30.4247290  88.8061710  13.0205800  30.0966590
  89.5289840  13.5614740  30.4147810  89.0786230  12.7469220  29.2208130
 102.6153360  17.8898270  34.3638170 103.1112480  17.6569140  35.1487050
 102.4169430  17.0510110  33.9475810  88.4953900  12.2711990  39.9989210
  89.1430090  11.7209370  39.5584370  88.9155740  12.5255140  40.8205020
 104.0440520  16.5259220  36.8975850 103.9339800  16.3715260  37.8358120
 104.8048110  15.9980160  36.6551260 102.3906240  12.4653350  43.3558850
 103.0278460  13.0787490  43.7218040 102.5381130  12.5014010  42.4108080
 104.9330790  14.3567140  30.1381990 105.8580100  14.2248320  29.9300280
 104.9106580  14.4359960  31.0918440 105.0069280  15.1277800  32.7638700
 104.2120780  15.0622920  33.2931610 105.2112560  16.0628440  32.7524050
 101.9487700  29.1669350  36.7577090 102.5446770  28.8453920  36.0811510
 102.2065850  28.6941170  37.5490360  88.2485900  12.4267660  42.7414530
  87.9000720  12.8831480  43.5072710  87.9173600  11.5324790  42.8236960
  89.8550270  25.5987260  46.9067720  89.8119900  25.2280170  47.7882180
  89.9861280  26.5364830  47.0469540  93.5556300  27.1546850  42.5077440
  93.3147660  27.4221410  41.6207960  94.4958940  27.3252580  42.5628300
  95.7610720  13.6179540  46.2633950  95.6999610  14.2101370  47.0129360
  96.7011100  13.5105500  46.1184210  98.3985280  13.2749600  45.9026240
  99.0125690  13.5928890  45.2407320  98.9434840  12.7898190  46.5222100
 104.8160460  29.1741230  43.3088080 104.3218740  29.5710100  42.5915210
 104.2073750  28.5490440  43.7025360  88.9206540  11.9543860  46.0165300
  89.4689530  11.7731910  45.2531410  88.9861850  11.1637970  46.5521610
  99.1393320  11.8381740  42.2295530  98.2653160  12.1716850  42.0268460
  99.0304070  11.3654920  43.0547400 100.0465300  14.0452610  43.6137250
  99.7178660  13.2304370  43.2338980 100.9947600  14.0022420  43.4902940
 102.4999910  29.8164650  40.5874820 102.0402880  30.5680460  40.2132840
 101.8712370  29.0971120  40.5289620  89.3250530  25.9107890  42.9773540
  88.5984590  25.2913180  42.9099490  89.3859680  26.3048500  42.1071620
  92.9295630  28.1252890  39.7622950  93.4460650  27.5140250  39.2371210
  93.5793010  28.6281670  40.2533960  95.6691130  29.0161380  40.5891930
  95.9568940  28.7615680  39.7124940  96.1814350  28.4638740  41.1797500
  96.8868140  12.7551580  41.1688440  96.1039930  13.2297080  41.4485200
  96.5931070  11.8506410  41.0601620 101.4389210  13.4574680  39.2137530
 101.8797300  13.4019780  38.3659130 101.1696800  14.3732690  39.2847710
 103.3027780  13.0889920  37.2246350 103.2416180  12.1451140  37.0777370
 104.0819810  13.1970010  37.7699810  87.6080530  29.2282280  36.1870300
  87.4402570  28.5952960  36.8852190  86.7415040  29.4341680  35.8364490
  88.2308550  13.0599060  33.6902160  88.9887910  13.1727940  33.1166190
  87.7685720  13.8968260  33.6445590  94.7722360  15.1738330  36.6804470
  93.9596870  14.7995220  36.3400350  95.2764000  14.4183410  36.9825660
  99.2747340  11.8380780  37.9187540  99.8776710  12.4100990  38.3936060
  98.5340330  12.4020220  37.6961440 102.4181940  12.2402340  33.1927820
 102.6132570  13.1385790  33.4595250 101.6311810  12.0089420  33.6860770
  89.2143230  27.9215510  33.6320440  88.6890850  28.3023540  32.9282400
  89.1387810  28.5466280  34.3530150  90.6033700  13.5863110  32.2304130
  91.1326460  12.7992910  32.1012080  91.2362020  14.2654300  32.4639660
  92.7971540  13.3238250  35.2849520  92.1674280  12.6225560  35.4519650
  92.2576680  14.0842380  35.0682680  95.7363490  29.9377480  47.9560130
  96.6630800  29.7021750  47.9996090  95.7213920  30.7649480  47.4746160
 103.9708550  29.4803050  34.9534380 104.1460740  28.7940790  34.3095300
 103.2730120  30.0050100  34.5611050  92.9227100  12.6022230  47.7202010
  92.6411370  13.1055830  46.9562830  93.3046800  11.8043980  47.3544140
  91.8136200  29.8697890  32.5069690  92.5455020  29.5857170  31.9593580
  92.0729870  29.6311170  33.3969070  90.9750990  25.9862620  32.5116020
  90.3459870  26.4547720  33.0601850  91.0898820  25.1411840  32.9462210
  99.5242560  12.0175810  48.2982480  99.4108010  12.3370420  49.1934000
 100.3412300  12.4188320  48.0019760 102.3041050  29.1647340  47.7801170
 103.0966370  28.6696570  47.5727130 102.5974200  29.8437480  48.3876780
  98.4300710  20.0368280  18.6617220  98.3494760  19.1222890  18.3908930
  98.0165130  20.5335350  17.9556930  96.5618750  21.8147300  20.5426490
  95.7860850  21.3347740  20.8325060  97.2131680  21.1352950  20.3682650
  90.5784580  22.1267110  21.4202250  89.7469460  21.8715820  21.8198760
  91.1865560  22.1977880  22.1560170 100.5826180  26.2207490  19.3225620
 100.1207710  25.4494730  19.6512790 101.3951730  26.2473560  19.8278070
  90.5585840  26.1607200  21.6160270  90.8613880  25.2704940  21.4370490
  91.3029430  26.7177420  21.3882520  88.9876530  17.0869000  15.2044640
  88.0993230  17.4284970  15.1024520  89.2717720  16.8869320  14.3125470
  86.9509540  19.6874650  21.0884340  87.5225650  18.9196850  21.0887980
  86.9511080  19.9863410  20.1790950  96.8089490  28.5065500  18.9429610
  96.1900930  28.9623000  18.3724050  97.6641270  28.6616960  18.5419310
  96.0027740  24.4904490  20.5496650  95.9336020  23.5494430  20.3885780
  96.7647600  24.5805900  21.1219220  88.1934410  15.0959010  22.8753270
  88.0137250  14.1984760  23.1556030  87.7914490  15.6430880  23.5500220
  97.0332910  17.2974870  20.7765580  97.4097730  16.4246750  20.6639250
  96.9352420  17.6333570  19.8856020  91.1637920  15.6700500  16.2383020
  91.2704670  16.5704230  16.5451780  90.2530280  15.6218470  15.9477670
 100.8157030  14.7925310  17.7093920 101.6366650  14.3021880  17.7519400
 100.8491110  15.3822970  18.4625760  88.8121080  17.5919510  21.4835610
  89.4931190  17.8557880  22.1023010  88.4969130  16.7520380  21.8173620
  93.0045650  18.6386870  20.5708200  93.5123870  19.1367840  21.2113220
  93.5358890  17.8622070  20.3947560 105.1056580  16.8092060  24.2737550
 104.4008750  17.1973770  23.7552660 105.3714500  17.5042350  24.8758480
  91.2881750  13.2785430  24.8371620  91.2900190  13.7957820  24.0317520
  90.4586060  12.8015610  24.8141550  97.6752840  23.3904740  16.3361520
  97.0570110  23.8554190  15.7724240  98.1876090  24.0832220  16.7531030
  92.5384600  22.9180610  23.0145120  92.2053980  23.5449530  23.6566190
  92.7151280  23.4442490  22.2346790 101.0518510  16.7325690  20.4821460
 100.3474080  17.0210580  21.0624570 101.4130670  17.5425800  20.1221020
  90.9697080  14.9895390  22.8442070  91.3113890  15.8337440  22.5495940
  90.0312890  15.1379130  22.9607410  91.7503700  24.8861410  24.8294300
  92.3677700  25.5612490  24.5478750  90.8896820  25.2949390  24.7381800
  87.0436040  24.0761270  13.7101150  86.6664020  24.5648370  12.9786050
  87.3009110  24.7486550  14.3407680 102.6681290  26.3500820  22.7448940
 101.9844810  27.0199930  22.7365610 103.2075580  26.5481470  21.9793800
 104.1205430  16.1780480  20.8730670 103.1730340  16.2119460  21.0046100
 104.4455420  16.9919430  21.2580030  94.6524970  12.4777660  19.1686660
  94.9599950  11.9224550  18.4522160  93.7225670  12.6122120  18.9859650
 100.2040030  28.1944950  21.4594120 100.2167190  27.7907240  20.5916380
  99.6515250  28.9692240  21.3555550 101.4985450  24.9161170  16.5484290
 101.3881780  23.9735500  16.6733710 101.4953700  25.2776810  17.4347050
  99.6025470  23.0974790  22.7876730 100.0194260  22.8834900  21.9530190
 100.3265290  23.3547580  23.3585350  97.0405730  20.5426490  15.9046780
  96.1135010  20.4763870  16.1335250  97.1930550  21.4806620  15.7902020
  97.0274810  16.8143490  12.9013940  96.0878480  16.9757450  12.9866400
  97.3458070  17.5329170  12.3549930 103.5487570  21.4962010  22.8792970
 102.7206200  21.5655100  22.4043100 104.1438050  22.0816320  22.4108800
 101.0703020  22.1046790  16.4082030 100.4515440  21.7666340  15.7608330
 101.0527470  21.4606550  17.1161220 100.5129580  18.2831330  23.8247840
 100.1000760  19.1085040  24.0787830  99.7805530  17.6976370  23.6324200
  92.6462370  21.0691230  18.6866510  92.2419370  20.3568480  18.1912410
  92.7325490  20.7244470  19.5754550  93.1144070  24.7558790  20.8505720
  92.8172360  24.1504260  20.1713500  94.0643890  24.7936100  20.7395080
  91.3590990  17.8434440  22.4665550  91.9105580  17.9529780  21.6918800
  91.8734500  18.2172040  23.1820780 101.2029680  28.3290660  24.5128820
 100.7260240  29.1362850  24.3201430 100.5191470  27.6768990  24.6655030
  92.2062500  24.4940480  27.5013520  91.3091030  24.7180450  27.7486920
  92.2315370  24.6175420  26.5524920  99.2467720  21.3433600  13.4154780
  99.6861000  20.5056030  13.2692600  99.9596140  21.9763000  13.5018920
  91.0333720  21.3653800  26.0770890  90.8941490  22.2376600  26.4458290
  90.1515080  21.0226610  25.9318830  97.3563100  26.2829670  17.3836020
  97.7959010  27.0254000  16.9691410  97.2949990  26.5256240  18.3074980
  92.8314070  27.3075500  28.2856040  92.8029500  27.7118450  27.4184470
  92.6679040  26.3785860  28.1227640 102.8284860  12.5976410  11.7295820
 102.5157520  12.6903240  12.6294890 103.5897330  13.1757440  11.6793250
  89.3467000  19.9636210  16.1873160  89.2264600  20.6898300  15.5754430
  89.0367890  19.1939120  15.7101070 104.7828890  28.0902600  29.5820210
 105.2588610  28.5685490  30.2609290 105.4036050  28.0220090  28.8565710
  86.9852370  23.1351350  21.9941800  87.0632790  23.2700120  21.0497520
  87.5994050  22.4267240  22.1869920  88.2300000  24.8351540  18.4047980
  87.8228080  24.9766130  17.5501580  89.1213010  24.5511700  18.2019190
 104.1862140  25.2815450  26.7420220 104.3125200  25.0427330  25.8237400
 104.2283520  24.4499990  27.2142300  98.0478880  28.9843450  25.3115030
  98.5623550  28.8951460  26.1137460  97.2047960  29.3303150  25.6042940
 100.0233280  29.2698790  14.7399030  99.8634420  28.9801730  15.6380860
  99.8579990  28.4938920  14.2044260  92.5021660  29.0497320  16.5170650
  92.3264140  28.1332860  16.3038450  91.6477400  29.4084610  16.7568450
  99.7259410  26.7786350  13.2997030  99.0324570  26.7763640  12.6399310
 100.4682270  26.3545670  12.8691200  99.2909340  28.4049060  17.3745520
  99.7466290  27.6238440  17.6884140  99.6301860  29.1155880  17.9186700
 104.0386150  17.3347910  27.7069960 103.4230420  17.8427580  27.1785420
 103.7182570  16.4346240  27.6495900  87.0411890  24.1765520  24.5336260
  87.2042930  23.7070880  23.7155630  87.5064340  23.6689080  25.1985100
  91.8130660  13.3071280  19.5696830  91.3698810  14.0880820  19.2381350
  92.3715650  13.6301170  20.2767770  96.1000470  16.1739800  25.1732150
  95.6379840  16.3822820  25.9852090  95.6978580  15.3599150  24.8702820
 101.1004980  17.3948750  26.3028810 100.2498570  17.0954500  26.6237880
 100.9406770  17.6390760  25.3912630  98.1954690  18.8950500  28.4027600
  98.5208100  18.0614250  28.0629830  98.9835020  19.4179020  28.5505930
  94.9289480  12.9281980  14.4502660  94.3043660  12.9241850  15.1755970
  94.8419600  12.0612940  14.0538630  93.8506560  13.8518610  21.4286430
  94.1478890  14.7581440  21.3478450  94.3992120  13.3637390  20.8146000
  91.6044880  18.4304850  17.2978080  91.3785800  18.2142020  18.2024700
  90.8237410  18.8633310  16.9524050  98.8342640  18.4368220  15.8968730
  98.2351530  19.1604020  15.7132350  99.3822250  18.3745000  15.1145180
  94.0444090  19.3290430  27.9638350  93.9487690  18.3885160  27.8138750
  94.8876070  19.5505500  27.5686420  97.4407510  17.0731760  17.9272010
  97.8337080  17.3903960  17.1140700  97.8024360  16.1943640  18.0416530
  89.1754630  15.7404100  26.1172130  88.7818020  16.5879310  26.3244910
  88.4873030  15.1030470  26.3080770  95.7499680  15.8239070  29.1868870
  95.0598000  15.6311270  29.8214960  96.4931980  16.1073710  29.7193170
  86.4771680  13.6632560  20.1502210  86.1884730  14.2335420  20.8627190
  87.2217440  13.1837010  20.5133440  86.6641910  17.6052680  11.3604930
  86.5816580  18.5483440  11.5019920  86.3124970  17.4627590  10.4817280
  98.0262650  19.6637510  22.0222790  97.2943770  20.1724320  22.3712890
  97.6286990  18.8467490  21.7211570  94.4640040  16.3391710  20.4275280
  94.4676100  15.8981660  19.5779820  95.3591160  16.6609040  20.5347100
  90.3142420  16.2218200  19.3869490  89.9742470  16.6993430  20.1436540
  89.5519740  15.7683320  19.0270590  94.5260190  17.3403790  13.4182040
  94.6473010  17.2990270  14.3667860  94.1408700  18.2027940  13.2628770
  98.4888560  15.1171190  21.4345730  98.5061300  15.5679840  22.2787580
  98.2404140  14.2176830  21.6479170  93.5381690  19.6504930  12.8165340
  92.9698590  19.2023180  12.1901250  94.2470690  20.0097710  12.2830490
 101.9159310  12.5303370  27.2732110 102.2405080  11.7993030  27.7990090
 101.9515820  12.2117010  26.3713100  88.6150870  23.5516950  26.6932070
  88.2305660  22.9110620  27.2915030  88.9263060  24.2553070  27.2626800
  94.7648010  20.3993490  22.1740690  95.1318140  19.9252060  22.9202030
  94.5753070  21.2735060  22.5149030  87.6288500  15.1437180  18.3034160
  87.3435420  14.7792850  19.1412780  87.5667360  14.4117640  17.6897300
  92.5547380  19.4402130  24.4924900  92.2504450  20.3194110  24.7175260
  93.5093840  19.5001920  24.5282340  91.0829170  23.6463120  15.0891750
  90.3091430  23.1060740  14.9290470  91.8123800  23.1269730  14.7509510
 101.8417150  22.6428480  20.8818140 102.5616270  23.1383770  20.4914250
 101.6398970  21.9646370  20.2372010  97.3027090  14.0366440  15.0247530
  96.4891700  13.5379610  14.9492840  97.1089040  14.8764690  14.6083880
  97.2235950  22.7137540  26.7687140  97.1573260  21.7933210  26.5144730
  96.5941090  22.8112980  27.4831780 100.0175480  18.4086090  13.3209690
 100.9055100  18.7203320  13.1461030  99.9880570  17.5358340  12.9290270
  91.1266570  23.3143500  18.7270560  91.6445240  22.5111760  18.6727450
  90.6750590  23.2522640  19.5687390  96.0136070  24.5809780  13.9997860
  96.3551770  25.3252010  13.5041180  95.1848780  24.8940900  14.3622690
  88.6111110  20.2804870  25.6396260  88.2526050  20.9458720  26.2269600
  88.3165670  19.4488420  26.0108880  91.8124230  20.7389110  28.5235810
  91.5124370  20.8846290  27.6263630  92.5835470  20.1794400  28.4309200
  97.1552680  25.5358110  26.5190940  97.1697220  24.6039070  26.3009850
  96.4477780  25.6217870  27.1580710 102.2889750  19.7197930  12.7889550
 102.2053470  20.1512150  11.9385990 103.0083940  20.1796280  13.2216370
 103.3663890  22.1765450  25.8659520 102.6412080  22.7694230  25.6688910
 103.8939350  22.1688990  25.0672890 103.3177000  26.5740190  15.5171680
 102.6753160  25.9195810  15.7915400 102.9307660  26.9795280  14.7412350
  98.8963480  23.9025620  19.3643370  99.2487300  23.3053750  18.7044740
  98.0125810  23.5769850  19.5351620  94.9826760  24.6623310  16.7713780
  95.6697890  25.2092520  17.1521370  94.1959180  25.2064040  16.8063390
  87.1219160  20.2796130  12.2630860  87.9914010  20.5620930  12.5466780
  86.6309480  21.0932000  12.1479670  94.2853970  21.6669340  16.3839140
  94.7416750  22.4774590  16.6099330  93.9342180  21.3492480  17.2157630
  96.5886580  27.1775680  23.6131440  97.2328800  27.3835060  24.2904860
  96.9516020  26.4164080  23.1602290  90.1865750  12.0106990  16.8561660
  90.0580380  12.0024890  17.8046580  89.3627770  12.3490080  16.5052670
  97.8618660  25.1808030  22.3308890  98.5040890  24.4801190  22.4441060
  98.3868010  25.9606470  22.1505780 101.7074380  25.4656650  12.0548030
 101.4811960  24.7487090  12.6472670 101.3170580  25.2169090  11.2169780
  99.6356280  25.9802930  25.5344950  99.9712520  26.5669620  26.2122870
  98.7156620  25.8495640  25.7642740  87.4890410  29.4923510  12.8292490
  87.8488050  30.0912850  12.1749760  87.3482750  30.0383400  13.6027520
  87.1859680  13.7698110  26.3168360  86.4718200  13.9695030  26.9220970
  87.6054720  12.9937680  26.6883160 101.2890630  23.3828590  13.7162190
 101.0012330  23.8441280  14.5040070 102.0842800  22.9226360  13.9846410
  87.4732270  27.7578370  27.3034890  87.5823390  26.8173110  27.1630280
  86.8212830  28.0233120  26.6548620  95.4644860  26.0294260  28.7033010
  95.1441730  25.3103500  29.2478700  94.7903220  26.7049330  28.7769070
  93.5059030  26.8754710  13.6466160  93.4969130  27.6084400  13.0310670
  92.5857390  26.6286290  13.7393120  89.1065670  22.0969600  14.3912920
  88.4993620  22.8368500  14.4008220  89.5815020  22.1868960  13.5651120
  98.6798460  16.2620420  24.0669810  99.0479280  15.4415630  24.3949380
  97.8196660  16.3222310  24.4825460 102.0460490  15.2177360  14.8757370
 101.4173650  15.3223030  14.1615600 101.5512410  15.4374140  15.6651250
  96.4918630  26.9382950  12.3091350  96.5930610  26.7346940  11.3793330
  95.5920370  26.6841230  12.5139130  94.0144520  17.4963310  16.2915250
  93.3060670  17.9649650  16.7328860  94.2989000  16.8385320  16.9260440
  95.6400450  18.9160010  24.2907780  96.1385700  19.3905830  24.9559630
  95.7823400  17.9923530  24.4977810  98.0459950  14.2213970  17.7311040
  97.9227730  14.2400100  16.7820550  98.9944510  14.2692910  17.8509440
  95.1336740  29.4569270  17.0039020  95.3878240  29.4190660  16.0818390
  94.1849220  29.3302600  16.9967270  92.2179540  15.8048390  13.6665960
  93.0670070  16.2418540  13.6006150  91.8510810  16.1168650  14.4938020
 102.8467310  15.1327970  25.1336170 102.3440910  15.8733370  25.4729980
 103.6623970  15.5211970  24.8172960 101.1389320  20.3761150  18.5797530
 100.1979460  20.3911380  18.7545220 101.4533390  19.5897110  19.0257830
  91.1170960  22.0580750  12.1401490  91.8834230  21.9462110  12.7026920
  91.1945650  21.3618720  11.4878260  89.8117720  19.4905820  12.8234380
  89.8921310  18.5433330  12.9351780  90.7037470  19.8212700  12.9295040
 103.1414900  27.5470000  20.2551790 103.2662320  28.3701170  20.7275600
 104.0080460  27.3360730  19.9075940  90.6132430  29.6401210  19.9268920
  91.3494910  29.0916670  20.1977490  90.9973350  30.5057220  19.7874910
  87.4977910  25.7074780  15.8010430  86.5717690  25.9495920  15.7915840
  87.9634340  26.5349040  15.6795180  89.6190710  28.8247280  29.1154500
  90.4203440  29.1459330  29.5289900  89.1042530  28.4642860  29.8374410
  93.7234740  28.8131520  11.7494490  94.5163350  29.1020350  11.2976280
  93.2039090  28.3823690  11.0706970  98.4555340  24.9327150  29.0629910
  97.8493500  24.9558750  28.3225660  98.1509450  24.2010190  29.5997160
  99.8855710  28.6607440  27.6739320 100.8377460  28.5765460  27.6239560
  99.7383930  29.3249150  28.3473110 102.7764910  28.0401650  13.1731230
 102.4906420  27.6266790  12.3585410 102.5784460  28.9689360  13.0531750
  87.3388520  21.3120740  28.0590550  87.8427540  20.7328020  28.6306780
  86.5995940  21.5960970  28.5966920  94.2412140  24.0334930  11.6136840
  94.1362780  23.4187280  12.3398220  94.0736360  23.5100820  10.8299850
  94.3926460  22.7191730  27.5926070  93.6272130  23.2876730  27.5080740
  94.5742420  22.4267940  26.6994300  97.4814870  23.0954960  12.2178830
  96.9324970  23.5424260  12.8621570  98.1034130  22.5904210  12.7416500
 101.5349810  24.4497060  28.1501090 102.2759280  24.7872820  27.6468550
 100.7722490  24.6189120  27.5970860  89.3711600  19.4550330  28.9540620
  89.4116940  19.1564200  29.8625850  90.2257100  19.8557940  28.7948140
  93.1489990  22.0545880  14.1144130  93.5706410  21.8885750  14.9575520
  93.2740830  21.2446110  13.6199270  91.3117410  18.0342430  26.9215110
  90.7813870  17.5433380  26.2938450  91.9805480  18.4626630  26.3873040
  95.6617630  21.0783490  11.3621230  96.1823290  20.3632510  10.9962380
  96.3086030  21.7169360  11.6621740 100.2095470  22.5011890  26.6856300
 100.6236490  22.6556970  27.5346720  99.2746470  22.6267110  26.8482080
 100.6817640  19.8408050  28.6895450 101.2638410  19.0860370  28.6015930
 100.8579410  20.3715490  27.9126930  91.7989710  15.0004800  27.0012400
  91.7046580  14.3825550  26.2763270  91.2187100  15.7271090  26.7742310
  94.5651150  13.5578040  24.0339790  94.1168450  13.5802300  23.1885340
  93.9316350  13.1597060  24.6310090  94.9710700  22.4532370  24.6552230
  95.3898810  23.2965100  24.4828470  94.0519330  22.5904410  24.4259010
  97.3074600  20.1848550  26.0390070  97.4270810  19.5889690  26.7784910
  98.1668600  20.2218240  25.6191370  99.6462500  20.7385740  24.6152580
  99.1197720  21.2628360  24.0117720  99.9893840  21.3713130  25.2462310
  92.0448890  18.1279110  11.0602290  91.8437950  17.2646470  11.4215630
  91.8740940  18.0412470  10.1223890  92.8218120  28.7585380  25.7709960
  92.2839210  29.4831440  25.4518660  93.0752080  28.2815720  24.9807300
  94.0743370  16.7269900  27.2965890  94.6643060  16.4185750  27.9843710
  93.2563610  16.2549650  27.4525790  98.8936800  16.3435710  27.5298910
  98.2052320  15.6817250  27.4648900  99.6142820  15.8973980  27.9747370
  99.5237200  12.9387340  13.5889170  99.8039490  12.0955240  13.9448590
  98.7502930  13.1710450  14.1027920  90.8431690  15.2279730  11.0480170
  91.1457590  15.2347160  10.1399320  91.5826280  14.8777590  11.5447830
  95.6780330  29.9936590  26.0296610  95.6039030  30.8971730  26.3368980
  94.7759170  29.6748490  26.0018680  94.0616620  14.1714350  12.0336370
  93.7138620  13.4938340  11.4538820  94.2629390  13.7103860  12.8479760
  96.2265660  29.1595100  13.6522970  97.1216450  29.4980070  13.6741730
  96.2583290  28.4374510  13.0247250  89.8661820  24.5322150  11.8809970
  90.3036690  25.0751820  12.5367550  90.3509550  23.7069100  11.8906310
  87.0807620  27.3211180  19.3330230  87.4110630  26.4532240  19.1008870
  87.5098620  27.5269700  20.1635190  91.6769540  25.6520190  16.9932200
  91.3765080  25.5285160  17.8936110  91.5707030  24.7928780  16.5847930
  87.5697830  28.1881770  22.0711860  87.1328820  28.3682570  22.9036010
  88.1375510  28.9456390  21.9293580 103.2060010  27.6898770  26.3589170
 102.6062000  27.7491330  25.6153090 103.3353910  26.7503750  26.4886020
 104.4461460  25.4316590  11.6958880 103.6154420  25.4993240  12.1666110
 104.6233290  26.3220710  11.3925740 103.9017920  22.1764070  14.1993080
 104.6636830  22.7460720  14.3052770 103.9172290  21.6091270  14.9701390
  87.4022260  20.7002000  18.4300740  86.7471100  20.4313640  17.7860440
  88.2400210  20.5906480  17.9802720 104.9077890  23.0314170  19.0435010
 105.2786720  22.2481490  18.6370980 105.5479820  23.7203270  18.8652310
 101.8911650  24.4150750  24.4565330 101.0771490  24.8447910  24.7191120
 102.2985850  25.0269160  23.8434380 103.9537090  22.4698440  11.3565600
 104.2285930  23.3777320  11.2284820 103.7647830  22.4060970  12.2927590
 100.3512700  15.4943290  12.6519230 100.7697580  15.3074270  11.8115890
 100.0448760  14.6422340  12.9622160 103.8502430  20.4067430  16.3495030
 103.4746030  19.6395360  15.9176320 103.1205550  20.7890130  16.8369960
  88.4398190  21.0854570  22.9704080  88.8071230  20.9981970  23.8500100
  87.8709010  20.3221120  22.8710940 103.2402050  19.5538950  25.9834550
 103.0088140  19.3251700  25.0832500 103.5006600  20.4738500  25.9379440
  87.9914190  17.9963660  26.8762500  87.0970240  17.9630420  27.2156210
  88.5311740  18.1950450  27.6413750 101.6790120  14.7795380  28.7614250
 102.5560300  14.7878780  29.1448250 101.6910960  14.0426220  28.1506600
  86.6160340  17.9100930  14.3726070  85.7124420  18.1731130  14.1977730
  87.1000960  18.1812100  13.5926030 103.1253390  18.6324920  19.6502270
 103.6490870  18.1387570  19.0192440 103.7112810  18.7675280  20.3949840
 103.3043110  18.7164790  23.1721820 102.3545820  18.6828330  23.2866810
 103.4856120  19.6264900  22.9371590  89.1587550  16.9666470  12.2820450
  89.8679250  16.5449690  11.7967730  88.4427490  17.0341700  11.6503800
  88.8061710  13.0205800  11.3223100  89.5289840  13.5614740  11.6404320
  89.0786230  12.7469220  10.4464640 102.6153360  17.8898270  15.5894680
 103.1112480  17.6569140  16.3743560 102.4169430  17.0510110  15.1732320
  88.4953900  12.2711990  21.2245720  89.1430090  11.7209370  20.7840880
  88.9155740  12.5255140  22.0461530 104.0440520  16.5259220  18.1232360
 103.9339800  16.3715260  19.0614630 104.8048110  15.9980160  17.8807770
 102.3906240  12.4653350  24.5815360 103.0278460  13.0787490  24.9474550
 102.5381130  12.5014010  23.6364590 104.9330790  14.3567140  11.3638500
 105.8580100  14.2248320  11.1556790 104.9106580  14.4359960  12.3174950
 105.0069280  15.1277800  13.9895210 104.2120780  15.0622920  14.5188120
 105.2112560  16.0628440  13.9780560 101.9487700  29.1669350  17.9833600
 102.5446770  28.8453920  17.3068020 102.2065850  28.6941170  18.7746870
  88.2485900  12.4267660  23.9671040  87.9000720  12.8831480  24.7329220
  87.9173600  11.5324790  24.0493470  89.8550270  25.5987260  28.1324230
  89.8119900  25.2280170  29.0138690  89.9861280  26.5364830  28.2726050
  93.5556300  27.1546850  23.7333950  93.3147660  27.4221410  22.8464470
  94.4958940  27.3252580  23.7884810  95.7610720  13.6179540  27.4890460
  95.6999610  14.2101370  28.2385870  96.7011100  13.5105500  27.3440720
  98.3985280  13.2749600  27.1282750  99.0125690  13.5928890  26.4663830
  98.9434840  12.7898190  27.7478610 104.8160460  29.1741230  24.5344590
 104.3218740  29.5710100  23.8171720 104.2073750  28.5490440  24.9281870
  88.9206540  11.9543860  27.2421810  89.4689530  11.7731910  26.4787920
  88.9861850  11.1637970  27.7778120  89.6938300  28.5449510  25.2522010
  89.0998620  28.4134210  25.9912050  89.6862140  27.7087650  24.7864110
  99.1393320  11.8381740  23.4552040  98.2653160  12.1716850  23.2524970
  99.0304070  11.3654920  24.2803910 100.0465300  14.0452610  24.8393760
  99.7178660  13.2304370  24.4595490 100.9947600  14.0022420  24.7159450
 102.4999910  29.8164650  21.8131330 102.0402880  30.5680460  21.4389350
 101.8712370  29.0971120  21.7546130  89.3250530  25.9107890  24.2030050
  88.5984590  25.2913180  24.1356000  89.3859680  26.3048500  23.3328130
  92.9295630  28.1252890  20.9879460  93.4460650  27.5140250  20.4627720
  93.5793010  28.6281670  21.4790470  95.6691130  29.0161380  21.8148440
  95.9568940  28.7615680  20.9381450  96.1814350  28.4638740  22.4054010
  96.8868140  12.7551580  22.3944950  96.1039930  13.2297080  22.6741710
  96.5931070  11.8506410  22.2858130 101.4389210  13.4574680  20.4394040
 101.8797300  13.4019780  19.5915640 101.1696800  14.3732690  20.5104220
 103.3027780  13.0889920  18.4502860 103.2416180  12.1451140  18.3033880
 104.0819810  13.1970010  18.9956320  87.6080530  29.2282280  17.4126810
  87.4402570  28.5952960  18.1108700  86.7415040  29.4341680  17.0621000
  88.2308550  13.0599060  14.9158670  88.9887910  13.1727940  14.3422700
  87.7685720  13.8968260  14.8702100  94.7722360  15.1738330  17.9060980
  93.9596870  14.7995220  17.5656860  95.2764000  14.4183410  18.2082170
  99.2747340  11.8380780  19.1444050  99.8776710  12.4100990  19.6192570
  98.5340330  12.4020220  18.9217950 102.4181940  12.2402340  14.4184330
 102.6132570  13.1385790  14.6851760 101.6311810  12.0089420  14.9117280
  89.2143230  27.9215510  14.8576950  88.6890850  28.3023540  14.1538910
  89.1387810  28.5466280  15.5786660  90.6033700  13.5863110  13.4560640
  91.1326460  12.7992910  13.3268590  91.2362020  14.2654300  13.6896170
  92.7971540  13.3238250  16.5106030  92.1674280  12.6225560  16.6776160
  92.2576680  14.0842380  16.2939190  95.7363490  29.9377480  29.1816640
  96.6630800  29.7021750  29.2252600  95.7213920  30.7649480  28.7002670
 103.9708550  29.4803050  16.1790890 104.1460740  28.7940790  15.5351810
 103.2730120  30.0050100  15.7867560  92.9227100  12.6022230  28.9458520
  92.6411370  13.1055830  28.1819340  93.3046800  11.8043980  28.5800650
  91.8136200  29.8697890  13.7326200  92.5455020  29.5857170  13.1850090
  92.0729870  29.6311170  14.6225580  90.9750990  25.9862620  13.7372530
  90.3459870  26.4547720  14.2858360  91.0898820  25.1411840  14.1718720
  99.5242560  12.0175810  29.5238990  99.4108010  12.3370420  30.4190510
 100.3412300  12.4188320  29.2276270 102.3041050  29.1647340  29.0057680
 103.0966370  28.6696570  28.7983640 102.5974200  29.8437480  29.6133290
  96.5618750  21.8147300   1.7683000  95.7860850  21.3347740   2.0581570
  97.2131680  21.1352950   1.5939160  90.5784580  22.1267110   2.6458760
  89.7469460  21.8715820   3.0455270  91.1865560  22.1977880   3.3816680
  90.5585840  26.1607200   2.8416780  90.8613880  25.2704940   2.6627000
  91.3029430  26.7177420   2.6139030  96.0027740  24.4904490   1.7753160
  95.9336020  23.5494430   1.6142290  96.7647600  24.5805900   2.3475730
  88.1934410  15.0959010   4.1009780  88.0137250  14.1984760   4.3812540
  87.7914490  15.6430880   4.7756730  88.8121080  17.5919510   2.7092120
  89.4931190  17.8557880   3.3279520  88.4969130  16.7520380   3.0430130
  93.0045650  18.6386870   1.7964710  93.5123870  19.1367840   2.4369730
  93.5358890  17.8622070   1.6204070 105.1056580  16.8092060   5.4994060
 104.4008750  17.1973770   4.9809170 105.3714500  17.5042350   6.1014990
  91.2881750  13.2785430   6.0628130  91.2900190  13.7957820   5.2574030
  90.4586060  12.8015610   6.0398060  92.5384600  22.9180610   4.2401630
  92.2053980  23.5449530   4.8822700  92.7151280  23.4442490   3.4603300
  90.9697080  14.9895390   4.0698580  91.3113890  15.8337440   3.7752450
  90.0312890  15.1379130   4.1863920  91.7503700  24.8861410   6.0550810
  92.3677700  25.5612490   5.7735260  90.8896820  25.2949390   5.9638310
 102.6681290  26.3500820   3.9705450 101.9844810  27.0199930   3.9622120
 103.2075580  26.5481470   3.2050310 104.1205430  16.1780480   2.0987180
 103.1730340  16.2119460   2.2302610 104.4455420  16.9919430   2.4836540
 100.2040030  28.1944950   2.6850630 100.2167190  27.7907240   1.8172890
  99.6515250  28.9692240   2.5812060  99.6025470  23.0974790   4.0133240
 100.0194260  22.8834900   3.1786700 100.3265290  23.3547580   4.5841860
 103.5487570  21.4962010   4.1049480 102.7206200  21.5655100   3.6299610
 104.1438050  22.0816320   3.6365310 100.5129580  18.2831330   5.0504350
 100.1000760  19.1085040   5.3044340  99.7805530  17.6976370   4.8580710
  91.3590990  17.8434440   3.6922060  91.9105580  17.9529780   2.9175310
  91.8734500  18.2172040   4.4077290 101.2029680  28.3290660   5.7385330
 100.7260240  29.1362850   5.5457940 100.5191470  27.6768990   5.8911540
  92.2062500  24.4940480   8.7270030  91.3091030  24.7180450   8.9743430
  92.2315370  24.6175420   7.7781430  91.0333720  21.3653800   7.3027400
  90.8941490  22.2376600   7.6714800  90.1515080  21.0226610   7.1575340
  92.8314070  27.3075500   9.5112550  92.8029500  27.7118450   8.6440980
  92.6679040  26.3785860   9.3484150 104.7828890  28.0902600  10.8076720
 105.2588610  28.5685490  11.4865800 105.4036050  28.0220090  10.0822220
  86.9852370  23.1351350   3.2198310  87.0632790  23.2700120   2.2754030
  87.5994050  22.4267240   3.4126430 104.1862140  25.2815450   7.9676730
 104.3125200  25.0427330   7.0493910 104.2283520  24.4499990   8.4398810
  98.0478880  28.9843450   6.5371540  98.5623550  28.8951460   7.3393970
  97.2047960  29.3303150   6.8299450 104.0386150  17.3347910   8.9326470
 103.4230420  17.8427580   8.4041930 103.7182570  16.4346240   8.8752410
  87.0411890  24.1765520   5.7592770  87.2042930  23.7070880   4.9412140
  87.5064340  23.6689080   6.4241610  96.1000470  16.1739800   6.3988660
  95.6379840  16.3822820   7.2108600  95.6978580  15.3599150   6.0959330
 101.1004980  17.3948750   7.5285320 100.2498570  17.0954500   7.8494390
 100.9406770  17.6390760   6.6169140  98.1954690  18.8950500   9.6284110
  98.5208100  18.0614250   9.2886340  98.9835020  19.4179020   9.7762440
  93.8506560  13.8518610   2.6542940  94.1478890  14.7581440   2.5734960
  94.3992120  13.3637390   2.0402510  94.0444090  19.3290430   9.1894860
  93.9487690  18.3885160   9.0395260  94.8876070  19.5505500   8.7942930
  89.1754630  15.7404100   7.3428640  88.7818020  16.5879310   7.5501420
  88.4873030  15.1030470   7.5337280  95.7499680  15.8239070  10.4125380
  95.0598000  15.6311270  11.0471470  96.4931980  16.1073710  10.9449680
  98.0262650  19.6637510   3.2479300  97.2943770  20.1724320   3.5969400
  97.6286990  18.8467490   2.9468080  98.4888560  15.1171190   2.6602240
  98.5061300  15.5679840   3.5044090  98.2404140  14.2176830   2.8735680
 101.9159310  12.5303370   8.4988620 102.2405080  11.7993030   9.0246600
 101.9515820  12.2117010   7.5969610  88.6150870  23.5516950   7.9188580
  88.2305660  22.9110620   8.5171540  88.9263060  24.2553070   8.4883310
  94.7648010  20.3993490   3.3997200  95.1318140  19.9252060   4.1458540
  94.5753070  21.2735060   3.7405540  92.5547380  19.4402130   5.7181410
  92.2504450  20.3194110   5.9431770  93.5093840  19.5001920   5.7538850
 101.8417150  22.6428480   2.1074650 102.5616270  23.1383770   1.7170760
 101.6398970  21.9646370   1.4628520  97.2235950  22.7137540   7.9943650
  97.1573260  21.7933210   7.7401240  96.5941090  22.8112980   8.7088290
  88.6111110  20.2804870   6.8652770  88.2526050  20.9458720   7.4526110
  88.3165670  19.4488420   7.2365390  91.8124230  20.7389110   9.7492320
  91.5124370  20.8846290   8.8520140  92.5835470  20.1794400   9.6565710
  97.1552680  25.5358110   7.7447450  97.1697220  24.6039070   7.5266360
  96.4477780  25.6217870   8.3837220 103.3663890  22.1765450   7.0916030
 102.6412080  22.7694230   6.8945420 103.8939350  22.1688990   6.2929400
  96.5886580  27.1775680   4.8387950  97.2328800  27.3835060   5.5161370
  96.9516020  26.4164080   4.3858800  97.8618660  25.1808030   3.5565400
  98.5040890  24.4801190   3.6697570  98.3868010  25.9606470   3.3762290
  99.6356280  25.9802930   6.7601460  99.9712520  26.5669620   7.4379380
  98.7156620  25.8495640   6.9899250  87.1859680  13.7698110   7.5424870
  86.4718200  13.9695030   8.1477480  87.6054720  12.9937680   7.9139670
  87.4732270  27.7578370   8.5291400  87.5823390  26.8173110   8.3886790
  86.8212830  28.0233120   7.8805130  95.4644860  26.0294260   9.9289520
  95.1441730  25.3103500  10.4735210  94.7903220  26.7049330  10.0025580
  98.6798460  16.2620420   5.2926320  99.0479280  15.4415630   5.6205890
  97.8196660  16.3222310   5.7081970  95.6400450  18.9160010   5.5164290
  96.1385700  19.3905830   6.1816140  95.7823400  17.9923530   5.7234320
 102.8467310  15.1327970   6.3592680 102.3440910  15.8733370   6.6986490
 103.6623970  15.5211970   6.0429470  89.6190710  28.8247280  10.3411010
  90.4203440  29.1459330  10.7546410  89.1042530  28.4642860  11.0630920
  98.4555340  24.9327150  10.2886420  97.8493500  24.9558750   9.5482170
  98.1509450  24.2010190  10.8253670  99.8855710  28.6607440   8.8995830
 100.8377460  28.5765460   8.8496070  99.7383930  29.3249150   9.5729620
  87.3388520  21.3120740   9.2847060  87.8427540  20.7328020   9.8563290
  86.5995940  21.5960970   9.8223430  94.3926460  22.7191730   8.8182580
  93.6272130  23.2876730   8.7337250  94.5742420  22.4267940   7.9250810
 101.5349810  24.4497060   9.3757600 102.2759280  24.7872820   8.8725060
 100.7722490  24.6189120   8.8227370  89.3711600  19.4550330  10.1797130
  89.4116940  19.1564200  11.0882360  90.2257100  19.8557940  10.0204650
  91.3117410  18.0342430   8.1471620  90.7813870  17.5433380   7.5194960
  91.9805480  18.4626630   7.6129550 100.2095470  22.5011890   7.9112810
 100.6236490  22.6556970   8.7603230  99.2746470  22.6267110   8.0738590
 100.6817640  19.8408050   9.9151960 101.2638410  19.0860370   9.8272440
 100.8579410  20.3715490   9.1383440  91.7989710  15.0004800   8.2268910
  91.7046580  14.3825550   7.5019780  91.2187100  15.7271090   7.9998820
  94.5651150  13.5578040   5.2596300  94.1168450  13.5802300   4.4141850
  93.9316350  13.1597060   5.8566600  94.9710700  22.4532370   5.8808740
  95.3898810  23.2965100   5.7084980  94.0519330  22.5904410   5.6515520
  97.3074600  20.1848550   7.2646580  97.4270810  19.5889690   8.0041420
  98.1668600  20.2218240   6.8447880  99.6462500  20.7385740   5.8409090
  99.1197720  21.2628360   5.2374230  99.9893840  21.3713130   6.4718820
  92.8218120  28.7585380   6.9966470  92.2839210  29.4831440   6.6775170
  93.0752080  28.2815720   6.2063810  94.0743370  16.7269900   8.5222400
  94.6643060  16.4185750   9.2100220  93.2563610  16.2549650   8.6782300
  98.8936800  16.3435710   8.7555420  98.2052320  15.6817250   8.6905410
  99.6142820  15.8973980   9.2003880  95.6780330  29.9936590   7.2553120
  95.6039030  30.8971730   7.5625490  94.7759170  29.6748490   7.2275190
  87.5697830  28.1881770   3.2968370  87.1328820  28.3682570   4.1292520
  88.1375510  28.9456390   3.1550090 103.2060010  27.6898770   7.5845680
 102.6062000  27.7491330   6.8409600 103.3353910  26.7503750   7.7142530
 101.8911650  24.4150750   5.6821840 101.0771490  24.8447910   5.9447630
 102.2985850  25.0269160   5.0690890  88.4398190  21.0854570   4.1960590
  88.8071230  20.9981970   5.0756610  87.8709010  20.3221120   4.0967450
 103.2402050  19.5538950   7.2091060 103.0088140  19.3251700   6.3089010
 103.5006600  20.4738500   7.1635950  87.9914190  17.9963660   8.1019010
  87.0970240  17.9630420   8.4412720  88.5311740  18.1950450   8.8670260
 101.6790120  14.7795380   9.9870760 102.5560300  14.7878780  10.3704760
 101.6910960  14.0426220   9.3763110 103.3043110  18.7164790   4.3978330
 102.3545820  18.6828330   4.5123320 103.4856120  19.6264900   4.1628100
  88.4953900  12.2711990   2.4502230  89.1430090  11.7209370   2.0097390
  88.9155740  12.5255140   3.2718040 102.3906240  12.4653350   5.8071870
 103.0278460  13.0787490   6.1731060 102.5381130  12.5014010   4.8621100
  88.2485900  12.4267660   5.1927550  87.9000720  12.8831480   5.9585730
  87.9173600  11.5324790   5.2749980  89.8550270  25.5987260   9.3580740
  89.8119900  25.2280170  10.2395200  89.9861280  26.5364830   9.4982560
  93.5556300  27.1546850   4.9590460  93.3147660  27.4221410   4.0720980
  94.4958940  27.3252580   5.0141320  95.7610720  13.6179540   8.7146970
  95.6999610  14.2101370   9.4642380  96.7011100  13.5105500   8.5697230
  98.3985280  13.2749600   8.3539260  99.0125690  13.5928890   7.6920340
  98.9434840  12.7898190   8.9735120 104.8160460  29.1741230   5.7601100
 104.3218740  29.5710100   5.0428230 104.2073750  28.5490440   6.1538380
  88.9206540  11.9543860   8.4678320  89.4689530  11.7731910   7.7044430
  88.9861850  11.1637970   9.0034630  89.6938300  28.5449510   6.4778520
  89.0998620  28.4134210   7.2168560  89.6862140  27.7087650   6.0120620
  99.1393320  11.8381740   4.6808550  98.2653160  12.1716850   4.4781480
  99.0304070  11.3654920   5.5060420 100.0465300  14.0452610   6.0650270
  99.7178660  13.2304370   5.6852000 100.9947600  14.0022420   5.9415960
 102.4999910  29.8164650   3.0387840 102.0402880  30.5680460   2.6645860
 101.8712370  29.0971120   2.9802640  89.3250530  25.9107890   5.4286560
  88.5984590  25.2913180   5.3612510  89.3859680  26.3048500   4.5584640
  92.9295630  28.1252890   2.2135970  93.4460650  27.5140250   1.6884230
  93.5793010  28.6281670   2.7046980  95.6691130  29.0161380   3.0404950
  95.9568940  28.7615680   2.1637960  96.1814350  28.4638740   3.6310520
  96.8868140  12.7551580   3.6201460  96.1039930  13.2297080   3.8998220
  96.5931070  11.8506410   3.5114640  95.7363490  29.9377480  10.4073150
  96.6630800  29.7021750  10.4509110  95.7213920  30.7649480   9.9259180
  92.9227100  12.6022230  10.1715030  92.6411370  13.1055830   9.4075850
  93.3046800  11.8043980   9.8057160  99.5242560  12.0175810  10.7495500
  99.4108010  12.3370420  11.6447020 100.3412300  12.4188320  10.4532780
 102.3041050  29.1647340  10.2314190 103.0966370  28.6696570  10.0240150
 102.5974200  29.8437480  10.8389800 100.5826180   7.4464000 150.7430050
 100.1207710   6.6751240 151.0717220 101.3951730   7.4730070 151.2482500
  96.8089490   9.7322010 150.3634040  96.1900930  10.1879510 149.7928480
  97.6641270   9.8873470 149.9623740  97.6752840   4.6161250 147.7565950
  97.0570110   5.0810700 147.1928670  98.1876090   5.3088730 148.1735460
  87.0436040   5.3017780 145.1305580  86.6664020   5.7904880 144.3990480
  87.3009110   5.9743060 145.7612110 101.4985450   6.1417680 147.9688720
 101.3881780   5.1992010 148.0938140 101.4953700   6.5033320 148.8551480
  97.0405730   1.7683000 147.3251210  96.1135010   1.7020380 147.5539680
  97.1930550   2.7063130 147.2106450 101.0703020   3.3303300 147.8286460
 100.4515440   2.9922850 147.1812760 101.0527470   2.6863060 148.5365650
  99.2467720   2.5690110 144.8359210  99.6861000   1.7312540 144.6897030
  99.9596140   3.2019510 144.9223350  97.3563100   7.5086180 148.8040450
  97.7959010   8.2510510 148.3895840  97.2949990   7.7512750 149.7279410
  88.2300000   6.0608050 149.8252410  87.8228080   6.2022640 148.9706010
  89.1213010   5.7768210 149.6223620 100.0233280  10.4955300 146.1603460
  99.8634420  10.2058240 147.0585290  99.8579990   9.7195430 145.6248690
  92.5021660  10.2753830 147.9375080  92.3264140   9.3589370 147.7242880
  91.6477400  10.6341120 148.1772880  99.7259410   8.0042860 144.7201460
  99.0324570   8.0020150 144.0603740 100.4682270   7.5802180 144.2895630
  99.2909340   9.6305570 148.7949950  99.7466290   8.8494950 149.1088570
  99.6301860  10.3412390 149.3391130  91.0829170   4.8719630 146.5096180
  90.3091430   4.3317250 146.3494900  91.8123800   4.3526240 146.1713940
  91.1266570   4.5400010 150.1474990  91.6445240   3.7368270 150.0931880
  90.6750590   4.4779150 150.9891820  96.0136070   5.8066290 145.4202290
  96.3551770   6.5508520 144.9245610  95.1848780   6.1197410 145.7827120
 103.3177000   7.7996700 146.9376110 102.6753160   7.1452320 147.2119830
 102.9307660   8.2051790 146.1616780  98.8963480   5.1282130 150.7847800
  99.2487300   4.5310260 150.1249170  98.0125810   4.8026360 150.9556050
  94.9826760   5.8879820 148.1918210  95.6697890   6.4349030 148.5725800
  94.1959180   6.4320550 148.2267820  94.2853970   2.8925850 147.8043570
  94.7416750   3.7031100 148.0303760  93.9342180   2.5748990 148.6362060
 101.7074380   6.6913160 143.4752460 101.4811960   5.9743600 144.0677100
 101.3170580   6.4425600 142.6374210  87.4890410  10.7180020 144.2496920
  87.8488050  11.3169360 143.5954190  87.3482750  11.2639910 145.0231950
 101.2890630   4.6085100 145.1366620 101.0012330   5.0697790 145.9244500
 102.0842800   4.1482870 145.4050840  93.5059030   8.1011220 145.0670590
  93.4969130   8.8340910 144.4515100  92.5857390   7.8542800 145.1597550
  89.1065670   3.3226110 145.8117350  88.4993620   4.0625010 145.8212650
  89.5815020   3.4125470 144.9855550  96.4918630   8.1639460 143.7295780
  96.5930610   7.9603450 142.7997760  95.5920370   7.9097740 143.9343560
  95.1336740  10.6825780 148.4243450  95.3878240  10.6447170 147.5022820
  94.1849220  10.5559110 148.4171700  91.1170960   3.2837260 143.5605920
  91.8834230   3.1718620 144.1231350  91.1945650   2.5875230 142.9082690
  90.6132430  10.8657720 151.3473350  91.3494910  10.3173180 151.6181920
  90.9973350  11.7313730 151.2079340  87.4977910   6.9331290 147.2214860
  86.5717690   7.1752430 147.2120270  87.9634340   7.7605550 147.0999610
  93.7234740  10.0388030 143.1698920  94.5163350  10.3276860 142.7180710
  93.2039090   9.6080200 142.4911400 102.7764910   9.2658160 144.5935660
 102.4906420   8.8523300 143.7789840 102.5784460  10.1945870 144.4736180
  94.2412140   5.2591440 143.0341270  94.1362780   4.6443790 143.7602650
  94.0736360   4.7357330 142.2504280  97.4814870   4.3211470 143.6383260
  96.9324970   4.7680770 144.2826000  98.1034130   3.8160720 144.1620930
  93.1489990   3.2802390 145.5348560  93.5706410   3.1142260 146.3779950
  93.2740830   2.4702620 145.0403700  96.2265660  10.3851610 145.0727400
  97.1216450  10.7236580 145.0946160  96.2583290   9.6631020 144.4451680
  89.8661820   5.7578660 143.3014400  90.3036690   6.3008330 143.9571980
  90.3509550   4.9325610 143.3110740  87.0807620   8.5467690 150.7534660
  87.4110630   7.6788750 150.5213300  87.5098620   8.7526210 151.5839620
  91.6769540   6.8776700 148.4136630  91.3765080   6.7541670 149.3140540
  91.5707030   6.0185290 148.0052360 104.4461460   6.6573100 143.1163310
 103.6154420   6.7249750 143.5870540 104.6233290   7.5477220 142.8130170
 103.9017920   3.4020580 145.6197510 104.6636830   3.9717230 145.7257200
 103.9172290   2.8347780 146.3905820  87.4022260   1.9258510 149.8505170
  86.7471100   1.6570150 149.2064870  88.2400210   1.8162990 149.4007150
 104.9077890   4.2570680 150.4639440 105.2786720   3.4738000 150.0575410
 105.5479820   4.9459780 150.2856740 103.9537090   3.6954950 142.7770030
 104.2285930   4.6033830 142.6489250 103.7647830   3.6317480 143.7132020
 101.9487700  10.3925860 149.4038030 102.5446770  10.0710430 148.7272450
 102.2065850   9.9197680 150.1951300  87.6080530  10.4538790 148.8331240
  87.4402570   9.8209470 149.5313130  86.7415040  10.6598190 148.4825430
  89.2143230   9.1472020 146.2781380  88.6890850   9.5280050 145.5743340
  89.1387810   9.7722790 146.9991090 103.9708550  10.7059560 147.5995320
 104.1460740  10.0197300 146.9556240 103.2730120  11.2306610 147.2071990
  91.8136200  11.0954400 145.1530630  92.5455020  10.8113680 144.6054520
  92.0729870  10.8567680 146.0430010  90.9750990   7.2119130 145.1576960
  90.3459870   7.6804230 145.7062790  91.0898820   6.3668350 145.5923150
  96.5618750   3.0403810 133.1887430  95.7860850   2.5604250 133.4786000
  97.2131680   2.3609460 133.0143590  90.5784580   3.3523620 134.0663190
  89.7469460   3.0972330 134.4659700  91.1865560   3.4234390 134.8021110
 100.5826180   7.4464000 131.9686560 100.1207710   6.6751240 132.2973730
 101.3951730   7.4730070 132.4739010  90.5585840   7.3863710 134.2621210
  90.8613880   6.4961450 134.0831430  91.3029430   7.9433930 134.0343460
  96.8089490   9.7322010 131.5890550  96.1900930  10.1879510 131.0184990
  97.6641270   9.8873470 131.1880250  96.0027740   5.7161000 133.1957590
  95.9336020   4.7750940 133.0346720  96.7647600   5.8062410 133.7680160
  97.6752840   4.6161250 128.9822460  97.0570110   5.0810700 128.4185180
  98.1876090   5.3088730 129.3991970  92.5384600   4.1437120 135.6606060
  92.2053980   4.7706040 136.3027130  92.7151280   4.6699000 134.8807730
  91.7503700   6.1117920 137.4755240  92.3677700   6.7869000 137.1939690
  90.8896820   6.5205900 137.3842740  87.0436040   5.3017780 126.3562090
  86.6664020   5.7904880 125.6246990  87.3009110   5.9743060 126.9868620
 102.6681290   7.5757330 135.3909880 101.9844810   8.2456440 135.3826550
 103.2075580   7.7737980 134.6254740 100.2040030   9.4201460 134.1055060
 100.2167190   9.0163750 133.2377320  99.6515250  10.1948750 134.0016490
 101.4985450   6.1417680 129.1945230 101.3881780   5.1992010 129.3194650
 101.4953700   6.5033320 130.0807990  99.6025470   4.3231300 135.4337670
 100.0194260   4.1091410 134.5991130 100.3265290   4.5804090 136.0046290
  97.0405730   1.7683000 128.5507720  96.1135010   1.7020380 128.7796190
  97.1930550   2.7063130 128.4362960 103.5487570   2.7218520 135.5253910
 102.7206200   2.7911610 135.0504040 104.1438050   3.3072830 135.0569740
 101.0703020   3.3303300 129.0542970 100.4515440   2.9922850 128.4069270
 101.0527470   2.6863060 129.7622160  93.1144070   5.9815300 133.4966660
  92.8172360   5.3760770 132.8174440  94.0643890   6.0192610 133.3856020
 101.2029680   9.5547170 137.1589760 100.7260240  10.3619360 136.9662370
 100.5191470   8.9025500 137.3115970  92.2062500   5.7196990 140.1474460
  91.3091030   5.9436960 140.3947860  92.2315370   5.8431930 139.1985860
  99.2467720   2.5690110 126.0615720  99.6861000   1.7312540 125.9153540
  99.9596140   3.2019510 126.1479860  91.0333720   2.5910310 138.7231830
  90.8941490   3.4633110 139.0919230  90.1515080   2.2483120 138.5779770
  97.3563100   7.5086180 130.0296960  97.7959010   8.2510510 129.6152350
  97.2949990   7.7512750 130.9535920  92.8314070   8.5332010 140.9316980
  92.8029500   8.9374960 140.0645410  92.6679040   7.6042370 140.7688580
 104.7828890   9.3159110 142.2281150 105.2588610   9.7942000 142.9070230
 105.4036050   9.2476600 141.5026650  86.9852370   4.3607860 134.6402740
  87.0632790   4.4956630 133.6958460  87.5994050   3.6523750 134.8330860
  88.2300000   6.0608050 131.0508920  87.8228080   6.2022640 130.1962520
  89.1213010   5.7768210 130.8480130 104.1862140   6.5071960 139.3881160
 104.3125200   6.2683840 138.4698340 104.2283520   5.6756500 139.8603240
  98.0478880  10.2099960 137.9575970  98.5623550  10.1207970 138.7598400
  97.2047960  10.5559660 138.2503880 100.0233280  10.4955300 127.3859970
  99.8634420  10.2058240 128.2841800  99.8579990   9.7195430 126.8505200
  92.5021660  10.2753830 129.1631590  92.3264140   9.3589370 128.9499390
  91.6477400  10.6341120 129.4029390  99.7259410   8.0042860 125.9457970
  99.0324570   8.0020150 125.2860250 100.4682270   7.5802180 125.5152140
  99.2909340   9.6305570 130.0206460  99.7466290   8.8494950 130.3345080
  99.6301860  10.3412390 130.5647640  87.0411890   5.4022030 137.1797200
  87.2042930   4.9327390 136.3616570  87.5064340   4.8945590 137.8446040
  88.6150870   4.7773460 139.3393010  88.2305660   4.1367130 139.9375970
  88.9263060   5.4809580 139.9087740  91.0829170   4.8719630 127.7352690
  90.3091430   4.3317250 127.5751410  91.8123800   4.3526240 127.3970450
 101.8417150   3.8684990 133.5279080 102.5616270   4.3640280 133.1375190
 101.6398970   3.1902880 132.8832950  97.2235950   3.9394050 139.4148080
  97.1573260   3.0189720 139.1605670  96.5941090   4.0369490 140.1292720
  91.1266570   4.5400010 131.3731500  91.6445240   3.7368270 131.3188390
  90.6750590   4.4779150 132.2148330  96.0136070   5.8066290 126.6458800
  96.3551770   6.5508520 126.1502120  95.1848780   6.1197410 127.0083630
  97.1552680   6.7614620 139.1651880  97.1697220   5.8295580 138.9470790
  96.4477780   6.8474380 139.8041650 103.3663890   3.4021960 138.5120460
 102.6412080   3.9950740 138.3149850 103.8939350   3.3945500 137.7133830
 103.3177000   7.7996700 128.1632620 102.6753160   7.1452320 128.4376340
 102.9307660   8.2051790 127.3873290  98.8963480   5.1282130 132.0104310
  99.2487300   4.5310260 131.3505680  98.0125810   4.8026360 132.1812560
  94.9826760   5.8879820 129.4174720  95.6697890   6.4349030 129.7982310
  94.1959180   6.4320550 129.4524330  94.2853970   2.8925850 129.0300080
  94.7416750   3.7031100 129.2560270  93.9342180   2.5748990 129.8618570
  96.5886580   8.4032190 136.2592380  97.2328800   8.6091570 136.9365800
  96.9516020   7.6420590 135.8063230  97.8618660   6.4064540 134.9769830
  98.5040890   5.7057700 135.0902000  98.3868010   7.1862980 134.7966720
 101.7074380   6.6913160 124.7008970 101.4811960   5.9743600 125.2933610
 101.3170580   6.4425600 123.8630720  99.6356280   7.2059440 138.1805890
  99.9712520   7.7926130 138.8583810  98.7156620   7.0752150 138.4103680
  87.4890410  10.7180020 125.4753430  87.8488050  11.3169360 124.8210700
  87.3482750  11.2639910 126.2488460 101.2890630   4.6085100 126.3623130
 101.0012330   5.0697790 127.1501010 102.0842800   4.1482870 126.6307350
  87.4732270   8.9834880 139.9495830  87.5823390   8.0429620 139.8091220
  86.8212830   9.2489630 139.3009560  95.4644860   7.2550770 141.3493950
  95.1441730   6.5360010 141.8939640  94.7903220   7.9305840 141.4230010
  93.5059030   8.1011220 126.2927100  93.4969130   8.8340910 125.6771610
  92.5857390   7.8542800 126.3854060  89.1065670   3.3226110 127.0373860
  88.4993620   4.0625010 127.0469160  89.5815020   3.4125470 126.2112060
  96.4918630   8.1639460 124.9552290  96.5930610   7.9603450 124.0254270
  95.5920370   7.9097740 125.1600070  95.1336740  10.6825780 129.6499960
  95.3878240  10.6447170 128.7279330  94.1849220  10.5559110 129.6428210
  91.1170960   3.2837260 124.7862430  91.8834230   3.1718620 125.3487860
  91.1945650   2.5875230 124.1339200 103.1414900   8.7726510 132.9012730
 103.2662320   9.5957680 133.3736540 104.0080460   8.5617240 132.5536880
  90.6132430  10.8657720 132.5729860  91.3494910  10.3173180 132.8438430
  90.9973350  11.7313730 132.4335850  87.4977910   6.9331290 128.4471370
  86.5717690   7.1752430 128.4376780  87.9634340   7.7605550 128.3256120
  89.6190710  10.0503790 141.7615440  90.4203440  10.3715840 142.1750840
  89.1042530   9.6899370 142.4835350  93.7234740  10.0388030 124.3955430
  94.5163350  10.3276860 123.9437220  93.2039090   9.6080200 123.7167910
  98.4555340   6.1583660 141.7090850  97.8493500   6.1815260 140.9686600
  98.1509450   5.4266700 142.2458100  99.8855710   9.8863950 140.3200260
 100.8377460   9.8021970 140.2700500  99.7383930  10.5505660 140.9934050
 102.7764910   9.2658160 125.8192170 102.4906420   8.8523300 125.0046350
 102.5784460  10.1945870 125.6992690  87.3388520   2.5377250 140.7051490
  87.8427540   1.9584530 141.2767720  86.5995940   2.8217480 141.2427860
  94.2412140   5.2591440 124.2597780  94.1362780   4.6443790 124.9859160
  94.0736360   4.7357330 123.4760790  94.3926460   3.9448240 140.2387010
  93.6272130   4.5133240 140.1541680  94.5742420   3.6524450 139.3455240
  97.4814870   4.3211470 124.8639770  96.9324970   4.7680770 125.5082510
  98.1034130   3.8160720 125.3877440 101.5349810   5.6753570 140.7962030
 102.2759280   6.0129330 140.2929490 100.7722490   5.8445630 140.2431800
  93.1489990   3.2802390 126.7605070  93.5706410   3.1142260 127.6036460
  93.2740830   2.4702620 126.2660210 100.2095470   3.7268400 139.3317240
 100.6236490   3.8813480 140.1807660  99.2746470   3.8523620 139.4943020
  94.9710700   3.6788880 137.3013170  95.3898810   4.5221610 137.1289410
  94.0519330   3.8160920 137.0719950  99.6462500   1.9642250 137.2613520
  99.1197720   2.4884870 136.6578660  99.9893840   2.5969640 137.8923250
  92.8218120   9.9841890 138.4170900  92.2839210  10.7087950 138.0979600
  93.0752080   9.5072230 137.6268240  95.6780330  11.2193100 138.6757550
  95.6039030  12.1228240 138.9829920  94.7759170  10.9005000 138.6479620
  96.2265660  10.3851610 126.2983910  97.1216450  10.7236580 126.3202670
  96.2583290   9.6631020 125.6708190  89.8661820   5.7578660 124.5270910
  90.3036690   6.3008330 125.1828490  90.3509550   4.9325610 124.5367250
  87.0807620   8.5467690 131.9791170  87.4110630   7.6788750 131.7469810
  87.5098620   8.7526210 132.8096130  91.6769540   6.8776700 129.6393140
  91.3765080   6.7541670 130.5397050  91.5707030   6.0185290 129.2308870
  87.5697830   9.4138280 134.7172800  87.1328820   9.5939080 135.5496950
  88.1375510  10.1712900 134.5754520 103.2060010   8.9155280 139.0050110
 102.6062000   8.9747840 138.2614030 103.3353910   7.9760260 139.1346960
 104.4461460   6.6573100 124.3419820 103.6154420   6.7249750 124.8127050
 104.6233290   7.5477220 124.0386680 103.9017920   3.4020580 126.8454020
 104.6636830   3.9717230 126.9513710 103.9172290   2.8347780 127.6162330
  87.4022260   1.9258510 131.0761680  86.7471100   1.6570150 130.4321380
  88.2400210   1.8162990 130.6263660 104.9077890   4.2570680 131.6895950
 105.2786720   3.4738000 131.2831920 105.5479820   4.9459780 131.5113250
 101.8911650   5.6407260 137.1026270 101.0771490   6.0704420 137.3652060
 102.2985850   6.2525670 136.4895320 103.9537090   3.6954950 124.0026540
 104.2285930   4.6033830 123.8745760 103.7647830   3.6317480 124.9388530
 101.9487700  10.3925860 130.6294540 102.5446770  10.0710430 129.9528960
 102.2065850   9.9197680 131.4207810  89.8550270   6.8243770 140.7785170
  89.8119900   6.4536680 141.6599630  89.9861280   7.7621340 140.9186990
  93.5556300   8.3803360 136.3794890  93.3147660   8.6477920 135.4925410
  94.4958940   8.5509090 136.4345750 104.8160460  10.3997740 137.1805530
 104.3218740  10.7966610 136.4632660 104.2073750   9.7746950 137.5742810
  89.6938300   9.7706020 137.8982950  89.0998620   9.6390720 138.6372990
  89.6862140   8.9344160 137.4325050 102.4999910  11.0421160 134.4592270
 102.0402880  11.7936970 134.0850290 101.8712370  10.3227630 134.4007070
  89.3250530   7.1364400 136.8490990  88.5984590   6.5169690 136.7816940
  89.3859680   7.5305010 135.9789070  92.9295630   9.3509400 133.6340400
  93.4460650   8.7396760 133.1088660  93.5793010   9.8538180 134.1251410
  95.6691130  10.2417890 134.4609380  95.9568940   9.9872190 133.5842390
  96.1814350   9.6895250 135.0514950  87.6080530  10.4538790 130.0587750
  87.4402570   9.8209470 130.7569640  86.7415040  10.6598190 129.7081940
  89.2143230   9.1472020 127.5037890  88.6890850   9.5280050 126.7999850
  89.1387810   9.7722790 128.2247600  95.7363490  11.1633990 141.8277580
  96.6630800  10.9278260 141.8713540  95.7213920  11.9905990 141.3463610
 103.9708550  10.7059560 128.8251830 104.1460740  10.0197300 128.1812750
 103.2730120  11.2306610 128.4328500  91.8136200  11.0954400 126.3787140
  92.5455020  10.8113680 125.8311030  92.0729870  10.8567680 127.2686520
  90.9750990   7.2119130 126.3833470  90.3459870   7.6804230 126.9319300
  91.0898820   6.3668350 126.8179660 102.3041050  10.3903850 141.6518620
 103.0966370   9.8953080 141.4444580 102.5974200  11.0693990 142.2594230
  96.5618750   3.0403810 114.4143940  95.7860850   2.5604250 114.7042510
  97.2131680   2.3609460 114.2400100  90.5784580   3.3523620 115.2919700
  89.7469460   3.0972330 115.6916210  91.1865560   3.4234390 116.0277620
 100.5826180   7.4464000 113.1943070 100.1207710   6.6751240 113.5230240
 101.3951730   7.4730070 113.6995520  90.5585840   7.3863710 115.4877720
  90.8613880   6.4961450 115.3087940  91.3029430   7.9433930 115.2599970
  96.8089490   9.7322010 112.8147060  96.1900930  10.1879510 112.2441500
  97.6641270   9.8873470 112.4136760  96.0027740   5.7161000 114.4214100
  95.9336020   4.7750940 114.2603230  96.7647600   5.8062410 114.9936670
  97.6752840   4.6161250 110.2078970  97.0570110   5.0810700 109.6441690
  98.1876090   5.3088730 110.6248480  92.5384600   4.1437120 116.8862570
  92.2053980   4.7706040 117.5283640  92.7151280   4.6699000 116.1064240
  91.7503700   6.1117920 118.7011750  92.3677700   6.7869000 118.4196200
  90.8896820   6.5205900 118.6099250  87.0436040   5.3017780 107.5818600
  86.6664020   5.7904880 106.8503500  87.3009110   5.9743060 108.2125130
 102.6681290   7.5757330 116.6166390 101.9844810   8.2456440 116.6083060
 103.2075580   7.7737980 115.8511250 100.2040030   9.4201460 115.3311570
 100.2167190   9.0163750 114.4633830  99.6515250  10.1948750 115.2273000
 101.4985450   6.1417680 110.4201740 101.3881780   5.1992010 110.5451160
 101.4953700   6.5033320 111.3064500  99.6025470   4.3231300 116.6594180
 100.0194260   4.1091410 115.8247640 100.3265290   4.5804090 117.2302800
  97.0405730   1.7683000 109.7764230  96.1135010   1.7020380 110.0052700
  97.1930550   2.7063130 109.6619470 103.5487570   2.7218520 116.7510420
 102.7206200   2.7911610 116.2760550 104.1438050   3.3072830 116.2826250
 101.0703020   3.3303300 110.2799480 100.4515440   2.9922850 109.6325780
 101.0527470   2.6863060 110.9878670  93.1144070   5.9815300 114.7223170
  92.8172360   5.3760770 114.0430950  94.0643890   6.0192610 114.6112530
 101.2029680   9.5547170 118.3846270 100.7260240  10.3619360 118.1918880
 100.5191470   8.9025500 118.5372480  92.2062500   5.7196990 121.3730970
  91.3091030   5.9436960 121.6204370  92.2315370   5.8431930 120.4242370
  99.2467720   2.5690110 107.2872230  99.6861000   1.7312540 107.1410050
  99.9596140   3.2019510 107.3736370  91.0333720   2.5910310 119.9488340
  90.8941490   3.4633110 120.3175740  90.1515080   2.2483120 119.8036280
  97.3563100   7.5086180 111.2553470  97.7959010   8.2510510 110.8408860
  97.2949990   7.7512750 112.1792430  92.8314070   8.5332010 122.1573490
  92.8029500   8.9374960 121.2901920  92.6679040   7.6042370 121.9945090
 104.7828890   9.3159110 123.4537660 105.2588610   9.7942000 124.1326740
 105.4036050   9.2476600 122.7283160  86.9852370   4.3607860 115.8659250
  87.0632790   4.4956630 114.9214970  87.5994050   3.6523750 116.0587370
  88.2300000   6.0608050 112.2765430  87.8228080   6.2022640 111.4219030
  89.1213010   5.7768210 112.0736640 104.1862140   6.5071960 120.6137670
 104.3125200   6.2683840 119.6954850 104.2283520   5.6756500 121.0859750
  98.0478880  10.2099960 119.1832480  98.5623550  10.1207970 119.9854910
  97.2047960  10.5559660 119.4760390 100.0233280  10.4955300 108.6116480
  99.8634420  10.2058240 109.5098310  99.8579990   9.7195430 108.0761710
  92.5021660  10.2753830 110.3888100  92.3264140   9.3589370 110.1755900
  91.6477400  10.6341120 110.6285900  99.7259410   8.0042860 107.1714480
  99.0324570   8.0020150 106.5116760 100.4682270   7.5802180 106.7408650
  99.2909340   9.6305570 111.2462970  99.7466290   8.8494950 111.5601590
  99.6301860  10.3412390 111.7904150  87.0411890   5.4022030 118.4053710
  87.2042930   4.9327390 117.5873080  87.5064340   4.8945590 119.0702550
  88.6150870   4.7773460 120.5649520  88.2305660   4.1367130 121.1632480
  88.9263060   5.4809580 121.1344250  91.0829170   4.8719630 108.9609200
  90.3091430   4.3317250 108.8007920  91.8123800   4.3526240 108.6226960
 101.8417150   3.8684990 114.7535590 102.5616270   4.3640280 114.3631700
 101.6398970   3.1902880 114.1089460  97.2235950   3.9394050 120.6404590
  97.1573260   3.0189720 120.3862180  96.5941090   4.0369490 121.3549230
  91.1266570   4.5400010 112.5988010  91.6445240   3.7368270 112.5444900
  90.6750590   4.4779150 113.4404840  96.0136070   5.8066290 107.8715310
  96.3551770   6.5508520 107.3758630  95.1848780   6.1197410 108.2340140
  97.1552680   6.7614620 120.3908390  97.1697220   5.8295580 120.1727300
  96.4477780   6.8474380 121.0298160 103.3663890   3.4021960 119.7376970
 102.6412080   3.9950740 119.5406360 103.8939350   3.3945500 118.9390340
 103.3177000   7.7996700 109.3889130 102.6753160   7.1452320 109.6632850
 102.9307660   8.2051790 108.6129800  98.8963480   5.1282130 113.2360820
  99.2487300   4.5310260 112.5762190  98.0125810   4.8026360 113.4069070
  94.9826760   5.8879820 110.6431230  95.6697890   6.4349030 111.0238820
  94.1959180   6.4320550 110.6780840  94.2853970   2.8925850 110.2556590
  94.7416750   3.7031100 110.4816780  93.9342180   2.5748990 111.0875080
  96.5886580   8.4032190 117.4848890  97.2328800   8.6091570 118.1622310
  96.9516020   7.6420590 117.0319740  97.8618660   6.4064540 116.2026340
  98.5040890   5.7057700 116.3158510  98.3868010   7.1862980 116.0223230
 101.7074380   6.6913160 105.9265480 101.4811960   5.9743600 106.5190120
 101.3170580   6.4425600 105.0887230  99.6356280   7.2059440 119.4062400
  99.9712520   7.7926130 120.0840320  98.7156620   7.0752150 119.6360190
  87.4890410  10.7180020 106.7009940  87.8488050  11.3169360 106.0467210
  87.3482750  11.2639910 107.4744970 101.2890630   4.6085100 107.5879640
 101.0012330   5.0697790 108.3757520 102.0842800   4.1482870 107.8563860
  87.4732270   8.9834880 121.1752340  87.5823390   8.0429620 121.0347730
  86.8212830   9.2489630 120.5266070  95.4644860   7.2550770 122.5750460
  95.1441730   6.5360010 123.1196150  94.7903220   7.9305840 122.6486520
  93.5059030   8.1011220 107.5183610  93.4969130   8.8340910 106.9028120
  92.5857390   7.8542800 107.6110570  89.1065670   3.3226110 108.2630370
  88.4993620   4.0625010 108.2725670  89.5815020   3.4125470 107.4368570
  96.4918630   8.1639460 106.1808800  96.5930610   7.9603450 105.2510780
  95.5920370   7.9097740 106.3856580  95.1336740  10.6825780 110.8756470
  95.3878240  10.6447170 109.9535840  94.1849220  10.5559110 110.8684720
  91.1170960   3.2837260 106.0118940  91.8834230   3.1718620 106.5744370
  91.1945650   2.5875230 105.3595710 103.1414900   8.7726510 114.1269240
 103.2662320   9.5957680 114.5993050 104.0080460   8.5617240 113.7793390
  90.6132430  10.8657720 113.7986370  91.3494910  10.3173180 114.0694940
  90.9973350  11.7313730 113.6592360  87.4977910   6.9331290 109.6727880
  86.5717690   7.1752430 109.6633290  87.9634340   7.7605550 109.5512630
  89.6190710  10.0503790 122.9871950  90.4203440  10.3715840 123.4007350
  89.1042530   9.6899370 123.7091860  93.7234740  10.0388030 105.6211940
  94.5163350  10.3276860 105.1693730  93.2039090   9.6080200 104.9424420
  98.4555340   6.1583660 122.9347360  97.8493500   6.1815260 122.1943110
  98.1509450   5.4266700 123.4714610  99.8855710   9.8863950 121.5456770
 100.8377460   9.8021970 121.4957010  99.7383930  10.5505660 122.2190560
 102.7764910   9.2658160 107.0448680 102.4906420   8.8523300 106.2302860
 102.5784460  10.1945870 106.9249200  87.3388520   2.5377250 121.9308000
  87.8427540   1.9584530 122.5024230  86.5995940   2.8217480 122.4684370
  94.2412140   5.2591440 105.4854290  94.1362780   4.6443790 106.2115670
  94.0736360   4.7357330 104.7017300  94.3926460   3.9448240 121.4643520
  93.6272130   4.5133240 121.3798190  94.5742420   3.6524450 120.5711750
  97.4814870   4.3211470 106.0896280  96.9324970   4.7680770 106.7339020
  98.1034130   3.8160720 106.6133950 101.5349810   5.6753570 122.0218540
 102.2759280   6.0129330 121.5186000 100.7722490   5.8445630 121.4688310
  93.1489990   3.2802390 107.9861580  93.5706410   3.1142260 108.8292970
  93.2740830   2.4702620 107.4916720 100.2095470   3.7268400 120.5573750
 100.6236490   3.8813480 121.4064170  99.2746470   3.8523620 120.7199530
  94.9710700   3.6788880 118.5269680  95.3898810   4.5221610 118.3545920
  94.0519330   3.8160920 118.2976460  99.6462500   1.9642250 118.4870030
  99.1197720   2.4884870 117.8835170  99.9893840   2.5969640 119.1179760
  92.8218120   9.9841890 119.6427410  92.2839210  10.7087950 119.3236110
  93.0752080   9.5072230 118.8524750  95.6780330  11.2193100 119.9014060
  95.6039030  12.1228240 120.2086430  94.7759170  10.9005000 119.8736130
  96.2265660  10.3851610 107.5240420  97.1216450  10.7236580 107.5459180
  96.2583290   9.6631020 106.8964700  89.8661820   5.7578660 105.7527420
  90.3036690   6.3008330 106.4085000  90.3509550   4.9325610 105.7623760
  87.0807620   8.5467690 113.2047680  87.4110630   7.6788750 112.9726320
  87.5098620   8.7526210 114.0352640  91.6769540   6.8776700 110.8649650
  91.3765080   6.7541670 111.7653560  91.5707030   6.0185290 110.4565380
  87.5697830   9.4138280 115.9429310  87.1328820   9.5939080 116.7753460
  88.1375510  10.1712900 115.8011030 103.2060010   8.9155280 120.2306620
 102.6062000   8.9747840 119.4870540 103.3353910   7.9760260 120.3603470
 104.4461460   6.6573100 105.5676330 103.6154420   6.7249750 106.0383560
 104.6233290   7.5477220 105.2643190 103.9017920   3.4020580 108.0710530
 104.6636830   3.9717230 108.1770220 103.9172290   2.8347780 108.8418840
  87.4022260   1.9258510 112.3018190  86.7471100   1.6570150 111.6577890
  88.2400210   1.8162990 111.8520170 104.9077890   4.2570680 112.9152460
 105.2786720   3.4738000 112.5088430 105.5479820   4.9459780 112.7369760
 101.8911650   5.6407260 118.3282780 101.0771490   6.0704420 118.5908570
 102.2985850   6.2525670 117.7151830 103.9537090   3.6954950 105.2283050
 104.2285930   4.6033830 105.1002270 103.7647830   3.6317480 106.1645040
 101.9487700  10.3925860 111.8551050 102.5446770  10.0710430 111.1785470
 102.2065850   9.9197680 112.6464320  89.8550270   6.8243770 122.0041680
  89.8119900   6.4536680 122.8856140  89.9861280   7.7621340 122.1443500
  93.5556300   8.3803360 117.6051400  93.3147660   8.6477920 116.7181920
  94.4958940   8.5509090 117.6602260 104.8160460  10.3997740 118.4062040
 104.3218740  10.7966610 117.6889170 104.2073750   9.7746950 118.7999320
  89.6938300   9.7706020 119.1239460  89.0998620   9.6390720 119.8629500
  89.6862140   8.9344160 118.6581560 102.4999910  11.0421160 115.6848780
 102.0402880  11.7936970 115.3106800 101.8712370  10.3227630 115.6263580
  89.3250530   7.1364400 118.0747500  88.5984590   6.5169690 118.0073450
  89.3859680   7.5305010 117.2045580  92.9295630   9.3509400 114.8596910
  93.4460650   8.7396760 114.3345170  93.5793010   9.8538180 115.3507920
  95.6691130  10.2417890 115.6865890  95.9568940   9.9872190 114.8098900
  96.1814350   9.6895250 116.2771460  87.6080530  10.4538790 111.2844260
  87.4402570   9.8209470 111.9826150  86.7415040  10.6598190 110.9338450
  89.2143230   9.1472020 108.7294400  88.6890850   9.5280050 108.0256360
  89.1387810   9.7722790 109.4504110  95.7363490  11.1633990 123.0534090
  96.6630800  10.9278260 123.0970050  95.7213920  11.9905990 122.5720120
 103.9708550  10.7059560 110.0508340 104.1460740  10.0197300 109.4069260
 103.2730120  11.2306610 109.6585010  91.8136200  11.0954400 107.6043650
  92.5455020  10.8113680 107.0567540  92.0729870  10.8567680 108.4943030
  90.9750990   7.2119130 107.6089980  90.3459870   7.6804230 108.1575810
  91.0898820   6.3668350 108.0436170 102.3041050  10.3903850 122.8775130
 103.0966370   9.8953080 122.6701090 102.5974200  11.0693990 123.4850740
  96.5618750   3.0403810  95.6400450  95.7860850   2.5604250  95.9299020
  97.2131680   2.3609460  95.4656610  90.5784580   3.3523620  96.5176210
  89.7469460   3.0972330  96.9172720  91.1865560   3.4234390  97.2534130
 100.5826180   7.4464000  94.4199580 100.1207710   6.6751240  94.7486750
 101.3951730   7.4730070  94.9252030  90.5585840   7.3863710  96.7134230
  90.8613880   6.4961450  96.5344450  91.3029430   7.9433930  96.4856480
  96.8089490   9.7322010  94.0403570  96.1900930  10.1879510  93.4698010
  97.6641270   9.8873470  93.6393270  96.0027740   5.7161000  95.6470610
  95.9336020   4.7750940  95.4859740  96.7647600   5.8062410  96.2193180
  97.6752840   4.6161250  91.4335480  97.0570110   5.0810700  90.8698200
  98.1876090   5.3088730  91.8504990  92.5384600   4.1437120  98.1119080
  92.2053980   4.7706040  98.7540150  92.7151280   4.6699000  97.3320750
  91.7503700   6.1117920  99.9268260  92.3677700   6.7869000  99.6452710
  90.8896820   6.5205900  99.8355760  87.0436040   5.3017780  88.8075110
  86.6664020   5.7904880  88.0760010  87.3009110   5.9743060  89.4381640
 102.6681290   7.5757330  97.8422900 101.9844810   8.2456440  97.8339570
 103.2075580   7.7737980  97.0767760 100.2040030   9.4201460  96.5568080
 100.2167190   9.0163750  95.6890340  99.6515250  10.1948750  96.4529510
 101.4985450   6.1417680  91.6458250 101.3881780   5.1992010  91.7707670
 101.4953700   6.5033320  92.5321010  99.6025470   4.3231300  97.8850690
 100.0194260   4.1091410  97.0504150 100.3265290   4.5804090  98.4559310
  97.0405730   1.7683000  91.0020740  96.1135010   1.7020380  91.2309210
  97.1930550   2.7063130  90.8875980 103.5487570   2.7218520  97.9766930
 102.7206200   2.7911610  97.5017060 104.1438050   3.3072830  97.5082760
 101.0703020   3.3303300  91.5055990 100.4515440   2.9922850  90.8582290
 101.0527470   2.6863060  92.2135180  93.1144070   5.9815300  95.9479680
  92.8172360   5.3760770  95.2687460  94.0643890   6.0192610  95.8369040
 101.2029680   9.5547170  99.6102780 100.7260240  10.3619360  99.4175390
 100.5191470   8.9025500  99.7628990  92.2062500   5.7196990 102.5987480
  91.3091030   5.9436960 102.8460880  92.2315370   5.8431930 101.6498880
  99.2467720   2.5690110  88.5128740  99.6861000   1.7312540  88.3666560
  99.9596140   3.2019510  88.5992880  91.0333720   2.5910310 101.1744850
  90.8941490   3.4633110 101.5432250  90.1515080   2.2483120 101.0292790
  97.3563100   7.5086180  92.4809980  97.7959010   8.2510510  92.0665370
  97.2949990   7.7512750  93.4048940  92.8314070   8.5332010 103.3830000
  92.8029500   8.9374960 102.5158430  92.6679040   7.6042370 103.2201600
 104.7828890   9.3159110 104.6794170 105.2588610   9.7942000 105.3583250
 105.4036050   9.2476600 103.9539670  86.9852370   4.3607860  97.0915760
  87.0632790   4.4956630  96.1471480  87.5994050   3.6523750  97.2843880
  88.2300000   6.0608050  93.5021940  87.8228080   6.2022640  92.6475540
  89.1213010   5.7768210  93.2993150 104.1862140   6.5071960 101.8394180
 104.3125200   6.2683840 100.9211360 104.2283520   5.6756500 102.3116260
  98.0478880  10.2099960 100.4088990  98.5623550  10.1207970 101.2111420
  97.2047960  10.5559660 100.7016900 100.0233280  10.4955300  89.8372990
  99.8634420  10.2058240  90.7354820  99.8579990   9.7195430  89.3018220
  92.5021660  10.2753830  91.6144610  92.3264140   9.3589370  91.4012410
  91.6477400  10.6341120  91.8542410  99.7259410   8.0042860  88.3970990
  99.0324570   8.0020150  87.7373270 100.4682270   7.5802180  87.9665160
  99.2909340   9.6305570  92.4719480  99.7466290   8.8494950  92.7858100
  99.6301860  10.3412390  93.0160660  87.0411890   5.4022030  99.6310220
  87.2042930   4.9327390  98.8129590  87.5064340   4.8945590 100.2959060
  88.6150870   4.7773460 101.7906030  88.2305660   4.1367130 102.3888990
  88.9263060   5.4809580 102.3600760  91.0829170   4.8719630  90.1865710
  90.3091430   4.3317250  90.0264430  91.8123800   4.3526240  89.8483470
 101.8417150   3.8684990  95.9792100 102.5616270   4.3640280  95.5888210
 101.6398970   3.1902880  95.3345970  97.2235950   3.9394050 101.8661100
  97.1573260   3.0189720 101.6118690  96.5941090   4.0369490 102.5805740
  91.1266570   4.5400010  93.8244520  91.6445240   3.7368270  93.7701410
  90.6750590   4.4779150  94.6661350  96.0136070   5.8066290  89.0971820
  96.3551770   6.5508520  88.6015140  95.1848780   6.1197410  89.4596650
  97.1552680   6.7614620 101.6164900  97.1697220   5.8295580 101.3983810
  96.4477780   6.8474380 102.2554670 103.3663890   3.4021960 100.9633480
 102.6412080   3.9950740 100.7662870 103.8939350   3.3945500 100.1646850
 103.3177000   7.7996700  90.6145640 102.6753160   7.1452320  90.8889360
 102.9307660   8.2051790  89.8386310  98.8963480   5.1282130  94.4617330
  99.2487300   4.5310260  93.8018700  98.0125810   4.8026360  94.6325580
  94.9826760   5.8879820  91.8687740  95.6697890   6.4349030  92.2495330
  94.1959180   6.4320550  91.9037350  94.2853970   2.8925850  91.4813100
  94.7416750   3.7031100  91.7073290  93.9342180   2.5748990  92.3131590
  96.5886580   8.4032190  98.7105400  97.2328800   8.6091570  99.3878820
  96.9516020   7.6420590  98.2576250  97.8618660   6.4064540  97.4282850
  98.5040890   5.7057700  97.5415020  98.3868010   7.1862980  97.2479740
 101.7074380   6.6913160  87.1521990 101.4811960   5.9743600  87.7446630
 101.3170580   6.4425600  86.3143740  99.6356280   7.2059440 100.6318910
  99.9712520   7.7926130 101.3096830  98.7156620   7.0752150 100.8616700
  87.4890410  10.7180020  87.9266450  87.8488050  11.3169360  87.2723720
  87.3482750  11.2639910  88.7001480 101.2890630   4.6085100  88.8136150
 101.0012330   5.0697790  89.6014030 102.0842800   4.1482870  89.0820370
  87.4732270   8.9834880 102.4008850  87.5823390   8.0429620 102.2604240
  86.8212830   9.2489630 101.7522580  95.4644860   7.2550770 103.8006970
  95.1441730   6.5360010 104.3452660  94.7903220   7.9305840 103.8743030
  93.5059030   8.1011220  88.7440120  93.4969130   8.8340910  88.1284630
  92.5857390   7.8542800  88.8367080  89.1065670   3.3226110  89.4886880
  88.4993620   4.0625010  89.4982180  89.5815020   3.4125470  88.6625080
  96.4918630   8.1639460  87.4065310  96.5930610   7.9603450  86.4767290
  95.5920370   7.9097740  87.6113090  95.1336740  10.6825780  92.1012980
  95.3878240  10.6447170  91.1792350  94.1849220  10.5559110  92.0941230
  91.1170960   3.2837260  87.2375450  91.8834230   3.1718620  87.8000880
  91.1945650   2.5875230  86.5852220 103.1414900   8.7726510  95.3525750
 103.2662320   9.5957680  95.8249560 104.0080460   8.5617240  95.0049900
  90.6132430  10.8657720  95.0242880  91.3494910  10.3173180  95.2951450
  90.9973350  11.7313730  94.8848870  87.4977910   6.9331290  90.8984390
  86.5717690   7.1752430  90.8889800  87.9634340   7.7605550  90.7769140
  89.6190710  10.0503790 104.2128460  90.4203440  10.3715840 104.6263860
  89.1042530   9.6899370 104.9348370  93.7234740  10.0388030  86.8468450
  94.5163350  10.3276860  86.3950240  93.2039090   9.6080200  86.1680930
  98.4555340   6.1583660 104.1603870  97.8493500   6.1815260 103.4199620
  98.1509450   5.4266700 104.6971120  99.8855710   9.8863950 102.7713280
 100.8377460   9.8021970 102.7213520  99.7383930  10.5505660 103.4447070
 102.7764910   9.2658160  88.2705190 102.4906420   8.8523300  87.4559370
 102.5784460  10.1945870  88.1505710  87.3388520   2.5377250 103.1564510
  87.8427540   1.9584530 103.7280740  86.5995940   2.8217480 103.6940880
  94.2412140   5.2591440  86.7110800  94.1362780   4.6443790  87.4372180
  94.0736360   4.7357330  85.9273810  94.3926460   3.9448240 102.6900030
  93.6272130   4.5133240 102.6054700  94.5742420   3.6524450 101.7968260
  97.4814870   4.3211470  87.3152790  96.9324970   4.7680770  87.9595530
  98.1034130   3.8160720  87.8390460 101.5349810   5.6753570 103.2475050
 102.2759280   6.0129330 102.7442510 100.7722490   5.8445630 102.6944820
  93.1489990   3.2802390  89.2118090  93.5706410   3.1142260  90.0549480
  93.2740830   2.4702620  88.7173230 100.2095470   3.7268400 101.7830260
 100.6236490   3.8813480 102.6320680  99.2746470   3.8523620 101.9456040
  94.9710700   3.6788880  99.7526190  95.3898810   4.5221610  99.5802430
  94.0519330   3.8160920  99.5232970  99.6462500   1.9642250  99.7126540
  99.1197720   2.4884870  99.1091680  99.9893840   2.5969640 100.3436270
  92.8218120   9.9841890 100.8683920  92.2839210  10.7087950 100.5492620
  93.0752080   9.5072230 100.0781260  95.6780330  11.2193100 101.1270570
  95.6039030  12.1228240 101.4342940  94.7759170  10.9005000 101.0992640
  96.2265660  10.3851610  88.7496930  97.1216450  10.7236580  88.7715690
  96.2583290   9.6631020  88.1221210  89.8661820   5.7578660  86.9783930
  90.3036690   6.3008330  87.6341510  90.3509550   4.9325610  86.9880270
  87.0807620   8.5467690  94.4304190  87.4110630   7.6788750  94.1982830
  87.5098620   8.7526210  95.2609150  91.6769540   6.8776700  92.0906160
  91.3765080   6.7541670  92.9910070  91.5707030   6.0185290  91.6821890
  87.5697830   9.4138280  97.1685820  87.1328820   9.5939080  98.0009970
  88.1375510  10.1712900  97.0267540 103.2060010   8.9155280 101.4563130
 102.6062000   8.9747840 100.7127050 103.3353910   7.9760260 101.5859980
 104.4461460   6.6573100  86.7932840 103.6154420   6.7249750  87.2640070
 104.6233290   7.5477220  86.4899700 103.9017920   3.4020580  89.2967040
 104.6636830   3.9717230  89.4026730 103.9172290   2.8347780  90.0675350
  87.4022260   1.9258510  93.5274700  86.7471100   1.6570150  92.8834400
  88.2400210   1.8162990  93.0776680 104.9077890   4.2570680  94.1408970
 105.2786720   3.4738000  93.7344940 105.5479820   4.9459780  93.9626270
 101.8911650   5.6407260  99.5539290 101.0771490   6.0704420  99.8165080
 102.2985850   6.2525670  98.9408340 103.9537090   3.6954950  86.4539560
 104.2285930   4.6033830  86.3258780 103.7647830   3.6317480  87.3901550
 101.9487700  10.3925860  93.0807560 102.5446770  10.0710430  92.4041980
 102.2065850   9.9197680  93.8720830  89.8550270   6.8243770 103.2298190
  89.8119900   6.4536680 104.1112650  89.9861280   7.7621340 103.3700010
  93.5556300   8.3803360  98.8307910  93.3147660   8.6477920  97.9438430
  94.4958940   8.5509090  98.8858770 104.8160460  10.3997740  99.6318550
 104.3218740  10.7966610  98.9145680 104.2073750   9.7746950 100.0255830
  89.6938300   9.7706020 100.3495970  89.0998620   9.6390720 101.0886010
  89.6862140   8.9344160  99.8838070 102.4999910  11.0421160  96.9105290
 102.0402880  11.7936970  96.5363310 101.8712370  10.3227630  96.8520090
  89.3250530   7.1364400  99.3004010  88.5984590   6.5169690  99.2329960
  89.3859680   7.5305010  98.4302090  92.9295630   9.3509400  96.0853420
  93.4460650   8.7396760  95.5601680  93.5793010   9.8538180  96.5764430
  95.6691130  10.2417890  96.9122400  95.9568940   9.9872190  96.0355410
  96.1814350   9.6895250  97.5027970  87.6080530  10.4538790  92.5100770
  87.4402570   9.8209470  93.2082660  86.7415040  10.6598190  92.1594960
  89.2143230   9.1472020  89.9550910  88.6890850   9.5280050  89.2512870
  89.1387810   9.7722790  90.6760620  95.7363490  11.1633990 104.2790600
  96.6630800  10.9278260 104.3226560  95.7213920  11.9905990 103.7976630
 103.9708550  10.7059560  91.2764850 104.1460740  10.0197300  90.6325770
 103.2730120  11.2306610  90.8841520  91.8136200  11.0954400  88.8300160
  92.5455020  10.8113680  88.2824050  92.0729870  10.8567680  89.7199540
  90.9750990   7.2119130  88.8346490  90.3459870   7.6804230  89.3832320
  91.0898820   6.3668350  89.2692680 102.3041050  10.3903850 104.1031640
 103.0966370   9.8953080 103.8957600 102.5974200  11.0693990 104.7107250
  96.5618750   3.0403810  76.8656960  95.7860850   2.5604250  77.1555530
  97.2131680   2.3609460  76.6913120  90.5784580   3.3523620  77.7432720
  89.7469460   3.0972330  78.1429230  91.1865560   3.4234390  78.4790640
 100.5826180   7.4464000  75.6456090 100.1207710   6.6751240  75.9743260
 101.3951730   7.4730070  76.1508540  90.5585840   7.3863710  77.9390740
  90.8613880   6.4961450  77.7600960  91.3029430   7.9433930  77.7112990
  96.8089490   9.7322010  75.2660080  96.1900930  10.1879510  74.6954520
  97.6641270   9.8873470  74.8649780  96.0027740   5.7161000  76.8727120
  95.9336020   4.7750940  76.7116250  96.7647600   5.8062410  77.4449690
  97.6752840   4.6161250  72.6591990  97.0570110   5.0810700  72.0954710
  98.1876090   5.3088730  73.0761500  92.5384600   4.1437120  79.3375590
  92.2053980   4.7706040  79.9796660  92.7151280   4.6699000  78.5577260
  91.7503700   6.1117920  81.1524770  92.3677700   6.7869000  80.8709220
  90.8896820   6.5205900  81.0612270  87.0436040   5.3017780  70.0331620
  86.6664020   5.7904880  69.3016520  87.3009110   5.9743060  70.6638150
 102.6681290   7.5757330  79.0679410 101.9844810   8.2456440  79.0596080
 103.2075580   7.7737980  78.3024270 100.2040030   9.4201460  77.7824590
 100.2167190   9.0163750  76.9146850  99.6515250  10.1948750  77.6786020
 101.4985450   6.1417680  72.8714760 101.3881780   5.1992010  72.9964180
 101.4953700   6.5033320  73.7577520  99.6025470   4.3231300  79.1107200
 100.0194260   4.1091410  78.2760660 100.3265290   4.5804090  79.6815820
  97.0405730   1.7683000  72.2277250  96.1135010   1.7020380  72.4565720
  97.1930550   2.7063130  72.1132490 103.5487570   2.7218520  79.2023440
 102.7206200   2.7911610  78.7273570 104.1438050   3.3072830  78.7339270
 101.0703020   3.3303300  72.7312500 100.4515440   2.9922850  72.0838800
 101.0527470   2.6863060  73.4391690  93.1144070   5.9815300  77.1736190
  92.8172360   5.3760770  76.4943970  94.0643890   6.0192610  77.0625550
 101.2029680   9.5547170  80.8359290 100.7260240  10.3619360  80.6431900
 100.5191470   8.9025500  80.9885500  92.2062500   5.7196990  83.8243990
  91.3091030   5.9436960  84.0717390  92.2315370   5.8431930  82.8755390
  99.2467720   2.5690110  69.7385250  99.6861000   1.7312540  69.5923070
  99.9596140   3.2019510  69.8249390  91.0333720   2.5910310  82.4001360
  90.8941490   3.4633110  82.7688760  90.1515080   2.2483120  82.2549300
  97.3563100   7.5086180  73.7066490  97.7959010   8.2510510  73.2921880
  97.2949990   7.7512750  74.6305450  92.8314070   8.5332010  84.6086510
  92.8029500   8.9374960  83.7414940  92.6679040   7.6042370  84.4458110
 104.7828890   9.3159110  85.9050680 105.2588610   9.7942000  86.5839760
 105.4036050   9.2476600  85.1796180  86.9852370   4.3607860  78.3172270
  87.0632790   4.4956630  77.3727990  87.5994050   3.6523750  78.5100390
  88.2300000   6.0608050  74.7278450  87.8228080   6.2022640  73.8732050
  89.1213010   5.7768210  74.5249660 104.1862140   6.5071960  83.0650690
 104.3125200   6.2683840  82.1467870 104.2283520   5.6756500  83.5372770
  98.0478880  10.2099960  81.6345500  98.5623550  10.1207970  82.4367930
  97.2047960  10.5559660  81.9273410 100.0233280  10.4955300  71.0629500
  99.8634420  10.2058240  71.9611330  99.8579990   9.7195430  70.5274730
  92.5021660  10.2753830  72.8401120  92.3264140   9.3589370  72.6268920
  91.6477400  10.6341120  73.0798920  99.7259410   8.0042860  69.6227500
  99.0324570   8.0020150  68.9629780 100.4682270   7.5802180  69.1921670
  99.2909340   9.6305570  73.6975990  99.7466290   8.8494950  74.0114610
  99.6301860  10.3412390  74.2417170  87.0411890   5.4022030  80.8566730
  87.2042930   4.9327390  80.0386100  87.5064340   4.8945590  81.5215570
  88.6150870   4.7773460  83.0162540  88.2305660   4.1367130  83.6145500
  88.9263060   5.4809580  83.5857270  91.0829170   4.8719630  71.4122220
  90.3091430   4.3317250  71.2520940  91.8123800   4.3526240  71.0739980
 101.8417150   3.8684990  77.2048610 102.5616270   4.3640280  76.8144720
 101.6398970   3.1902880  76.5602480  97.2235950   3.9394050  83.0917610
  97.1573260   3.0189720  82.8375200  96.5941090   4.0369490  83.8062250
  91.1266570   4.5400010  75.0501030  91.6445240   3.7368270  74.9957920
  90.6750590   4.4779150  75.8917860  96.0136070   5.8066290  70.3228330
  96.3551770   6.5508520  69.8271650  95.1848780   6.1197410  70.6853160
  97.1552680   6.7614620  82.8421410  97.1697220   5.8295580  82.6240320
  96.4477780   6.8474380  83.4811180 103.3663890   3.4021960  82.1889990
 102.6412080   3.9950740  81.9919380 103.8939350   3.3945500  81.3903360
 103.3177000   7.7996700  71.8402150 102.6753160   7.1452320  72.1145870
 102.9307660   8.2051790  71.0642820  98.8963480   5.1282130  75.6873840
  99.2487300   4.5310260  75.0275210  98.0125810   4.8026360  75.8582090
  94.9826760   5.8879820  73.0944250  95.6697890   6.4349030  73.4751840
  94.1959180   6.4320550  73.1293860  94.2853970   2.8925850  72.7069610
  94.7416750   3.7031100  72.9329800  93.9342180   2.5748990  73.5388100
  96.5886580   8.4032190  79.9361910  97.2328800   8.6091570  80.6135330
  96.9516020   7.6420590  79.4832760  97.8618660   6.4064540  78.6539360
  98.5040890   5.7057700  78.7671530  98.3868010   7.1862980  78.4736250
 101.7074380   6.6913160  68.3778500 101.4811960   5.9743600  68.9703140
 101.3170580   6.4425600  67.5400250  99.6356280   7.2059440  81.8575420
  99.9712520   7.7926130  82.5353340  98.7156620   7.0752150  82.0873210
  87.4890410  10.7180020  69.1522960  87.8488050  11.3169360  68.4980230
  87.3482750  11.2639910  69.9257990 101.2890630   4.6085100  70.0392660
 101.0012330   5.0697790  70.8270540 102.0842800   4.1482870  70.3076880
  87.4732270   8.9834880  83.6265360  87.5823390   8.0429620  83.4860750
  86.8212830   9.2489630  82.9779090  95.4644860   7.2550770  85.0263480
  95.1441730   6.5360010  85.5709170  94.7903220   7.9305840  85.0999540
  93.5059030   8.1011220  69.9696630  93.4969130   8.8340910  69.3541140
  92.5857390   7.8542800  70.0623590  89.1065670   3.3226110  70.7143390
  88.4993620   4.0625010  70.7238690  89.5815020   3.4125470  69.8881590
  96.4918630   8.1639460  68.6321820  96.5930610   7.9603450  67.7023800
  95.5920370   7.9097740  68.8369600  95.1336740  10.6825780  73.3269490
  95.3878240  10.6447170  72.4048860  94.1849220  10.5559110  73.3197740
  91.1170960   3.2837260  68.4631960  91.8834230   3.1718620  69.0257390
  91.1945650   2.5875230  67.8108730 103.1414900   8.7726510  76.5782260
 103.2662320   9.5957680  77.0506070 104.0080460   8.5617240  76.2306410
  90.6132430  10.8657720  76.2499390  91.3494910  10.3173180  76.5207960
  90.9973350  11.7313730  76.1105380  87.4977910   6.9331290  72.1240900
  86.5717690   7.1752430  72.1146310  87.9634340   7.7605550  72.0025650
  89.6190710  10.0503790  85.4384970  90.4203440  10.3715840  85.8520370
  89.1042530   9.6899370  86.1604880  93.7234740  10.0388030  68.0724960
  94.5163350  10.3276860  67.6206750  93.2039090   9.6080200  67.3937440
  98.4555340   6.1583660  85.3860380  97.8493500   6.1815260  84.6456130
  98.1509450   5.4266700  85.9227630  99.8855710   9.8863950  83.9969790
 100.8377460   9.8021970  83.9470030  99.7383930  10.5505660  84.6703580
 102.7764910   9.2658160  69.4961700 102.4906420   8.8523300  68.6815880
 102.5784460  10.1945870  69.3762220  87.3388520   2.5377250  84.3821020
  87.8427540   1.9584530  84.9537250  86.5995940   2.8217480  84.9197390
  94.2412140   5.2591440  67.9367310  94.1362780   4.6443790  68.6628690
  94.0736360   4.7357330  67.1530320  94.3926460   3.9448240  83.9156540
  93.6272130   4.5133240  83.8311210  94.5742420   3.6524450  83.0224770
  97.4814870   4.3211470  68.5409300  96.9324970   4.7680770  69.1852040
  98.1034130   3.8160720  69.0646970 101.5349810   5.6753570  84.4731560
 102.2759280   6.0129330  83.9699020 100.7722490   5.8445630  83.9201330
  93.1489990   3.2802390  70.4374600  93.5706410   3.1142260  71.2805990
  93.2740830   2.4702620  69.9429740 100.2095470   3.7268400  83.0086770
 100.6236490   3.8813480  83.8577190  99.2746470   3.8523620  83.1712550
  94.9710700   3.6788880  80.9782700  95.3898810   4.5221610  80.8058940
  94.0519330   3.8160920  80.7489480  99.6462500   1.9642250  80.9383050
  99.1197720   2.4884870  80.3348190  99.9893840   2.5969640  81.5692780
  92.8218120   9.9841890  82.0940430  92.2839210  10.7087950  81.7749130
  93.0752080   9.5072230  81.3037770  95.6780330  11.2193100  82.3527080
  95.6039030  12.1228240  82.6599450  94.7759170  10.9005000  82.3249150
  96.2265660  10.3851610  69.9753440  97.1216450  10.7236580  69.9972200
  96.2583290   9.6631020  69.3477720  89.8661820   5.7578660  68.2040440
  90.3036690   6.3008330  68.8598020  90.3509550   4.9325610  68.2136780
  87.0807620   8.5467690  75.6560700  87.4110630   7.6788750  75.4239340
  87.5098620   8.7526210  76.4865660  91.6769540   6.8776700  73.3162670
  91.3765080   6.7541670  74.2166580  91.5707030   6.0185290  72.9078400
  87.5697830   9.4138280  78.3942330  87.1328820   9.5939080  79.2266480
  88.1375510  10.1712900  78.2524050 103.2060010   8.9155280  82.6819640
 102.6062000   8.9747840  81.9383560 103.3353910   7.9760260  82.8116490
 104.4461460   6.6573100  68.0189350 103.6154420   6.7249750  68.4896580
 104.6233290   7.5477220  67.7156210 103.9017920   3.4020580  70.5223550
 104.6636830   3.9717230  70.6283240 103.9172290   2.8347780  71.2931860
  87.4022260   1.9258510  74.7531210  86.7471100   1.6570150  74.1090910
  88.2400210   1.8162990  74.3033190 104.9077890   4.2570680  75.3665480
 105.2786720   3.4738000  74.9601450 105.5479820   4.9459780  75.1882780
 101.8911650   5.6407260  80.7795800 101.0771490   6.0704420  81.0421590
 102.2985850   6.2525670  80.1664850 103.9537090   3.6954950  67.6796070
 104.2285930   4.6033830  67.5515290 103.7647830   3.6317480  68.6158060
 101.9487700  10.3925860  74.3064070 102.5446770  10.0710430  73.6298490
 102.2065850   9.9197680  75.0977340  89.8550270   6.8243770  84.4554700
  89.8119900   6.4536680  85.3369160  89.9861280   7.7621340  84.5956520
  93.5556300   8.3803360  80.0564420  93.3147660   8.6477920  79.1694940
  94.4958940   8.5509090  80.1115280 104.8160460  10.3997740  80.8575060
 104.3218740  10.7966610  80.1402190 104.2073750   9.7746950  81.2512340
  89.6938300   9.7706020  81.5752480  89.0998620   9.6390720  82.3142520
  89.6862140   8.9344160  81.1094580 102.4999910  11.0421160  78.1361800
 102.0402880  11.7936970  77.7619820 101.8712370  10.3227630  78.0776600
  89.3250530   7.1364400  80.5260520  88.5984590   6.5169690  80.4586470
  89.3859680   7.5305010  79.6558600  92.9295630   9.3509400  77.3109930
  93.4460650   8.7396760  76.7858190  93.5793010   9.8538180  77.8020940
  95.6691130  10.2417890  78.1378910  95.9568940   9.9872190  77.2611920
  96.1814350   9.6895250  78.7284480  87.6080530  10.4538790  73.7357280
  87.4402570   9.8209470  74.4339170  86.7415040  10.6598190  73.3851470
  89.2143230   9.1472020  71.1807420  88.6890850   9.5280050  70.4769380
  89.1387810   9.7722790  71.9017130  95.7363490  11.1633990  85.5047110
  96.6630800  10.9278260  85.5483070  95.7213920  11.9905990  85.0233140
 103.9708550  10.7059560  72.5021360 104.1460740  10.0197300  71.8582280
 103.2730120  11.2306610  72.1098030  91.8136200  11.0954400  70.0556670
  92.5455020  10.8113680  69.5080560  92.0729870  10.8567680  70.9456050
  90.9750990   7.2119130  70.0603000  90.3459870   7.6804230  70.6088830
  91.0898820   6.3668350  70.4949190 102.3041050  10.3903850  85.3288150
 103.0966370   9.8953080  85.1214110 102.5974200  11.0693990  85.9363760
  96.5618750   3.0403810  58.0913470  95.7860850   2.5604250  58.3812040
  97.2131680   2.3609460  57.9169630  90.5784580   3.3523620  58.9689230
  89.7469460   3.0972330  59.3685740  91.1865560   3.4234390  59.7047150
 100.5826180   7.4464000  56.8712600 100.1207710   6.6751240  57.1999770
 101.3951730   7.4730070  57.3765050  90.5585840   7.3863710  59.1647250
  90.8613880   6.4961450  58.9857470  91.3029430   7.9433930  58.9369500
  96.8089490   9.7322010  56.4916590  96.1900930  10.1879510  55.9211030
  97.6641270   9.8873470  56.0906290  96.0027740   5.7161000  58.0983630
  95.9336020   4.7750940  57.9372760  96.7647600   5.8062410  58.6706200
  97.6752840   4.6161250  53.8848500  97.0570110   5.0810700  53.3211220
  98.1876090   5.3088730  54.3018010  92.5384600   4.1437120  60.5632100
  92.2053980   4.7706040  61.2053170  92.7151280   4.6699000  59.7833770
  91.7503700   6.1117920  62.3781280  92.3677700   6.7869000  62.0965730
  90.8896820   6.5205900  62.2868780  87.0436040   5.3017780  51.2588130
  86.6664020   5.7904880  50.5273030  87.3009110   5.9743060  51.8894660
 102.6681290   7.5757330  60.2935920 101.9844810   8.2456440  60.2852590
 103.2075580   7.7737980  59.5280780 100.2040030   9.4201460  59.0081100
 100.2167190   9.0163750  58.1403360  99.6515250  10.1948750  58.9042530
 101.4985450   6.1417680  54.0971270 101.3881780   5.1992010  54.2220690
 101.4953700   6.5033320  54.9834030  99.6025470   4.3231300  60.3363710
 100.0194260   4.1091410  59.5017170 100.3265290   4.5804090  60.9072330
  97.0405730   1.7683000  53.4533760  96.1135010   1.7020380  53.6822230
  97.1930550   2.7063130  53.3389000 103.5487570   2.7218520  60.4279950
 102.7206200   2.7911610  59.9530080 104.1438050   3.3072830  59.9595780
 101.0703020   3.3303300  53.9569010 100.4515440   2.9922850  53.3095310
 101.0527470   2.6863060  54.6648200  93.1144070   5.9815300  58.3992700
  92.8172360   5.3760770  57.7200480  94.0643890   6.0192610  58.2882060
 101.2029680   9.5547170  62.0615800 100.7260240  10.3619360  61.8688410
 100.5191470   8.9025500  62.2142010  92.2062500   5.7196990  65.0500500
  91.3091030   5.9436960  65.2973900  92.2315370   5.8431930  64.1011900
  99.2467720   2.5690110  50.9641760  99.6861000   1.7312540  50.8179580
  99.9596140   3.2019510  51.0505900  91.0333720   2.5910310  63.6257870
  90.8941490   3.4633110  63.9945270  90.1515080   2.2483120  63.4805810
  97.3563100   7.5086180  54.9323000  97.7959010   8.2510510  54.5178390
  97.2949990   7.7512750  55.8561960  92.8314070   8.5332010  65.8343020
  92.8029500   8.9374960  64.9671450  92.6679040   7.6042370  65.6714620
 104.7828890   9.3159110  67.1307190 105.2588610   9.7942000  67.8096270
 105.4036050   9.2476600  66.4052690  86.9852370   4.3607860  59.5428780
  87.0632790   4.4956630  58.5984500  87.5994050   3.6523750  59.7356900
  88.2300000   6.0608050  55.9534960  87.8228080   6.2022640  55.0988560
  89.1213010   5.7768210  55.7506170 104.1862140   6.5071960  64.2907200
 104.3125200   6.2683840  63.3724380 104.2283520   5.6756500  64.7629280
  98.0478880  10.2099960  62.8602010  98.5623550  10.1207970  63.6624440
  97.2047960  10.5559660  63.1529920 100.0233280  10.4955300  52.2886010
  99.8634420  10.2058240  53.1867840  99.8579990   9.7195430  51.7531240
  92.5021660  10.2753830  54.0657630  92.3264140   9.3589370  53.8525430
  91.6477400  10.6341120  54.3055430  99.7259410   8.0042860  50.8484010
  99.0324570   8.0020150  50.1886290 100.4682270   7.5802180  50.4178180
  99.2909340   9.6305570  54.9232500  99.7466290   8.8494950  55.2371120
  99.6301860  10.3412390  55.4673680  87.0411890   5.4022030  62.0823240
  87.2042930   4.9327390  61.2642610  87.5064340   4.8945590  62.7472080
  88.6150870   4.7773460  64.2419050  88.2305660   4.1367130  64.8402010
  88.9263060   5.4809580  64.8113780  91.0829170   4.8719630  52.6378730
  90.3091430   4.3317250  52.4777450  91.8123800   4.3526240  52.2996490
 101.8417150   3.8684990  58.4305120 102.5616270   4.3640280  58.0401230
 101.6398970   3.1902880  57.7858990  97.2235950   3.9394050  64.3174120
  97.1573260   3.0189720  64.0631710  96.5941090   4.0369490  65.0318760
  91.1266570   4.5400010  56.2757540  91.6445240   3.7368270  56.2214430
  90.6750590   4.4779150  57.1174370  96.0136070   5.8066290  51.5484840
  96.3551770   6.5508520  51.0528160  95.1848780   6.1197410  51.9109670
  97.1552680   6.7614620  64.0677920  97.1697220   5.8295580  63.8496830
  96.4477780   6.8474380  64.7067690 103.3663890   3.4021960  63.4146500
 102.6412080   3.9950740  63.2175890 103.8939350   3.3945500  62.6159870
 103.3177000   7.7996700  53.0658660 102.6753160   7.1452320  53.3402380
 102.9307660   8.2051790  52.2899330  98.8963480   5.1282130  56.9130350
  99.2487300   4.5310260  56.2531720  98.0125810   4.8026360  57.0838600
  94.9826760   5.8879820  54.3200760  95.6697890   6.4349030  54.7008350
  94.1959180   6.4320550  54.3550370  94.2853970   2.8925850  53.9326120
  94.7416750   3.7031100  54.1586310  93.9342180   2.5748990  54.7644610
  96.5886580   8.4032190  61.1618420  97.2328800   8.6091570  61.8391840
  96.9516020   7.6420590  60.7089270  97.8618660   6.4064540  59.8795870
  98.5040890   5.7057700  59.9928040  98.3868010   7.1862980  59.6992760
 101.7074380   6.6913160  49.6035010 101.4811960   5.9743600  50.1959650
 101.3170580   6.4425600  48.7656760  99.6356280   7.2059440  63.0831930
  99.9712520   7.7926130  63.7609850  98.7156620   7.0752150  63.3129720
  87.4890410  10.7180020  50.3779470  87.8488050  11.3169360  49.7236740
  87.3482750  11.2639910  51.1514500 101.2890630   4.6085100  51.2649170
 101.0012330   5.0697790  52.0527050 102.0842800   4.1482870  51.5333390
  87.4732270   8.9834880  64.8521870  87.5823390   8.0429620  64.7117260
  86.8212830   9.2489630  64.2035600  95.4644860   7.2550770  66.2519990
  95.1441730   6.5360010  66.7965680  94.7903220   7.9305840  66.3256050
  93.5059030   8.1011220  51.1953140  93.4969130   8.8340910  50.5797650
  92.5857390   7.8542800  51.2880100  89.1065670   3.3226110  51.9399900
  88.4993620   4.0625010  51.9495200  89.5815020   3.4125470  51.1138100
  96.4918630   8.1639460  49.8578330  96.5930610   7.9603450  48.9280310
  95.5920370   7.9097740  50.0626110  95.1336740  10.6825780  54.5526000
  95.3878240  10.6447170  53.6305370  94.1849220  10.5559110  54.5454250
  91.1170960   3.2837260  49.6888470  91.8834230   3.1718620  50.2513900
  91.1945650   2.5875230  49.0365240 103.1414900   8.7726510  57.8038770
 103.2662320   9.5957680  58.2762580 104.0080460   8.5617240  57.4562920
  90.6132430  10.8657720  57.4755900  91.3494910  10.3173180  57.7464470
  90.9973350  11.7313730  57.3361890  87.4977910   6.9331290  53.3497410
  86.5717690   7.1752430  53.3402820  87.9634340   7.7605550  53.2282160
  89.6190710  10.0503790  66.6641480  90.4203440  10.3715840  67.0776880
  89.1042530   9.6899370  67.3861390  93.7234740  10.0388030  49.2981470
  94.5163350  10.3276860  48.8463260  93.2039090   9.6080200  48.6193950
  98.4555340   6.1583660  66.6116890  97.8493500   6.1815260  65.8712640
  98.1509450   5.4266700  67.1484140  99.8855710   9.8863950  65.2226300
 100.8377460   9.8021970  65.1726540  99.7383930  10.5505660  65.8960090
 102.7764910   9.2658160  50.7218210 102.4906420   8.8523300  49.9072390
 102.5784460  10.1945870  50.6018730  87.3388520   2.5377250  65.6077530
  87.8427540   1.9584530  66.1793760  86.5995940   2.8217480  66.1453900
  94.2412140   5.2591440  49.1623820  94.1362780   4.6443790  49.8885200
  94.0736360   4.7357330  48.3786830  94.3926460   3.9448240  65.1413050
  93.6272130   4.5133240  65.0567720  94.5742420   3.6524450  64.2481280
  97.4814870   4.3211470  49.7665810  96.9324970   4.7680770  50.4108550
  98.1034130   3.8160720  50.2903480 101.5349810   5.6753570  65.6988070
 102.2759280   6.0129330  65.1955530 100.7722490   5.8445630  65.1457840
  93.1489990   3.2802390  51.6631110  93.5706410   3.1142260  52.5062500
  93.2740830   2.4702620  51.1686250 100.2095470   3.7268400  64.2343280
 100.6236490   3.8813480  65.0833700  99.2746470   3.8523620  64.3969060
  94.9710700   3.6788880  62.2039210  95.3898810   4.5221610  62.0315450
  94.0519330   3.8160920  61.9745990  99.6462500   1.9642250  62.1639560
  99.1197720   2.4884870  61.5604700  99.9893840   2.5969640  62.7949290
  92.8218120   9.9841890  63.3196940  92.2839210  10.7087950  63.0005640
  93.0752080   9.5072230  62.5294280  95.6780330  11.2193100  63.5783590
  95.6039030  12.1228240  63.8855960  94.7759170  10.9005000  63.5505660
  96.2265660  10.3851610  51.2009950  97.1216450  10.7236580  51.2228710
  96.2583290   9.6631020  50.5734230  89.8661820   5.7578660  49.4296950
  90.3036690   6.3008330  50.0854530  90.3509550   4.9325610  49.4393290
  87.0807620   8.5467690  56.8817210  87.4110630   7.6788750  56.6495850
  87.5098620   8.7526210  57.7122170  91.6769540   6.8776700  54.5419180
  91.3765080   6.7541670  55.4423090  91.5707030   6.0185290  54.1334910
  87.5697830   9.4138280  59.6198840  87.1328820   9.5939080  60.4522990
  88.1375510  10.1712900  59.4780560 103.2060010   8.9155280  63.9076150
 102.6062000   8.9747840  63.1640070 103.3353910   7.9760260  64.0373000
 104.4461460   6.6573100  49.2445860 103.6154420   6.7249750  49.7153090
 104.6233290   7.5477220  48.9412720 103.9017920   3.4020580  51.7480060
 104.6636830   3.9717230  51.8539750 103.9172290   2.8347780  52.5188370
  87.4022260   1.9258510  55.9787720  86.7471100   1.6570150  55.3347420
  88.2400210   1.8162990  55.5289700 104.9077890   4.2570680  56.5921990
 105.2786720   3.4738000  56.1857960 105.5479820   4.9459780  56.4139290
 101.8911650   5.6407260  62.0052310 101.0771490   6.0704420  62.2678100
 102.2985850   6.2525670  61.3921360 103.9537090   3.6954950  48.9052580
 104.2285930   4.6033830  48.7771800 103.7647830   3.6317480  49.8414570
 101.9487700  10.3925860  55.5320580 102.5446770  10.0710430  54.8555000
 102.2065850   9.9197680  56.3233850  89.8550270   6.8243770  65.6811210
  89.8119900   6.4536680  66.5625670  89.9861280   7.7621340  65.8213030
  93.5556300   8.3803360  61.2820930  93.3147660   8.6477920  60.3951450
  94.4958940   8.5509090  61.3371790 104.8160460  10.3997740  62.0831570
 104.3218740  10.7966610  61.3658700 104.2073750   9.7746950  62.4768850
  89.6938300   9.7706020  62.8008990  89.0998620   9.6390720  63.5399030
  89.6862140   8.9344160  62.3351090 102.4999910  11.0421160  59.3618310
 102.0402880  11.7936970  58.9876330 101.8712370  10.3227630  59.3033110
  89.3250530   7.1364400  61.7517030  88.5984590   6.5169690  61.6842980
  89.3859680   7.5305010  60.8815110  92.9295630   9.3509400  58.5366440
  93.4460650   8.7396760  58.0114700  93.5793010   9.8538180  59.0277450
  95.6691130  10.2417890  59.3635420  95.9568940   9.9872190  58.4868430
  96.1814350   9.6895250  59.9540990  87.6080530  10.4538790  54.9613790
  87.4402570   9.8209470  55.6595680  86.7415040  10.6598190  54.6107980
  89.2143230   9.1472020  52.4063930  88.6890850   9.5280050  51.7025890
  89.1387810   9.7722790  53.1273640  95.7363490  11.1633990  66.7303620
  96.6630800  10.9278260  66.7739580  95.7213920  11.9905990  66.2489650
 103.9708550  10.7059560  53.7277870 104.1460740  10.0197300  53.0838790
 103.2730120  11.2306610  53.3354540  91.8136200  11.0954400  51.2813180
  92.5455020  10.8113680  50.7337070  92.0729870  10.8567680  52.1712560
  90.9750990   7.2119130  51.2859510  90.3459870   7.6804230  51.8345340
  91.0898820   6.3668350  51.7205700 102.3041050  10.3903850  66.5544660
 103.0966370   9.8953080  66.3470620 102.5974200  11.0693990  67.1620270
  96.5618750   3.0403810  39.3169980  95.7860850   2.5604250  39.6068550
  97.2131680   2.3609460  39.1426140  90.5784580   3.3523620  40.1945740
  89.7469460   3.0972330  40.5942250  91.1865560   3.4234390  40.9303660
 100.5826180   7.4464000  38.0969110 100.1207710   6.6751240  38.4256280
 101.3951730   7.4730070  38.6021560  90.5585840   7.3863710  40.3903760
  90.8613880   6.4961450  40.2113980  91.3029430   7.9433930  40.1626010
  96.8089490   9.7322010  37.7173100  96.1900930  10.1879510  37.1467540
  97.6641270   9.8873470  37.3162800  96.0027740   5.7161000  39.3240140
  95.9336020   4.7750940  39.1629270  96.7647600   5.8062410  39.8962710
  97.6752840   4.6161250  35.1105010  97.0570110   5.0810700  34.5467730
  98.1876090   5.3088730  35.5274520  92.5384600   4.1437120  41.7888610
  92.2053980   4.7706040  42.4309680  92.7151280   4.6699000  41.0090280
  91.7503700   6.1117920  43.6037790  92.3677700   6.7869000  43.3222240
  90.8896820   6.5205900  43.5125290  87.0436040   5.3017780  32.4844640
  86.6664020   5.7904880  31.7529540  87.3009110   5.9743060  33.1151170
 102.6681290   7.5757330  41.5192430 101.9844810   8.2456440  41.5109100
 103.2075580   7.7737980  40.7537290 100.2040030   9.4201460  40.2337610
 100.2167190   9.0163750  39.3659870  99.6515250  10.1948750  40.1299040
 101.4985450   6.1417680  35.3227780 101.3881780   5.1992010  35.4477200
 101.4953700   6.5033320  36.2090540  99.6025470   4.3231300  41.5620220
 100.0194260   4.1091410  40.7273680 100.3265290   4.5804090  42.1328840
  97.0405730   1.7683000  34.6790270  96.1135010   1.7020380  34.9078740
  97.1930550   2.7063130  34.5645510 103.5487570   2.7218520  41.6536460
 102.7206200   2.7911610  41.1786590 104.1438050   3.3072830  41.1852290
 101.0703020   3.3303300  35.1825520 100.4515440   2.9922850  34.5351820
 101.0527470   2.6863060  35.8904710  93.1144070   5.9815300  39.6249210
  92.8172360   5.3760770  38.9456990  94.0643890   6.0192610  39.5138570
 101.2029680   9.5547170  43.2872310 100.7260240  10.3619360  43.0944920
 100.5191470   8.9025500  43.4398520  92.2062500   5.7196990  46.2757010
  91.3091030   5.9436960  46.5230410  92.2315370   5.8431930  45.3268410
  99.2467720   2.5690110  32.1898270  99.6861000   1.7312540  32.0436090
  99.9596140   3.2019510  32.2762410  91.0333720   2.5910310  44.8514380
  90.8941490   3.4633110  45.2201780  90.1515080   2.2483120  44.7062320
  97.3563100   7.5086180  36.1579510  97.7959010   8.2510510  35.7434900
  97.2949990   7.7512750  37.0818470  92.8314070   8.5332010  47.0599530
  92.8029500   8.9374960  46.1927960  92.6679040   7.6042370  46.8971130
 104.7828890   9.3159110  48.3563700 105.2588610   9.7942000  49.0352780
 105.4036050   9.2476600  47.6309200  86.9852370   4.3607860  40.7685290
  87.0632790   4.4956630  39.8241010  87.5994050   3.6523750  40.9613410
  88.2300000   6.0608050  37.1791470  87.8228080   6.2022640  36.3245070
  89.1213010   5.7768210  36.9762680 104.1862140   6.5071960  45.5163710
 104.3125200   6.2683840  44.5980890 104.2283520   5.6756500  45.9885790
  98.0478880  10.2099960  44.0858520  98.5623550  10.1207970  44.8880950
  97.2047960  10.5559660  44.3786430 100.0233280  10.4955300  33.5142520
  99.8634420  10.2058240  34.4124350  99.8579990   9.7195430  32.9787750
  92.5021660  10.2753830  35.2914140  92.3264140   9.3589370  35.0781940
  91.6477400  10.6341120  35.5311940  99.7259410   8.0042860  32.0740520
  99.0324570   8.0020150  31.4142800 100.4682270   7.5802180  31.6434690
  99.2909340   9.6305570  36.1489010  99.7466290   8.8494950  36.4627630
  99.6301860  10.3412390  36.6930190  87.0411890   5.4022030  43.3079750
  87.2042930   4.9327390  42.4899120  87.5064340   4.8945590  43.9728590
  88.6150870   4.7773460  45.4675560  88.2305660   4.1367130  46.0658520
  88.9263060   5.4809580  46.0370290  91.0829170   4.8719630  33.8635240
  90.3091430   4.3317250  33.7033960  91.8123800   4.3526240  33.5253000
 101.8417150   3.8684990  39.6561630 102.5616270   4.3640280  39.2657740
 101.6398970   3.1902880  39.0115500  97.2235950   3.9394050  45.5430630
  97.1573260   3.0189720  45.2888220  96.5941090   4.0369490  46.2575270
  91.1266570   4.5400010  37.5014050  91.6445240   3.7368270  37.4470940
  90.6750590   4.4779150  38.3430880  96.0136070   5.8066290  32.7741350
  96.3551770   6.5508520  32.2784670  95.1848780   6.1197410  33.1366180
  97.1552680   6.7614620  45.2934430  97.1697220   5.8295580  45.0753340
  96.4477780   6.8474380  45.9324200 103.3663890   3.4021960  44.6403010
 102.6412080   3.9950740  44.4432400 103.8939350   3.3945500  43.8416380
 103.3177000   7.7996700  34.2915170 102.6753160   7.1452320  34.5658890
 102.9307660   8.2051790  33.5155840  98.8963480   5.1282130  38.1386860
  99.2487300   4.5310260  37.4788230  98.0125810   4.8026360  38.3095110
  94.9826760   5.8879820  35.5457270  95.6697890   6.4349030  35.9264860
  94.1959180   6.4320550  35.5806880  94.2853970   2.8925850  35.1582630
  94.7416750   3.7031100  35.3842820  93.9342180   2.5748990  35.9901120
  96.5886580   8.4032190  42.3874930  97.2328800   8.6091570  43.0648350
  96.9516020   7.6420590  41.9345780  97.8618660   6.4064540  41.1052380
  98.5040890   5.7057700  41.2184550  98.3868010   7.1862980  40.9249270
 101.7074380   6.6913160  30.8291520 101.4811960   5.9743600  31.4216160
 101.3170580   6.4425600  29.9913270  99.6356280   7.2059440  44.3088440
  99.9712520   7.7926130  44.9866360  98.7156620   7.0752150  44.5386230
  87.4890410  10.7180020  31.6035980  87.8488050  11.3169360  30.9493250
  87.3482750  11.2639910  32.3771010 101.2890630   4.6085100  32.4905680
 101.0012330   5.0697790  33.2783560 102.0842800   4.1482870  32.7589900
  87.4732270   8.9834880  46.0778380  87.5823390   8.0429620  45.9373770
  86.8212830   9.2489630  45.4292110  95.4644860   7.2550770  47.4776500
  95.1441730   6.5360010  48.0222190  94.7903220   7.9305840  47.5512560
  93.5059030   8.1011220  32.4209650  93.4969130   8.8340910  31.8054160
  92.5857390   7.8542800  32.5136610  89.1065670   3.3226110  33.1656410
  88.4993620   4.0625010  33.1751710  89.5815020   3.4125470  32.3394610
  96.4918630   8.1639460  31.0834840  96.5930610   7.9603450  30.1536820
  95.5920370   7.9097740  31.2882620  95.1336740  10.6825780  35.7782510
  95.3878240  10.6447170  34.8561880  94.1849220  10.5559110  35.7710760
  91.1170960   3.2837260  30.9144980  91.8834230   3.1718620  31.4770410
  91.1945650   2.5875230  30.2621750 103.1414900   8.7726510  39.0295280
 103.2662320   9.5957680  39.5019090 104.0080460   8.5617240  38.6819430
  90.6132430  10.8657720  38.7012410  91.3494910  10.3173180  38.9720980
  90.9973350  11.7313730  38.5618400  87.4977910   6.9331290  34.5753920
  86.5717690   7.1752430  34.5659330  87.9634340   7.7605550  34.4538670
  89.6190710  10.0503790  47.8897990  90.4203440  10.3715840  48.3033390
  89.1042530   9.6899370  48.6117900  93.7234740  10.0388030  30.5237980
  94.5163350  10.3276860  30.0719770  93.2039090   9.6080200  29.8450460
  98.4555340   6.1583660  47.8373400  97.8493500   6.1815260  47.0969150
  98.1509450   5.4266700  48.3740650  99.8855710   9.8863950  46.4482810
 100.8377460   9.8021970  46.3983050  99.7383930  10.5505660  47.1216600
 102.7764910   9.2658160  31.9474720 102.4906420   8.8523300  31.1328900
 102.5784460  10.1945870  31.8275240  87.3388520   2.5377250  46.8334040
  87.8427540   1.9584530  47.4050270  86.5995940   2.8217480  47.3710410
  94.2412140   5.2591440  30.3880330  94.1362780   4.6443790  31.1141710
  94.0736360   4.7357330  29.6043340  94.3926460   3.9448240  46.3669560
  93.6272130   4.5133240  46.2824230  94.5742420   3.6524450  45.4737790
  97.4814870   4.3211470  30.9922320  96.9324970   4.7680770  31.6365060
  98.1034130   3.8160720  31.5159990 101.5349810   5.6753570  46.9244580
 102.2759280   6.0129330  46.4212040 100.7722490   5.8445630  46.3714350
  93.1489990   3.2802390  32.8887620  93.5706410   3.1142260  33.7319010
  93.2740830   2.4702620  32.3942760 100.2095470   3.7268400  45.4599790
 100.6236490   3.8813480  46.3090210  99.2746470   3.8523620  45.6225570
  94.9710700   3.6788880  43.4295720  95.3898810   4.5221610  43.2571960
  94.0519330   3.8160920  43.2002500  99.6462500   1.9642250  43.3896070
  99.1197720   2.4884870  42.7861210  99.9893840   2.5969640  44.0205800
  92.8218120   9.9841890  44.5453450  92.2839210  10.7087950  44.2262150
  93.0752080   9.5072230  43.7550790  95.6780330  11.2193100  44.8040100
  95.6039030  12.1228240  45.1112470  94.7759170  10.9005000  44.7762170
  96.2265660  10.3851610  32.4266460  97.1216450  10.7236580  32.4485220
  96.2583290   9.6631020  31.7990740  89.8661820   5.7578660  30.6553460
  90.3036690   6.3008330  31.3111040  90.3509550   4.9325610  30.6649800
  87.0807620   8.5467690  38.1073720  87.4110630   7.6788750  37.8752360
  87.5098620   8.7526210  38.9378680  91.6769540   6.8776700  35.7675690
  91.3765080   6.7541670  36.6679600  91.5707030   6.0185290  35.3591420
  87.5697830   9.4138280  40.8455350  87.1328820   9.5939080  41.6779500
  88.1375510  10.1712900  40.7037070 103.2060010   8.9155280  45.1332660
 102.6062000   8.9747840  44.3896580 103.3353910   7.9760260  45.2629510
 104.4461460   6.6573100  30.4702370 103.6154420   6.7249750  30.9409600
 104.6233290   7.5477220  30.1669230 103.9017920   3.4020580  32.9736570
 104.6636830   3.9717230  33.0796260 103.9172290   2.8347780  33.7444880
  87.4022260   1.9258510  37.2044230  86.7471100   1.6570150  36.5603930
  88.2400210   1.8162990  36.7546210 104.9077890   4.2570680  37.8178500
 105.2786720   3.4738000  37.4114470 105.5479820   4.9459780  37.6395800
 101.8911650   5.6407260  43.2308820 101.0771490   6.0704420  43.4934610
 102.2985850   6.2525670  42.6177870 103.9537090   3.6954950  30.1309090
 104.2285930   4.6033830  30.0028310 103.7647830   3.6317480  31.0671080
 101.9487700  10.3925860  36.7577090 102.5446770  10.0710430  36.0811510
 102.2065850   9.9197680  37.5490360  89.8550270   6.8243770  46.9067720
  89.8119900   6.4536680  47.7882180  89.9861280   7.7621340  47.0469540
  93.5556300   8.3803360  42.5077440  93.3147660   8.6477920  41.6207960
  94.4958940   8.5509090  42.5628300 104.8160460  10.3997740  43.3088080
 104.3218740  10.7966610  42.5915210 104.2073750   9.7746950  43.7025360
  89.6938300   9.7706020  44.0265500  89.0998620   9.6390720  44.7655540
  89.6862140   8.9344160  43.5607600 102.4999910  11.0421160  40.5874820
 102.0402880  11.7936970  40.2132840 101.8712370  10.3227630  40.5289620
  89.3250530   7.1364400  42.9773540  88.5984590   6.5169690  42.9099490
  89.3859680   7.5305010  42.1071620  92.9295630   9.3509400  39.7622950
  93.4460650   8.7396760  39.2371210  93.5793010   9.8538180  40.2533960
  95.6691130  10.2417890  40.5891930  95.9568940   9.9872190  39.7124940
  96.1814350   9.6895250  41.1797500  87.6080530  10.4538790  36.1870300
  87.4402570   9.8209470  36.8852190  86.7415040  10.6598190  35.8364490
  89.2143230   9.1472020  33.6320440  88.6890850   9.5280050  32.9282400
  89.1387810   9.7722790  34.3530150  95.7363490  11.1633990  47.9560130
  96.6630800  10.9278260  47.9996090  95.7213920  11.9905990  47.4746160
 103.9708550  10.7059560  34.9534380 104.1460740  10.0197300  34.3095300
 103.2730120  11.2306610  34.5611050  91.8136200  11.0954400  32.5069690
  92.5455020  10.8113680  31.9593580  92.0729870  10.8567680  33.3969070
  90.9750990   7.2119130  32.5116020  90.3459870   7.6804230  33.0601850
  91.0898820   6.3668350  32.9462210 102.3041050  10.3903850  47.7801170
 103.0966370   9.8953080  47.5727130 102.5974200  11.0693990  48.3876780
  96.5618750   3.0403810  20.5426490  95.7860850   2.5604250  20.8325060
  97.2131680   2.3609460  20.3682650  90.5784580   3.3523620  21.4202250
  89.7469460   3.0972330  21.8198760  91.1865560   3.4234390  22.1560170
 100.5826180   7.4464000  19.3225620 100.1207710   6.6751240  19.6512790
 101.3951730   7.4730070  19.8278070  90.5585840   7.3863710  21.6160270
  90.8613880   6.4961450  21.4370490  91.3029430   7.9433930  21.3882520
  96.8089490   9.7322010  18.9429610  96.1900930  10.1879510  18.3724050
  97.6641270   9.8873470  18.5419310  96.0027740   5.7161000  20.5496650
  95.9336020   4.7750940  20.3885780  96.7647600   5.8062410  21.1219220
  97.6752840   4.6161250  16.3361520  97.0570110   5.0810700  15.7724240
  98.1876090   5.3088730  16.7531030  92.5384600   4.1437120  23.0145120
  92.2053980   4.7706040  23.6566190  92.7151280   4.6699000  22.2346790
  91.7503700   6.1117920  24.8294300  92.3677700   6.7869000  24.5478750
  90.8896820   6.5205900  24.7381800  87.0436040   5.3017780  13.7101150
  86.6664020   5.7904880  12.9786050  87.3009110   5.9743060  14.3407680
 102.6681290   7.5757330  22.7448940 101.9844810   8.2456440  22.7365610
 103.2075580   7.7737980  21.9793800 100.2040030   9.4201460  21.4594120
 100.2167190   9.0163750  20.5916380  99.6515250  10.1948750  21.3555550
 101.4985450   6.1417680  16.5484290 101.3881780   5.1992010  16.6733710
 101.4953700   6.5033320  17.4347050  99.6025470   4.3231300  22.7876730
 100.0194260   4.1091410  21.9530190 100.3265290   4.5804090  23.3585350
  97.0405730   1.7683000  15.9046780  96.1135010   1.7020380  16.1335250
  97.1930550   2.7063130  15.7902020 103.5487570   2.7218520  22.8792970
 102.7206200   2.7911610  22.4043100 104.1438050   3.3072830  22.4108800
 101.0703020   3.3303300  16.4082030 100.4515440   2.9922850  15.7608330
 101.0527470   2.6863060  17.1161220  93.1144070   5.9815300  20.8505720
  92.8172360   5.3760770  20.1713500  94.0643890   6.0192610  20.7395080
 101.2029680   9.5547170  24.5128820 100.7260240  10.3619360  24.3201430
 100.5191470   8.9025500  24.6655030  92.2062500   5.7196990  27.5013520
  91.3091030   5.9436960  27.7486920  92.2315370   5.8431930  26.5524920
  99.2467720   2.5690110  13.4154780  99.6861000   1.7312540  13.2692600
  99.9596140   3.2019510  13.5018920  91.0333720   2.5910310  26.0770890
  90.8941490   3.4633110  26.4458290  90.1515080   2.2483120  25.9318830
  97.3563100   7.5086180  17.3836020  97.7959010   8.2510510  16.9691410
  97.2949990   7.7512750  18.3074980  92.8314070   8.5332010  28.2856040
  92.8029500   8.9374960  27.4184470  92.6679040   7.6042370  28.1227640
 104.7828890   9.3159110  29.5820210 105.2588610   9.7942000  30.2609290
 105.4036050   9.2476600  28.8565710  86.9852370   4.3607860  21.9941800
  87.0632790   4.4956630  21.0497520  87.5994050   3.6523750  22.1869920
  88.2300000   6.0608050  18.4047980  87.8228080   6.2022640  17.5501580
  89.1213010   5.7768210  18.2019190 104.1862140   6.5071960  26.7420220
 104.3125200   6.2683840  25.8237400 104.2283520   5.6756500  27.2142300
  98.0478880  10.2099960  25.3115030  98.5623550  10.1207970  26.1137460
  97.2047960  10.5559660  25.6042940 100.0233280  10.4955300  14.7399030
  99.8634420  10.2058240  15.6380860  99.8579990   9.7195430  14.2044260
  92.5021660  10.2753830  16.5170650  92.3264140   9.3589370  16.3038450
  91.6477400  10.6341120  16.7568450  99.7259410   8.0042860  13.2997030
  99.0324570   8.0020150  12.6399310 100.4682270   7.5802180  12.8691200
  99.2909340   9.6305570  17.3745520  99.7466290   8.8494950  17.6884140
  99.6301860  10.3412390  17.9186700  87.0411890   5.4022030  24.5336260
  87.2042930   4.9327390  23.7155630  87.5064340   4.8945590  25.1985100
  88.6150870   4.7773460  26.6932070  88.2305660   4.1367130  27.2915030
  88.9263060   5.4809580  27.2626800  91.0829170   4.8719630  15.0891750
  90.3091430   4.3317250  14.9290470  91.8123800   4.3526240  14.7509510
 101.8417150   3.8684990  20.8818140 102.5616270   4.3640280  20.4914250
 101.6398970   3.1902880  20.2372010  97.2235950   3.9394050  26.7687140
  97.1573260   3.0189720  26.5144730  96.5941090   4.0369490  27.4831780
  91.1266570   4.5400010  18.7270560  91.6445240   3.7368270  18.6727450
  90.6750590   4.4779150  19.5687390  96.0136070   5.8066290  13.9997860
  96.3551770   6.5508520  13.5041180  95.1848780   6.1197410  14.3622690
  97.1552680   6.7614620  26.5190940  97.1697220   5.8295580  26.3009850
  96.4477780   6.8474380  27.1580710 103.3663890   3.4021960  25.8659520
 102.6412080   3.9950740  25.6688910 103.8939350   3.3945500  25.0672890
 103.3177000   7.7996700  15.5171680 102.6753160   7.1452320  15.7915400
 102.9307660   8.2051790  14.7412350  98.8963480   5.1282130  19.3643370
  99.2487300   4.5310260  18.7044740  98.0125810   4.8026360  19.5351620
  94.9826760   5.8879820  16.7713780  95.6697890   6.4349030  17.1521370
  94.1959180   6.4320550  16.8063390  94.2853970   2.8925850  16.3839140
  94.7416750   3.7031100  16.6099330  93.9342180   2.5748990  17.2157630
  96.5886580   8.4032190  23.6131440  97.2328800   8.6091570  24.2904860
  96.9516020   7.6420590  23.1602290  97.8618660   6.4064540  22.3308890
  98.5040890   5.7057700  22.4441060  98.3868010   7.1862980  22.1505780
 101.7074380   6.6913160  12.0548030 101.4811960   5.9743600  12.6472670
 101.3170580   6.4425600  11.2169780  99.6356280   7.2059440  25.5344950
  99.9712520   7.7926130  26.2122870  98.7156620   7.0752150  25.7642740
  87.4890410  10.7180020  12.8292490  87.8488050  11.3169360  12.1749760
  87.3482750  11.2639910  13.6027520 101.2890630   4.6085100  13.7162190
 101.0012330   5.0697790  14.5040070 102.0842800   4.1482870  13.9846410
  87.4732270   8.9834880  27.3034890  87.5823390   8.0429620  27.1630280
  86.8212830   9.2489630  26.6548620  95.4644860   7.2550770  28.7033010
  95.1441730   6.5360010  29.2478700  94.7903220   7.9305840  28.7769070
  93.5059030   8.1011220  13.6466160  93.4969130   8.8340910  13.0310670
  92.5857390   7.8542800  13.7393120  89.1065670   3.3226110  14.3912920
  88.4993620   4.0625010  14.4008220  89.5815020   3.4125470  13.5651120
  96.4918630   8.1639460  12.3091350  96.5930610   7.9603450  11.3793330
  95.5920370   7.9097740  12.5139130  95.1336740  10.6825780  17.0039020
  95.3878240  10.6447170  16.0818390  94.1849220  10.5559110  16.9967270
  91.1170960   3.2837260  12.1401490  91.8834230   3.1718620  12.7026920
  91.1945650   2.5875230  11.4878260 103.1414900   8.7726510  20.2551790
 103.2662320   9.5957680  20.7275600 104.0080460   8.5617240  19.9075940
  90.6132430  10.8657720  19.9268920  91.3494910  10.3173180  20.1977490
  90.9973350  11.7313730  19.7874910  87.4977910   6.9331290  15.8010430
  86.5717690   7.1752430  15.7915840  87.9634340   7.7605550  15.6795180
  89.6190710  10.0503790  29.1154500  90.4203440  10.3715840  29.5289900
  89.1042530   9.6899370  29.8374410  93.7234740  10.0388030  11.7494490
  94.5163350  10.3276860  11.2976280  93.2039090   9.6080200  11.0706970
  98.4555340   6.1583660  29.0629910  97.8493500   6.1815260  28.3225660
  98.1509450   5.4266700  29.5997160  99.8855710   9.8863950  27.6739320
 100.8377460   9.8021970  27.6239560  99.7383930  10.5505660  28.3473110
 102.7764910   9.2658160  13.1731230 102.4906420   8.8523300  12.3585410
 102.5784460  10.1945870  13.0531750  87.3388520   2.5377250  28.0590550
  87.8427540   1.9584530  28.6306780  86.5995940   2.8217480  28.5966920
  94.2412140   5.2591440  11.6136840  94.1362780   4.6443790  12.3398220
  94.0736360   4.7357330  10.8299850  94.3926460   3.9448240  27.5926070
  93.6272130   4.5133240  27.5080740  94.5742420   3.6524450  26.6994300
  97.4814870   4.3211470  12.2178830  96.9324970   4.7680770  12.8621570
  98.1034130   3.8160720  12.7416500 101.5349810   5.6753570  28.1501090
 102.2759280   6.0129330  27.6468550 100.7722490   5.8445630  27.5970860
  93.1489990   3.2802390  14.1144130  93.5706410   3.1142260  14.9575520
  93.2740830   2.4702620  13.6199270 100.2095470   3.7268400  26.6856300
 100.6236490   3.8813480  27.5346720  99.2746470   3.8523620  26.8482080
  94.9710700   3.6788880  24.6552230  95.3898810   4.5221610  24.4828470
  94.0519330   3.8160920  24.4259010  99.6462500   1.9642250  24.6152580
  99.1197720   2.4884870  24.0117720  99.9893840   2.5969640  25.2462310
  92.8218120   9.9841890  25.7709960  92.2839210  10.7087950  25.4518660
  93.0752080   9.5072230  24.9807300  95.6780330  11.2193100  26.0296610
  95.6039030  12.1228240  26.3368980  94.7759170  10.9005000  26.0018680
  96.2265660  10.3851610  13.6522970  97.1216450  10.7236580  13.6741730
  96.2583290   9.6631020  13.0247250  89.8661820   5.7578660  11.8809970
  90.3036690   6.3008330  12.5367550  90.3509550   4.9325610  11.8906310
  87.0807620   8.5467690  19.3330230  87.4110630   7.6788750  19.1008870
  87.5098620   8.7526210  20.1635190  91.6769540   6.8776700  16.9932200
  91.3765080   6.7541670  17.8936110  91.5707030   6.0185290  16.5847930
  87.5697830   9.4138280  22.0711860  87.1328820   9.5939080  22.9036010
  88.1375510  10.1712900  21.9293580 103.2060010   8.9155280  26.3589170
 102.6062000   8.9747840  25.6153090 103.3353910   7.9760260  26.4886020
 104.4461460   6.6573100  11.6958880 103.6154420   6.7249750  12.1666110
 104.6233290   7.5477220  11.3925740 103.9017920   3.4020580  14.1993080
 104.6636830   3.9717230  14.3052770 103.9172290   2.8347780  14.9701390
  87.4022260   1.9258510  18.4300740  86.7471100   1.6570150  17.7860440
  88.2400210   1.8162990  17.9802720 104.9077890   4.2570680  19.0435010
 105.2786720   3.4738000  18.6370980 105.5479820   4.9459780  18.8652310
 101.8911650   5.6407260  24.4565330 101.0771490   6.0704420  24.7191120
 102.2985850   6.2525670  23.8434380 103.9537090   3.6954950  11.3565600
 104.2285930   4.6033830  11.2284820 103.7647830   3.6317480  12.2927590
 101.9487700  10.3925860  17.9833600 102.5446770  10.0710430  17.3068020
 102.2065850   9.9197680  18.7746870  89.8550270   6.8243770  28.1324230
  89.8119900   6.4536680  29.0138690  89.9861280   7.7621340  28.2726050
  93.5556300   8.3803360  23.7333950  93.3147660   8.6477920  22.8464470
  94.4958940   8.5509090  23.7884810 104.8160460  10.3997740  24.5344590
 104.3218740  10.7966610  23.8171720 104.2073750   9.7746950  24.9281870
  89.6938300   9.7706020  25.2522010  89.0998620   9.6390720  25.9912050
  89.6862140   8.9344160  24.7864110 102.4999910  11.0421160  21.8131330
 102.0402880  11.7936970  21.4389350 101.8712370  10.3227630  21.7546130
  89.3250530   7.1364400  24.2030050  88.5984590   6.5169690  24.1356000
  89.3859680   7.5305010  23.3328130  92.9295630   9.3509400  20.9879460
  93.4460650   8.7396760  20.4627720  93.5793010   9.8538180  21.4790470
  95.6691130  10.2417890  21.8148440  95.9568940   9.9872190  20.9381450
  96.1814350   9.6895250  22.4054010  87.6080530  10.4538790  17.4126810
  87.4402570   9.8209470  18.1108700  86.7415040  10.6598190  17.0621000
  89.2143230   9.1472020  14.8576950  88.6890850   9.5280050  14.1538910
  89.1387810   9.7722790  15.5786660  95.7363490  11.1633990  29.1816640
  96.6630800  10.9278260  29.2252600  95.7213920  11.9905990  28.7002670
 103.9708550  10.7059560  16.1790890 104.1460740  10.0197300  15.5351810
 103.2730120  11.2306610  15.7867560  91.8136200  11.0954400  13.7326200
  92.5455020  10.8113680  13.1850090  92.0729870  10.8567680  14.6225580
  90.9750990   7.2119130  13.7372530  90.3459870   7.6804230  14.2858360
  91.0898820   6.3668350  14.1718720 102.3041050  10.3903850  29.0057680
 103.0966370   9.8953080  28.7983640 102.5974200  11.0693990  29.6133290
  96.5618750   3.0403810   1.7683000  95.7860850   2.5604250   2.0581570
  97.2131680   2.3609460   1.5939160  90.5784580   3.3523620   2.6458760
  89.7469460   3.0972330   3.0455270  91.1865560   3.4234390   3.3816680
  90.5585840   7.3863710   2.8416780  90.8613880   6.4961450   2.6627000
  91.3029430   7.9433930   2.6139030  96.0027740   5.7161000   1.7753160
  95.9336020   4.7750940   1.6142290  96.7647600   5.8062410   2.3475730
  92.5384600   4.1437120   4.2401630  92.2053980   4.7706040   4.8822700
  92.7151280   4.6699000   3.4603300  91.7503700   6.1117920   6.0550810
  92.3677700   6.7869000   5.7735260  90.8896820   6.5205900   5.9638310
 102.6681290   7.5757330   3.9705450 101.9844810   8.2456440   3.9622120
 103.2075580   7.7737980   3.2050310 100.2040030   9.4201460   2.6850630
 100.2167190   9.0163750   1.8172890  99.6515250  10.1948750   2.5812060
  99.6025470   4.3231300   4.0133240 100.0194260   4.1091410   3.1786700
 100.3265290   4.5804090   4.5841860 103.5487570   2.7218520   4.1049480
 102.7206200   2.7911610   3.6299610 104.1438050   3.3072830   3.6365310
 101.2029680   9.5547170   5.7385330 100.7260240  10.3619360   5.5457940
 100.5191470   8.9025500   5.8911540  92.2062500   5.7196990   8.7270030
  91.3091030   5.9436960   8.9743430  92.2315370   5.8431930   7.7781430
  91.0333720   2.5910310   7.3027400  90.8941490   3.4633110   7.6714800
  90.1515080   2.2483120   7.1575340  92.8314070   8.5332010   9.5112550
  92.8029500   8.9374960   8.6440980  92.6679040   7.6042370   9.3484150
 104.7828890   9.3159110  10.8076720 105.2588610   9.7942000  11.4865800
 105.4036050   9.2476600  10.0822220  86.9852370   4.3607860   3.2198310
  87.0632790   4.4956630   2.2754030  87.5994050   3.6523750   3.4126430
 104.1862140   6.5071960   7.9676730 104.3125200   6.2683840   7.0493910
 104.2283520   5.6756500   8.4398810  98.0478880  10.2099960   6.5371540
  98.5623550  10.1207970   7.3393970  97.2047960  10.5559660   6.8299450
  87.0411890   5.4022030   5.7592770  87.2042930   4.9327390   4.9412140
  87.5064340   4.8945590   6.4241610  88.6150870   4.7773460   7.9188580
  88.2305660   4.1367130   8.5171540  88.9263060   5.4809580   8.4883310
 101.8417150   3.8684990   2.1074650 102.5616270   4.3640280   1.7170760
 101.6398970   3.1902880   1.4628520  97.2235950   3.9394050   7.9943650
  97.1573260   3.0189720   7.7401240  96.5941090   4.0369490   8.7088290
  97.1552680   6.7614620   7.7447450  97.1697220   5.8295580   7.5266360
  96.4477780   6.8474380   8.3837220 103.3663890   3.4021960   7.0916030
 102.6412080   3.9950740   6.8945420 103.8939350   3.3945500   6.2929400
  96.5886580   8.4032190   4.8387950  97.2328800   8.6091570   5.5161370
  96.9516020   7.6420590   4.3858800  97.8618660   6.4064540   3.5565400
  98.5040890   5.7057700   3.6697570  98.3868010   7.1862980   3.3762290
  99.6356280   7.2059440   6.7601460  99.9712520   7.7926130   7.4379380
  98.7156620   7.0752150   6.9899250  87.4732270   8.9834880   8.5291400
  87.5823390   8.0429620   8.3886790  86.8212830   9.2489630   7.8805130
  95.4644860   7.2550770   9.9289520  95.1441730   6.5360010  10.4735210
  94.7903220   7.9305840  10.0025580  89.6190710  10.0503790  10.3411010
  90.4203440  10.3715840  10.7546410  89.1042530   9.6899370  11.0630920
  98.4555340   6.1583660  10.2886420  97.8493500   6.1815260   9.5482170
  98.1509450   5.4266700  10.8253670  99.8855710   9.8863950   8.8995830
 100.8377460   9.8021970   8.8496070  99.7383930  10.5505660   9.5729620
  87.3388520   2.5377250   9.2847060  87.8427540   1.9584530   9.8563290
  86.5995940   2.8217480   9.8223430  94.3926460   3.9448240   8.8182580
  93.6272130   4.5133240   8.7337250  94.5742420   3.6524450   7.9250810
 101.5349810   5.6753570   9.3757600 102.2759280   6.0129330   8.8725060
 100.7722490   5.8445630   8.8227370 100.2095470   3.7268400   7.9112810
 100.6236490   3.8813480   8.7603230  99.2746470   3.8523620   8.0738590
  94.9710700   3.6788880   5.8808740  95.3898810   4.5221610   5.7084980
  94.0519330   3.8160920   5.6515520  99.6462500   1.9642250   5.8409090
  99.1197720   2.4884870   5.2374230  99.9893840   2.5969640   6.4718820
  92.8218120   9.9841890   6.9966470  92.2839210  10.7087950   6.6775170
  93.0752080   9.5072230   6.2063810  95.6780330  11.2193100   7.2553120
  95.6039030  12.1228240   7.5625490  94.7759170  10.9005000   7.2275190
  87.5697830   9.4138280   3.2968370  87.1328820   9.5939080   4.1292520
  88.1375510  10.1712900   3.1550090 103.2060010   8.9155280   7.5845680
 102.6062000   8.9747840   6.8409600 103.3353910   7.9760260   7.7142530
 101.8911650   5.6407260   5.6821840 101.0771490   6.0704420   5.9447630
 102.2985850   6.2525670   5.0690890  89.8550270   6.8243770   9.3580740
  89.8119900   6.4536680  10.2395200  89.9861280   7.7621340   9.4982560
  93.5556300   8.3803360   4.9590460  93.3147660   8.6477920   4.0720980
  94.4958940   8.5509090   5.0141320 104.8160460  10.3997740   5.7601100
 104.3218740  10.7966610   5.0428230 104.2073750   9.7746950   6.1538380
  89.6938300   9.7706020   6.4778520  89.0998620   9.6390720   7.2168560
  89.6862140   8.9344160   6.0120620 102.4999910  11.0421160   3.0387840
 102.0402880  11.7936970   2.6645860 101.8712370  10.3227630   2.9802640
  89.3250530   7.1364400   5.4286560  88.5984590   6.5169690   5.3612510
  89.3859680   7.5305010   4.5584640  92.9295630   9.3509400   2.2135970
  93.4460650   8.7396760   1.6884230  93.5793010   9.8538180   2.7046980
  95.6691130  10.2417890   3.0404950  95.9568940   9.9872190   2.1637960
  96.1814350   9.6895250   3.6310520  95.7363490  11.1633990  10.4073150
  96.6630800  10.9278260  10.4509110  95.7213920  11.9905990   9.9259180
 102.3041050  10.3903850  10.2314190 103.0966370   9.8953080  10.0240150
 102.5974200  11.0693990  10.8389800  79.6557220 151.4572710 150.0821650
  79.5751270 150.5427320 149.8113360  79.2421640 151.9539780 149.3761360
  70.2133040 148.5073430 146.6249070  69.3249740 148.8489400 146.5228950
  70.4974230 148.3073750 145.7329900  72.3894430 147.0904930 147.6587450
  72.4961180 147.9908660 147.9656210  71.4786790 147.0422900 147.3682100
  82.0413540 146.2129740 149.1298350  82.8623160 145.7226310 149.1723830
  82.0747620 146.8027400 149.8830190  75.8781480 143.8982090 150.5891090
  76.1856460 143.3428980 149.8726590  74.9482180 144.0326550 150.4064080
  78.2531320 148.2347920 144.3218370  77.3134990 148.3961880 144.4070830
  78.5714580 148.9533600 143.7754360  73.8718880 152.4895660 150.1070940
  73.4675880 151.7772910 149.6116840  73.9582000 152.1448900 150.9958980
  84.0541370 144.0180840 143.1500250  83.7414030 144.1107670 144.0499320
  84.8153840 144.5961870 143.0997680  70.5723510 151.3840640 147.6077590
  70.4521110 152.1102730 146.9958860  70.2624400 150.6143550 147.1305500
  73.0387170 144.7275710 150.9901260  72.5955320 145.5085250 150.6585780
  73.5972160 145.0505600 151.6972200  76.1545990 144.3486410 145.8707090
  75.5300170 144.3446280 146.5960400  76.0676110 143.4817370 145.4743060
  72.8301390 149.8509280 148.7182510  72.6042310 149.6346450 149.6229130
  72.0493920 150.2837740 148.3728480  80.0599150 149.8572650 147.3173160
  79.4608040 150.5808450 147.1336780  80.6078760 149.7949430 146.5349610
  78.6664020 148.4936190 149.3476440  79.0593590 148.8108390 148.5345130
  79.0280870 147.6148070 149.4620960  67.8898420 149.0257110 142.7809360
  67.8073090 149.9687870 142.9224350  67.5381480 148.8832020 141.9021710
  71.5398930 147.6422630 150.8073920  71.1998980 148.1197860 151.5640970
  70.7776250 147.1887750 150.4475020  75.7516700 148.7608220 144.8386470
  75.8729520 148.7194700 145.7872290  75.3665210 149.6232370 144.6833200
  74.7638200 151.0709360 144.2369770  74.1955100 150.6227610 143.6105680
  75.4727200 151.4302140 143.7034920  68.8545010 146.5641610 149.7238590
  68.5691930 146.1997280 150.5617210  68.7923870 145.8322070 149.1101730
  78.5283600 145.4570870 146.4451960  77.7148210 144.9584040 146.3697270
  78.3345550 146.2969120 146.0288310  81.2431990 149.8290520 144.7414120
  82.1311610 150.1407750 144.5665460  81.2137080 148.9562770 144.3494700
  83.5146260 151.1402360 144.2093980  83.4309980 151.5716580 143.3590420
  84.2340450 151.6000710 144.6420800  68.3475670 151.7000560 143.6835290
  69.2170520 151.9825360 143.9671210  67.8565990 152.5136430 143.5684100
  71.4122260 143.4311420 148.2766090  71.2836890 143.4229320 149.2251010
  70.5884280 143.7694510 147.9257100  83.2717000 146.6381790 146.2961800
  82.6430160 146.7427460 145.5820030  82.7768920 146.8578570 147.0855680
  75.2401030 148.9167740 147.7119680  74.5317180 149.3854080 148.1533290
  75.5245510 148.2589750 148.3464870  79.2716460 145.6418400 149.1515470
  79.1484240 145.6604530 148.2024980  80.2201020 145.6897340 149.2713870
  73.4436050 147.2252820 145.0870390  74.2926580 147.6622970 145.0210580
  73.0767320 147.5373080 145.9142450  82.3645830 151.7965580 150.0001960
  81.4235970 151.8115810 150.1749650  82.6789900 151.0101540 150.4462260
  71.0374230 150.9110250 144.2438810  71.1177820 149.9637760 144.3556210
  71.9293980 151.2417130 144.3499470  73.2705400 149.5483540 142.4806720
  73.0694460 148.6850900 142.8420060  73.0997450 149.4616900 141.5428320
  80.7493710 144.3591770 145.0093600  81.0296000 143.5159670 145.3653020
  79.9759440 144.5914880 145.5232350  72.0688200 146.6484160 142.4684600
  72.3714100 146.6551590 141.5603750  72.8082790 146.2982020 142.9652260
  75.2873130 145.5918780 143.4540800  74.9395130 144.9142770 142.8743250
  75.4885900 145.1308290 144.2684190  68.6278770 152.1206430 149.8505170
  67.9727610 151.8518070 149.2064870  69.4656720 152.0110910 149.4007150
  81.5769210 146.9147720 144.0723660  81.9954090 146.7278700 143.2320320
  81.2705270 146.0626770 144.3826590  85.0758940 151.8271860 147.7699460
  84.7002540 151.0599790 147.3380750  84.3462060 152.2094560 148.2574390
  67.8416850 149.3305360 145.7930500  66.9380930 149.5935560 145.6182160
  68.3257470 149.6016530 145.0130460  70.3844060 148.3870900 143.7024880
  71.0935760 147.9654120 143.2172160  69.6684000 148.4546130 143.0708230
  70.0318220 144.4410230 142.7427530  70.7546350 144.9819170 143.0608750
  70.3042740 144.1673650 141.8669070  83.8409870 149.3102700 147.0099110
  84.3368990 149.0773570 147.7947990  83.6425940 148.4714540 146.5936750
  85.2697030 147.9463650 149.5436790  85.1596310 147.7919690 150.4819060
  86.0304620 147.4184590 149.3012200  86.1587300 145.7771570 142.7842930
  87.0836610 145.6452750 142.5761220  86.1363090 145.8564390 143.7379380
  86.2325790 146.5482230 145.4099640  85.4377290 146.4827350 145.9392550
  86.4369070 147.4832870 145.3984990  84.5284290 144.5094350 149.8707290
  84.4672690 143.5655570 149.7238310  85.3076320 144.6174440 150.4160750
  69.4565060 144.4803490 146.3363100  70.2144420 144.5932370 145.7627130
  68.9942230 145.3172690 146.2906530  75.9978870 146.5942760 149.3265410
  75.1853380 146.2199650 148.9861290  76.5020510 145.8387840 149.6286600
  80.5003850 143.2585210 150.5648480  81.1033220 143.8305420 151.0397000
  79.7596840 143.8224650 150.3422380  83.6438450 143.6606770 145.8388760
  83.8389080 144.5590220 146.1056190  82.8568320 143.4293850 146.3321710
  71.8290210 145.0067540 144.8765070  72.3582970 144.2197340 144.7473020
  72.4618530 145.6858730 145.1100600  74.0228050 144.7442680 147.9310460
  73.3930790 144.0429990 148.0980590  73.4833190 145.5046810 147.7143620
  79.6557220 151.4572710 131.3078160  79.5751270 150.5427320 131.0369870
  79.2421640 151.9539780 130.6017870  70.2133040 148.5073430 127.8505580
  69.3249740 148.8489400 127.7485460  70.4974230 148.3073750 126.9586410
  68.1766050 151.1079080 133.7345280  68.7482160 150.3401280 133.7348920
  68.1767590 151.4067840 132.8251890  69.4190920 146.5163440 135.5214210
  69.2393760 145.6189190 135.8016970  69.0171000 147.0635310 136.1961160
  78.2589420 148.7179300 133.4226520  78.6354240 147.8451180 133.3100190
  78.1608930 149.0538000 132.5316960  72.3894430 147.0904930 128.8843960
  72.4961180 147.9908660 129.1912720  71.4786790 147.0422900 128.5938610
  82.0413540 146.2129740 130.3554860  82.8623160 145.7226310 130.3980340
  82.0747620 146.8027400 131.1086700  70.0377590 149.0123940 134.1296550
  70.7187700 149.2762310 134.7483950  69.7225640 148.1724810 134.4634560
  74.2302160 150.0591300 133.2169140  74.7380380 150.5572270 133.8574160
  74.7615400 149.2826500 133.0408500  86.3313090 148.2296490 136.9198490
  85.6265260 148.6178200 136.4013600  86.5971010 148.9246780 137.5219420
  72.5138260 144.6989860 137.4832560  72.5156700 145.2162250 136.6778460
  71.6842570 144.2220040 137.4602490  82.2775020 148.1530120 133.1282400
  81.5730590 148.4415010 133.7085510  82.6387180 148.9630230 132.7681960
  72.1953590 146.4099820 135.4903010  72.5370400 147.2541870 135.1956880
  71.2569400 146.5583560 135.6068350  85.3461940 147.5984910 133.5191610
  84.3986850 147.6323890 133.6507040  85.6711930 148.4123860 133.9040970
  75.8781480 143.8982090 131.8147600  76.1856460 143.3428980 131.0983100
  74.9482180 144.0326550 131.6320590  78.2531320 148.2347920 125.5474880
  77.3134990 148.3961880 125.6327340  78.5714580 148.9533600 125.0010870
  81.7386090 149.7035760 136.4708780  81.3257270 150.5289470 136.7248770
  81.0062040 149.1180800 136.2785140  73.8718880 152.4895660 131.3327450
  73.4675880 151.7772910 130.8373350  73.9582000 152.1448900 132.2215490
  72.5847500 149.2638870 135.1126490  73.1362090 149.3734210 134.3379740
  73.0991010 149.6376470 135.8281720  84.0541370 144.0180840 124.3756760
  83.7414030 144.1107670 125.2755830  84.8153840 144.5961870 124.3254190
  70.5723510 151.3840640 128.8334100  70.4521110 152.1102730 128.2215370
  70.2624400 150.6143550 128.3562010  85.2642660 148.7552340 140.3530900
  84.6486930 149.2632010 139.8246360  84.9439080 147.8550670 140.2956840
  73.0387170 144.7275710 132.2157770  72.5955320 145.5085250 131.8842290
  73.5972160 145.0505600 132.9228710  77.3256980 147.5944230 137.8193090
  76.8636350 147.8027250 138.6313030  76.9235090 146.7803580 137.5163760
  82.3261490 148.8153180 138.9489750  81.4755080 148.5158930 139.2698820
  82.1663280 149.0595190 138.0373570  79.4211200 150.3154930 141.0488540
  79.7464610 149.4818680 140.7090770  80.2091530 150.8383450 141.1966870
  76.1545990 144.3486410 127.0963600  75.5300170 144.3446280 127.8216910
  76.0676110 143.4817370 126.6999570  75.0763070 145.2723040 134.0747370
  75.3735400 146.1785870 133.9939390  75.6248630 144.7841820 133.4606940
  72.8301390 149.8509280 129.9439020  72.6042310 149.6346450 130.8485640
  72.0493920 150.2837740 129.5984990  80.0599150 149.8572650 128.5429670
  79.4608040 150.5808450 128.3593290  80.6078760 149.7949430 127.7606120
  75.2700600 150.7494860 140.6099290  75.1744200 149.8089590 140.4599690
  76.1132580 150.9709930 140.2147360  78.6664020 148.4936190 130.5732950
  79.0593590 148.8108390 129.7601640  79.0280870 147.6148070 130.6877470
  70.4011140 147.1608530 138.7633070  70.0074530 148.0083740 138.9705850
  69.7129540 146.5234900 138.9541710  76.9756190 147.2443500 141.8329810
  76.2854510 147.0515700 142.4675900  77.7188490 147.5278140 142.3654110
  67.7028190 145.0836990 132.7963150  67.4141240 145.6539850 133.5088130
  68.4473950 144.6041440 133.1594380  67.8898420 149.0257110 124.0065870
  67.8073090 149.9687870 124.1480860  67.5381480 148.8832020 123.1278220
  79.2519160 151.0841940 134.6683730  78.5200280 151.5928750 135.0173830
  78.8543500 150.2671920 134.3672510  75.6896550 147.7596140 133.0736220
  75.6932610 147.3186090 132.2240760  76.5847670 148.0813470 133.1808040
  71.5398930 147.6422630 132.0330430  71.1998980 148.1197860 132.7897480
  70.7776250 147.1887750 131.6731530  75.7516700 148.7608220 126.0642980
  75.8729520 148.7194700 127.0128800  75.3665210 149.6232370 125.9089710
  79.7145070 146.5375620 134.0806670  79.7317810 146.9884270 134.9248520
  79.4660650 145.6381260 134.2940110  74.7638200 151.0709360 125.4626280
  74.1955100 150.6227610 124.8362190  75.4727200 151.4302140 124.9291430
  83.1415820 143.9507800 139.9193050  83.4661590 143.2197460 140.4451030
  83.1772330 143.6321440 139.0174040  68.8545010 146.5641610 130.9495100
  68.5691930 146.1997280 131.7873720  68.7923870 145.8322070 130.3358240
  73.7803890 150.8606560 137.1385840  73.4760960 151.7398540 137.3636200
  74.7350350 150.9206350 137.1743280  78.5283600 145.4570870 127.6708470
  77.7148210 144.9584040 127.5953780  78.3345550 146.2969120 127.2544820
  81.2431990 149.8290520 125.9670630  82.1311610 150.1407750 125.7921970
  81.2137080 148.9562770 125.5751210  69.8367620 151.7009300 138.2857200
  69.4782560 152.3663150 138.8730540  69.5422180 150.8692850 138.6569820
  73.0380740 152.1593540 141.1696750  72.7380880 152.3050720 140.2724570
  73.8091980 151.5998830 141.0770140  83.5146260 151.1402360 125.4350490
  83.4309980 151.5716580 124.5846930  84.2340450 151.6000710 125.8677310
  68.3475670 151.7000560 124.9091800  69.2170520 151.9825360 125.1927720
  67.8565990 152.5136430 124.7940610  71.4122260 143.4311420 129.5022600
  71.2836890 143.4229320 130.4507520  70.5884280 143.7694510 129.1513610
  68.4116190 145.1902540 138.9629300  67.6974710 145.3899460 139.5681910
  68.8311230 144.4142110 139.3344100  79.9054970 147.6824850 136.7130750
  80.2735790 146.8620060 137.0410320  79.0453170 147.7426740 137.1286400
  83.2717000 146.6381790 127.5218310  82.6430160 146.7427460 126.8076540
  82.7768920 146.8578570 128.3112190  75.2401030 148.9167740 128.9376190
  74.5317180 149.3854080 129.3789800  75.5245510 148.2589750 129.5721380
  76.8656960 150.3364440 136.9368720  77.3642210 150.8110260 137.6020570
  77.0079910 149.4127960 137.1438750  79.2716460 145.6418400 130.3771980
  79.1484240 145.6604530 129.4281490  80.2201020 145.6897340 130.4970380
  73.4436050 147.2252820 126.3126900  74.2926580 147.6622970 126.2467090
  73.0767320 147.5373080 127.1398960  84.0723820 146.5532400 137.7797110
  83.5697420 147.2937800 138.1190920  84.8880480 146.9416400 137.4633900
  82.3645830 151.7965580 131.2258470  81.4235970 151.8115810 131.4006160
  82.6789900 151.0101540 131.6718770  71.0374230 150.9110250 125.4695320
  71.1177820 149.9637760 125.5812720  71.9293980 151.2417130 125.5755980
  70.5968110 150.8754760 141.6001560  70.6373450 150.5768630 142.5086790
  71.4513610 151.2762370 141.4409080  72.5373920 149.4546860 139.5676050
  72.0070380 148.9637810 138.9399390  73.2061990 149.8831060 139.0333980
  81.9074150 151.2612480 141.3356390  82.4894920 150.5064800 141.2476870
  82.0835920 151.7919920 140.5587870  73.0246220 146.4209230 139.6473340
  72.9303090 145.8029980 138.9224210  72.4443610 147.1475520 139.4203250
  75.7907660 144.9782470 136.6800730  75.3424960 145.0006730 135.8346280
  75.1572860 144.5801490 137.2771030  78.5331110 151.6052980 138.6851010
  78.6527320 151.0094120 139.4245850  79.3925110 151.6422670 138.2652310
  73.2705400 149.5483540 123.7063230  73.0694460 148.6850900 124.0676570
  73.0997450 149.4616900 122.7684830  75.2999880 148.1474330 139.9426830
  75.8899570 147.8390180 140.6304650  74.4820120 147.6754080 140.0986730
  80.1193310 147.7640140 140.1759850  79.4308830 147.1021680 140.1109840
  80.8399330 147.3178410 140.6208310  80.7493710 144.3591770 126.2350110
  81.0296000 143.5159670 126.5909530  79.9759440 144.5914880 126.7488860
  72.0688200 146.6484160 123.6941110  72.3714100 146.6551590 122.7860260
  72.8082790 146.2982020 124.1908770  75.2873130 145.5918780 124.6797310
  74.9395130 144.9142770 124.0999760  75.4885900 145.1308290 125.4940700
  68.6278770 152.1206430 131.0761680  67.9727610 151.8518070 130.4321380
  69.4656720 152.0110910 130.6263660  81.5769210 146.9147720 125.2980170
  81.9954090 146.7278700 124.4576830  81.2705270 146.0626770 125.6083100
  85.0758940 151.8271860 128.9955970  84.7002540 151.0599790 128.5637260
  84.3462060 152.2094560 129.4830900  69.6654700 152.5059000 135.6165020
  70.0327740 152.4186400 136.4961040  69.0965520 151.7425550 135.5171880
  84.4658560 150.9743380 138.6295490  84.2344650 150.7456130 137.7293440
  84.7263110 151.8942930 138.5840380  69.2170700 149.4168090 139.5223440
  68.3226750 149.3834850 139.8617150  69.7568250 149.6154880 140.2874690
  82.9046630 146.1999810 141.4075190  83.7816810 146.2083210 141.7909190
  82.9167470 145.4630650 140.7967540  67.8416850 149.3305360 127.0187010
  66.9380930 149.5935560 126.8438670  68.3257470 149.6016530 126.2386970
  84.3509900 150.0529350 132.2963210  84.8747380 149.5592000 131.6653380
  84.9369320 150.1879710 133.0410780  84.5299620 150.1369220 135.8182760
  83.5802330 150.1032760 135.9327750  84.7112630 151.0469330 135.5832530
  70.3844060 148.3870900 124.9281390  71.0935760 147.9654120 124.4428670
  69.6684000 148.4546130 124.2964740  70.0318220 144.4410230 123.9684040
  70.7546350 144.9819170 124.2865260  70.3042740 144.1673650 123.0925580
  83.8409870 149.3102700 128.2355620  84.3368990 149.0773570 129.0204500
  83.6425940 148.4714540 127.8193260  69.7210410 143.6916420 133.8706660
  70.3686600 143.1413800 133.4301820  70.1412250 143.9459570 134.6922470
  85.2697030 147.9463650 130.7693300  85.1596310 147.7919690 131.7075570
  86.0304620 147.4184590 130.5268710  83.6162750 143.8857780 137.2276300
  84.2534970 144.4991920 137.5935490  83.7637640 143.9218440 136.2825530
  86.1587300 145.7771570 124.0099440  87.0836610 145.6452750 123.8017730
  86.1363090 145.8564390 124.9635890  86.2325790 146.5482230 126.6356150
  85.4377290 146.4827350 127.1649060  86.4369070 147.4832870 126.6241500
  69.4742410 143.8472090 136.6131980  69.1257230 144.3035910 137.3790160
  69.1430110 142.9529220 136.6954410  76.9867230 145.0383970 140.1351400
  76.9256120 145.6305800 140.8846810  77.9267610 144.9309930 139.9901660
  79.6241790 144.6954030 139.7743690  80.2382200 145.0133320 139.1124770
  80.1691350 144.2102620 140.3939550  70.1463050 143.3748290 139.8882750
  70.6946040 143.1936340 139.1248860  70.2118360 142.5842400 140.4239060
  80.3649830 143.2586170 136.1012980  79.4909670 143.5921280 135.8985910
  80.2560580 142.7859350 136.9264850  81.2721810 145.4657040 137.4854700
  80.9435170 144.6508800 137.1056430  82.2204110 145.4226850 137.3620390
  78.1124650 144.1756010 135.0405890  77.3296440 144.6501510 135.3202650
  77.8187580 143.2710840 134.9319070  82.6645720 144.8779110 133.0854980
  83.1053810 144.8224210 132.2376580  82.3953310 145.7937120 133.1565160
  84.5284290 144.5094350 131.0963800  84.4672690 143.5655570 130.9494820
  85.3076320 144.6174440 131.6417260  69.4565060 144.4803490 127.5619610
  70.2144420 144.5932370 126.9883640  68.9942230 145.3172690 127.5163040
  75.9978870 146.5942760 130.5521920  75.1853380 146.2199650 130.2117800
  76.5020510 145.8387840 130.8543110  80.5003850 143.2585210 131.7904990
  81.1033220 143.8305420 132.2653510  79.7596840 143.8224650 131.5678890
  83.6438450 143.6606770 127.0645270  83.8389080 144.5590220 127.3312700
  82.8568320 143.4293850 127.5578220  71.8290210 145.0067540 126.1021580
  72.3582970 144.2197340 125.9729530  72.4618530 145.6858730 126.3357110
  74.0228050 144.7442680 129.1566970  73.3930790 144.0429990 129.3237100
  73.4833190 145.5046810 128.9400130  74.1483610 144.0226660 141.5919460
  73.8667880 144.5260260 140.8280280  74.5303310 143.2248410 141.2261590
  80.7499070 143.4380240 142.1699930  80.6364520 143.7574850 143.0651450
  81.5668810 143.8392750 141.8737210  79.6557220 151.4572710 112.5334670
  79.5751270 150.5427320 112.2626380  79.2421640 151.9539780 111.8274380
  70.2133040 148.5073430 109.0762090  69.3249740 148.8489400 108.9741970
  70.4974230 148.3073750 108.1842920  68.1766050 151.1079080 114.9601790
  68.7482160 150.3401280 114.9605430  68.1767590 151.4067840 114.0508400
  69.4190920 146.5163440 116.7470720  69.2393760 145.6189190 117.0273480
  69.0171000 147.0635310 117.4217670  78.2589420 148.7179300 114.6483030
  78.6354240 147.8451180 114.5356700  78.1608930 149.0538000 113.7573470
  72.3894430 147.0904930 110.1100470  72.4961180 147.9908660 110.4169230
  71.4786790 147.0422900 109.8195120  82.0413540 146.2129740 111.5811370
  82.8623160 145.7226310 111.6236850  82.0747620 146.8027400 112.3343210
  70.0377590 149.0123940 115.3553060  70.7187700 149.2762310 115.9740460
  69.7225640 148.1724810 115.6891070  74.2302160 150.0591300 114.4425650
  74.7380380 150.5572270 115.0830670  74.7615400 149.2826500 114.2665010
  86.3313090 148.2296490 118.1455000  85.6265260 148.6178200 117.6270110
  86.5971010 148.9246780 118.7475930  72.5138260 144.6989860 118.7089070
  72.5156700 145.2162250 117.9034970  71.6842570 144.2220040 118.6859000
  82.2775020 148.1530120 114.3538910  81.5730590 148.4415010 114.9342020
  82.6387180 148.9630230 113.9938470  72.1953590 146.4099820 116.7159520
  72.5370400 147.2541870 116.4213390  71.2569400 146.5583560 116.8324860
  85.3461940 147.5984910 114.7448120  84.3986850 147.6323890 114.8763550
  85.6711930 148.4123860 115.1297480  75.8781480 143.8982090 113.0404110
  76.1856460 143.3428980 112.3239610  74.9482180 144.0326550 112.8577100
  78.2531320 148.2347920 106.7731390  77.3134990 148.3961880 106.8583850
  78.5714580 148.9533600 106.2267380  81.7386090 149.7035760 117.6965290
  81.3257270 150.5289470 117.9505280  81.0062040 149.1180800 117.5041650
  73.8718880 152.4895660 112.5583960  73.4675880 151.7772910 112.0629860
  73.9582000 152.1448900 113.4472000  72.5847500 149.2638870 116.3383000
  73.1362090 149.3734210 115.5636250  73.0991010 149.6376470 117.0538230
  84.0541370 144.0180840 105.6013270  83.7414030 144.1107670 106.5012340
  84.8153840 144.5961870 105.5510700  70.5723510 151.3840640 110.0590610
  70.4521110 152.1102730 109.4471880  70.2624400 150.6143550 109.5818520
  85.2642660 148.7552340 121.5787410  84.6486930 149.2632010 121.0502870
  84.9439080 147.8550670 121.5213350  73.0387170 144.7275710 113.4414280
  72.5955320 145.5085250 113.1098800  73.5972160 145.0505600 114.1485220
  77.3256980 147.5944230 119.0449600  76.8636350 147.8027250 119.8569540
  76.9235090 146.7803580 118.7420270  82.3261490 148.8153180 120.1746260
  81.4755080 148.5158930 120.4955330  82.1663280 149.0595190 119.2630080
  79.4211200 150.3154930 122.2745050  79.7464610 149.4818680 121.9347280
  80.2091530 150.8383450 122.4223380  76.1545990 144.3486410 108.3220110
  75.5300170 144.3446280 109.0473420  76.0676110 143.4817370 107.9256080
  75.0763070 145.2723040 115.3003880  75.3735400 146.1785870 115.2195900
  75.6248630 144.7841820 114.6863450  72.8301390 149.8509280 111.1695530
  72.6042310 149.6346450 112.0742150  72.0493920 150.2837740 110.8241500
  80.0599150 149.8572650 109.7686180  79.4608040 150.5808450 109.5849800
  80.6078760 149.7949430 108.9862630  75.2700600 150.7494860 121.8355800
  75.1744200 149.8089590 121.6856200  76.1132580 150.9709930 121.4403870
  78.6664020 148.4936190 111.7989460  79.0593590 148.8108390 110.9858150
  79.0280870 147.6148070 111.9133980  70.4011140 147.1608530 119.9889580
  70.0074530 148.0083740 120.1962360  69.7129540 146.5234900 120.1798220
  76.9756190 147.2443500 123.0586320  76.2854510 147.0515700 123.6932410
  77.7188490 147.5278140 123.5910620  67.7028190 145.0836990 114.0219660
  67.4141240 145.6539850 114.7344640  68.4473950 144.6041440 114.3850890
  67.8898420 149.0257110 105.2322380  67.8073090 149.9687870 105.3737370
  67.5381480 148.8832020 104.3534730  79.2519160 151.0841940 115.8940240
  78.5200280 151.5928750 116.2430340  78.8543500 150.2671920 115.5929020
  75.6896550 147.7596140 114.2992730  75.6932610 147.3186090 113.4497270
  76.5847670 148.0813470 114.4064550  71.5398930 147.6422630 113.2586940
  71.1998980 148.1197860 114.0153990  70.7776250 147.1887750 112.8988040
  75.7516700 148.7608220 107.2899490  75.8729520 148.7194700 108.2385310
  75.3665210 149.6232370 107.1346220  79.7145070 146.5375620 115.3063180
  79.7317810 146.9884270 116.1505030  79.4660650 145.6381260 115.5196620
  74.7638200 151.0709360 106.6882790  74.1955100 150.6227610 106.0618700
  75.4727200 151.4302140 106.1547940  83.1415820 143.9507800 121.1449560
  83.4661590 143.2197460 121.6707540  83.1772330 143.6321440 120.2430550
  68.8545010 146.5641610 112.1751610  68.5691930 146.1997280 113.0130230
  68.7923870 145.8322070 111.5614750  73.7803890 150.8606560 118.3642350
  73.4760960 151.7398540 118.5892710  74.7350350 150.9206350 118.3999790
  78.5283600 145.4570870 108.8964980  77.7148210 144.9584040 108.8210290
  78.3345550 146.2969120 108.4801330  81.2431990 149.8290520 107.1927140
  82.1311610 150.1407750 107.0178480  81.2137080 148.9562770 106.8007720
  69.8367620 151.7009300 119.5113710  69.4782560 152.3663150 120.0987050
  69.5422180 150.8692850 119.8826330  73.0380740 152.1593540 122.3953260
  72.7380880 152.3050720 121.4981080  73.8091980 151.5998830 122.3026650
  83.5146260 151.1402360 106.6607000  83.4309980 151.5716580 105.8103440
  84.2340450 151.6000710 107.0933820  68.3475670 151.7000560 106.1348310
  69.2170520 151.9825360 106.4184230  67.8565990 152.5136430 106.0197120
  71.4122260 143.4311420 110.7279110  71.2836890 143.4229320 111.6764030
  70.5884280 143.7694510 110.3770120  68.4116190 145.1902540 120.1885810
  67.6974710 145.3899460 120.7938420  68.8311230 144.4142110 120.5600610
  79.9054970 147.6824850 117.9387260  80.2735790 146.8620060 118.2666830
  79.0453170 147.7426740 118.3542910  83.2717000 146.6381790 108.7474820
  82.6430160 146.7427460 108.0333050  82.7768920 146.8578570 109.5368700
  75.2401030 148.9167740 110.1632700  74.5317180 149.3854080 110.6046310
  75.5245510 148.2589750 110.7977890  76.8656960 150.3364440 118.1625230
  77.3642210 150.8110260 118.8277080  77.0079910 149.4127960 118.3695260
  79.2716460 145.6418400 111.6028490  79.1484240 145.6604530 110.6538000
  80.2201020 145.6897340 111.7226890  73.4436050 147.2252820 107.5383410
  74.2926580 147.6622970 107.4723600  73.0767320 147.5373080 108.3655470
  84.0723820 146.5532400 119.0053620  83.5697420 147.2937800 119.3447430
  84.8880480 146.9416400 118.6890410  82.3645830 151.7965580 112.4514980
  81.4235970 151.8115810 112.6262670  82.6789900 151.0101540 112.8975280
  71.0374230 150.9110250 106.6951830  71.1177820 149.9637760 106.8069230
  71.9293980 151.2417130 106.8012490  70.5968110 150.8754760 122.8258070
  70.6373450 150.5768630 123.7343300  71.4513610 151.2762370 122.6665590
  72.5373920 149.4546860 120.7932560  72.0070380 148.9637810 120.1655900
  73.2061990 149.8831060 120.2590490  81.9074150 151.2612480 122.5612900
  82.4894920 150.5064800 122.4733380  82.0835920 151.7919920 121.7844380
  73.0246220 146.4209230 120.8729850  72.9303090 145.8029980 120.1480720
  72.4443610 147.1475520 120.6459760  75.7907660 144.9782470 117.9057240
  75.3424960 145.0006730 117.0602790  75.1572860 144.5801490 118.5027540
  78.5331110 151.6052980 119.9107520  78.6527320 151.0094120 120.6502360
  79.3925110 151.6422670 119.4908820  73.2705400 149.5483540 104.9319740
  73.0694460 148.6850900 105.2933080  73.0997450 149.4616900 103.9941340
  75.2999880 148.1474330 121.1683340  75.8899570 147.8390180 121.8561160
  74.4820120 147.6754080 121.3243240  80.1193310 147.7640140 121.4016360
  79.4308830 147.1021680 121.3366350  80.8399330 147.3178410 121.8464820
  80.7493710 144.3591770 107.4606620  81.0296000 143.5159670 107.8166040
  79.9759440 144.5914880 107.9745370  72.0688200 146.6484160 104.9197620
  72.3714100 146.6551590 104.0116770  72.8082790 146.2982020 105.4165280
  75.2873130 145.5918780 105.9053820  74.9395130 144.9142770 105.3256270
  75.4885900 145.1308290 106.7197210  68.6278770 152.1206430 112.3018190
  67.9727610 151.8518070 111.6577890  69.4656720 152.0110910 111.8520170
  81.5769210 146.9147720 106.5236680  81.9954090 146.7278700 105.6833340
  81.2705270 146.0626770 106.8339610  85.0758940 151.8271860 110.2212480
  84.7002540 151.0599790 109.7893770  84.3462060 152.2094560 110.7087410
  69.6654700 152.5059000 116.8421530  70.0327740 152.4186400 117.7217550
  69.0965520 151.7425550 116.7428390  84.4658560 150.9743380 119.8552000
  84.2344650 150.7456130 118.9549950  84.7263110 151.8942930 119.8096890
  69.2170700 149.4168090 120.7479950  68.3226750 149.3834850 121.0873660
  69.7568250 149.6154880 121.5131200  82.9046630 146.1999810 122.6331700
  83.7816810 146.2083210 123.0165700  82.9167470 145.4630650 122.0224050
  67.8416850 149.3305360 108.2443520  66.9380930 149.5935560 108.0695180
  68.3257470 149.6016530 107.4643480  84.3509900 150.0529350 113.5219720
  84.8747380 149.5592000 112.8909890  84.9369320 150.1879710 114.2667290
  84.5299620 150.1369220 117.0439270  83.5802330 150.1032760 117.1584260
  84.7112630 151.0469330 116.8089040  70.3844060 148.3870900 106.1537900
  71.0935760 147.9654120 105.6685180  69.6684000 148.4546130 105.5221250
  70.0318220 144.4410230 105.1940550  70.7546350 144.9819170 105.5121770
  70.3042740 144.1673650 104.3182090  83.8409870 149.3102700 109.4612130
  84.3368990 149.0773570 110.2461010  83.6425940 148.4714540 109.0449770
  69.7210410 143.6916420 115.0963170  70.3686600 143.1413800 114.6558330
  70.1412250 143.9459570 115.9178980  85.2697030 147.9463650 111.9949810
  85.1596310 147.7919690 112.9332080  86.0304620 147.4184590 111.7525220
  83.6162750 143.8857780 118.4532810  84.2534970 144.4991920 118.8192000
  83.7637640 143.9218440 117.5082040  86.1587300 145.7771570 105.2355950
  87.0836610 145.6452750 105.0274240  86.1363090 145.8564390 106.1892400
  86.2325790 146.5482230 107.8612660  85.4377290 146.4827350 108.3905570
  86.4369070 147.4832870 107.8498010  69.4742410 143.8472090 117.8388490
  69.1257230 144.3035910 118.6046670  69.1430110 142.9529220 117.9210920
  76.9867230 145.0383970 121.3607910  76.9256120 145.6305800 122.1103320
  77.9267610 144.9309930 121.2158170  79.6241790 144.6954030 121.0000200
  80.2382200 145.0133320 120.3381280  80.1691350 144.2102620 121.6196060
  70.1463050 143.3748290 121.1139260  70.6946040 143.1936340 120.3505370
  70.2118360 142.5842400 121.6495570  80.3649830 143.2586170 117.3269490
  79.4909670 143.5921280 117.1242420  80.2560580 142.7859350 118.1521360
  81.2721810 145.4657040 118.7111210  80.9435170 144.6508800 118.3312940
  82.2204110 145.4226850 118.5876900  78.1124650 144.1756010 116.2662400
  77.3296440 144.6501510 116.5459160  77.8187580 143.2710840 116.1575580
  82.6645720 144.8779110 114.3111490  83.1053810 144.8224210 113.4633090
  82.3953310 145.7937120 114.3821670  84.5284290 144.5094350 112.3220310
  84.4672690 143.5655570 112.1751330  85.3076320 144.6174440 112.8673770
  69.4565060 144.4803490 108.7876120  70.2144420 144.5932370 108.2140150
  68.9942230 145.3172690 108.7419550  75.9978870 146.5942760 111.7778430
  75.1853380 146.2199650 111.4374310  76.5020510 145.8387840 112.0799620
  80.5003850 143.2585210 113.0161500  81.1033220 143.8305420 113.4910020
  79.7596840 143.8224650 112.7935400  83.6438450 143.6606770 108.2901780
  83.8389080 144.5590220 108.5569210  82.8568320 143.4293850 108.7834730
  71.8290210 145.0067540 107.3278090  72.3582970 144.2197340 107.1986040
  72.4618530 145.6858730 107.5613620  74.0228050 144.7442680 110.3823480
  73.3930790 144.0429990 110.5493610  73.4833190 145.5046810 110.1656640
  74.1483610 144.0226660 122.8175970  73.8667880 144.5260260 122.0536790
  74.5303310 143.2248410 122.4518100  80.7499070 143.4380240 123.3956440
  80.6364520 143.7574850 124.2907960  81.5668810 143.8392750 123.0993720
  79.6557220 151.4572710  93.7591180  79.5751270 150.5427320  93.4882890
  79.2421640 151.9539780  93.0530890  70.2133040 148.5073430  90.3018600
  69.3249740 148.8489400  90.1998480  70.4974230 148.3073750  89.4099430
  68.1766050 151.1079080  96.1858300  68.7482160 150.3401280  96.1861940
  68.1767590 151.4067840  95.2764910  69.4190920 146.5163440  97.9727230
  69.2393760 145.6189190  98.2529990  69.0171000 147.0635310  98.6474180
  78.2589420 148.7179300  95.8739540  78.6354240 147.8451180  95.7613210
  78.1608930 149.0538000  94.9829980  72.3894430 147.0904930  91.3356980
  72.4961180 147.9908660  91.6425740  71.4786790 147.0422900  91.0451630
  82.0413540 146.2129740  92.8067880  82.8623160 145.7226310  92.8493360
  82.0747620 146.8027400  93.5599720  70.0377590 149.0123940  96.5809570
  70.7187700 149.2762310  97.1996970  69.7225640 148.1724810  96.9147580
  74.2302160 150.0591300  95.6682160  74.7380380 150.5572270  96.3087180
  74.7615400 149.2826500  95.4921520  86.3313090 148.2296490  99.3711510
  85.6265260 148.6178200  98.8526620  86.5971010 148.9246780  99.9732440
  72.5138260 144.6989860  99.9345580  72.5156700 145.2162250  99.1291480
  71.6842570 144.2220040  99.9115510  82.2775020 148.1530120  95.5795420
  81.5730590 148.4415010  96.1598530  82.6387180 148.9630230  95.2194980
  72.1953590 146.4099820  97.9416030  72.5370400 147.2541870  97.6469900
  71.2569400 146.5583560  98.0581370  85.3461940 147.5984910  95.9704630
  84.3986850 147.6323890  96.1020060  85.6711930 148.4123860  96.3553990
  75.8781480 143.8982090  94.2660620  76.1856460 143.3428980  93.5496120
  74.9482180 144.0326550  94.0833610  78.2531320 148.2347920  87.9987900
  77.3134990 148.3961880  88.0840360  78.5714580 148.9533600  87.4523890
  81.7386090 149.7035760  98.9221800  81.3257270 150.5289470  99.1761790
  81.0062040 149.1180800  98.7298160  73.8718880 152.4895660  93.7840470
  73.4675880 151.7772910  93.2886370  73.9582000 152.1448900  94.6728510
  72.5847500 149.2638870  97.5639510  73.1362090 149.3734210  96.7892760
  73.0991010 149.6376470  98.2794740  84.0541370 144.0180840  86.8269780
  83.7414030 144.1107670  87.7268850  84.8153840 144.5961870  86.7767210
  70.5723510 151.3840640  91.2847120  70.4521110 152.1102730  90.6728390
  70.2624400 150.6143550  90.8075030  85.2642660 148.7552340 102.8043920
  84.6486930 149.2632010 102.2759380  84.9439080 147.8550670 102.7469860
  73.0387170 144.7275710  94.6670790  72.5955320 145.5085250  94.3355310
  73.5972160 145.0505600  95.3741730  77.3256980 147.5944230 100.2706110
  76.8636350 147.8027250 101.0826050  76.9235090 146.7803580  99.9676780
  82.3261490 148.8153180 101.4002770  81.4755080 148.5158930 101.7211840
  82.1663280 149.0595190 100.4886590  79.4211200 150.3154930 103.5001560
  79.7464610 149.4818680 103.1603790  80.2091530 150.8383450 103.6479890
  76.1545990 144.3486410  89.5476620  75.5300170 144.3446280  90.2729930
  76.0676110 143.4817370  89.1512590  75.0763070 145.2723040  96.5260390
  75.3735400 146.1785870  96.4452410  75.6248630 144.7841820  95.9119960
  72.8301390 149.8509280  92.3952040  72.6042310 149.6346450  93.2998660
  72.0493920 150.2837740  92.0498010  80.0599150 149.8572650  90.9942690
  79.4608040 150.5808450  90.8106310  80.6078760 149.7949430  90.2119140
  75.2700600 150.7494860 103.0612310  75.1744200 149.8089590 102.9112710
  76.1132580 150.9709930 102.6660380  78.6664020 148.4936190  93.0245970
  79.0593590 148.8108390  92.2114660  79.0280870 147.6148070  93.1390490
  70.4011140 147.1608530 101.2146090  70.0074530 148.0083740 101.4218870
  69.7129540 146.5234900 101.4054730  76.9756190 147.2443500 104.2842830
  76.2854510 147.0515700 104.9188920  77.7188490 147.5278140 104.8167130
  67.7028190 145.0836990  95.2476170  67.4141240 145.6539850  95.9601150
  68.4473950 144.6041440  95.6107400  67.8898420 149.0257110  86.4578890
  67.8073090 149.9687870  86.5993880  67.5381480 148.8832020  85.5791240
  79.2519160 151.0841940  97.1196750  78.5200280 151.5928750  97.4686850
  78.8543500 150.2671920  96.8185530  75.6896550 147.7596140  95.5249240
  75.6932610 147.3186090  94.6753780  76.5847670 148.0813470  95.6321060
  71.5398930 147.6422630  94.4843450  71.1998980 148.1197860  95.2410500
  70.7776250 147.1887750  94.1244550  75.7516700 148.7608220  88.5156000
  75.8729520 148.7194700  89.4641820  75.3665210 149.6232370  88.3602730
  79.7145070 146.5375620  96.5319690  79.7317810 146.9884270  97.3761540
  79.4660650 145.6381260  96.7453130  74.7638200 151.0709360  87.9139300
  74.1955100 150.6227610  87.2875210  75.4727200 151.4302140  87.3804450
  83.1415820 143.9507800 102.3706070  83.4661590 143.2197460 102.8964050
  83.1772330 143.6321440 101.4687060  68.8545010 146.5641610  93.4008120
  68.5691930 146.1997280  94.2386740  68.7923870 145.8322070  92.7871260
  73.7803890 150.8606560  99.5898860  73.4760960 151.7398540  99.8149220
  74.7350350 150.9206350  99.6256300  78.5283600 145.4570870  90.1221490
  77.7148210 144.9584040  90.0466800  78.3345550 146.2969120  89.7057840
  81.2431990 149.8290520  88.4183650  82.1311610 150.1407750  88.2434990
  81.2137080 148.9562770  88.0264230  69.8367620 151.7009300 100.7370220
  69.4782560 152.3663150 101.3243560  69.5422180 150.8692850 101.1082840
  73.0380740 152.1593540 103.6209770  72.7380880 152.3050720 102.7237590
  73.8091980 151.5998830 103.5283160  83.5146260 151.1402360  87.8863510
  83.4309980 151.5716580  87.0359950  84.2340450 151.6000710  88.3190330
  68.3475670 151.7000560  87.3604820  69.2170520 151.9825360  87.6440740
  67.8565990 152.5136430  87.2453630  71.4122260 143.4311420  91.9535620
  71.2836890 143.4229320  92.9020540  70.5884280 143.7694510  91.6026630
  68.4116190 145.1902540 101.4142320  67.6974710 145.3899460 102.0194930
  68.8311230 144.4142110 101.7857120  79.9054970 147.6824850  99.1643770
  80.2735790 146.8620060  99.4923340  79.0453170 147.7426740  99.5799420
  83.2717000 146.6381790  89.9731330  82.6430160 146.7427460  89.2589560
  82.7768920 146.8578570  90.7625210  75.2401030 148.9167740  91.3889210
  74.5317180 149.3854080  91.8302820  75.5245510 148.2589750  92.0234400
  76.8656960 150.3364440  99.3881740  77.3642210 150.8110260 100.0533590
  77.0079910 149.4127960  99.5951770  79.2716460 145.6418400  92.8285000
  79.1484240 145.6604530  91.8794510  80.2201020 145.6897340  92.9483400
  73.4436050 147.2252820  88.7639920  74.2926580 147.6622970  88.6980110
  73.0767320 147.5373080  89.5911980  84.0723820 146.5532400 100.2310130
  83.5697420 147.2937800 100.5703940  84.8880480 146.9416400  99.9146920
  82.3645830 151.7965580  93.6771490  81.4235970 151.8115810  93.8519180
  82.6789900 151.0101540  94.1231790  71.0374230 150.9110250  87.9208340
  71.1177820 149.9637760  88.0325740  71.9293980 151.2417130  88.0269000
  70.5968110 150.8754760 104.0514580  70.6373450 150.5768630 104.9599810
  71.4513610 151.2762370 103.8922100  72.5373920 149.4546860 102.0189070
  72.0070380 148.9637810 101.3912410  73.2061990 149.8831060 101.4847000
  81.9074150 151.2612480 103.7869410  82.4894920 150.5064800 103.6989890
  82.0835920 151.7919920 103.0100890  73.0246220 146.4209230 102.0986360
  72.9303090 145.8029980 101.3737230  72.4443610 147.1475520 101.8716270
  75.7907660 144.9782470  99.1313750  75.3424960 145.0006730  98.2859300
  75.1572860 144.5801490  99.7284050  78.5331110 151.6052980 101.1364030
  78.6527320 151.0094120 101.8758870  79.3925110 151.6422670 100.7165330
  73.2705400 149.5483540  86.1576250  73.0694460 148.6850900  86.5189590
  73.0997450 149.4616900  85.2197850  75.2999880 148.1474330 102.3939850
  75.8899570 147.8390180 103.0817670  74.4820120 147.6754080 102.5499750
  80.1193310 147.7640140 102.6272870  79.4308830 147.1021680 102.5622860
  80.8399330 147.3178410 103.0721330  80.7493710 144.3591770  88.6863130
  81.0296000 143.5159670  89.0422550  79.9759440 144.5914880  89.2001880
  72.0688200 146.6484160  86.1454130  72.3714100 146.6551590  85.2373280
  72.8082790 146.2982020  86.6421790  75.2873130 145.5918780  87.1310330
  74.9395130 144.9142770  86.5512780  75.4885900 145.1308290  87.9453720
  68.6278770 152.1206430  93.5274700  67.9727610 151.8518070  92.8834400
  69.4656720 152.0110910  93.0776680  81.5769210 146.9147720  87.7493190
  81.9954090 146.7278700  86.9089850  81.2705270 146.0626770  88.0596120
  85.0758940 151.8271860  91.4468990  84.7002540 151.0599790  91.0150280
  84.3462060 152.2094560  91.9343920  69.6654700 152.5059000  98.0678040
  70.0327740 152.4186400  98.9474060  69.0965520 151.7425550  97.9684900
  84.4658560 150.9743380 101.0808510  84.2344650 150.7456130 100.1806460
  84.7263110 151.8942930 101.0353400  69.2170700 149.4168090 101.9736460
  68.3226750 149.3834850 102.3130170  69.7568250 149.6154880 102.7387710
  82.9046630 146.1999810 103.8588210  83.7816810 146.2083210 104.2422210
  82.9167470 145.4630650 103.2480560  67.8416850 149.3305360  89.4700030
  66.9380930 149.5935560  89.2951690  68.3257470 149.6016530  88.6899990
  84.3509900 150.0529350  94.7476230  84.8747380 149.5592000  94.1166400
  84.9369320 150.1879710  95.4923800  84.5299620 150.1369220  98.2695780
  83.5802330 150.1032760  98.3840770  84.7112630 151.0469330  98.0345550
  70.3844060 148.3870900  87.3794410  71.0935760 147.9654120  86.8941690
  69.6684000 148.4546130  86.7477760  70.0318220 144.4410230  86.4197060
  70.7546350 144.9819170  86.7378280  70.3042740 144.1673650  85.5438600
  83.8409870 149.3102700  90.6868640  84.3368990 149.0773570  91.4717520
  83.6425940 148.4714540  90.2706280  69.7210410 143.6916420  96.3219680
  70.3686600 143.1413800  95.8814840  70.1412250 143.9459570  97.1435490
  85.2697030 147.9463650  93.2206320  85.1596310 147.7919690  94.1588590
  86.0304620 147.4184590  92.9781730  83.6162750 143.8857780  99.6789320
  84.2534970 144.4991920 100.0448510  83.7637640 143.9218440  98.7338550
  86.1587300 145.7771570  86.4612460  87.0836610 145.6452750  86.2530750
  86.1363090 145.8564390  87.4148910  86.2325790 146.5482230  89.0869170
  85.4377290 146.4827350  89.6162080  86.4369070 147.4832870  89.0754520
  69.4742410 143.8472090  99.0645000  69.1257230 144.3035910  99.8303180
  69.1430110 142.9529220  99.1467430  76.9867230 145.0383970 102.5864420
  76.9256120 145.6305800 103.3359830  77.9267610 144.9309930 102.4414680
  79.6241790 144.6954030 102.2256710  80.2382200 145.0133320 101.5637790
  80.1691350 144.2102620 102.8452570  70.1463050 143.3748290 102.3395770
  70.6946040 143.1936340 101.5761880  70.2118360 142.5842400 102.8752080
  80.3649830 143.2586170  98.5526000  79.4909670 143.5921280  98.3498930
  80.2560580 142.7859350  99.3777870  81.2721810 145.4657040  99.9367720
  80.9435170 144.6508800  99.5569450  82.2204110 145.4226850  99.8133410
  78.1124650 144.1756010  97.4918910  77.3296440 144.6501510  97.7715670
  77.8187580 143.2710840  97.3832090  82.6645720 144.8779110  95.5368000
  83.1053810 144.8224210  94.6889600  82.3953310 145.7937120  95.6078180
  84.5284290 144.5094350  93.5476820  84.4672690 143.5655570  93.4007840
  85.3076320 144.6174440  94.0930280  69.4565060 144.4803490  90.0132630
  70.2144420 144.5932370  89.4396660  68.9942230 145.3172690  89.9676060
  75.9978870 146.5942760  93.0034940  75.1853380 146.2199650  92.6630820
  76.5020510 145.8387840  93.3056130  80.5003850 143.2585210  94.2418010
  81.1033220 143.8305420  94.7166530  79.7596840 143.8224650  94.0191910
  83.6438450 143.6606770  89.5158290  83.8389080 144.5590220  89.7825720
  82.8568320 143.4293850  90.0091240  71.8290210 145.0067540  88.5534600
  72.3582970 144.2197340  88.4242550  72.4618530 145.6858730  88.7870130
  74.0228050 144.7442680  91.6079990  73.3930790 144.0429990  91.7750120
  73.4833190 145.5046810  91.3913150  74.1483610 144.0226660 104.0432480
  73.8667880 144.5260260 103.2793300  74.5303310 143.2248410 103.6774610
  80.7499070 143.4380240 104.6212950  80.6364520 143.7574850 105.5164470
  81.5668810 143.8392750 104.3250230  79.6557220 151.4572710  74.9847690
  79.5751270 150.5427320  74.7139400  79.2421640 151.9539780  74.2787400
  70.2133040 148.5073430  71.5275110  69.3249740 148.8489400  71.4254990
  70.4974230 148.3073750  70.6355940  68.1766050 151.1079080  77.4114810
  68.7482160 150.3401280  77.4118450  68.1767590 151.4067840  76.5021420
  69.4190920 146.5163440  79.1983740  69.2393760 145.6189190  79.4786500
  69.0171000 147.0635310  79.8730690  78.2589420 148.7179300  77.0996050
  78.6354240 147.8451180  76.9869720  78.1608930 149.0538000  76.2086490
  72.3894430 147.0904930  72.5613490  72.4961180 147.9908660  72.8682250
  71.4786790 147.0422900  72.2708140  82.0413540 146.2129740  74.0324390
  82.8623160 145.7226310  74.0749870  82.0747620 146.8027400  74.7856230
  70.0377590 149.0123940  77.8066080  70.7187700 149.2762310  78.4253480
  69.7225640 148.1724810  78.1404090  74.2302160 150.0591300  76.8938670
  74.7380380 150.5572270  77.5343690  74.7615400 149.2826500  76.7178030
  86.3313090 148.2296490  80.5968020  85.6265260 148.6178200  80.0783130
  86.5971010 148.9246780  81.1988950  72.5138260 144.6989860  81.1602090
  72.5156700 145.2162250  80.3547990  71.6842570 144.2220040  81.1372020
  82.2775020 148.1530120  76.8051930  81.5730590 148.4415010  77.3855040
  82.6387180 148.9630230  76.4451490  72.1953590 146.4099820  79.1672540
  72.5370400 147.2541870  78.8726410  71.2569400 146.5583560  79.2837880
  85.3461940 147.5984910  77.1961140  84.3986850 147.6323890  77.3276570
  85.6711930 148.4123860  77.5810500  75.8781480 143.8982090  75.4917130
  76.1856460 143.3428980  74.7752630  74.9482180 144.0326550  75.3090120
  78.2531320 148.2347920  69.2244410  77.3134990 148.3961880  69.3096870
  78.5714580 148.9533600  68.6780400  81.7386090 149.7035760  80.1478310
  81.3257270 150.5289470  80.4018300  81.0062040 149.1180800  79.9554670
  73.8718880 152.4895660  75.0096980  73.4675880 151.7772910  74.5142880
  73.9582000 152.1448900  75.8985020  72.5847500 149.2638870  78.7896020
  73.1362090 149.3734210  78.0149270  73.0991010 149.6376470  79.5051250
  84.0541370 144.0180840  68.0526290  83.7414030 144.1107670  68.9525360
  84.8153840 144.5961870  68.0023720  70.5723510 151.3840640  72.5103630
  70.4521110 152.1102730  71.8984900  70.2624400 150.6143550  72.0331540
  85.2642660 148.7552340  84.0300430  84.6486930 149.2632010  83.5015890
  84.9439080 147.8550670  83.9726370  73.0387170 144.7275710  75.8927300
  72.5955320 145.5085250  75.5611820  73.5972160 145.0505600  76.5998240
  77.3256980 147.5944230  81.4962620  76.8636350 147.8027250  82.3082560
  76.9235090 146.7803580  81.1933290  82.3261490 148.8153180  82.6259280
  81.4755080 148.5158930  82.9468350  82.1663280 149.0595190  81.7143100
  79.4211200 150.3154930  84.7258070  79.7464610 149.4818680  84.3860300
  80.2091530 150.8383450  84.8736400  76.1545990 144.3486410  70.7733130
  75.5300170 144.3446280  71.4986440  76.0676110 143.4817370  70.3769100
  75.0763070 145.2723040  77.7516900  75.3735400 146.1785870  77.6708920
  75.6248630 144.7841820  77.1376470  72.8301390 149.8509280  73.6208550
  72.6042310 149.6346450  74.5255170  72.0493920 150.2837740  73.2754520
  80.0599150 149.8572650  72.2199200  79.4608040 150.5808450  72.0362820
  80.6078760 149.7949430  71.4375650  75.2700600 150.7494860  84.2868820
  75.1744200 149.8089590  84.1369220  76.1132580 150.9709930  83.8916890
  78.6664020 148.4936190  74.2502480  79.0593590 148.8108390  73.4371170
  79.0280870 147.6148070  74.3647000  70.4011140 147.1608530  82.4402600
  70.0074530 148.0083740  82.6475380  69.7129540 146.5234900  82.6311240
  76.9756190 147.2443500  85.5099340  76.2854510 147.0515700  86.1445430
  77.7188490 147.5278140  86.0423640  67.7028190 145.0836990  76.4732680
  67.4141240 145.6539850  77.1857660  68.4473950 144.6041440  76.8363910
  67.8898420 149.0257110  67.6835400  67.8073090 149.9687870  67.8250390
  67.5381480 148.8832020  66.8047750  79.2519160 151.0841940  78.3453260
  78.5200280 151.5928750  78.6943360  78.8543500 150.2671920  78.0442040
  75.6896550 147.7596140  76.7505750  75.6932610 147.3186090  75.9010290
  76.5847670 148.0813470  76.8577570  71.5398930 147.6422630  75.7099960
  71.1998980 148.1197860  76.4667010  70.7776250 147.1887750  75.3501060
  75.7516700 148.7608220  69.7412510  75.8729520 148.7194700  70.6898330
  75.3665210 149.6232370  69.5859240  79.7145070 146.5375620  77.7576200
  79.7317810 146.9884270  78.6018050  79.4660650 145.6381260  77.9709640
  74.7638200 151.0709360  69.1395810  74.1955100 150.6227610  68.5131720
  75.4727200 151.4302140  68.6060960  83.1415820 143.9507800  83.5962580
  83.4661590 143.2197460  84.1220560  83.1772330 143.6321440  82.6943570
  68.8545010 146.5641610  74.6264630  68.5691930 146.1997280  75.4643250
  68.7923870 145.8322070  74.0127770  73.7803890 150.8606560  80.8155370
  73.4760960 151.7398540  81.0405730  74.7350350 150.9206350  80.8512810
  78.5283600 145.4570870  71.3478000  77.7148210 144.9584040  71.2723310
  78.3345550 146.2969120  70.9314350  81.2431990 149.8290520  69.6440160
  82.1311610 150.1407750  69.4691500  81.2137080 148.9562770  69.2520740
  69.8367620 151.7009300  81.9626730  69.4782560 152.3663150  82.5500070
  69.5422180 150.8692850  82.3339350  73.0380740 152.1593540  84.8466280
  72.7380880 152.3050720  83.9494100  73.8091980 151.5998830  84.7539670
  83.5146260 151.1402360  69.1120020  83.4309980 151.5716580  68.2616460
  84.2340450 151.6000710  69.5446840  68.3475670 151.7000560  68.5861330
  69.2170520 151.9825360  68.8697250  67.8565990 152.5136430  68.4710140
  71.4122260 143.4311420  73.1792130  71.2836890 143.4229320  74.1277050
  70.5884280 143.7694510  72.8283140  68.4116190 145.1902540  82.6398830
  67.6974710 145.3899460  83.2451440  68.8311230 144.4142110  83.0113630
  79.9054970 147.6824850  80.3900280  80.2735790 146.8620060  80.7179850
  79.0453170 147.7426740  80.8055930  83.2717000 146.6381790  71.1987840
  82.6430160 146.7427460  70.4846070  82.7768920 146.8578570  71.9881720
  75.2401030 148.9167740  72.6145720  74.5317180 149.3854080  73.0559330
  75.5245510 148.2589750  73.2490910  76.8656960 150.3364440  80.6138250
  77.3642210 150.8110260  81.2790100  77.0079910 149.4127960  80.8208280
  79.2716460 145.6418400  74.0541510  79.1484240 145.6604530  73.1051020
  80.2201020 145.6897340  74.1739910  73.4436050 147.2252820  69.9896430
  74.2926580 147.6622970  69.9236620  73.0767320 147.5373080  70.8168490
  84.0723820 146.5532400  81.4566640  83.5697420 147.2937800  81.7960450
  84.8880480 146.9416400  81.1403430  82.3645830 151.7965580  74.9028000
  81.4235970 151.8115810  75.0775690  82.6789900 151.0101540  75.3488300
  71.0374230 150.9110250  69.1464850  71.1177820 149.9637760  69.2582250
  71.9293980 151.2417130  69.2525510  70.5968110 150.8754760  85.2771090
  70.6373450 150.5768630  86.1856320  71.4513610 151.2762370  85.1178610
  72.5373920 149.4546860  83.2445580  72.0070380 148.9637810  82.6168920
  73.2061990 149.8831060  82.7103510  81.9074150 151.2612480  85.0125920
  82.4894920 150.5064800  84.9246400  82.0835920 151.7919920  84.2357400
  73.0246220 146.4209230  83.3242870  72.9303090 145.8029980  82.5993740
  72.4443610 147.1475520  83.0972780  75.7907660 144.9782470  80.3570260
  75.3424960 145.0006730  79.5115810  75.1572860 144.5801490  80.9540560
  78.5331110 151.6052980  82.3620540  78.6527320 151.0094120  83.1015380
  79.3925110 151.6422670  81.9421840  73.2705400 149.5483540  67.3832760
  73.0694460 148.6850900  67.7446100  73.0997450 149.4616900  66.4454360
  75.2999880 148.1474330  83.6196360  75.8899570 147.8390180  84.3074180
  74.4820120 147.6754080  83.7756260  80.1193310 147.7640140  83.8529380
  79.4308830 147.1021680  83.7879370  80.8399330 147.3178410  84.2977840
  80.7493710 144.3591770  69.9119640  81.0296000 143.5159670  70.2679060
  79.9759440 144.5914880  70.4258390  72.0688200 146.6484160  67.3710640
  72.3714100 146.6551590  66.4629790  72.8082790 146.2982020  67.8678300
  75.2873130 145.5918780  68.3566840  74.9395130 144.9142770  67.7769290
  75.4885900 145.1308290  69.1710230  68.6278770 152.1206430  74.7531210
  67.9727610 151.8518070  74.1090910  69.4656720 152.0110910  74.3033190
  81.5769210 146.9147720  68.9749700  81.9954090 146.7278700  68.1346360
  81.2705270 146.0626770  69.2852630  85.0758940 151.8271860  72.6725500
  84.7002540 151.0599790  72.2406790  84.3462060 152.2094560  73.1600430
  69.6654700 152.5059000  79.2934550  70.0327740 152.4186400  80.1730570
  69.0965520 151.7425550  79.1941410  84.4658560 150.9743380  82.3065020
  84.2344650 150.7456130  81.4062970  84.7263110 151.8942930  82.2609910
  69.2170700 149.4168090  83.1992970  68.3226750 149.3834850  83.5386680
  69.7568250 149.6154880  83.9644220  82.9046630 146.1999810  85.0844720
  83.7816810 146.2083210  85.4678720  82.9167470 145.4630650  84.4737070
  67.8416850 149.3305360  70.6956540  66.9380930 149.5935560  70.5208200
  68.3257470 149.6016530  69.9156500  84.3509900 150.0529350  75.9732740
  84.8747380 149.5592000  75.3422910  84.9369320 150.1879710  76.7180310
  84.5299620 150.1369220  79.4952290  83.5802330 150.1032760  79.6097280
  84.7112630 151.0469330  79.2602060  70.3844060 148.3870900  68.6050920
  71.0935760 147.9654120  68.1198200  69.6684000 148.4546130  67.9734270
  70.0318220 144.4410230  67.6453570  70.7546350 144.9819170  67.9634790
  70.3042740 144.1673650  66.7695110  83.8409870 149.3102700  71.9125150
  84.3368990 149.0773570  72.6974030  83.6425940 148.4714540  71.4962790
  85.2697030 147.9463650  74.4462830  85.1596310 147.7919690  75.3845100
  86.0304620 147.4184590  74.2038240  83.6162750 143.8857780  80.9045830
  84.2534970 144.4991920  81.2705020  83.7637640 143.9218440  79.9595060
  86.1587300 145.7771570  67.6868970  87.0836610 145.6452750  67.4787260
  86.1363090 145.8564390  68.6405420  86.2325790 146.5482230  70.3125680
  85.4377290 146.4827350  70.8418590  86.4369070 147.4832870  70.3011030
  69.4742410 143.8472090  80.2901510  69.1257230 144.3035910  81.0559690
  69.1430110 142.9529220  80.3723940  76.9867230 145.0383970  83.8120930
  76.9256120 145.6305800  84.5616340  77.9267610 144.9309930  83.6671190
  79.6241790 144.6954030  83.4513220  80.2382200 145.0133320  82.7894300
  80.1691350 144.2102620  84.0709080  70.1463050 143.3748290  83.5652280
  70.6946040 143.1936340  82.8018390  70.2118360 142.5842400  84.1008590
  80.3649830 143.2586170  79.7782510  79.4909670 143.5921280  79.5755440
  80.2560580 142.7859350  80.6034380  81.2721810 145.4657040  81.1624230
  80.9435170 144.6508800  80.7825960  82.2204110 145.4226850  81.0389920
  78.1124650 144.1756010  78.7175420  77.3296440 144.6501510  78.9972180
  77.8187580 143.2710840  78.6088600  82.6645720 144.8779110  76.7624510
  83.1053810 144.8224210  75.9146110  82.3953310 145.7937120  76.8334690
  84.5284290 144.5094350  74.7733330  84.4672690 143.5655570  74.6264350
  85.3076320 144.6174440  75.3186790  69.4565060 144.4803490  71.2389140
  70.2144420 144.5932370  70.6653170  68.9942230 145.3172690  71.1932570
  75.9978870 146.5942760  74.2291450  75.1853380 146.2199650  73.8887330
  76.5020510 145.8387840  74.5312640  80.5003850 143.2585210  75.4674520
  81.1033220 143.8305420  75.9423040  79.7596840 143.8224650  75.2448420
  83.6438450 143.6606770  70.7414800  83.8389080 144.5590220  71.0082230
  82.8568320 143.4293850  71.2347750  71.8290210 145.0067540  69.7791110
  72.3582970 144.2197340  69.6499060  72.4618530 145.6858730  70.0126640
  74.0228050 144.7442680  72.8336500  73.3930790 144.0429990  73.0006630
  73.4833190 145.5046810  72.6169660  74.1483610 144.0226660  85.2688990
  73.8667880 144.5260260  84.5049810  74.5303310 143.2248410  84.9031120
  80.7499070 143.4380240  85.8469460  80.6364520 143.7574850  86.7420980
  81.5668810 143.8392750  85.5506740  79.6557220 151.4572710  56.2104200
  79.5751270 150.5427320  55.9395910  79.2421640 151.9539780  55.5043910
  70.2133040 148.5073430  52.7531620  69.3249740 148.8489400  52.6511500
  70.4974230 148.3073750  51.8612450  68.1766050 151.1079080  58.6371320
  68.7482160 150.3401280  58.6374960  68.1767590 151.4067840  57.7277930
  69.4190920 146.5163440  60.4240250  69.2393760 145.6189190  60.7043010
  69.0171000 147.0635310  61.0987200  78.2589420 148.7179300  58.3252560
  78.6354240 147.8451180  58.2126230  78.1608930 149.0538000  57.4343000
  72.3894430 147.0904930  53.7870000  72.4961180 147.9908660  54.0938760
  71.4786790 147.0422900  53.4964650  82.0413540 146.2129740  55.2580900
  82.8623160 145.7226310  55.3006380  82.0747620 146.8027400  56.0112740
  70.0377590 149.0123940  59.0322590  70.7187700 149.2762310  59.6509990
  69.7225640 148.1724810  59.3660600  74.2302160 150.0591300  58.1195180
  74.7380380 150.5572270  58.7600200  74.7615400 149.2826500  57.9434540
  86.3313090 148.2296490  61.8224530  85.6265260 148.6178200  61.3039640
  86.5971010 148.9246780  62.4245460  72.5138260 144.6989860  62.3858600
  72.5156700 145.2162250  61.5804500  71.6842570 144.2220040  62.3628530
  82.2775020 148.1530120  58.0308440  81.5730590 148.4415010  58.6111550
  82.6387180 148.9630230  57.6708000  72.1953590 146.4099820  60.3929050
  72.5370400 147.2541870  60.0982920  71.2569400 146.5583560  60.5094390
  85.3461940 147.5984910  58.4217650  84.3986850 147.6323890  58.5533080
  85.6711930 148.4123860  58.8067010  75.8781480 143.8982090  56.7173640
  76.1856460 143.3428980  56.0009140  74.9482180 144.0326550  56.5346630
  78.2531320 148.2347920  50.4500920  77.3134990 148.3961880  50.5353380
  78.5714580 148.9533600  49.9036910  81.7386090 149.7035760  61.3734820
  81.3257270 150.5289470  61.6274810  81.0062040 149.1180800  61.1811180
  73.8718880 152.4895660  56.2353490  73.4675880 151.7772910  55.7399390
  73.9582000 152.1448900  57.1241530  72.5847500 149.2638870  60.0152530
  73.1362090 149.3734210  59.2405780  73.0991010 149.6376470  60.7307760
  84.0541370 144.0180840  49.2782800  83.7414030 144.1107670  50.1781870
  84.8153840 144.5961870  49.2280230  70.5723510 151.3840640  53.7360140
  70.4521110 152.1102730  53.1241410  70.2624400 150.6143550  53.2588050
  85.2642660 148.7552340  65.2556940  84.6486930 149.2632010  64.7272400
  84.9439080 147.8550670  65.1982880  73.0387170 144.7275710  57.1183810
  72.5955320 145.5085250  56.7868330  73.5972160 145.0505600  57.8254750
  77.3256980 147.5944230  62.7219130  76.8636350 147.8027250  63.5339070
  76.9235090 146.7803580  62.4189800  82.3261490 148.8153180  63.8515790
  81.4755080 148.5158930  64.1724860  82.1663280 149.0595190  62.9399610
  79.4211200 150.3154930  65.9514580  79.7464610 149.4818680  65.6116810
  80.2091530 150.8383450  66.0992910  76.1545990 144.3486410  51.9989640
  75.5300170 144.3446280  52.7242950  76.0676110 143.4817370  51.6025610
  75.0763070 145.2723040  58.9773410  75.3735400 146.1785870  58.8965430
  75.6248630 144.7841820  58.3632980  72.8301390 149.8509280  54.8465060
  72.6042310 149.6346450  55.7511680  72.0493920 150.2837740  54.5011030
  80.0599150 149.8572650  53.4455710  79.4608040 150.5808450  53.2619330
  80.6078760 149.7949430  52.6632160  75.2700600 150.7494860  65.5125330
  75.1744200 149.8089590  65.3625730  76.1132580 150.9709930  65.1173400
  78.6664020 148.4936190  55.4758990  79.0593590 148.8108390  54.6627680
  79.0280870 147.6148070  55.5903510  70.4011140 147.1608530  63.6659110
  70.0074530 148.0083740  63.8731890  69.7129540 146.5234900  63.8567750
  76.9756190 147.2443500  66.7355850  76.2854510 147.0515700  67.3701940
  77.7188490 147.5278140  67.2680150  67.7028190 145.0836990  57.6989190
  67.4141240 145.6539850  58.4114170  68.4473950 144.6041440  58.0620420
  67.8898420 149.0257110  48.9091910  67.8073090 149.9687870  49.0506900
  67.5381480 148.8832020  48.0304260  79.2519160 151.0841940  59.5709770
  78.5200280 151.5928750  59.9199870  78.8543500 150.2671920  59.2698550
  75.6896550 147.7596140  57.9762260  75.6932610 147.3186090  57.1266800
  76.5847670 148.0813470  58.0834080  71.5398930 147.6422630  56.9356470
  71.1998980 148.1197860  57.6923520  70.7776250 147.1887750  56.5757570
  75.7516700 148.7608220  50.9669020  75.8729520 148.7194700  51.9154840
  75.3665210 149.6232370  50.8115750  79.7145070 146.5375620  58.9832710
  79.7317810 146.9884270  59.8274560  79.4660650 145.6381260  59.1966150
  74.7638200 151.0709360  50.3652320  74.1955100 150.6227610  49.7388230
  75.4727200 151.4302140  49.8317470  83.1415820 143.9507800  64.8219090
  83.4661590 143.2197460  65.3477070  83.1772330 143.6321440  63.9200080
  68.8545010 146.5641610  55.8521140  68.5691930 146.1997280  56.6899760
  68.7923870 145.8322070  55.2384280  73.7803890 150.8606560  62.0411880
  73.4760960 151.7398540  62.2662240  74.7350350 150.9206350  62.0769320
  78.5283600 145.4570870  52.5734510  77.7148210 144.9584040  52.4979820
  78.3345550 146.2969120  52.1570860  81.2431990 149.8290520  50.8696670
  82.1311610 150.1407750  50.6948010  81.2137080 148.9562770  50.4777250
  69.8367620 151.7009300  63.1883240  69.4782560 152.3663150  63.7756580
  69.5422180 150.8692850  63.5595860  73.0380740 152.1593540  66.0722790
  72.7380880 152.3050720  65.1750610  73.8091980 151.5998830  65.9796180
  83.5146260 151.1402360  50.3376530  83.4309980 151.5716580  49.4872970
  84.2340450 151.6000710  50.7703350  68.3475670 151.7000560  49.8117840
  69.2170520 151.9825360  50.0953760  67.8565990 152.5136430  49.6966650
  71.4122260 143.4311420  54.4048640  71.2836890 143.4229320  55.3533560
  70.5884280 143.7694510  54.0539650  68.4116190 145.1902540  63.8655340
  67.6974710 145.3899460  64.4707950  68.8311230 144.4142110  64.2370140
  79.9054970 147.6824850  61.6156790  80.2735790 146.8620060  61.9436360
  79.0453170 147.7426740  62.0312440  83.2717000 146.6381790  52.4244350
  82.6430160 146.7427460  51.7102580  82.7768920 146.8578570  53.2138230
  75.2401030 148.9167740  53.8402230  74.5317180 149.3854080  54.2815840
  75.5245510 148.2589750  54.4747420  76.8656960 150.3364440  61.8394760
  77.3642210 150.8110260  62.5046610  77.0079910 149.4127960  62.0464790
  79.2716460 145.6418400  55.2798020  79.1484240 145.6604530  54.3307530
  80.2201020 145.6897340  55.3996420  73.4436050 147.2252820  51.2152940
  74.2926580 147.6622970  51.1493130  73.0767320 147.5373080  52.0425000
  84.0723820 146.5532400  62.6823150  83.5697420 147.2937800  63.0216960
  84.8880480 146.9416400  62.3659940  82.3645830 151.7965580  56.1284510
  81.4235970 151.8115810  56.3032200  82.6789900 151.0101540  56.5744810
  71.0374230 150.9110250  50.3721360  71.1177820 149.9637760  50.4838760
  71.9293980 151.2417130  50.4782020  70.5968110 150.8754760  66.5027600
  70.6373450 150.5768630  67.4112830  71.4513610 151.2762370  66.3435120
  72.5373920 149.4546860  64.4702090  72.0070380 148.9637810  63.8425430
  73.2061990 149.8831060  63.9360020  81.9074150 151.2612480  66.2382430
  82.4894920 150.5064800  66.1502910  82.0835920 151.7919920  65.4613910
  73.0246220 146.4209230  64.5499380  72.9303090 145.8029980  63.8250250
  72.4443610 147.1475520  64.3229290  75.7907660 144.9782470  61.5826770
  75.3424960 145.0006730  60.7372320  75.1572860 144.5801490  62.1797070
  78.5331110 151.6052980  63.5877050  78.6527320 151.0094120  64.3271890
  79.3925110 151.6422670  63.1678350  73.2705400 149.5483540  48.6089270
  73.0694460 148.6850900  48.9702610  73.0997450 149.4616900  47.6710870
  75.2999880 148.1474330  64.8452870  75.8899570 147.8390180  65.5330690
  74.4820120 147.6754080  65.0012770  80.1193310 147.7640140  65.0785890
  79.4308830 147.1021680  65.0135880  80.8399330 147.3178410  65.5234350
  80.7493710 144.3591770  51.1376150  81.0296000 143.5159670  51.4935570
  79.9759440 144.5914880  51.6514900  72.0688200 146.6484160  48.5967150
  72.3714100 146.6551590  47.6886300  72.8082790 146.2982020  49.0934810
  75.2873130 145.5918780  49.5823350  74.9395130 144.9142770  49.0025800
  75.4885900 145.1308290  50.3966740  68.6278770 152.1206430  55.9787720
  67.9727610 151.8518070  55.3347420  69.4656720 152.0110910  55.5289700
  81.5769210 146.9147720  50.2006210  81.9954090 146.7278700  49.3602870
  81.2705270 146.0626770  50.5109140  85.0758940 151.8271860  53.8982010
  84.7002540 151.0599790  53.4663300  84.3462060 152.2094560  54.3856940
  69.6654700 152.5059000  60.5191060  70.0327740 152.4186400  61.3987080
  69.0965520 151.7425550  60.4197920  84.4658560 150.9743380  63.5321530
  84.2344650 150.7456130  62.6319480  84.7263110 151.8942930  63.4866420
  69.2170700 149.4168090  64.4249480  68.3226750 149.3834850  64.7643190
  69.7568250 149.6154880  65.1900730  82.9046630 146.1999810  66.3101230
  83.7816810 146.2083210  66.6935230  82.9167470 145.4630650  65.6993580
  67.8416850 149.3305360  51.9213050  66.9380930 149.5935560  51.7464710
  68.3257470 149.6016530  51.1413010  84.3509900 150.0529350  57.1989250
  84.8747380 149.5592000  56.5679420  84.9369320 150.1879710  57.9436820
  84.5299620 150.1369220  60.7208800  83.5802330 150.1032760  60.8353790
  84.7112630 151.0469330  60.4858570  70.3844060 148.3870900  49.8307430
  71.0935760 147.9654120  49.3454710  69.6684000 148.4546130  49.1990780
  70.0318220 144.4410230  48.8710080  70.7546350 144.9819170  49.1891300
  70.3042740 144.1673650  47.9951620  83.8409870 149.3102700  53.1381660
  84.3368990 149.0773570  53.9230540  83.6425940 148.4714540  52.7219300
  69.7210410 143.6916420  58.7732700  70.3686600 143.1413800  58.3327860
  70.1412250 143.9459570  59.5948510  85.2697030 147.9463650  55.6719340
  85.1596310 147.7919690  56.6101610  86.0304620 147.4184590  55.4294750
  83.6162750 143.8857780  62.1302340  84.2534970 144.4991920  62.4961530
  83.7637640 143.9218440  61.1851570  86.1587300 145.7771570  48.9125480
  87.0836610 145.6452750  48.7043770  86.1363090 145.8564390  49.8661930
  86.2325790 146.5482230  51.5382190  85.4377290 146.4827350  52.0675100
  86.4369070 147.4832870  51.5267540  69.4742410 143.8472090  61.5158020
  69.1257230 144.3035910  62.2816200  69.1430110 142.9529220  61.5980450
  76.9867230 145.0383970  65.0377440  76.9256120 145.6305800  65.7872850
  77.9267610 144.9309930  64.8927700  79.6241790 144.6954030  64.6769730
  80.2382200 145.0133320  64.0150810  80.1691350 144.2102620  65.2965590
  70.1463050 143.3748290  64.7908790  70.6946040 143.1936340  64.0274900
  70.2118360 142.5842400  65.3265100  80.3649830 143.2586170  61.0039020
  79.4909670 143.5921280  60.8011950  80.2560580 142.7859350  61.8290890
  81.2721810 145.4657040  62.3880740  80.9435170 144.6508800  62.0082470
  82.2204110 145.4226850  62.2646430  78.1124650 144.1756010  59.9431930
  77.3296440 144.6501510  60.2228690  77.8187580 143.2710840  59.8345110
  82.6645720 144.8779110  57.9881020  83.1053810 144.8224210  57.1402620
  82.3953310 145.7937120  58.0591200  84.5284290 144.5094350  55.9989840
  84.4672690 143.5655570  55.8520860  85.3076320 144.6174440  56.5443300
  69.4565060 144.4803490  52.4645650  70.2144420 144.5932370  51.8909680
  68.9942230 145.3172690  52.4189080  75.9978870 146.5942760  55.4547960
  75.1853380 146.2199650  55.1143840  76.5020510 145.8387840  55.7569150
  80.5003850 143.2585210  56.6931030  81.1033220 143.8305420  57.1679550
  79.7596840 143.8224650  56.4704930  83.6438450 143.6606770  51.9671310
  83.8389080 144.5590220  52.2338740  82.8568320 143.4293850  52.4604260
  71.8290210 145.0067540  51.0047620  72.3582970 144.2197340  50.8755570
  72.4618530 145.6858730  51.2383150  74.0228050 144.7442680  54.0593010
  73.3930790 144.0429990  54.2263140  73.4833190 145.5046810  53.8426170
  74.1483610 144.0226660  66.4945500  73.8667880 144.5260260  65.7306320
  74.5303310 143.2248410  66.1287630  80.7499070 143.4380240  67.0725970
  80.6364520 143.7574850  67.9677490  81.5668810 143.8392750  66.7763250
  79.6557220 151.4572710  37.4360710  79.5751270 150.5427320  37.1652420
  79.2421640 151.9539780  36.7300420  70.2133040 148.5073430  33.9788130
  69.3249740 148.8489400  33.8768010  70.4974230 148.3073750  33.0868960
  68.1766050 151.1079080  39.8627830  68.7482160 150.3401280  39.8631470
  68.1767590 151.4067840  38.9534440  69.4190920 146.5163440  41.6496760
  69.2393760 145.6189190  41.9299520  69.0171000 147.0635310  42.3243710
  78.2589420 148.7179300  39.5509070  78.6354240 147.8451180  39.4382740
  78.1608930 149.0538000  38.6599510  72.3894430 147.0904930  35.0126510
  72.4961180 147.9908660  35.3195270  71.4786790 147.0422900  34.7221160
  82.0413540 146.2129740  36.4837410  82.8623160 145.7226310  36.5262890
  82.0747620 146.8027400  37.2369250  70.0377590 149.0123940  40.2579100
  70.7187700 149.2762310  40.8766500  69.7225640 148.1724810  40.5917110
  74.2302160 150.0591300  39.3451690  74.7380380 150.5572270  39.9856710
  74.7615400 149.2826500  39.1691050  86.3313090 148.2296490  43.0481040
  85.6265260 148.6178200  42.5296150  86.5971010 148.9246780  43.6501970
  72.5138260 144.6989860  43.6115110  72.5156700 145.2162250  42.8061010
  71.6842570 144.2220040  43.5885040  82.2775020 148.1530120  39.2564950
  81.5730590 148.4415010  39.8368060  82.6387180 148.9630230  38.8964510
  72.1953590 146.4099820  41.6185560  72.5370400 147.2541870  41.3239430
  71.2569400 146.5583560  41.7350900  85.3461940 147.5984910  39.6474160
  84.3986850 147.6323890  39.7789590  85.6711930 148.4123860  40.0323520
  75.8781480 143.8982090  37.9430150  76.1856460 143.3428980  37.2265650
  74.9482180 144.0326550  37.7603140  78.2531320 148.2347920  31.6757430
  77.3134990 148.3961880  31.7609890  78.5714580 148.9533600  31.1293420
  81.7386090 149.7035760  42.5991330  81.3257270 150.5289470  42.8531320
  81.0062040 149.1180800  42.4067690  73.8718880 152.4895660  37.4610000
  73.4675880 151.7772910  36.9655900  73.9582000 152.1448900  38.3498040
  72.5847500 149.2638870  41.2409040  73.1362090 149.3734210  40.4662290
  73.0991010 149.6376470  41.9564270  84.0541370 144.0180840  30.5039310
  83.7414030 144.1107670  31.4038380  84.8153840 144.5961870  30.4536740
  70.5723510 151.3840640  34.9616650  70.4521110 152.1102730  34.3497920
  70.2624400 150.6143550  34.4844560  85.2642660 148.7552340  46.4813450
  84.6486930 149.2632010  45.9528910  84.9439080 147.8550670  46.4239390
  73.0387170 144.7275710  38.3440320  72.5955320 145.5085250  38.0124840
  73.5972160 145.0505600  39.0511260  77.3256980 147.5944230  43.9475640
  76.8636350 147.8027250  44.7595580  76.9235090 146.7803580  43.6446310
  82.3261490 148.8153180  45.0772300  81.4755080 148.5158930  45.3981370
  82.1663280 149.0595190  44.1656120  79.4211200 150.3154930  47.1771090
  79.7464610 149.4818680  46.8373320  80.2091530 150.8383450  47.3249420
  76.1545990 144.3486410  33.2246150  75.5300170 144.3446280  33.9499460
  76.0676110 143.4817370  32.8282120  75.0763070 145.2723040  40.2029920
  75.3735400 146.1785870  40.1221940  75.6248630 144.7841820  39.5889490
  72.8301390 149.8509280  36.0721570  72.6042310 149.6346450  36.9768190
  72.0493920 150.2837740  35.7267540  80.0599150 149.8572650  34.6712220
  79.4608040 150.5808450  34.4875840  80.6078760 149.7949430  33.8888670
  75.2700600 150.7494860  46.7381840  75.1744200 149.8089590  46.5882240
  76.1132580 150.9709930  46.3429910  78.6664020 148.4936190  36.7015500
  79.0593590 148.8108390  35.8884190  79.0280870 147.6148070  36.8160020
  70.4011140 147.1608530  44.8915620  70.0074530 148.0083740  45.0988400
  69.7129540 146.5234900  45.0824260  76.9756190 147.2443500  47.9612360
  76.2854510 147.0515700  48.5958450  77.7188490 147.5278140  48.4936660
  67.7028190 145.0836990  38.9245700  67.4141240 145.6539850  39.6370680
  68.4473950 144.6041440  39.2876930  67.8898420 149.0257110  30.1348420
  67.8073090 149.9687870  30.2763410  67.5381480 148.8832020  29.2560770
  79.2519160 151.0841940  40.7966280  78.5200280 151.5928750  41.1456380
  78.8543500 150.2671920  40.4955060  75.6896550 147.7596140  39.2018770
  75.6932610 147.3186090  38.3523310  76.5847670 148.0813470  39.3090590
  71.5398930 147.6422630  38.1612980  71.1998980 148.1197860  38.9180030
  70.7776250 147.1887750  37.8014080  75.7516700 148.7608220  32.1925530
  75.8729520 148.7194700  33.1411350  75.3665210 149.6232370  32.0372260
  79.7145070 146.5375620  40.2089220  79.7317810 146.9884270  41.0531070
  79.4660650 145.6381260  40.4222660  74.7638200 151.0709360  31.5908830
  74.1955100 150.6227610  30.9644740  75.4727200 151.4302140  31.0573980
  83.1415820 143.9507800  46.0475600  83.4661590 143.2197460  46.5733580
  83.1772330 143.6321440  45.1456590  68.8545010 146.5641610  37.0777650
  68.5691930 146.1997280  37.9156270  68.7923870 145.8322070  36.4640790
  73.7803890 150.8606560  43.2668390  73.4760960 151.7398540  43.4918750
  74.7350350 150.9206350  43.3025830  78.5283600 145.4570870  33.7991020
  77.7148210 144.9584040  33.7236330  78.3345550 146.2969120  33.3827370
  81.2431990 149.8290520  32.0953180  82.1311610 150.1407750  31.9204520
  81.2137080 148.9562770  31.7033760  69.8367620 151.7009300  44.4139750
  69.4782560 152.3663150  45.0013090  69.5422180 150.8692850  44.7852370
  73.0380740 152.1593540  47.2979300  72.7380880 152.3050720  46.4007120
  73.8091980 151.5998830  47.2052690  83.5146260 151.1402360  31.5633040
  83.4309980 151.5716580  30.7129480  84.2340450 151.6000710  31.9959860
  68.3475670 151.7000560  31.0374350  69.2170520 151.9825360  31.3210270
  67.8565990 152.5136430  30.9223160  71.4122260 143.4311420  35.6305150
  71.2836890 143.4229320  36.5790070  70.5884280 143.7694510  35.2796160
  68.4116190 145.1902540  45.0911850  67.6974710 145.3899460  45.6964460
  68.8311230 144.4142110  45.4626650  79.9054970 147.6824850  42.8413300
  80.2735790 146.8620060  43.1692870  79.0453170 147.7426740  43.2568950
  83.2717000 146.6381790  33.6500860  82.6430160 146.7427460  32.9359090
  82.7768920 146.8578570  34.4394740  75.2401030 148.9167740  35.0658740
  74.5317180 149.3854080  35.5072350  75.5245510 148.2589750  35.7003930
  76.8656960 150.3364440  43.0651270  77.3642210 150.8110260  43.7303120
  77.0079910 149.4127960  43.2721300  79.2716460 145.6418400  36.5054530
  79.1484240 145.6604530  35.5564040  80.2201020 145.6897340  36.6252930
  73.4436050 147.2252820  32.4409450  74.2926580 147.6622970  32.3749640
  73.0767320 147.5373080  33.2681510  84.0723820 146.5532400  43.9079660
  83.5697420 147.2937800  44.2473470  84.8880480 146.9416400  43.5916450
  82.3645830 151.7965580  37.3541020  81.4235970 151.8115810  37.5288710
  82.6789900 151.0101540  37.8001320  71.0374230 150.9110250  31.5977870
  71.1177820 149.9637760  31.7095270  71.9293980 151.2417130  31.7038530
  70.5968110 150.8754760  47.7284110  70.6373450 150.5768630  48.6369340
  71.4513610 151.2762370  47.5691630  72.5373920 149.4546860  45.6958600
  72.0070380 148.9637810  45.0681940  73.2061990 149.8831060  45.1616530
  81.9074150 151.2612480  47.4638940  82.4894920 150.5064800  47.3759420
  82.0835920 151.7919920  46.6870420  73.0246220 146.4209230  45.7755890
  72.9303090 145.8029980  45.0506760  72.4443610 147.1475520  45.5485800
  75.7907660 144.9782470  42.8083280  75.3424960 145.0006730  41.9628830
  75.1572860 144.5801490  43.4053580  78.5331110 151.6052980  44.8133560
  78.6527320 151.0094120  45.5528400  79.3925110 151.6422670  44.3934860
  73.2705400 149.5483540  29.8345780  73.0694460 148.6850900  30.1959120
  73.0997450 149.4616900  28.8967380  75.2999880 148.1474330  46.0709380
  75.8899570 147.8390180  46.7587200  74.4820120 147.6754080  46.2269280
  80.1193310 147.7640140  46.3042400  79.4308830 147.1021680  46.2392390
  80.8399330 147.3178410  46.7490860  80.7493710 144.3591770  32.3632660
  81.0296000 143.5159670  32.7192080  79.9759440 144.5914880  32.8771410
  72.0688200 146.6484160  29.8223660  72.3714100 146.6551590  28.9142810
  72.8082790 146.2982020  30.3191320  75.2873130 145.5918780  30.8079860
  74.9395130 144.9142770  30.2282310  75.4885900 145.1308290  31.6223250
  68.6278770 152.1206430  37.2044230  67.9727610 151.8518070  36.5603930
  69.4656720 152.0110910  36.7546210  81.5769210 146.9147720  31.4262720
  81.9954090 146.7278700  30.5859380  81.2705270 146.0626770  31.7365650
  85.0758940 151.8271860  35.1238520  84.7002540 151.0599790  34.6919810
  84.3462060 152.2094560  35.6113450  69.6654700 152.5059000  41.7447570
  70.0327740 152.4186400  42.6243590  69.0965520 151.7425550  41.6454430
  84.4658560 150.9743380  44.7578040  84.2344650 150.7456130  43.8575990
  84.7263110 151.8942930  44.7122930  69.2170700 149.4168090  45.6505990
  68.3226750 149.3834850  45.9899700  69.7568250 149.6154880  46.4157240
  82.9046630 146.1999810  47.5357740  83.7816810 146.2083210  47.9191740
  82.9167470 145.4630650  46.9250090  67.8416850 149.3305360  33.1469560
  66.9380930 149.5935560  32.9721220  68.3257470 149.6016530  32.3669520
  84.3509900 150.0529350  38.4245760  84.8747380 149.5592000  37.7935930
  84.9369320 150.1879710  39.1693330  84.5299620 150.1369220  41.9465310
  83.5802330 150.1032760  42.0610300  84.7112630 151.0469330  41.7115080
  70.3844060 148.3870900  31.0563940  71.0935760 147.9654120  30.5711220
  69.6684000 148.4546130  30.4247290  70.0318220 144.4410230  30.0966590
  70.7546350 144.9819170  30.4147810  70.3042740 144.1673650  29.2208130
  83.8409870 149.3102700  34.3638170  84.3368990 149.0773570  35.1487050
  83.6425940 148.4714540  33.9475810  69.7210410 143.6916420  39.9989210
  70.3686600 143.1413800  39.5584370  70.1412250 143.9459570  40.8205020
  85.2697030 147.9463650  36.8975850  85.1596310 147.7919690  37.8358120
  86.0304620 147.4184590  36.6551260  83.6162750 143.8857780  43.3558850
  84.2534970 144.4991920  43.7218040  83.7637640 143.9218440  42.4108080
  86.1587300 145.7771570  30.1381990  87.0836610 145.6452750  29.9300280
  86.1363090 145.8564390  31.0918440  86.2325790 146.5482230  32.7638700
  85.4377290 146.4827350  33.2931610  86.4369070 147.4832870  32.7524050
  69.4742410 143.8472090  42.7414530  69.1257230 144.3035910  43.5072710
  69.1430110 142.9529220  42.8236960  76.9867230 145.0383970  46.2633950
  76.9256120 145.6305800  47.0129360  77.9267610 144.9309930  46.1184210
  79.6241790 144.6954030  45.9026240  80.2382200 145.0133320  45.2407320
  80.1691350 144.2102620  46.5222100  70.1463050 143.3748290  46.0165300
  70.6946040 143.1936340  45.2531410  70.2118360 142.5842400  46.5521610
  80.3649830 143.2586170  42.2295530  79.4909670 143.5921280  42.0268460
  80.2560580 142.7859350  43.0547400  81.2721810 145.4657040  43.6137250
  80.9435170 144.6508800  43.2338980  82.2204110 145.4226850  43.4902940
  78.1124650 144.1756010  41.1688440  77.3296440 144.6501510  41.4485200
  77.8187580 143.2710840  41.0601620  82.6645720 144.8779110  39.2137530
  83.1053810 144.8224210  38.3659130  82.3953310 145.7937120  39.2847710
  84.5284290 144.5094350  37.2246350  84.4672690 143.5655570  37.0777370
  85.3076320 144.6174440  37.7699810  69.4565060 144.4803490  33.6902160
  70.2144420 144.5932370  33.1166190  68.9942230 145.3172690  33.6445590
  75.9978870 146.5942760  36.6804470  75.1853380 146.2199650  36.3400350
  76.5020510 145.8387840  36.9825660  80.5003850 143.2585210  37.9187540
  81.1033220 143.8305420  38.3936060  79.7596840 143.8224650  37.6961440
  83.6438450 143.6606770  33.1927820  83.8389080 144.5590220  33.4595250
  82.8568320 143.4293850  33.6860770  71.8290210 145.0067540  32.2304130
  72.3582970 144.2197340  32.1012080  72.4618530 145.6858730  32.4639660
  74.0228050 144.7442680  35.2849520  73.3930790 144.0429990  35.4519650
  73.4833190 145.5046810  35.0682680  74.1483610 144.0226660  47.7202010
  73.8667880 144.5260260  46.9562830  74.5303310 143.2248410  47.3544140
  80.7499070 143.4380240  48.2982480  80.6364520 143.7574850  49.1934000
  81.5668810 143.8392750  48.0019760  79.6557220 151.4572710  18.6617220
  79.5751270 150.5427320  18.3908930  79.2421640 151.9539780  17.9556930
  70.2133040 148.5073430  15.2044640  69.3249740 148.8489400  15.1024520
  70.4974230 148.3073750  14.3125470  68.1766050 151.1079080  21.0884340
  68.7482160 150.3401280  21.0887980  68.1767590 151.4067840  20.1790950
  69.4190920 146.5163440  22.8753270  69.2393760 145.6189190  23.1556030
  69.0171000 147.0635310  23.5500220  78.2589420 148.7179300  20.7765580
  78.6354240 147.8451180  20.6639250  78.1608930 149.0538000  19.8856020
  72.3894430 147.0904930  16.2383020  72.4961180 147.9908660  16.5451780
  71.4786790 147.0422900  15.9477670  82.0413540 146.2129740  17.7093920
  82.8623160 145.7226310  17.7519400  82.0747620 146.8027400  18.4625760
  70.0377590 149.0123940  21.4835610  70.7187700 149.2762310  22.1023010
  69.7225640 148.1724810  21.8173620  74.2302160 150.0591300  20.5708200
  74.7380380 150.5572270  21.2113220  74.7615400 149.2826500  20.3947560
  86.3313090 148.2296490  24.2737550  85.6265260 148.6178200  23.7552660
  86.5971010 148.9246780  24.8758480  72.5138260 144.6989860  24.8371620
  72.5156700 145.2162250  24.0317520  71.6842570 144.2220040  24.8141550
  82.2775020 148.1530120  20.4821460  81.5730590 148.4415010  21.0624570
  82.6387180 148.9630230  20.1221020  72.1953590 146.4099820  22.8442070
  72.5370400 147.2541870  22.5495940  71.2569400 146.5583560  22.9607410
  85.3461940 147.5984910  20.8730670  84.3986850 147.6323890  21.0046100
  85.6711930 148.4123860  21.2580030  75.8781480 143.8982090  19.1686660
  76.1856460 143.3428980  18.4522160  74.9482180 144.0326550  18.9859650
  78.2531320 148.2347920  12.9013940  77.3134990 148.3961880  12.9866400
  78.5714580 148.9533600  12.3549930  81.7386090 149.7035760  23.8247840
  81.3257270 150.5289470  24.0787830  81.0062040 149.1180800  23.6324200
  73.8718880 152.4895660  18.6866510  73.4675880 151.7772910  18.1912410
  73.9582000 152.1448900  19.5754550  72.5847500 149.2638870  22.4665550
  73.1362090 149.3734210  21.6918800  73.0991010 149.6376470  23.1820780
  84.0541370 144.0180840  11.7295820  83.7414030 144.1107670  12.6294890
  84.8153840 144.5961870  11.6793250  70.5723510 151.3840640  16.1873160
  70.4521110 152.1102730  15.5754430  70.2624400 150.6143550  15.7101070
  85.2642660 148.7552340  27.7069960  84.6486930 149.2632010  27.1785420
  84.9439080 147.8550670  27.6495900  73.0387170 144.7275710  19.5696830
  72.5955320 145.5085250  19.2381350  73.5972160 145.0505600  20.2767770
  77.3256980 147.5944230  25.1732150  76.8636350 147.8027250  25.9852090
  76.9235090 146.7803580  24.8702820  82.3261490 148.8153180  26.3028810
  81.4755080 148.5158930  26.6237880  82.1663280 149.0595190  25.3912630
  79.4211200 150.3154930  28.4027600  79.7464610 149.4818680  28.0629830
  80.2091530 150.8383450  28.5505930  76.1545990 144.3486410  14.4502660
  75.5300170 144.3446280  15.1755970  76.0676110 143.4817370  14.0538630
  75.0763070 145.2723040  21.4286430  75.3735400 146.1785870  21.3478450
  75.6248630 144.7841820  20.8146000  72.8301390 149.8509280  17.2978080
  72.6042310 149.6346450  18.2024700  72.0493920 150.2837740  16.9524050
  80.0599150 149.8572650  15.8968730  79.4608040 150.5808450  15.7132350
  80.6078760 149.7949430  15.1145180  75.2700600 150.7494860  27.9638350
  75.1744200 149.8089590  27.8138750  76.1132580 150.9709930  27.5686420
  78.6664020 148.4936190  17.9272010  79.0593590 148.8108390  17.1140700
  79.0280870 147.6148070  18.0416530  70.4011140 147.1608530  26.1172130
  70.0074530 148.0083740  26.3244910  69.7129540 146.5234900  26.3080770
  76.9756190 147.2443500  29.1868870  76.2854510 147.0515700  29.8214960
  77.7188490 147.5278140  29.7193170  67.7028190 145.0836990  20.1502210
  67.4141240 145.6539850  20.8627190  68.4473950 144.6041440  20.5133440
  67.8898420 149.0257110  11.3604930  67.8073090 149.9687870  11.5019920
  67.5381480 148.8832020  10.4817280  79.2519160 151.0841940  22.0222790
  78.5200280 151.5928750  22.3712890  78.8543500 150.2671920  21.7211570
  75.6896550 147.7596140  20.4275280  75.6932610 147.3186090  19.5779820
  76.5847670 148.0813470  20.5347100  71.5398930 147.6422630  19.3869490
  71.1998980 148.1197860  20.1436540  70.7776250 147.1887750  19.0270590
  75.7516700 148.7608220  13.4182040  75.8729520 148.7194700  14.3667860
  75.3665210 149.6232370  13.2628770  79.7145070 146.5375620  21.4345730
  79.7317810 146.9884270  22.2787580  79.4660650 145.6381260  21.6479170
  74.7638200 151.0709360  12.8165340  74.1955100 150.6227610  12.1901250
  75.4727200 151.4302140  12.2830490  83.1415820 143.9507800  27.2732110
  83.4661590 143.2197460  27.7990090  83.1772330 143.6321440  26.3713100
  68.8545010 146.5641610  18.3034160  68.5691930 146.1997280  19.1412780
  68.7923870 145.8322070  17.6897300  73.7803890 150.8606560  24.4924900
  73.4760960 151.7398540  24.7175260  74.7350350 150.9206350  24.5282340
  78.5283600 145.4570870  15.0247530  77.7148210 144.9584040  14.9492840
  78.3345550 146.2969120  14.6083880  81.2431990 149.8290520  13.3209690
  82.1311610 150.1407750  13.1461030  81.2137080 148.9562770  12.9290270
  69.8367620 151.7009300  25.6396260  69.4782560 152.3663150  26.2269600
  69.5422180 150.8692850  26.0108880  73.0380740 152.1593540  28.5235810
  72.7380880 152.3050720  27.6263630  73.8091980 151.5998830  28.4309200
  83.5146260 151.1402360  12.7889550  83.4309980 151.5716580  11.9385990
  84.2340450 151.6000710  13.2216370  68.3475670 151.7000560  12.2630860
  69.2170520 151.9825360  12.5466780  67.8565990 152.5136430  12.1479670
  71.4122260 143.4311420  16.8561660  71.2836890 143.4229320  17.8046580
  70.5884280 143.7694510  16.5052670  68.4116190 145.1902540  26.3168360
  67.6974710 145.3899460  26.9220970  68.8311230 144.4142110  26.6883160
  79.9054970 147.6824850  24.0669810  80.2735790 146.8620060  24.3949380
  79.0453170 147.7426740  24.4825460  83.2717000 146.6381790  14.8757370
  82.6430160 146.7427460  14.1615600  82.7768920 146.8578570  15.6651250
  75.2401030 148.9167740  16.2915250  74.5317180 149.3854080  16.7328860
  75.5245510 148.2589750  16.9260440  76.8656960 150.3364440  24.2907780
  77.3642210 150.8110260  24.9559630  77.0079910 149.4127960  24.4977810
  79.2716460 145.6418400  17.7311040  79.1484240 145.6604530  16.7820550
  80.2201020 145.6897340  17.8509440  73.4436050 147.2252820  13.6665960
  74.2926580 147.6622970  13.6006150  73.0767320 147.5373080  14.4938020
  84.0723820 146.5532400  25.1336170  83.5697420 147.2937800  25.4729980
  84.8880480 146.9416400  24.8172960  82.3645830 151.7965580  18.5797530
  81.4235970 151.8115810  18.7545220  82.6789900 151.0101540  19.0257830
  71.0374230 150.9110250  12.8234380  71.1177820 149.9637760  12.9351780
  71.9293980 151.2417130  12.9295040  70.5968110 150.8754760  28.9540620
  70.6373450 150.5768630  29.8625850  71.4513610 151.2762370  28.7948140
  72.5373920 149.4546860  26.9215110  72.0070380 148.9637810  26.2938450
  73.2061990 149.8831060  26.3873040  81.9074150 151.2612480  28.6895450
  82.4894920 150.5064800  28.6015930  82.0835920 151.7919920  27.9126930
  73.0246220 146.4209230  27.0012400  72.9303090 145.8029980  26.2763270
  72.4443610 147.1475520  26.7742310  75.7907660 144.9782470  24.0339790
  75.3424960 145.0006730  23.1885340  75.1572860 144.5801490  24.6310090
  78.5331110 151.6052980  26.0390070  78.6527320 151.0094120  26.7784910
  79.3925110 151.6422670  25.6191370  73.2705400 149.5483540  11.0602290
  73.0694460 148.6850900  11.4215630  73.0997450 149.4616900  10.1223890
  75.2999880 148.1474330  27.2965890  75.8899570 147.8390180  27.9843710
  74.4820120 147.6754080  27.4525790  80.1193310 147.7640140  27.5298910
  79.4308830 147.1021680  27.4648900  80.8399330 147.3178410  27.9747370
  80.7493710 144.3591770  13.5889170  81.0296000 143.5159670  13.9448590
  79.9759440 144.5914880  14.1027920  72.0688200 146.6484160  11.0480170
  72.3714100 146.6551590  10.1399320  72.8082790 146.2982020  11.5447830
  75.2873130 145.5918780  12.0336370  74.9395130 144.9142770  11.4538820
  75.4885900 145.1308290  12.8479760  68.6278770 152.1206430  18.4300740
  67.9727610 151.8518070  17.7860440  69.4656720 152.0110910  17.9802720
  81.5769210 146.9147720  12.6519230  81.9954090 146.7278700  11.8115890
  81.2705270 146.0626770  12.9622160  85.0758940 151.8271860  16.3495030
  84.7002540 151.0599790  15.9176320  84.3462060 152.2094560  16.8369960
  69.6654700 152.5059000  22.9704080  70.0327740 152.4186400  23.8500100
  69.0965520 151.7425550  22.8710940  84.4658560 150.9743380  25.9834550
  84.2344650 150.7456130  25.0832500  84.7263110 151.8942930  25.9379440
  69.2170700 149.4168090  26.8762500  68.3226750 149.3834850  27.2156210
  69.7568250 149.6154880  27.6413750  82.9046630 146.1999810  28.7614250
  83.7816810 146.2083210  29.1448250  82.9167470 145.4630650  28.1506600
  67.8416850 149.3305360  14.3726070  66.9380930 149.5935560  14.1977730
  68.3257470 149.6016530  13.5926030  84.3509900 150.0529350  19.6502270
  84.8747380 149.5592000  19.0192440  84.9369320 150.1879710  20.3949840
  84.5299620 150.1369220  23.1721820  83.5802330 150.1032760  23.2866810
  84.7112630 151.0469330  22.9371590  70.3844060 148.3870900  12.2820450
  71.0935760 147.9654120  11.7967730  69.6684000 148.4546130  11.6503800
  70.0318220 144.4410230  11.3223100  70.7546350 144.9819170  11.6404320
  70.3042740 144.1673650  10.4464640  83.8409870 149.3102700  15.5894680
  84.3368990 149.0773570  16.3743560  83.6425940 148.4714540  15.1732320
  69.7210410 143.6916420  21.2245720  70.3686600 143.1413800  20.7840880
  70.1412250 143.9459570  22.0461530  85.2697030 147.9463650  18.1232360
  85.1596310 147.7919690  19.0614630  86.0304620 147.4184590  17.8807770
  83.6162750 143.8857780  24.5815360  84.2534970 144.4991920  24.9474550
  83.7637640 143.9218440  23.6364590  86.1587300 145.7771570  11.3638500
  87.0836610 145.6452750  11.1556790  86.1363090 145.8564390  12.3174950
  86.2325790 146.5482230  13.9895210  85.4377290 146.4827350  14.5188120
  86.4369070 147.4832870  13.9780560  69.4742410 143.8472090  23.9671040
  69.1257230 144.3035910  24.7329220  69.1430110 142.9529220  24.0493470
  76.9867230 145.0383970  27.4890460  76.9256120 145.6305800  28.2385870
  77.9267610 144.9309930  27.3440720  79.6241790 144.6954030  27.1282750
  80.2382200 145.0133320  26.4663830  80.1691350 144.2102620  27.7478610
  70.1463050 143.3748290  27.2421810  70.6946040 143.1936340  26.4787920
  70.2118360 142.5842400  27.7778120  80.3649830 143.2586170  23.4552040
  79.4909670 143.5921280  23.2524970  80.2560580 142.7859350  24.2803910
  81.2721810 145.4657040  24.8393760  80.9435170 144.6508800  24.4595490
  82.2204110 145.4226850  24.7159450  78.1124650 144.1756010  22.3944950
  77.3296440 144.6501510  22.6741710  77.8187580 143.2710840  22.2858130
  82.6645720 144.8779110  20.4394040  83.1053810 144.8224210  19.5915640
  82.3953310 145.7937120  20.5104220  84.5284290 144.5094350  18.4502860
  84.4672690 143.5655570  18.3033880  85.3076320 144.6174440  18.9956320
  69.4565060 144.4803490  14.9158670  70.2144420 144.5932370  14.3422700
  68.9942230 145.3172690  14.8702100  75.9978870 146.5942760  17.9060980
  75.1853380 146.2199650  17.5656860  76.5020510 145.8387840  18.2082170
  80.5003850 143.2585210  19.1444050  81.1033220 143.8305420  19.6192570
  79.7596840 143.8224650  18.9217950  83.6438450 143.6606770  14.4184330
  83.8389080 144.5590220  14.6851760  82.8568320 143.4293850  14.9117280
  71.8290210 145.0067540  13.4560640  72.3582970 144.2197340  13.3268590
  72.4618530 145.6858730  13.6896170  74.0228050 144.7442680  16.5106030
  73.3930790 144.0429990  16.6776160  73.4833190 145.5046810  16.2939190
  74.1483610 144.0226660  28.9458520  73.8667880 144.5260260  28.1819340
  74.5303310 143.2248410  28.5800650  80.7499070 143.4380240  29.5238990
  80.6364520 143.7574850  30.4190510  81.5668810 143.8392750  29.2276270
  69.4190920 146.5163440   4.1009780  69.2393760 145.6189190   4.3812540
  69.0171000 147.0635310   4.7756730  70.0377590 149.0123940   2.7092120
  70.7187700 149.2762310   3.3279520  69.7225640 148.1724810   3.0430130
  74.2302160 150.0591300   1.7964710  74.7380380 150.5572270   2.4369730
  74.7615400 149.2826500   1.6204070  86.3313090 148.2296490   5.4994060
  85.6265260 148.6178200   4.9809170  86.5971010 148.9246780   6.1014990
  72.5138260 144.6989860   6.0628130  72.5156700 145.2162250   5.2574030
  71.6842570 144.2220040   6.0398060  72.1953590 146.4099820   4.0698580
  72.5370400 147.2541870   3.7752450  71.2569400 146.5583560   4.1863920
  85.3461940 147.5984910   2.0987180  84.3986850 147.6323890   2.2302610
  85.6711930 148.4123860   2.4836540  81.7386090 149.7035760   5.0504350
  81.3257270 150.5289470   5.3044340  81.0062040 149.1180800   4.8580710
  72.5847500 149.2638870   3.6922060  73.1362090 149.3734210   2.9175310
  73.0991010 149.6376470   4.4077290  85.2642660 148.7552340   8.9326470
  84.6486930 149.2632010   8.4041930  84.9439080 147.8550670   8.8752410
  77.3256980 147.5944230   6.3988660  76.8636350 147.8027250   7.2108600
  76.9235090 146.7803580   6.0959330  82.3261490 148.8153180   7.5285320
  81.4755080 148.5158930   7.8494390  82.1663280 149.0595190   6.6169140
  79.4211200 150.3154930   9.6284110  79.7464610 149.4818680   9.2886340
  80.2091530 150.8383450   9.7762440  75.0763070 145.2723040   2.6542940
  75.3735400 146.1785870   2.5734960  75.6248630 144.7841820   2.0402510
  75.2700600 150.7494860   9.1894860  75.1744200 149.8089590   9.0395260
  76.1132580 150.9709930   8.7942930  70.4011140 147.1608530   7.3428640
  70.0074530 148.0083740   7.5501420  69.7129540 146.5234900   7.5337280
  76.9756190 147.2443500  10.4125380  76.2854510 147.0515700  11.0471470
  77.7188490 147.5278140  10.9449680  79.2519160 151.0841940   3.2479300
  78.5200280 151.5928750   3.5969400  78.8543500 150.2671920   2.9468080
  79.7145070 146.5375620   2.6602240  79.7317810 146.9884270   3.5044090
  79.4660650 145.6381260   2.8735680  83.1415820 143.9507800   8.4988620
  83.4661590 143.2197460   9.0246600  83.1772330 143.6321440   7.5969610
  73.7803890 150.8606560   5.7181410  73.4760960 151.7398540   5.9431770
  74.7350350 150.9206350   5.7538850  69.8367620 151.7009300   6.8652770
  69.4782560 152.3663150   7.4526110  69.5422180 150.8692850   7.2365390
  73.0380740 152.1593540   9.7492320  72.7380880 152.3050720   8.8520140
  73.8091980 151.5998830   9.6565710  68.4116190 145.1902540   7.5424870
  67.6974710 145.3899460   8.1477480  68.8311230 144.4142110   7.9139670
  79.9054970 147.6824850   5.2926320  80.2735790 146.8620060   5.6205890
  79.0453170 147.7426740   5.7081970  76.8656960 150.3364440   5.5164290
  77.3642210 150.8110260   6.1816140  77.0079910 149.4127960   5.7234320
  84.0723820 146.5532400   6.3592680  83.5697420 147.2937800   6.6986490
  84.8880480 146.9416400   6.0429470  70.5968110 150.8754760  10.1797130
  70.6373450 150.5768630  11.0882360  71.4513610 151.2762370  10.0204650
  72.5373920 149.4546860   8.1471620  72.0070380 148.9637810   7.5194960
  73.2061990 149.8831060   7.6129550  81.9074150 151.2612480   9.9151960
  82.4894920 150.5064800   9.8272440  82.0835920 151.7919920   9.1383440
  73.0246220 146.4209230   8.2268910  72.9303090 145.8029980   7.5019780
  72.4443610 147.1475520   7.9998820  75.7907660 144.9782470   5.2596300
  75.3424960 145.0006730   4.4141850  75.1572860 144.5801490   5.8566600
  78.5331110 151.6052980   7.2646580  78.6527320 151.0094120   8.0041420
  79.3925110 151.6422670   6.8447880  75.2999880 148.1474330   8.5222400
  75.8899570 147.8390180   9.2100220  74.4820120 147.6754080   8.6782300
  80.1193310 147.7640140   8.7555420  79.4308830 147.1021680   8.6905410
  80.8399330 147.3178410   9.2003880  69.6654700 152.5059000   4.1960590
  70.0327740 152.4186400   5.0756610  69.0965520 151.7425550   4.0967450
  84.4658560 150.9743380   7.2091060  84.2344650 150.7456130   6.3089010
  84.7263110 151.8942930   7.1635950  69.2170700 149.4168090   8.1019010
  68.3226750 149.3834850   8.4412720  69.7568250 149.6154880   8.8670260
  82.9046630 146.1999810   9.9870760  83.7816810 146.2083210  10.3704760
  82.9167470 145.4630650   9.3763110  84.5299620 150.1369220   4.3978330
  83.5802330 150.1032760   4.5123320  84.7112630 151.0469330   4.1628100
  69.7210410 143.6916420   2.4502230  70.3686600 143.1413800   2.0097390
  70.1412250 143.9459570   3.2718040  83.6162750 143.8857780   5.8071870
  84.2534970 144.4991920   6.1731060  83.7637640 143.9218440   4.8621100
  69.4742410 143.8472090   5.1927550  69.1257230 144.3035910   5.9585730
  69.1430110 142.9529220   5.2749980  76.9867230 145.0383970   8.7146970
  76.9256120 145.6305800   9.4642380  77.9267610 144.9309930   8.5697230
  79.6241790 144.6954030   8.3539260  80.2382200 145.0133320   7.6920340
  80.1691350 144.2102620   8.9735120  70.1463050 143.3748290   8.4678320
  70.6946040 143.1936340   7.7044430  70.2118360 142.5842400   9.0034630
  80.3649830 143.2586170   4.6808550  79.4909670 143.5921280   4.4781480
  80.2560580 142.7859350   5.5060420  81.2721810 145.4657040   6.0650270
  80.9435170 144.6508800   5.6852000  82.2204110 145.4226850   5.9415960
  78.1124650 144.1756010   3.6201460  77.3296440 144.6501510   3.8998220
  77.8187580 143.2710840   3.5114640  74.1483610 144.0226660  10.1715030
  73.8667880 144.5260260   9.4075850  74.5303310 143.2248410   9.8057160
  80.7499070 143.4380240  10.7495500  80.6364520 143.7574850  11.6447020
  81.5668810 143.8392750  10.4532780  79.6557220 132.6829220 150.0821650
  79.5751270 131.7683830 149.8113360  79.2421640 133.1796290 149.3761360
  81.8082690 138.8668430 150.7430050  81.3464220 138.0955670 151.0717220
  82.6208240 138.8934500 151.2482500  70.2133040 129.7329940 146.6249070
  69.3249740 130.0745910 146.5228950  70.4974230 129.5330260 145.7329900
  78.0346000 141.1526440 150.3634040  77.4157440 141.6083940 149.7928480
  78.8897780 141.3077900 149.9623740  72.3894430 128.3161440 147.6587450
  72.4961180 129.2165170 147.9656210  71.4786790 128.2679410 147.3682100
  82.0413540 127.4386250 149.1298350  82.8623160 126.9482820 149.1723830
  82.0747620 128.0283910 149.8830190  78.9009350 136.0365680 147.7565950
  78.2826620 136.5015130 147.1928670  79.4132600 136.7293160 148.1735460
  68.2692550 136.7222210 145.1305580  67.8920530 137.2109310 144.3990480
  68.5265620 137.3947490 145.7612110  75.8781480 125.1238600 150.5891090
  76.1856460 124.5685490 149.8726590  74.9482180 125.2583060 150.4064080
  82.7241960 137.5622110 147.9688720  82.6138290 136.6196440 148.0938140
  82.7210210 137.9237750 148.8551480  78.2662240 133.1887430 147.3251210
  77.3391520 133.1224810 147.5539680  78.4187060 134.1267560 147.2106450
  78.2531320 129.4604430 144.3218370  77.3134990 129.6218390 144.4070830
  78.5714580 130.1790110 143.7754360  82.2959530 134.7507730 147.8286460
  81.6771950 134.4127280 147.1812760  82.2783980 134.1067490 148.5365650
  73.8718880 133.7152170 150.1070940  73.4675880 133.0029420 149.6116840
  73.9582000 133.3705410 150.9958980  80.4724230 133.9894540 144.8359210
  80.9117510 133.1516970 144.6897030  81.1852650 134.6223940 144.9223350
  78.5819610 138.9290610 148.8040450  79.0215520 139.6714940 148.3895840
  78.5206500 139.1717180 149.7279410  84.0541370 125.2437350 143.1500250
  83.7414030 125.3364180 144.0499320  84.8153840 125.8218380 143.0997680
  70.5723510 132.6097150 147.6077590  70.4521110 133.3359240 146.9958860
  70.2624400 131.8400060 147.1305500  69.4556510 137.4812480 149.8252410
  69.0484590 137.6227070 148.9706010  70.3469520 137.1972640 149.6223620
  81.2489790 141.9159730 146.1603460  81.0890930 141.6262670 147.0585290
  81.0836500 141.1399860 145.6248690  73.7278170 141.6958260 147.9375080
  73.5520650 140.7793800 147.7242880  72.8733910 142.0545550 148.1772880
  80.9515920 139.4247290 144.7201460  80.2581080 139.4224580 144.0603740
  81.6938780 139.0006610 144.2895630  80.5165850 141.0510000 148.7949950
  80.9722800 140.2699380 149.1088570  80.8558370 141.7616820 149.3391130
  73.0387170 125.9532220 150.9901260  72.5955320 126.7341760 150.6585780
  73.5972160 126.2762110 151.6972200  76.1545990 125.5742920 145.8707090
  75.5300170 125.5702790 146.5960400  76.0676110 124.7073880 145.4743060
  72.8301390 131.0765790 148.7182510  72.6042310 130.8602960 149.6229130
  72.0493920 131.5094250 148.3728480  80.0599150 131.0829160 147.3173160
  79.4608040 131.8064960 147.1336780  80.6078760 131.0205940 146.5349610
  78.6664020 129.7192700 149.3476440  79.0593590 130.0364900 148.5345130
  79.0280870 128.8404580 149.4620960  67.8898420 130.2513620 142.7809360
  67.8073090 131.1944380 142.9224350  67.5381480 130.1088530 141.9021710
  71.5398930 128.8679140 150.8073920  71.1998980 129.3454370 151.5640970
  70.7776250 128.4144260 150.4475020  75.7516700 129.9864730 144.8386470
  75.8729520 129.9451210 145.7872290  75.3665210 130.8488880 144.6833200
  74.7638200 132.2965870 144.2369770  74.1955100 131.8484120 143.6105680
  75.4727200 132.6558650 143.7034920  68.8545010 127.7898120 149.7238590
  68.5691930 127.4253790 150.5617210  68.7923870 127.0578580 149.1101730
  72.3085680 136.2924060 146.5096180  71.5347940 135.7521680 146.3494900
  73.0380310 135.7730670 146.1713940  78.5283600 126.6827380 146.4451960
  77.7148210 126.1840550 146.3697270  78.3345550 127.5225630 146.0288310
  81.2431990 131.0547030 144.7414120  82.1311610 131.3664260 144.5665460
  81.2137080 130.1819280 144.3494700  72.3523080 135.9604440 150.1474990
  72.8701750 135.1572700 150.0931880  71.9007100 135.8983580 150.9891820
  77.2392580 137.2270720 145.4202290  77.5808280 137.9712950 144.9245610
  76.4105290 137.5401840 145.7827120  83.5146260 132.3658870 144.2093980
  83.4309980 132.7973090 143.3590420  84.2340450 132.8257220 144.6420800
  84.5433510 139.2201130 146.9376110  83.9009670 138.5656750 147.2119830
  84.1564170 139.6256220 146.1616780  80.1219990 136.5486560 150.7847800
  80.4743810 135.9514690 150.1249170  79.2382320 136.2230790 150.9556050
  76.2083270 137.3084250 148.1918210  76.8954400 137.8553460 148.5725800
  75.4215690 137.8524980 148.2267820  68.3475670 132.9257070 143.6835290
  69.2170520 133.2081870 143.9671210  67.8565990 133.7392940 143.5684100
  75.5110480 134.3130280 147.8043570  75.9673260 135.1235530 148.0303760
  75.1598690 133.9953420 148.6362060  71.4122260 124.6567930 148.2766090
  71.2836890 124.6485830 149.2251010  70.5884280 124.9951020 147.9257100
  82.9330890 138.1117590 143.4752460  82.7068470 137.3948030 144.0677100
  82.5427090 137.8630030 142.6374210  68.7146920 142.1384450 144.2496920
  69.0744560 142.7373790 143.5954190  68.5739260 142.6844340 145.0231950
  82.5147140 136.0289530 145.1366620  82.2268840 136.4902220 145.9244500
  83.3099310 135.5687300 145.4050840  74.7315540 139.5215650 145.0670590
  74.7225640 140.2545340 144.4515100  73.8113900 139.2747230 145.1597550
  70.3322180 134.7430540 145.8117350  69.7250130 135.4829440 145.8212650
  70.8071530 134.8329900 144.9855550  83.2717000 127.8638300 146.2961800
  82.6430160 127.9683970 145.5820030  82.7768920 128.0835080 147.0855680
  77.7175140 139.5843890 143.7295780  77.8187120 139.3807880 142.7997760
  76.8176880 139.3302170 143.9343560  75.2401030 130.1424250 147.7119680
  74.5317180 130.6110590 148.1533290  75.5245510 129.4846260 148.3464870
  79.2716460 126.8674910 149.1515470  79.1484240 126.8861040 148.2024980
  80.2201020 126.9153850 149.2713870  76.3593250 142.1030210 148.4243450
  76.6134750 142.0651600 147.5022820  75.4105730 141.9763540 148.4171700
  73.4436050 128.4509330 145.0870390  74.2926580 128.8879480 145.0210580
  73.0767320 128.7629590 145.9142450  82.3645830 133.0222090 150.0001960
  81.4235970 133.0372320 150.1749650  82.6789900 132.2358050 150.4462260
  72.3427470 134.7041690 143.5605920  73.1090740 134.5923050 144.1231350
  72.4202160 134.0079660 142.9082690  71.0374230 132.1366760 144.2438810
  71.1177820 131.1894270 144.3556210  71.9293980 132.4673640 144.3499470
  71.8388940 142.2862150 151.3473350  72.5751420 141.7377610 151.6181920
  72.2229860 143.1518160 151.2079340  68.7234420 138.3535720 147.2214860
  67.7974200 138.5956860 147.2120270  69.1890850 139.1809980 147.0999610
  74.9491250 141.4592460 143.1698920  75.7419860 141.7481290 142.7180710
  74.4295600 141.0284630 142.4911400  84.0021420 140.6862590 144.5935660
  83.7162930 140.2727730 143.7789840  83.8040970 141.6150300 144.4736180
  75.4668650 136.6795870 143.0341270  75.3619290 136.0648220 143.7602650
  75.2992870 136.1561760 142.2504280  78.7071380 135.7415900 143.6383260
  78.1581480 136.1885200 144.2826000  79.3290640 135.2365150 144.1620930
  74.3746500 134.7006820 145.5348560  74.7962920 134.5346690 146.3779950
  74.4997340 133.8907050 145.0403700  76.8874140 133.7244430 142.7825660
  77.4079800 133.0093450 142.4166810  77.5342540 134.3630300 143.0826170
  73.2705400 130.7740050 142.4806720  73.0694460 129.9107410 142.8420060
  73.0997450 130.6873410 141.5428320  80.7493710 125.5848280 145.0093600
  81.0296000 124.7416180 145.3653020  79.9759440 125.8171390 145.5232350
  72.0688200 127.8740670 142.4684600  72.3714100 127.8808100 141.5603750
  72.8082790 127.5238530 142.9652260  75.2873130 126.8175290 143.4540800
  74.9395130 126.1399280 142.8743250  75.4885900 126.3564800 144.2684190
  77.4522170 141.8056040 145.0727400  78.3472960 142.1441010 145.0946160
  77.4839800 141.0835450 144.4451680  71.0918330 137.1783090 143.3014400
  71.5293200 137.7212760 143.9571980  71.5766060 136.3530040 143.3110740
  68.3064130 139.9672120 150.7534660  68.6367140 139.0993180 150.5213300
  68.7355130 140.1730640 151.5839620  72.9026050 138.2981130 148.4136630
  72.6021590 138.1746100 149.3140540  72.7963540 137.4389720 148.0052360
  85.6717970 138.0777530 143.1163310  84.8410930 138.1454180 143.5870540
  85.8489800 138.9681650 142.8130170  85.1274430 134.8225010 145.6197510
  85.8893340 135.3921660 145.7257200  85.1428800 134.2552210 146.3905820
  68.6278770 133.3462940 149.8505170  67.9727610 133.0774580 149.2064870
  69.4656720 133.2367420 149.4007150  86.1334400 135.6775110 150.4639440
  86.5043230 134.8942430 150.0575410  86.7736330 136.3664210 150.2856740
  85.1793600 135.1159380 142.7770030  85.4542440 136.0238260 142.6489250
  84.9904340 135.0521910 143.7132020  81.5769210 128.1404230 144.0723660
  81.9954090 127.9535210 143.2320320  81.2705270 127.2883280 144.3826590
  85.0758940 133.0528370 147.7699460  84.7002540 132.2856300 147.3380750
  84.3462060 133.4351070 148.2574390  67.8416850 130.5561870 145.7930500
  66.9380930 130.8192070 145.6182160  68.3257470 130.8273040 145.0130460
  70.3844060 129.6127410 143.7024880  71.0935760 129.1910630 143.2172160
  69.6684000 129.6802640 143.0708230  70.0318220 125.6666740 142.7427530
  70.7546350 126.2075680 143.0608750  70.3042740 125.3930160 141.8669070
  83.8409870 130.5359210 147.0099110  84.3368990 130.3030080 147.7947990
  83.6425940 129.6971050 146.5936750  85.2697030 129.1720160 149.5436790
  85.1596310 129.0176200 150.4819060  86.0304620 128.6441100 149.3012200
  86.1587300 127.0028080 142.7842930  87.0836610 126.8709260 142.5761220
  86.1363090 127.0820900 143.7379380  86.2325790 127.7738740 145.4099640
  85.4377290 127.7083860 145.9392550  86.4369070 128.7089380 145.3984990
  83.1744210 141.8130290 149.4038030  83.7703280 141.4914860 148.7272450
  83.4322360 141.3402110 150.1951300  84.5284290 125.7350860 149.8707290
  84.4672690 124.7912080 149.7238310  85.3076320 125.8430950 150.4160750
  68.8337040 141.8743220 148.8331240  68.6659080 141.2413900 149.5313130
  67.9671550 142.0802620 148.4825430  69.4565060 125.7060000 146.3363100
  70.2144420 125.8188880 145.7627130  68.9942230 126.5429200 146.2906530
  75.9978870 127.8199270 149.3265410  75.1853380 127.4456160 148.9861290
  76.5020510 127.0644350 149.6286600  80.5003850 124.4841720 150.5648480
  81.1033220 125.0561930 151.0397000  79.7596840 125.0481160 150.3422380
  83.6438450 124.8863280 145.8388760  83.8389080 125.7846730 146.1056190
  82.8568320 124.6550360 146.3321710  70.4399740 140.5676450 146.2781380
  69.9147360 140.9484480 145.5743340  70.3644320 141.1927220 146.9991090
  71.8290210 126.2324050 144.8765070  72.3582970 125.4453850 144.7473020
  72.4618530 126.9115240 145.1100600  74.0228050 125.9699190 147.9310460
  73.3930790 125.2686500 148.0980590  73.4833190 126.7303320 147.7143620
  85.1965060 142.1263990 147.5995320  85.3717250 141.4401730 146.9556240
  84.4986630 142.6511040 147.2071990  73.0392710 142.5158830 145.1530630
  73.7711530 142.2318110 144.6054520  73.2986380 142.2772110 146.0430010
  72.2007500 138.6323560 145.1576960  71.5716380 139.1008660 145.7062790
  72.3155330 137.7872780 145.5923150  79.6557220 132.6829220 131.3078160
  79.5751270 131.7683830 131.0369870  79.2421640 133.1796290 130.6017870
  77.7875260 134.4608240 133.1887430  77.0117360 133.9808680 133.4786000
  78.4388190 133.7813890 133.0143590  71.8041090 134.7728050 134.0663190
  70.9725970 134.5176760 134.4659700  72.4122070 134.8438820 134.8021110
  81.8082690 138.8668430 131.9686560  81.3464220 138.0955670 132.2973730
  82.6208240 138.8934500 132.4739010  71.7842350 138.8068140 134.2621210
  72.0870390 137.9165880 134.0831430  72.5285940 139.3638360 134.0343460
  70.2133040 129.7329940 127.8505580  69.3249740 130.0745910 127.7485460
  70.4974230 129.5330260 126.9586410  68.1766050 132.3335590 133.7345280
  68.7482160 131.5657790 133.7348920  68.1767590 132.6324350 132.8251890
  78.0346000 141.1526440 131.5890550  77.4157440 141.6083940 131.0184990
  78.8897780 141.3077900 131.1880250  77.2284250 137.1365430 133.1957590
  77.1592530 136.1955370 133.0346720  77.9904110 137.2266840 133.7680160
  69.4190920 127.7419950 135.5214210  69.2393760 126.8445700 135.8016970
  69.0171000 128.2891820 136.1961160  78.2589420 129.9435810 133.4226520
  78.6354240 129.0707690 133.3100190  78.1608930 130.2794510 132.5316960
  72.3894430 128.3161440 128.8843960  72.4961180 129.2165170 129.1912720
  71.4786790 128.2679410 128.5938610  82.0413540 127.4386250 130.3554860
  82.8623160 126.9482820 130.3980340  82.0747620 128.0283910 131.1086700
  70.0377590 130.2380450 134.1296550  70.7187700 130.5018820 134.7483950
  69.7225640 129.3981320 134.4634560  74.2302160 131.2847810 133.2169140
  74.7380380 131.7828780 133.8574160  74.7615400 130.5083010 133.0408500
  86.3313090 129.4553000 136.9198490  85.6265260 129.8434710 136.4013600
  86.5971010 130.1503290 137.5219420  72.5138260 125.9246370 137.4832560
  72.5156700 126.4418760 136.6778460  71.6842570 125.4476550 137.4602490
  78.9009350 136.0365680 128.9822460  78.2826620 136.5015130 128.4185180
  79.4132600 136.7293160 129.3991970  73.7641110 135.5641550 135.6606060
  73.4310490 136.1910470 136.3027130  73.9407790 136.0903430 134.8807730
  82.2775020 129.3786630 133.1282400  81.5730590 129.6671520 133.7085510
  82.6387180 130.1886740 132.7681960  72.1953590 127.6356330 135.4903010
  72.5370400 128.4798380 135.1956880  71.2569400 127.7840070 135.6068350
  72.9760210 137.5322350 137.4755240  73.5934210 138.2073430 137.1939690
  72.1153330 137.9410330 137.3842740  68.2692550 136.7222210 126.3562090
  67.8920530 137.2109310 125.6246990  68.5265620 137.3947490 126.9868620
  83.8937800 138.9961760 135.3909880  83.2101320 139.6660870 135.3826550
  84.4332090 139.1942410 134.6254740  85.3461940 128.8241420 133.5191610
  84.3986850 128.8580400 133.6507040  85.6711930 129.6380370 133.9040970
  75.8781480 125.1238600 131.8147600  76.1856460 124.5685490 131.0983100
  74.9482180 125.2583060 131.6320590  81.4296540 140.8405890 134.1055060
  81.4423700 140.4368180 133.2377320  80.8771760 141.6153180 134.0016490
  82.7241960 137.5622110 129.1945230  82.6138290 136.6196440 129.3194650
  82.7210210 137.9237750 130.0807990  80.8281980 135.7435730 135.4337670
  81.2450770 135.5295840 134.5991130  81.5521800 136.0008520 136.0046290
  78.2662240 133.1887430 128.5507720  77.3391520 133.1224810 128.7796190
  78.4187060 134.1267560 128.4362960  78.2531320 129.4604430 125.5474880
  77.3134990 129.6218390 125.6327340  78.5714580 130.1790110 125.0010870
  84.7744080 134.1422950 135.5253910  83.9462710 134.2116040 135.0504040
  85.3694560 134.7277260 135.0569740  82.2959530 134.7507730 129.0542970
  81.6771950 134.4127280 128.4069270  82.2783980 134.1067490 129.7622160
  81.7386090 130.9292270 136.4708780  81.3257270 131.7545980 136.7248770
  81.0062040 130.3437310 136.2785140  73.8718880 133.7152170 131.3327450
  73.4675880 133.0029420 130.8373350  73.9582000 133.3705410 132.2215490
  74.3400580 137.4019730 133.4966660  74.0428870 136.7965200 132.8174440
  75.2900400 137.4397040 133.3856020  72.5847500 130.4895380 135.1126490
  73.1362090 130.5990720 134.3379740  73.0991010 130.8632980 135.8281720
  82.4286190 140.9751600 137.1589760  81.9516750 141.7823790 136.9662370
  81.7447980 140.3229930 137.3115970  73.4319010 137.1401420 140.1474460
  72.5347540 137.3641390 140.3947860  73.4571880 137.2636360 139.1985860
  80.4724230 133.9894540 126.0615720  80.9117510 133.1516970 125.9153540
  81.1852650 134.6223940 126.1479860  72.2590230 134.0114740 138.7231830
  72.1198000 134.8837540 139.0919230  71.3771590 133.6687550 138.5779770
  78.5819610 138.9290610 130.0296960  79.0215520 139.6714940 129.6152350
  78.5206500 139.1717180 130.9535920  74.0570580 139.9536440 140.9316980
  74.0286010 140.3579390 140.0645410  73.8935550 139.0246800 140.7688580
  84.0541370 125.2437350 124.3756760  83.7414030 125.3364180 125.2755830
  84.8153840 125.8218380 124.3254190  70.5723510 132.6097150 128.8334100
  70.4521110 133.3359240 128.2215370  70.2624400 131.8400060 128.3562010
  86.0085400 140.7363540 142.2281150  86.4845120 141.2146430 142.9070230
  86.6292560 140.6681030 141.5026650  68.2108880 135.7812290 134.6402740
  68.2889300 135.9161060 133.6958460  68.8250560 135.0728180 134.8330860
  69.4556510 137.4812480 131.0508920  69.0484590 137.6227070 130.1962520
  70.3469520 137.1972640 130.8480130  85.4118650 137.9276390 139.3881160
  85.5381710 137.6888270 138.4698340  85.4540030 137.0960930 139.8603240
  79.2735390 141.6304390 137.9575970  79.7880060 141.5412400 138.7598400
  78.4304470 141.9764090 138.2503880  81.2489790 141.9159730 127.3859970
  81.0890930 141.6262670 128.2841800  81.0836500 141.1399860 126.8505200
  73.7278170 141.6958260 129.1631590  73.5520650 140.7793800 128.9499390
  72.8733910 142.0545550 129.4029390  80.9515920 139.4247290 125.9457970
  80.2581080 139.4224580 125.2860250  81.6938780 139.0006610 125.5152140
  80.5165850 141.0510000 130.0206460  80.9722800 140.2699380 130.3345080
  80.8558370 141.7616820 130.5647640  85.2642660 129.9808850 140.3530900
  84.6486930 130.4888520 139.8246360  84.9439080 129.0807180 140.2956840
  68.2668400 136.8226460 137.1797200  68.4299440 136.3531820 136.3616570
  68.7320850 136.3150020 137.8446040  73.0387170 125.9532220 132.2157770
  72.5955320 126.7341760 131.8842290  73.5972160 126.2762110 132.9228710
  77.3256980 128.8200740 137.8193090  76.8636350 129.0283760 138.6313030
  76.9235090 128.0060090 137.5163760  82.3261490 130.0409690 138.9489750
  81.4755080 129.7415440 139.2698820  82.1663280 130.2851700 138.0373570
  79.4211200 131.5411440 141.0488540  79.7464610 130.7075190 140.7090770
  80.2091530 132.0639960 141.1966870  76.1545990 125.5742920 127.0963600
  75.5300170 125.5702790 127.8216910  76.0676110 124.7073880 126.6999570
  75.0763070 126.4979550 134.0747370  75.3735400 127.4042380 133.9939390
  75.6248630 126.0098330 133.4606940  72.8301390 131.0765790 129.9439020
  72.6042310 130.8602960 130.8485640  72.0493920 131.5094250 129.5984990
  80.0599150 131.0829160 128.5429670  79.4608040 131.8064960 128.3593290
  80.6078760 131.0205940 127.7606120  75.2700600 131.9751370 140.6099290
  75.1744200 131.0346100 140.4599690  76.1132580 132.1966440 140.2147360
  78.6664020 129.7192700 130.5732950  79.0593590 130.0364900 129.7601640
  79.0280870 128.8404580 130.6877470  70.4011140 128.3865040 138.7633070
  70.0074530 129.2340250 138.9705850  69.7129540 127.7491410 138.9541710
  76.9756190 128.4700010 141.8329810  76.2854510 128.2772210 142.4675900
  77.7188490 128.7534650 142.3654110  67.7028190 126.3093500 132.7963150
  67.4141240 126.8796360 133.5088130  68.4473950 125.8297950 133.1594380
  67.8898420 130.2513620 124.0065870  67.8073090 131.1944380 124.1480860
  67.5381480 130.1088530 123.1278220  79.2519160 132.3098450 134.6683730
  78.5200280 132.8185260 135.0173830  78.8543500 131.4928430 134.3672510
  75.6896550 128.9852650 133.0736220  75.6932610 128.5442600 132.2240760
  76.5847670 129.3069980 133.1808040  71.5398930 128.8679140 132.0330430
  71.1998980 129.3454370 132.7897480  70.7776250 128.4144260 131.6731530
  75.7516700 129.9864730 126.0642980  75.8729520 129.9451210 127.0128800
  75.3665210 130.8488880 125.9089710  79.7145070 127.7632130 134.0806670
  79.7317810 128.2140780 134.9248520  79.4660650 126.8637770 134.2940110
  74.7638200 132.2965870 125.4626280  74.1955100 131.8484120 124.8362190
  75.4727200 132.6558650 124.9291430  83.1415820 125.1764310 139.9193050
  83.4661590 124.4453970 140.4451030  83.1772330 124.8577950 139.0174040
  69.8407380 136.1977890 139.3393010  69.4562170 135.5571560 139.9375970
  70.1519570 136.9014010 139.9087740  75.9904520 133.0454430 134.8201630
  76.3574650 132.5713000 135.5662970  75.8009580 133.9196000 135.1609970
  68.8545010 127.7898120 130.9495100  68.5691930 127.4253790 131.7873720
  68.7923870 127.0578580 130.3358240  73.7803890 132.0863070 137.1385840
  73.4760960 132.9655050 137.3636200  74.7350350 132.1462860 137.1743280
  72.3085680 136.2924060 127.7352690  71.5347940 135.7521680 127.5751410
  73.0380310 135.7730670 127.3970450  83.0673660 135.2889420 133.5279080
  83.7872780 135.7844710 133.1375190  82.8655480 134.6107310 132.8832950
  78.5283600 126.6827380 127.6708470  77.7148210 126.1840550 127.5953780
  78.3345550 127.5225630 127.2544820  78.4492460 135.3598480 139.4148080
  78.3829770 134.4394150 139.1605670  77.8197600 135.4573920 140.1292720
  81.2431990 131.0547030 125.9670630  82.1311610 131.3664260 125.7921970
  81.2137080 130.1819280 125.5751210  72.3523080 135.9604440 131.3731500
  72.8701750 135.1572700 131.3188390  71.9007100 135.8983580 132.2148330
  77.2392580 137.2270720 126.6458800  77.5808280 137.9712950 126.1502120
  76.4105290 137.5401840 127.0083630  69.8367620 132.9265810 138.2857200
  69.4782560 133.5919660 138.8730540  69.5422180 132.0949360 138.6569820
  73.0380740 133.3850050 141.1696750  72.7380880 133.5307230 140.2724570
  73.8091980 132.8255340 141.0770140  78.3809190 138.1819050 139.1651880
  78.3953730 137.2500010 138.9470790  77.6734290 138.2678810 139.8041650
  83.5146260 132.3658870 125.4350490  83.4309980 132.7973090 124.5846930
  84.2340450 132.8257220 125.8677310  84.5920400 134.8226390 138.5120460
  83.8668590 135.4155170 138.3149850  85.1195860 134.8149930 137.7133830
  84.5433510 139.2201130 128.1632620  83.9009670 138.5656750 128.4376340
  84.1564170 139.6256220 127.3873290  80.1219990 136.5486560 132.0104310
  80.4743810 135.9514690 131.3505680  79.2382320 136.2230790 132.1812560
  76.2083270 137.3084250 129.4174720  76.8954400 137.8553460 129.7982310
  75.4215690 137.8524980 129.4524330  68.3475670 132.9257070 124.9091800
  69.2170520 133.2081870 125.1927720  67.8565990 133.7392940 124.7940610
  75.5110480 134.3130280 129.0300080  75.9673260 135.1235530 129.2560270
  75.1598690 133.9953420 129.8618570  77.8143090 139.8236620 136.2592380
  78.4585310 140.0296000 136.9365800  78.1772530 139.0625020 135.8063230
  71.4122260 124.6567930 129.5022600  71.2836890 124.6485830 130.4507520
  70.5884280 124.9951020 129.1513610  79.0875170 137.8268970 134.9769830
  79.7297400 137.1262130 135.0902000  79.6124520 138.6067410 134.7966720
  82.9330890 138.1117590 124.7008970  82.7068470 137.3948030 125.2933610
  82.5427090 137.8630030 123.8630720  80.8612790 138.6263870 138.1805890
  81.1969030 139.2130560 138.8583810  79.9413130 138.4956580 138.4103680
  68.7146920 142.1384450 125.4753430  69.0744560 142.7373790 124.8210700
  68.5739260 142.6844340 126.2488460  68.4116190 126.4159050 138.9629300
  67.6974710 126.6155970 139.5681910  68.8311230 125.6398620 139.3344100
  82.5147140 136.0289530 126.3623130  82.2268840 136.4902220 127.1501010
  83.3099310 135.5687300 126.6307350  68.6988780 140.4039310 139.9495830
  68.8079900 139.4634050 139.8091220  68.0469340 140.6694060 139.3009560
  76.6901370 138.6755200 141.3493950  76.3698240 137.9564440 141.8939640
  76.0159730 139.3510270 141.4230010  74.7315540 139.5215650 126.2927100
  74.7225640 140.2545340 125.6771610  73.8113900 139.2747230 126.3854060
  70.3322180 134.7430540 127.0373860  69.7250130 135.4829440 127.0469160
  70.8071530 134.8329900 126.2112060  79.9054970 128.9081360 136.7130750
  80.2735790 128.0876570 137.0410320  79.0453170 128.9683250 137.1286400
  83.2717000 127.8638300 127.5218310  82.6430160 127.9683970 126.8076540
  82.7768920 128.0835080 128.3112190  77.7175140 139.5843890 124.9552290
  77.8187120 139.3807880 124.0254270  76.8176880 139.3302170 125.1600070
  75.2401030 130.1424250 128.9376190  74.5317180 130.6110590 129.3789800
  75.5245510 129.4846260 129.5721380  76.8656960 131.5620950 136.9368720
  77.3642210 132.0366770 137.6020570  77.0079910 130.6384470 137.1438750
  79.2716460 126.8674910 130.3771980  79.1484240 126.8861040 129.4281490
  80.2201020 126.9153850 130.4970380  76.3593250 142.1030210 129.6499960
  76.6134750 142.0651600 128.7279330  75.4105730 141.9763540 129.6428210
  73.4436050 128.4509330 126.3126900  74.2926580 128.8879480 126.2467090
  73.0767320 128.7629590 127.1398960  84.0723820 127.7788910 137.7797110
  83.5697420 128.5194310 138.1190920  84.8880480 128.1672910 137.4633900
  82.3645830 133.0222090 131.2258470  81.4235970 133.0372320 131.4006160
  82.6789900 132.2358050 131.6718770  72.3427470 134.7041690 124.7862430
  73.1090740 134.5923050 125.3487860  72.4202160 134.0079660 124.1339200
  71.0374230 132.1366760 125.4695320  71.1177820 131.1894270 125.5812720
  71.9293980 132.4673640 125.5755980  84.3671410 140.1930940 132.9012730
  84.4918830 141.0162110 133.3736540  85.2336970 139.9821670 132.5536880
  71.8388940 142.2862150 132.5729860  72.5751420 141.7377610 132.8438430
  72.2229860 143.1518160 132.4335850  68.7234420 138.3535720 128.4471370
  67.7974200 138.5956860 128.4376780  69.1890850 139.1809980 128.3256120
  70.8447220 141.4708220 141.7615440  71.6459950 141.7920270 142.1750840
  70.3299040 141.1103800 142.4835350  74.9491250 141.4592460 124.3955430
  75.7419860 141.7481290 123.9437220  74.4295600 141.0284630 123.7167910
  79.6811850 137.5788090 141.7090850  79.0750010 137.6019690 140.9686600
  79.3765960 136.8471130 142.2458100  81.1112220 141.3068380 140.3200260
  82.0633970 141.2226400 140.2700500  80.9640440 141.9710090 140.9934050
  84.0021420 140.6862590 125.8192170  83.7162930 140.2727730 125.0046350
  83.8040970 141.6150300 125.6992690  68.5645030 133.9581680 140.7051490
  69.0684050 133.3788960 141.2767720  67.8252450 134.2421910 141.2427860
  75.4668650 136.6795870 124.2597780  75.3619290 136.0648220 124.9859160
  75.2992870 136.1561760 123.4760790  75.6182970 135.3652670 140.2387010
  74.8528640 135.9337670 140.1541680  75.7998930 135.0728880 139.3455240
  78.7071380 135.7415900 124.8639770  78.1581480 136.1885200 125.5082510
  79.3290640 135.2365150 125.3877440  82.7606320 137.0958000 140.7962030
  83.5015790 137.4333760 140.2929490  81.9979000 137.2650060 140.2431800
  70.5968110 132.1011270 141.6001560  70.6373450 131.8025140 142.5086790
  71.4513610 132.5018880 141.4409080  74.3746500 134.7006820 126.7605070
  74.7962920 134.5346690 127.6036460  74.4997340 133.8907050 126.2660210
  72.5373920 130.6803370 139.5676050  72.0070380 130.1894320 138.9399390
  73.2061990 131.1087570 139.0333980  76.8874140 133.7244430 124.0082170
  77.4079800 133.0093450 123.6423320  77.5342540 134.3630300 124.3082680
  81.4351980 135.1472830 139.3317240  81.8493000 135.3017910 140.1807660
  80.5002980 135.2728050 139.4943020  81.9074150 132.4868990 141.3356390
  82.4894920 131.7321310 141.2476870  82.0835920 133.0176430 140.5587870
  73.0246220 127.6465740 139.6473340  72.9303090 127.0286490 138.9224210
  72.4443610 128.3732030 139.4203250  75.7907660 126.2038980 136.6800730
  75.3424960 126.2263240 135.8346280  75.1572860 125.8058000 137.2771030
  76.1967210 135.0993310 137.3013170  76.6155320 135.9426040 137.1289410
  75.2775840 135.2365350 137.0719950  78.5331110 132.8309490 138.6851010
  78.6527320 132.2350630 139.4245850  79.3925110 132.8679180 138.2652310
  80.8719010 133.3846680 137.2613520  80.3454230 133.9089300 136.6578660
  81.2150350 134.0174070 137.8923250  73.2705400 130.7740050 123.7063230
  73.0694460 129.9107410 124.0676570  73.0997450 130.6873410 122.7684830
  74.0474630 141.4046320 138.4170900  73.5095720 142.1292380 138.0979600
  74.3008590 140.9276660 137.6268240  75.2999880 129.3730840 139.9426830
  75.8899570 129.0646690 140.6304650  74.4820120 128.9010590 140.0986730
  80.1193310 128.9896650 140.1759850  79.4308830 128.3278190 140.1109840
  80.8399330 128.5434920 140.6208310  80.7493710 125.5848280 126.2350110
  81.0296000 124.7416180 126.5909530  79.9759440 125.8171390 126.7488860
  72.0688200 127.8740670 123.6941110  72.3714100 127.8808100 122.7860260
  72.8082790 127.5238530 124.1908770  76.9036840 142.6397530 138.6757550
  76.8295540 143.5432670 138.9829920  76.0015680 142.3209430 138.6479620
  75.2873130 126.8175290 124.6797310  74.9395130 126.1399280 124.0999760
  75.4885900 126.3564800 125.4940700  77.4522170 141.8056040 126.2983910
  78.3472960 142.1441010 126.3202670  77.4839800 141.0835450 125.6708190
  71.0918330 137.1783090 124.5270910  71.5293200 137.7212760 125.1828490
  71.5766060 136.3530040 124.5367250  68.3064130 139.9672120 131.9791170
  68.6367140 139.0993180 131.7469810  68.7355130 140.1730640 132.8096130
  72.9026050 138.2981130 129.6393140  72.6021590 138.1746100 130.5397050
  72.7963540 137.4389720 129.2308870  68.7954340 140.8342710 134.7172800
  68.3585330 141.0143510 135.5496950  69.3632020 141.5917330 134.5754520
  84.4316520 140.3359710 139.0050110  83.8318510 140.3952270 138.2614030
  84.5610420 139.3964690 139.1346960  85.6717970 138.0777530 124.3419820
  84.8410930 138.1454180 124.8127050  85.8489800 138.9681650 124.0386680
  85.1274430 134.8225010 126.8454020  85.8893340 135.3921660 126.9513710
  85.1428800 134.2552210 127.6162330  68.6278770 133.3462940 131.0761680
  67.9727610 133.0774580 130.4321380  69.4656720 133.2367420 130.6263660
  86.1334400 135.6775110 131.6895950  86.5043230 134.8942430 131.2831920
  86.7736330 136.3664210 131.5113250  83.1168160 137.0611690 137.1026270
  82.3028000 137.4908850 137.3652060  83.5242360 137.6730100 136.4895320
  85.1793600 135.1159380 124.0026540  85.4542440 136.0238260 123.8745760
  84.9904340 135.0521910 124.9388530  81.5769210 128.1404230 125.2980170
  81.9954090 127.9535210 124.4576830  81.2705270 127.2883280 125.6083100
  85.0758940 133.0528370 128.9955970  84.7002540 132.2856300 128.5637260
  84.3462060 133.4351070 129.4830900  69.6654700 133.7315510 135.6165020
  70.0327740 133.6442910 136.4961040  69.0965520 132.9682060 135.5171880
  84.4658560 132.1999890 138.6295490  84.2344650 131.9712640 137.7293440
  84.7263110 133.1199440 138.5840380  69.2170700 130.6424600 139.5223440
  68.3226750 130.6091360 139.8617150  69.7568250 130.8411390 140.2874690
  82.9046630 127.4256320 141.4075190  83.7816810 127.4339720 141.7909190
  82.9167470 126.6887160 140.7967540  67.8416850 130.5561870 127.0187010
  66.9380930 130.8192070 126.8438670  68.3257470 130.8273040 126.2386970
  84.3509900 131.2785860 132.2963210  84.8747380 130.7848510 131.6653380
  84.9369320 131.4136220 133.0410780  84.5299620 131.3625730 135.8182760
  83.5802330 131.3289270 135.9327750  84.7112630 132.2725840 135.5832530
  70.3844060 129.6127410 124.9281390  71.0935760 129.1910630 124.4428670
  69.6684000 129.6802640 124.2964740  70.0318220 125.6666740 123.9684040
  70.7546350 126.2075680 124.2865260  70.3042740 125.3930160 123.0925580
  83.8409870 130.5359210 128.2355620  84.3368990 130.3030080 129.0204500
  83.6425940 129.6971050 127.8193260  69.7210410 124.9172930 133.8706660
  70.3686600 124.3670310 133.4301820  70.1412250 125.1716080 134.6922470
  85.2697030 129.1720160 130.7693300  85.1596310 129.0176200 131.7075570
  86.0304620 128.6441100 130.5268710  83.6162750 125.1114290 137.2276300
  84.2534970 125.7248430 137.5935490  83.7637640 125.1474950 136.2825530
  86.1587300 127.0028080 124.0099440  87.0836610 126.8709260 123.8017730
  86.1363090 127.0820900 124.9635890  86.2325790 127.7738740 126.6356150
  85.4377290 127.7083860 127.1649060  86.4369070 128.7089380 126.6241500
  83.1744210 141.8130290 130.6294540  83.7703280 141.4914860 129.9528960
  83.4322360 141.3402110 131.4207810  69.4742410 125.0728600 136.6131980
  69.1257230 125.5292420 137.3790160  69.1430110 124.1785730 136.6954410
  71.0806780 138.2448200 140.7785170  71.0376410 137.8741110 141.6599630
  71.2117790 139.1825770 140.9186990  74.7812810 139.8007790 136.3794890
  74.5404170 140.0682350 135.4925410  75.7215450 139.9713520 136.4345750
  76.9867230 126.2640480 140.1351400  76.9256120 126.8562310 140.8846810
  77.9267610 126.1566440 139.9901660  79.6241790 125.9210540 139.7743690
  80.2382200 126.2389830 139.1124770  80.1691350 125.4359130 140.3939550
  86.0416970 141.8202170 137.1805530  85.5475250 142.2171040 136.4632660
  85.4330260 141.1951380 137.5742810  70.1463050 124.6004800 139.8882750
  70.6946040 124.4192850 139.1248860  70.2118360 123.8098910 140.4239060
  70.9194810 141.1910450 137.8982950  70.3255130 141.0595150 138.6372990
  70.9118650 140.3548590 137.4325050  80.3649830 124.4842680 136.1012980
  79.4909670 124.8177790 135.8985910  80.2560580 124.0115860 136.9264850
  81.2721810 126.6913550 137.4854700  80.9435170 125.8765310 137.1056430
  82.2204110 126.6483360 137.3620390  83.7256420 142.4625590 134.4592270
  83.2659390 143.2141400 134.0850290  83.0968880 141.7432060 134.4007070
  70.5507040 138.5568830 136.8490990  69.8241100 137.9374120 136.7816940
  70.6116190 138.9509440 135.9789070  74.1552140 140.7713830 133.6340400
  74.6717160 140.1601190 133.1088660  74.8049520 141.2742610 134.1251410
  76.8947640 141.6622320 134.4609380  77.1825450 141.4076620 133.5842390
  77.4070860 141.1099680 135.0514950  78.1124650 125.4012520 135.0405890
  77.3296440 125.8758020 135.3202650  77.8187580 124.4967350 134.9319070
  82.6645720 126.1035620 133.0854980  83.1053810 126.0480720 132.2376580
  82.3953310 127.0193630 133.1565160  84.5284290 125.7350860 131.0963800
  84.4672690 124.7912080 130.9494820  85.3076320 125.8430950 131.6417260
  68.8337040 141.8743220 130.0587750  68.6659080 141.2413900 130.7569640
  67.9671550 142.0802620 129.7081940  69.4565060 125.7060000 127.5619610
  70.2144420 125.8188880 126.9883640  68.9942230 126.5429200 127.5163040
  75.9978870 127.8199270 130.5521920  75.1853380 127.4456160 130.2117800
  76.5020510 127.0644350 130.8543110  80.5003850 124.4841720 131.7904990
  81.1033220 125.0561930 132.2653510  79.7596840 125.0481160 131.5678890
  83.6438450 124.8863280 127.0645270  83.8389080 125.7846730 127.3312700
  82.8568320 124.6550360 127.5578220  70.4399740 140.5676450 127.5037890
  69.9147360 140.9484480 126.7999850  70.3644320 141.1927220 128.2247600
  71.8290210 126.2324050 126.1021580  72.3582970 125.4453850 125.9729530
  72.4618530 126.9115240 126.3357110  74.0228050 125.9699190 129.1566970
  73.3930790 125.2686500 129.3237100  73.4833190 126.7303320 128.9400130
  76.9620000 142.5838420 141.8277580  77.8887310 142.3482690 141.8713540
  76.9470430 143.4110420 141.3463610  85.1965060 142.1263990 128.8251830
  85.3717250 141.4401730 128.1812750  84.4986630 142.6511040 128.4328500
  74.1483610 125.2483170 141.5919460  73.8667880 125.7516770 140.8280280
  74.5303310 124.4504920 141.2261590  73.0392710 142.5158830 126.3787140
  73.7711530 142.2318110 125.8311030  73.2986380 142.2772110 127.2686520
  72.2007500 138.6323560 126.3833470  71.5716380 139.1008660 126.9319300
  72.3155330 137.7872780 126.8179660  80.7499070 124.6636750 142.1699930
  80.6364520 124.9831360 143.0651450  81.5668810 125.0649260 141.8737210
  83.5297560 141.8108280 141.6518620  84.3222880 141.3157510 141.4444580
  83.8230710 142.4898420 142.2594230  79.6557220 132.6829220 112.5334670
  79.5751270 131.7683830 112.2626380  79.2421640 133.1796290 111.8274380
  77.7875260 134.4608240 114.4143940  77.0117360 133.9808680 114.7042510
  78.4388190 133.7813890 114.2400100  71.8041090 134.7728050 115.2919700
  70.9725970 134.5176760 115.6916210  72.4122070 134.8438820 116.0277620
  81.8082690 138.8668430 113.1943070  81.3464220 138.0955670 113.5230240
  82.6208240 138.8934500 113.6995520  71.7842350 138.8068140 115.4877720
  72.0870390 137.9165880 115.3087940  72.5285940 139.3638360 115.2599970
  68.1766050 132.3335590 114.9601790  68.7482160 131.5657790 114.9605430
  68.1767590 132.6324350 114.0508400  78.0346000 141.1526440 112.8147060
  77.4157440 141.6083940 112.2441500  78.8897780 141.3077900 112.4136760
  77.2284250 137.1365430 114.4214100  77.1592530 136.1955370 114.2603230
  77.9904110 137.2266840 114.9936670  69.4190920 127.7419950 116.7470720
  69.2393760 126.8445700 117.0273480  69.0171000 128.2891820 117.4217670
  70.0377590 130.2380450 115.3553060  70.7187700 130.5018820 115.9740460
  69.7225640 129.3981320 115.6891070  74.2302160 131.2847810 114.4425650
  74.7380380 131.7828780 115.0830670  74.7615400 130.5083010 114.2665010
  86.3313090 129.4553000 118.1455000  85.6265260 129.8434710 117.6270110
  86.5971010 130.1503290 118.7475930  72.5138260 125.9246370 118.7089070
  72.5156700 126.4418760 117.9034970  71.6842570 125.4476550 118.6859000
  78.9009350 136.0365680 110.2078970  78.2826620 136.5015130 109.6441690
  79.4132600 136.7293160 110.6248480  73.7641110 135.5641550 116.8862570
  73.4310490 136.1910470 117.5283640  73.9407790 136.0903430 116.1064240
  72.1953590 127.6356330 116.7159520  72.5370400 128.4798380 116.4213390
  71.2569400 127.7840070 116.8324860  72.9760210 137.5322350 118.7011750
  73.5934210 138.2073430 118.4196200  72.1153330 137.9410330 118.6099250
  68.2692550 136.7222210 107.5818600  67.8920530 137.2109310 106.8503500
  68.5265620 137.3947490 108.2125130  83.8937800 138.9961760 116.6166390
  83.2101320 139.6660870 116.6083060  84.4332090 139.1942410 115.8511250
  75.8781480 125.1238600 113.0404110  76.1856460 124.5685490 112.3239610
  74.9482180 125.2583060 112.8577100  81.4296540 140.8405890 115.3311570
  81.4423700 140.4368180 114.4633830  80.8771760 141.6153180 115.2273000
  82.7241960 137.5622110 110.4201740  82.6138290 136.6196440 110.5451160
  82.7210210 137.9237750 111.3064500  80.8281980 135.7435730 116.6594180
  81.2450770 135.5295840 115.8247640  81.5521800 136.0008520 117.2302800
  78.2662240 133.1887430 109.7764230  77.3391520 133.1224810 110.0052700
  78.4187060 134.1267560 109.6619470  78.2531320 129.4604430 106.7731390
  77.3134990 129.6218390 106.8583850  78.5714580 130.1790110 106.2267380
  84.7744080 134.1422950 116.7510420  83.9462710 134.2116040 116.2760550
  85.3694560 134.7277260 116.2826250  82.2959530 134.7507730 110.2799480
  81.6771950 134.4127280 109.6325780  82.2783980 134.1067490 110.9878670
  81.7386090 130.9292270 117.6965290  81.3257270 131.7545980 117.9505280
  81.0062040 130.3437310 117.5041650  73.8718880 133.7152170 112.5583960
  73.4675880 133.0029420 112.0629860  73.9582000 133.3705410 113.4472000
  74.3400580 137.4019730 114.7223170  74.0428870 136.7965200 114.0430950
  75.2900400 137.4397040 114.6112530  72.5847500 130.4895380 116.3383000
  73.1362090 130.5990720 115.5636250  73.0991010 130.8632980 117.0538230
  82.4286190 140.9751600 118.3846270  81.9516750 141.7823790 118.1918880
  81.7447980 140.3229930 118.5372480  73.4319010 137.1401420 121.3730970
  72.5347540 137.3641390 121.6204370  73.4571880 137.2636360 120.4242370
  80.4724230 133.9894540 107.2872230  80.9117510 133.1516970 107.1410050
  81.1852650 134.6223940 107.3736370  72.2590230 134.0114740 119.9488340
  72.1198000 134.8837540 120.3175740  71.3771590 133.6687550 119.8036280
  78.5819610 138.9290610 111.2553470  79.0215520 139.6714940 110.8408860
  78.5206500 139.1717180 112.1792430  74.0570580 139.9536440 122.1573490
  74.0286010 140.3579390 121.2901920  73.8935550 139.0246800 121.9945090
  84.0541370 125.2437350 105.6013270  83.7414030 125.3364180 106.5012340
  84.8153840 125.8218380 105.5510700  70.5723510 132.6097150 110.0590610
  70.4521110 133.3359240 109.4471880  70.2624400 131.8400060 109.5818520
  86.0085400 140.7363540 123.4537660  86.4845120 141.2146430 124.1326740
  86.6292560 140.6681030 122.7283160  68.2108880 135.7812290 115.8659250
  68.2889300 135.9161060 114.9214970  68.8250560 135.0728180 116.0587370
  69.4556510 137.4812480 112.2765430  69.0484590 137.6227070 111.4219030
  70.3469520 137.1972640 112.0736640  85.4118650 137.9276390 120.6137670
  85.5381710 137.6888270 119.6954850  85.4540030 137.0960930 121.0859750
  79.2735390 141.6304390 119.1832480  79.7880060 141.5412400 119.9854910
  78.4304470 141.9764090 119.4760390  81.2489790 141.9159730 108.6116480
  81.0890930 141.6262670 109.5098310  81.0836500 141.1399860 108.0761710
  73.7278170 141.6958260 110.3888100  73.5520650 140.7793800 110.1755900
  72.8733910 142.0545550 110.6285900  80.9515920 139.4247290 107.1714480
  80.2581080 139.4224580 106.5116760  81.6938780 139.0006610 106.7408650
  80.5165850 141.0510000 111.2462970  80.9722800 140.2699380 111.5601590
  80.8558370 141.7616820 111.7904150  85.2642660 129.9808850 121.5787410
  84.6486930 130.4888520 121.0502870  84.9439080 129.0807180 121.5213350
  68.2668400 136.8226460 118.4053710  68.4299440 136.3531820 117.5873080
  68.7320850 136.3150020 119.0702550  73.0387170 125.9532220 113.4414280
  72.5955320 126.7341760 113.1098800  73.5972160 126.2762110 114.1485220
  77.3256980 128.8200740 119.0449600  76.8636350 129.0283760 119.8569540
  76.9235090 128.0060090 118.7420270  82.3261490 130.0409690 120.1746260
  81.4755080 129.7415440 120.4955330  82.1663280 130.2851700 119.2630080
  79.4211200 131.5411440 122.2745050  79.7464610 130.7075190 121.9347280
  80.2091530 132.0639960 122.4223380  75.0763070 126.4979550 115.3003880
  75.3735400 127.4042380 115.2195900  75.6248630 126.0098330 114.6863450
  72.8301390 131.0765790 111.1695530  72.6042310 130.8602960 112.0742150
  72.0493920 131.5094250 110.8241500  80.0599150 131.0829160 109.7686180
  79.4608040 131.8064960 109.5849800  80.6078760 131.0205940 108.9862630
  75.2700600 131.9751370 121.8355800  75.1744200 131.0346100 121.6856200
  76.1132580 132.1966440 121.4403870  78.6664020 129.7192700 111.7989460
  79.0593590 130.0364900 110.9858150  79.0280870 128.8404580 111.9133980
  70.4011140 128.3865040 119.9889580  70.0074530 129.2340250 120.1962360
  69.7129540 127.7491410 120.1798220  76.9756190 128.4700010 123.0586320
  76.2854510 128.2772210 123.6932410  77.7188490 128.7534650 123.5910620
  67.7028190 126.3093500 114.0219660  67.4141240 126.8796360 114.7344640
  68.4473950 125.8297950 114.3850890  79.2519160 132.3098450 115.8940240
  78.5200280 132.8185260 116.2430340  78.8543500 131.4928430 115.5929020
  75.6896550 128.9852650 114.2992730  75.6932610 128.5442600 113.4497270
  76.5847670 129.3069980 114.4064550  71.5398930 128.8679140 113.2586940
  71.1998980 129.3454370 114.0153990  70.7776250 128.4144260 112.8988040
  74.7638200 132.2965870 106.6882790  74.1955100 131.8484120 106.0618700
  75.4727200 132.6558650 106.1547940  83.1415820 125.1764310 121.1449560
  83.4661590 124.4453970 121.6707540  83.1772330 124.8577950 120.2430550
  69.8407380 136.1977890 120.5649520  69.4562170 135.5571560 121.1632480
  70.1519570 136.9014010 121.1344250  75.9904520 133.0454430 116.0458140
  76.3574650 132.5713000 116.7919480  75.8009580 133.9196000 116.3866480
  68.8545010 127.7898120 112.1751610  68.5691930 127.4253790 113.0130230
  68.7923870 127.0578580 111.5614750  73.7803890 132.0863070 118.3642350
  73.4760960 132.9655050 118.5892710  74.7350350 132.1462860 118.3999790
  72.3085680 136.2924060 108.9609200  71.5347940 135.7521680 108.8007920
  73.0380310 135.7730670 108.6226960  83.0673660 135.2889420 114.7535590
  83.7872780 135.7844710 114.3631700  82.8655480 134.6107310 114.1089460
  78.5283600 126.6827380 108.8964980  77.7148210 126.1840550 108.8210290
  78.3345550 127.5225630 108.4801330  78.4492460 135.3598480 120.6404590
  78.3829770 134.4394150 120.3862180  77.8197600 135.4573920 121.3549230
  81.2431990 131.0547030 107.1927140  82.1311610 131.3664260 107.0178480
  81.2137080 130.1819280 106.8007720  72.3523080 135.9604440 112.5988010
  72.8701750 135.1572700 112.5444900  71.9007100 135.8983580 113.4404840
  77.2392580 137.2270720 107.8715310  77.5808280 137.9712950 107.3758630
  76.4105290 137.5401840 108.2340140  69.8367620 132.9265810 119.5113710
  69.4782560 133.5919660 120.0987050  69.5422180 132.0949360 119.8826330
  73.0380740 133.3850050 122.3953260  72.7380880 133.5307230 121.4981080
  73.8091980 132.8255340 122.3026650  78.3809190 138.1819050 120.3908390
  78.3953730 137.2500010 120.1727300  77.6734290 138.2678810 121.0298160
  83.5146260 132.3658870 106.6607000  83.4309980 132.7973090 105.8103440
  84.2340450 132.8257220 107.0933820  84.5920400 134.8226390 119.7376970
  83.8668590 135.4155170 119.5406360  85.1195860 134.8149930 118.9390340
  84.5433510 139.2201130 109.3889130  83.9009670 138.5656750 109.6632850
  84.1564170 139.6256220 108.6129800  80.1219990 136.5486560 113.2360820
  80.4743810 135.9514690 112.5762190  79.2382320 136.2230790 113.4069070
  76.2083270 137.3084250 110.6431230  76.8954400 137.8553460 111.0238820
  75.4215690 137.8524980 110.6780840  68.3475670 132.9257070 106.1348310
  69.2170520 133.2081870 106.4184230  67.8565990 133.7392940 106.0197120
  75.5110480 134.3130280 110.2556590  75.9673260 135.1235530 110.4816780
  75.1598690 133.9953420 111.0875080  77.8143090 139.8236620 117.4848890
  78.4585310 140.0296000 118.1622310  78.1772530 139.0625020 117.0319740
  79.0875170 137.8268970 116.2026340  79.7297400 137.1262130 116.3158510
  79.6124520 138.6067410 116.0223230  82.9330890 138.1117590 105.9265480
  82.7068470 137.3948030 106.5190120  82.5427090 137.8630030 105.0887230
  80.8612790 138.6263870 119.4062400  81.1969030 139.2130560 120.0840320
  79.9413130 138.4956580 119.6360190  68.7146920 142.1384450 106.7009940
  69.0744560 142.7373790 106.0467210  68.5739260 142.6844340 107.4744970
  68.4116190 126.4159050 120.1885810  67.6974710 126.6155970 120.7938420
  68.8311230 125.6398620 120.5600610  82.5147140 136.0289530 107.5879640
  82.2268840 136.4902220 108.3757520  83.3099310 135.5687300 107.8563860
  68.6988780 140.4039310 121.1752340  68.8079900 139.4634050 121.0347730
  68.0469340 140.6694060 120.5266070  76.6901370 138.6755200 122.5750460
  76.3698240 137.9564440 123.1196150  76.0159730 139.3510270 122.6486520
  74.7315540 139.5215650 107.5183610  74.7225640 140.2545340 106.9028120
  73.8113900 139.2747230 107.6110570  70.3322180 134.7430540 108.2630370
  69.7250130 135.4829440 108.2725670  70.8071530 134.8329900 107.4368570
  79.9054970 128.9081360 117.9387260  80.2735790 128.0876570 118.2666830
  79.0453170 128.9683250 118.3542910  77.7175140 139.5843890 106.1808800
  77.8187120 139.3807880 105.2510780  76.8176880 139.3302170 106.3856580
  75.2401030 130.1424250 110.1632700  74.5317180 130.6110590 110.6046310
  75.5245510 129.4846260 110.7977890  76.8656960 131.5620950 118.1625230
  77.3642210 132.0366770 118.8277080  77.0079910 130.6384470 118.3695260
  76.3593250 142.1030210 110.8756470  76.6134750 142.0651600 109.9535840
  75.4105730 141.9763540 110.8684720  84.0723820 127.7788910 119.0053620
  83.5697420 128.5194310 119.3447430  84.8880480 128.1672910 118.6890410
  72.3427470 134.7041690 106.0118940  73.1090740 134.5923050 106.5744370
  72.4202160 134.0079660 105.3595710  71.0374230 132.1366760 106.6951830
  71.1177820 131.1894270 106.8069230  71.9293980 132.4673640 106.8012490
  84.3671410 140.1930940 114.1269240  84.4918830 141.0162110 114.5993050
  85.2336970 139.9821670 113.7793390  71.8388940 142.2862150 113.7986370
  72.5751420 141.7377610 114.0694940  72.2229860 143.1518160 113.6592360
  68.7234420 138.3535720 109.6727880  67.7974200 138.5956860 109.6633290
  69.1890850 139.1809980 109.5512630  70.8447220 141.4708220 122.9871950
  71.6459950 141.7920270 123.4007350  70.3299040 141.1103800 123.7091860
  74.9491250 141.4592460 105.6211940  75.7419860 141.7481290 105.1693730
  74.4295600 141.0284630 104.9424420  79.6811850 137.5788090 122.9347360
  79.0750010 137.6019690 122.1943110  79.3765960 136.8471130 123.4714610
  81.1112220 141.3068380 121.5456770  82.0633970 141.2226400 121.4957010
  80.9640440 141.9710090 122.2190560  84.0021420 140.6862590 107.0448680
  83.7162930 140.2727730 106.2302860  83.8040970 141.6150300 106.9249200
  68.5645030 133.9581680 121.9308000  69.0684050 133.3788960 122.5024230
  67.8252450 134.2421910 122.4684370  75.4668650 136.6795870 105.4854290
  75.3619290 136.0648220 106.2115670  75.2992870 136.1561760 104.7017300
  75.6182970 135.3652670 121.4643520  74.8528640 135.9337670 121.3798190
  75.7998930 135.0728880 120.5711750  78.7071380 135.7415900 106.0896280
  78.1581480 136.1885200 106.7339020  79.3290640 135.2365150 106.6133950
  82.7606320 137.0958000 122.0218540  83.5015790 137.4333760 121.5186000
  81.9979000 137.2650060 121.4688310  70.5968110 132.1011270 122.8258070
  70.6373450 131.8025140 123.7343300  71.4513610 132.5018880 122.6665590
  74.3746500 134.7006820 107.9861580  74.7962920 134.5346690 108.8292970
  74.4997340 133.8907050 107.4916720  72.5373920 130.6803370 120.7932560
  72.0070380 130.1894320 120.1655900  73.2061990 131.1087570 120.2590490
  76.8874140 133.7244430 105.2338680  77.4079800 133.0093450 104.8679830
  77.5342540 134.3630300 105.5339190  81.4351980 135.1472830 120.5573750
  81.8493000 135.3017910 121.4064170  80.5002980 135.2728050 120.7199530
  81.9074150 132.4868990 122.5612900  82.4894920 131.7321310 122.4733380
  82.0835920 133.0176430 121.7844380  73.0246220 127.6465740 120.8729850
  72.9303090 127.0286490 120.1480720  72.4443610 128.3732030 120.6459760
  75.7907660 126.2038980 117.9057240  75.3424960 126.2263240 117.0602790
  75.1572860 125.8058000 118.5027540  76.1967210 135.0993310 118.5269680
  76.6155320 135.9426040 118.3545920  75.2775840 135.2365350 118.2976460
  78.5331110 132.8309490 119.9107520  78.6527320 132.2350630 120.6502360
  79.3925110 132.8679180 119.4908820  80.8719010 133.3846680 118.4870030
  80.3454230 133.9089300 117.8835170  81.2150350 134.0174070 119.1179760
  74.0474630 141.4046320 119.6427410  73.5095720 142.1292380 119.3236110
  74.3008590 140.9276660 118.8524750  75.2999880 129.3730840 121.1683340
  75.8899570 129.0646690 121.8561160  74.4820120 128.9010590 121.3243240
  80.1193310 128.9896650 121.4016360  79.4308830 128.3278190 121.3366350
  80.8399330 128.5434920 121.8464820  80.7493710 125.5848280 107.4606620
  81.0296000 124.7416180 107.8166040  79.9759440 125.8171390 107.9745370
  76.9036840 142.6397530 119.9014060  76.8295540 143.5432670 120.2086430
  76.0015680 142.3209430 119.8736130  77.4522170 141.8056040 107.5240420
  78.3472960 142.1441010 107.5459180  77.4839800 141.0835450 106.8964700
  71.0918330 137.1783090 105.7527420  71.5293200 137.7212760 106.4085000
  71.5766060 136.3530040 105.7623760  68.3064130 139.9672120 113.2047680
  68.6367140 139.0993180 112.9726320  68.7355130 140.1730640 114.0352640
  72.9026050 138.2981130 110.8649650  72.6021590 138.1746100 111.7653560
  72.7963540 137.4389720 110.4565380  68.7954340 140.8342710 115.9429310
  68.3585330 141.0143510 116.7753460  69.3632020 141.5917330 115.8011030
  84.4316520 140.3359710 120.2306620  83.8318510 140.3952270 119.4870540
  84.5610420 139.3964690 120.3603470  85.6717970 138.0777530 105.5676330
  84.8410930 138.1454180 106.0383560  85.8489800 138.9681650 105.2643190
  85.1274430 134.8225010 108.0710530  85.8893340 135.3921660 108.1770220
  85.1428800 134.2552210 108.8418840  68.6278770 133.3462940 112.3018190
  67.9727610 133.0774580 111.6577890  69.4656720 133.2367420 111.8520170
  86.1334400 135.6775110 112.9152460  86.5043230 134.8942430 112.5088430
  86.7736330 136.3664210 112.7369760  83.1168160 137.0611690 118.3282780
  82.3028000 137.4908850 118.5908570  83.5242360 137.6730100 117.7151830
  85.1793600 135.1159380 105.2283050  85.4542440 136.0238260 105.1002270
  84.9904340 135.0521910 106.1645040  81.5769210 128.1404230 106.5236680
  81.9954090 127.9535210 105.6833340  81.2705270 127.2883280 106.8339610
  85.0758940 133.0528370 110.2212480  84.7002540 132.2856300 109.7893770
  84.3462060 133.4351070 110.7087410  69.6654700 133.7315510 116.8421530
  70.0327740 133.6442910 117.7217550  69.0965520 132.9682060 116.7428390
  84.4658560 132.1999890 119.8552000  84.2344650 131.9712640 118.9549950
  84.7263110 133.1199440 119.8096890  69.2170700 130.6424600 120.7479950
  68.3226750 130.6091360 121.0873660  69.7568250 130.8411390 121.5131200
  82.9046630 127.4256320 122.6331700  83.7816810 127.4339720 123.0165700
  82.9167470 126.6887160 122.0224050  67.8416850 130.5561870 108.2443520
  66.9380930 130.8192070 108.0695180  68.3257470 130.8273040 107.4643480
  84.5299620 131.3625730 117.0439270  83.5802330 131.3289270 117.1584260
  84.7112630 132.2725840 116.8089040  70.0318220 125.6666740 105.1940550
  70.7546350 126.2075680 105.5121770  70.3042740 125.3930160 104.3182090
  69.7210410 124.9172930 115.0963170  70.3686600 124.3670310 114.6558330
  70.1412250 125.1716080 115.9178980  83.6162750 125.1114290 118.4532810
  84.2534970 125.7248430 118.8192000  83.7637640 125.1474950 117.5082040
  86.1587300 127.0028080 105.2355950  87.0836610 126.8709260 105.0274240
  86.1363090 127.0820900 106.1892400  86.2325790 127.7738740 107.8612660
  85.4377290 127.7083860 108.3905570  86.4369070 128.7089380 107.8498010
  83.1744210 141.8130290 111.8551050  83.7703280 141.4914860 111.1785470
  83.4322360 141.3402110 112.6464320  69.4742410 125.0728600 117.8388490
  69.1257230 125.5292420 118.6046670  69.1430110 124.1785730 117.9210920
  71.0806780 138.2448200 122.0041680  71.0376410 137.8741110 122.8856140
  71.2117790 139.1825770 122.1443500  74.7812810 139.8007790 117.6051400
  74.5404170 140.0682350 116.7181920  75.7215450 139.9713520 117.6602260
  76.9867230 126.2640480 121.3607910  76.9256120 126.8562310 122.1103320
  77.9267610 126.1566440 121.2158170  79.6241790 125.9210540 121.0000200
  80.2382200 126.2389830 120.3381280  80.1691350 125.4359130 121.6196060
  86.0416970 141.8202170 118.4062040  85.5475250 142.2171040 117.6889170
  85.4330260 141.1951380 118.7999320  70.1463050 124.6004800 121.1139260
  70.6946040 124.4192850 120.3505370  70.2118360 123.8098910 121.6495570
  70.9194810 141.1910450 119.1239460  70.3255130 141.0595150 119.8629500
  70.9118650 140.3548590 118.6581560  80.3649830 124.4842680 117.3269490
  79.4909670 124.8177790 117.1242420  80.2560580 124.0115860 118.1521360
  81.2721810 126.6913550 118.7111210  80.9435170 125.8765310 118.3312940
  82.2204110 126.6483360 118.5876900  83.7256420 142.4625590 115.6848780
  83.2659390 143.2141400 115.3106800  83.0968880 141.7432060 115.6263580
  70.5507040 138.5568830 118.0747500  69.8241100 137.9374120 118.0073450
  70.6116190 138.9509440 117.2045580  74.1552140 140.7713830 114.8596910
  74.6717160 140.1601190 114.3345170  74.8049520 141.2742610 115.3507920
  76.8947640 141.6622320 115.6865890  77.1825450 141.4076620 114.8098900
  77.4070860 141.1099680 116.2771460  78.1124650 125.4012520 116.2662400
  77.3296440 125.8758020 116.5459160  77.8187580 124.4967350 116.1575580
  68.8337040 141.8743220 111.2844260  68.6659080 141.2413900 111.9826150
  67.9671550 142.0802620 110.9338450  75.9978870 127.8199270 111.7778430
  75.1853380 127.4456160 111.4374310  76.5020510 127.0644350 112.0799620
  83.6438450 124.8863280 108.2901780  83.8389080 125.7846730 108.5569210
  82.8568320 124.6550360 108.7834730  70.4399740 140.5676450 108.7294400
  69.9147360 140.9484480 108.0256360  70.3644320 141.1927220 109.4504110
  76.9620000 142.5838420 123.0534090  77.8887310 142.3482690 123.0970050
  76.9470430 143.4110420 122.5720120  85.1965060 142.1263990 110.0508340
  85.3717250 141.4401730 109.4069260  84.4986630 142.6511040 109.6585010
  74.1483610 125.2483170 122.8175970  73.8667880 125.7516770 122.0536790
  74.5303310 124.4504920 122.4518100  73.0392710 142.5158830 107.6043650
  73.7711530 142.2318110 107.0567540  73.2986380 142.2772110 108.4943030
  72.2007500 138.6323560 107.6089980  71.5716380 139.1008660 108.1575810
  72.3155330 137.7872780 108.0436170  80.7499070 124.6636750 123.3956440
  80.6364520 124.9831360 124.2907960  81.5668810 125.0649260 123.0993720
  83.5297560 141.8108280 122.8775130  84.3222880 141.3157510 122.6701090
  83.8230710 142.4898420 123.4850740  71.8041090 134.7728050  96.5176210
  70.9725970 134.5176760  96.9172720  72.4122070 134.8438820  97.2534130
  81.8082690 138.8668430  94.4199580  81.3464220 138.0955670  94.7486750
  82.6208240 138.8934500  94.9252030  71.7842350 138.8068140  96.7134230
  72.0870390 137.9165880  96.5344450  72.5285940 139.3638360  96.4856480
  68.1766050 132.3335590  96.1858300  68.7482160 131.5657790  96.1861940
  68.1767590 132.6324350  95.2764910  78.0346000 141.1526440  94.0403570
  77.4157440 141.6083940  93.4698010  78.8897780 141.3077900  93.6393270
  77.2284250 137.1365430  95.6470610  77.1592530 136.1955370  95.4859740
  77.9904110 137.2266840  96.2193180  69.4190920 127.7419950  97.9727230
  69.2393760 126.8445700  98.2529990  69.0171000 128.2891820  98.6474180
  82.0413540 127.4386250  92.8067880  82.8623160 126.9482820  92.8493360
  82.0747620 128.0283910  93.5599720  70.0377590 130.2380450  96.5809570
  70.7187700 130.5018820  97.1996970  69.7225640 129.3981320  96.9147580
  74.2302160 131.2847810  95.6682160  74.7380380 131.7828780  96.3087180
  74.7615400 130.5083010  95.4921520  86.3313090 129.4553000  99.3711510
  85.6265260 129.8434710  98.8526620  86.5971010 130.1503290  99.9732440
  72.5138260 125.9246370  99.9345580  72.5156700 126.4418760  99.1291480
  71.6842570 125.4476550  99.9115510  73.7641110 135.5641550  98.1119080
  73.4310490 136.1910470  98.7540150  73.9407790 136.0903430  97.3320750
  72.1953590 127.6356330  97.9416030  72.5370400 128.4798380  97.6469900
  71.2569400 127.7840070  98.0581370  72.9760210 137.5322350  99.9268260
  73.5934210 138.2073430  99.6452710  72.1153330 137.9410330  99.8355760
  68.2692550 136.7222210  88.8075110  67.8920530 137.2109310  88.0760010
  68.5265620 137.3947490  89.4381640  83.8937800 138.9961760  97.8422900
  83.2101320 139.6660870  97.8339570  84.4332090 139.1942410  97.0767760
  75.8781480 125.1238600  94.2660620  76.1856460 124.5685490  93.5496120
  74.9482180 125.2583060  94.0833610  81.4296540 140.8405890  96.5568080
  81.4423700 140.4368180  95.6890340  80.8771760 141.6153180  96.4529510
  82.7241960 137.5622110  91.6458250  82.6138290 136.6196440  91.7707670
  82.7210210 137.9237750  92.5321010  78.2662240 133.1887430  91.0020740
  77.3391520 133.1224810  91.2309210  78.4187060 134.1267560  90.8875980
  78.2531320 129.4604430  87.9987900  77.3134990 129.6218390  88.0840360
  78.5714580 130.1790110  87.4523890  84.7744080 134.1422950  97.9766930
  83.9462710 134.2116040  97.5017060  85.3694560 134.7277260  97.5082760
  82.2959530 134.7507730  91.5055990  81.6771950 134.4127280  90.8582290
  82.2783980 134.1067490  92.2135180  74.3400580 137.4019730  95.9479680
  74.0428870 136.7965200  95.2687460  75.2900400 137.4397040  95.8369040
  72.5847500 130.4895380  97.5639510  73.1362090 130.5990720  96.7892760
  73.0991010 130.8632980  98.2794740  82.4286190 140.9751600  99.6102780
  81.9516750 141.7823790  99.4175390  81.7447980 140.3229930  99.7628990
  73.4319010 137.1401420 102.5987480  72.5347540 137.3641390 102.8460880
  73.4571880 137.2636360 101.6498880  80.4724230 133.9894540  88.5128740
  80.9117510 133.1516970  88.3666560  81.1852650 134.6223940  88.5992880
  72.2590230 134.0114740 101.1744850  72.1198000 134.8837540 101.5432250
  71.3771590 133.6687550 101.0292790  74.0570580 139.9536440 103.3830000
  74.0286010 140.3579390 102.5158430  73.8935550 139.0246800 103.2201600
  84.0541370 125.2437350  86.8269780  83.7414030 125.3364180  87.7268850
  84.8153840 125.8218380  86.7767210  86.0085400 140.7363540 104.6794170
  86.4845120 141.2146430 105.3583250  86.6292560 140.6681030 103.9539670
  68.2108880 135.7812290  97.0915760  68.2889300 135.9161060  96.1471480
  68.8250560 135.0728180  97.2843880  69.4556510 137.4812480  93.5021940
  69.0484590 137.6227070  92.6475540  70.3469520 137.1972640  93.2993150
  85.4118650 137.9276390 101.8394180  85.5381710 137.6888270 100.9211360
  85.4540030 137.0960930 102.3116260  79.2735390 141.6304390 100.4088990
  79.7880060 141.5412400 101.2111420  78.4304470 141.9764090 100.7016900
  81.2489790 141.9159730  89.8372990  81.0890930 141.6262670  90.7354820
  81.0836500 141.1399860  89.3018220  73.7278170 141.6958260  91.6144610
  73.5520650 140.7793800  91.4012410  72.8733910 142.0545550  91.8542410
  80.5165850 141.0510000  92.4719480  80.9722800 140.2699380  92.7858100
  80.8558370 141.7616820  93.0160660  85.2642660 129.9808850 102.8043920
  84.6486930 130.4888520 102.2759380  84.9439080 129.0807180 102.7469860
  68.2668400 136.8226460  99.6310220  68.4299440 136.3531820  98.8129590
  68.7320850 136.3150020 100.2959060  73.0387170 125.9532220  94.6670790
  72.5955320 126.7341760  94.3355310  73.5972160 126.2762110  95.3741730
  77.3256980 128.8200740 100.2706110  76.8636350 129.0283760 101.0826050
  76.9235090 128.0060090  99.9676780  79.4211200 131.5411440 103.5001560
  79.7464610 130.7075190 103.1603790  80.2091530 132.0639960 103.6479890
  76.1545990 125.5742920  89.5476620  75.5300170 125.5702790  90.2729930
  76.0676110 124.7073880  89.1512590  75.0763070 126.4979550  96.5260390
  75.3735400 127.4042380  96.4452410  75.6248630 126.0098330  95.9119960
  72.8301390 131.0765790  92.3952040  72.6042310 130.8602960  93.2998660
  72.0493920 131.5094250  92.0498010  80.0599150 131.0829160  90.9942690
  79.4608040 131.8064960  90.8106310  80.6078760 131.0205940  90.2119140
  75.2700600 131.9751370 103.0612310  75.1744200 131.0346100 102.9112710
  76.1132580 132.1966440 102.6660380  70.4011140 128.3865040 101.2146090
  70.0074530 129.2340250 101.4218870  69.7129540 127.7491410 101.4054730
  67.7028190 126.3093500  95.2476170  67.4141240 126.8796360  95.9601150
  68.4473950 125.8297950  95.6107400  75.6896550 128.9852650  95.5249240
  75.6932610 128.5442600  94.6753780  76.5847670 129.3069980  95.6321060
  71.5398930 128.8679140  94.4843450  71.1998980 129.3454370  95.2410500
  70.7776250 128.4144260  94.1244550  75.7516700 129.9864730  88.5156000
  75.8729520 129.9451210  89.4641820  75.3665210 130.8488880  88.3602730
  83.1415820 125.1764310 102.3706070  83.4661590 124.4453970 102.8964050
  83.1772330 124.8577950 101.4687060  69.8407380 136.1977890 101.7906030
  69.4562170 135.5571560 102.3888990  70.1519570 136.9014010 102.3600760
  75.9904520 133.0454430  97.2714650  76.3574650 132.5713000  98.0175990
  75.8009580 133.9196000  97.6122990  73.7803890 132.0863070  99.5898860
  73.4760960 132.9655050  99.8149220  74.7350350 132.1462860  99.6256300
  83.0673660 135.2889420  95.9792100  83.7872780 135.7844710  95.5888210
  82.8655480 134.6107310  95.3345970  78.5283600 126.6827380  90.1221490
  77.7148210 126.1840550  90.0466800  78.3345550 127.5225630  89.7057840
  78.4492460 135.3598480 101.8661100  78.3829770 134.4394150 101.6118690
  77.8197600 135.4573920 102.5805740  81.2431990 131.0547030  88.4183650
  82.1311610 131.3664260  88.2434990  81.2137080 130.1819280  88.0264230
  69.8367620 132.9265810 100.7370220  69.4782560 133.5919660 101.3243560
  69.5422180 132.0949360 101.1082840  73.0380740 133.3850050 103.6209770
  72.7380880 133.5307230 102.7237590  73.8091980 132.8255340 103.5283160
  78.3809190 138.1819050 101.6164900  78.3953730 137.2500010 101.3983810
  77.6734290 138.2678810 102.2554670  83.5146260 132.3658870  87.8863510
  83.4309980 132.7973090  87.0359950  84.2340450 132.8257220  88.3190330
  84.5920400 134.8226390 100.9633480  83.8668590 135.4155170 100.7662870
  85.1195860 134.8149930 100.1646850  84.5433510 139.2201130  90.6145640
  83.9009670 138.5656750  90.8889360  84.1564170 139.6256220  89.8386310
  80.1219990 136.5486560  94.4617330  80.4743810 135.9514690  93.8018700
  79.2382320 136.2230790  94.6325580  77.8143090 139.8236620  98.7105400
  78.4585310 140.0296000  99.3878820  78.1772530 139.0625020  98.2576250
  71.4122260 124.6567930  91.9535620  71.2836890 124.6485830  92.9020540
  70.5884280 124.9951020  91.6026630  79.0875170 137.8268970  97.4282850
  79.7297400 137.1262130  97.5415020  79.6124520 138.6067410  97.2479740
  80.8612790 138.6263870 100.6318910  81.1969030 139.2130560 101.3096830
  79.9413130 138.4956580 100.8616700  68.7146920 142.1384450  87.9266450
  69.0744560 142.7373790  87.2723720  68.5739260 142.6844340  88.7001480
  68.4116190 126.4159050 101.4142320  67.6974710 126.6155970 102.0194930
  68.8311230 125.6398620 101.7857120  68.6988780 140.4039310 102.4008850
  68.8079900 139.4634050 102.2604240  68.0469340 140.6694060 101.7522580
  76.6901370 138.6755200 103.8006970  76.3698240 137.9564440 104.3452660
  76.0159730 139.3510270 103.8743030  74.7315540 139.5215650  88.7440120
  74.7225640 140.2545340  88.1284630  73.8113900 139.2747230  88.8367080
  83.2717000 127.8638300  89.9731330  82.6430160 127.9683970  89.2589560
  82.7768920 128.0835080  90.7625210  77.7175140 139.5843890  87.4065310
  77.8187120 139.3807880  86.4767290  76.8176880 139.3302170  87.6113090
  75.2401030 130.1424250  91.3889210  74.5317180 130.6110590  91.8302820
  75.5245510 129.4846260  92.0234400  76.8656960 131.5620950  99.3881740
  77.3642210 132.0366770 100.0533590  77.0079910 130.6384470  99.5951770
  79.2716460 126.8674910  92.8285000  79.1484240 126.8861040  91.8794510
  80.2201020 126.9153850  92.9483400  76.3593250 142.1030210  92.1012980
  76.6134750 142.0651600  91.1792350  75.4105730 141.9763540  92.0941230
  73.4436050 128.4509330  88.7639920  74.2926580 128.8879480  88.6980110
  73.0767320 128.7629590  89.5911980  84.0723820 127.7788910 100.2310130
  83.5697420 128.5194310 100.5703940  84.8880480 128.1672910  99.9146920
  84.3671410 140.1930940  95.3525750  84.4918830 141.0162110  95.8249560
  85.2336970 139.9821670  95.0049900  71.8388940 142.2862150  95.0242880
  72.5751420 141.7377610  95.2951450  72.2229860 143.1518160  94.8848870
  68.7234420 138.3535720  90.8984390  67.7974200 138.5956860  90.8889800
  69.1890850 139.1809980  90.7769140  70.8447220 141.4708220 104.2128460
  71.6459950 141.7920270 104.6263860  70.3299040 141.1103800 104.9348370
  74.9491250 141.4592460  86.8468450  75.7419860 141.7481290  86.3950240
  74.4295600 141.0284630  86.1680930  79.6811850 137.5788090 104.1603870
  79.0750010 137.6019690 103.4199620  79.3765960 136.8471130 104.6971120
  81.1112220 141.3068380 102.7713280  82.0633970 141.2226400 102.7213520
  80.9640440 141.9710090 103.4447070  68.5645030 133.9581680 103.1564510
  69.0684050 133.3788960 103.7280740  67.8252450 134.2421910 103.6940880
  75.6182970 135.3652670 102.6900030  74.8528640 135.9337670 102.6054700
  75.7998930 135.0728880 101.7968260  78.7071380 135.7415900  87.3152790
  78.1581480 136.1885200  87.9595530  79.3290640 135.2365150  87.8390460
  82.7606320 137.0958000 103.2475050  83.5015790 137.4333760 102.7442510
  81.9979000 137.2650060 102.6944820  70.5968110 132.1011270 104.0514580
  70.6373450 131.8025140 104.9599810  71.4513610 132.5018880 103.8922100
  72.5373920 130.6803370 102.0189070  72.0070380 130.1894320 101.3912410
  73.2061990 131.1087570 101.4847000  81.4351980 135.1472830 101.7830260
  81.8493000 135.3017910 102.6320680  80.5002980 135.2728050 101.9456040
  81.9074150 132.4868990 103.7869410  82.4894920 131.7321310 103.6989890
  82.0835920 133.0176430 103.0100890  73.0246220 127.6465740 102.0986360
  72.9303090 127.0286490 101.3737230  72.4443610 128.3732030 101.8716270
  75.7907660 126.2038980  99.1313750  75.3424960 126.2263240  98.2859300
  75.1572860 125.8058000  99.7284050  76.1967210 135.0993310  99.7526190
  76.6155320 135.9426040  99.5802430  75.2775840 135.2365350  99.5232970
  78.5331110 132.8309490 101.1364030  78.6527320 132.2350630 101.8758870
  79.3925110 132.8679180 100.7165330  73.2705400 130.7740050  86.1576250
  73.0694460 129.9107410  86.5189590  73.0997450 130.6873410  85.2197850
  74.0474630 141.4046320 100.8683920  73.5095720 142.1292380 100.5492620
  74.3008590 140.9276660 100.0781260  75.2999880 129.3730840 102.3939850
  75.8899570 129.0646690 103.0817670  74.4820120 128.9010590 102.5499750
  80.1193310 128.9896650 102.6272870  79.4308830 128.3278190 102.5622860
  80.8399330 128.5434920 103.0721330  80.7493710 125.5848280  88.6863130
  81.0296000 124.7416180  89.0422550  79.9759440 125.8171390  89.2001880
  72.0688200 127.8740670  86.1454130  72.3714100 127.8808100  85.2373280
  72.8082790 127.5238530  86.6421790  76.9036840 142.6397530 101.1270570
  76.8295540 143.5432670 101.4342940  76.0015680 142.3209430 101.0992640
  75.2873130 126.8175290  87.1310330  74.9395130 126.1399280  86.5512780
  75.4885900 126.3564800  87.9453720  77.4522170 141.8056040  88.7496930
  78.3472960 142.1441010  88.7715690  77.4839800 141.0835450  88.1221210
  71.0918330 137.1783090  86.9783930  71.5293200 137.7212760  87.6341510
  71.5766060 136.3530040  86.9880270  68.3064130 139.9672120  94.4304190
  68.6367140 139.0993180  94.1982830  68.7355130 140.1730640  95.2609150
  68.7954340 140.8342710  97.1685820  68.3585330 141.0143510  98.0009970
  69.3632020 141.5917330  97.0267540  84.4316520 140.3359710 101.4563130
  83.8318510 140.3952270 100.7127050  84.5610420 139.3964690 101.5859980
  85.1274430 134.8225010  89.2967040  85.8893340 135.3921660  89.4026730
  85.1428800 134.2552210  90.0675350  68.6278770 133.3462940  93.5274700
  67.9727610 133.0774580  92.8834400  69.4656720 133.2367420  93.0776680
  83.1168160 137.0611690  99.5539290  82.3028000 137.4908850  99.8165080
  83.5242360 137.6730100  98.9408340  81.5769210 128.1404230  87.7493190
  81.9954090 127.9535210  86.9089850  81.2705270 127.2883280  88.0596120
  69.6654700 133.7315510  98.0678040  70.0327740 133.6442910  98.9474060
  69.0965520 132.9682060  97.9684900  69.2170700 130.6424600 101.9736460
  68.3226750 130.6091360 102.3130170  69.7568250 130.8411390 102.7387710
  82.9046630 127.4256320 103.8588210  83.7816810 127.4339720 104.2422210
  82.9167470 126.6887160 103.2480560  70.0318220 125.6666740  86.4197060
  70.7546350 126.2075680  86.7378280  70.3042740 125.3930160  85.5438600
  69.7210410 124.9172930  96.3219680  70.3686600 124.3670310  95.8814840
  70.1412250 125.1716080  97.1435490  83.6162750 125.1114290  99.6789320
  84.2534970 125.7248430 100.0448510  83.7637640 125.1474950  98.7338550
  86.1587300 127.0028080  86.4612460  87.0836610 126.8709260  86.2530750
  86.1363090 127.0820900  87.4148910  83.1744210 141.8130290  93.0807560
  83.7703280 141.4914860  92.4041980  83.4322360 141.3402110  93.8720830
  69.4742410 125.0728600  99.0645000  69.1257230 125.5292420  99.8303180
  69.1430110 124.1785730  99.1467430  71.0806780 138.2448200 103.2298190
  71.0376410 137.8741110 104.1112650  71.2117790 139.1825770 103.3700010
  74.7812810 139.8007790  98.8307910  74.5404170 140.0682350  97.9438430
  75.7215450 139.9713520  98.8858770  76.9867230 126.2640480 102.5864420
  76.9256120 126.8562310 103.3359830  77.9267610 126.1566440 102.4414680
  79.6241790 125.9210540 102.2256710  80.2382200 126.2389830 101.5637790
  80.1691350 125.4359130 102.8452570  86.0416970 141.8202170  99.6318550
  85.5475250 142.2171040  98.9145680  85.4330260 141.1951380 100.0255830
  70.1463050 124.6004800 102.3395770  70.6946040 124.4192850 101.5761880
  70.2118360 123.8098910 102.8752080  70.9194810 141.1910450 100.3495970
  70.3255130 141.0595150 101.0886010  70.9118650 140.3548590  99.8838070
  80.3649830 124.4842680  98.5526000  79.4909670 124.8177790  98.3498930
  80.2560580 124.0115860  99.3777870  83.7256420 142.4625590  96.9105290
  83.2659390 143.2141400  96.5363310  83.0968880 141.7432060  96.8520090
  70.5507040 138.5568830  99.3004010  69.8241100 137.9374120  99.2329960
  70.6116190 138.9509440  98.4302090  74.1552140 140.7713830  96.0853420
  74.6717160 140.1601190  95.5601680  74.8049520 141.2742610  96.5764430
  76.8947640 141.6622320  96.9122400  77.1825450 141.4076620  96.0355410
  77.4070860 141.1099680  97.5027970  78.1124650 125.4012520  97.4918910
  77.3296440 125.8758020  97.7715670  77.8187580 124.4967350  97.3832090
  82.6645720 126.1035620  95.5368000  83.1053810 126.0480720  94.6889600
  82.3953310 127.0193630  95.6078180  84.5284290 125.7350860  93.5476820
  84.4672690 124.7912080  93.4007840  85.3076320 125.8430950  94.0930280
  68.8337040 141.8743220  92.5100770  68.6659080 141.2413900  93.2082660
  67.9671550 142.0802620  92.1594960  75.9978870 127.8199270  93.0034940
  75.1853380 127.4456160  92.6630820  76.5020510 127.0644350  93.3056130
  80.5003850 124.4841720  94.2418010  81.1033220 125.0561930  94.7166530
  79.7596840 125.0481160  94.0191910  83.6438450 124.8863280  89.5158290
  83.8389080 125.7846730  89.7825720  82.8568320 124.6550360  90.0091240
  70.4399740 140.5676450  89.9550910  69.9147360 140.9484480  89.2512870
  70.3644320 141.1927220  90.6760620  71.8290210 126.2324050  88.5534600
  72.3582970 125.4453850  88.4242550  72.4618530 126.9115240  88.7870130
  74.0228050 125.9699190  91.6079990  73.3930790 125.2686500  91.7750120
  73.4833190 126.7303320  91.3913150  76.9620000 142.5838420 104.2790600
  77.8887310 142.3482690 104.3226560  76.9470430 143.4110420 103.7976630
  85.1965060 142.1263990  91.2764850  85.3717250 141.4401730  90.6325770
  84.4986630 142.6511040  90.8841520  73.0392710 142.5158830  88.8300160
  73.7711530 142.2318110  88.2824050  73.2986380 142.2772110  89.7199540
  80.7499070 124.6636750 104.6212950  80.6364520 124.9831360 105.5164470
  81.5668810 125.0649260 104.3250230  83.5297560 141.8108280 104.1031640
  84.3222880 141.3157510 103.8957600  83.8230710 142.4898420 104.7107250
  81.8082690 138.8668430  75.6456090  81.3464220 138.0955670  75.9743260
  82.6208240 138.8934500  76.1508540  69.4190920 127.7419950  79.1983740
  69.2393760 126.8445700  79.4786500  69.0171000 128.2891820  79.8730690
  82.0413540 127.4386250  74.0324390  82.8623160 126.9482820  74.0749870
  82.0747620 128.0283910  74.7856230  86.3313090 129.4553000  80.5968020
  85.6265260 129.8434710  80.0783130  86.5971010 130.1503290  81.1988950
  72.5138260 125.9246370  81.1602090  72.5156700 126.4418760  80.3547990
  71.6842570 125.4476550  81.1372020  82.2775020 129.3786630  76.8051930
  81.5730590 129.6671520  77.3855040  82.6387180 130.1886740  76.4451490
  72.1953590 127.6356330  79.1672540  72.5370400 128.4798380  78.8726410
  71.2569400 127.7840070  79.2837880  68.2692550 136.7222210  70.0331620
  67.8920530 137.2109310  69.3016520  68.5265620 137.3947490  70.6638150
  85.3461940 128.8241420  77.1961140  84.3986850 128.8580400  77.3276570
  85.6711930 129.6380370  77.5810500  75.8781480 125.1238600  75.4917130
  76.1856460 124.5685490  74.7752630  74.9482180 125.2583060  75.3090120
  81.4296540 140.8405890  77.7824590  81.4423700 140.4368180  76.9146850
  80.8771760 141.6153180  77.6786020  82.7241960 137.5622110  72.8714760
  82.6138290 136.6196440  72.9964180  82.7210210 137.9237750  73.7577520
  80.8281980 135.7435730  79.1107200  81.2450770 135.5295840  78.2760660
  81.5521800 136.0008520  79.6815820  78.2531320 129.4604430  69.2244410
  77.3134990 129.6218390  69.3096870  78.5714580 130.1790110  68.6780400
  84.7744080 134.1422950  79.2023440  83.9462710 134.2116040  78.7273570
  85.3694560 134.7277260  78.7339270  81.7386090 130.9292270  80.1478310
  81.3257270 131.7545980  80.4018300  81.0062040 130.3437310  79.9554670
  72.2590230 134.0114740  82.4001360  72.1198000 134.8837540  82.7688760
  71.3771590 133.6687550  82.2549300  84.0541370 125.2437350  68.0526290
  83.7414030 125.3364180  68.9525360  84.8153840 125.8218380  68.0023720
  79.2735390 141.6304390  81.6345500  79.7880060 141.5412400  82.4367930
  78.4304470 141.9764090  81.9273410  81.2489790 141.9159730  71.0629500
  81.0890930 141.6262670  71.9611330  81.0836500 141.1399860  70.5274730
  80.9515920 139.4247290  69.6227500  80.2581080 139.4224580  68.9629780
  81.6938780 139.0006610  69.1921670  85.2642660 129.9808850  84.0300430
  84.6486930 130.4888520  83.5015890  84.9439080 129.0807180  83.9726370
  82.3261490 130.0409690  82.6259280  81.4755080 129.7415440  82.9468350
  82.1663280 130.2851700  81.7143100  79.4211200 131.5411440  84.7258070
  79.7464610 130.7075190  84.3860300  80.2091530 132.0639960  84.8736400
  76.1545990 125.5742920  70.7733130  75.5300170 125.5702790  71.4986440
  76.0676110 124.7073880  70.3769100  75.0763070 126.4979550  77.7516900
  75.3735400 127.4042380  77.6708920  75.6248630 126.0098330  77.1376470
  78.6664020 129.7192700  74.2502480  79.0593590 130.0364900  73.4371170
  79.0280870 128.8404580  74.3647000  70.4011140 128.3865040  82.4402600
  70.0074530 129.2340250  82.6475380  69.7129540 127.7491410  82.6311240
  76.9756190 128.4700010  85.5099340  76.2854510 128.2772210  86.1445430
  77.7188490 128.7534650  86.0423640  67.7028190 126.3093500  76.4732680
  67.4141240 126.8796360  77.1857660  68.4473950 125.8297950  76.8363910
  67.8898420 130.2513620  67.6835400  67.8073090 131.1944380  67.8250390
  67.5381480 130.1088530  66.8047750  75.7516700 129.9864730  69.7412510
  75.8729520 129.9451210  70.6898330  75.3665210 130.8488880  69.5859240
  79.7145070 127.7632130  77.7576200  79.7317810 128.2140780  78.6018050
  79.4660650 126.8637770  77.9709640  83.1415820 125.1764310  83.5962580
  83.4661590 124.4453970  84.1220560  83.1772330 124.8577950  82.6943570
  69.8407380 136.1977890  83.0162540  69.4562170 135.5571560  83.6145500
  70.1519570 136.9014010  83.5857270  83.0673660 135.2889420  77.2048610
  83.7872780 135.7844710  76.8144720  82.8655480 134.6107310  76.5602480
  78.5283600 126.6827380  71.3478000  77.7148210 126.1840550  71.2723310
  78.3345550 127.5225630  70.9314350  81.2431990 131.0547030  69.6440160
  82.1311610 131.3664260  69.4691500  81.2137080 130.1819280  69.2520740
  69.8367620 132.9265810  81.9626730  69.4782560 133.5919660  82.5500070
  69.5422180 132.0949360  82.3339350  73.0380740 133.3850050  84.8466280
  72.7380880 133.5307230  83.9494100  73.8091980 132.8255340  84.7539670
  84.5920400 134.8226390  82.1889990  83.8668590 135.4155170  81.9919380
  85.1195860 134.8149930  81.3903360  68.3475670 132.9257070  68.5861330
  69.2170520 133.2081870  68.8697250  67.8565990 133.7392940  68.4710140
  71.4122260 124.6567930  73.1792130  71.2836890 124.6485830  74.1277050
  70.5884280 124.9951020  72.8283140  68.7146920 142.1384450  69.1522960
  69.0744560 142.7373790  68.4980230  68.5739260 142.6844340  69.9257990
  68.4116190 126.4159050  82.6398830  67.6974710 126.6155970  83.2451440
  68.8311230 125.6398620  83.0113630  68.6988780 140.4039310  83.6265360
  68.8079900 139.4634050  83.4860750  68.0469340 140.6694060  82.9779090
  74.7315540 139.5215650  69.9696630  74.7225640 140.2545340  69.3541140
  73.8113900 139.2747230  70.0623590  83.2717000 127.8638300  71.1987840
  82.6430160 127.9683970  70.4846070  82.7768920 128.0835080  71.9881720
  77.7175140 139.5843890  68.6321820  77.8187120 139.3807880  67.7023800
  76.8176880 139.3302170  68.8369600  79.2716460 126.8674910  74.0541510
  79.1484240 126.8861040  73.1051020  80.2201020 126.9153850  74.1739910
  84.0723820 127.7788910  81.4566640  83.5697420 128.5194310  81.7960450
  84.8880480 128.1672910  81.1403430  82.3645830 133.0222090  74.9028000
  81.4235970 133.0372320  75.0775690  82.6789900 132.2358050  75.3488300
  72.3427470 134.7041690  68.4631960  73.1090740 134.5923050  69.0257390
  72.4202160 134.0079660  67.8108730  84.3671410 140.1930940  76.5782260
  84.4918830 141.0162110  77.0506070  85.2336970 139.9821670  76.2306410
  68.7234420 138.3535720  72.1240900  67.7974200 138.5956860  72.1146310
  69.1890850 139.1809980  72.0025650  70.8447220 141.4708220  85.4384970
  71.6459950 141.7920270  85.8520370  70.3299040 141.1103800  86.1604880
  74.9491250 141.4592460  68.0724960  75.7419860 141.7481290  67.6206750
  74.4295600 141.0284630  67.3937440  68.5645030 133.9581680  84.3821020
  69.0684050 133.3788960  84.9537250  67.8252450 134.2421910  84.9197390
  70.5968110 132.1011270  85.2771090  70.6373450 131.8025140  86.1856320
  71.4513610 132.5018880  85.1178610  81.4351980 135.1472830  83.0086770
  81.8493000 135.3017910  83.8577190  80.5002980 135.2728050  83.1712550
  81.9074150 132.4868990  85.0125920  82.4894920 131.7321310  84.9246400
  82.0835920 133.0176430  84.2357400  73.0246220 127.6465740  83.3242870
  72.9303090 127.0286490  82.5993740  72.4443610 128.3732030  83.0972780
  75.7907660 126.2038980  80.3570260  75.3424960 126.2263240  79.5115810
  75.1572860 125.8058000  80.9540560  73.2705400 130.7740050  67.3832760
  73.0694460 129.9107410  67.7446100  73.0997450 130.6873410  66.4454360
  80.1193310 128.9896650  83.8529380  79.4308830 128.3278190  83.7879370
  80.8399330 128.5434920  84.2977840  80.7493710 125.5848280  69.9119640
  81.0296000 124.7416180  70.2679060  79.9759440 125.8171390  70.4258390
  72.0688200 127.8740670  67.3710640  72.3714100 127.8808100  66.4629790
  72.8082790 127.5238530  67.8678300  76.9036840 142.6397530  82.3527080
  76.8295540 143.5432670  82.6599450  76.0015680 142.3209430  82.3249150
  75.2873130 126.8175290  68.3566840  74.9395130 126.1399280  67.7769290
  75.4885900 126.3564800  69.1710230  77.4522170 141.8056040  69.9753440
  78.3472960 142.1441010  69.9972200  77.4839800 141.0835450  69.3477720
  71.0918330 137.1783090  68.2040440  71.5293200 137.7212760  68.8598020
  71.5766060 136.3530040  68.2136780  81.5769210 128.1404230  68.9749700
  81.9954090 127.9535210  68.1346360  81.2705270 127.2883280  69.2852630
  84.4658560 132.1999890  82.3065020  84.2344650 131.9712640  81.4062970
  84.7263110 133.1199440  82.2609910  69.2170700 130.6424600  83.1992970
  68.3226750 130.6091360  83.5386680  69.7568250 130.8411390  83.9644220
  82.9046630 127.4256320  85.0844720  83.7816810 127.4339720  85.4678720
  82.9167470 126.6887160  84.4737070  67.8416850 130.5561870  70.6956540
  66.9380930 130.8192070  70.5208200  68.3257470 130.8273040  69.9156500
  84.3509900 131.2785860  75.9732740  84.8747380 130.7848510  75.3422910
  84.9369320 131.4136220  76.7180310  84.5299620 131.3625730  79.4952290
  83.5802330 131.3289270  79.6097280  84.7112630 132.2725840  79.2602060
  70.3844060 129.6127410  68.6050920  71.0935760 129.1910630  68.1198200
  69.6684000 129.6802640  67.9734270  70.0318220 125.6666740  67.6453570
  70.7546350 126.2075680  67.9634790  70.3042740 125.3930160  66.7695110
  83.8409870 130.5359210  71.9125150  84.3368990 130.3030080  72.6974030
  83.6425940 129.6971050  71.4962790  69.7210410 124.9172930  77.5476190
  70.3686600 124.3670310  77.1071350  70.1412250 125.1716080  78.3692000
  85.2697030 129.1720160  74.4462830  85.1596310 129.0176200  75.3845100
  86.0304620 128.6441100  74.2038240  83.6162750 125.1114290  80.9045830
  84.2534970 125.7248430  81.2705020  83.7637640 125.1474950  79.9595060
  86.1587300 127.0028080  67.6868970  87.0836610 126.8709260  67.4787260
  86.1363090 127.0820900  68.6405420  86.2325790 127.7738740  70.3125680
  85.4377290 127.7083860  70.8418590  86.4369070 128.7089380  70.3011030
  83.1744210 141.8130290  74.3064070  83.7703280 141.4914860  73.6298490
  83.4322360 141.3402110  75.0977340  69.4742410 125.0728600  80.2901510
  69.1257230 125.5292420  81.0559690  69.1430110 124.1785730  80.3723940
  76.9867230 126.2640480  83.8120930  76.9256120 126.8562310  84.5616340
  77.9267610 126.1566440  83.6671190  79.6241790 125.9210540  83.4513220
  80.2382200 126.2389830  82.7894300  80.1691350 125.4359130  84.0709080
  86.0416970 141.8202170  80.8575060  85.5475250 142.2171040  80.1402190
  85.4330260 141.1951380  81.2512340  70.1463050 124.6004800  83.5652280
  70.6946040 124.4192850  82.8018390  70.2118360 123.8098910  84.1008590
  70.9194810 141.1910450  81.5752480  70.3255130 141.0595150  82.3142520
  70.9118650 140.3548590  81.1094580  80.3649830 124.4842680  79.7782510
  79.4909670 124.8177790  79.5755440  80.2560580 124.0115860  80.6034380
  81.2721810 126.6913550  81.1624230  80.9435170 125.8765310  80.7825960
  82.2204110 126.6483360  81.0389920  83.7256420 142.4625590  78.1361800
  83.2659390 143.2141400  77.7619820  83.0968880 141.7432060  78.0776600
  78.1124650 125.4012520  78.7175420  77.3296440 125.8758020  78.9972180
  77.8187580 124.4967350  78.6088600  82.6645720 126.1035620  76.7624510
  83.1053810 126.0480720  75.9146110  82.3953310 127.0193630  76.8334690
  84.5284290 125.7350860  74.7733330  84.4672690 124.7912080  74.6264350
  85.3076320 125.8430950  75.3186790  68.8337040 141.8743220  73.7357280
  68.6659080 141.2413900  74.4339170  67.9671550 142.0802620  73.3851470
  69.4565060 125.7060000  71.2389140  70.2144420 125.8188880  70.6653170
  68.9942230 126.5429200  71.1932570  80.5003850 124.4841720  75.4674520
  81.1033220 125.0561930  75.9423040  79.7596840 125.0481160  75.2448420
  83.6438450 124.8863280  70.7414800  83.8389080 125.7846730  71.0082230
  82.8568320 124.6550360  71.2347750  70.4399740 140.5676450  71.1807420
  69.9147360 140.9484480  70.4769380  70.3644320 141.1927220  71.9017130
  71.8290210 126.2324050  69.7791110  72.3582970 125.4453850  69.6499060
  72.4618530 126.9115240  70.0126640  76.9620000 142.5838420  85.5047110
  77.8887310 142.3482690  85.5483070  76.9470430 143.4110420  85.0233140
  85.1965060 142.1263990  72.5021360  85.3717250 141.4401730  71.8582280
  84.4986630 142.6511040  72.1098030  74.1483610 125.2483170  85.2688990
  73.8667880 125.7516770  84.5049810  74.5303310 124.4504920  84.9031120
  73.0392710 142.5158830  70.0556670  73.7711530 142.2318110  69.5080560
  73.2986380 142.2772110  70.9456050  72.2007500 138.6323560  70.0603000
  71.5716380 139.1008660  70.6088830  72.3155330 137.7872780  70.4949190
  80.7499070 124.6636750  85.8469460  80.6364520 124.9831360  86.7420980
  81.5668810 125.0649260  85.5506740  79.6557220 132.6829220  56.2104200
  79.5751270 131.7683830  55.9395910  79.2421640 133.1796290  55.5043910
  77.7875260 134.4608240  58.0913470  77.0117360 133.9808680  58.3812040
  78.4388190 133.7813890  57.9169630  81.8082690 138.8668430  56.8712600
  81.3464220 138.0955670  57.1999770  82.6208240 138.8934500  57.3765050
  71.7842350 138.8068140  59.1647250  72.0870390 137.9165880  58.9857470
  72.5285940 139.3638360  58.9369500  70.2133040 129.7329940  52.7531620
  69.3249740 130.0745910  52.6511500  70.4974230 129.5330260  51.8612450
  78.0346000 141.1526440  56.4916590  77.4157440 141.6083940  55.9211030
  78.8897780 141.3077900  56.0906290  77.2284250 137.1365430  58.0983630
  77.1592530 136.1955370  57.9372760  77.9904110 137.2266840  58.6706200
  78.2589420 129.9435810  58.3252560  78.6354240 129.0707690  58.2126230
  78.1608930 130.2794510  57.4343000  72.3894430 128.3161440  53.7870000
  72.4961180 129.2165170  54.0938760  71.4786790 128.2679410  53.4964650
  82.0413540 127.4386250  55.2580900  82.8623160 126.9482820  55.3006380
  82.0747620 128.0283910  56.0112740  86.3313090 129.4553000  61.8224530
  85.6265260 129.8434710  61.3039640  86.5971010 130.1503290  62.4245460
  78.9009350 136.0365680  53.8848500  78.2826620 136.5015130  53.3211220
  79.4132600 136.7293160  54.3018010  73.7641110 135.5641550  60.5632100
  73.4310490 136.1910470  61.2053170  73.9407790 136.0903430  59.7833770
  82.2775020 129.3786630  58.0308440  81.5730590 129.6671520  58.6111550
  82.6387180 130.1886740  57.6708000  72.9760210 137.5322350  62.3781280
  73.5934210 138.2073430  62.0965730  72.1153330 137.9410330  62.2868780
  68.2692550 136.7222210  51.2588130  67.8920530 137.2109310  50.5273030
  68.5265620 137.3947490  51.8894660  83.8937800 138.9961760  60.2935920
  83.2101320 139.6660870  60.2852590  84.4332090 139.1942410  59.5280780
  85.3461940 128.8241420  58.4217650  84.3986850 128.8580400  58.5533080
  85.6711930 129.6380370  58.8067010  81.4296540 140.8405890  59.0081100
  81.4423700 140.4368180  58.1403360  80.8771760 141.6153180  58.9042530
  82.7241960 137.5622110  54.0971270  82.6138290 136.6196440  54.2220690
  82.7210210 137.9237750  54.9834030  80.8281980 135.7435730  60.3363710
  81.2450770 135.5295840  59.5017170  81.5521800 136.0008520  60.9072330
  78.2662240 133.1887430  53.4533760  77.3391520 133.1224810  53.6822230
  78.4187060 134.1267560  53.3389000  78.2531320 129.4604430  50.4500920
  77.3134990 129.6218390  50.5353380  78.5714580 130.1790110  49.9036910
  84.7744080 134.1422950  60.4279950  83.9462710 134.2116040  59.9530080
  85.3694560 134.7277260  59.9595780  82.2959530 134.7507730  53.9569010
  81.6771950 134.4127280  53.3095310  82.2783980 134.1067490  54.6648200
  81.7386090 130.9292270  61.3734820  81.3257270 131.7545980  61.6274810
  81.0062040 130.3437310  61.1811180  74.3400580 137.4019730  58.3992700
  74.0428870 136.7965200  57.7200480  75.2900400 137.4397040  58.2882060
  82.4286190 140.9751600  62.0615800  81.9516750 141.7823790  61.8688410
  81.7447980 140.3229930  62.2142010  73.4319010 137.1401420  65.0500500
  72.5347540 137.3641390  65.2973900  73.4571880 137.2636360  64.1011900
  80.4724230 133.9894540  50.9641760  80.9117510 133.1516970  50.8179580
  81.1852650 134.6223940  51.0505900  72.2590230 134.0114740  63.6257870
  72.1198000 134.8837540  63.9945270  71.3771590 133.6687550  63.4805810
  78.5819610 138.9290610  54.9323000  79.0215520 139.6714940  54.5178390
  78.5206500 139.1717180  55.8561960  74.0570580 139.9536440  65.8343020
  74.0286010 140.3579390  64.9671450  73.8935550 139.0246800  65.6714620
  84.0541370 125.2437350  49.2782800  83.7414030 125.3364180  50.1781870
  84.8153840 125.8218380  49.2280230  70.5723510 132.6097150  53.7360140
  70.4521110 133.3359240  53.1241410  70.2624400 131.8400060  53.2588050
  68.2108880 135.7812290  59.5428780  68.2889300 135.9161060  58.5984500
  68.8250560 135.0728180  59.7356900  69.4556510 137.4812480  55.9534960
  69.0484590 137.6227070  55.0988560  70.3469520 137.1972640  55.7506170
  79.2735390 141.6304390  62.8602010  79.7880060 141.5412400  63.6624440
  78.4304470 141.9764090  63.1529920  81.2489790 141.9159730  52.2886010
  81.0890930 141.6262670  53.1867840  81.0836500 141.1399860  51.7531240
  73.7278170 141.6958260  54.0657630  73.5520650 140.7793800  53.8525430
  72.8733910 142.0545550  54.3055430  80.9515920 139.4247290  50.8484010
  80.2581080 139.4224580  50.1886290  81.6938780 139.0006610  50.4178180
  80.5165850 141.0510000  54.9232500  80.9722800 140.2699380  55.2371120
  80.8558370 141.7616820  55.4673680  85.2642660 129.9808850  65.2556940
  84.6486930 130.4888520  64.7272400  84.9439080 129.0807180  65.1982880
  68.2668400 136.8226460  62.0823240  68.4299440 136.3531820  61.2642610
  68.7320850 136.3150020  62.7472080  73.0387170 125.9532220  57.1183810
  72.5955320 126.7341760  56.7868330  73.5972160 126.2762110  57.8254750
  77.3256980 128.8200740  62.7219130  76.8636350 129.0283760  63.5339070
  76.9235090 128.0060090  62.4189800  82.3261490 130.0409690  63.8515790
  81.4755080 129.7415440  64.1724860  82.1663280 130.2851700  62.9399610
  79.4211200 131.5411440  65.9514580  79.7464610 130.7075190  65.6116810
  80.2091530 132.0639960  66.0992910  72.8301390 131.0765790  54.8465060
  72.6042310 130.8602960  55.7511680  72.0493920 131.5094250  54.5011030
  80.0599150 131.0829160  53.4455710  79.4608040 131.8064960  53.2619330
  80.6078760 131.0205940  52.6632160  75.2700600 131.9751370  65.5125330
  75.1744200 131.0346100  65.3625730  76.1132580 132.1966440  65.1173400
  78.6664020 129.7192700  55.4758990  79.0593590 130.0364900  54.6627680
  79.0280870 128.8404580  55.5903510  76.9756190 128.4700010  66.7355850
  76.2854510 128.2772210  67.3701940  77.7188490 128.7534650  67.2680150
  67.7028190 126.3093500  57.6989190  67.4141240 126.8796360  58.4114170
  68.4473950 125.8297950  58.0620420  67.8898420 130.2513620  48.9091910
  67.8073090 131.1944380  49.0506900  67.5381480 130.1088530  48.0304260
  79.2519160 132.3098450  59.5709770  78.5200280 132.8185260  59.9199870
  78.8543500 131.4928430  59.2698550  75.6896550 128.9852650  57.9762260
  75.6932610 128.5442600  57.1266800  76.5847670 129.3069980  58.0834080
  83.1415820 125.1764310  64.8219090  83.4661590 124.4453970  65.3477070
  83.1772330 124.8577950  63.9200080  69.8407380 136.1977890  64.2419050
  69.4562170 135.5571560  64.8402010  70.1519570 136.9014010  64.8113780
  72.3085680 136.2924060  52.6378730  71.5347940 135.7521680  52.4777450
  73.0380310 135.7730670  52.2996490  83.0673660 135.2889420  58.4305120
  83.7872780 135.7844710  58.0401230  82.8655480 134.6107310  57.7858990
  78.4492460 135.3598480  64.3174120  78.3829770 134.4394150  64.0631710
  77.8197600 135.4573920  65.0318760  81.2431990 131.0547030  50.8696670
  82.1311610 131.3664260  50.6948010  81.2137080 130.1819280  50.4777250
  72.3523080 135.9604440  56.2757540  72.8701750 135.1572700  56.2214430
  71.9007100 135.8983580  57.1174370  77.2392580 137.2270720  51.5484840
  77.5808280 137.9712950  51.0528160  76.4105290 137.5401840  51.9109670
  69.8367620 132.9265810  63.1883240  69.4782560 133.5919660  63.7756580
  69.5422180 132.0949360  63.5595860  73.0380740 133.3850050  66.0722790
  72.7380880 133.5307230  65.1750610  73.8091980 132.8255340  65.9796180
  78.3809190 138.1819050  64.0677920  78.3953730 137.2500010  63.8496830
  77.6734290 138.2678810  64.7067690  83.5146260 132.3658870  50.3376530
  83.4309980 132.7973090  49.4872970  84.2340450 132.8257220  50.7703350
  84.5920400 134.8226390  63.4146500  83.8668590 135.4155170  63.2175890
  85.1195860 134.8149930  62.6159870  84.5433510 139.2201130  53.0658660
  83.9009670 138.5656750  53.3402380  84.1564170 139.6256220  52.2899330
  80.1219990 136.5486560  56.9130350  80.4743810 135.9514690  56.2531720
  79.2382320 136.2230790  57.0838600  76.2083270 137.3084250  54.3200760
  76.8954400 137.8553460  54.7008350  75.4215690 137.8524980  54.3550370
  75.5110480 134.3130280  53.9326120  75.9673260 135.1235530  54.1586310
  75.1598690 133.9953420  54.7644610  77.8143090 139.8236620  61.1618420
  78.4585310 140.0296000  61.8391840  78.1772530 139.0625020  60.7089270
  71.4122260 124.6567930  54.4048640  71.2836890 124.6485830  55.3533560
  70.5884280 124.9951020  54.0539650  79.0875170 137.8268970  59.8795870
  79.7297400 137.1262130  59.9928040  79.6124520 138.6067410  59.6992760
  82.9330890 138.1117590  49.6035010  82.7068470 137.3948030  50.1959650
  82.5427090 137.8630030  48.7656760  80.8612790 138.6263870  63.0831930
  81.1969030 139.2130560  63.7609850  79.9413130 138.4956580  63.3129720
  68.7146920 142.1384450  50.3779470  69.0744560 142.7373790  49.7236740
  68.5739260 142.6844340  51.1514500  68.4116190 126.4159050  63.8655340
  67.6974710 126.6155970  64.4707950  68.8311230 125.6398620  64.2370140
  82.5147140 136.0289530  51.2649170  82.2268840 136.4902220  52.0527050
  83.3099310 135.5687300  51.5333390  68.6988780 140.4039310  64.8521870
  68.8079900 139.4634050  64.7117260  68.0469340 140.6694060  64.2035600
  76.6901370 138.6755200  66.2519990  76.3698240 137.9564440  66.7965680
  76.0159730 139.3510270  66.3256050  74.7315540 139.5215650  51.1953140
  74.7225640 140.2545340  50.5797650  73.8113900 139.2747230  51.2880100
  70.3322180 134.7430540  51.9399900  69.7250130 135.4829440  51.9495200
  70.8071530 134.8329900  51.1138100  79.9054970 128.9081360  61.6156790
  80.2735790 128.0876570  61.9436360  79.0453170 128.9683250  62.0312440
  83.2717000 127.8638300  52.4244350  82.6430160 127.9683970  51.7102580
  82.7768920 128.0835080  53.2138230  77.7175140 139.5843890  49.8578330
  77.8187120 139.3807880  48.9280310  76.8176880 139.3302170  50.0626110
  75.2401030 130.1424250  53.8402230  74.5317180 130.6110590  54.2815840
  75.5245510 129.4846260  54.4747420  79.2716460 126.8674910  55.2798020
  79.1484240 126.8861040  54.3307530  80.2201020 126.9153850  55.3996420
  76.3593250 142.1030210  54.5526000  76.6134750 142.0651600  53.6305370
  75.4105730 141.9763540  54.5454250  84.0723820 127.7788910  62.6823150
  83.5697420 128.5194310  63.0216960  84.8880480 128.1672910  62.3659940
  82.3645830 133.0222090  56.1284510  81.4235970 133.0372320  56.3032200
  82.6789900 132.2358050  56.5744810  84.3671410 140.1930940  57.8038770
  84.4918830 141.0162110  58.2762580  85.2336970 139.9821670  57.4562920
  71.8388940 142.2862150  57.4755900  72.5751420 141.7377610  57.7464470
  72.2229860 143.1518160  57.3361890  68.7234420 138.3535720  53.3497410
  67.7974200 138.5956860  53.3402820  69.1890850 139.1809980  53.2282160
  70.8447220 141.4708220  66.6641480  71.6459950 141.7920270  67.0776880
  70.3299040 141.1103800  67.3861390  74.9491250 141.4592460  49.2981470
  75.7419860 141.7481290  48.8463260  74.4295600 141.0284630  48.6193950
  79.6811850 137.5788090  66.6116890  79.0750010 137.6019690  65.8712640
  79.3765960 136.8471130  67.1484140  81.1112220 141.3068380  65.2226300
  82.0633970 141.2226400  65.1726540  80.9640440 141.9710090  65.8960090
  84.0021420 140.6862590  50.7218210  83.7162930 140.2727730  49.9072390
  83.8040970 141.6150300  50.6018730  68.5645030 133.9581680  65.6077530
  69.0684050 133.3788960  66.1793760  67.8252450 134.2421910  66.1453900
  75.4668650 136.6795870  49.1623820  75.3619290 136.0648220  49.8885200
  75.2992870 136.1561760  48.3786830  75.6182970 135.3652670  65.1413050
  74.8528640 135.9337670  65.0567720  75.7998930 135.0728880  64.2481280
  78.7071380 135.7415900  49.7665810  78.1581480 136.1885200  50.4108550
  79.3290640 135.2365150  50.2903480  70.5968110 132.1011270  66.5027600
  70.6373450 131.8025140  67.4112830  71.4513610 132.5018880  66.3435120
  76.8874140 133.7244430  48.9108210  77.4079800 133.0093450  48.5449360
  77.5342540 134.3630300  49.2108720  81.4351980 135.1472830  64.2343280
  81.8493000 135.3017910  65.0833700  80.5002980 135.2728050  64.3969060
  81.9074150 132.4868990  66.2382430  82.4894920 131.7321310  66.1502910
  82.0835920 133.0176430  65.4613910  75.7907660 126.2038980  61.5826770
  75.3424960 126.2263240  60.7372320  75.1572860 125.8058000  62.1797070
  76.1967210 135.0993310  62.2039210  76.6155320 135.9426040  62.0315450
  75.2775840 135.2365350  61.9745990  78.5331110 132.8309490  63.5877050
  78.6527320 132.2350630  64.3271890  79.3925110 132.8679180  63.1678350
  80.8719010 133.3846680  62.1639560  80.3454230 133.9089300  61.5604700
  81.2150350 134.0174070  62.7949290  74.0474630 141.4046320  63.3196940
  73.5095720 142.1292380  63.0005640  74.3008590 140.9276660  62.5294280
  80.1193310 128.9896650  65.0785890  79.4308830 128.3278190  65.0135880
  80.8399330 128.5434920  65.5234350  76.9036840 142.6397530  63.5783590
  76.8295540 143.5432670  63.8855960  76.0015680 142.3209430  63.5505660
  77.4522170 141.8056040  51.2009950  78.3472960 142.1441010  51.2228710
  77.4839800 141.0835450  50.5734230  71.0918330 137.1783090  49.4296950
  71.5293200 137.7212760  50.0854530  71.5766060 136.3530040  49.4393290
  68.3064130 139.9672120  56.8817210  68.6367140 139.0993180  56.6495850
  68.7355130 140.1730640  57.7122170  72.9026050 138.2981130  54.5419180
  72.6021590 138.1746100  55.4423090  72.7963540 137.4389720  54.1334910
  68.7954340 140.8342710  59.6198840  68.3585330 141.0143510  60.4522990
  69.3632020 141.5917330  59.4780560  85.6717970 138.0777530  49.2445860
  84.8410930 138.1454180  49.7153090  85.8489800 138.9681650  48.9412720
  85.1274430 134.8225010  51.7480060  85.8893340 135.3921660  51.8539750
  85.1428800 134.2552210  52.5188370  86.1334400 135.6775110  56.5921990
  86.5043230 134.8942430  56.1857960  86.7736330 136.3664210  56.4139290
  83.1168160 137.0611690  62.0052310  82.3028000 137.4908850  62.2678100
  83.5242360 137.6730100  61.3921360  85.1793600 135.1159380  48.9052580
  85.4542440 136.0238260  48.7771800  84.9904340 135.0521910  49.8414570
  81.5769210 128.1404230  50.2006210  81.9954090 127.9535210  49.3602870
  81.2705270 127.2883280  50.5109140  85.0758940 133.0528370  53.8982010
  84.7002540 132.2856300  53.4663300  84.3462060 133.4351070  54.3856940
  69.6654700 133.7315510  60.5191060  70.0327740 133.6442910  61.3987080
  69.0965520 132.9682060  60.4197920  84.4658560 132.1999890  63.5321530
  84.2344650 131.9712640  62.6319480  84.7263110 133.1199440  63.4866420
  69.2170700 130.6424600  64.4249480  68.3226750 130.6091360  64.7643190
  69.7568250 130.8411390  65.1900730  82.9046630 127.4256320  66.3101230
  83.7816810 127.4339720  66.6935230  82.9167470 126.6887160  65.6993580
  67.8416850 130.5561870  51.9213050  66.9380930 130.8192070  51.7464710
  68.3257470 130.8273040  51.1413010  84.3509900 131.2785860  57.1989250
  84.8747380 130.7848510  56.5679420  84.9369320 131.4136220  57.9436820
  84.5299620 131.3625730  60.7208800  83.5802330 131.3289270  60.8353790
  84.7112630 132.2725840  60.4858570  70.0318220 125.6666740  48.8710080
  70.7546350 126.2075680  49.1891300  70.3042740 125.3930160  47.9951620
  83.8409870 130.5359210  53.1381660  84.3368990 130.3030080  53.9230540
  83.6425940 129.6971050  52.7219300  69.7210410 124.9172930  58.7732700
  70.3686600 124.3670310  58.3327860  70.1412250 125.1716080  59.5948510
  85.2697030 129.1720160  55.6719340  85.1596310 129.0176200  56.6101610
  86.0304620 128.6441100  55.4294750  83.6162750 125.1114290  62.1302340
  84.2534970 125.7248430  62.4961530  83.7637640 125.1474950  61.1851570
  86.1587300 127.0028080  48.9125480  87.0836610 126.8709260  48.7043770
  86.1363090 127.0820900  49.8661930  86.2325790 127.7738740  51.5382190
  85.4377290 127.7083860  52.0675100  86.4369070 128.7089380  51.5267540
  83.1744210 141.8130290  55.5320580  83.7703280 141.4914860  54.8555000
  83.4322360 141.3402110  56.3233850  69.4742410 125.0728600  61.5158020
  69.1257230 125.5292420  62.2816200  69.1430110 124.1785730  61.5980450
  71.0806780 138.2448200  65.6811210  71.0376410 137.8741110  66.5625670
  71.2117790 139.1825770  65.8213030  74.7812810 139.8007790  61.2820930
  74.5404170 140.0682350  60.3951450  75.7215450 139.9713520  61.3371790
  76.9867230 126.2640480  65.0377440  76.9256120 126.8562310  65.7872850
  77.9267610 126.1566440  64.8927700  79.6241790 125.9210540  64.6769730
  80.2382200 126.2389830  64.0150810  80.1691350 125.4359130  65.2965590
  86.0416970 141.8202170  62.0831570  85.5475250 142.2171040  61.3658700
  85.4330260 141.1951380  62.4768850  70.1463050 124.6004800  64.7908790
  70.6946040 124.4192850  64.0274900  70.2118360 123.8098910  65.3265100
  70.9194810 141.1910450  62.8008990  70.3255130 141.0595150  63.5399030
  70.9118650 140.3548590  62.3351090  81.2721810 126.6913550  62.3880740
  80.9435170 125.8765310  62.0082470  82.2204110 126.6483360  62.2646430
  83.7256420 142.4625590  59.3618310  83.2659390 143.2141400  58.9876330
  83.0968880 141.7432060  59.3033110  70.5507040 138.5568830  61.7517030
  69.8241100 137.9374120  61.6842980  70.6116190 138.9509440  60.8815110
  74.1552140 140.7713830  58.5366440  74.6717160 140.1601190  58.0114700
  74.8049520 141.2742610  59.0277450  76.8947640 141.6622320  59.3635420
  77.1825450 141.4076620  58.4868430  77.4070860 141.1099680  59.9540990
  84.5284290 125.7350860  55.9989840  84.4672690 124.7912080  55.8520860
  85.3076320 125.8430950  56.5443300  68.8337040 141.8743220  54.9613790
  68.6659080 141.2413900  55.6595680  67.9671550 142.0802620  54.6107980
  69.4565060 125.7060000  52.4645650  70.2144420 125.8188880  51.8909680
  68.9942230 126.5429200  52.4189080  75.9978870 127.8199270  55.4547960
  75.1853380 127.4456160  55.1143840  76.5020510 127.0644350  55.7569150
  83.6438450 124.8863280  51.9671310  83.8389080 125.7846730  52.2338740
  82.8568320 124.6550360  52.4604260  70.4399740 140.5676450  52.4063930
  69.9147360 140.9484480  51.7025890  70.3644320 141.1927220  53.1273640
  71.8290210 126.2324050  51.0047620  72.3582970 125.4453850  50.8755570
  72.4618530 126.9115240  51.2383150  76.9620000 142.5838420  66.7303620
  77.8887310 142.3482690  66.7739580  76.9470430 143.4110420  66.2489650
  85.1965060 142.1263990  53.7277870  85.3717250 141.4401730  53.0838790
  84.4986630 142.6511040  53.3354540  74.1483610 125.2483170  66.4945500
  73.8667880 125.7516770  65.7306320  74.5303310 124.4504920  66.1287630
  73.0392710 142.5158830  51.2813180  73.7711530 142.2318110  50.7337070
  73.2986380 142.2772110  52.1712560  72.2007500 138.6323560  51.2859510
  71.5716380 139.1008660  51.8345340  72.3155330 137.7872780  51.7205700
  80.7499070 124.6636750  67.0725970  80.6364520 124.9831360  67.9677490
  81.5668810 125.0649260  66.7763250  83.5297560 141.8108280  66.5544660
  84.3222880 141.3157510  66.3470620  83.8230710 142.4898420  67.1620270
  79.6557220 132.6829220  37.4360710  79.5751270 131.7683830  37.1652420
  79.2421640 133.1796290  36.7300420  77.7875260 134.4608240  39.3169980
  77.0117360 133.9808680  39.6068550  78.4388190 133.7813890  39.1426140
  71.8041090 134.7728050  40.1945740  70.9725970 134.5176760  40.5942250
  72.4122070 134.8438820  40.9303660  81.8082690 138.8668430  38.0969110
  81.3464220 138.0955670  38.4256280  82.6208240 138.8934500  38.6021560
  71.7842350 138.8068140  40.3903760  72.0870390 137.9165880  40.2113980
  72.5285940 139.3638360  40.1626010  70.2133040 129.7329940  33.9788130
  69.3249740 130.0745910  33.8768010  70.4974230 129.5330260  33.0868960
  68.1766050 132.3335590  39.8627830  68.7482160 131.5657790  39.8631470
  68.1767590 132.6324350  38.9534440  78.0346000 141.1526440  37.7173100
  77.4157440 141.6083940  37.1467540  78.8897780 141.3077900  37.3162800
  77.2284250 137.1365430  39.3240140  77.1592530 136.1955370  39.1629270
  77.9904110 137.2266840  39.8962710  69.4190920 127.7419950  41.6496760
  69.2393760 126.8445700  41.9299520  69.0171000 128.2891820  42.3243710
  78.2589420 129.9435810  39.5509070  78.6354240 129.0707690  39.4382740
  78.1608930 130.2794510  38.6599510  72.3894430 128.3161440  35.0126510
  72.4961180 129.2165170  35.3195270  71.4786790 128.2679410  34.7221160
  82.0413540 127.4386250  36.4837410  82.8623160 126.9482820  36.5262890
  82.0747620 128.0283910  37.2369250  70.0377590 130.2380450  40.2579100
  70.7187700 130.5018820  40.8766500  69.7225640 129.3981320  40.5917110
  74.2302160 131.2847810  39.3451690  74.7380380 131.7828780  39.9856710
  74.7615400 130.5083010  39.1691050  86.3313090 129.4553000  43.0481040
  85.6265260 129.8434710  42.5296150  86.5971010 130.1503290  43.6501970
  72.5138260 125.9246370  43.6115110  72.5156700 126.4418760  42.8061010
  71.6842570 125.4476550  43.5885040  78.9009350 136.0365680  35.1105010
  78.2826620 136.5015130  34.5467730  79.4132600 136.7293160  35.5274520
  73.7641110 135.5641550  41.7888610  73.4310490 136.1910470  42.4309680
  73.9407790 136.0903430  41.0090280  82.2775020 129.3786630  39.2564950
  81.5730590 129.6671520  39.8368060  82.6387180 130.1886740  38.8964510
  72.1953590 127.6356330  41.6185560  72.5370400 128.4798380  41.3239430
  71.2569400 127.7840070  41.7350900  72.9760210 137.5322350  43.6037790
  73.5934210 138.2073430  43.3222240  72.1153330 137.9410330  43.5125290
  68.2692550 136.7222210  32.4844640  67.8920530 137.2109310  31.7529540
  68.5265620 137.3947490  33.1151170  83.8937800 138.9961760  41.5192430
  83.2101320 139.6660870  41.5109100  84.4332090 139.1942410  40.7537290
  85.3461940 128.8241420  39.6474160  84.3986850 128.8580400  39.7789590
  85.6711930 129.6380370  40.0323520  75.8781480 125.1238600  37.9430150
  76.1856460 124.5685490  37.2265650  74.9482180 125.2583060  37.7603140
  81.4296540 140.8405890  40.2337610  81.4423700 140.4368180  39.3659870
  80.8771760 141.6153180  40.1299040  82.7241960 137.5622110  35.3227780
  82.6138290 136.6196440  35.4477200  82.7210210 137.9237750  36.2090540
  80.8281980 135.7435730  41.5620220  81.2450770 135.5295840  40.7273680
  81.5521800 136.0008520  42.1328840  78.2662240 133.1887430  34.6790270
  77.3391520 133.1224810  34.9078740  78.4187060 134.1267560  34.5645510
  78.2531320 129.4604430  31.6757430  77.3134990 129.6218390  31.7609890
  78.5714580 130.1790110  31.1293420  84.7744080 134.1422950  41.6536460
  83.9462710 134.2116040  41.1786590  85.3694560 134.7277260  41.1852290
  82.2959530 134.7507730  35.1825520  81.6771950 134.4127280  34.5351820
  82.2783980 134.1067490  35.8904710  81.7386090 130.9292270  42.5991330
  81.3257270 131.7545980  42.8531320  81.0062040 130.3437310  42.4067690
  73.8718880 133.7152170  37.4610000  73.4675880 133.0029420  36.9655900
  73.9582000 133.3705410  38.3498040  74.3400580 137.4019730  39.6249210
  74.0428870 136.7965200  38.9456990  75.2900400 137.4397040  39.5138570
  72.5847500 130.4895380  41.2409040  73.1362090 130.5990720  40.4662290
  73.0991010 130.8632980  41.9564270  82.4286190 140.9751600  43.2872310
  81.9516750 141.7823790  43.0944920  81.7447980 140.3229930  43.4398520
  73.4319010 137.1401420  46.2757010  72.5347540 137.3641390  46.5230410
  73.4571880 137.2636360  45.3268410  80.4724230 133.9894540  32.1898270
  80.9117510 133.1516970  32.0436090  81.1852650 134.6223940  32.2762410
  78.5819610 138.9290610  36.1579510  79.0215520 139.6714940  35.7434900
  78.5206500 139.1717180  37.0818470  74.0570580 139.9536440  47.0599530
  74.0286010 140.3579390  46.1927960  73.8935550 139.0246800  46.8971130
  84.0541370 125.2437350  30.5039310  83.7414030 125.3364180  31.4038380
  84.8153840 125.8218380  30.4536740  70.5723510 132.6097150  34.9616650
  70.4521110 133.3359240  34.3497920  70.2624400 131.8400060  34.4844560
  86.0085400 140.7363540  48.3563700  86.4845120 141.2146430  49.0352780
  86.6292560 140.6681030  47.6309200  68.2108880 135.7812290  40.7685290
  68.2889300 135.9161060  39.8241010  68.8250560 135.0728180  40.9613410
  69.4556510 137.4812480  37.1791470  69.0484590 137.6227070  36.3245070
  70.3469520 137.1972640  36.9762680  85.4118650 137.9276390  45.5163710
  85.5381710 137.6888270  44.5980890  85.4540030 137.0960930  45.9885790
  79.2735390 141.6304390  44.0858520  79.7880060 141.5412400  44.8880950
  78.4304470 141.9764090  44.3786430  81.2489790 141.9159730  33.5142520
  81.0890930 141.6262670  34.4124350  81.0836500 141.1399860  32.9787750
  73.7278170 141.6958260  35.2914140  73.5520650 140.7793800  35.0781940
  72.8733910 142.0545550  35.5311940  80.9515920 139.4247290  32.0740520
  80.2581080 139.4224580  31.4142800  81.6938780 139.0006610  31.6434690
  80.5165850 141.0510000  36.1489010  80.9722800 140.2699380  36.4627630
  80.8558370 141.7616820  36.6930190  85.2642660 129.9808850  46.4813450
  84.6486930 130.4888520  45.9528910  84.9439080 129.0807180  46.4239390
  68.2668400 136.8226460  43.3079750  68.4299440 136.3531820  42.4899120
  68.7320850 136.3150020  43.9728590  73.0387170 125.9532220  38.3440320
  72.5955320 126.7341760  38.0124840  73.5972160 126.2762110  39.0511260
  77.3256980 128.8200740  43.9475640  76.8636350 129.0283760  44.7595580
  76.9235090 128.0060090  43.6446310  82.3261490 130.0409690  45.0772300
  81.4755080 129.7415440  45.3981370  82.1663280 130.2851700  44.1656120
  79.4211200 131.5411440  47.1771090  79.7464610 130.7075190  46.8373320
  80.2091530 132.0639960  47.3249420  76.1545990 125.5742920  33.2246150
  75.5300170 125.5702790  33.9499460  76.0676110 124.7073880  32.8282120
  75.0763070 126.4979550  40.2029920  75.3735400 127.4042380  40.1221940
  75.6248630 126.0098330  39.5889490  72.8301390 131.0765790  36.0721570
  72.6042310 130.8602960  36.9768190  72.0493920 131.5094250  35.7267540
  80.0599150 131.0829160  34.6712220  79.4608040 131.8064960  34.4875840
  80.6078760 131.0205940  33.8888670  78.6664020 129.7192700  36.7015500
  79.0593590 130.0364900  35.8884190  79.0280870 128.8404580  36.8160020
  67.7028190 126.3093500  38.9245700  67.4141240 126.8796360  39.6370680
  68.4473950 125.8297950  39.2876930  67.8898420 130.2513620  30.1348420
  67.8073090 131.1944380  30.2763410  67.5381480 130.1088530  29.2560770
  79.2519160 132.3098450  40.7966280  78.5200280 132.8185260  41.1456380
  78.8543500 131.4928430  40.4955060  75.6896550 128.9852650  39.2018770
  75.6932610 128.5442600  38.3523310  76.5847670 129.3069980  39.3090590
  71.5398930 128.8679140  38.1612980  71.1998980 129.3454370  38.9180030
  70.7776250 128.4144260  37.8014080  75.7516700 129.9864730  32.1925530
  75.8729520 129.9451210  33.1411350  75.3665210 130.8488880  32.0372260
  79.7145070 127.7632130  40.2089220  79.7317810 128.2140780  41.0531070
  79.4660650 126.8637770  40.4222660  74.7638200 132.2965870  31.5908830
  74.1955100 131.8484120  30.9644740  75.4727200 132.6558650  31.0573980
  83.1415820 125.1764310  46.0475600  83.4661590 124.4453970  46.5733580
  83.1772330 124.8577950  45.1456590  75.9904520 133.0454430  40.9484180
  76.3574650 132.5713000  41.6945520  75.8009580 133.9196000  41.2892520
  68.8545010 127.7898120  37.0777650  68.5691930 127.4253790  37.9156270
  68.7923870 127.0578580  36.4640790  73.7803890 132.0863070  43.2668390
  73.4760960 132.9655050  43.4918750  74.7350350 132.1462860  43.3025830
  72.3085680 136.2924060  33.8635240  71.5347940 135.7521680  33.7033960
  73.0380310 135.7730670  33.5253000  83.0673660 135.2889420  39.6561630
  83.7872780 135.7844710  39.2657740  82.8655480 134.6107310  39.0115500
  78.5283600 126.6827380  33.7991020  77.7148210 126.1840550  33.7236330
  78.3345550 127.5225630  33.3827370  78.4492460 135.3598480  45.5430630
  78.3829770 134.4394150  45.2888220  77.8197600 135.4573920  46.2575270
  81.2431990 131.0547030  32.0953180  82.1311610 131.3664260  31.9204520
  81.2137080 130.1819280  31.7033760  72.3523080 135.9604440  37.5014050
  72.8701750 135.1572700  37.4470940  71.9007100 135.8983580  38.3430880
  77.2392580 137.2270720  32.7741350  77.5808280 137.9712950  32.2784670
  76.4105290 137.5401840  33.1366180  78.3809190 138.1819050  45.2934430
  78.3953730 137.2500010  45.0753340  77.6734290 138.2678810  45.9324200
  83.5146260 132.3658870  31.5633040  83.4309980 132.7973090  30.7129480
  84.2340450 132.8257220  31.9959860  84.5920400 134.8226390  44.6403010
  83.8668590 135.4155170  44.4432400  85.1195860 134.8149930  43.8416380
  84.5433510 139.2201130  34.2915170  83.9009670 138.5656750  34.5658890
  84.1564170 139.6256220  33.5155840  80.1219990 136.5486560  38.1386860
  80.4743810 135.9514690  37.4788230  79.2382320 136.2230790  38.3095110
  76.2083270 137.3084250  35.5457270  76.8954400 137.8553460  35.9264860
  75.4215690 137.8524980  35.5806880  68.3475670 132.9257070  31.0374350
  69.2170520 133.2081870  31.3210270  67.8565990 133.7392940  30.9223160
  75.5110480 134.3130280  35.1582630  75.9673260 135.1235530  35.3842820
  75.1598690 133.9953420  35.9901120  77.8143090 139.8236620  42.3874930
  78.4585310 140.0296000  43.0648350  78.1772530 139.0625020  41.9345780
  71.4122260 124.6567930  35.6305150  71.2836890 124.6485830  36.5790070
  70.5884280 124.9951020  35.2796160  79.0875170 137.8268970  41.1052380
  79.7297400 137.1262130  41.2184550  79.6124520 138.6067410  40.9249270
  82.9330890 138.1117590  30.8291520  82.7068470 137.3948030  31.4216160
  82.5427090 137.8630030  29.9913270  80.8612790 138.6263870  44.3088440
  81.1969030 139.2130560  44.9866360  79.9413130 138.4956580  44.5386230
  68.7146920 142.1384450  31.6035980  69.0744560 142.7373790  30.9493250
  68.5739260 142.6844340  32.3771010  68.4116190 126.4159050  45.0911850
  67.6974710 126.6155970  45.6964460  68.8311230 125.6398620  45.4626650
  82.5147140 136.0289530  32.4905680  82.2268840 136.4902220  33.2783560
  83.3099310 135.5687300  32.7589900  68.6988780 140.4039310  46.0778380
  68.8079900 139.4634050  45.9373770  68.0469340 140.6694060  45.4292110
  76.6901370 138.6755200  47.4776500  76.3698240 137.9564440  48.0222190
  76.0159730 139.3510270  47.5512560  74.7315540 139.5215650  32.4209650
  74.7225640 140.2545340  31.8054160  73.8113900 139.2747230  32.5136610
  70.3322180 134.7430540  33.1656410  69.7250130 135.4829440  33.1751710
  70.8071530 134.8329900  32.3394610  79.9054970 128.9081360  42.8413300
  80.2735790 128.0876570  43.1692870  79.0453170 128.9683250  43.2568950
  83.2717000 127.8638300  33.6500860  82.6430160 127.9683970  32.9359090
  82.7768920 128.0835080  34.4394740  77.7175140 139.5843890  31.0834840
  77.8187120 139.3807880  30.1536820  76.8176880 139.3302170  31.2882620
  75.2401030 130.1424250  35.0658740  74.5317180 130.6110590  35.5072350
  75.5245510 129.4846260  35.7003930  76.8656960 131.5620950  43.0651270
  77.3642210 132.0366770  43.7303120  77.0079910 130.6384470  43.2721300
  79.2716460 126.8674910  36.5054530  79.1484240 126.8861040  35.5564040
  80.2201020 126.9153850  36.6252930  76.3593250 142.1030210  35.7782510
  76.6134750 142.0651600  34.8561880  75.4105730 141.9763540  35.7710760
  73.4436050 128.4509330  32.4409450  74.2926580 128.8879480  32.3749640
  73.0767320 128.7629590  33.2681510  84.0723820 127.7788910  43.9079660
  83.5697420 128.5194310  44.2473470  84.8880480 128.1672910  43.5916450
  82.3645830 133.0222090  37.3541020  81.4235970 133.0372320  37.5288710
  82.6789900 132.2358050  37.8001320  72.3427470 134.7041690  30.9144980
  73.1090740 134.5923050  31.4770410  72.4202160 134.0079660  30.2621750
  71.0374230 132.1366760  31.5977870  71.1177820 131.1894270  31.7095270
  71.9293980 132.4673640  31.7038530  84.3671410 140.1930940  39.0295280
  84.4918830 141.0162110  39.5019090  85.2336970 139.9821670  38.6819430
  71.8388940 142.2862150  38.7012410  72.5751420 141.7377610  38.9720980
  72.2229860 143.1518160  38.5618400  68.7234420 138.3535720  34.5753920
  67.7974200 138.5956860  34.5659330  69.1890850 139.1809980  34.4538670
  70.8447220 141.4708220  47.8897990  71.6459950 141.7920270  48.3033390
  70.3299040 141.1103800  48.6117900  74.9491250 141.4592460  30.5237980
  75.7419860 141.7481290  30.0719770  74.4295600 141.0284630  29.8450460
  79.6811850 137.5788090  47.8373400  79.0750010 137.6019690  47.0969150
  79.3765960 136.8471130  48.3740650  81.1112220 141.3068380  46.4482810
  82.0633970 141.2226400  46.3983050  80.9640440 141.9710090  47.1216600
  84.0021420 140.6862590  31.9474720  83.7162930 140.2727730  31.1328900
  83.8040970 141.6150300  31.8275240  75.4668650 136.6795870  30.3880330
  75.3619290 136.0648220  31.1141710  75.2992870 136.1561760  29.6043340
  75.6182970 135.3652670  46.3669560  74.8528640 135.9337670  46.2824230
  75.7998930 135.0728880  45.4737790  78.7071380 135.7415900  30.9922320
  78.1581480 136.1885200  31.6365060  79.3290640 135.2365150  31.5159990
  82.7606320 137.0958000  46.9244580  83.5015790 137.4333760  46.4212040
  81.9979000 137.2650060  46.3714350  74.3746500 134.7006820  32.8887620
  74.7962920 134.5346690  33.7319010  74.4997340 133.8907050  32.3942760
  76.8874140 133.7244430  30.1364720  77.4079800 133.0093450  29.7705870
  77.5342540 134.3630300  30.4365230  81.4351980 135.1472830  45.4599790
  81.8493000 135.3017910  46.3090210  80.5002980 135.2728050  45.6225570
  81.9074150 132.4868990  47.4638940  82.4894920 131.7321310  47.3759420
  82.0835920 133.0176430  46.6870420  73.0246220 127.6465740  45.7755890
  72.9303090 127.0286490  45.0506760  72.4443610 128.3732030  45.5485800
  75.7907660 126.2038980  42.8083280  75.3424960 126.2263240  41.9628830
  75.1572860 125.8058000  43.4053580  76.1967210 135.0993310  43.4295720
  76.6155320 135.9426040  43.2571960  75.2775840 135.2365350  43.2002500
  78.5331110 132.8309490  44.8133560  78.6527320 132.2350630  45.5528400
  79.3925110 132.8679180  44.3934860  80.8719010 133.3846680  43.3896070
  80.3454230 133.9089300  42.7861210  81.2150350 134.0174070  44.0205800
  73.2705400 130.7740050  29.8345780  73.0694460 129.9107410  30.1959120
  73.0997450 130.6873410  28.8967380  74.0474630 141.4046320  44.5453450
  73.5095720 142.1292380  44.2262150  74.3008590 140.9276660  43.7550790
  75.2999880 129.3730840  46.0709380  75.8899570 129.0646690  46.7587200
  74.4820120 128.9010590  46.2269280  80.1193310 128.9896650  46.3042400
  79.4308830 128.3278190  46.2392390  80.8399330 128.5434920  46.7490860
  80.7493710 125.5848280  32.3632660  81.0296000 124.7416180  32.7192080
  79.9759440 125.8171390  32.8771410  72.0688200 127.8740670  29.8223660
  72.3714100 127.8808100  28.9142810  72.8082790 127.5238530  30.3191320
  76.9036840 142.6397530  44.8040100  76.8295540 143.5432670  45.1112470
  76.0015680 142.3209430  44.7762170  75.2873130 126.8175290  30.8079860
  74.9395130 126.1399280  30.2282310  75.4885900 126.3564800  31.6223250
  77.4522170 141.8056040  32.4266460  78.3472960 142.1441010  32.4485220
  77.4839800 141.0835450  31.7990740  71.0918330 137.1783090  30.6553460
  71.5293200 137.7212760  31.3111040  71.5766060 136.3530040  30.6649800
  68.3064130 139.9672120  38.1073720  68.6367140 139.0993180  37.8752360
  68.7355130 140.1730640  38.9378680  72.9026050 138.2981130  35.7675690
  72.6021590 138.1746100  36.6679600  72.7963540 137.4389720  35.3591420
  68.7954340 140.8342710  40.8455350  68.3585330 141.0143510  41.6779500
  69.3632020 141.5917330  40.7037070  84.4316520 140.3359710  45.1332660
  83.8318510 140.3952270  44.3896580  84.5610420 139.3964690  45.2629510
  85.6717970 138.0777530  30.4702370  84.8410930 138.1454180  30.9409600
  85.8489800 138.9681650  30.1669230  85.1274430 134.8225010  32.9736570
  85.8893340 135.3921660  33.0796260  85.1428800 134.2552210  33.7444880
  68.6278770 133.3462940  37.2044230  67.9727610 133.0774580  36.5603930
  69.4656720 133.2367420  36.7546210  86.1334400 135.6775110  37.8178500
  86.5043230 134.8942430  37.4114470  86.7736330 136.3664210  37.6395800
  83.1168160 137.0611690  43.2308820  82.3028000 137.4908850  43.4934610
  83.5242360 137.6730100  42.6177870  85.1793600 135.1159380  30.1309090
  85.4542440 136.0238260  30.0028310  84.9904340 135.0521910  31.0671080
  81.5769210 128.1404230  31.4262720  81.9954090 127.9535210  30.5859380
  81.2705270 127.2883280  31.7365650  85.0758940 133.0528370  35.1238520
  84.7002540 132.2856300  34.6919810  84.3462060 133.4351070  35.6113450
  69.6654700 133.7315510  41.7447570  70.0327740 133.6442910  42.6243590
  69.0965520 132.9682060  41.6454430  84.4658560 132.1999890  44.7578040
  84.2344650 131.9712640  43.8575990  84.7263110 133.1199440  44.7122930
  82.9046630 127.4256320  47.5357740  83.7816810 127.4339720  47.9191740
  82.9167470 126.6887160  46.9250090  67.8416850 130.5561870  33.1469560
  66.9380930 130.8192070  32.9721220  68.3257470 130.8273040  32.3669520
  84.3509900 131.2785860  38.4245760  84.8747380 130.7848510  37.7935930
  84.9369320 131.4136220  39.1693330  84.5299620 131.3625730  41.9465310
  83.5802330 131.3289270  42.0610300  84.7112630 132.2725840  41.7115080
  70.3844060 129.6127410  31.0563940  71.0935760 129.1910630  30.5711220
  69.6684000 129.6802640  30.4247290  70.0318220 125.6666740  30.0966590
  70.7546350 126.2075680  30.4147810  70.3042740 125.3930160  29.2208130
  83.8409870 130.5359210  34.3638170  84.3368990 130.3030080  35.1487050
  83.6425940 129.6971050  33.9475810  69.7210410 124.9172930  39.9989210
  70.3686600 124.3670310  39.5584370  70.1412250 125.1716080  40.8205020
  85.2697030 129.1720160  36.8975850  85.1596310 129.0176200  37.8358120
  86.0304620 128.6441100  36.6551260  83.6162750 125.1114290  43.3558850
  84.2534970 125.7248430  43.7218040  83.7637640 125.1474950  42.4108080
  86.1587300 127.0028080  30.1381990  87.0836610 126.8709260  29.9300280
  86.1363090 127.0820900  31.0918440  86.2325790 127.7738740  32.7638700
  85.4377290 127.7083860  33.2931610  86.4369070 128.7089380  32.7524050
  83.1744210 141.8130290  36.7577090  83.7703280 141.4914860  36.0811510
  83.4322360 141.3402110  37.5490360  69.4742410 125.0728600  42.7414530
  69.1257230 125.5292420  43.5072710  69.1430110 124.1785730  42.8236960
  71.0806780 138.2448200  46.9067720  71.0376410 137.8741110  47.7882180
  71.2117790 139.1825770  47.0469540  74.7812810 139.8007790  42.5077440
  74.5404170 140.0682350  41.6207960  75.7215450 139.9713520  42.5628300
  79.6241790 125.9210540  45.9026240  80.2382200 126.2389830  45.2407320
  80.1691350 125.4359130  46.5222100  86.0416970 141.8202170  43.3088080
  85.5475250 142.2171040  42.5915210  85.4330260 141.1951380  43.7025360
  70.1463050 124.6004800  46.0165300  70.6946040 124.4192850  45.2531410
  70.2118360 123.8098910  46.5521610  70.9194810 141.1910450  44.0265500
  70.3255130 141.0595150  44.7655540  70.9118650 140.3548590  43.5607600
  80.3649830 124.4842680  42.2295530  79.4909670 124.8177790  42.0268460
  80.2560580 124.0115860  43.0547400  81.2721810 126.6913550  43.6137250
  80.9435170 125.8765310  43.2338980  82.2204110 126.6483360  43.4902940
  83.7256420 142.4625590  40.5874820  83.2659390 143.2141400  40.2132840
  83.0968880 141.7432060  40.5289620  70.5507040 138.5568830  42.9773540
  69.8241100 137.9374120  42.9099490  70.6116190 138.9509440  42.1071620
  74.1552140 140.7713830  39.7622950  74.6717160 140.1601190  39.2371210
  74.8049520 141.2742610  40.2533960  76.8947640 141.6622320  40.5891930
  77.1825450 141.4076620  39.7124940  77.4070860 141.1099680  41.1797500
  78.1124650 125.4012520  41.1688440  77.3296440 125.8758020  41.4485200
  77.8187580 124.4967350  41.0601620  82.6645720 126.1035620  39.2137530
  83.1053810 126.0480720  38.3659130  82.3953310 127.0193630  39.2847710
  68.8337040 141.8743220  36.1870300  68.6659080 141.2413900  36.8852190
  67.9671550 142.0802620  35.8364490  69.4565060 125.7060000  33.6902160
  70.2144420 125.8188880  33.1166190  68.9942230 126.5429200  33.6445590
  75.9978870 127.8199270  36.6804470  75.1853380 127.4456160  36.3400350
  76.5020510 127.0644350  36.9825660  80.5003850 124.4841720  37.9187540
  81.1033220 125.0561930  38.3936060  79.7596840 125.0481160  37.6961440
  83.6438450 124.8863280  33.1927820  83.8389080 125.7846730  33.4595250
  82.8568320 124.6550360  33.6860770  70.4399740 140.5676450  33.6320440
  69.9147360 140.9484480  32.9282400  70.3644320 141.1927220  34.3530150
  71.8290210 126.2324050  32.2304130  72.3582970 125.4453850  32.1012080
  72.4618530 126.9115240  32.4639660  74.0228050 125.9699190  35.2849520
  73.3930790 125.2686500  35.4519650  73.4833190 126.7303320  35.0682680
  76.9620000 142.5838420  47.9560130  77.8887310 142.3482690  47.9996090
  76.9470430 143.4110420  47.4746160  85.1965060 142.1263990  34.9534380
  85.3717250 141.4401730  34.3095300  84.4986630 142.6511040  34.5611050
  73.0392710 142.5158830  32.5069690  73.7711530 142.2318110  31.9593580
  73.2986380 142.2772110  33.3969070  72.2007500 138.6323560  32.5116020
  71.5716380 139.1008660  33.0601850  72.3155330 137.7872780  32.9462210
  80.7499070 124.6636750  48.2982480  80.6364520 124.9831360  49.1934000
  81.5668810 125.0649260  48.0019760  83.5297560 141.8108280  47.7801170
  84.3222880 141.3157510  47.5727130  83.8230710 142.4898420  48.3876780
  79.6557220 132.6829220  18.6617220  79.5751270 131.7683830  18.3908930
  79.2421640 133.1796290  17.9556930  77.7875260 134.4608240  20.5426490
  77.0117360 133.9808680  20.8325060  78.4388190 133.7813890  20.3682650
  71.8041090 134.7728050  21.4202250  70.9725970 134.5176760  21.8198760
  72.4122070 134.8438820  22.1560170  81.8082690 138.8668430  19.3225620
  81.3464220 138.0955670  19.6512790  82.6208240 138.8934500  19.8278070
  71.7842350 138.8068140  21.6160270  72.0870390 137.9165880  21.4370490
  72.5285940 139.3638360  21.3882520  70.2133040 129.7329940  15.2044640
  69.3249740 130.0745910  15.1024520  70.4974230 129.5330260  14.3125470
  68.1766050 132.3335590  21.0884340  68.7482160 131.5657790  21.0887980
  68.1767590 132.6324350  20.1790950  78.0346000 141.1526440  18.9429610
  77.4157440 141.6083940  18.3724050  78.8897780 141.3077900  18.5419310
  77.2284250 137.1365430  20.5496650  77.1592530 136.1955370  20.3885780
  77.9904110 137.2266840  21.1219220  69.4190920 127.7419950  22.8753270
  69.2393760 126.8445700  23.1556030  69.0171000 128.2891820  23.5500220
  78.2589420 129.9435810  20.7765580  78.6354240 129.0707690  20.6639250
  78.1608930 130.2794510  19.8856020  72.3894430 128.3161440  16.2383020
  72.4961180 129.2165170  16.5451780  71.4786790 128.2679410  15.9477670
  82.0413540 127.4386250  17.7093920  82.8623160 126.9482820  17.7519400
  82.0747620 128.0283910  18.4625760  70.0377590 130.2380450  21.4835610
  70.7187700 130.5018820  22.1023010  69.7225640 129.3981320  21.8173620
  74.2302160 131.2847810  20.5708200  74.7380380 131.7828780  21.2113220
  74.7615400 130.5083010  20.3947560  86.3313090 129.4553000  24.2737550
  85.6265260 129.8434710  23.7552660  86.5971010 130.1503290  24.8758480
  72.5138260 125.9246370  24.8371620  72.5156700 126.4418760  24.0317520
  71.6842570 125.4476550  24.8141550  78.9009350 136.0365680  16.3361520
  78.2826620 136.5015130  15.7724240  79.4132600 136.7293160  16.7531030
  73.7641110 135.5641550  23.0145120  73.4310490 136.1910470  23.6566190
  73.9407790 136.0903430  22.2346790  82.2775020 129.3786630  20.4821460
  81.5730590 129.6671520  21.0624570  82.6387180 130.1886740  20.1221020
  72.1953590 127.6356330  22.8442070  72.5370400 128.4798380  22.5495940
  71.2569400 127.7840070  22.9607410  72.9760210 137.5322350  24.8294300
  73.5934210 138.2073430  24.5478750  72.1153330 137.9410330  24.7381800
  68.2692550 136.7222210  13.7101150  67.8920530 137.2109310  12.9786050
  68.5265620 137.3947490  14.3407680  83.8937800 138.9961760  22.7448940
  83.2101320 139.6660870  22.7365610  84.4332090 139.1942410  21.9793800
  85.3461940 128.8241420  20.8730670  84.3986850 128.8580400  21.0046100
  85.6711930 129.6380370  21.2580030  75.8781480 125.1238600  19.1686660
  76.1856460 124.5685490  18.4522160  74.9482180 125.2583060  18.9859650
  81.4296540 140.8405890  21.4594120  81.4423700 140.4368180  20.5916380
  80.8771760 141.6153180  21.3555550  82.7241960 137.5622110  16.5484290
  82.6138290 136.6196440  16.6733710  82.7210210 137.9237750  17.4347050
  80.8281980 135.7435730  22.7876730  81.2450770 135.5295840  21.9530190
  81.5521800 136.0008520  23.3585350  78.2662240 133.1887430  15.9046780
  77.3391520 133.1224810  16.1335250  78.4187060 134.1267560  15.7902020
  78.2531320 129.4604430  12.9013940  77.3134990 129.6218390  12.9866400
  78.5714580 130.1790110  12.3549930  84.7744080 134.1422950  22.8792970
  83.9462710 134.2116040  22.4043100  85.3694560 134.7277260  22.4108800
  82.2959530 134.7507730  16.4082030  81.6771950 134.4127280  15.7608330
  82.2783980 134.1067490  17.1161220  81.7386090 130.9292270  23.8247840
  81.3257270 131.7545980  24.0787830  81.0062040 130.3437310  23.6324200
  73.8718880 133.7152170  18.6866510  73.4675880 133.0029420  18.1912410
  73.9582000 133.3705410  19.5754550  74.3400580 137.4019730  20.8505720
  74.0428870 136.7965200  20.1713500  75.2900400 137.4397040  20.7395080
  72.5847500 130.4895380  22.4665550  73.1362090 130.5990720  21.6918800
  73.0991010 130.8632980  23.1820780  82.4286190 140.9751600  24.5128820
  81.9516750 141.7823790  24.3201430  81.7447980 140.3229930  24.6655030
  73.4319010 137.1401420  27.5013520  72.5347540 137.3641390  27.7486920
  73.4571880 137.2636360  26.5524920  80.4724230 133.9894540  13.4154780
  80.9117510 133.1516970  13.2692600  81.1852650 134.6223940  13.5018920
  72.2590230 134.0114740  26.0770890  72.1198000 134.8837540  26.4458290
  71.3771590 133.6687550  25.9318830  78.5819610 138.9290610  17.3836020
  79.0215520 139.6714940  16.9691410  78.5206500 139.1717180  18.3074980
  74.0570580 139.9536440  28.2856040  74.0286010 140.3579390  27.4184470
  73.8935550 139.0246800  28.1227640  84.0541370 125.2437350  11.7295820
  83.7414030 125.3364180  12.6294890  84.8153840 125.8218380  11.6793250
  70.5723510 132.6097150  16.1873160  70.4521110 133.3359240  15.5754430
  70.2624400 131.8400060  15.7101070  86.0085400 140.7363540  29.5820210
  86.4845120 141.2146430  30.2609290  86.6292560 140.6681030  28.8565710
  68.2108880 135.7812290  21.9941800  68.2889300 135.9161060  21.0497520
  68.8250560 135.0728180  22.1869920  69.4556510 137.4812480  18.4047980
  69.0484590 137.6227070  17.5501580  70.3469520 137.1972640  18.2019190
  85.4118650 137.9276390  26.7420220  85.5381710 137.6888270  25.8237400
  85.4540030 137.0960930  27.2142300  79.2735390 141.6304390  25.3115030
  79.7880060 141.5412400  26.1137460  78.4304470 141.9764090  25.6042940
  81.2489790 141.9159730  14.7399030  81.0890930 141.6262670  15.6380860
  81.0836500 141.1399860  14.2044260  73.7278170 141.6958260  16.5170650
  73.5520650 140.7793800  16.3038450  72.8733910 142.0545550  16.7568450
  80.9515920 139.4247290  13.2997030  80.2581080 139.4224580  12.6399310
  81.6938780 139.0006610  12.8691200  80.5165850 141.0510000  17.3745520
  80.9722800 140.2699380  17.6884140  80.8558370 141.7616820  17.9186700
  85.2642660 129.9808850  27.7069960  84.6486930 130.4888520  27.1785420
  84.9439080 129.0807180  27.6495900  68.2668400 136.8226460  24.5336260
  68.4299440 136.3531820  23.7155630  68.7320850 136.3150020  25.1985100
  73.0387170 125.9532220  19.5696830  72.5955320 126.7341760  19.2381350
  73.5972160 126.2762110  20.2767770  77.3256980 128.8200740  25.1732150
  76.8636350 129.0283760  25.9852090  76.9235090 128.0060090  24.8702820
  82.3261490 130.0409690  26.3028810  81.4755080 129.7415440  26.6237880
  82.1663280 130.2851700  25.3912630  79.4211200 131.5411440  28.4027600
  79.7464610 130.7075190  28.0629830  80.2091530 132.0639960  28.5505930
  76.1545990 125.5742920  14.4502660  75.5300170 125.5702790  15.1755970
  76.0676110 124.7073880  14.0538630  75.0763070 126.4979550  21.4286430
  75.3735400 127.4042380  21.3478450  75.6248630 126.0098330  20.8146000
  72.8301390 131.0765790  17.2978080  72.6042310 130.8602960  18.2024700
  72.0493920 131.5094250  16.9524050  80.0599150 131.0829160  15.8968730
  79.4608040 131.8064960  15.7132350  80.6078760 131.0205940  15.1145180
  75.2700600 131.9751370  27.9638350  75.1744200 131.0346100  27.8138750
  76.1132580 132.1966440  27.5686420  78.6664020 129.7192700  17.9272010
  79.0593590 130.0364900  17.1140700  79.0280870 128.8404580  18.0416530
  70.4011140 128.3865040  26.1172130  70.0074530 129.2340250  26.3244910
  69.7129540 127.7491410  26.3080770  76.9756190 128.4700010  29.1868870
  76.2854510 128.2772210  29.8214960  77.7188490 128.7534650  29.7193170
  67.7028190 126.3093500  20.1502210  67.4141240 126.8796360  20.8627190
  68.4473950 125.8297950  20.5133440  67.8898420 130.2513620  11.3604930
  67.8073090 131.1944380  11.5019920  67.5381480 130.1088530  10.4817280
  79.2519160 132.3098450  22.0222790  78.5200280 132.8185260  22.3712890
  78.8543500 131.4928430  21.7211570  75.6896550 128.9852650  20.4275280
  75.6932610 128.5442600  19.5779820  76.5847670 129.3069980  20.5347100
  71.5398930 128.8679140  19.3869490  71.1998980 129.3454370  20.1436540
  70.7776250 128.4144260  19.0270590  75.7516700 129.9864730  13.4182040
  75.8729520 129.9451210  14.3667860  75.3665210 130.8488880  13.2628770
  79.7145070 127.7632130  21.4345730  79.7317810 128.2140780  22.2787580
  79.4660650 126.8637770  21.6479170  74.7638200 132.2965870  12.8165340
  74.1955100 131.8484120  12.1901250  75.4727200 132.6558650  12.2830490
  83.1415820 125.1764310  27.2732110  83.4661590 124.4453970  27.7990090
  83.1772330 124.8577950  26.3713100  69.8407380 136.1977890  26.6932070
  69.4562170 135.5571560  27.2915030  70.1519570 136.9014010  27.2626800
  75.9904520 133.0454430  22.1740690  76.3574650 132.5713000  22.9202030
  75.8009580 133.9196000  22.5149030  68.8545010 127.7898120  18.3034160
  68.5691930 127.4253790  19.1412780  68.7923870 127.0578580  17.6897300
  73.7803890 132.0863070  24.4924900  73.4760960 132.9655050  24.7175260
  74.7350350 132.1462860  24.5282340  72.3085680 136.2924060  15.0891750
  71.5347940 135.7521680  14.9290470  73.0380310 135.7730670  14.7509510
  83.0673660 135.2889420  20.8818140  83.7872780 135.7844710  20.4914250
  82.8655480 134.6107310  20.2372010  78.5283600 126.6827380  15.0247530
  77.7148210 126.1840550  14.9492840  78.3345550 127.5225630  14.6083880
  78.4492460 135.3598480  26.7687140  78.3829770 134.4394150  26.5144730
  77.8197600 135.4573920  27.4831780  81.2431990 131.0547030  13.3209690
  82.1311610 131.3664260  13.1461030  81.2137080 130.1819280  12.9290270
  72.3523080 135.9604440  18.7270560  72.8701750 135.1572700  18.6727450
  71.9007100 135.8983580  19.5687390  77.2392580 137.2270720  13.9997860
  77.5808280 137.9712950  13.5041180  76.4105290 137.5401840  14.3622690
  69.8367620 132.9265810  25.6396260  69.4782560 133.5919660  26.2269600
  69.5422180 132.0949360  26.0108880  73.0380740 133.3850050  28.5235810
  72.7380880 133.5307230  27.6263630  73.8091980 132.8255340  28.4309200
  78.3809190 138.1819050  26.5190940  78.3953730 137.2500010  26.3009850
  77.6734290 138.2678810  27.1580710  83.5146260 132.3658870  12.7889550
  83.4309980 132.7973090  11.9385990  84.2340450 132.8257220  13.2216370
  84.5920400 134.8226390  25.8659520  83.8668590 135.4155170  25.6688910
  85.1195860 134.8149930  25.0672890  84.5433510 139.2201130  15.5171680
  83.9009670 138.5656750  15.7915400  84.1564170 139.6256220  14.7412350
  80.1219990 136.5486560  19.3643370  80.4743810 135.9514690  18.7044740
  79.2382320 136.2230790  19.5351620  76.2083270 137.3084250  16.7713780
  76.8954400 137.8553460  17.1521370  75.4215690 137.8524980  16.8063390
  68.3475670 132.9257070  12.2630860  69.2170520 133.2081870  12.5466780
  67.8565990 133.7392940  12.1479670  75.5110480 134.3130280  16.3839140
  75.9673260 135.1235530  16.6099330  75.1598690 133.9953420  17.2157630
  77.8143090 139.8236620  23.6131440  78.4585310 140.0296000  24.2904860
  78.1772530 139.0625020  23.1602290  71.4122260 124.6567930  16.8561660
  71.2836890 124.6485830  17.8046580  70.5884280 124.9951020  16.5052670
  79.0875170 137.8268970  22.3308890  79.7297400 137.1262130  22.4441060
  79.6124520 138.6067410  22.1505780  82.9330890 138.1117590  12.0548030
  82.7068470 137.3948030  12.6472670  82.5427090 137.8630030  11.2169780
  80.8612790 138.6263870  25.5344950  81.1969030 139.2130560  26.2122870
  79.9413130 138.4956580  25.7642740  68.7146920 142.1384450  12.8292490
  69.0744560 142.7373790  12.1749760  68.5739260 142.6844340  13.6027520
  68.4116190 126.4159050  26.3168360  67.6974710 126.6155970  26.9220970
  68.8311230 125.6398620  26.6883160  82.5147140 136.0289530  13.7162190
  82.2268840 136.4902220  14.5040070  83.3099310 135.5687300  13.9846410
  68.6988780 140.4039310  27.3034890  68.8079900 139.4634050  27.1630280
  68.0469340 140.6694060  26.6548620  76.6901370 138.6755200  28.7033010
  76.3698240 137.9564440  29.2478700  76.0159730 139.3510270  28.7769070
  74.7315540 139.5215650  13.6466160  74.7225640 140.2545340  13.0310670
  73.8113900 139.2747230  13.7393120  70.3322180 134.7430540  14.3912920
  69.7250130 135.4829440  14.4008220  70.8071530 134.8329900  13.5651120
  79.9054970 128.9081360  24.0669810  80.2735790 128.0876570  24.3949380
  79.0453170 128.9683250  24.4825460  83.2717000 127.8638300  14.8757370
  82.6430160 127.9683970  14.1615600  82.7768920 128.0835080  15.6651250
  77.7175140 139.5843890  12.3091350  77.8187120 139.3807880  11.3793330
  76.8176880 139.3302170  12.5139130  75.2401030 130.1424250  16.2915250
  74.5317180 130.6110590  16.7328860  75.5245510 129.4846260  16.9260440
  76.8656960 131.5620950  24.2907780  77.3642210 132.0366770  24.9559630
  77.0079910 130.6384470  24.4977810  79.2716460 126.8674910  17.7311040
  79.1484240 126.8861040  16.7820550  80.2201020 126.9153850  17.8509440
  76.3593250 142.1030210  17.0039020  76.6134750 142.0651600  16.0818390
  75.4105730 141.9763540  16.9967270  73.4436050 128.4509330  13.6665960
  74.2926580 128.8879480  13.6006150  73.0767320 128.7629590  14.4938020
  84.0723820 127.7788910  25.1336170  83.5697420 128.5194310  25.4729980
  84.8880480 128.1672910  24.8172960  82.3645830 133.0222090  18.5797530
  81.4235970 133.0372320  18.7545220  82.6789900 132.2358050  19.0257830
  72.3427470 134.7041690  12.1401490  73.1090740 134.5923050  12.7026920
  72.4202160 134.0079660  11.4878260  71.0374230 132.1366760  12.8234380
  71.1177820 131.1894270  12.9351780  71.9293980 132.4673640  12.9295040
  84.3671410 140.1930940  20.2551790  84.4918830 141.0162110  20.7275600
  85.2336970 139.9821670  19.9075940  71.8388940 142.2862150  19.9268920
  72.5751420 141.7377610  20.1977490  72.2229860 143.1518160  19.7874910
  68.7234420 138.3535720  15.8010430  67.7974200 138.5956860  15.7915840
  69.1890850 139.1809980  15.6795180  70.8447220 141.4708220  29.1154500
  71.6459950 141.7920270  29.5289900  70.3299040 141.1103800  29.8374410
  74.9491250 141.4592460  11.7494490  75.7419860 141.7481290  11.2976280
  74.4295600 141.0284630  11.0706970  79.6811850 137.5788090  29.0629910
  79.0750010 137.6019690  28.3225660  79.3765960 136.8471130  29.5997160
  81.1112220 141.3068380  27.6739320  82.0633970 141.2226400  27.6239560
  80.9640440 141.9710090  28.3473110  84.0021420 140.6862590  13.1731230
  83.7162930 140.2727730  12.3585410  83.8040970 141.6150300  13.0531750
  68.5645030 133.9581680  28.0590550  69.0684050 133.3788960  28.6306780
  67.8252450 134.2421910  28.5966920  75.4668650 136.6795870  11.6136840
  75.3619290 136.0648220  12.3398220  75.2992870 136.1561760  10.8299850
  75.6182970 135.3652670  27.5926070  74.8528640 135.9337670  27.5080740
  75.7998930 135.0728880  26.6994300  78.7071380 135.7415900  12.2178830
  78.1581480 136.1885200  12.8621570  79.3290640 135.2365150  12.7416500
  82.7606320 137.0958000  28.1501090  83.5015790 137.4333760  27.6468550
  81.9979000 137.2650060  27.5970860  70.5968110 132.1011270  28.9540620
  70.6373450 131.8025140  29.8625850  71.4513610 132.5018880  28.7948140
  74.3746500 134.7006820  14.1144130  74.7962920 134.5346690  14.9575520
  74.4997340 133.8907050  13.6199270  72.5373920 130.6803370  26.9215110
  72.0070380 130.1894320  26.2938450  73.2061990 131.1087570  26.3873040
  76.8874140 133.7244430  11.3621230  77.4079800 133.0093450  10.9962380
  77.5342540 134.3630300  11.6621740  81.4351980 135.1472830  26.6856300
  81.8493000 135.3017910  27.5346720  80.5002980 135.2728050  26.8482080
  81.9074150 132.4868990  28.6895450  82.4894920 131.7321310  28.6015930
  82.0835920 133.0176430  27.9126930  73.0246220 127.6465740  27.0012400
  72.9303090 127.0286490  26.2763270  72.4443610 128.3732030  26.7742310
  75.7907660 126.2038980  24.0339790  75.3424960 126.2263240  23.1885340
  75.1572860 125.8058000  24.6310090  76.1967210 135.0993310  24.6552230
  76.6155320 135.9426040  24.4828470  75.2775840 135.2365350  24.4259010
  78.5331110 132.8309490  26.0390070  78.6527320 132.2350630  26.7784910
  79.3925110 132.8679180  25.6191370  80.8719010 133.3846680  24.6152580
  80.3454230 133.9089300  24.0117720  81.2150350 134.0174070  25.2462310
  73.2705400 130.7740050  11.0602290  73.0694460 129.9107410  11.4215630
  73.0997450 130.6873410  10.1223890  74.0474630 141.4046320  25.7709960
  73.5095720 142.1292380  25.4518660  74.3008590 140.9276660  24.9807300
  75.2999880 129.3730840  27.2965890  75.8899570 129.0646690  27.9843710
  74.4820120 128.9010590  27.4525790  80.1193310 128.9896650  27.5298910
  79.4308830 128.3278190  27.4648900  80.8399330 128.5434920  27.9747370
  80.7493710 125.5848280  13.5889170  81.0296000 124.7416180  13.9448590
  79.9759440 125.8171390  14.1027920  72.0688200 127.8740670  11.0480170
  72.3714100 127.8808100  10.1399320  72.8082790 127.5238530  11.5447830
  76.9036840 142.6397530  26.0296610  76.8295540 143.5432670  26.3368980
  76.0015680 142.3209430  26.0018680  75.2873130 126.8175290  12.0336370
  74.9395130 126.1399280  11.4538820  75.4885900 126.3564800  12.8479760
  77.4522170 141.8056040  13.6522970  78.3472960 142.1441010  13.6741730
  77.4839800 141.0835450  13.0247250  71.0918330 137.1783090  11.8809970
  71.5293200 137.7212760  12.5367550  71.5766060 136.3530040  11.8906310
  68.3064130 139.9672120  19.3330230  68.6367140 139.0993180  19.1008870
  68.7355130 140.1730640  20.1635190  72.9026050 138.2981130  16.9932200
  72.6021590 138.1746100  17.8936110  72.7963540 137.4389720  16.5847930
  68.7954340 140.8342710  22.0711860  68.3585330 141.0143510  22.9036010
  69.3632020 141.5917330  21.9293580  84.4316520 140.3359710  26.3589170
  83.8318510 140.3952270  25.6153090  84.5610420 139.3964690  26.4886020
  85.6717970 138.0777530  11.6958880  84.8410930 138.1454180  12.1666110
  85.8489800 138.9681650  11.3925740  85.1274430 134.8225010  14.1993080
  85.8893340 135.3921660  14.3052770  85.1428800 134.2552210  14.9701390
  68.6278770 133.3462940  18.4300740  67.9727610 133.0774580  17.7860440
  69.4656720 133.2367420  17.9802720  86.1334400 135.6775110  19.0435010
  86.5043230 134.8942430  18.6370980  86.7736330 136.3664210  18.8652310
  83.1168160 137.0611690  24.4565330  82.3028000 137.4908850  24.7191120
  83.5242360 137.6730100  23.8434380  85.1793600 135.1159380  11.3565600
  85.4542440 136.0238260  11.2284820  84.9904340 135.0521910  12.2927590
  81.5769210 128.1404230  12.6519230  81.9954090 127.9535210  11.8115890
  81.2705270 127.2883280  12.9622160  85.0758940 133.0528370  16.3495030
  84.7002540 132.2856300  15.9176320  84.3462060 133.4351070  16.8369960
  69.6654700 133.7315510  22.9704080  70.0327740 133.6442910  23.8500100
  69.0965520 132.9682060  22.8710940  84.4658560 132.1999890  25.9834550
  84.2344650 131.9712640  25.0832500  84.7263110 133.1199440  25.9379440
  69.2170700 130.6424600  26.8762500  68.3226750 130.6091360  27.2156210
  69.7568250 130.8411390  27.6413750  82.9046630 127.4256320  28.7614250
  83.7816810 127.4339720  29.1448250  82.9167470 126.6887160  28.1506600
  67.8416850 130.5561870  14.3726070  66.9380930 130.8192070  14.1977730
  68.3257470 130.8273040  13.5926030  84.3509900 131.2785860  19.6502270
  84.8747380 130.7848510  19.0192440  84.9369320 131.4136220  20.3949840
  84.5299620 131.3625730  23.1721820  83.5802330 131.3289270  23.2866810
  84.7112630 132.2725840  22.9371590  70.3844060 129.6127410  12.2820450
  71.0935760 129.1910630  11.7967730  69.6684000 129.6802640  11.6503800
  70.0318220 125.6666740  11.3223100  70.7546350 126.2075680  11.6404320
  70.3042740 125.3930160  10.4464640  83.8409870 130.5359210  15.5894680
  84.3368990 130.3030080  16.3743560  83.6425940 129.6971050  15.1732320
  69.7210410 124.9172930  21.2245720  70.3686600 124.3670310  20.7840880
  70.1412250 125.1716080  22.0461530  85.2697030 129.1720160  18.1232360
  85.1596310 129.0176200  19.0614630  86.0304620 128.6441100  17.8807770
  83.6162750 125.1114290  24.5815360  84.2534970 125.7248430  24.9474550
  83.7637640 125.1474950  23.6364590  86.1587300 127.0028080  11.3638500
  87.0836610 126.8709260  11.1556790  86.1363090 127.0820900  12.3174950
  86.2325790 127.7738740  13.9895210  85.4377290 127.7083860  14.5188120
  86.4369070 128.7089380  13.9780560  83.1744210 141.8130290  17.9833600
  83.7703280 141.4914860  17.3068020  83.4322360 141.3402110  18.7746870
  69.4742410 125.0728600  23.9671040  69.1257230 125.5292420  24.7329220
  69.1430110 124.1785730  24.0493470  71.0806780 138.2448200  28.1324230
  71.0376410 137.8741110  29.0138690  71.2117790 139.1825770  28.2726050
  74.7812810 139.8007790  23.7333950  74.5404170 140.0682350  22.8464470
  75.7215450 139.9713520  23.7884810  76.9867230 126.2640480  27.4890460
  76.9256120 126.8562310  28.2385870  77.9267610 126.1566440  27.3440720
  79.6241790 125.9210540  27.1282750  80.2382200 126.2389830  26.4663830
  80.1691350 125.4359130  27.7478610  86.0416970 141.8202170  24.5344590
  85.5475250 142.2171040  23.8171720  85.4330260 141.1951380  24.9281870
  70.1463050 124.6004800  27.2421810  70.6946040 124.4192850  26.4787920
  70.2118360 123.8098910  27.7778120  70.9194810 141.1910450  25.2522010
  70.3255130 141.0595150  25.9912050  70.9118650 140.3548590  24.7864110
  80.3649830 124.4842680  23.4552040  79.4909670 124.8177790  23.2524970
  80.2560580 124.0115860  24.2803910  81.2721810 126.6913550  24.8393760
  80.9435170 125.8765310  24.4595490  82.2204110 126.6483360  24.7159450
  83.7256420 142.4625590  21.8131330  83.2659390 143.2141400  21.4389350
  83.0968880 141.7432060  21.7546130  70.5507040 138.5568830  24.2030050
  69.8241100 137.9374120  24.1356000  70.6116190 138.9509440  23.3328130
  74.1552140 140.7713830  20.9879460  74.6717160 140.1601190  20.4627720
  74.8049520 141.2742610  21.4790470  76.8947640 141.6622320  21.8148440
  77.1825450 141.4076620  20.9381450  77.4070860 141.1099680  22.4054010
  78.1124650 125.4012520  22.3944950  77.3296440 125.8758020  22.6741710
  77.8187580 124.4967350  22.2858130  82.6645720 126.1035620  20.4394040
  83.1053810 126.0480720  19.5915640  82.3953310 127.0193630  20.5104220
  84.5284290 125.7350860  18.4502860  84.4672690 124.7912080  18.3033880
  85.3076320 125.8430950  18.9956320  68.8337040 141.8743220  17.4126810
  68.6659080 141.2413900  18.1108700  67.9671550 142.0802620  17.0621000
  69.4565060 125.7060000  14.9158670  70.2144420 125.8188880  14.3422700
  68.9942230 126.5429200  14.8702100  75.9978870 127.8199270  17.9060980
  75.1853380 127.4456160  17.5656860  76.5020510 127.0644350  18.2082170
  80.5003850 124.4841720  19.1444050  81.1033220 125.0561930  19.6192570
  79.7596840 125.0481160  18.9217950  83.6438450 124.8863280  14.4184330
  83.8389080 125.7846730  14.6851760  82.8568320 124.6550360  14.9117280
  70.4399740 140.5676450  14.8576950  69.9147360 140.9484480  14.1538910
  70.3644320 141.1927220  15.5786660  71.8290210 126.2324050  13.4560640
  72.3582970 125.4453850  13.3268590  72.4618530 126.9115240  13.6896170
  74.0228050 125.9699190  16.5106030  73.3930790 125.2686500  16.6776160
  73.4833190 126.7303320  16.2939190  76.9620000 142.5838420  29.1816640
  77.8887310 142.3482690  29.2252600  76.9470430 143.4110420  28.7002670
  85.1965060 142.1263990  16.1790890  85.3717250 141.4401730  15.5351810
  84.4986630 142.6511040  15.7867560  74.1483610 125.2483170  28.9458520
  73.8667880 125.7516770  28.1819340  74.5303310 124.4504920  28.5800650
  73.0392710 142.5158830  13.7326200  73.7711530 142.2318110  13.1850090
  73.2986380 142.2772110  14.6225580  72.2007500 138.6323560  13.7372530
  71.5716380 139.1008660  14.2858360  72.3155330 137.7872780  14.1718720
  80.7499070 124.6636750  29.5238990  80.6364520 124.9831360  30.4190510
  81.5668810 125.0649260  29.2276270  83.5297560 141.8108280  29.0057680
  84.3222880 141.3157510  28.7983640  83.8230710 142.4898420  29.6133290
  77.7875260 134.4608240   1.7683000  77.0117360 133.9808680   2.0581570
  78.4388190 133.7813890   1.5939160  71.8041090 134.7728050   2.6458760
  70.9725970 134.5176760   3.0455270  72.4122070 134.8438820   3.3816680
  71.7842350 138.8068140   2.8416780  72.0870390 137.9165880   2.6627000
  72.5285940 139.3638360   2.6139030  77.2284250 137.1365430   1.7753160
  77.1592530 136.1955370   1.6142290  77.9904110 137.2266840   2.3475730
  69.4190920 127.7419950   4.1009780  69.2393760 126.8445700   4.3812540
  69.0171000 128.2891820   4.7756730  70.0377590 130.2380450   2.7092120
  70.7187700 130.5018820   3.3279520  69.7225640 129.3981320   3.0430130
  74.2302160 131.2847810   1.7964710  74.7380380 131.7828780   2.4369730
  74.7615400 130.5083010   1.6204070  86.3313090 129.4553000   5.4994060
  85.6265260 129.8434710   4.9809170  86.5971010 130.1503290   6.1014990
  72.5138260 125.9246370   6.0628130  72.5156700 126.4418760   5.2574030
  71.6842570 125.4476550   6.0398060  73.7641110 135.5641550   4.2401630
  73.4310490 136.1910470   4.8822700  73.9407790 136.0903430   3.4603300
  72.1953590 127.6356330   4.0698580  72.5370400 128.4798380   3.7752450
  71.2569400 127.7840070   4.1863920  72.9760210 137.5322350   6.0550810
  73.5934210 138.2073430   5.7735260  72.1153330 137.9410330   5.9638310
  83.8937800 138.9961760   3.9705450  83.2101320 139.6660870   3.9622120
  84.4332090 139.1942410   3.2050310  85.3461940 128.8241420   2.0987180
  84.3986850 128.8580400   2.2302610  85.6711930 129.6380370   2.4836540
  81.4296540 140.8405890   2.6850630  81.4423700 140.4368180   1.8172890
  80.8771760 141.6153180   2.5812060  80.8281980 135.7435730   4.0133240
  81.2450770 135.5295840   3.1786700  81.5521800 136.0008520   4.5841860
  84.7744080 134.1422950   4.1049480  83.9462710 134.2116040   3.6299610
  85.3694560 134.7277260   3.6365310  81.7386090 130.9292270   5.0504350
  81.3257270 131.7545980   5.3044340  81.0062040 130.3437310   4.8580710
  72.5847500 130.4895380   3.6922060  73.1362090 130.5990720   2.9175310
  73.0991010 130.8632980   4.4077290  82.4286190 140.9751600   5.7385330
  81.9516750 141.7823790   5.5457940  81.7447980 140.3229930   5.8911540
  73.4319010 137.1401420   8.7270030  72.5347540 137.3641390   8.9743430
  73.4571880 137.2636360   7.7781430  72.2590230 134.0114740   7.3027400
  72.1198000 134.8837540   7.6714800  71.3771590 133.6687550   7.1575340
  74.0570580 139.9536440   9.5112550  74.0286010 140.3579390   8.6440980
  73.8935550 139.0246800   9.3484150  86.0085400 140.7363540  10.8076720
  86.4845120 141.2146430  11.4865800  86.6292560 140.6681030  10.0822220
  68.2108880 135.7812290   3.2198310  68.2889300 135.9161060   2.2754030
  68.8250560 135.0728180   3.4126430  85.4118650 137.9276390   7.9676730
  85.5381710 137.6888270   7.0493910  85.4540030 137.0960930   8.4398810
  79.2735390 141.6304390   6.5371540  79.7880060 141.5412400   7.3393970
  78.4304470 141.9764090   6.8299450  85.2642660 129.9808850   8.9326470
  84.6486930 130.4888520   8.4041930  84.9439080 129.0807180   8.8752410
  68.2668400 136.8226460   5.7592770  68.4299440 136.3531820   4.9412140
  68.7320850 136.3150020   6.4241610  77.3256980 128.8200740   6.3988660
  76.8636350 129.0283760   7.2108600  76.9235090 128.0060090   6.0959330
  82.3261490 130.0409690   7.5285320  81.4755080 129.7415440   7.8494390
  82.1663280 130.2851700   6.6169140  79.4211200 131.5411440   9.6284110
  79.7464610 130.7075190   9.2886340  80.2091530 132.0639960   9.7762440
  75.0763070 126.4979550   2.6542940  75.3735400 127.4042380   2.5734960
  75.6248630 126.0098330   2.0402510  75.2700600 131.9751370   9.1894860
  75.1744200 131.0346100   9.0395260  76.1132580 132.1966440   8.7942930
  70.4011140 128.3865040   7.3428640  70.0074530 129.2340250   7.5501420
  69.7129540 127.7491410   7.5337280  76.9756190 128.4700010  10.4125380
  76.2854510 128.2772210  11.0471470  77.7188490 128.7534650  10.9449680
  79.2519160 132.3098450   3.2479300  78.5200280 132.8185260   3.5969400
  78.8543500 131.4928430   2.9468080  79.7145070 127.7632130   2.6602240
  79.7317810 128.2140780   3.5044090  79.4660650 126.8637770   2.8735680
  83.1415820 125.1764310   8.4988620  83.4661590 124.4453970   9.0246600
  83.1772330 124.8577950   7.5969610  69.8407380 136.1977890   7.9188580
  69.4562170 135.5571560   8.5171540  70.1519570 136.9014010   8.4883310
  75.9904520 133.0454430   3.3997200  76.3574650 132.5713000   4.1458540
  75.8009580 133.9196000   3.7405540  73.7803890 132.0863070   5.7181410
  73.4760960 132.9655050   5.9431770  74.7350350 132.1462860   5.7538850
  83.0673660 135.2889420   2.1074650  83.7872780 135.7844710   1.7170760
  82.8655480 134.6107310   1.4628520  78.4492460 135.3598480   7.9943650
  78.3829770 134.4394150   7.7401240  77.8197600 135.4573920   8.7088290
  69.8367620 132.9265810   6.8652770  69.4782560 133.5919660   7.4526110
  69.5422180 132.0949360   7.2365390  73.0380740 133.3850050   9.7492320
  72.7380880 133.5307230   8.8520140  73.8091980 132.8255340   9.6565710
  78.3809190 138.1819050   7.7447450  78.3953730 137.2500010   7.5266360
  77.6734290 138.2678810   8.3837220  84.5920400 134.8226390   7.0916030
  83.8668590 135.4155170   6.8945420  85.1195860 134.8149930   6.2929400
  77.8143090 139.8236620   4.8387950  78.4585310 140.0296000   5.5161370
  78.1772530 139.0625020   4.3858800  79.0875170 137.8268970   3.5565400
  79.7297400 137.1262130   3.6697570  79.6124520 138.6067410   3.3762290
  80.8612790 138.6263870   6.7601460  81.1969030 139.2130560   7.4379380
  79.9413130 138.4956580   6.9899250  68.4116190 126.4159050   7.5424870
  67.6974710 126.6155970   8.1477480  68.8311230 125.6398620   7.9139670
  68.6988780 140.4039310   8.5291400  68.8079900 139.4634050   8.3886790
  68.0469340 140.6694060   7.8805130  76.6901370 138.6755200   9.9289520
  76.3698240 137.9564440  10.4735210  76.0159730 139.3510270  10.0025580
  79.9054970 128.9081360   5.2926320  80.2735790 128.0876570   5.6205890
  79.0453170 128.9683250   5.7081970  76.8656960 131.5620950   5.5164290
  77.3642210 132.0366770   6.1816140  77.0079910 130.6384470   5.7234320
  84.0723820 127.7788910   6.3592680  83.5697420 128.5194310   6.6986490
  84.8880480 128.1672910   6.0429470  70.8447220 141.4708220  10.3411010
  71.6459950 141.7920270  10.7546410  70.3299040 141.1103800  11.0630920
  79.6811850 137.5788090  10.2886420  79.0750010 137.6019690   9.5482170
  79.3765960 136.8471130  10.8253670  81.1112220 141.3068380   8.8995830
  82.0633970 141.2226400   8.8496070  80.9640440 141.9710090   9.5729620
  68.5645030 133.9581680   9.2847060  69.0684050 133.3788960   9.8563290
  67.8252450 134.2421910   9.8223430  75.6182970 135.3652670   8.8182580
  74.8528640 135.9337670   8.7337250  75.7998930 135.0728880   7.9250810
  82.7606320 137.0958000   9.3757600  83.5015790 137.4333760   8.8725060
  81.9979000 137.2650060   8.8227370  70.5968110 132.1011270  10.1797130
  70.6373450 131.8025140  11.0882360  71.4513610 132.5018880  10.0204650
  72.5373920 130.6803370   8.1471620  72.0070380 130.1894320   7.5194960
  73.2061990 131.1087570   7.6129550  81.4351980 135.1472830   7.9112810
  81.8493000 135.3017910   8.7603230  80.5002980 135.2728050   8.0738590
  81.9074150 132.4868990   9.9151960  82.4894920 131.7321310   9.8272440
  82.0835920 133.0176430   9.1383440  73.0246220 127.6465740   8.2268910
  72.9303090 127.0286490   7.5019780  72.4443610 128.3732030   7.9998820
  75.7907660 126.2038980   5.2596300  75.3424960 126.2263240   4.4141850
  75.1572860 125.8058000   5.8566600  76.1967210 135.0993310   5.8808740
  76.6155320 135.9426040   5.7084980  75.2775840 135.2365350   5.6515520
  78.5331110 132.8309490   7.2646580  78.6527320 132.2350630   8.0041420
  79.3925110 132.8679180   6.8447880  80.8719010 133.3846680   5.8409090
  80.3454230 133.9089300   5.2374230  81.2150350 134.0174070   6.4718820
  74.0474630 141.4046320   6.9966470  73.5095720 142.1292380   6.6775170
  74.3008590 140.9276660   6.2063810  75.2999880 129.3730840   8.5222400
  75.8899570 129.0646690   9.2100220  74.4820120 128.9010590   8.6782300
  80.1193310 128.9896650   8.7555420  79.4308830 128.3278190   8.6905410
  80.8399330 128.5434920   9.2003880  76.9036840 142.6397530   7.2553120
  76.8295540 143.5432670   7.5625490  76.0015680 142.3209430   7.2275190
  68.7954340 140.8342710   3.2968370  68.3585330 141.0143510   4.1292520
  69.3632020 141.5917330   3.1550090  84.4316520 140.3359710   7.5845680
  83.8318510 140.3952270   6.8409600  84.5610420 139.3964690   7.7142530
  83.1168160 137.0611690   5.6821840  82.3028000 137.4908850   5.9447630
  83.5242360 137.6730100   5.0690890  69.6654700 133.7315510   4.1960590
  70.0327740 133.6442910   5.0756610  69.0965520 132.9682060   4.0967450
  84.4658560 132.1999890   7.2091060  84.2344650 131.9712640   6.3089010
  84.7263110 133.1199440   7.1635950  69.2170700 130.6424600   8.1019010
  68.3226750 130.6091360   8.4412720  69.7568250 130.8411390   8.8670260
  82.9046630 127.4256320   9.9870760  83.7816810 127.4339720  10.3704760
  82.9167470 126.6887160   9.3763110  84.5299620 131.3625730   4.3978330
  83.5802330 131.3289270   4.5123320  84.7112630 132.2725840   4.1628100
  69.7210410 124.9172930   2.4502230  70.3686600 124.3670310   2.0097390
  70.1412250 125.1716080   3.2718040  83.6162750 125.1114290   5.8071870
  84.2534970 125.7248430   6.1731060  83.7637640 125.1474950   4.8621100
  69.4742410 125.0728600   5.1927550  69.1257230 125.5292420   5.9585730
  69.1430110 124.1785730   5.2749980  71.0806780 138.2448200   9.3580740
  71.0376410 137.8741110  10.2395200  71.2117790 139.1825770   9.4982560
  74.7812810 139.8007790   4.9590460  74.5404170 140.0682350   4.0720980
  75.7215450 139.9713520   5.0141320  76.9867230 126.2640480   8.7146970
  76.9256120 126.8562310   9.4642380  77.9267610 126.1566440   8.5697230
  79.6241790 125.9210540   8.3539260  80.2382200 126.2389830   7.6920340
  80.1691350 125.4359130   8.9735120  86.0416970 141.8202170   5.7601100
  85.5475250 142.2171040   5.0428230  85.4330260 141.1951380   6.1538380
  70.1463050 124.6004800   8.4678320  70.6946040 124.4192850   7.7044430
  70.2118360 123.8098910   9.0034630  70.9194810 141.1910450   6.4778520
  70.3255130 141.0595150   7.2168560  70.9118650 140.3548590   6.0120620
  80.3649830 124.4842680   4.6808550  79.4909670 124.8177790   4.4781480
  80.2560580 124.0115860   5.5060420  81.2721810 126.6913550   6.0650270
  80.9435170 125.8765310   5.6852000  82.2204110 126.6483360   5.9415960
  83.7256420 142.4625590   3.0387840  83.2659390 143.2141400   2.6645860
  83.0968880 141.7432060   2.9802640  70.5507040 138.5568830   5.4286560
  69.8241100 137.9374120   5.3612510  70.6116190 138.9509440   4.5584640
  74.1552140 140.7713830   2.2135970  74.6717160 140.1601190   1.6884230
  74.8049520 141.2742610   2.7046980  76.8947640 141.6622320   3.0404950
  77.1825450 141.4076620   2.1637960  77.4070860 141.1099680   3.6310520
  78.1124650 125.4012520   3.6201460  77.3296440 125.8758020   3.8998220
  77.8187580 124.4967350   3.5114640  76.9620000 142.5838420  10.4073150
  77.8887310 142.3482690  10.4509110  76.9470430 143.4110420   9.9259180
  74.1483610 125.2483170  10.1715030  73.8667880 125.7516770   9.4075850
  74.5303310 124.4504920   9.8057160  80.7499070 124.6636750  10.7495500
  80.6364520 124.9831360  11.6447020  81.5668810 125.0649260  10.4532780
  83.5297560 141.8108280  10.2314190  84.3222880 141.3157510  10.0240150
  83.8230710 142.4898420  10.8389800  79.6557220 113.9085730 150.0821650
  79.5751270 112.9940340 149.8113360  79.2421640 114.4052800 149.3761360
  81.8082690 120.0924940 150.7430050  81.3464220 119.3212180 151.0717220
  82.6208240 120.1191010 151.2482500  70.2133040 110.9586450 146.6249070
  69.3249740 111.3002420 146.5228950  70.4974230 110.7586770 145.7329900
  78.0346000 122.3782950 150.3634040  77.4157440 122.8340450 149.7928480
  78.8897780 122.5334410 149.9623740  72.3894430 109.5417950 147.6587450
  72.4961180 110.4421680 147.9656210  71.4786790 109.4935920 147.3682100
  82.0413540 108.6642760 149.1298350  82.8623160 108.1739330 149.1723830
  82.0747620 109.2540420 149.8830190  78.9009350 117.2622190 147.7565950
  78.2826620 117.7271640 147.1928670  79.4132600 117.9549670 148.1735460
  68.2692550 117.9478720 145.1305580  67.8920530 118.4365820 144.3990480
  68.5265620 118.6204000 145.7612110  75.8781480 106.3495110 150.5891090
  76.1856460 105.7942000 149.8726590  74.9482180 106.4839570 150.4064080
  82.7241960 118.7878620 147.9688720  82.6138290 117.8452950 148.0938140
  82.7210210 119.1494260 148.8551480  78.2662240 114.4143940 147.3251210
  77.3391520 114.3481320 147.5539680  78.4187060 115.3524070 147.2106450
  78.2531320 110.6860940 144.3218370  77.3134990 110.8474900 144.4070830
  78.5714580 111.4046620 143.7754360  82.2959530 115.9764240 147.8286460
  81.6771950 115.6383790 147.1812760  82.2783980 115.3324000 148.5365650
  73.8718880 114.9408680 150.1070940  73.4675880 114.2285930 149.6116840
  73.9582000 114.5961920 150.9958980  80.4724230 115.2151050 144.8359210
  80.9117510 114.3773480 144.6897030  81.1852650 115.8480450 144.9223350
  78.5819610 120.1547120 148.8040450  79.0215520 120.8971450 148.3895840
  78.5206500 120.3973690 149.7279410  84.0541370 106.4693860 143.1500250
  83.7414030 106.5620690 144.0499320  84.8153840 107.0474890 143.0997680
  70.5723510 113.8353660 147.6077590  70.4521110 114.5615750 146.9958860
  70.2624400 113.0656570 147.1305500  69.4556510 118.7068990 149.8252410
  69.0484590 118.8483580 148.9706010  70.3469520 118.4229150 149.6223620
  81.2489790 123.1416240 146.1603460  81.0890930 122.8519180 147.0585290
  81.0836500 122.3656370 145.6248690  73.7278170 122.9214770 147.9375080
  73.5520650 122.0050310 147.7242880  72.8733910 123.2802060 148.1772880
  80.9515920 120.6503800 144.7201460  80.2581080 120.6481090 144.0603740
  81.6938780 120.2263120 144.2895630  80.5165850 122.2766510 148.7949950
  80.9722800 121.4955890 149.1088570  80.8558370 122.9873330 149.3391130
  73.0387170 107.1788730 150.9901260  72.5955320 107.9598270 150.6585780
  73.5972160 107.5018620 151.6972200  76.1545990 106.7999430 145.8707090
  75.5300170 106.7959300 146.5960400  76.0676110 105.9330390 145.4743060
  72.8301390 112.3022300 148.7182510  72.6042310 112.0859470 149.6229130
  72.0493920 112.7350760 148.3728480  80.0599150 112.3085670 147.3173160
  79.4608040 113.0321470 147.1336780  80.6078760 112.2462450 146.5349610
  78.6664020 110.9449210 149.3476440  79.0593590 111.2621410 148.5345130
  79.0280870 110.0661090 149.4620960  67.8898420 111.4770130 142.7809360
  67.8073090 112.4200890 142.9224350  67.5381480 111.3345040 141.9021710
  71.5398930 110.0935650 150.8073920  71.1998980 110.5710880 151.5640970
  70.7776250 109.6400770 150.4475020  75.7516700 111.2121240 144.8386470
  75.8729520 111.1707720 145.7872290  75.3665210 112.0745390 144.6833200
  74.7638200 113.5222380 144.2369770  74.1955100 113.0740630 143.6105680
  75.4727200 113.8815160 143.7034920  68.8545010 109.0154630 149.7238590
  68.5691930 108.6510300 150.5617210  68.7923870 108.2835090 149.1101730
  72.3085680 117.5180570 146.5096180  71.5347940 116.9778190 146.3494900
  73.0380310 116.9987180 146.1713940  78.5283600 107.9083890 146.4451960
  77.7148210 107.4097060 146.3697270  78.3345550 108.7482140 146.0288310
  81.2431990 112.2803540 144.7414120  82.1311610 112.5920770 144.5665460
  81.2137080 111.4075790 144.3494700  72.3523080 117.1860950 150.1474990
  72.8701750 116.3829210 150.0931880  71.9007100 117.1240090 150.9891820
  77.2392580 118.4527230 145.4202290  77.5808280 119.1969460 144.9245610
  76.4105290 118.7658350 145.7827120  83.5146260 113.5915380 144.2093980
  83.4309980 114.0229600 143.3590420  84.2340450 114.0513730 144.6420800
  84.5433510 120.4457640 146.9376110  83.9009670 119.7913260 147.2119830
  84.1564170 120.8512730 146.1616780  80.1219990 117.7743070 150.7847800
  80.4743810 117.1771200 150.1249170  79.2382320 117.4487300 150.9556050
  76.2083270 118.5340760 148.1918210  76.8954400 119.0809970 148.5725800
  75.4215690 119.0781490 148.2267820  68.3475670 114.1513580 143.6835290
  69.2170520 114.4338380 143.9671210  67.8565990 114.9649450 143.5684100
  75.5110480 115.5386790 147.8043570  75.9673260 116.3492040 148.0303760
  75.1598690 115.2209930 148.6362060  71.4122260 105.8824440 148.2766090
  71.2836890 105.8742340 149.2251010  70.5884280 106.2207530 147.9257100
  82.9330890 119.3374100 143.4752460  82.7068470 118.6204540 144.0677100
  82.5427090 119.0886540 142.6374210  68.7146920 123.3640960 144.2496920
  69.0744560 123.9630300 143.5954190  68.5739260 123.9100850 145.0231950
  82.5147140 117.2546040 145.1366620  82.2268840 117.7158730 145.9244500
  83.3099310 116.7943810 145.4050840  74.7315540 120.7472160 145.0670590
  74.7225640 121.4801850 144.4515100  73.8113900 120.5003740 145.1597550
  70.3322180 115.9687050 145.8117350  69.7250130 116.7085950 145.8212650
  70.8071530 116.0586410 144.9855550  83.2717000 109.0894810 146.2961800
  82.6430160 109.1940480 145.5820030  82.7768920 109.3091590 147.0855680
  77.7175140 120.8100400 143.7295780  77.8187120 120.6064390 142.7997760
  76.8176880 120.5558680 143.9343560  75.2401030 111.3680760 147.7119680
  74.5317180 111.8367100 148.1533290  75.5245510 110.7102770 148.3464870
  79.2716460 108.0931420 149.1515470  79.1484240 108.1117550 148.2024980
  80.2201020 108.1410360 149.2713870  76.3593250 123.3286720 148.4243450
  76.6134750 123.2908110 147.5022820  75.4105730 123.2020050 148.4171700
  73.4436050 109.6765840 145.0870390  74.2926580 110.1135990 145.0210580
  73.0767320 109.9886100 145.9142450  82.3645830 114.2478600 150.0001960
  81.4235970 114.2628830 150.1749650  82.6789900 113.4614560 150.4462260
  72.3427470 115.9298200 143.5605920  73.1090740 115.8179560 144.1231350
  72.4202160 115.2336170 142.9082690  71.0374230 113.3623270 144.2438810
  71.1177820 112.4150780 144.3556210  71.9293980 113.6930150 144.3499470
  71.8388940 123.5118660 151.3473350  72.5751420 122.9634120 151.6181920
  72.2229860 124.3774670 151.2079340  68.7234420 119.5792230 147.2214860
  67.7974200 119.8213370 147.2120270  69.1890850 120.4066490 147.0999610
  74.9491250 122.6848970 143.1698920  75.7419860 122.9737800 142.7180710
  74.4295600 122.2541140 142.4911400  84.0021420 121.9119100 144.5935660
  83.7162930 121.4984240 143.7789840  83.8040970 122.8406810 144.4736180
  75.4668650 117.9052380 143.0341270  75.3619290 117.2904730 143.7602650
  75.2992870 117.3818270 142.2504280  78.7071380 116.9672410 143.6383260
  78.1581480 117.4141710 144.2826000  79.3290640 116.4621660 144.1620930
  74.3746500 115.9263330 145.5348560  74.7962920 115.7603200 146.3779950
  74.4997340 115.1163560 145.0403700  76.8874140 114.9500940 142.7825660
  77.4079800 114.2349960 142.4166810  77.5342540 115.5886810 143.0826170
  73.2705400 111.9996560 142.4806720  73.0694460 111.1363920 142.8420060
  73.0997450 111.9129920 141.5428320  80.7493710 106.8104790 145.0093600
  81.0296000 105.9672690 145.3653020  79.9759440 107.0427900 145.5232350
  72.0688200 109.0997180 142.4684600  72.3714100 109.1064610 141.5603750
  72.8082790 108.7495040 142.9652260  75.2873130 108.0431800 143.4540800
  74.9395130 107.3655790 142.8743250  75.4885900 107.5821310 144.2684190
  77.4522170 123.0312550 145.0727400  78.3472960 123.3697520 145.0946160
  77.4839800 122.3091960 144.4451680  71.0918330 118.4039600 143.3014400
  71.5293200 118.9469270 143.9571980  71.5766060 117.5786550 143.3110740
  68.3064130 121.1928630 150.7534660  68.6367140 120.3249690 150.5213300
  68.7355130 121.3987150 151.5839620  72.9026050 119.5237640 148.4136630
  72.6021590 119.4002610 149.3140540  72.7963540 118.6646230 148.0052360
  85.6717970 119.3034040 143.1163310  84.8410930 119.3710690 143.5870540
  85.8489800 120.1938160 142.8130170  85.1274430 116.0481520 145.6197510
  85.8893340 116.6178170 145.7257200  85.1428800 115.4808720 146.3905820
  68.6278770 114.5719450 149.8505170  67.9727610 114.3031090 149.2064870
  69.4656720 114.4623930 149.4007150  86.1334400 116.9031620 150.4639440
  86.5043230 116.1198940 150.0575410  86.7736330 117.5920720 150.2856740
  85.1793600 116.3415890 142.7770030  85.4542440 117.2494770 142.6489250
  84.9904340 116.2778420 143.7132020  81.5769210 109.3660740 144.0723660
  81.9954090 109.1791720 143.2320320  81.2705270 108.5139790 144.3826590
  85.0758940 114.2784880 147.7699460  84.7002540 113.5112810 147.3380750
  84.3462060 114.6607580 148.2574390  67.8416850 111.7818380 145.7930500
  66.9380930 112.0448580 145.6182160  68.3257470 112.0529550 145.0130460
  70.3844060 110.8383920 143.7024880  71.0935760 110.4167140 143.2172160
  69.6684000 110.9059150 143.0708230  70.0318220 106.8923250 142.7427530
  70.7546350 107.4332190 143.0608750  70.3042740 106.6186670 141.8669070
  83.8409870 111.7615720 147.0099110  84.3368990 111.5286590 147.7947990
  83.6425940 110.9227560 146.5936750  85.2697030 110.3976670 149.5436790
  85.1596310 110.2432710 150.4819060  86.0304620 109.8697610 149.3012200
  86.1587300 108.2284590 142.7842930  87.0836610 108.0965770 142.5761220
  86.1363090 108.3077410 143.7379380  86.2325790 108.9995250 145.4099640
  85.4377290 108.9340370 145.9392550  86.4369070 109.9345890 145.3984990
  83.1744210 123.0386800 149.4038030  83.7703280 122.7171370 148.7272450
  83.4322360 122.5658620 150.1951300  84.5284290 106.9607370 149.8707290
  84.4672690 106.0168590 149.7238310  85.3076320 107.0687460 150.4160750
  68.8337040 123.0999730 148.8331240  68.6659080 122.4670410 149.5313130
  67.9671550 123.3059130 148.4825430  69.4565060 106.9316510 146.3363100
  70.2144420 107.0445390 145.7627130  68.9942230 107.7685710 146.2906530
  75.9978870 109.0455780 149.3265410  75.1853380 108.6712670 148.9861290
  76.5020510 108.2900860 149.6286600  80.5003850 105.7098230 150.5648480
  81.1033220 106.2818440 151.0397000  79.7596840 106.2737670 150.3422380
  83.6438450 106.1119790 145.8388760  83.8389080 107.0103240 146.1056190
  82.8568320 105.8806870 146.3321710  70.4399740 121.7932960 146.2781380
  69.9147360 122.1740990 145.5743340  70.3644320 122.4183730 146.9991090
  71.8290210 107.4580560 144.8765070  72.3582970 106.6710360 144.7473020
  72.4618530 108.1371750 145.1100600  74.0228050 107.1955700 147.9310460
  73.3930790 106.4943010 148.0980590  73.4833190 107.9559830 147.7143620
  85.1965060 123.3520500 147.5995320  85.3717250 122.6658240 146.9556240
  84.4986630 123.8767550 147.2071990  73.0392710 123.7415340 145.1530630
  73.7711530 123.4574620 144.6054520  73.2986380 123.5028620 146.0430010
  72.2007500 119.8580070 145.1576960  71.5716380 120.3265170 145.7062790
  72.3155330 119.0129290 145.5923150  79.6557220 113.9085730 131.3078160
  79.5751270 112.9940340 131.0369870  79.2421640 114.4052800 130.6017870
  77.7875260 115.6864750 133.1887430  77.0117360 115.2065190 133.4786000
  78.4388190 115.0070400 133.0143590  71.8041090 115.9984560 134.0663190
  70.9725970 115.7433270 134.4659700  72.4122070 116.0695330 134.8021110
  81.8082690 120.0924940 131.9686560  81.3464220 119.3212180 132.2973730
  82.6208240 120.1191010 132.4739010  71.7842350 120.0324650 134.2621210
  72.0870390 119.1422390 134.0831430  72.5285940 120.5894870 134.0343460
  68.1766050 113.5592100 133.7345280  68.7482160 112.7914300 133.7348920
  68.1767590 113.8580860 132.8251890  78.0346000 122.3782950 131.5890550
  77.4157440 122.8340450 131.0184990  78.8897780 122.5334410 131.1880250
  77.2284250 118.3621940 133.1957590  77.1592530 117.4211880 133.0346720
  77.9904110 118.4523350 133.7680160  69.4190920 108.9676460 135.5214210
  69.2393760 108.0702210 135.8016970  69.0171000 109.5148330 136.1961160
  78.2589420 111.1692320 133.4226520  78.6354240 110.2964200 133.3100190
  78.1608930 111.5051020 132.5316960  72.3894430 109.5417950 128.8843960
  72.4961180 110.4421680 129.1912720  71.4786790 109.4935920 128.5938610
  82.0413540 108.6642760 130.3554860  82.8623160 108.1739330 130.3980340
  82.0747620 109.2540420 131.1086700  70.0377590 111.4636960 134.1296550
  70.7187700 111.7275330 134.7483950  69.7225640 110.6237830 134.4634560
  74.2302160 112.5104320 133.2169140  74.7380380 113.0085290 133.8574160
  74.7615400 111.7339520 133.0408500  86.3313090 110.6809510 136.9198490
  85.6265260 111.0691220 136.4013600  86.5971010 111.3759800 137.5219420
  72.5138260 107.1502880 137.4832560  72.5156700 107.6675270 136.6778460
  71.6842570 106.6733060 137.4602490  78.9009350 117.2622190 128.9822460
  78.2826620 117.7271640 128.4185180  79.4132600 117.9549670 129.3991970
  73.7641110 116.7898060 135.6606060  73.4310490 117.4166980 136.3027130
  73.9407790 117.3159940 134.8807730  82.2775020 110.6043140 133.1282400
  81.5730590 110.8928030 133.7085510  82.6387180 111.4143250 132.7681960
  72.1953590 108.8612840 135.4903010  72.5370400 109.7054890 135.1956880
  71.2569400 109.0096580 135.6068350  72.9760210 118.7578860 137.4755240
  73.5934210 119.4329940 137.1939690  72.1153330 119.1666840 137.3842740
  83.8937800 120.2218270 135.3909880  83.2101320 120.8917380 135.3826550
  84.4332090 120.4198920 134.6254740  85.3461940 110.0497930 133.5191610
  84.3986850 110.0836910 133.6507040  85.6711930 110.8636880 133.9040970
  75.8781480 106.3495110 131.8147600  76.1856460 105.7942000 131.0983100
  74.9482180 106.4839570 131.6320590  81.4296540 122.0662400 134.1055060
  81.4423700 121.6624690 133.2377320  80.8771760 122.8409690 134.0016490
  82.7241960 118.7878620 129.1945230  82.6138290 117.8452950 129.3194650
  82.7210210 119.1494260 130.0807990  80.8281980 116.9692240 135.4337670
  81.2450770 116.7552350 134.5991130  81.5521800 117.2265030 136.0046290
  78.2662240 114.4143940 128.5507720  77.3391520 114.3481320 128.7796190
  78.4187060 115.3524070 128.4362960  78.2531320 110.6860940 125.5474880
  77.3134990 110.8474900 125.6327340  78.5714580 111.4046620 125.0010870
  84.7744080 115.3679460 135.5253910  83.9462710 115.4372550 135.0504040
  85.3694560 115.9533770 135.0569740  82.2959530 115.9764240 129.0542970
  81.6771950 115.6383790 128.4069270  82.2783980 115.3324000 129.7622160
  81.7386090 112.1548780 136.4708780  81.3257270 112.9802490 136.7248770
  81.0062040 111.5693820 136.2785140  73.8718880 114.9408680 131.3327450
  73.4675880 114.2285930 130.8373350  73.9582000 114.5961920 132.2215490
  74.3400580 118.6276240 133.4966660  74.0428870 118.0221710 132.8174440
  75.2900400 118.6653550 133.3856020  72.5847500 111.7151890 135.1126490
  73.1362090 111.8247230 134.3379740  73.0991010 112.0889490 135.8281720
  82.4286190 122.2008110 137.1589760  81.9516750 123.0080300 136.9662370
  81.7447980 121.5486440 137.3115970  73.4319010 118.3657930 140.1474460
  72.5347540 118.5897900 140.3947860  73.4571880 118.4892870 139.1985860
  80.4724230 115.2151050 126.0615720  80.9117510 114.3773480 125.9153540
  81.1852650 115.8480450 126.1479860  72.2590230 115.2371250 138.7231830
  72.1198000 116.1094050 139.0919230  71.3771590 114.8944060 138.5779770
  78.5819610 120.1547120 130.0296960  79.0215520 120.8971450 129.6152350
  78.5206500 120.3973690 130.9535920  74.0570580 121.1792950 140.9316980
  74.0286010 121.5835900 140.0645410  73.8935550 120.2503310 140.7688580
  86.0085400 121.9620050 142.2281150  86.4845120 122.4402940 142.9070230
  86.6292560 121.8937540 141.5026650  68.2108880 117.0068800 134.6402740
  68.2889300 117.1417570 133.6958460  68.8250560 116.2984690 134.8330860
  69.4556510 118.7068990 131.0508920  69.0484590 118.8483580 130.1962520
  70.3469520 118.4229150 130.8480130  85.4118650 119.1532900 139.3881160
  85.5381710 118.9144780 138.4698340  85.4540030 118.3217440 139.8603240
  79.2735390 122.8560900 137.9575970  79.7880060 122.7668910 138.7598400
  78.4304470 123.2020600 138.2503880  81.2489790 123.1416240 127.3859970
  81.0890930 122.8519180 128.2841800  81.0836500 122.3656370 126.8505200
  73.7278170 122.9214770 129.1631590  73.5520650 122.0050310 128.9499390
  72.8733910 123.2802060 129.4029390  80.9515920 120.6503800 125.9457970
  80.2581080 120.6481090 125.2860250  81.6938780 120.2263120 125.5152140
  80.5165850 122.2766510 130.0206460  80.9722800 121.4955890 130.3345080
  80.8558370 122.9873330 130.5647640  85.2642660 111.2065360 140.3530900
  84.6486930 111.7145030 139.8246360  84.9439080 110.3063690 140.2956840
  68.2668400 118.0482970 137.1797200  68.4299440 117.5788330 136.3616570
  68.7320850 117.5406530 137.8446040  73.0387170 107.1788730 132.2157770
  72.5955320 107.9598270 131.8842290  73.5972160 107.5018620 132.9228710
  77.3256980 110.0457250 137.8193090  76.8636350 110.2540270 138.6313030
  76.9235090 109.2316600 137.5163760  82.3261490 111.2666200 138.9489750
  81.4755080 110.9671950 139.2698820  82.1663280 111.5108210 138.0373570
  79.4211200 112.7667950 141.0488540  79.7464610 111.9331700 140.7090770
  80.2091530 113.2896470 141.1966870  76.1545990 106.7999430 127.0963600
  75.5300170 106.7959300 127.8216910  76.0676110 105.9330390 126.6999570
  75.0763070 107.7236060 134.0747370  75.3735400 108.6298890 133.9939390
  75.6248630 107.2354840 133.4606940  72.8301390 112.3022300 129.9439020
  72.6042310 112.0859470 130.8485640  72.0493920 112.7350760 129.5984990
  80.0599150 112.3085670 128.5429670  79.4608040 113.0321470 128.3593290
  80.6078760 112.2462450 127.7606120  75.2700600 113.2007880 140.6099290
  75.1744200 112.2602610 140.4599690  76.1132580 113.4222950 140.2147360
  78.6664020 110.9449210 130.5732950  79.0593590 111.2621410 129.7601640
  79.0280870 110.0661090 130.6877470  70.4011140 109.6121550 138.7633070
  70.0074530 110.4596760 138.9705850  69.7129540 108.9747920 138.9541710
  76.9756190 109.6956520 141.8329810  76.2854510 109.5028720 142.4675900
  77.7188490 109.9791160 142.3654110  67.7028190 107.5350010 132.7963150
  67.4141240 108.1052870 133.5088130  68.4473950 107.0554460 133.1594380
  79.2519160 113.5354960 134.6683730  78.5200280 114.0441770 135.0173830
  78.8543500 112.7184940 134.3672510  75.6896550 110.2109160 133.0736220
  75.6932610 109.7699110 132.2240760  76.5847670 110.5326490 133.1808040
  71.5398930 110.0935650 132.0330430  71.1998980 110.5710880 132.7897480
  70.7776250 109.6400770 131.6731530  75.7516700 111.2121240 126.0642980
  75.8729520 111.1707720 127.0128800  75.3665210 112.0745390 125.9089710
  79.7145070 108.9888640 134.0806670  79.7317810 109.4397290 134.9248520
  79.4660650 108.0894280 134.2940110  74.7638200 113.5222380 125.4626280
  74.1955100 113.0740630 124.8362190  75.4727200 113.8815160 124.9291430
  83.1415820 106.4020820 139.9193050  83.4661590 105.6710480 140.4451030
  83.1772330 106.0834460 139.0174040  69.8407380 117.4234400 139.3393010
  69.4562170 116.7828070 139.9375970  70.1519570 118.1270520 139.9087740
  75.9904520 114.2710940 134.8201630  76.3574650 113.7969510 135.5662970
  75.8009580 115.1452510 135.1609970  73.7803890 113.3119580 137.1385840
  73.4760960 114.1911560 137.3636200  74.7350350 113.3719370 137.1743280
  72.3085680 117.5180570 127.7352690  71.5347940 116.9778190 127.5751410
  73.0380310 116.9987180 127.3970450  83.0673660 116.5145930 133.5279080
  83.7872780 117.0101220 133.1375190  82.8655480 115.8363820 132.8832950
  78.5283600 107.9083890 127.6708470  77.7148210 107.4097060 127.5953780
  78.3345550 108.7482140 127.2544820  78.4492460 116.5854990 139.4148080
  78.3829770 115.6650660 139.1605670  77.8197600 116.6830430 140.1292720
  81.2431990 112.2803540 125.9670630  82.1311610 112.5920770 125.7921970
  81.2137080 111.4075790 125.5751210  72.3523080 117.1860950 131.3731500
  72.8701750 116.3829210 131.3188390  71.9007100 117.1240090 132.2148330
  77.2392580 118.4527230 126.6458800  77.5808280 119.1969460 126.1502120
  76.4105290 118.7658350 127.0083630  69.8367620 114.1522320 138.2857200
  69.4782560 114.8176170 138.8730540  69.5422180 113.3205870 138.6569820
  73.0380740 114.6106560 141.1696750  72.7380880 114.7563740 140.2724570
  73.8091980 114.0511850 141.0770140  78.3809190 119.4075560 139.1651880
  78.3953730 118.4756520 138.9470790  77.6734290 119.4935320 139.8041650
  84.5920400 116.0482900 138.5120460  83.8668590 116.6411680 138.3149850
  85.1195860 116.0406440 137.7133830  84.5433510 120.4457640 128.1632620
  83.9009670 119.7913260 128.4376340  84.1564170 120.8512730 127.3873290
  80.1219990 117.7743070 132.0104310  80.4743810 117.1771200 131.3505680
  79.2382320 117.4487300 132.1812560  76.2083270 118.5340760 129.4174720
  76.8954400 119.0809970 129.7982310  75.4215690 119.0781490 129.4524330
  75.5110480 115.5386790 129.0300080  75.9673260 116.3492040 129.2560270
  75.1598690 115.2209930 129.8618570  77.8143090 121.0493130 136.2592380
  78.4585310 121.2552510 136.9365800  78.1772530 120.2881530 135.8063230
  71.4122260 105.8824440 129.5022600  71.2836890 105.8742340 130.4507520
  70.5884280 106.2207530 129.1513610  79.0875170 119.0525480 134.9769830
  79.7297400 118.3518640 135.0902000  79.6124520 119.8323920 134.7966720
  82.9330890 119.3374100 124.7008970  82.7068470 118.6204540 125.2933610
  82.5427090 119.0886540 123.8630720  80.8612790 119.8520380 138.1805890
  81.1969030 120.4387070 138.8583810  79.9413130 119.7213090 138.4103680
  68.4116190 107.6415560 138.9629300  67.6974710 107.8412480 139.5681910
  68.8311230 106.8655130 139.3344100  82.5147140 117.2546040 126.3623130
  82.2268840 117.7158730 127.1501010  83.3099310 116.7943810 126.6307350
  68.6988780 121.6295820 139.9495830  68.8079900 120.6890560 139.8091220
  68.0469340 121.8950570 139.3009560  76.6901370 119.9011710 141.3493950
  76.3698240 119.1820950 141.8939640  76.0159730 120.5766780 141.4230010
  74.7315540 120.7472160 126.2927100  74.7225640 121.4801850 125.6771610
  73.8113900 120.5003740 126.3854060  79.9054970 110.1337870 136.7130750
  80.2735790 109.3133080 137.0410320  79.0453170 110.1939760 137.1286400
  83.2717000 109.0894810 127.5218310  82.6430160 109.1940480 126.8076540
  82.7768920 109.3091590 128.3112190  77.7175140 120.8100400 124.9552290
  77.8187120 120.6064390 124.0254270  76.8176880 120.5558680 125.1600070
  75.2401030 111.3680760 128.9376190  74.5317180 111.8367100 129.3789800
  75.5245510 110.7102770 129.5721380  76.8656960 112.7877460 136.9368720
  77.3642210 113.2623280 137.6020570  77.0079910 111.8640980 137.1438750
  79.2716460 108.0931420 130.3771980  79.1484240 108.1117550 129.4281490
  80.2201020 108.1410360 130.4970380  76.3593250 123.3286720 129.6499960
  76.6134750 123.2908110 128.7279330  75.4105730 123.2020050 129.6428210
  73.4436050 109.6765840 126.3126900  74.2926580 110.1135990 126.2467090
  73.0767320 109.9886100 127.1398960  84.0723820 109.0045420 137.7797110
  83.5697420 109.7450820 138.1190920  84.8880480 109.3929420 137.4633900
  82.3645830 114.2478600 131.2258470  81.4235970 114.2628830 131.4006160
  82.6789900 113.4614560 131.6718770  84.3671410 121.4187450 132.9012730
  84.4918830 122.2418620 133.3736540  85.2336970 121.2078180 132.5536880
  71.8388940 123.5118660 132.5729860  72.5751420 122.9634120 132.8438430
  72.2229860 124.3774670 132.4335850  68.7234420 119.5792230 128.4471370
  67.7974200 119.8213370 128.4376780  69.1890850 120.4066490 128.3256120
  70.8447220 122.6964730 141.7615440  71.6459950 123.0176780 142.1750840
  70.3299040 122.3360310 142.4835350  74.9491250 122.6848970 124.3955430
  75.7419860 122.9737800 123.9437220  74.4295600 122.2541140 123.7167910
  79.6811850 118.8044600 141.7090850  79.0750010 118.8276200 140.9686600
  79.3765960 118.0727640 142.2458100  81.1112220 122.5324890 140.3200260
  82.0633970 122.4482910 140.2700500  80.9640440 123.1966600 140.9934050
  84.0021420 121.9119100 125.8192170  83.7162930 121.4984240 125.0046350
  83.8040970 122.8406810 125.6992690  68.5645030 115.1838190 140.7051490
  69.0684050 114.6045470 141.2767720  67.8252450 115.4678420 141.2427860
  75.4668650 117.9052380 124.2597780  75.3619290 117.2904730 124.9859160
  75.2992870 117.3818270 123.4760790  75.6182970 116.5909180 140.2387010
  74.8528640 117.1594180 140.1541680  75.7998930 116.2985390 139.3455240
  78.7071380 116.9672410 124.8639770  78.1581480 117.4141710 125.5082510
  79.3290640 116.4621660 125.3877440  82.7606320 118.3214510 140.7962030
  83.5015790 118.6590270 140.2929490  81.9979000 118.4906570 140.2431800
  70.5968110 113.3267780 141.6001560  70.6373450 113.0281650 142.5086790
  71.4513610 113.7275390 141.4409080  74.3746500 115.9263330 126.7605070
  74.7962920 115.7603200 127.6036460  74.4997340 115.1163560 126.2660210
  72.5373920 111.9059880 139.5676050  72.0070380 111.4150830 138.9399390
  73.2061990 112.3344080 139.0333980  76.8874140 114.9500940 124.0082170
  77.4079800 114.2349960 123.6423320  77.5342540 115.5886810 124.3082680
  81.4351980 116.3729340 139.3317240  81.8493000 116.5274420 140.1807660
  80.5002980 116.4984560 139.4943020  81.9074150 113.7125500 141.3356390
  82.4894920 112.9577820 141.2476870  82.0835920 114.2432940 140.5587870
  73.0246220 108.8722250 139.6473340  72.9303090 108.2543000 138.9224210
  72.4443610 109.5988540 139.4203250  75.7907660 107.4295490 136.6800730
  75.3424960 107.4519750 135.8346280  75.1572860 107.0314510 137.2771030
  76.1967210 116.3249820 137.3013170  76.6155320 117.1682550 137.1289410
  75.2775840 116.4621860 137.0719950  78.5331110 114.0566000 138.6851010
  78.6527320 113.4607140 139.4245850  79.3925110 114.0935690 138.2652310
  80.8719010 114.6103190 137.2613520  80.3454230 115.1345810 136.6578660
  81.2150350 115.2430580 137.8923250  73.2705400 111.9996560 123.7063230
  73.0694460 111.1363920 124.0676570  73.0997450 111.9129920 122.7684830
  74.0474630 122.6302830 138.4170900  73.5095720 123.3548890 138.0979600
  74.3008590 122.1533170 137.6268240  75.2999880 110.5987350 139.9426830
  75.8899570 110.2903200 140.6304650  74.4820120 110.1267100 140.0986730
  80.1193310 110.2153160 140.1759850  79.4308830 109.5534700 140.1109840
  80.8399330 109.7691430 140.6208310  80.7493710 106.8104790 126.2350110
  81.0296000 105.9672690 126.5909530  79.9759440 107.0427900 126.7488860
  72.0688200 109.0997180 123.6941110  72.3714100 109.1064610 122.7860260
  72.8082790 108.7495040 124.1908770  76.9036840 123.8654040 138.6757550
  76.8295540 124.7689180 138.9829920  76.0015680 123.5465940 138.6479620
  75.2873130 108.0431800 124.6797310  74.9395130 107.3655790 124.0999760
  75.4885900 107.5821310 125.4940700  77.4522170 123.0312550 126.2983910
  78.3472960 123.3697520 126.3202670  77.4839800 122.3091960 125.6708190
  68.3064130 121.1928630 131.9791170  68.6367140 120.3249690 131.7469810
  68.7355130 121.3987150 132.8096130  72.9026050 119.5237640 129.6393140
  72.6021590 119.4002610 130.5397050  72.7963540 118.6646230 129.2308870
  68.7954340 122.0599220 134.7172800  68.3585330 122.2400020 135.5496950
  69.3632020 122.8173840 134.5754520  84.4316520 121.5616220 139.0050110
  83.8318510 121.6208780 138.2614030  84.5610420 120.6221200 139.1346960
  85.6717970 119.3034040 124.3419820  84.8410930 119.3710690 124.8127050
  85.8489800 120.1938160 124.0386680  85.1274430 116.0481520 126.8454020
  85.8893340 116.6178170 126.9513710  85.1428800 115.4808720 127.6162330
  86.1334400 116.9031620 131.6895950  86.5043230 116.1198940 131.2831920
  86.7736330 117.5920720 131.5113250  83.1168160 118.2868200 137.1026270
  82.3028000 118.7165360 137.3652060  83.5242360 118.8986610 136.4895320
  81.5769210 109.3660740 125.2980170  81.9954090 109.1791720 124.4576830
  81.2705270 108.5139790 125.6083100  85.0758940 114.2784880 128.9955970
  84.7002540 113.5112810 128.5637260  84.3462060 114.6607580 129.4830900
  69.6654700 114.9572020 135.6165020  70.0327740 114.8699420 136.4961040
  69.0965520 114.1938570 135.5171880  84.4658560 113.4256400 138.6295490
  84.2344650 113.1969150 137.7293440  84.7263110 114.3455950 138.5840380
  69.2170700 111.8681110 139.5223440  68.3226750 111.8347870 139.8617150
  69.7568250 112.0667900 140.2874690  82.9046630 108.6512830 141.4075190
  83.7816810 108.6596230 141.7909190  82.9167470 107.9143670 140.7967540
  84.3509900 112.5042370 132.2963210  84.8747380 112.0105020 131.6653380
  84.9369320 112.6392730 133.0410780  84.5299620 112.5882240 135.8182760
  83.5802330 112.5545780 135.9327750  84.7112630 113.4982350 135.5832530
  70.0318220 106.8923250 123.9684040  70.7546350 107.4332190 124.2865260
  70.3042740 106.6186670 123.0925580  83.8409870 111.7615720 128.2355620
  84.3368990 111.5286590 129.0204500  83.6425940 110.9227560 127.8193260
  69.7210410 106.1429440 133.8706660  70.3686600 105.5926820 133.4301820
  70.1412250 106.3972590 134.6922470  85.2697030 110.3976670 130.7693300
  85.1596310 110.2432710 131.7075570  86.0304620 109.8697610 130.5268710
  83.6162750 106.3370800 137.2276300  84.2534970 106.9504940 137.5935490
  83.7637640 106.3731460 136.2825530  86.1587300 108.2284590 124.0099440
  87.0836610 108.0965770 123.8017730  86.1363090 108.3077410 124.9635890
  86.2325790 108.9995250 126.6356150  85.4377290 108.9340370 127.1649060
  86.4369070 109.9345890 126.6241500  83.1744210 123.0386800 130.6294540
  83.7703280 122.7171370 129.9528960  83.4322360 122.5658620 131.4207810
  69.4742410 106.2985110 136.6131980  69.1257230 106.7548930 137.3790160
  69.1430110 105.4042240 136.6954410  71.0806780 119.4704710 140.7785170
  71.0376410 119.0997620 141.6599630  71.2117790 120.4082280 140.9186990
  74.7812810 121.0264300 136.3794890  74.5404170 121.2938860 135.4925410
  75.7215450 121.1970030 136.4345750  76.9867230 107.4896990 140.1351400
  76.9256120 108.0818820 140.8846810  77.9267610 107.3822950 139.9901660
  79.6241790 107.1467050 139.7743690  80.2382200 107.4646340 139.1124770
  80.1691350 106.6615640 140.3939550  86.0416970 123.0458680 137.1805530
  85.5475250 123.4427550 136.4632660  85.4330260 122.4207890 137.5742810
  70.1463050 105.8261310 139.8882750  70.6946040 105.6449360 139.1248860
  70.2118360 105.0355420 140.4239060  70.9194810 122.4166960 137.8982950
  70.3255130 122.2851660 138.6372990  70.9118650 121.5805100 137.4325050
  80.3649830 105.7099190 136.1012980  79.4909670 106.0434300 135.8985910
  80.2560580 105.2372370 136.9264850  81.2721810 107.9170060 137.4854700
  80.9435170 107.1021820 137.1056430  82.2204110 107.8739870 137.3620390
  83.7256420 123.6882100 134.4592270  83.2659390 124.4397910 134.0850290
  83.0968880 122.9688570 134.4007070  70.5507040 119.7825340 136.8490990
  69.8241100 119.1630630 136.7816940  70.6116190 120.1765950 135.9789070
  74.1552140 121.9970340 133.6340400  74.6717160 121.3857700 133.1088660
  74.8049520 122.4999120 134.1251410  76.8947640 122.8878830 134.4609380
  77.1825450 122.6333130 133.5842390  77.4070860 122.3356190 135.0514950
  78.1124650 106.6269030 135.0405890  77.3296440 107.1014530 135.3202650
  77.8187580 105.7223860 134.9319070  82.6645720 107.3292130 133.0854980
  83.1053810 107.2737230 132.2376580  82.3953310 108.2450140 133.1565160
  84.5284290 106.9607370 131.0963800  84.4672690 106.0168590 130.9494820
  85.3076320 107.0687460 131.6417260  68.8337040 123.0999730 130.0587750
  68.6659080 122.4670410 130.7569640  67.9671550 123.3059130 129.7081940
  69.4565060 106.9316510 127.5619610  70.2144420 107.0445390 126.9883640
  68.9942230 107.7685710 127.5163040  75.9978870 109.0455780 130.5521920
  75.1853380 108.6712670 130.2117800  76.5020510 108.2900860 130.8543110
  80.5003850 105.7098230 131.7904990  81.1033220 106.2818440 132.2653510
  79.7596840 106.2737670 131.5678890  70.4399740 121.7932960 127.5037890
  69.9147360 122.1740990 126.7999850  70.3644320 122.4183730 128.2247600
  71.8290210 107.4580560 126.1021580  72.3582970 106.6710360 125.9729530
  72.4618530 108.1371750 126.3357110  74.0228050 107.1955700 129.1566970
  73.3930790 106.4943010 129.3237100  73.4833190 107.9559830 128.9400130
  76.9620000 123.8094930 141.8277580  77.8887310 123.5739200 141.8713540
  76.9470430 124.6366930 141.3463610  85.1965060 123.3520500 128.8251830
  85.3717250 122.6658240 128.1812750  84.4986630 123.8767550 128.4328500
  74.1483610 106.4739680 141.5919460  73.8667880 106.9773280 140.8280280
  74.5303310 105.6761430 141.2261590  73.0392710 123.7415340 126.3787140
  73.7711530 123.4574620 125.8311030  73.2986380 123.5028620 127.2686520
  72.2007500 119.8580070 126.3833470  71.5716380 120.3265170 126.9319300
  72.3155330 119.0129290 126.8179660  80.7499070 105.8893260 142.1699930
  80.6364520 106.2087870 143.0651450  81.5668810 106.2905770 141.8737210
  83.5297560 123.0364790 141.6518620  84.3222880 122.5414020 141.4444580
  83.8230710 123.7154930 142.2594230  81.8082690 120.0924940 113.1943070
  81.3464220 119.3212180 113.5230240  82.6208240 120.1191010 113.6995520
  68.1766050 113.5592100 114.9601790  68.7482160 112.7914300 114.9605430
  68.1767590 113.8580860 114.0508400  69.4190920 108.9676460 116.7470720
  69.2393760 108.0702210 117.0273480  69.0171000 109.5148330 117.4217670
  82.0413540 108.6642760 111.5811370  82.8623160 108.1739330 111.6236850
  82.0747620 109.2540420 112.3343210  70.0377590 111.4636960 115.3553060
  70.7187700 111.7275330 115.9740460  69.7225640 110.6237830 115.6891070
  72.5138260 107.1502880 118.7089070  72.5156700 107.6675270 117.9034970
  71.6842570 106.6733060 118.6859000  72.9760210 118.7578860 118.7011750
  73.5934210 119.4329940 118.4196200  72.1153330 119.1666840 118.6099250
  83.8937800 120.2218270 116.6166390  83.2101320 120.8917380 116.6083060
  84.4332090 120.4198920 115.8511250  81.4296540 122.0662400 115.3311570
  81.4423700 121.6624690 114.4633830  80.8771760 122.8409690 115.2273000
  80.8281980 116.9692240 116.6594180  81.2450770 116.7552350 115.8247640
  81.5521800 117.2265030 117.2302800  82.4286190 122.2008110 118.3846270
  81.9516750 123.0080300 118.1918880  81.7447980 121.5486440 118.5372480
  73.4319010 118.3657930 121.3730970  72.5347540 118.5897900 121.6204370
  73.4571880 118.4892870 120.4242370  72.2590230 115.2371250 119.9488340
  72.1198000 116.1094050 120.3175740  71.3771590 114.8944060 119.8036280
  74.0570580 121.1792950 122.1573490  74.0286010 121.5835900 121.2901920
  73.8935550 120.2503310 121.9945090  86.0085400 121.9620050 123.4537660
  86.4845120 122.4402940 124.1326740  86.6292560 121.8937540 122.7283160
  68.2108880 117.0068800 115.8659250  68.2889300 117.1417570 114.9214970
  68.8250560 116.2984690 116.0587370  69.4556510 118.7068990 112.2765430
  69.0484590 118.8483580 111.4219030  70.3469520 118.4229150 112.0736640
  79.2735390 122.8560900 119.1832480  79.7880060 122.7668910 119.9854910
  78.4304470 123.2020600 119.4760390  81.2489790 123.1416240 108.6116480
  81.0890930 122.8519180 109.5098310  81.0836500 122.3656370 108.0761710
  75.2700600 113.2007880 121.8355800  75.1744200 112.2602610 121.6856200
  76.1132580 113.4222950 121.4403870  70.4011140 109.6121550 119.9889580
  70.0074530 110.4596760 120.1962360  69.7129540 108.9747920 120.1798220
  67.7028190 107.5350010 114.0219660  67.4141240 108.1052870 114.7344640
  68.4473950 107.0554460 114.3850890  67.8898420 111.4770130 105.2322380
  67.8073090 112.4200890 105.3737370  67.5381480 111.3345040 104.3534730
  78.4492460 116.5854990 120.6404590  78.3829770 115.6650660 120.3862180
  77.8197600 116.6830430 121.3549230  81.2431990 112.2803540 107.1927140
  82.1311610 112.5920770 107.0178480  81.2137080 111.4075790 106.8007720
  73.0380740 114.6106560 122.3953260  72.7380880 114.7563740 121.4981080
  73.8091980 114.0511850 122.3026650  78.3809190 119.4075560 120.3908390
  78.3953730 118.4756520 120.1727300  77.6734290 119.4935320 121.0298160
  83.5146260 113.5915380 106.6607000  83.4309980 114.0229600 105.8103440
  84.2340450 114.0513730 107.0933820  84.5433510 120.4457640 109.3889130
  83.9009670 119.7913260 109.6632850  84.1564170 120.8512730 108.6129800
  77.8143090 121.0493130 117.4848890  78.4585310 121.2552510 118.1622310
  78.1772530 120.2881530 117.0319740  79.0875170 119.0525480 116.2026340
  79.7297400 118.3518640 116.3158510  79.6124520 119.8323920 116.0223230
  80.8612790 119.8520380 119.4062400  81.1969030 120.4387070 120.0840320
  79.9413130 119.7213090 119.6360190  68.7146920 123.3640960 106.7009940
  69.0744560 123.9630300 106.0467210  68.5739260 123.9100850 107.4744970
  68.4116190 107.6415560 120.1885810  67.6974710 107.8412480 120.7938420
  68.8311230 106.8655130 120.5600610  76.6901370 119.9011710 122.5750460
  76.3698240 119.1820950 123.1196150  76.0159730 120.5766780 122.6486520
  83.2717000 109.0894810 108.7474820  82.6430160 109.1940480 108.0333050
  82.7768920 109.3091590 109.5368700  71.0374230 113.3623270 106.6951830
  71.1177820 112.4150780 106.8069230  71.9293980 113.6930150 106.8012490
  84.3671410 121.4187450 114.1269240  84.4918830 122.2418620 114.5993050
  85.2336970 121.2078180 113.7793390  71.8388940 123.5118660 113.7986370
  72.5751420 122.9634120 114.0694940  72.2229860 124.3774670 113.6592360
  70.8447220 122.6964730 122.9871950  71.6459950 123.0176780 123.4007350
  70.3299040 122.3360310 123.7091860  79.6811850 118.8044600 122.9347360
  79.0750010 118.8276200 122.1943110  79.3765960 118.0727640 123.4714610
  81.1112220 122.5324890 121.5456770  82.0633970 122.4482910 121.4957010
  80.9640440 123.1966600 122.2190560  75.6182970 116.5909180 121.4643520
  74.8528640 117.1594180 121.3798190  75.7998930 116.2985390 120.5711750
  72.5373920 111.9059880 120.7932560  72.0070380 111.4150830 120.1655900
  73.2061990 112.3344080 120.2590490  73.0246220 108.8722250 120.8729850
  72.9303090 108.2543000 120.1480720  72.4443610 109.5988540 120.6459760
  73.2705400 111.9996560 104.9319740  73.0694460 111.1363920 105.2933080
  73.0997450 111.9129920 103.9941340  74.0474630 122.6302830 119.6427410
  73.5095720 123.3548890 119.3236110  74.3008590 122.1533170 118.8524750
  76.9036840 123.8654040 119.9014060  76.8295540 124.7689180 120.2086430
  76.0015680 123.5465940 119.8736130  75.2873130 108.0431800 105.9053820
  74.9395130 107.3655790 105.3256270  75.4885900 107.5821310 106.7197210
  68.3064130 121.1928630 113.2047680  68.6367140 120.3249690 112.9726320
  68.7355130 121.3987150 114.0352640  68.7954340 122.0599220 115.9429310
  68.3585330 122.2400020 116.7753460  69.3632020 122.8173840 115.8011030
  84.4316520 121.5616220 120.2306620  83.8318510 121.6208780 119.4870540
  84.5610420 120.6221200 120.3603470  85.1274430 116.0481520 108.0710530
  85.8893340 116.6178170 108.1770220  85.1428800 115.4808720 108.8418840
  68.6278770 114.5719450 112.3018190  67.9727610 114.3031090 111.6577890
  69.4656720 114.4623930 111.8520170  86.1334400 116.9031620 112.9152460
  86.5043230 116.1198940 112.5088430  86.7736330 117.5920720 112.7369760
  83.1168160 118.2868200 118.3282780  82.3028000 118.7165360 118.5908570
  83.5242360 118.8986610 117.7151830  81.5769210 109.3660740 106.5236680
  81.9954090 109.1791720 105.6833340  81.2705270 108.5139790 106.8339610
  85.0758940 114.2784880 110.2212480  84.7002540 113.5112810 109.7893770
  84.3462060 114.6607580 110.7087410  69.6654700 114.9572020 116.8421530
  70.0327740 114.8699420 117.7217550  69.0965520 114.1938570 116.7428390
  69.2170700 111.8681110 120.7479950  68.3226750 111.8347870 121.0873660
  69.7568250 112.0667900 121.5131200  67.8416850 111.7818380 108.2443520
  66.9380930 112.0448580 108.0695180  68.3257470 112.0529550 107.4643480
  70.3844060 110.8383920 106.1537900  71.0935760 110.4167140 105.6685180
  69.6684000 110.9059150 105.5221250  83.8409870 111.7615720 109.4612130
  84.3368990 111.5286590 110.2461010  83.6425940 110.9227560 109.0449770
  69.7210410 106.1429440 115.0963170  70.3686600 105.5926820 114.6558330
  70.1412250 106.3972590 115.9178980  74.7812810 121.0264300 117.6051400
  74.5404170 121.2938860 116.7181920  75.7215450 121.1970030 117.6602260
  86.0416970 123.0458680 118.4062040  85.5475250 123.4427550 117.6889170
  85.4330260 122.4207890 118.7999320  70.9194810 122.4166960 119.1239460
  70.3255130 122.2851660 119.8629500  70.9118650 121.5805100 118.6581560
  83.7256420 123.6882100 115.6848780  83.2659390 124.4397910 115.3106800
  83.0968880 122.9688570 115.6263580  70.5507040 119.7825340 118.0747500
  69.8241100 119.1630630 118.0073450  70.6116190 120.1765950 117.2045580
  74.1552140 121.9970340 114.8596910  74.6717160 121.3857700 114.3345170
  74.8049520 122.4999120 115.3507920  76.8947640 122.8878830 115.6865890
  77.1825450 122.6333130 114.8098900  77.4070860 122.3356190 116.2771460
  84.5284290 106.9607370 112.3220310  84.4672690 106.0168590 112.1751330
  85.3076320 107.0687460 112.8673770  68.8337040 123.0999730 111.2844260
  68.6659080 122.4670410 111.9826150  67.9671550 123.3059130 110.9338450
  80.5003850 105.7098230 113.0161500  81.1033220 106.2818440 113.4910020
  79.7596840 106.2737670 112.7935400  70.4399740 121.7932960 108.7294400
  69.9147360 122.1740990 108.0256360  70.3644320 122.4183730 109.4504110
  76.9620000 123.8094930 123.0534090  77.8887310 123.5739200 123.0970050
  76.9470430 124.6366930 122.5720120  85.1965060 123.3520500 110.0508340
  85.3717250 122.6658240 109.4069260  84.4986630 123.8767550 109.6585010
  74.1483610 106.4739680 122.8175970  73.8667880 106.9773280 122.0536790
  74.5303310 105.6761430 122.4518100  83.5297560 123.0364790 122.8775130
  84.3222880 122.5414020 122.6701090  83.8230710 123.7154930 123.4850740
  71.8041090 115.9984560  96.5176210  70.9725970 115.7433270  96.9172720
  72.4122070 116.0695330  97.2534130  81.8082690 120.0924940  94.4199580
  81.3464220 119.3212180  94.7486750  82.6208240 120.1191010  94.9252030
  71.7842350 120.0324650  96.7134230  72.0870390 119.1422390  96.5344450
  72.5285940 120.5894870  96.4856480  68.1766050 113.5592100  96.1858300
  68.7482160 112.7914300  96.1861940  68.1767590 113.8580860  95.2764910
  78.0346000 122.3782950  94.0403570  77.4157440 122.8340450  93.4698010
  78.8897780 122.5334410  93.6393270  73.7641110 116.7898060  98.1119080
  73.4310490 117.4166980  98.7540150  73.9407790 117.3159940  97.3320750
  72.9760210 118.7578860  99.9268260  73.5934210 119.4329940  99.6452710
  72.1153330 119.1666840  99.8355760  68.2692550 117.9478720  88.8075110
  67.8920530 118.4365820  88.0760010  68.5265620 118.6204000  89.4381640
  81.4296540 122.0662400  96.5568080  81.4423700 121.6624690  95.6890340
  80.8771760 122.8409690  96.4529510  82.7241960 118.7878620  91.6458250
  82.6138290 117.8452950  91.7707670  82.7210210 119.1494260  92.5321010
  80.8281980 116.9692240  97.8850690  81.2450770 116.7552350  97.0504150
  81.5521800 117.2265030  98.4559310  84.7744080 115.3679460  97.9766930
  83.9462710 115.4372550  97.5017060  85.3694560 115.9533770  97.5082760
  73.4319010 118.3657930 102.5987480  72.5347540 118.5897900 102.8460880
  73.4571880 118.4892870 101.6498880  72.2590230 115.2371250 101.1744850
  72.1198000 116.1094050 101.5432250  71.3771590 114.8944060 101.0292790
  78.5819610 120.1547120  92.4809980  79.0215520 120.8971450  92.0665370
  78.5206500 120.3973690  93.4048940  74.0570580 121.1792950 103.3830000
  74.0286010 121.5835900 102.5158430  73.8935550 120.2503310 103.2201600
  68.2108880 117.0068800  97.0915760  68.2889300 117.1417570  96.1471480
  68.8250560 116.2984690  97.2843880  69.4556510 118.7068990  93.5021940
  69.0484590 118.8483580  92.6475540  70.3469520 118.4229150  93.2993150
  79.2735390 122.8560900 100.4088990  79.7880060 122.7668910 101.2111420
  78.4304470 123.2020600 100.7016900  81.2489790 123.1416240  89.8372990
  81.0890930 122.8519180  90.7354820  81.0836500 122.3656370  89.3018220
  73.7278170 122.9214770  91.6144610  73.5520650 122.0050310  91.4012410
  72.8733910 123.2802060  91.8542410  80.9515920 120.6503800  88.3970990
  80.2581080 120.6481090  87.7373270  81.6938780 120.2263120  87.9665160
  80.5165850 122.2766510  92.4719480  80.9722800 121.4955890  92.7858100
  80.8558370 122.9873330  93.0160660  85.2642660 111.2065360 102.8043920
  84.6486930 111.7145030 102.2759380  84.9439080 110.3063690 102.7469860
  68.2668400 118.0482970  99.6310220  68.4299440 117.5788330  98.8129590
  68.7320850 117.5406530 100.2959060  79.4211200 112.7667950 103.5001560
  79.7464610 111.9331700 103.1603790  80.2091530 113.2896470 103.6479890
  75.2700600 113.2007880 103.0612310  75.1744200 112.2602610 102.9112710
  76.1132580 113.4222950 102.6660380  76.9756190 109.6956520 104.2842830
  76.2854510 109.5028720 104.9188920  77.7188490 109.9791160 104.8167130
  69.8407380 117.4234400 101.7906030  69.4562170 116.7828070 102.3888990
  70.1519570 118.1270520 102.3600760  72.3085680 117.5180570  90.1865710
  71.5347940 116.9778190  90.0264430  73.0380310 116.9987180  89.8483470
  78.4492460 116.5854990 101.8661100  78.3829770 115.6650660 101.6118690
  77.8197600 116.6830430 102.5805740  72.3523080 117.1860950  93.8244520
  72.8701750 116.3829210  93.7701410  71.9007100 117.1240090  94.6661350
  69.8367620 114.1522320 100.7370220  69.4782560 114.8176170 101.3243560
  69.5422180 113.3205870 101.1082840  73.0380740 114.6106560 103.6209770
  72.7380880 114.7563740 102.7237590  73.8091980 114.0511850 103.5283160
  78.3809190 119.4075560 101.6164900  78.3953730 118.4756520 101.3983810
  77.6734290 119.4935320 102.2554670  84.5433510 120.4457640  90.6145640
  83.9009670 119.7913260  90.8889360  84.1564170 120.8512730  89.8386310
  68.3475670 114.1513580  87.3604820  69.2170520 114.4338380  87.6440740
  67.8565990 114.9649450  87.2453630  77.8143090 121.0493130  98.7105400
  78.4585310 121.2552510  99.3878820  78.1772530 120.2881530  98.2576250
  79.0875170 119.0525480  97.4282850  79.7297400 118.3518640  97.5415020
  79.6124520 119.8323920  97.2479740  82.9330890 119.3374100  87.1521990
  82.7068470 118.6204540  87.7446630  82.5427090 119.0886540  86.3143740
  68.7146920 123.3640960  87.9266450  69.0744560 123.9630300  87.2723720
  68.5739260 123.9100850  88.7001480  68.6988780 121.6295820 102.4008850
  68.8079900 120.6890560 102.2604240  68.0469340 121.8950570 101.7522580
  76.6901370 119.9011710 103.8006970  76.3698240 119.1820950 104.3452660
  76.0159730 120.5766780 103.8743030  74.7315540 120.7472160  88.7440120
  74.7225640 121.4801850  88.1284630  73.8113900 120.5003740  88.8367080
  70.3322180 115.9687050  89.4886880  69.7250130 116.7085950  89.4982180
  70.8071530 116.0586410  88.6625080  77.7175140 120.8100400  87.4065310
  77.8187120 120.6064390  86.4767290  76.8176880 120.5558680  87.6113090
  76.3593250 123.3286720  92.1012980  76.6134750 123.2908110  91.1792350
  75.4105730 123.2020050  92.0941230  72.3427470 115.9298200  87.2375450
  73.1090740 115.8179560  87.8000880  72.4202160 115.2336170  86.5852220
  71.0374230 113.3623270  87.9208340  71.1177820 112.4150780  88.0325740
  71.9293980 113.6930150  88.0269000  84.3671410 121.4187450  95.3525750
  84.4918830 122.2418620  95.8249560  85.2336970 121.2078180  95.0049900
  71.8388940 123.5118660  95.0242880  72.5751420 122.9634120  95.2951450
  72.2229860 124.3774670  94.8848870  68.7234420 119.5792230  90.8984390
  67.7974200 119.8213370  90.8889800  69.1890850 120.4066490  90.7769140
  70.8447220 122.6964730 104.2128460  71.6459950 123.0176780 104.6263860
  70.3299040 122.3360310 104.9348370  74.9491250 122.6848970  86.8468450
  75.7419860 122.9737800  86.3950240  74.4295600 122.2541140  86.1680930
  84.0021420 121.9119100  88.2705190  83.7162930 121.4984240  87.4559370
  83.8040970 122.8406810  88.1505710  68.5645030 115.1838190 103.1564510
  69.0684050 114.6045470 103.7280740  67.8252450 115.4678420 103.6940880
  75.4668650 117.9052380  86.7110800  75.3619290 117.2904730  87.4372180
  75.2992870 117.3818270  85.9273810  75.6182970 116.5909180 102.6900030
  74.8528640 117.1594180 102.6054700  75.7998930 116.2985390 101.7968260
  78.7071380 116.9672410  87.3152790  78.1581480 117.4141710  87.9595530
  79.3290640 116.4621660  87.8390460  70.5968110 113.3267780 104.0514580
  70.6373450 113.0281650 104.9599810  71.4513610 113.7275390 103.8922100
  76.8874140 114.9500940  86.4595190  77.4079800 114.2349960  86.0936340
  77.5342540 115.5886810  86.7595700  81.4351980 116.3729340 101.7830260
  81.8493000 116.5274420 102.6320680  80.5002980 116.4984560 101.9456040
  81.9074150 113.7125500 103.7869410  82.4894920 112.9577820 103.6989890
  82.0835920 114.2432940 103.0100890  76.1967210 116.3249820  99.7526190
  76.6155320 117.1682550  99.5802430  75.2775840 116.4621860  99.5232970
  78.5331110 114.0566000 101.1364030  78.6527320 113.4607140 101.8758870
  79.3925110 114.0935690 100.7165330  80.8719010 114.6103190  99.7126540
  80.3454230 115.1345810  99.1091680  81.2150350 115.2430580 100.3436270
  74.0474630 122.6302830 100.8683920  73.5095720 123.3548890 100.5492620
  74.3008590 122.1533170 100.0781260  76.9036840 123.8654040 101.1270570
  76.8295540 124.7689180 101.4342940  76.0015680 123.5465940 101.0992640
  77.4522170 123.0312550  88.7496930  78.3472960 123.3697520  88.7715690
  77.4839800 122.3091960  88.1221210  71.0918330 118.4039600  86.9783930
  71.5293200 118.9469270  87.6341510  71.5766060 117.5786550  86.9880270
  68.3064130 121.1928630  94.4304190  68.6367140 120.3249690  94.1982830
  68.7355130 121.3987150  95.2609150  72.9026050 119.5237640  92.0906160
  72.6021590 119.4002610  92.9910070  72.7963540 118.6646230  91.6821890
  68.7954340 122.0599220  97.1685820  68.3585330 122.2400020  98.0009970
  69.3632020 122.8173840  97.0267540  85.6717970 119.3034040  86.7932840
  84.8410930 119.3710690  87.2640070  85.8489800 120.1938160  86.4899700
  68.6278770 114.5719450  93.5274700  67.9727610 114.3031090  92.8834400
  69.4656720 114.4623930  93.0776680  85.1793600 116.3415890  86.4539560
  85.4542440 117.2494770  86.3258780  84.9904340 116.2778420  87.3901550
  69.6654700 114.9572020  98.0678040  70.0327740 114.8699420  98.9474060
  69.0965520 114.1938570  97.9684900  84.4658560 113.4256400 101.0808510
  84.2344650 113.1969150 100.1806460  84.7263110 114.3455950 101.0353400
  69.2170700 111.8681110 101.9736460  68.3226750 111.8347870 102.3130170
  69.7568250 112.0667900 102.7387710  83.1744210 123.0386800  93.0807560
  83.7703280 122.7171370  92.4041980  83.4322360 122.5658620  93.8720830
  74.7812810 121.0264300  98.8307910  74.5404170 121.2938860  97.9438430
  75.7215450 121.1970030  98.8858770  86.0416970 123.0458680  99.6318550
  85.5475250 123.4427550  98.9145680  85.4330260 122.4207890 100.0255830
  70.9194810 122.4166960 100.3495970  70.3255130 122.2851660 101.0886010
  70.9118650 121.5805100  99.8838070  83.7256420 123.6882100  96.9105290
  83.2659390 124.4397910  96.5363310  83.0968880 122.9688570  96.8520090
  70.5507040 119.7825340  99.3004010  69.8241100 119.1630630  99.2329960
  70.6116190 120.1765950  98.4302090  74.1552140 121.9970340  96.0853420
  74.6717160 121.3857700  95.5601680  74.8049520 122.4999120  96.5764430
  76.8947640 122.8878830  96.9122400  77.1825450 122.6333130  96.0355410
  77.4070860 122.3356190  97.5027970  68.8337040 123.0999730  92.5100770
  68.6659080 122.4670410  93.2082660  67.9671550 123.3059130  92.1594960
  70.4399740 121.7932960  89.9550910  69.9147360 122.1740990  89.2512870
  70.3644320 122.4183730  90.6760620  76.9620000 123.8094930 104.2790600
  77.8887310 123.5739200 104.3226560  76.9470430 124.6366930 103.7976630
  85.1965060 123.3520500  91.2764850  85.3717250 122.6658240  90.6325770
  84.4986630 123.8767550  90.8841520  73.0392710 123.7415340  88.8300160
  73.7711530 123.4574620  88.2824050  73.2986380 123.5028620  89.7199540
  72.2007500 119.8580070  88.8346490  71.5716380 120.3265170  89.3832320
  72.3155330 119.0129290  89.2692680  77.7875260 115.6864750  76.8656960
  77.0117360 115.2065190  77.1555530  78.4388190 115.0070400  76.6913120
  71.8041090 115.9984560  77.7432720  70.9725970 115.7433270  78.1429230
  72.4122070 116.0695330  78.4790640  81.8082690 120.0924940  75.6456090
  81.3464220 119.3212180  75.9743260  82.6208240 120.1191010  76.1508540
  71.7842350 120.0324650  77.9390740  72.0870390 119.1422390  77.7600960
  72.5285940 120.5894870  77.7112990  70.2133040 110.9586450  71.5275110
  69.3249740 111.3002420  71.4254990  70.4974230 110.7586770  70.6355940
  78.0346000 122.3782950  75.2660080  77.4157440 122.8340450  74.6954520
  78.8897780 122.5334410  74.8649780  77.2284250 118.3621940  76.8727120
  77.1592530 117.4211880  76.7116250  77.9904110 118.4523350  77.4449690
  72.3894430 109.5417950  72.5613490  72.4961180 110.4421680  72.8682250
  71.4786790 109.4935920  72.2708140  78.9009350 117.2622190  72.6591990
  78.2826620 117.7271640  72.0954710  79.4132600 117.9549670  73.0761500
  73.7641110 116.7898060  79.3375590  73.4310490 117.4166980  79.9796660
  73.9407790 117.3159940  78.5577260  72.9760210 118.7578860  81.1524770
  73.5934210 119.4329940  80.8709220  72.1153330 119.1666840  81.0612270
  83.8937800 120.2218270  79.0679410  83.2101320 120.8917380  79.0596080
  84.4332090 120.4198920  78.3024270  81.4296540 122.0662400  77.7824590
  81.4423700 121.6624690  76.9146850  80.8771760 122.8409690  77.6786020
  82.7241960 118.7878620  72.8714760  82.6138290 117.8452950  72.9964180
  82.7210210 119.1494260  73.7577520  80.8281980 116.9692240  79.1107200
  81.2450770 116.7552350  78.2760660  81.5521800 117.2265030  79.6815820
  78.2531320 110.6860940  69.2244410  77.3134990 110.8474900  69.3096870
  78.5714580 111.4046620  68.6780400  82.2959530 115.9764240  72.7312500
  81.6771950 115.6383790  72.0838800  82.2783980 115.3324000  73.4391690
  74.3400580 118.6276240  77.1736190  74.0428870 118.0221710  76.4943970
  75.2900400 118.6653550  77.0625550  82.4286190 122.2008110  80.8359290
  81.9516750 123.0080300  80.6431900  81.7447980 121.5486440  80.9885500
  73.4319010 118.3657930  83.8243990  72.5347540 118.5897900  84.0717390
  73.4571880 118.4892870  82.8755390  80.4724230 115.2151050  69.7385250
  80.9117510 114.3773480  69.5923070  81.1852650 115.8480450  69.8249390
  72.2590230 115.2371250  82.4001360  72.1198000 116.1094050  82.7688760
  71.3771590 114.8944060  82.2549300  78.5819610 120.1547120  73.7066490
  79.0215520 120.8971450  73.2921880  78.5206500 120.3973690  74.6305450
  74.0570580 121.1792950  84.6086510  74.0286010 121.5835900  83.7414940
  73.8935550 120.2503310  84.4458110  70.5723510 113.8353660  72.5103630
  70.4521110 114.5615750  71.8984900  70.2624400 113.0656570  72.0331540
  86.0085400 121.9620050  85.9050680  86.4845120 122.4402940  86.5839760
  86.6292560 121.8937540  85.1796180  68.2108880 117.0068800  78.3172270
  68.2889300 117.1417570  77.3727990  68.8250560 116.2984690  78.5100390
  85.4118650 119.1532900  83.0650690  85.5381710 118.9144780  82.1467870
  85.4540030 118.3217440  83.5372770  79.2735390 122.8560900  81.6345500
  79.7880060 122.7668910  82.4367930  78.4304470 123.2020600  81.9273410
  81.2489790 123.1416240  71.0629500  81.0890930 122.8519180  71.9611330
  81.0836500 122.3656370  70.5274730  73.7278170 122.9214770  72.8401120
  73.5520650 122.0050310  72.6268920  72.8733910 123.2802060  73.0798920
  80.9515920 120.6503800  69.6227500  80.2581080 120.6481090  68.9629780
  81.6938780 120.2263120  69.1921670  80.5165850 122.2766510  73.6975990
  80.9722800 121.4955890  74.0114610  80.8558370 122.9873330  74.2417170
  68.2668400 118.0482970  80.8566730  68.4299440 117.5788330  80.0386100
  68.7320850 117.5406530  81.5215570  75.2700600 113.2007880  84.2868820
  75.1744200 112.2602610  84.1369220  76.1132580 113.4222950  83.8916890
  67.7028190 107.5350010  76.4732680  67.4141240 108.1052870  77.1857660
  68.4473950 107.0554460  76.8363910  67.8898420 111.4770130  67.6835400
  67.8073090 112.4200890  67.8250390  67.5381480 111.3345040  66.8047750
  71.5398930 110.0935650  75.7099960  71.1998980 110.5710880  76.4667010
  70.7776250 109.6400770  75.3501060  69.8407380 117.4234400  83.0162540
  69.4562170 116.7828070  83.6145500  70.1519570 118.1270520  83.5857270
  75.9904520 114.2710940  78.4971160  76.3574650 113.7969510  79.2432500
  75.8009580 115.1452510  78.8379500  68.8545010 109.0154630  74.6264630
  68.5691930 108.6510300  75.4643250  68.7923870 108.2835090  74.0127770
  78.4492460 116.5854990  83.0917610  78.3829770 115.6650660  82.8375200
  77.8197600 116.6830430  83.8062250  81.2431990 112.2803540  69.6440160
  82.1311610 112.5920770  69.4691500  81.2137080 111.4075790  69.2520740
  72.3523080 117.1860950  75.0501030  72.8701750 116.3829210  74.9957920
  71.9007100 117.1240090  75.8917860  77.2392580 118.4527230  70.3228330
  77.5808280 119.1969460  69.8271650  76.4105290 118.7658350  70.6853160
  69.8367620 114.1522320  81.9626730  69.4782560 114.8176170  82.5500070
  69.5422180 113.3205870  82.3339350  73.0380740 114.6106560  84.8466280
  72.7380880 114.7563740  83.9494100  73.8091980 114.0511850  84.7539670
  78.3809190 119.4075560  82.8421410  78.3953730 118.4756520  82.6240320
  77.6734290 119.4935320  83.4811180  83.5146260 113.5915380  69.1120020
  83.4309980 114.0229600  68.2616460  84.2340450 114.0513730  69.5446840
  84.5433510 120.4457640  71.8402150  83.9009670 119.7913260  72.1145870
  84.1564170 120.8512730  71.0642820  80.1219990 117.7743070  75.6873840
  80.4743810 117.1771200  75.0275210  79.2382320 117.4487300  75.8582090
  76.2083270 118.5340760  73.0944250  76.8954400 119.0809970  73.4751840
  75.4215690 119.0781490  73.1293860  77.8143090 121.0493130  79.9361910
  78.4585310 121.2552510  80.6135330  78.1772530 120.2881530  79.4832760
  79.0875170 119.0525480  78.6539360  79.7297400 118.3518640  78.7671530
  79.6124520 119.8323920  78.4736250  82.9330890 119.3374100  68.3778500
  82.7068470 118.6204540  68.9703140  82.5427090 119.0886540  67.5400250
  80.8612790 119.8520380  81.8575420  81.1969030 120.4387070  82.5353340
  79.9413130 119.7213090  82.0873210  68.7146920 123.3640960  69.1522960
  69.0744560 123.9630300  68.4980230  68.5739260 123.9100850  69.9257990
  68.4116190 107.6415560  82.6398830  67.6974710 107.8412480  83.2451440
  68.8311230 106.8655130  83.0113630  82.5147140 117.2546040  70.0392660
  82.2268840 117.7158730  70.8270540  83.3099310 116.7943810  70.3076880
  68.6988780 121.6295820  83.6265360  68.8079900 120.6890560  83.4860750
  68.0469340 121.8950570  82.9779090  76.6901370 119.9011710  85.0263480
  76.3698240 119.1820950  85.5709170  76.0159730 120.5766780  85.0999540
  74.7315540 120.7472160  69.9696630  74.7225640 121.4801850  69.3541140
  73.8113900 120.5003740  70.0623590  77.7175140 120.8100400  68.6321820
  77.8187120 120.6064390  67.7023800  76.8176880 120.5558680  68.8369600
  76.3593250 123.3286720  73.3269490  76.6134750 123.2908110  72.4048860
  75.4105730 123.2020050  73.3197740  73.4436050 109.6765840  69.9896430
  74.2926580 110.1135990  69.9236620  73.0767320 109.9886100  70.8168490
  72.3427470 115.9298200  68.4631960  73.1090740 115.8179560  69.0257390
  72.4202160 115.2336170  67.8108730  71.0374230 113.3623270  69.1464850
  71.1177820 112.4150780  69.2582250  71.9293980 113.6930150  69.2525510
  84.3671410 121.4187450  76.5782260  84.4918830 122.2418620  77.0506070
  85.2336970 121.2078180  76.2306410  71.8388940 123.5118660  76.2499390
  72.5751420 122.9634120  76.5207960  72.2229860 124.3774670  76.1105380
  70.8447220 122.6964730  85.4384970  71.6459950 123.0176780  85.8520370
  70.3299040 122.3360310  86.1604880  74.9491250 122.6848970  68.0724960
  75.7419860 122.9737800  67.6206750  74.4295600 122.2541140  67.3937440
  79.6811850 118.8044600  85.3860380  79.0750010 118.8276200  84.6456130
  79.3765960 118.0727640  85.9227630  81.1112220 122.5324890  83.9969790
  82.0633970 122.4482910  83.9470030  80.9640440 123.1966600  84.6703580
  84.0021420 121.9119100  69.4961700  83.7162930 121.4984240  68.6815880
  83.8040970 122.8406810  69.3762220  68.5645030 115.1838190  84.3821020
  69.0684050 114.6045470  84.9537250  67.8252450 115.4678420  84.9197390
  75.4668650 117.9052380  67.9367310  75.3619290 117.2904730  68.6628690
  75.2992870 117.3818270  67.1530320  75.6182970 116.5909180  83.9156540
  74.8528640 117.1594180  83.8311210  75.7998930 116.2985390  83.0224770
  78.7071380 116.9672410  68.5409300  78.1581480 117.4141710  69.1852040
  79.3290640 116.4621660  69.0646970  82.7606320 118.3214510  84.4731560
  83.5015790 118.6590270  83.9699020  81.9979000 118.4906570  83.9201330
  70.5968110 113.3267780  85.2771090  70.6373450 113.0281650  86.1856320
  71.4513610 113.7275390  85.1178610  76.8874140 114.9500940  67.6851700
  77.4079800 114.2349960  67.3192850  77.5342540 115.5886810  67.9852210
  81.4351980 116.3729340  83.0086770  81.8493000 116.5274420  83.8577190
  80.5002980 116.4984560  83.1712550  76.1967210 116.3249820  80.9782700
  76.6155320 117.1682550  80.8058940  75.2775840 116.4621860  80.7489480
  78.5331110 114.0566000  82.3620540  78.6527320 113.4607140  83.1015380
  79.3925110 114.0935690  81.9421840  73.2705400 111.9996560  67.3832760
  73.0694460 111.1363920  67.7446100  73.0997450 111.9129920  66.4454360
  74.0474630 122.6302830  82.0940430  73.5095720 123.3548890  81.7749130
  74.3008590 122.1533170  81.3037770  72.0688200 109.0997180  67.3710640
  72.3714100 109.1064610  66.4629790  72.8082790 108.7495040  67.8678300
  76.9036840 123.8654040  82.3527080  76.8295540 124.7689180  82.6599450
  76.0015680 123.5465940  82.3249150  75.2873130 108.0431800  68.3566840
  74.9395130 107.3655790  67.7769290  75.4885900 107.5821310  69.1710230
  77.4522170 123.0312550  69.9753440  78.3472960 123.3697520  69.9972200
  77.4839800 122.3091960  69.3477720  68.3064130 121.1928630  75.6560700
  68.6367140 120.3249690  75.4239340  68.7355130 121.3987150  76.4865660
  72.9026050 119.5237640  73.3162670  72.6021590 119.4002610  74.2166580
  72.7963540 118.6646230  72.9078400  68.7954340 122.0599220  78.3942330
  68.3585330 122.2400020  79.2266480  69.3632020 122.8173840  78.2524050
  84.4316520 121.5616220  82.6819640  83.8318510 121.6208780  81.9383560
  84.5610420 120.6221200  82.8116490  85.6717970 119.3034040  68.0189350
  84.8410930 119.3710690  68.4896580  85.8489800 120.1938160  67.7156210
  85.1274430 116.0481520  70.5223550  85.8893340 116.6178170  70.6283240
  85.1428800 115.4808720  71.2931860  68.6278770 114.5719450  74.7531210
  67.9727610 114.3031090  74.1090910  69.4656720 114.4623930  74.3033190
  83.1168160 118.2868200  80.7795800  82.3028000 118.7165360  81.0421590
  83.5242360 118.8986610  80.1664850  85.1793600 116.3415890  67.6796070
  85.4542440 117.2494770  67.5515290  84.9904340 116.2778420  68.6158060
  69.6654700 114.9572020  79.2934550  70.0327740 114.8699420  80.1730570
  69.0965520 114.1938570  79.1941410  70.3844060 110.8383920  68.6050920
  71.0935760 110.4167140  68.1198200  69.6684000 110.9059150  67.9734270
  70.0318220 106.8923250  67.6453570  70.7546350 107.4332190  67.9634790
  70.3042740 106.6186670  66.7695110  83.1744210 123.0386800  74.3064070
  83.7703280 122.7171370  73.6298490  83.4322360 122.5658620  75.0977340
  71.0806780 119.4704710  84.4554700  71.0376410 119.0997620  85.3369160
  71.2117790 120.4082280  84.5956520  74.7812810 121.0264300  80.0564420
  74.5404170 121.2938860  79.1694940  75.7215450 121.1970030  80.1115280
  86.0416970 123.0458680  80.8575060  85.5475250 123.4427550  80.1402190
  85.4330260 122.4207890  81.2512340  70.9194810 122.4166960  81.5752480
  70.3255130 122.2851660  82.3142520  70.9118650 121.5805100  81.1094580
  83.7256420 123.6882100  78.1361800  83.2659390 124.4397910  77.7619820
  83.0968880 122.9688570  78.0776600  70.5507040 119.7825340  80.5260520
  69.8241100 119.1630630  80.4586470  70.6116190 120.1765950  79.6558600
  74.1552140 121.9970340  77.3109930  74.6717160 121.3857700  76.7858190
  74.8049520 122.4999120  77.8020940  76.8947640 122.8878830  78.1378910
  77.1825450 122.6333130  77.2611920  77.4070860 122.3356190  78.7284480
  69.4565060 106.9316510  71.2389140  70.2144420 107.0445390  70.6653170
  68.9942230 107.7685710  71.1932570  71.8290210 107.4580560  69.7791110
  72.3582970 106.6710360  69.6499060  72.4618530 108.1371750  70.0126640
  76.9620000 123.8094930  85.5047110  77.8887310 123.5739200  85.5483070
  76.9470430 124.6366930  85.0233140  85.1965060 123.3520500  72.5021360
  85.3717250 122.6658240  71.8582280  84.4986630 123.8767550  72.1098030
  73.0392710 123.7415340  70.0556670  73.7711530 123.4574620  69.5080560
  73.2986380 123.5028620  70.9456050  83.5297560 123.0364790  85.3288150
  84.3222880 122.5414020  85.1214110  83.8230710 123.7154930  85.9363760
  79.6557220 113.9085730  56.2104200  79.5751270 112.9940340  55.9395910
  79.2421640 114.4052800  55.5043910  71.8041090 115.9984560  58.9689230
  70.9725970 115.7433270  59.3685740  72.4122070 116.0695330  59.7047150
  71.7842350 120.0324650  59.1647250  72.0870390 119.1422390  58.9857470
  72.5285940 120.5894870  58.9369500  70.2133040 110.9586450  52.7531620
  69.3249740 111.3002420  52.6511500  70.4974230 110.7586770  51.8612450
  68.1766050 113.5592100  58.6371320  68.7482160 112.7914300  58.6374960
  68.1767590 113.8580860  57.7277930  77.2284250 118.3621940  58.0983630
  77.1592530 117.4211880  57.9372760  77.9904110 118.4523350  58.6706200
  69.4190920 108.9676460  60.4240250  69.2393760 108.0702210  60.7043010
  69.0171000 109.5148330  61.0987200  72.3894430 109.5417950  53.7870000
  72.4961180 110.4421680  54.0938760  71.4786790 109.4935920  53.4964650
  82.0413540 108.6642760  55.2580900  82.8623160 108.1739330  55.3006380
  82.0747620 109.2540420  56.0112740  70.0377590 111.4636960  59.0322590
  70.7187700 111.7275330  59.6509990  69.7225640 110.6237830  59.3660600
  86.3313090 110.6809510  61.8224530  85.6265260 111.0691220  61.3039640
  86.5971010 111.3759800  62.4245460  72.5138260 107.1502880  62.3858600
  72.5156700 107.6675270  61.5804500  71.6842570 106.6733060  62.3628530
  82.2775020 110.6043140  58.0308440  81.5730590 110.8928030  58.6111550
  82.6387180 111.4143250  57.6708000  72.9760210 118.7578860  62.3781280
  73.5934210 119.4329940  62.0965730  72.1153330 119.1666840  62.2868780
  83.8937800 120.2218270  60.2935920  83.2101320 120.8917380  60.2852590
  84.4332090 120.4198920  59.5280780  85.3461940 110.0497930  58.4217650
  84.3986850 110.0836910  58.5533080  85.6711930 110.8636880  58.8067010
  75.8781480 106.3495110  56.7173640  76.1856460 105.7942000  56.0009140
  74.9482180 106.4839570  56.5346630  82.7241960 118.7878620  54.0971270
  82.6138290 117.8452950  54.2220690  82.7210210 119.1494260  54.9834030
  80.8281980 116.9692240  60.3363710  81.2450770 116.7552350  59.5017170
  81.5521800 117.2265030  60.9072330  78.2662240 114.4143940  53.4533760
  77.3391520 114.3481320  53.6822230  78.4187060 115.3524070  53.3389000
  78.2531320 110.6860940  50.4500920  77.3134990 110.8474900  50.5353380
  78.5714580 111.4046620  49.9036910  84.7744080 115.3679460  60.4279950
  83.9462710 115.4372550  59.9530080  85.3694560 115.9533770  59.9595780
  82.2959530 115.9764240  53.9569010  81.6771950 115.6383790  53.3095310
  82.2783980 115.3324000  54.6648200  81.7386090 112.1548780  61.3734820
  81.3257270 112.9802490  61.6274810  81.0062040 111.5693820  61.1811180
  74.3400580 118.6276240  58.3992700  74.0428870 118.0221710  57.7200480
  75.2900400 118.6653550  58.2882060  82.4286190 122.2008110  62.0615800
  81.9516750 123.0080300  61.8688410  81.7447980 121.5486440  62.2142010
  73.4319010 118.3657930  65.0500500  72.5347540 118.5897900  65.2973900
  73.4571880 118.4892870  64.1011900  80.4724230 115.2151050  50.9641760
  80.9117510 114.3773480  50.8179580  81.1852650 115.8480450  51.0505900
  72.2590230 115.2371250  63.6257870  72.1198000 116.1094050  63.9945270
  71.3771590 114.8944060  63.4805810  74.0570580 121.1792950  65.8343020
  74.0286010 121.5835900  64.9671450  73.8935550 120.2503310  65.6714620
  86.0085400 121.9620050  67.1307190  86.4845120 122.4402940  67.8096270
  86.6292560 121.8937540  66.4052690  68.2108880 117.0068800  59.5428780
  68.2889300 117.1417570  58.5984500  68.8250560 116.2984690  59.7356900
  69.4556510 118.7068990  55.9534960  69.0484590 118.8483580  55.0988560
  70.3469520 118.4229150  55.7506170  85.4118650 119.1532900  64.2907200
  85.5381710 118.9144780  63.3724380  85.4540030 118.3217440  64.7629280
  79.2735390 122.8560900  62.8602010  79.7880060 122.7668910  63.6624440
  78.4304470 123.2020600  63.1529920  85.2642660 111.2065360  65.2556940
  84.6486930 111.7145030  64.7272400  84.9439080 110.3063690  65.1982880
  68.2668400 118.0482970  62.0823240  68.4299440 117.5788330  61.2642610
  68.7320850 117.5406530  62.7472080  82.3261490 111.2666200  63.8515790
  81.4755080 110.9671950  64.1724860  82.1663280 111.5108210  62.9399610
  79.4211200 112.7667950  65.9514580  79.7464610 111.9331700  65.6116810
  80.2091530 113.2896470  66.0992910  76.1545990 106.7999430  51.9989640
  75.5300170 106.7959300  52.7242950  76.0676110 105.9330390  51.6025610
  80.0599150 112.3085670  53.4455710  79.4608040 113.0321470  53.2619330
  80.6078760 112.2462450  52.6632160  75.2700600 113.2007880  65.5125330
  75.1744200 112.2602610  65.3625730  76.1132580 113.4222950  65.1173400
  78.6664020 110.9449210  55.4758990  79.0593590 111.2621410  54.6627680
  79.0280870 110.0661090  55.5903510  70.4011140 109.6121550  63.6659110
  70.0074530 110.4596760  63.8731890  69.7129540 108.9747920  63.8567750
  76.9756190 109.6956520  66.7355850  76.2854510 109.5028720  67.3701940
  77.7188490 109.9791160  67.2680150  67.7028190 107.5350010  57.6989190
  67.4141240 108.1052870  58.4114170  68.4473950 107.0554460  58.0620420
  67.8898420 111.4770130  48.9091910  67.8073090 112.4200890  49.0506900
  67.5381480 111.3345040  48.0304260  79.2519160 113.5354960  59.5709770
  78.5200280 114.0441770  59.9199870  78.8543500 112.7184940  59.2698550
  75.7516700 111.2121240  50.9669020  75.8729520 111.1707720  51.9154840
  75.3665210 112.0745390  50.8115750  79.7145070 108.9888640  58.9832710
  79.7317810 109.4397290  59.8274560  79.4660650 108.0894280  59.1966150
  83.1415820 106.4020820  64.8219090  83.4661590 105.6710480  65.3477070
  83.1772330 106.0834460  63.9200080  69.8407380 117.4234400  64.2419050
  69.4562170 116.7828070  64.8402010  70.1519570 118.1270520  64.8113780
  68.8545010 109.0154630  55.8521140  68.5691930 108.6510300  56.6899760
  68.7923870 108.2835090  55.2384280  83.0673660 116.5145930  58.4305120
  83.7872780 117.0101220  58.0401230  82.8655480 115.8363820  57.7858990
  78.5283600 107.9083890  52.5734510  77.7148210 107.4097060  52.4979820
  78.3345550 108.7482140  52.1570860  78.4492460 116.5854990  64.3174120
  78.3829770 115.6650660  64.0631710  77.8197600 116.6830430  65.0318760
  81.2431990 112.2803540  50.8696670  82.1311610 112.5920770  50.6948010
  81.2137080 111.4075790  50.4777250  72.3523080 117.1860950  56.2757540
  72.8701750 116.3829210  56.2214430  71.9007100 117.1240090  57.1174370
  69.8367620 114.1522320  63.1883240  69.4782560 114.8176170  63.7756580
  69.5422180 113.3205870  63.5595860  73.0380740 114.6106560  66.0722790
  72.7380880 114.7563740  65.1750610  73.8091980 114.0511850  65.9796180
  78.3809190 119.4075560  64.0677920  78.3953730 118.4756520  63.8496830
  77.6734290 119.4935320  64.7067690  83.5146260 113.5915380  50.3376530
  83.4309980 114.0229600  49.4872970  84.2340450 114.0513730  50.7703350
  84.5920400 116.0482900  63.4146500  83.8668590 116.6411680  63.2175890
  85.1195860 116.0406440  62.6159870  84.5433510 120.4457640  53.0658660
  83.9009670 119.7913260  53.3402380  84.1564170 120.8512730  52.2899330
  80.1219990 117.7743070  56.9130350  80.4743810 117.1771200  56.2531720
  79.2382320 117.4487300  57.0838600  68.3475670 114.1513580  49.8117840
  69.2170520 114.4338380  50.0953760  67.8565990 114.9649450  49.6966650
  75.5110480 115.5386790  53.9326120  75.9673260 116.3492040  54.1586310
  75.1598690 115.2209930  54.7644610  77.8143090 121.0493130  61.1618420
  78.4585310 121.2552510  61.8391840  78.1772530 120.2881530  60.7089270
  71.4122260 105.8824440  54.4048640  71.2836890 105.8742340  55.3533560
  70.5884280 106.2207530  54.0539650  82.9330890 119.3374100  49.6035010
  82.7068470 118.6204540  50.1959650  82.5427090 119.0886540  48.7656760
  80.8612790 119.8520380  63.0831930  81.1969030 120.4387070  63.7609850
  79.9413130 119.7213090  63.3129720  68.7146920 123.3640960  50.3779470
  69.0744560 123.9630300  49.7236740  68.5739260 123.9100850  51.1514500
  68.4116190 107.6415560  63.8655340  67.6974710 107.8412480  64.4707950
  68.8311230 106.8655130  64.2370140  82.5147140 117.2546040  51.2649170
  82.2268840 117.7158730  52.0527050  83.3099310 116.7943810  51.5333390
  68.6988780 121.6295820  64.8521870  68.8079900 120.6890560  64.7117260
  68.0469340 121.8950570  64.2035600  76.6901370 119.9011710  66.2519990
  76.3698240 119.1820950  66.7965680  76.0159730 120.5766780  66.3256050
  79.9054970 110.1337870  61.6156790  80.2735790 109.3133080  61.9436360
  79.0453170 110.1939760  62.0312440  83.2717000 109.0894810  52.4244350
  82.6430160 109.1940480  51.7102580  82.7768920 109.3091590  53.2138230
  79.2716460 108.0931420  55.2798020  79.1484240 108.1117550  54.3307530
  80.2201020 108.1410360  55.3996420  73.4436050 109.6765840  51.2152940
  74.2926580 110.1135990  51.1493130  73.0767320 109.9886100  52.0425000
  84.0723820 109.0045420  62.6823150  83.5697420 109.7450820  63.0216960
  84.8880480 109.3929420  62.3659940  82.3645830 114.2478600  56.1284510
  81.4235970 114.2628830  56.3032200  82.6789900 113.4614560  56.5744810
  71.8388940 123.5118660  57.4755900  72.5751420 122.9634120  57.7464470
  72.2229860 124.3774670  57.3361890  68.7234420 119.5792230  53.3497410
  67.7974200 119.8213370  53.3402820  69.1890850 120.4066490  53.2282160
  70.8447220 122.6964730  66.6641480  71.6459950 123.0176780  67.0776880
  70.3299040 122.3360310  67.3861390  79.6811850 118.8044600  66.6116890
  79.0750010 118.8276200  65.8712640  79.3765960 118.0727640  67.1484140
  81.1112220 122.5324890  65.2226300  82.0633970 122.4482910  65.1726540
  80.9640440 123.1966600  65.8960090  68.5645030 115.1838190  65.6077530
  69.0684050 114.6045470  66.1793760  67.8252450 115.4678420  66.1453900
  75.6182970 116.5909180  65.1413050  74.8528640 117.1594180  65.0567720
  75.7998930 116.2985390  64.2481280  78.7071380 116.9672410  49.7665810
  78.1581480 117.4141710  50.4108550  79.3290640 116.4621660  50.2903480
  82.7606320 118.3214510  65.6988070  83.5015790 118.6590270  65.1955530
  81.9979000 118.4906570  65.1457840  70.5968110 113.3267780  66.5027600
  70.6373450 113.0281650  67.4112830  71.4513610 113.7275390  66.3435120
  72.5373920 111.9059880  64.4702090  72.0070380 111.4150830  63.8425430
  73.2061990 112.3344080  63.9360020  81.4351980 116.3729340  64.2343280
  81.8493000 116.5274420  65.0833700  80.5002980 116.4984560  64.3969060
  81.9074150 113.7125500  66.2382430  82.4894920 112.9577820  66.1502910
  82.0835920 114.2432940  65.4613910  73.0246220 108.8722250  64.5499380
  72.9303090 108.2543000  63.8250250  72.4443610 109.5988540  64.3229290
  78.5331110 114.0566000  63.5877050  78.6527320 113.4607140  64.3271890
  79.3925110 114.0935690  63.1678350  80.8719010 114.6103190  62.1639560
  80.3454230 115.1345810  61.5604700  81.2150350 115.2430580  62.7949290
  73.2705400 111.9996560  48.6089270  73.0694460 111.1363920  48.9702610
  73.0997450 111.9129920  47.6710870  74.0474630 122.6302830  63.3196940
  73.5095720 123.3548890  63.0005640  74.3008590 122.1533170  62.5294280
  75.2999880 110.5987350  64.8452870  75.8899570 110.2903200  65.5330690
  74.4820120 110.1267100  65.0012770  80.1193310 110.2153160  65.0785890
  79.4308830 109.5534700  65.0135880  80.8399330 109.7691430  65.5234350
  80.7493710 106.8104790  51.1376150  81.0296000 105.9672690  51.4935570
  79.9759440 107.0427900  51.6514900  76.9036840 123.8654040  63.5783590
  76.8295540 124.7689180  63.8855960  76.0015680 123.5465940  63.5505660
  75.2873130 108.0431800  49.5823350  74.9395130 107.3655790  49.0025800
  75.4885900 107.5821310  50.3966740  68.3064130 121.1928630  56.8817210
  68.6367140 120.3249690  56.6495850  68.7355130 121.3987150  57.7122170
  72.9026050 119.5237640  54.5419180  72.6021590 119.4002610  55.4423090
  72.7963540 118.6646230  54.1334910  68.7954340 122.0599220  59.6198840
  68.3585330 122.2400020  60.4522990  69.3632020 122.8173840  59.4780560
  84.4316520 121.5616220  63.9076150  83.8318510 121.6208780  63.1640070
  84.5610420 120.6221200  64.0373000  85.1274430 116.0481520  51.7480060
  85.8893340 116.6178170  51.8539750  85.1428800 115.4808720  52.5188370
  68.6278770 114.5719450  55.9787720  67.9727610 114.3031090  55.3347420
  69.4656720 114.4623930  55.5289700  86.1334400 116.9031620  56.5921990
  86.5043230 116.1198940  56.1857960  86.7736330 117.5920720  56.4139290
  83.1168160 118.2868200  62.0052310  82.3028000 118.7165360  62.2678100
  83.5242360 118.8986610  61.3921360  85.1793600 116.3415890  48.9052580
  85.4542440 117.2494770  48.7771800  84.9904340 116.2778420  49.8414570
  81.5769210 109.3660740  50.2006210  81.9954090 109.1791720  49.3602870
  81.2705270 108.5139790  50.5109140  85.0758940 114.2784880  53.8982010
  84.7002540 113.5112810  53.4663300  84.3462060 114.6607580  54.3856940
  69.6654700 114.9572020  60.5191060  70.0327740 114.8699420  61.3987080
  69.0965520 114.1938570  60.4197920  84.4658560 113.4256400  63.5321530
  84.2344650 113.1969150  62.6319480  84.7263110 114.3455950  63.4866420
  69.2170700 111.8681110  64.4249480  68.3226750 111.8347870  64.7643190
  69.7568250 112.0667900  65.1900730  82.9046630 108.6512830  66.3101230
  83.7816810 108.6596230  66.6935230  82.9167470 107.9143670  65.6993580
  67.8416850 111.7818380  51.9213050  66.9380930 112.0448580  51.7464710
  68.3257470 112.0529550  51.1413010  84.3509900 112.5042370  57.1989250
  84.8747380 112.0105020  56.5679420  84.9369320 112.6392730  57.9436820
  84.5299620 112.5882240  60.7208800  83.5802330 112.5545780  60.8353790
  84.7112630 113.4982350  60.4858570  70.3844060 110.8383920  49.8307430
  71.0935760 110.4167140  49.3454710  69.6684000 110.9059150  49.1990780
  70.0318220 106.8923250  48.8710080  70.7546350 107.4332190  49.1891300
  70.3042740 106.6186670  47.9951620  83.8409870 111.7615720  53.1381660
  84.3368990 111.5286590  53.9230540  83.6425940 110.9227560  52.7219300
  69.7210410 106.1429440  58.7732700  70.3686600 105.5926820  58.3327860
  70.1412250 106.3972590  59.5948510  85.2697030 110.3976670  55.6719340
  85.1596310 110.2432710  56.6101610  86.0304620 109.8697610  55.4294750
  69.4742410 106.2985110  61.5158020  69.1257230 106.7548930  62.2816200
  69.1430110 105.4042240  61.5980450  71.0806780 119.4704710  65.6811210
  71.0376410 119.0997620  66.5625670  71.2117790 120.4082280  65.8213030
  74.7812810 121.0264300  61.2820930  74.5404170 121.2938860  60.3951450
  75.7215450 121.1970030  61.3371790  76.9867230 107.4896990  65.0377440
  76.9256120 108.0818820  65.7872850  77.9267610 107.3822950  64.8927700
  79.6241790 107.1467050  64.6769730  80.2382200 107.4646340  64.0150810
  80.1691350 106.6615640  65.2965590  86.0416970 123.0458680  62.0831570
  85.5475250 123.4427550  61.3658700  85.4330260 122.4207890  62.4768850
  70.1463050 105.8261310  64.7908790  70.6946040 105.6449360  64.0274900
  70.2118360 105.0355420  65.3265100  70.9194810 122.4166960  62.8008990
  70.3255130 122.2851660  63.5399030  70.9118650 121.5805100  62.3351090
  80.3649830 105.7099190  61.0039020  79.4909670 106.0434300  60.8011950
  80.2560580 105.2372370  61.8290890  81.2721810 107.9170060  62.3880740
  80.9435170 107.1021820  62.0082470  82.2204110 107.8739870  62.2646430
  70.5507040 119.7825340  61.7517030  69.8241100 119.1630630  61.6842980
  70.6116190 120.1765950  60.8815110  74.1552140 121.9970340  58.5366440
  74.6717160 121.3857700  58.0114700  74.8049520 122.4999120  59.0277450
  78.1124650 106.6269030  59.9431930  77.3296440 107.1014530  60.2228690
  77.8187580 105.7223860  59.8345110  68.8337040 123.0999730  54.9613790
  68.6659080 122.4670410  55.6595680  67.9671550 123.3059130  54.6107980
  69.4565060 106.9316510  52.4645650  70.2144420 107.0445390  51.8909680
  68.9942230 107.7685710  52.4189080  80.5003850 105.7098230  56.6931030
  81.1033220 106.2818440  57.1679550  79.7596840 106.2737670  56.4704930
  70.4399740 121.7932960  52.4063930  69.9147360 122.1740990  51.7025890
  70.3644320 122.4183730  53.1273640  71.8290210 107.4580560  51.0047620
  72.3582970 106.6710360  50.8755570  72.4618530 108.1371750  51.2383150
  74.0228050 107.1955700  54.0593010  73.3930790 106.4943010  54.2263140
  73.4833190 107.9559830  53.8426170  76.9620000 123.8094930  66.7303620
  77.8887310 123.5739200  66.7739580  76.9470430 124.6366930  66.2489650
  74.1483610 106.4739680  66.4945500  73.8667880 106.9773280  65.7306320
  74.5303310 105.6761430  66.1287630  80.7499070 105.8893260  67.0725970
  80.6364520 106.2087870  67.9677490  81.5668810 106.2905770  66.7763250
  83.5297560 123.0364790  66.5544660  84.3222880 122.5414020  66.3470620
  83.8230710 123.7154930  67.1620270  71.8041090 115.9984560  40.1945740
  70.9725970 115.7433270  40.5942250  72.4122070 116.0695330  40.9303660
  81.8082690 120.0924940  38.0969110  81.3464220 119.3212180  38.4256280
  82.6208240 120.1191010  38.6021560  71.7842350 120.0324650  40.3903760
  72.0870390 119.1422390  40.2113980  72.5285940 120.5894870  40.1626010
  70.2133040 110.9586450  33.9788130  69.3249740 111.3002420  33.8768010
  70.4974230 110.7586770  33.0868960  68.1766050 113.5592100  39.8627830
  68.7482160 112.7914300  39.8631470  68.1767590 113.8580860  38.9534440
  78.0346000 122.3782950  37.7173100  77.4157440 122.8340450  37.1467540
  78.8897780 122.5334410  37.3162800  69.4190920 108.9676460  41.6496760
  69.2393760 108.0702210  41.9299520  69.0171000 109.5148330  42.3243710
  78.2589420 111.1692320  39.5509070  78.6354240 110.2964200  39.4382740
  78.1608930 111.5051020  38.6599510  72.3894430 109.5417950  35.0126510
  72.4961180 110.4421680  35.3195270  71.4786790 109.4935920  34.7221160
  70.0377590 111.4636960  40.2579100  70.7187700 111.7275330  40.8766500
  69.7225640 110.6237830  40.5917110  74.2302160 112.5104320  39.3451690
  74.7380380 113.0085290  39.9856710  74.7615400 111.7339520  39.1691050
  86.3313090 110.6809510  43.0481040  85.6265260 111.0691220  42.5296150
  86.5971010 111.3759800  43.6501970  73.7641110 116.7898060  41.7888610
  73.4310490 117.4166980  42.4309680  73.9407790 117.3159940  41.0090280
  82.2775020 110.6043140  39.2564950  81.5730590 110.8928030  39.8368060
  82.6387180 111.4143250  38.8964510  72.9760210 118.7578860  43.6037790
  73.5934210 119.4329940  43.3222240  72.1153330 119.1666840  43.5125290
  68.2692550 117.9478720  32.4844640  67.8920530 118.4365820  31.7529540
  68.5265620 118.6204000  33.1151170  83.8937800 120.2218270  41.5192430
  83.2101320 120.8917380  41.5109100  84.4332090 120.4198920  40.7537290
  85.3461940 110.0497930  39.6474160  84.3986850 110.0836910  39.7789590
  85.6711930 110.8636880  40.0323520  81.4296540 122.0662400  40.2337610
  81.4423700 121.6624690  39.3659870  80.8771760 122.8409690  40.1299040
  82.7241960 118.7878620  35.3227780  82.6138290 117.8452950  35.4477200
  82.7210210 119.1494260  36.2090540  80.8281980 116.9692240  41.5620220
  81.2450770 116.7552350  40.7273680  81.5521800 117.2265030  42.1328840
  84.7744080 115.3679460  41.6536460  83.9462710 115.4372550  41.1786590
  85.3694560 115.9533770  41.1852290  82.2959530 115.9764240  35.1825520
  81.6771950 115.6383790  34.5351820  82.2783980 115.3324000  35.8904710
  81.7386090 112.1548780  42.5991330  81.3257270 112.9802490  42.8531320
  81.0062040 111.5693820  42.4067690  74.3400580 118.6276240  39.6249210
  74.0428870 118.0221710  38.9456990  75.2900400 118.6653550  39.5138570
  82.4286190 122.2008110  43.2872310  81.9516750 123.0080300  43.0944920
  81.7447980 121.5486440  43.4398520  72.2590230 115.2371250  44.8514380
  72.1198000 116.1094050  45.2201780  71.3771590 114.8944060  44.7062320
  84.0541370 106.4693860  30.5039310  83.7414030 106.5620690  31.4038380
  84.8153840 107.0474890  30.4536740  70.5723510 113.8353660  34.9616650
  70.4521110 114.5615750  34.3497920  70.2624400 113.0656570  34.4844560
  68.2108880 117.0068800  40.7685290  68.2889300 117.1417570  39.8241010
  68.8250560 116.2984690  40.9613410  69.4556510 118.7068990  37.1791470
  69.0484590 118.8483580  36.3245070  70.3469520 118.4229150  36.9762680
  85.4118650 119.1532900  45.5163710  85.5381710 118.9144780  44.5980890
  85.4540030 118.3217440  45.9885790  79.2735390 122.8560900  44.0858520
  79.7880060 122.7668910  44.8880950  78.4304470 123.2020600  44.3786430
  81.2489790 123.1416240  33.5142520  81.0890930 122.8519180  34.4124350
  81.0836500 122.3656370  32.9787750  73.7278170 122.9214770  35.2914140
  73.5520650 122.0050310  35.0781940  72.8733910 123.2802060  35.5311940
  80.9515920 120.6503800  32.0740520  80.2581080 120.6481090  31.4142800
  81.6938780 120.2263120  31.6434690  80.5165850 122.2766510  36.1489010
  80.9722800 121.4955890  36.4627630  80.8558370 122.9873330  36.6930190
  85.2642660 111.2065360  46.4813450  84.6486930 111.7145030  45.9528910
  84.9439080 110.3063690  46.4239390  68.2668400 118.0482970  43.3079750
  68.4299440 117.5788330  42.4899120  68.7320850 117.5406530  43.9728590
  82.3261490 111.2666200  45.0772300  81.4755080 110.9671950  45.3981370
  82.1663280 111.5108210  44.1656120  79.4211200 112.7667950  47.1771090
  79.7464610 111.9331700  46.8373320  80.2091530 113.2896470  47.3249420
  72.8301390 112.3022300  36.0721570  72.6042310 112.0859470  36.9768190
  72.0493920 112.7350760  35.7267540  70.4011140 109.6121550  44.8915620
  70.0074530 110.4596760  45.0988400  69.7129540 108.9747920  45.0824260
  76.9756190 109.6956520  47.9612360  76.2854510 109.5028720  48.5958450
  77.7188490 109.9791160  48.4936660  67.7028190 107.5350010  38.9245700
  67.4141240 108.1052870  39.6370680  68.4473950 107.0554460  39.2876930
  67.8898420 111.4770130  30.1348420  67.8073090 112.4200890  30.2763410
  67.5381480 111.3345040  29.2560770  79.2519160 113.5354960  40.7966280
  78.5200280 114.0441770  41.1456380  78.8543500 112.7184940  40.4955060
  71.5398930 110.0935650  38.1612980  71.1998980 110.5710880  38.9180030
  70.7776250 109.6400770  37.8014080  79.7145070 108.9888640  40.2089220
  79.7317810 109.4397290  41.0531070  79.4660650 108.0894280  40.4222660
  74.7638200 113.5222380  31.5908830  74.1955100 113.0740630  30.9644740
  75.4727200 113.8815160  31.0573980  69.8407380 117.4234400  45.4675560
  69.4562170 116.7828070  46.0658520  70.1519570 118.1270520  46.0370290
  75.9904520 114.2710940  40.9484180  76.3574650 113.7969510  41.6945520
  75.8009580 115.1452510  41.2892520  68.8545010 109.0154630  37.0777650
  68.5691930 108.6510300  37.9156270  68.7923870 108.2835090  36.4640790
  72.3085680 117.5180570  33.8635240  71.5347940 116.9778190  33.7033960
  73.0380310 116.9987180  33.5253000  83.0673660 116.5145930  39.6561630
  83.7872780 117.0101220  39.2657740  82.8655480 115.8363820  39.0115500
  78.4492460 116.5854990  45.5430630  78.3829770 115.6650660  45.2888220
  77.8197600 116.6830430  46.2575270  81.2431990 112.2803540  32.0953180
  82.1311610 112.5920770  31.9204520  81.2137080 111.4075790  31.7033760
  72.3523080 117.1860950  37.5014050  72.8701750 116.3829210  37.4470940
  71.9007100 117.1240090  38.3430880  69.8367620 114.1522320  44.4139750
  69.4782560 114.8176170  45.0013090  69.5422180 113.3205870  44.7852370
  78.3809190 119.4075560  45.2934430  78.3953730 118.4756520  45.0753340
  77.6734290 119.4935320  45.9324200  83.5146260 113.5915380  31.5633040
  83.4309980 114.0229600  30.7129480  84.2340450 114.0513730  31.9959860
  84.5920400 116.0482900  44.6403010  83.8668590 116.6411680  44.4432400
  85.1195860 116.0406440  43.8416380  68.3475670 114.1513580  31.0374350
  69.2170520 114.4338380  31.3210270  67.8565990 114.9649450  30.9223160
  77.8143090 121.0493130  42.3874930  78.4585310 121.2552510  43.0648350
  78.1772530 120.2881530  41.9345780  71.4122260 105.8824440  35.6305150
  71.2836890 105.8742340  36.5790070  70.5884280 106.2207530  35.2796160
  79.0875170 119.0525480  41.1052380  79.7297400 118.3518640  41.2184550
  79.6124520 119.8323920  40.9249270  82.9330890 119.3374100  30.8291520
  82.7068470 118.6204540  31.4216160  82.5427090 119.0886540  29.9913270
  80.8612790 119.8520380  44.3088440  81.1969030 120.4387070  44.9866360
  79.9413130 119.7213090  44.5386230  68.7146920 123.3640960  31.6035980
  69.0744560 123.9630300  30.9493250  68.5739260 123.9100850  32.3771010
  68.4116190 107.6415560  45.0911850  67.6974710 107.8412480  45.6964460
  68.8311230 106.8655130  45.4626650  82.5147140 117.2546040  32.4905680
  82.2268840 117.7158730  33.2783560  83.3099310 116.7943810  32.7589900
  68.6988780 121.6295820  46.0778380  68.8079900 120.6890560  45.9373770
  68.0469340 121.8950570  45.4292110  74.7315540 120.7472160  32.4209650
  74.7225640 121.4801850  31.8054160  73.8113900 120.5003740  32.5136610
  70.3322180 115.9687050  33.1656410  69.7250130 116.7085950  33.1751710
  70.8071530 116.0586410  32.3394610  79.9054970 110.1337870  42.8413300
  80.2735790 109.3133080  43.1692870  79.0453170 110.1939760  43.2568950
  83.2717000 109.0894810  33.6500860  82.6430160 109.1940480  32.9359090
  82.7768920 109.3091590  34.4394740  77.7175140 120.8100400  31.0834840
  77.8187120 120.6064390  30.1536820  76.8176880 120.5558680  31.2882620
  75.2401030 111.3680760  35.0658740  74.5317180 111.8367100  35.5072350
  75.5245510 110.7102770  35.7003930  76.3593250 123.3286720  35.7782510
  76.6134750 123.2908110  34.8561880  75.4105730 123.2020050  35.7710760
  73.4436050 109.6765840  32.4409450  74.2926580 110.1135990  32.3749640
  73.0767320 109.9886100  33.2681510  84.0723820 109.0045420  43.9079660
  83.5697420 109.7450820  44.2473470  84.8880480 109.3929420  43.5916450
  82.3645830 114.2478600  37.3541020  81.4235970 114.2628830  37.5288710
  82.6789900 113.4614560  37.8001320  72.3427470 115.9298200  30.9144980
  73.1090740 115.8179560  31.4770410  72.4202160 115.2336170  30.2621750
  71.0374230 113.3623270  31.5977870  71.1177820 112.4150780  31.7095270
  71.9293980 113.6930150  31.7038530  71.8388940 123.5118660  38.7012410
  72.5751420 122.9634120  38.9720980  72.2229860 124.3774670  38.5618400
  68.7234420 119.5792230  34.5753920  67.7974200 119.8213370  34.5659330
  69.1890850 120.4066490  34.4538670  70.8447220 122.6964730  47.8897990
  71.6459950 123.0176780  48.3033390  70.3299040 122.3360310  48.6117900
  74.9491250 122.6848970  30.5237980  75.7419860 122.9737800  30.0719770
  74.4295600 122.2541140  29.8450460  79.6811850 118.8044600  47.8373400
  79.0750010 118.8276200  47.0969150  79.3765960 118.0727640  48.3740650
  81.1112220 122.5324890  46.4482810  82.0633970 122.4482910  46.3983050
  80.9640440 123.1966600  47.1216600  84.0021420 121.9119100  31.9474720
  83.7162930 121.4984240  31.1328900  83.8040970 122.8406810  31.8275240
  68.5645030 115.1838190  46.8334040  69.0684050 114.6045470  47.4050270
  67.8252450 115.4678420  47.3710410  75.4668650 117.9052380  30.3880330
  75.3619290 117.2904730  31.1141710  75.2992870 117.3818270  29.6043340
  82.7606320 118.3214510  46.9244580  83.5015790 118.6590270  46.4212040
  81.9979000 118.4906570  46.3714350  70.5968110 113.3267780  47.7284110
  70.6373450 113.0281650  48.6369340  71.4513610 113.7275390  47.5691630
  74.3746500 115.9263330  32.8887620  74.7962920 115.7603200  33.7319010
  74.4997340 115.1163560  32.3942760  76.8874140 114.9500940  30.1364720
  77.4079800 114.2349960  29.7705870  77.5342540 115.5886810  30.4365230
  81.4351980 116.3729340  45.4599790  81.8493000 116.5274420  46.3090210
  80.5002980 116.4984560  45.6225570  81.9074150 113.7125500  47.4638940
  82.4894920 112.9577820  47.3759420  82.0835920 114.2432940  46.6870420
  76.1967210 116.3249820  43.4295720  76.6155320 117.1682550  43.2571960
  75.2775840 116.4621860  43.2002500  78.5331110 114.0566000  44.8133560
  78.6527320 113.4607140  45.5528400  79.3925110 114.0935690  44.3934860
  80.8719010 114.6103190  43.3896070  80.3454230 115.1345810  42.7861210
  81.2150350 115.2430580  44.0205800  73.2705400 111.9996560  29.8345780
  73.0694460 111.1363920  30.1959120  73.0997450 111.9129920  28.8967380
  74.0474630 122.6302830  44.5453450  73.5095720 123.3548890  44.2262150
  74.3008590 122.1533170  43.7550790  80.1193310 110.2153160  46.3042400
  79.4308830 109.5534700  46.2392390  80.8399330 109.7691430  46.7490860
  80.7493710 106.8104790  32.3632660  81.0296000 105.9672690  32.7192080
  79.9759440 107.0427900  32.8771410  72.0688200 109.0997180  29.8223660
  72.3714100 109.1064610  28.9142810  72.8082790 108.7495040  30.3191320
  76.9036840 123.8654040  44.8040100  76.8295540 124.7689180  45.1112470
  76.0015680 123.5465940  44.7762170  77.4522170 123.0312550  32.4266460
  78.3472960 123.3697520  32.4485220  77.4839800 122.3091960  31.7990740
  71.0918330 118.4039600  30.6553460  71.5293200 118.9469270  31.3111040
  71.5766060 117.5786550  30.6649800  68.3064130 121.1928630  38.1073720
  68.6367140 120.3249690  37.8752360  68.7355130 121.3987150  38.9378680
  72.9026050 119.5237640  35.7675690  72.6021590 119.4002610  36.6679600
  72.7963540 118.6646230  35.3591420  68.7954340 122.0599220  40.8455350
  68.3585330 122.2400020  41.6779500  69.3632020 122.8173840  40.7037070
  84.4316520 121.5616220  45.1332660  83.8318510 121.6208780  44.3896580
  84.5610420 120.6221200  45.2629510  85.6717970 119.3034040  30.4702370
  84.8410930 119.3710690  30.9409600  85.8489800 120.1938160  30.1669230
  85.1274430 116.0481520  32.9736570  85.8893340 116.6178170  33.0796260
  85.1428800 115.4808720  33.7444880  68.6278770 114.5719450  37.2044230
  67.9727610 114.3031090  36.5603930  69.4656720 114.4623930  36.7546210
  86.1334400 116.9031620  37.8178500  86.5043230 116.1198940  37.4114470
  86.7736330 117.5920720  37.6395800  83.1168160 118.2868200  43.2308820
  82.3028000 118.7165360  43.4934610  83.5242360 118.8986610  42.6177870
  85.1793600 116.3415890  30.1309090  85.4542440 117.2494770  30.0028310
  84.9904340 116.2778420  31.0671080  81.5769210 109.3660740  31.4262720
  81.9954090 109.1791720  30.5859380  81.2705270 108.5139790  31.7365650
  85.0758940 114.2784880  35.1238520  84.7002540 113.5112810  34.6919810
  84.3462060 114.6607580  35.6113450  69.6654700 114.9572020  41.7447570
  70.0327740 114.8699420  42.6243590  69.0965520 114.1938570  41.6454430
  84.4658560 113.4256400  44.7578040  84.2344650 113.1969150  43.8575990
  84.7263110 114.3455950  44.7122930  69.2170700 111.8681110  45.6505990
  68.3226750 111.8347870  45.9899700  69.7568250 112.0667900  46.4157240
  82.9046630 108.6512830  47.5357740  83.7816810 108.6596230  47.9191740
  82.9167470 107.9143670  46.9250090  67.8416850 111.7818380  33.1469560
  66.9380930 112.0448580  32.9721220  68.3257470 112.0529550  32.3669520
  84.3509900 112.5042370  38.4245760  84.8747380 112.0105020  37.7935930
  84.9369320 112.6392730  39.1693330  84.5299620 112.5882240  41.9465310
  83.5802330 112.5545780  42.0610300  84.7112630 113.4982350  41.7115080
  70.3844060 110.8383920  31.0563940  71.0935760 110.4167140  30.5711220
  69.6684000 110.9059150  30.4247290  70.0318220 106.8923250  30.0966590
  70.7546350 107.4332190  30.4147810  70.3042740 106.6186670  29.2208130
  83.8409870 111.7615720  34.3638170  84.3368990 111.5286590  35.1487050
  83.6425940 110.9227560  33.9475810  69.7210410 106.1429440  39.9989210
  70.3686600 105.5926820  39.5584370  70.1412250 106.3972590  40.8205020
  85.2697030 110.3976670  36.8975850  85.1596310 110.2432710  37.8358120
  86.0304620 109.8697610  36.6551260  83.6162750 106.3370800  43.3558850
  84.2534970 106.9504940  43.7218040  83.7637640 106.3731460  42.4108080
  86.1587300 108.2284590  30.1381990  87.0836610 108.0965770  29.9300280
  86.1363090 108.3077410  31.0918440  86.2325790 108.9995250  32.7638700
  85.4377290 108.9340370  33.2931610  86.4369070 109.9345890  32.7524050
  69.4742410 106.2985110  42.7414530  69.1257230 106.7548930  43.5072710
  69.1430110 105.4042240  42.8236960  71.0806780 119.4704710  46.9067720
  71.0376410 119.0997620  47.7882180  71.2117790 120.4082280  47.0469540
  74.7812810 121.0264300  42.5077440  74.5404170 121.2938860  41.6207960
  75.7215450 121.1970030  42.5628300  79.6241790 107.1467050  45.9026240
  80.2382200 107.4646340  45.2407320  80.1691350 106.6615640  46.5222100
  86.0416970 123.0458680  43.3088080  85.5475250 123.4427550  42.5915210
  85.4330260 122.4207890  43.7025360  70.1463050 105.8261310  46.0165300
  70.6946040 105.6449360  45.2531410  70.2118360 105.0355420  46.5521610
  70.9194810 122.4166960  44.0265500  70.3255130 122.2851660  44.7655540
  70.9118650 121.5805100  43.5607600  80.3649830 105.7099190  42.2295530
  79.4909670 106.0434300  42.0268460  80.2560580 105.2372370  43.0547400
  81.2721810 107.9170060  43.6137250  80.9435170 107.1021820  43.2338980
  82.2204110 107.8739870  43.4902940  70.5507040 119.7825340  42.9773540
  69.8241100 119.1630630  42.9099490  70.6116190 120.1765950  42.1071620
  74.1552140 121.9970340  39.7622950  74.6717160 121.3857700  39.2371210
  74.8049520 122.4999120  40.2533960  76.8947640 122.8878830  40.5891930
  77.1825450 122.6333130  39.7124940  77.4070860 122.3356190  41.1797500
  82.6645720 107.3292130  39.2137530  83.1053810 107.2737230  38.3659130
  82.3953310 108.2450140  39.2847710  84.5284290 106.9607370  37.2246350
  84.4672690 106.0168590  37.0777370  85.3076320 107.0687460  37.7699810
  68.8337040 123.0999730  36.1870300  68.6659080 122.4670410  36.8852190
  67.9671550 123.3059130  35.8364490  69.4565060 106.9316510  33.6902160
  70.2144420 107.0445390  33.1166190  68.9942230 107.7685710  33.6445590
  83.6438450 106.1119790  33.1927820  83.8389080 107.0103240  33.4595250
  82.8568320 105.8806870  33.6860770  70.4399740 121.7932960  33.6320440
  69.9147360 122.1740990  32.9282400  70.3644320 122.4183730  34.3530150
  71.8290210 107.4580560  32.2304130  72.3582970 106.6710360  32.1012080
  72.4618530 108.1371750  32.4639660  73.0392710 123.7415340  32.5069690
  73.7711530 123.4574620  31.9593580  73.2986380 123.5028620  33.3969070
  72.2007500 119.8580070  32.5116020  71.5716380 120.3265170  33.0601850
  72.3155330 119.0129290  32.9462210  80.7499070 105.8893260  48.2982480
  80.6364520 106.2087870  49.1934000  81.5668810 106.2905770  48.0019760
  83.5297560 123.0364790  47.7801170  84.3222880 122.5414020  47.5727130
  83.8230710 123.7154930  48.3876780  79.6557220 113.9085730  18.6617220
  79.5751270 112.9940340  18.3908930  79.2421640 114.4052800  17.9556930
  77.7875260 115.6864750  20.5426490  77.0117360 115.2065190  20.8325060
  78.4388190 115.0070400  20.3682650  71.8041090 115.9984560  21.4202250
  70.9725970 115.7433270  21.8198760  72.4122070 116.0695330  22.1560170
  81.8082690 120.0924940  19.3225620  81.3464220 119.3212180  19.6512790
  82.6208240 120.1191010  19.8278070  71.7842350 120.0324650  21.6160270
  72.0870390 119.1422390  21.4370490  72.5285940 120.5894870  21.3882520
  70.2133040 110.9586450  15.2044640  69.3249740 111.3002420  15.1024520
  70.4974230 110.7586770  14.3125470  68.1766050 113.5592100  21.0884340
  68.7482160 112.7914300  21.0887980  68.1767590 113.8580860  20.1790950
  78.0346000 122.3782950  18.9429610  77.4157440 122.8340450  18.3724050
  78.8897780 122.5334410  18.5419310  77.2284250 118.3621940  20.5496650
  77.1592530 117.4211880  20.3885780  77.9904110 118.4523350  21.1219220
  69.4190920 108.9676460  22.8753270  69.2393760 108.0702210  23.1556030
  69.0171000 109.5148330  23.5500220  78.2589420 111.1692320  20.7765580
  78.6354240 110.2964200  20.6639250  78.1608930 111.5051020  19.8856020
  72.3894430 109.5417950  16.2383020  72.4961180 110.4421680  16.5451780
  71.4786790 109.4935920  15.9477670  82.0413540 108.6642760  17.7093920
  82.8623160 108.1739330  17.7519400  82.0747620 109.2540420  18.4625760
  70.0377590 111.4636960  21.4835610  70.7187700 111.7275330  22.1023010
  69.7225640 110.6237830  21.8173620  74.2302160 112.5104320  20.5708200
  74.7380380 113.0085290  21.2113220  74.7615400 111.7339520  20.3947560
  86.3313090 110.6809510  24.2737550  85.6265260 111.0691220  23.7552660
  86.5971010 111.3759800  24.8758480  78.9009350 117.2622190  16.3361520
  78.2826620 117.7271640  15.7724240  79.4132600 117.9549670  16.7531030
  73.7641110 116.7898060  23.0145120  73.4310490 117.4166980  23.6566190
  73.9407790 117.3159940  22.2346790  82.2775020 110.6043140  20.4821460
  81.5730590 110.8928030  21.0624570  82.6387180 111.4143250  20.1221020
  72.9760210 118.7578860  24.8294300  73.5934210 119.4329940  24.5478750
  72.1153330 119.1666840  24.7381800  68.2692550 117.9478720  13.7101150
  67.8920530 118.4365820  12.9786050  68.5265620 118.6204000  14.3407680
  83.8937800 120.2218270  22.7448940  83.2101320 120.8917380  22.7365610
  84.4332090 120.4198920  21.9793800  85.3461940 110.0497930  20.8730670
  84.3986850 110.0836910  21.0046100  85.6711930 110.8636880  21.2580030
  75.8781480 106.3495110  19.1686660  76.1856460 105.7942000  18.4522160
  74.9482180 106.4839570  18.9859650  81.4296540 122.0662400  21.4594120
  81.4423700 121.6624690  20.5916380  80.8771760 122.8409690  21.3555550
  82.7241960 118.7878620  16.5484290  82.6138290 117.8452950  16.6733710
  82.7210210 119.1494260  17.4347050  80.8281980 116.9692240  22.7876730
  81.2450770 116.7552350  21.9530190  81.5521800 117.2265030  23.3585350
  78.2662240 114.4143940  15.9046780  77.3391520 114.3481320  16.1335250
  78.4187060 115.3524070  15.7902020  78.2531320 110.6860940  12.9013940
  77.3134990 110.8474900  12.9866400  78.5714580 111.4046620  12.3549930
  84.7744080 115.3679460  22.8792970  83.9462710 115.4372550  22.4043100
  85.3694560 115.9533770  22.4108800  82.2959530 115.9764240  16.4082030
  81.6771950 115.6383790  15.7608330  82.2783980 115.3324000  17.1161220
  81.7386090 112.1548780  23.8247840  81.3257270 112.9802490  24.0787830
  81.0062040 111.5693820  23.6324200  73.8718880 114.9408680  18.6866510
  73.4675880 114.2285930  18.1912410  73.9582000 114.5961920  19.5754550
  74.3400580 118.6276240  20.8505720  74.0428870 118.0221710  20.1713500
  75.2900400 118.6653550  20.7395080  82.4286190 122.2008110  24.5128820
  81.9516750 123.0080300  24.3201430  81.7447980 121.5486440  24.6655030
  73.4319010 118.3657930  27.5013520  72.5347540 118.5897900  27.7486920
  73.4571880 118.4892870  26.5524920  80.4724230 115.2151050  13.4154780
  80.9117510 114.3773480  13.2692600  81.1852650 115.8480450  13.5018920
  72.2590230 115.2371250  26.0770890  72.1198000 116.1094050  26.4458290
  71.3771590 114.8944060  25.9318830  78.5819610 120.1547120  17.3836020
  79.0215520 120.8971450  16.9691410  78.5206500 120.3973690  18.3074980
  74.0570580 121.1792950  28.2856040  74.0286010 121.5835900  27.4184470
  73.8935550 120.2503310  28.1227640  84.0541370 106.4693860  11.7295820
  83.7414030 106.5620690  12.6294890  84.8153840 107.0474890  11.6793250
  70.5723510 113.8353660  16.1873160  70.4521110 114.5615750  15.5754430
  70.2624400 113.0656570  15.7101070  86.0085400 121.9620050  29.5820210
  86.4845120 122.4402940  30.2609290  86.6292560 121.8937540  28.8565710
  68.2108880 117.0068800  21.9941800  68.2889300 117.1417570  21.0497520
  68.8250560 116.2984690  22.1869920  69.4556510 118.7068990  18.4047980
  69.0484590 118.8483580  17.5501580  70.3469520 118.4229150  18.2019190
  85.4118650 119.1532900  26.7420220  85.5381710 118.9144780  25.8237400
  85.4540030 118.3217440  27.2142300  79.2735390 122.8560900  25.3115030
  79.7880060 122.7668910  26.1137460  78.4304470 123.2020600  25.6042940
  81.2489790 123.1416240  14.7399030  81.0890930 122.8519180  15.6380860
  81.0836500 122.3656370  14.2044260  73.7278170 122.9214770  16.5170650
  73.5520650 122.0050310  16.3038450  72.8733910 123.2802060  16.7568450
  80.9515920 120.6503800  13.2997030  80.2581080 120.6481090  12.6399310
  81.6938780 120.2263120  12.8691200  80.5165850 122.2766510  17.3745520
  80.9722800 121.4955890  17.6884140  80.8558370 122.9873330  17.9186700
  85.2642660 111.2065360  27.7069960  84.6486930 111.7145030  27.1785420
  84.9439080 110.3063690  27.6495900  68.2668400 118.0482970  24.5336260
  68.4299440 117.5788330  23.7155630  68.7320850 117.5406530  25.1985100
  73.0387170 107.1788730  19.5696830  72.5955320 107.9598270  19.2381350
  73.5972160 107.5018620  20.2767770  82.3261490 111.2666200  26.3028810
  81.4755080 110.9671950  26.6237880  82.1663280 111.5108210  25.3912630
  76.1545990 106.7999430  14.4502660  75.5300170 106.7959300  15.1755970
  76.0676110 105.9330390  14.0538630  72.8301390 112.3022300  17.2978080
  72.6042310 112.0859470  18.2024700  72.0493920 112.7350760  16.9524050
  80.0599150 112.3085670  15.8968730  79.4608040 113.0321470  15.7132350
  80.6078760 112.2462450  15.1145180  75.2700600 113.2007880  27.9638350
  75.1744200 112.2602610  27.8138750  76.1132580 113.4222950  27.5686420
  78.6664020 110.9449210  17.9272010  79.0593590 111.2621410  17.1140700
  79.0280870 110.0661090  18.0416530  70.4011140 109.6121550  26.1172130
  70.0074530 110.4596760  26.3244910  69.7129540 108.9747920  26.3080770
  67.7028190 107.5350010  20.1502210  67.4141240 108.1052870  20.8627190
  68.4473950 107.0554460  20.5133440  67.8898420 111.4770130  11.3604930
  67.8073090 112.4200890  11.5019920  67.5381480 111.3345040  10.4817280
  79.2519160 113.5354960  22.0222790  78.5200280 114.0441770  22.3712890
  78.8543500 112.7184940  21.7211570  75.6896550 110.2109160  20.4275280
  75.6932610 109.7699110  19.5779820  76.5847670 110.5326490  20.5347100
  71.5398930 110.0935650  19.3869490  71.1998980 110.5710880  20.1436540
  70.7776250 109.6400770  19.0270590  75.7516700 111.2121240  13.4182040
  75.8729520 111.1707720  14.3667860  75.3665210 112.0745390  13.2628770
  79.7145070 108.9888640  21.4345730  79.7317810 109.4397290  22.2787580
  79.4660650 108.0894280  21.6479170  74.7638200 113.5222380  12.8165340
  74.1955100 113.0740630  12.1901250  75.4727200 113.8815160  12.2830490
  83.1415820 106.4020820  27.2732110  83.4661590 105.6710480  27.7990090
  83.1772330 106.0834460  26.3713100  69.8407380 117.4234400  26.6932070
  69.4562170 116.7828070  27.2915030  70.1519570 118.1270520  27.2626800
  75.9904520 114.2710940  22.1740690  76.3574650 113.7969510  22.9202030
  75.8009580 115.1452510  22.5149030  68.8545010 109.0154630  18.3034160
  68.5691930 108.6510300  19.1412780  68.7923870 108.2835090  17.6897300
  73.7803890 113.3119580  24.4924900  73.4760960 114.1911560  24.7175260
  74.7350350 113.3719370  24.5282340  72.3085680 117.5180570  15.0891750
  71.5347940 116.9778190  14.9290470  73.0380310 116.9987180  14.7509510
  83.0673660 116.5145930  20.8818140  83.7872780 117.0101220  20.4914250
  82.8655480 115.8363820  20.2372010  78.5283600 107.9083890  15.0247530
  77.7148210 107.4097060  14.9492840  78.3345550 108.7482140  14.6083880
  78.4492460 116.5854990  26.7687140  78.3829770 115.6650660  26.5144730
  77.8197600 116.6830430  27.4831780  81.2431990 112.2803540  13.3209690
  82.1311610 112.5920770  13.1461030  81.2137080 111.4075790  12.9290270
  72.3523080 117.1860950  18.7270560  72.8701750 116.3829210  18.6727450
  71.9007100 117.1240090  19.5687390  77.2392580 118.4527230  13.9997860
  77.5808280 119.1969460  13.5041180  76.4105290 118.7658350  14.3622690
  69.8367620 114.1522320  25.6396260  69.4782560 114.8176170  26.2269600
  69.5422180 113.3205870  26.0108880  73.0380740 114.6106560  28.5235810
  72.7380880 114.7563740  27.6263630  73.8091980 114.0511850  28.4309200
  78.3809190 119.4075560  26.5190940  78.3953730 118.4756520  26.3009850
  77.6734290 119.4935320  27.1580710  83.5146260 113.5915380  12.7889550
  83.4309980 114.0229600  11.9385990  84.2340450 114.0513730  13.2216370
  84.5920400 116.0482900  25.8659520  83.8668590 116.6411680  25.6688910
  85.1195860 116.0406440  25.0672890  84.5433510 120.4457640  15.5171680
  83.9009670 119.7913260  15.7915400  84.1564170 120.8512730  14.7412350
  80.1219990 117.7743070  19.3643370  80.4743810 117.1771200  18.7044740
  79.2382320 117.4487300  19.5351620  76.2083270 118.5340760  16.7713780
  76.8954400 119.0809970  17.1521370  75.4215690 119.0781490  16.8063390
  68.3475670 114.1513580  12.2630860  69.2170520 114.4338380  12.5466780
  67.8565990 114.9649450  12.1479670  75.5110480 115.5386790  16.3839140
  75.9673260 116.3492040  16.6099330  75.1598690 115.2209930  17.2157630
  77.8143090 121.0493130  23.6131440  78.4585310 121.2552510  24.2904860
  78.1772530 120.2881530  23.1602290  71.4122260 105.8824440  16.8561660
  71.2836890 105.8742340  17.8046580  70.5884280 106.2207530  16.5052670
  79.0875170 119.0525480  22.3308890  79.7297400 118.3518640  22.4441060
  79.6124520 119.8323920  22.1505780  82.9330890 119.3374100  12.0548030
  82.7068470 118.6204540  12.6472670  82.5427090 119.0886540  11.2169780
  80.8612790 119.8520380  25.5344950  81.1969030 120.4387070  26.2122870
  79.9413130 119.7213090  25.7642740  68.7146920 123.3640960  12.8292490
  69.0744560 123.9630300  12.1749760  68.5739260 123.9100850  13.6027520
  68.4116190 107.6415560  26.3168360  67.6974710 107.8412480  26.9220970
  68.8311230 106.8655130  26.6883160  82.5147140 117.2546040  13.7162190
  82.2268840 117.7158730  14.5040070  83.3099310 116.7943810  13.9846410
  68.6988780 121.6295820  27.3034890  68.8079900 120.6890560  27.1630280
  68.0469340 121.8950570  26.6548620  76.6901370 119.9011710  28.7033010
  76.3698240 119.1820950  29.2478700  76.0159730 120.5766780  28.7769070
  74.7315540 120.7472160  13.6466160  74.7225640 121.4801850  13.0310670
  73.8113900 120.5003740  13.7393120  70.3322180 115.9687050  14.3912920
  69.7250130 116.7085950  14.4008220  70.8071530 116.0586410  13.5651120
  79.9054970 110.1337870  24.0669810  80.2735790 109.3133080  24.3949380
  79.0453170 110.1939760  24.4825460  83.2717000 109.0894810  14.8757370
  82.6430160 109.1940480  14.1615600  82.7768920 109.3091590  15.6651250
  77.7175140 120.8100400  12.3091350  77.8187120 120.6064390  11.3793330
  76.8176880 120.5558680  12.5139130  75.2401030 111.3680760  16.2915250
  74.5317180 111.8367100  16.7328860  75.5245510 110.7102770  16.9260440
  76.8656960 112.7877460  24.2907780  77.3642210 113.2623280  24.9559630
  77.0079910 111.8640980  24.4977810  79.2716460 108.0931420  17.7311040
  79.1484240 108.1117550  16.7820550  80.2201020 108.1410360  17.8509440
  76.3593250 123.3286720  17.0039020  76.6134750 123.2908110  16.0818390
  75.4105730 123.2020050  16.9967270  73.4436050 109.6765840  13.6665960
  74.2926580 110.1135990  13.6006150  73.0767320 109.9886100  14.4938020
  84.0723820 109.0045420  25.1336170  83.5697420 109.7450820  25.4729980
  84.8880480 109.3929420  24.8172960  82.3645830 114.2478600  18.5797530
  81.4235970 114.2628830  18.7545220  82.6789900 113.4614560  19.0257830
  72.3427470 115.9298200  12.1401490  73.1090740 115.8179560  12.7026920
  72.4202160 115.2336170  11.4878260  71.0374230 113.3623270  12.8234380
  71.1177820 112.4150780  12.9351780  71.9293980 113.6930150  12.9295040
  84.3671410 121.4187450  20.2551790  84.4918830 122.2418620  20.7275600
  85.2336970 121.2078180  19.9075940  71.8388940 123.5118660  19.9268920
  72.5751420 122.9634120  20.1977490  72.2229860 124.3774670  19.7874910
  68.7234420 119.5792230  15.8010430  67.7974200 119.8213370  15.7915840
  69.1890850 120.4066490  15.6795180  70.8447220 122.6964730  29.1154500
  71.6459950 123.0176780  29.5289900  70.3299040 122.3360310  29.8374410
  74.9491250 122.6848970  11.7494490  75.7419860 122.9737800  11.2976280
  74.4295600 122.2541140  11.0706970  79.6811850 118.8044600  29.0629910
  79.0750010 118.8276200  28.3225660  79.3765960 118.0727640  29.5997160
  81.1112220 122.5324890  27.6739320  82.0633970 122.4482910  27.6239560
  80.9640440 123.1966600  28.3473110  84.0021420 121.9119100  13.1731230
  83.7162930 121.4984240  12.3585410  83.8040970 122.8406810  13.0531750
  68.5645030 115.1838190  28.0590550  69.0684050 114.6045470  28.6306780
  67.8252450 115.4678420  28.5966920  75.4668650 117.9052380  11.6136840
  75.3619290 117.2904730  12.3398220  75.2992870 117.3818270  10.8299850
  75.6182970 116.5909180  27.5926070  74.8528640 117.1594180  27.5080740
  75.7998930 116.2985390  26.6994300  78.7071380 116.9672410  12.2178830
  78.1581480 117.4141710  12.8621570  79.3290640 116.4621660  12.7416500
  82.7606320 118.3214510  28.1501090  83.5015790 118.6590270  27.6468550
  81.9979000 118.4906570  27.5970860  70.5968110 113.3267780  28.9540620
  70.6373450 113.0281650  29.8625850  71.4513610 113.7275390  28.7948140
  74.3746500 115.9263330  14.1144130  74.7962920 115.7603200  14.9575520
  74.4997340 115.1163560  13.6199270  72.5373920 111.9059880  26.9215110
  72.0070380 111.4150830  26.2938450  73.2061990 112.3344080  26.3873040
  76.8874140 114.9500940  11.3621230  77.4079800 114.2349960  10.9962380
  77.5342540 115.5886810  11.6621740  81.4351980 116.3729340  26.6856300
  81.8493000 116.5274420  27.5346720  80.5002980 116.4984560  26.8482080
  81.9074150 113.7125500  28.6895450  82.4894920 112.9577820  28.6015930
  82.0835920 114.2432940  27.9126930  76.1967210 116.3249820  24.6552230
  76.6155320 117.1682550  24.4828470  75.2775840 116.4621860  24.4259010
  78.5331110 114.0566000  26.0390070  78.6527320 113.4607140  26.7784910
  79.3925110 114.0935690  25.6191370  80.8719010 114.6103190  24.6152580
  80.3454230 115.1345810  24.0117720  81.2150350 115.2430580  25.2462310
  73.2705400 111.9996560  11.0602290  73.0694460 111.1363920  11.4215630
  73.0997450 111.9129920  10.1223890  74.0474630 122.6302830  25.7709960
  73.5095720 123.3548890  25.4518660  74.3008590 122.1533170  24.9807300
  80.7493710 106.8104790  13.5889170  81.0296000 105.9672690  13.9448590
  79.9759440 107.0427900  14.1027920  72.0688200 109.0997180  11.0480170
  72.3714100 109.1064610  10.1399320  72.8082790 108.7495040  11.5447830
  76.9036840 123.8654040  26.0296610  76.8295540 124.7689180  26.3368980
  76.0015680 123.5465940  26.0018680  75.2873130 108.0431800  12.0336370
  74.9395130 107.3655790  11.4538820  75.4885900 107.5821310  12.8479760
  77.4522170 123.0312550  13.6522970  78.3472960 123.3697520  13.6741730
  77.4839800 122.3091960  13.0247250  71.0918330 118.4039600  11.8809970
  71.5293200 118.9469270  12.5367550  71.5766060 117.5786550  11.8906310
  68.3064130 121.1928630  19.3330230  68.6367140 120.3249690  19.1008870
  68.7355130 121.3987150  20.1635190  72.9026050 119.5237640  16.9932200
  72.6021590 119.4002610  17.8936110  72.7963540 118.6646230  16.5847930
  68.7954340 122.0599220  22.0711860  68.3585330 122.2400020  22.9036010
  69.3632020 122.8173840  21.9293580  84.4316520 121.5616220  26.3589170
  83.8318510 121.6208780  25.6153090  84.5610420 120.6221200  26.4886020
  85.6717970 119.3034040  11.6958880  84.8410930 119.3710690  12.1666110
  85.8489800 120.1938160  11.3925740  85.1274430 116.0481520  14.1993080
  85.8893340 116.6178170  14.3052770  85.1428800 115.4808720  14.9701390
  68.6278770 114.5719450  18.4300740  67.9727610 114.3031090  17.7860440
  69.4656720 114.4623930  17.9802720  86.1334400 116.9031620  19.0435010
  86.5043230 116.1198940  18.6370980  86.7736330 117.5920720  18.8652310
  83.1168160 118.2868200  24.4565330  82.3028000 118.7165360  24.7191120
  83.5242360 118.8986610  23.8434380  85.1793600 116.3415890  11.3565600
  85.4542440 117.2494770  11.2284820  84.9904340 116.2778420  12.2927590
  81.5769210 109.3660740  12.6519230  81.9954090 109.1791720  11.8115890
  81.2705270 108.5139790  12.9622160  85.0758940 114.2784880  16.3495030
  84.7002540 113.5112810  15.9176320  84.3462060 114.6607580  16.8369960
  69.6654700 114.9572020  22.9704080  70.0327740 114.8699420  23.8500100
  69.0965520 114.1938570  22.8710940  84.4658560 113.4256400  25.9834550
  84.2344650 113.1969150  25.0832500  84.7263110 114.3455950  25.9379440
  69.2170700 111.8681110  26.8762500  68.3226750 111.8347870  27.2156210
  69.7568250 112.0667900  27.6413750  82.9046630 108.6512830  28.7614250
  83.7816810 108.6596230  29.1448250  82.9167470 107.9143670  28.1506600
  67.8416850 111.7818380  14.3726070  66.9380930 112.0448580  14.1977730
  68.3257470 112.0529550  13.5926030  84.3509900 112.5042370  19.6502270
  84.8747380 112.0105020  19.0192440  84.9369320 112.6392730  20.3949840
  84.5299620 112.5882240  23.1721820  83.5802330 112.5545780  23.2866810
  84.7112630 113.4982350  22.9371590  70.3844060 110.8383920  12.2820450
  71.0935760 110.4167140  11.7967730  69.6684000 110.9059150  11.6503800
  70.0318220 106.8923250  11.3223100  70.7546350 107.4332190  11.6404320
  70.3042740 106.6186670  10.4464640  83.8409870 111.7615720  15.5894680
  84.3368990 111.5286590  16.3743560  83.6425940 110.9227560  15.1732320
  69.7210410 106.1429440  21.2245720  70.3686600 105.5926820  20.7840880
  70.1412250 106.3972590  22.0461530  85.2697030 110.3976670  18.1232360
  85.1596310 110.2432710  19.0614630  86.0304620 109.8697610  17.8807770
  83.6162750 106.3370800  24.5815360  84.2534970 106.9504940  24.9474550
  83.7637640 106.3731460  23.6364590  86.1587300 108.2284590  11.3638500
  87.0836610 108.0965770  11.1556790  86.1363090 108.3077410  12.3174950
  86.2325790 108.9995250  13.9895210  85.4377290 108.9340370  14.5188120
  86.4369070 109.9345890  13.9780560  83.1744210 123.0386800  17.9833600
  83.7703280 122.7171370  17.3068020  83.4322360 122.5658620  18.7746870
  71.0806780 119.4704710  28.1324230  71.0376410 119.0997620  29.0138690
  71.2117790 120.4082280  28.2726050  74.7812810 121.0264300  23.7333950
  74.5404170 121.2938860  22.8464470  75.7215450 121.1970030  23.7884810
  86.0416970 123.0458680  24.5344590  85.5475250 123.4427550  23.8171720
  85.4330260 122.4207890  24.9281870  70.9194810 122.4166960  25.2522010
  70.3255130 122.2851660  25.9912050  70.9118650 121.5805100  24.7864110
  80.3649830 105.7099190  23.4552040  79.4909670 106.0434300  23.2524970
  80.2560580 105.2372370  24.2803910  81.2721810 107.9170060  24.8393760
  80.9435170 107.1021820  24.4595490  82.2204110 107.8739870  24.7159450
  83.7256420 123.6882100  21.8131330  83.2659390 124.4397910  21.4389350
  83.0968880 122.9688570  21.7546130  70.5507040 119.7825340  24.2030050
  69.8241100 119.1630630  24.1356000  70.6116190 120.1765950  23.3328130
  74.1552140 121.9970340  20.9879460  74.6717160 121.3857700  20.4627720
  74.8049520 122.4999120  21.4790470  76.8947640 122.8878830  21.8148440
  77.1825450 122.6333130  20.9381450  77.4070860 122.3356190  22.4054010
  78.1124650 106.6269030  22.3944950  77.3296440 107.1014530  22.6741710
  77.8187580 105.7223860  22.2858130  82.6645720 107.3292130  20.4394040
  83.1053810 107.2737230  19.5915640  82.3953310 108.2450140  20.5104220
  84.5284290 106.9607370  18.4502860  84.4672690 106.0168590  18.3033880
  85.3076320 107.0687460  18.9956320  68.8337040 123.0999730  17.4126810
  68.6659080 122.4670410  18.1108700  67.9671550 123.3059130  17.0621000
  69.4565060 106.9316510  14.9158670  70.2144420 107.0445390  14.3422700
  68.9942230 107.7685710  14.8702100  75.9978870 109.0455780  17.9060980
  75.1853380 108.6712670  17.5656860  76.5020510 108.2900860  18.2082170
  80.5003850 105.7098230  19.1444050  81.1033220 106.2818440  19.6192570
  79.7596840 106.2737670  18.9217950  83.6438450 106.1119790  14.4184330
  83.8389080 107.0103240  14.6851760  82.8568320 105.8806870  14.9117280
  70.4399740 121.7932960  14.8576950  69.9147360 122.1740990  14.1538910
  70.3644320 122.4183730  15.5786660  71.8290210 107.4580560  13.4560640
  72.3582970 106.6710360  13.3268590  72.4618530 108.1371750  13.6896170
  74.0228050 107.1955700  16.5106030  73.3930790 106.4943010  16.6776160
  73.4833190 107.9559830  16.2939190  76.9620000 123.8094930  29.1816640
  77.8887310 123.5739200  29.2252600  76.9470430 124.6366930  28.7002670
  85.1965060 123.3520500  16.1790890  85.3717250 122.6658240  15.5351810
  84.4986630 123.8767550  15.7867560  73.0392710 123.7415340  13.7326200
  73.7711530 123.4574620  13.1850090  73.2986380 123.5028620  14.6225580
  72.2007500 119.8580070  13.7372530  71.5716380 120.3265170  14.2858360
  72.3155330 119.0129290  14.1718720  83.5297560 123.0364790  29.0057680
  84.3222880 122.5414020  28.7983640  83.8230710 123.7154930  29.6133290
  77.7875260 115.6864750   1.7683000  77.0117360 115.2065190   2.0581570
  78.4388190 115.0070400   1.5939160  71.8041090 115.9984560   2.6458760
  70.9725970 115.7433270   3.0455270  72.4122070 116.0695330   3.3816680
  71.7842350 120.0324650   2.8416780  72.0870390 119.1422390   2.6627000
  72.5285940 120.5894870   2.6139030  77.2284250 118.3621940   1.7753160
  77.1592530 117.4211880   1.6142290  77.9904110 118.4523350   2.3475730
  69.4190920 108.9676460   4.1009780  69.2393760 108.0702210   4.3812540
  69.0171000 109.5148330   4.7756730  70.0377590 111.4636960   2.7092120
  70.7187700 111.7275330   3.3279520  69.7225640 110.6237830   3.0430130
  74.2302160 112.5104320   1.7964710  74.7380380 113.0085290   2.4369730
  74.7615400 111.7339520   1.6204070  86.3313090 110.6809510   5.4994060
  85.6265260 111.0691220   4.9809170  86.5971010 111.3759800   6.1014990
  72.5138260 107.1502880   6.0628130  72.5156700 107.6675270   5.2574030
  71.6842570 106.6733060   6.0398060  73.7641110 116.7898060   4.2401630
  73.4310490 117.4166980   4.8822700  73.9407790 117.3159940   3.4603300
  72.1953590 108.8612840   4.0698580  72.5370400 109.7054890   3.7752450
  71.2569400 109.0096580   4.1863920  72.9760210 118.7578860   6.0550810
  73.5934210 119.4329940   5.7735260  72.1153330 119.1666840   5.9638310
  83.8937800 120.2218270   3.9705450  83.2101320 120.8917380   3.9622120
  84.4332090 120.4198920   3.2050310  85.3461940 110.0497930   2.0987180
  84.3986850 110.0836910   2.2302610  85.6711930 110.8636880   2.4836540
  81.4296540 122.0662400   2.6850630  81.4423700 121.6624690   1.8172890
  80.8771760 122.8409690   2.5812060  80.8281980 116.9692240   4.0133240
  81.2450770 116.7552350   3.1786700  81.5521800 117.2265030   4.5841860
  84.7744080 115.3679460   4.1049480  83.9462710 115.4372550   3.6299610
  85.3694560 115.9533770   3.6365310  81.7386090 112.1548780   5.0504350
  81.3257270 112.9802490   5.3044340  81.0062040 111.5693820   4.8580710
  72.5847500 111.7151890   3.6922060  73.1362090 111.8247230   2.9175310
  73.0991010 112.0889490   4.4077290  82.4286190 122.2008110   5.7385330
  81.9516750 123.0080300   5.5457940  81.7447980 121.5486440   5.8911540
  73.4319010 118.3657930   8.7270030  72.5347540 118.5897900   8.9743430
  73.4571880 118.4892870   7.7781430  72.2590230 115.2371250   7.3027400
  72.1198000 116.1094050   7.6714800  71.3771590 114.8944060   7.1575340
  74.0570580 121.1792950   9.5112550  74.0286010 121.5835900   8.6440980
  73.8935550 120.2503310   9.3484150  86.0085400 121.9620050  10.8076720
  86.4845120 122.4402940  11.4865800  86.6292560 121.8937540  10.0822220
  68.2108880 117.0068800   3.2198310  68.2889300 117.1417570   2.2754030
  68.8250560 116.2984690   3.4126430  85.4118650 119.1532900   7.9676730
  85.5381710 118.9144780   7.0493910  85.4540030 118.3217440   8.4398810
  79.2735390 122.8560900   6.5371540  79.7880060 122.7668910   7.3393970
  78.4304470 123.2020600   6.8299450  85.2642660 111.2065360   8.9326470
  84.6486930 111.7145030   8.4041930  84.9439080 110.3063690   8.8752410
  68.2668400 118.0482970   5.7592770  68.4299440 117.5788330   4.9412140
  68.7320850 117.5406530   6.4241610  77.3256980 110.0457250   6.3988660
  76.8636350 110.2540270   7.2108600  76.9235090 109.2316600   6.0959330
  82.3261490 111.2666200   7.5285320  81.4755080 110.9671950   7.8494390
  82.1663280 111.5108210   6.6169140  79.4211200 112.7667950   9.6284110
  79.7464610 111.9331700   9.2886340  80.2091530 113.2896470   9.7762440
  75.0763070 107.7236060   2.6542940  75.3735400 108.6298890   2.5734960
  75.6248630 107.2354840   2.0402510  75.2700600 113.2007880   9.1894860
  75.1744200 112.2602610   9.0395260  76.1132580 113.4222950   8.7942930
  70.4011140 109.6121550   7.3428640  70.0074530 110.4596760   7.5501420
  69.7129540 108.9747920   7.5337280  76.9756190 109.6956520  10.4125380
  76.2854510 109.5028720  11.0471470  77.7188490 109.9791160  10.9449680
  79.2519160 113.5354960   3.2479300  78.5200280 114.0441770   3.5969400
  78.8543500 112.7184940   2.9468080  79.7145070 108.9888640   2.6602240
  79.7317810 109.4397290   3.5044090  79.4660650 108.0894280   2.8735680
  83.1415820 106.4020820   8.4988620  83.4661590 105.6710480   9.0246600
  83.1772330 106.0834460   7.5969610  69.8407380 117.4234400   7.9188580
  69.4562170 116.7828070   8.5171540  70.1519570 118.1270520   8.4883310
  75.9904520 114.2710940   3.3997200  76.3574650 113.7969510   4.1458540
  75.8009580 115.1452510   3.7405540  73.7803890 113.3119580   5.7181410
  73.4760960 114.1911560   5.9431770  74.7350350 113.3719370   5.7538850
  83.0673660 116.5145930   2.1074650  83.7872780 117.0101220   1.7170760
  82.8655480 115.8363820   1.4628520  78.4492460 116.5854990   7.9943650
  78.3829770 115.6650660   7.7401240  77.8197600 116.6830430   8.7088290
  69.8367620 114.1522320   6.8652770  69.4782560 114.8176170   7.4526110
  69.5422180 113.3205870   7.2365390  73.0380740 114.6106560   9.7492320
  72.7380880 114.7563740   8.8520140  73.8091980 114.0511850   9.6565710
  78.3809190 119.4075560   7.7447450  78.3953730 118.4756520   7.5266360
  77.6734290 119.4935320   8.3837220  84.5920400 116.0482900   7.0916030
  83.8668590 116.6411680   6.8945420  85.1195860 116.0406440   6.2929400
  77.8143090 121.0493130   4.8387950  78.4585310 121.2552510   5.5161370
  78.1772530 120.2881530   4.3858800  79.0875170 119.0525480   3.5565400
  79.7297400 118.3518640   3.6697570  79.6124520 119.8323920   3.3762290
  80.8612790 119.8520380   6.7601460  81.1969030 120.4387070   7.4379380
  79.9413130 119.7213090   6.9899250  68.4116190 107.6415560   7.5424870
  67.6974710 107.8412480   8.1477480  68.8311230 106.8655130   7.9139670
  68.6988780 121.6295820   8.5291400  68.8079900 120.6890560   8.3886790
  68.0469340 121.8950570   7.8805130  76.6901370 119.9011710   9.9289520
  76.3698240 119.1820950  10.4735210  76.0159730 120.5766780  10.0025580
  79.9054970 110.1337870   5.2926320  80.2735790 109.3133080   5.6205890
  79.0453170 110.1939760   5.7081970  76.8656960 112.7877460   5.5164290
  77.3642210 113.2623280   6.1816140  77.0079910 111.8640980   5.7234320
  84.0723820 109.0045420   6.3592680  83.5697420 109.7450820   6.6986490
  84.8880480 109.3929420   6.0429470  70.8447220 122.6964730  10.3411010
  71.6459950 123.0176780  10.7546410  70.3299040 122.3360310  11.0630920
  79.6811850 118.8044600  10.2886420  79.0750010 118.8276200   9.5482170
  79.3765960 118.0727640  10.8253670  81.1112220 122.5324890   8.8995830
  82.0633970 122.4482910   8.8496070  80.9640440 123.1966600   9.5729620
  68.5645030 115.1838190   9.2847060  69.0684050 114.6045470   9.8563290
  67.8252450 115.4678420   9.8223430  75.6182970 116.5909180   8.8182580
  74.8528640 117.1594180   8.7337250  75.7998930 116.2985390   7.9250810
  82.7606320 118.3214510   9.3757600  83.5015790 118.6590270   8.8725060
  81.9979000 118.4906570   8.8227370  70.5968110 113.3267780  10.1797130
  70.6373450 113.0281650  11.0882360  71.4513610 113.7275390  10.0204650
  72.5373920 111.9059880   8.1471620  72.0070380 111.4150830   7.5194960
  73.2061990 112.3344080   7.6129550  81.4351980 116.3729340   7.9112810
  81.8493000 116.5274420   8.7603230  80.5002980 116.4984560   8.0738590
  81.9074150 113.7125500   9.9151960  82.4894920 112.9577820   9.8272440
  82.0835920 114.2432940   9.1383440  73.0246220 108.8722250   8.2268910
  72.9303090 108.2543000   7.5019780  72.4443610 109.5988540   7.9998820
  75.7907660 107.4295490   5.2596300  75.3424960 107.4519750   4.4141850
  75.1572860 107.0314510   5.8566600  76.1967210 116.3249820   5.8808740
  76.6155320 117.1682550   5.7084980  75.2775840 116.4621860   5.6515520
  78.5331110 114.0566000   7.2646580  78.6527320 113.4607140   8.0041420
  79.3925110 114.0935690   6.8447880  80.8719010 114.6103190   5.8409090
  80.3454230 115.1345810   5.2374230  81.2150350 115.2430580   6.4718820
  74.0474630 122.6302830   6.9966470  73.5095720 123.3548890   6.6775170
  74.3008590 122.1533170   6.2063810  75.2999880 110.5987350   8.5222400
  75.8899570 110.2903200   9.2100220  74.4820120 110.1267100   8.6782300
  80.1193310 110.2153160   8.7555420  79.4308830 109.5534700   8.6905410
  80.8399330 109.7691430   9.2003880  76.9036840 123.8654040   7.2553120
  76.8295540 124.7689180   7.5625490  76.0015680 123.5465940   7.2275190
  68.7954340 122.0599220   3.2968370  68.3585330 122.2400020   4.1292520
  69.3632020 122.8173840   3.1550090  84.4316520 121.5616220   7.5845680
  83.8318510 121.6208780   6.8409600  84.5610420 120.6221200   7.7142530
  83.1168160 118.2868200   5.6821840  82.3028000 118.7165360   5.9447630
  83.5242360 118.8986610   5.0690890  69.6654700 114.9572020   4.1960590
  70.0327740 114.8699420   5.0756610  69.0965520 114.1938570   4.0967450
  84.4658560 113.4256400   7.2091060  84.2344650 113.1969150   6.3089010
  84.7263110 114.3455950   7.1635950  69.2170700 111.8681110   8.1019010
  68.3226750 111.8347870   8.4412720  69.7568250 112.0667900   8.8670260
  82.9046630 108.6512830   9.9870760  83.7816810 108.6596230  10.3704760
  82.9167470 107.9143670   9.3763110  84.5299620 112.5882240   4.3978330
  83.5802330 112.5545780   4.5123320  84.7112630 113.4982350   4.1628100
  69.7210410 106.1429440   2.4502230  70.3686600 105.5926820   2.0097390
  70.1412250 106.3972590   3.2718040  83.6162750 106.3370800   5.8071870
  84.2534970 106.9504940   6.1731060  83.7637640 106.3731460   4.8621100
  69.4742410 106.2985110   5.1927550  69.1257230 106.7548930   5.9585730
  69.1430110 105.4042240   5.2749980  71.0806780 119.4704710   9.3580740
  71.0376410 119.0997620  10.2395200  71.2117790 120.4082280   9.4982560
  74.7812810 121.0264300   4.9590460  74.5404170 121.2938860   4.0720980
  75.7215450 121.1970030   5.0141320  76.9867230 107.4896990   8.7146970
  76.9256120 108.0818820   9.4642380  77.9267610 107.3822950   8.5697230
  79.6241790 107.1467050   8.3539260  80.2382200 107.4646340   7.6920340
  80.1691350 106.6615640   8.9735120  86.0416970 123.0458680   5.7601100
  85.5475250 123.4427550   5.0428230  85.4330260 122.4207890   6.1538380
  70.1463050 105.8261310   8.4678320  70.6946040 105.6449360   7.7044430
  70.2118360 105.0355420   9.0034630  70.9194810 122.4166960   6.4778520
  70.3255130 122.2851660   7.2168560  70.9118650 121.5805100   6.0120620
  80.3649830 105.7099190   4.6808550  79.4909670 106.0434300   4.4781480
  80.2560580 105.2372370   5.5060420  81.2721810 107.9170060   6.0650270
  80.9435170 107.1021820   5.6852000  82.2204110 107.8739870   5.9415960
  83.7256420 123.6882100   3.0387840  83.2659390 124.4397910   2.6645860
  83.0968880 122.9688570   2.9802640  70.5507040 119.7825340   5.4286560
  69.8241100 119.1630630   5.3612510  70.6116190 120.1765950   4.5584640
  74.1552140 121.9970340   2.2135970  74.6717160 121.3857700   1.6884230
  74.8049520 122.4999120   2.7046980  76.8947640 122.8878830   3.0404950
  77.1825450 122.6333130   2.1637960  77.4070860 122.3356190   3.6310520
  78.1124650 106.6269030   3.6201460  77.3296440 107.1014530   3.8998220
  77.8187580 105.7223860   3.5114640  76.9620000 123.8094930  10.4073150
  77.8887310 123.5739200  10.4509110  76.9470430 124.6366930   9.9259180
  74.1483610 106.4739680  10.1715030  73.8667880 106.9773280   9.4075850
  74.5303310 105.6761430   9.8057160  80.7499070 105.8893260  10.7495500
  80.6364520 106.2087870  11.6447020  81.5668810 106.2905770  10.4532780
  83.5297560 123.0364790  10.2314190  84.3222880 122.5414020  10.0240150
  83.8230710 123.7154930  10.8389800  79.6557220  95.1342240 150.0821650
  79.5751270  94.2196850 149.8113360  79.2421640  95.6309310 149.3761360
  81.8082690 101.3181450 150.7430050  81.3464220 100.5468690 151.0717220
  82.6208240 101.3447520 151.2482500  70.2133040  92.1842960 146.6249070
  69.3249740  92.5258930 146.5228950  70.4974230  91.9843280 145.7329900
  78.0346000 103.6039460 150.3634040  77.4157440 104.0596960 149.7928480
  78.8897780 103.7590920 149.9623740  72.3894430  90.7674460 147.6587450
  72.4961180  91.6678190 147.9656210  71.4786790  90.7192430 147.3682100
  82.0413540  89.8899270 149.1298350  82.8623160  89.3995840 149.1723830
  82.0747620  90.4796930 149.8830190  78.9009350  98.4878700 147.7565950
  78.2826620  98.9528150 147.1928670  79.4132600  99.1806180 148.1735460
  68.2692550  99.1735230 145.1305580  67.8920530  99.6622330 144.3990480
  68.5265620  99.8460510 145.7612110  75.8781480  87.5751620 150.5891090
  76.1856460  87.0198510 149.8726590  74.9482180  87.7096080 150.4064080
  82.7241960 100.0135130 147.9688720  82.6138290  99.0709460 148.0938140
  82.7210210 100.3750770 148.8551480  78.2662240  95.6400450 147.3251210
  77.3391520  95.5737830 147.5539680  78.4187060  96.5780580 147.2106450
  78.2531320  91.9117450 144.3218370  77.3134990  92.0731410 144.4070830
  78.5714580  92.6303130 143.7754360  82.2959530  97.2020750 147.8286460
  81.6771950  96.8640300 147.1812760  82.2783980  96.5580510 148.5365650
  73.8718880  96.1665190 150.1070940  73.4675880  95.4542440 149.6116840
  73.9582000  95.8218430 150.9958980  80.4724230  96.4407560 144.8359210
  80.9117510  95.6029990 144.6897030  81.1852650  97.0736960 144.9223350
  78.5819610 101.3803630 148.8040450  79.0215520 102.1227960 148.3895840
  78.5206500 101.6230200 149.7279410  84.0541370  87.6950370 143.1500250
  83.7414030  87.7877200 144.0499320  84.8153840  88.2731400 143.0997680
  70.5723510  95.0610170 147.6077590  70.4521110  95.7872260 146.9958860
  70.2624400  94.2913080 147.1305500  69.4556510  99.9325500 149.8252410
  69.0484590 100.0740090 148.9706010  70.3469520  99.6485660 149.6223620
  81.2489790 104.3672750 146.1603460  81.0890930 104.0775690 147.0585290
  81.0836500 103.5912880 145.6248690  73.7278170 104.1471280 147.9375080
  73.5520650 103.2306820 147.7242880  72.8733910 104.5058570 148.1772880
  80.9515920 101.8760310 144.7201460  80.2581080 101.8737600 144.0603740
  81.6938780 101.4519630 144.2895630  80.5165850 103.5023020 148.7949950
  80.9722800 102.7212400 149.1088570  80.8558370 104.2129840 149.3391130
  73.0387170  88.4045240 150.9901260  72.5955320  89.1854780 150.6585780
  73.5972160  88.7275130 151.6972200  76.1545990  88.0255940 145.8707090
  75.5300170  88.0215810 146.5960400  76.0676110  87.1586900 145.4743060
  72.8301390  93.5278810 148.7182510  72.6042310  93.3115980 149.6229130
  72.0493920  93.9607270 148.3728480  80.0599150  93.5342180 147.3173160
  79.4608040  94.2577980 147.1336780  80.6078760  93.4718960 146.5349610
  78.6664020  92.1705720 149.3476440  79.0593590  92.4877920 148.5345130
  79.0280870  91.2917600 149.4620960  67.8898420  92.7026640 142.7809360
  67.8073090  93.6457400 142.9224350  67.5381480  92.5601550 141.9021710
  71.5398930  91.3192160 150.8073920  71.1998980  91.7967390 151.5640970
  70.7776250  90.8657280 150.4475020  75.7516700  92.4377750 144.8386470
  75.8729520  92.3964230 145.7872290  75.3665210  93.3001900 144.6833200
  74.7638200  94.7478890 144.2369770  74.1955100  94.2997140 143.6105680
  75.4727200  95.1071670 143.7034920  68.8545010  90.2411140 149.7238590
  68.5691930  89.8766810 150.5617210  68.7923870  89.5091600 149.1101730
  72.3085680  98.7437080 146.5096180  71.5347940  98.2034700 146.3494900
  73.0380310  98.2243690 146.1713940  78.5283600  89.1340400 146.4451960
  77.7148210  88.6353570 146.3697270  78.3345550  89.9738650 146.0288310
  81.2431990  93.5060050 144.7414120  82.1311610  93.8177280 144.5665460
  81.2137080  92.6332300 144.3494700  72.3523080  98.4117460 150.1474990
  72.8701750  97.6085720 150.0931880  71.9007100  98.3496600 150.9891820
  77.2392580  99.6783740 145.4202290  77.5808280 100.4225970 144.9245610
  76.4105290  99.9914860 145.7827120  83.5146260  94.8171890 144.2093980
  83.4309980  95.2486110 143.3590420  84.2340450  95.2770240 144.6420800
  84.5433510 101.6714150 146.9376110  83.9009670 101.0169770 147.2119830
  84.1564170 102.0769240 146.1616780  80.1219990  98.9999580 150.7847800
  80.4743810  98.4027710 150.1249170  79.2382320  98.6743810 150.9556050
  76.2083270  99.7597270 148.1918210  76.8954400 100.3066480 148.5725800
  75.4215690 100.3038000 148.2267820  68.3475670  95.3770090 143.6835290
  69.2170520  95.6594890 143.9671210  67.8565990  96.1905960 143.5684100
  75.5110480  96.7643300 147.8043570  75.9673260  97.5748550 148.0303760
  75.1598690  96.4466440 148.6362060  71.4122260  87.1080950 148.2766090
  71.2836890  87.0998850 149.2251010  70.5884280  87.4464040 147.9257100
  82.9330890 100.5630610 143.4752460  82.7068470  99.8461050 144.0677100
  82.5427090 100.3143050 142.6374210  68.7146920 104.5897470 144.2496920
  69.0744560 105.1886810 143.5954190  68.5739260 105.1357360 145.0231950
  82.5147140  98.4802550 145.1366620  82.2268840  98.9415240 145.9244500
  83.3099310  98.0200320 145.4050840  74.7315540 101.9728670 145.0670590
  74.7225640 102.7058360 144.4515100  73.8113900 101.7260250 145.1597550
  70.3322180  97.1943560 145.8117350  69.7250130  97.9342460 145.8212650
  70.8071530  97.2842920 144.9855550  83.2717000  90.3151320 146.2961800
  82.6430160  90.4196990 145.5820030  82.7768920  90.5348100 147.0855680
  77.7175140 102.0356910 143.7295780  77.8187120 101.8320900 142.7997760
  76.8176880 101.7815190 143.9343560  75.2401030  92.5937270 147.7119680
  74.5317180  93.0623610 148.1533290  75.5245510  91.9359280 148.3464870
  79.2716460  89.3187930 149.1515470  79.1484240  89.3374060 148.2024980
  80.2201020  89.3666870 149.2713870  76.3593250 104.5543230 148.4243450
  76.6134750 104.5164620 147.5022820  75.4105730 104.4276560 148.4171700
  73.4436050  90.9022350 145.0870390  74.2926580  91.3392500 145.0210580
  73.0767320  91.2142610 145.9142450  82.3645830  95.4735110 150.0001960
  81.4235970  95.4885340 150.1749650  82.6789900  94.6871070 150.4462260
  72.3427470  97.1554710 143.5605920  73.1090740  97.0436070 144.1231350
  72.4202160  96.4592680 142.9082690  71.0374230  94.5879780 144.2438810
  71.1177820  93.6407290 144.3556210  71.9293980  94.9186660 144.3499470
  71.8388940 104.7375170 151.3473350  72.5751420 104.1890630 151.6181920
  72.2229860 105.6031180 151.2079340  68.7234420 100.8048740 147.2214860
  67.7974200 101.0469880 147.2120270  69.1890850 101.6323000 147.0999610
  74.9491250 103.9105480 143.1698920  75.7419860 104.1994310 142.7180710
  74.4295600 103.4797650 142.4911400  84.0021420 103.1375610 144.5935660
  83.7162930 102.7240750 143.7789840  83.8040970 104.0663320 144.4736180
  75.4668650  99.1308890 143.0341270  75.3619290  98.5161240 143.7602650
  75.2992870  98.6074780 142.2504280  78.7071380  98.1928920 143.6383260
  78.1581480  98.6398220 144.2826000  79.3290640  97.6878170 144.1620930
  74.3746500  97.1519840 145.5348560  74.7962920  96.9859710 146.3779950
  74.4997340  96.3420070 145.0403700  76.8874140  96.1757450 142.7825660
  77.4079800  95.4606470 142.4166810  77.5342540  96.8143320 143.0826170
  73.2705400  93.2253070 142.4806720  73.0694460  92.3620430 142.8420060
  73.0997450  93.1386430 141.5428320  80.7493710  88.0361300 145.0093600
  81.0296000  87.1929200 145.3653020  79.9759440  88.2684410 145.5232350
  72.0688200  90.3253690 142.4684600  72.3714100  90.3321120 141.5603750
  72.8082790  89.9751550 142.9652260  75.2873130  89.2688310 143.4540800
  74.9395130  88.5912300 142.8743250  75.4885900  88.8077820 144.2684190
  77.4522170 104.2569060 145.0727400  78.3472960 104.5954030 145.0946160
  77.4839800 103.5348470 144.4451680  71.0918330  99.6296110 143.3014400
  71.5293200 100.1725780 143.9571980  71.5766060  98.8043060 143.3110740
  68.3064130 102.4185140 150.7534660  68.6367140 101.5506200 150.5213300
  68.7355130 102.6243660 151.5839620  72.9026050 100.7494150 148.4136630
  72.6021590 100.6259120 149.3140540  72.7963540  99.8902740 148.0052360
  85.6717970 100.5290550 143.1163310  84.8410930 100.5967200 143.5870540
  85.8489800 101.4194670 142.8130170  85.1274430  97.2738030 145.6197510
  85.8893340  97.8434680 145.7257200  85.1428800  96.7065230 146.3905820
  68.6278770  95.7975960 149.8505170  67.9727610  95.5287600 149.2064870
  69.4656720  95.6880440 149.4007150  86.1334400  98.1288130 150.4639440
  86.5043230  97.3455450 150.0575410  86.7736330  98.8177230 150.2856740
  85.1793600  97.5672400 142.7770030  85.4542440  98.4751280 142.6489250
  84.9904340  97.5034930 143.7132020  81.5769210  90.5917250 144.0723660
  81.9954090  90.4048230 143.2320320  81.2705270  89.7396300 144.3826590
  85.0758940  95.5041390 147.7699460  84.7002540  94.7369320 147.3380750
  84.3462060  95.8864090 148.2574390  67.8416850  93.0074890 145.7930500
  66.9380930  93.2705090 145.6182160  68.3257470  93.2786060 145.0130460
  70.3844060  92.0640430 143.7024880  71.0935760  91.6423650 143.2172160
  69.6684000  92.1315660 143.0708230  70.0318220  88.1179760 142.7427530
  70.7546350  88.6588700 143.0608750  70.3042740  87.8443180 141.8669070
  83.8409870  92.9872230 147.0099110  84.3368990  92.7543100 147.7947990
  83.6425940  92.1484070 146.5936750  85.2697030  91.6233180 149.5436790
  85.1596310  91.4689220 150.4819060  86.0304620  91.0954120 149.3012200
  86.1587300  89.4541100 142.7842930  87.0836610  89.3222280 142.5761220
  86.1363090  89.5333920 143.7379380  86.2325790  90.2251760 145.4099640
  85.4377290  90.1596880 145.9392550  86.4369070  91.1602400 145.3984990
  83.1744210 104.2643310 149.4038030  83.7703280 103.9427880 148.7272450
  83.4322360 103.7915130 150.1951300  84.5284290  88.1863880 149.8707290
  84.4672690  87.2425100 149.7238310  85.3076320  88.2943970 150.4160750
  68.8337040 104.3256240 148.8331240  68.6659080 103.6926920 149.5313130
  67.9671550 104.5315640 148.4825430  69.4565060  88.1573020 146.3363100
  70.2144420  88.2701900 145.7627130  68.9942230  88.9942220 146.2906530
  75.9978870  90.2712290 149.3265410  75.1853380  89.8969180 148.9861290
  76.5020510  89.5157370 149.6286600  80.5003850  86.9354740 150.5648480
  81.1033220  87.5074950 151.0397000  79.7596840  87.4994180 150.3422380
  83.6438450  87.3376300 145.8388760  83.8389080  88.2359750 146.1056190
  82.8568320  87.1063380 146.3321710  70.4399740 103.0189470 146.2781380
  69.9147360 103.3997500 145.5743340  70.3644320 103.6440240 146.9991090
  71.8290210  88.6837070 144.8765070  72.3582970  87.8966870 144.7473020
  72.4618530  89.3628260 145.1100600  74.0228050  88.4212210 147.9310460
  73.3930790  87.7199520 148.0980590  73.4833190  89.1816340 147.7143620
  85.1965060 104.5777010 147.5995320  85.3717250 103.8914750 146.9556240
  84.4986630 105.1024060 147.2071990  73.0392710 104.9671850 145.1530630
  73.7711530 104.6831130 144.6054520  73.2986380 104.7285130 146.0430010
  72.2007500 101.0836580 145.1576960  71.5716380 101.5521680 145.7062790
  72.3155330 100.2385800 145.5923150  79.6557220  95.1342240 131.3078160
  79.5751270  94.2196850 131.0369870  79.2421640  95.6309310 130.6017870
  77.7875260  96.9121260 133.1887430  77.0117360  96.4321700 133.4786000
  78.4388190  96.2326910 133.0143590  71.8041090  97.2241070 134.0663190
  70.9725970  96.9689780 134.4659700  72.4122070  97.2951840 134.8021110
  81.8082690 101.3181450 131.9686560  81.3464220 100.5468690 132.2973730
  82.6208240 101.3447520 132.4739010  71.7842350 101.2581160 134.2621210
  72.0870390 100.3678900 134.0831430  72.5285940 101.8151380 134.0343460
  78.0346000 103.6039460 131.5890550  77.4157440 104.0596960 131.0184990
  78.8897780 103.7590920 131.1880250  77.2284250  99.5878450 133.1957590
  77.1592530  98.6468390 133.0346720  77.9904110  99.6779860 133.7680160
  69.4190920  90.1932970 135.5214210  69.2393760  89.2958720 135.8016970
  69.0171000  90.7404840 136.1961160  78.2589420  92.3948830 133.4226520
  78.6354240  91.5220710 133.3100190  78.1608930  92.7307530 132.5316960
  72.3894430  90.7674460 128.8843960  72.4961180  91.6678190 129.1912720
  71.4786790  90.7192430 128.5938610  82.0413540  89.8899270 130.3554860
  82.8623160  89.3995840 130.3980340  82.0747620  90.4796930 131.1086700
  74.2302160  93.7360830 133.2169140  74.7380380  94.2341800 133.8574160
  74.7615400  92.9596030 133.0408500  72.5138260  88.3759390 137.4832560
  72.5156700  88.8931780 136.6778460  71.6842570  87.8989570 137.4602490
  78.9009350  98.4878700 128.9822460  78.2826620  98.9528150 128.4185180
  79.4132600  99.1806180 129.3991970  73.7641110  98.0154570 135.6606060
  73.4310490  98.6423490 136.3027130  73.9407790  98.5416450 134.8807730
  72.1953590  90.0869350 135.4903010  72.5370400  90.9311400 135.1956880
  71.2569400  90.2353090 135.6068350  72.9760210  99.9835370 137.4755240
  73.5934210 100.6586450 137.1939690  72.1153330 100.3923350 137.3842740
  68.2692550  99.1735230 126.3562090  67.8920530  99.6622330 125.6246990
  68.5265620  99.8460510 126.9868620  83.8937800 101.4474780 135.3909880
  83.2101320 102.1173890 135.3826550  84.4332090 101.6455430 134.6254740
  81.4296540 103.2918910 134.1055060  81.4423700 102.8881200 133.2377320
  80.8771760 104.0666200 134.0016490  82.7241960 100.0135130 129.1945230
  82.6138290  99.0709460 129.3194650  82.7210210 100.3750770 130.0807990
  80.8281980  98.1948750 135.4337670  81.2450770  97.9808860 134.5991130
  81.5521800  98.4521540 136.0046290  84.7744080  96.5935970 135.5253910
  83.9462710  96.6629060 135.0504040  85.3694560  97.1790280 135.0569740
  82.2959530  97.2020750 129.0542970  81.6771950  96.8640300 128.4069270
  82.2783980  96.5580510 129.7622160  73.8718880  96.1665190 131.3327450
  73.4675880  95.4542440 130.8373350  73.9582000  95.8218430 132.2215490
  74.3400580  99.8532750 133.4966660  74.0428870  99.2478220 132.8174440
  75.2900400  99.8910060 133.3856020  72.5847500  92.9408400 135.1126490
  73.1362090  93.0503740 134.3379740  73.0991010  93.3146000 135.8281720
  82.4286190 103.4264620 137.1589760  81.9516750 104.2336810 136.9662370
  81.7447980 102.7742950 137.3115970  73.4319010  99.5914440 140.1474460
  72.5347540  99.8154410 140.3947860  73.4571880  99.7149380 139.1985860
  72.2590230  96.4627760 138.7231830  72.1198000  97.3350560 139.0919230
  71.3771590  96.1200570 138.5779770  78.5819610 101.3803630 130.0296960
  79.0215520 102.1227960 129.6152350  78.5206500 101.6230200 130.9535920
  74.0570580 102.4049460 140.9316980  74.0286010 102.8092410 140.0645410
  73.8935550 101.4759820 140.7688580  84.0541370  87.6950370 124.3756760
  83.7414030  87.7877200 125.2755830  84.8153840  88.2731400 124.3254190
  70.5723510  95.0610170 128.8334100  70.4521110  95.7872260 128.2215370
  70.2624400  94.2913080 128.3562010  86.0085400 103.1876560 142.2281150
  86.4845120 103.6659450 142.9070230  86.6292560 103.1194050 141.5026650
  68.2108880  98.2325310 134.6402740  68.2889300  98.3674080 133.6958460
  68.8250560  97.5241200 134.8330860  69.4556510  99.9325500 131.0508920
  69.0484590 100.0740090 130.1962520  70.3469520  99.6485660 130.8480130
  85.4118650 100.3789410 139.3881160  85.5381710 100.1401290 138.4698340
  85.4540030  99.5473950 139.8603240  79.2735390 104.0817410 137.9575970
  79.7880060 103.9925420 138.7598400  78.4304470 104.4277110 138.2503880
  73.7278170 104.1471280 129.1631590  73.5520650 103.2306820 128.9499390
  72.8733910 104.5058570 129.4029390  80.5165850 103.5023020 130.0206460
  80.9722800 102.7212400 130.3345080  80.8558370 104.2129840 130.5647640
  68.2668400  99.2739480 137.1797200  68.4299440  98.8044840 136.3616570
  68.7320850  98.7663040 137.8446040  73.0387170  88.4045240 132.2157770
  72.5955320  89.1854780 131.8842290  73.5972160  88.7275130 132.9228710
  77.3256980  91.2713760 137.8193090  76.8636350  91.4796780 138.6313030
  76.9235090  90.4573110 137.5163760  79.4211200  93.9924460 141.0488540
  79.7464610  93.1588210 140.7090770  80.2091530  94.5152980 141.1966870
  75.0763070  88.9492570 134.0747370  75.3735400  89.8555400 133.9939390
  75.6248630  88.4611350 133.4606940  72.8301390  93.5278810 129.9439020
  72.6042310  93.3115980 130.8485640  72.0493920  93.9607270 129.5984990
  75.2700600  94.4264390 140.6099290  75.1744200  93.4859120 140.4599690
  76.1132580  94.6479460 140.2147360  70.4011140  90.8378060 138.7633070
  70.0074530  91.6853270 138.9705850  69.7129540  90.2004430 138.9541710
  76.9756190  90.9213030 141.8329810  76.2854510  90.7285230 142.4675900
  77.7188490  91.2047670 142.3654110  79.2519160  94.7611470 134.6683730
  78.5200280  95.2698280 135.0173830  78.8543500  93.9441450 134.3672510
  75.6896550  91.4365670 133.0736220  75.6932610  90.9955620 132.2240760
  76.5847670  91.7583000 133.1808040  71.5398930  91.3192160 132.0330430
  71.1998980  91.7967390 132.7897480  70.7776250  90.8657280 131.6731530
  69.8407380  98.6490910 139.3393010  69.4562170  98.0084580 139.9375970
  70.1519570  99.3527030 139.9087740  75.9904520  95.4967450 134.8201630
  76.3574650  95.0226020 135.5662970  75.8009580  96.3709020 135.1609970
  73.7803890  94.5376090 137.1385840  73.4760960  95.4168070 137.3636200
  74.7350350  94.5975880 137.1743280  72.3085680  98.7437080 127.7352690
  71.5347940  98.2034700 127.5751410  73.0380310  98.2243690 127.3970450
  83.0673660  97.7402440 133.5279080  83.7872780  98.2357730 133.1375190
  82.8655480  97.0620330 132.8832950  78.4492460  97.8111500 139.4148080
  78.3829770  96.8907170 139.1605670  77.8197600  97.9086940 140.1292720
  72.3523080  98.4117460 131.3731500  72.8701750  97.6085720 131.3188390
  71.9007100  98.3496600 132.2148330  77.2392580  99.6783740 126.6458800
  77.5808280 100.4225970 126.1502120  76.4105290  99.9914860 127.0083630
  69.8367620  95.3778830 138.2857200  69.4782560  96.0432680 138.8730540
  69.5422180  94.5462380 138.6569820  73.0380740  95.8363070 141.1696750
  72.7380880  95.9820250 140.2724570  73.8091980  95.2768360 141.0770140
  78.3809190 100.6332070 139.1651880  78.3953730  99.7013030 138.9470790
  77.6734290 100.7191830 139.8041650  84.5920400  97.2739410 138.5120460
  83.8668590  97.8668190 138.3149850  85.1195860  97.2662950 137.7133830
  80.1219990  98.9999580 132.0104310  80.4743810  98.4027710 131.3505680
  79.2382320  98.6743810 132.1812560  76.2083270  99.7597270 129.4174720
  76.8954400 100.3066480 129.7982310  75.4215690 100.3038000 129.4524330
  68.3475670  95.3770090 124.9091800  69.2170520  95.6594890 125.1927720
  67.8565990  96.1905960 124.7940610  77.8143090 102.2749640 136.2592380
  78.4585310 102.4809020 136.9365800  78.1772530 101.5138040 135.8063230
  79.0875170 100.2781990 134.9769830  79.7297400  99.5775150 135.0902000
  79.6124520 101.0580430 134.7966720  80.8612790 101.0776890 138.1805890
  81.1969030 101.6643580 138.8583810  79.9413130 100.9469600 138.4103680
  68.4116190  88.8672070 138.9629300  67.6974710  89.0668990 139.5681910
  68.8311230  88.0911640 139.3344100  68.6988780 102.8552330 139.9495830
  68.8079900 101.9147070 139.8091220  68.0469340 103.1207080 139.3009560
  76.6901370 101.1268220 141.3493950  76.3698240 100.4077460 141.8939640
  76.0159730 101.8023290 141.4230010  74.7315540 101.9728670 126.2927100
  74.7225640 102.7058360 125.6771610  73.8113900 101.7260250 126.3854060
  70.3322180  97.1943560 127.0373860  69.7250130  97.9342460 127.0469160
  70.8071530  97.2842920 126.2112060  83.2717000  90.3151320 127.5218310
  82.6430160  90.4196990 126.8076540  82.7768920  90.5348100 128.3112190
  76.8656960  94.0133970 136.9368720  77.3642210  94.4879790 137.6020570
  77.0079910  93.0897490 137.1438750  79.2716460  89.3187930 130.3771980
  79.1484240  89.3374060 129.4281490  80.2201020  89.3666870 130.4970380
  76.3593250 104.5543230 129.6499960  76.6134750 104.5164620 128.7279330
  75.4105730 104.4276560 129.6428210  73.4436050  90.9022350 126.3126900
  74.2926580  91.3392500 126.2467090  73.0767320  91.2142610 127.1398960
  82.3645830  95.4735110 131.2258470  81.4235970  95.4885340 131.4006160
  82.6789900  94.6871070 131.6718770  72.3427470  97.1554710 124.7862430
  73.1090740  97.0436070 125.3487860  72.4202160  96.4592680 124.1339200
  71.0374230  94.5879780 125.4695320  71.1177820  93.6407290 125.5812720
  71.9293980  94.9186660 125.5755980  84.3671410 102.6443960 132.9012730
  84.4918830 103.4675130 133.3736540  85.2336970 102.4334690 132.5536880
  71.8388940 104.7375170 132.5729860  72.5751420 104.1890630 132.8438430
  72.2229860 105.6031180 132.4335850  68.7234420 100.8048740 128.4471370
  67.7974200 101.0469880 128.4376780  69.1890850 101.6323000 128.3256120
  70.8447220 103.9221240 141.7615440  71.6459950 104.2433290 142.1750840
  70.3299040 103.5616820 142.4835350  74.9491250 103.9105480 124.3955430
  75.7419860 104.1994310 123.9437220  74.4295600 103.4797650 123.7167910
  79.6811850 100.0301110 141.7090850  79.0750010 100.0532710 140.9686600
  79.3765960  99.2984150 142.2458100  81.1112220 103.7581400 140.3200260
  82.0633970 103.6739420 140.2700500  80.9640440 104.4223110 140.9934050
  68.5645030  96.4094700 140.7051490  69.0684050  95.8301980 141.2767720
  67.8252450  96.6934930 141.2427860  75.4668650  99.1308890 124.2597780
  75.3619290  98.5161240 124.9859160  75.2992870  98.6074780 123.4760790
  75.6182970  97.8165690 140.2387010  74.8528640  98.3850690 140.1541680
  75.7998930  97.5241900 139.3455240  78.7071380  98.1928920 124.8639770
  78.1581480  98.6398220 125.5082510  79.3290640  97.6878170 125.3877440
  82.7606320  99.5471020 140.7962030  83.5015790  99.8846780 140.2929490
  81.9979000  99.7163080 140.2431800  70.5968110  94.5524290 141.6001560
  70.6373450  94.2538160 142.5086790  71.4513610  94.9531900 141.4409080
  72.5373920  93.1316390 139.5676050  72.0070380  92.6407340 138.9399390
  73.2061990  93.5600590 139.0333980  81.4351980  97.5985850 139.3317240
  81.8493000  97.7530930 140.1807660  80.5002980  97.7241070 139.4943020
  81.9074150  94.9382010 141.3356390  82.4894920  94.1834330 141.2476870
  82.0835920  95.4689450 140.5587870  73.0246220  90.0978760 139.6473340
  72.9303090  89.4799510 138.9224210  72.4443610  90.8245050 139.4203250
  75.7907660  88.6552000 136.6800730  75.3424960  88.6776260 135.8346280
  75.1572860  88.2571020 137.2771030  76.1967210  97.5506330 137.3013170
  76.6155320  98.3939060 137.1289410  75.2775840  97.6878370 137.0719950
  78.5331110  95.2822510 138.6851010  78.6527320  94.6863650 139.4245850
  79.3925110  95.3192200 138.2652310  80.8719010  95.8359700 137.2613520
  80.3454230  96.3602320 136.6578660  81.2150350  96.4687090 137.8923250
  73.2705400  93.2253070 123.7063230  73.0694460  92.3620430 124.0676570
  73.0997450  93.1386430 122.7684830  74.0474630 103.8559340 138.4170900
  73.5095720 104.5805400 138.0979600  74.3008590 103.3789680 137.6268240
  75.2999880  91.8243860 139.9426830  75.8899570  91.5159710 140.6304650
  74.4820120  91.3523610 140.0986730  80.7493710  88.0361300 126.2350110
  81.0296000  87.1929200 126.5909530  79.9759440  88.2684410 126.7488860
  72.0688200  90.3253690 123.6941110  72.3714100  90.3321120 122.7860260
  72.8082790  89.9751550 124.1908770  76.9036840 105.0910550 138.6757550
  76.8295540 105.9945690 138.9829920  76.0015680 104.7722450 138.6479620
  77.4522170 104.2569060 126.2983910  78.3472960 104.5954030 126.3202670
  77.4839800 103.5348470 125.6708190  71.0918330  99.6296110 124.5270910
  71.5293200 100.1725780 125.1828490  71.5766060  98.8043060 124.5367250
  68.3064130 102.4185140 131.9791170  68.6367140 101.5506200 131.7469810
  68.7355130 102.6243660 132.8096130  72.9026050 100.7494150 129.6393140
  72.6021590 100.6259120 130.5397050  72.7963540  99.8902740 129.2308870
  68.7954340 103.2855730 134.7172800  68.3585330 103.4656530 135.5496950
  69.3632020 104.0430350 134.5754520  84.4316520 102.7872730 139.0050110
  83.8318510 102.8465290 138.2614030  84.5610420 101.8477710 139.1346960
  85.1274430  97.2738030 126.8454020  85.8893340  97.8434680 126.9513710
  85.1428800  96.7065230 127.6162330  86.1334400  98.1288130 131.6895950
  86.5043230  97.3455450 131.2831920  86.7736330  98.8177230 131.5113250
  83.1168160  99.5124710 137.1026270  82.3028000  99.9421870 137.3652060
  83.5242360 100.1243120 136.4895320  85.0758940  95.5041390 128.9955970
  84.7002540  94.7369320 128.5637260  84.3462060  95.8864090 129.4830900
  69.6654700  96.1828530 135.6165020  70.0327740  96.0955930 136.4961040
  69.0965520  95.4195080 135.5171880  84.4658560  94.6512910 138.6295490
  84.2344650  94.4225660 137.7293440  84.7263110  95.5712460 138.5840380
  69.2170700  93.0937620 139.5223440  68.3226750  93.0604380 139.8617150
  69.7568250  93.2924410 140.2874690  84.3509900  93.7298880 132.2963210
  84.8747380  93.2361530 131.6653380  84.9369320  93.8649240 133.0410780
  83.8409870  92.9872230 128.2355620  84.3368990  92.7543100 129.0204500
  83.6425940  92.1484070 127.8193260  69.7210410  87.3685950 133.8706660
  70.3686600  86.8183330 133.4301820  70.1412250  87.6229100 134.6922470
  85.2697030  91.6233180 130.7693300  85.1596310  91.4689220 131.7075570
  86.0304620  91.0954120 130.5268710  86.1587300  89.4541100 124.0099440
  87.0836610  89.3222280 123.8017730  86.1363090  89.5333920 124.9635890
  86.2325790  90.2251760 126.6356150  85.4377290  90.1596880 127.1649060
  86.4369070  91.1602400 126.6241500  83.1744210 104.2643310 130.6294540
  83.7703280 103.9427880 129.9528960  83.4322360 103.7915130 131.4207810
  69.4742410  87.5241620 136.6131980  69.1257230  87.9805440 137.3790160
  69.1430110  86.6298750 136.6954410  71.0806780 100.6961220 140.7785170
  71.0376410 100.3254130 141.6599630  71.2117790 101.6338790 140.9186990
  74.7812810 102.2520810 136.3794890  74.5404170 102.5195370 135.4925410
  75.7215450 102.4226540 136.4345750  76.9867230  88.7153500 140.1351400
  76.9256120  89.3075330 140.8846810  77.9267610  88.6079460 139.9901660
  86.0416970 104.2715190 137.1805530  85.5475250 104.6684060 136.4632660
  85.4330260 103.6464400 137.5742810  70.1463050  87.0517820 139.8882750
  70.6946040  86.8705870 139.1248860  70.2118360  86.2611930 140.4239060
  70.9194810 103.6423470 137.8982950  70.3255130 103.5108170 138.6372990
  70.9118650 102.8061610 137.4325050  80.3649830  86.9355700 136.1012980
  79.4909670  87.2690810 135.8985910  80.2560580  86.4628880 136.9264850
  83.7256420 104.9138610 134.4592270  83.2659390 105.6654420 134.0850290
  83.0968880 104.1945080 134.4007070  70.5507040 101.0081850 136.8490990
  69.8241100 100.3887140 136.7816940  70.6116190 101.4022460 135.9789070
  74.1552140 103.2226850 133.6340400  74.6717160 102.6114210 133.1088660
  74.8049520 103.7255630 134.1251410  76.8947640 104.1135340 134.4609380
  77.1825450 103.8589640 133.5842390  77.4070860 103.5612700 135.0514950
  78.1124650  87.8525540 135.0405890  77.3296440  88.3271040 135.3202650
  77.8187580  86.9480370 134.9319070  84.5284290  88.1863880 131.0963800
  84.4672690  87.2425100 130.9494820  85.3076320  88.2943970 131.6417260
  68.8337040 104.3256240 130.0587750  68.6659080 103.6926920 130.7569640
  67.9671550 104.5315640 129.7081940  75.9978870  90.2712290 130.5521920
  75.1853380  89.8969180 130.2117800  76.5020510  89.5157370 130.8543110
  80.5003850  86.9354740 131.7904990  81.1033220  87.5074950 132.2653510
  79.7596840  87.4994180 131.5678890  83.6438450  87.3376300 127.0645270
  83.8389080  88.2359750 127.3312700  82.8568320  87.1063380 127.5578220
  70.4399740 103.0189470 127.5037890  69.9147360 103.3997500 126.7999850
  70.3644320 103.6440240 128.2247600  76.9620000 105.0351440 141.8277580
  77.8887310 104.7995710 141.8713540  76.9470430 105.8623440 141.3463610
  85.1965060 104.5777010 128.8251830  85.3717250 103.8914750 128.1812750
  84.4986630 105.1024060 128.4328500  74.1483610  87.6996190 141.5919460
  73.8667880  88.2029790 140.8280280  74.5303310  86.9017940 141.2261590
  73.0392710 104.9671850 126.3787140  73.7711530 104.6831130 125.8311030
  73.2986380 104.7285130 127.2686520  72.2007500 101.0836580 126.3833470
  71.5716380 101.5521680 126.9319300  72.3155330 100.2385800 126.8179660
  80.7499070  87.1149770 142.1699930  80.6364520  87.4344380 143.0651450
  81.5668810  87.5162280 141.8737210  83.5297560 104.2621300 141.6518620
  84.3222880 103.7670530 141.4444580  83.8230710 104.9411440 142.2594230
  79.6557220  95.1342240 112.5334670  79.5751270  94.2196850 112.2626380
  79.2421640  95.6309310 111.8274380  77.7875260  96.9121260 114.4143940
  77.0117360  96.4321700 114.7042510  78.4388190  96.2326910 114.2400100
  81.8082690 101.3181450 113.1943070  81.3464220 100.5468690 113.5230240
  82.6208240 101.3447520 113.6995520  71.7842350 101.2581160 115.4877720
  72.0870390 100.3678900 115.3087940  72.5285940 101.8151380 115.2599970
  70.2133040  92.1842960 109.0762090  69.3249740  92.5258930 108.9741970
  70.4974230  91.9843280 108.1842920  68.1766050  94.7848610 114.9601790
  68.7482160  94.0170810 114.9605430  68.1767590  95.0837370 114.0508400
  78.0346000 103.6039460 112.8147060  77.4157440 104.0596960 112.2441500
  78.8897780 103.7590920 112.4136760  77.2284250  99.5878450 114.4214100
  77.1592530  98.6468390 114.2603230  77.9904110  99.6779860 114.9936670
  78.2589420  92.3948830 114.6483030  78.6354240  91.5220710 114.5356700
  78.1608930  92.7307530 113.7573470  82.0413540  89.8899270 111.5811370
  82.8623160  89.3995840 111.6236850  82.0747620  90.4796930 112.3343210
  86.3313090  91.9066020 118.1455000  85.6265260  92.2947730 117.6270110
  86.5971010  92.6016310 118.7475930  72.5138260  88.3759390 118.7089070
  72.5156700  88.8931780 117.9034970  71.6842570  87.8989570 118.6859000
  78.9009350  98.4878700 110.2078970  78.2826620  98.9528150 109.6441690
  79.4132600  99.1806180 110.6248480  82.2775020  91.8299650 114.3538910
  81.5730590  92.1184540 114.9342020  82.6387180  92.6399760 113.9938470
  68.2692550  99.1735230 107.5818600  67.8920530  99.6622330 106.8503500
  68.5265620  99.8460510 108.2125130  83.8937800 101.4474780 116.6166390
  83.2101320 102.1173890 116.6083060  84.4332090 101.6455430 115.8511250
  85.3461940  91.2754440 114.7448120  84.3986850  91.3093420 114.8763550
  85.6711930  92.0893390 115.1297480  81.4296540 103.2918910 115.3311570
  81.4423700 102.8881200 114.4633830  80.8771760 104.0666200 115.2273000
  82.7241960 100.0135130 110.4201740  82.6138290  99.0709460 110.5451160
  82.7210210 100.3750770 111.3064500  80.8281980  98.1948750 116.6594180
  81.2450770  97.9808860 115.8247640  81.5521800  98.4521540 117.2302800
  78.2662240  95.6400450 109.7764230  77.3391520  95.5737830 110.0052700
  78.4187060  96.5780580 109.6619470  84.7744080  96.5935970 116.7510420
  83.9462710  96.6629060 116.2760550  85.3694560  97.1790280 116.2826250
  82.2959530  97.2020750 110.2799480  81.6771950  96.8640300 109.6325780
  82.2783980  96.5580510 110.9878670  74.3400580  99.8532750 114.7223170
  74.0428870  99.2478220 114.0430950  75.2900400  99.8910060 114.6112530
  73.4319010  99.5914440 121.3730970  72.5347540  99.8154410 121.6204370
  73.4571880  99.7149380 120.4242370  78.5819610 101.3803630 111.2553470
  79.0215520 102.1227960 110.8408860  78.5206500 101.6230200 112.1792430
  74.0570580 102.4049460 122.1573490  74.0286010 102.8092410 121.2901920
  73.8935550 101.4759820 121.9945090  70.5723510  95.0610170 110.0590610
  70.4521110  95.7872260 109.4471880  70.2624400  94.2913080 109.5818520
  68.2108880  98.2325310 115.8659250  68.2889300  98.3674080 114.9214970
  68.8250560  97.5241200 116.0587370  69.4556510  99.9325500 112.2765430
  69.0484590 100.0740090 111.4219030  70.3469520  99.6485660 112.0736640
  81.2489790 104.3672750 108.6116480  81.0890930 104.0775690 109.5098310
  81.0836500 103.5912880 108.0761710  73.7278170 104.1471280 110.3888100
  73.5520650 103.2306820 110.1755900  72.8733910 104.5058570 110.6285900
  80.9515920 101.8760310 107.1714480  80.2581080 101.8737600 106.5116760
  81.6938780 101.4519630 106.7408650  80.5165850 103.5023020 111.2462970
  80.9722800 102.7212400 111.5601590  80.8558370 104.2129840 111.7904150
  73.0387170  88.4045240 113.4414280  72.5955320  89.1854780 113.1098800
  73.5972160  88.7275130 114.1485220  77.3256980  91.2713760 119.0449600
  76.8636350  91.4796780 119.8569540  76.9235090  90.4573110 118.7420270
  75.0763070  88.9492570 115.3003880  75.3735400  89.8555400 115.2195900
  75.6248630  88.4611350 114.6863450  78.6664020  92.1705720 111.7989460
  79.0593590  92.4877920 110.9858150  79.0280870  91.2917600 111.9133980
  76.9756190  90.9213030 123.0586320  76.2854510  90.7285230 123.6932410
  77.7188490  91.2047670 123.5910620  79.2519160  94.7611470 115.8940240
  78.5200280  95.2698280 116.2430340  78.8543500  93.9441450 115.5929020
  79.7145070  90.2145150 115.3063180  79.7317810  90.6653800 116.1505030
  79.4660650  89.3150790 115.5196620  83.1415820  87.6277330 121.1449560
  83.4661590  86.8966990 121.6707540  83.1772330  87.3090970 120.2430550
  68.8545010  90.2411140 112.1751610  68.5691930  89.8766810 113.0130230
  68.7923870  89.5091600 111.5614750  72.3085680  98.7437080 108.9609200
  71.5347940  98.2034700 108.8007920  73.0380310  98.2243690 108.6226960
  83.0673660  97.7402440 114.7535590  83.7872780  98.2357730 114.3631700
  82.8655480  97.0620330 114.1089460  72.3523080  98.4117460 112.5988010
  72.8701750  97.6085720 112.5444900  71.9007100  98.3496600 113.4404840
  73.0380740  95.8363070 122.3953260  72.7380880  95.9820250 121.4981080
  73.8091980  95.2768360 122.3026650  80.1219990  98.9999580 113.2360820
  80.4743810  98.4027710 112.5762190  79.2382320  98.6743810 113.4069070
  76.2083270  99.7597270 110.6431230  76.8954400 100.3066480 111.0238820
  75.4215690 100.3038000 110.6780840  75.5110480  96.7643300 110.2556590
  75.9673260  97.5748550 110.4816780  75.1598690  96.4466440 111.0875080
  71.4122260  87.1080950 110.7279110  71.2836890  87.0998850 111.6764030
  70.5884280  87.4464040 110.3770120  70.3322180  97.1943560 108.2630370
  69.7250130  97.9342460 108.2725670  70.8071530  97.2842920 107.4368570
  79.9054970  91.3594380 117.9387260  80.2735790  90.5389590 118.2666830
  79.0453170  91.4196270 118.3542910  75.2401030  92.5937270 110.1632700
  74.5317180  93.0623610 110.6046310  75.5245510  91.9359280 110.7977890
  76.8656960  94.0133970 118.1625230  77.3642210  94.4879790 118.8277080
  77.0079910  93.0897490 118.3695260  79.2716460  89.3187930 111.6028490
  79.1484240  89.3374060 110.6538000  80.2201020  89.3666870 111.7226890
  82.3645830  95.4735110 112.4514980  81.4235970  95.4885340 112.6262670
  82.6789900  94.6871070 112.8975280  84.3671410 102.6443960 114.1269240
  84.4918830 103.4675130 114.5993050  85.2336970 102.4334690 113.7793390
  71.8388940 104.7375170 113.7986370  72.5751420 104.1890630 114.0694940
  72.2229860 105.6031180 113.6592360  68.7234420 100.8048740 109.6727880
  67.7974200 101.0469880 109.6633290  69.1890850 101.6323000 109.5512630
  75.6182970  97.8165690 121.4643520  74.8528640  98.3850690 121.3798190
  75.7998930  97.5241900 120.5711750  73.0246220  90.0978760 120.8729850
  72.9303090  89.4799510 120.1480720  72.4443610  90.8245050 120.6459760
  75.7907660  88.6552000 117.9057240  75.3424960  88.6776260 117.0602790
  75.1572860  88.2571020 118.5027540  78.5331110  95.2822510 119.9107520
  78.6527320  94.6863650 120.6502360  79.3925110  95.3192200 119.4908820
  74.0474630 103.8559340 119.6427410  73.5095720 104.5805400 119.3236110
  74.3008590 103.3789680 118.8524750  75.2999880  91.8243860 121.1683340
  75.8899570  91.5159710 121.8561160  74.4820120  91.3523610 121.3243240
  68.3064130 102.4185140 113.2047680  68.6367140 101.5506200 112.9726320
  68.7355130 102.6243660 114.0352640  72.9026050 100.7494150 110.8649650
  72.6021590 100.6259120 111.7653560  72.7963540  99.8902740 110.4565380
  85.6717970 100.5290550 105.5676330  84.8410930 100.5967200 106.0383560
  85.8489800 101.4194670 105.2643190  68.6278770  95.7975960 112.3018190
  67.9727610  95.5287600 111.6577890  69.4656720  95.6880440 111.8520170
  86.1334400  98.1288130 112.9152460  86.5043230  97.3455450 112.5088430
  86.7736330  98.8177230 112.7369760  67.8416850  93.0074890 108.2443520
  66.9380930  93.2705090 108.0695180  68.3257470  93.2786060 107.4643480
  84.3509900  93.7298880 113.5219720  84.8747380  93.2361530 112.8909890
  84.9369320  93.8649240 114.2667290  83.6162750  87.5627310 118.4532810
  84.2534970  88.1761450 118.8192000  83.7637640  87.5987970 117.5082040
  83.1744210 104.2643310 111.8551050  83.7703280 103.9427880 111.1785470
  83.4322360 103.7915130 112.6464320  74.7812810 102.2520810 117.6051400
  74.5404170 102.5195370 116.7181920  75.7215450 102.4226540 117.6602260
  76.9867230  88.7153500 121.3607910  76.9256120  89.3075330 122.1103320
  77.9267610  88.6079460 121.2158170  79.6241790  88.3723560 121.0000200
  80.2382200  88.6902850 120.3381280  80.1691350  87.8872150 121.6196060
  80.3649830  86.9355700 117.3269490  79.4909670  87.2690810 117.1242420
  80.2560580  86.4628880 118.1521360  81.2721810  89.1426570 118.7111210
  80.9435170  88.3278330 118.3312940  82.2204110  89.0996380 118.5876900
  83.7256420 104.9138610 115.6848780  83.2659390 105.6654420 115.3106800
  83.0968880 104.1945080 115.6263580  74.1552140 103.2226850 114.8596910
  74.6717160 102.6114210 114.3345170  74.8049520 103.7255630 115.3507920
  76.8947640 104.1135340 115.6865890  77.1825450 103.8589640 114.8098900
  77.4070860 103.5612700 116.2771460  78.1124650  87.8525540 116.2662400
  77.3296440  88.3271040 116.5459160  77.8187580  86.9480370 116.1575580
  82.6645720  88.5548640 114.3111490  83.1053810  88.4993740 113.4633090
  82.3953310  89.4706650 114.3821670  84.5284290  88.1863880 112.3220310
  84.4672690  87.2425100 112.1751330  85.3076320  88.2943970 112.8673770
  68.8337040 104.3256240 111.2844260  68.6659080 103.6926920 111.9826150
  67.9671550 104.5315640 110.9338450  69.4565060  88.1573020 108.7876120
  70.2144420  88.2701900 108.2140150  68.9942230  88.9942220 108.7419550
  80.5003850  86.9354740 113.0161500  81.1033220  87.5074950 113.4910020
  79.7596840  87.4994180 112.7935400  70.4399740 103.0189470 108.7294400
  69.9147360 103.3997500 108.0256360  70.3644320 103.6440240 109.4504110
  74.1483610  87.6996190 122.8175970  73.8667880  88.2029790 122.0536790
  74.5303310  86.9017940 122.4518100  73.0392710 104.9671850 107.6043650
  73.7711530 104.6831130 107.0567540  73.2986380 104.7285130 108.4943030
  80.7499070  87.1149770 123.3956440  80.6364520  87.4344380 124.2907960
  81.5668810  87.5162280 123.0993720  68.7146920 104.5897470  69.1522960
  69.0744560 105.1886810  68.4980230  68.5739260 105.1357360  69.9257990
  79.6557220  95.1342240  56.2104200  79.5751270  94.2196850  55.9395910
  79.2421640  95.6309310  55.5043910  77.7875260  96.9121260  58.0913470
  77.0117360  96.4321700  58.3812040  78.4388190  96.2326910  57.9169630
  81.8082690 101.3181450  56.8712600  81.3464220 100.5468690  57.1999770
  82.6208240 101.3447520  57.3765050  71.7842350 101.2581160  59.1647250
  72.0870390 100.3678900  58.9857470  72.5285940 101.8151380  58.9369500
  78.0346000 103.6039460  56.4916590  77.4157440 104.0596960  55.9211030
  78.8897780 103.7590920  56.0906290  77.2284250  99.5878450  58.0983630
  77.1592530  98.6468390  57.9372760  77.9904110  99.6779860  58.6706200
  86.3313090  91.9066020  61.8224530  85.6265260  92.2947730  61.3039640
  86.5971010  92.6016310  62.4245460  78.9009350  98.4878700  53.8848500
  78.2826620  98.9528150  53.3211220  79.4132600  99.1806180  54.3018010
  82.2775020  91.8299650  58.0308440  81.5730590  92.1184540  58.6111550
  82.6387180  92.6399760  57.6708000  72.9760210  99.9835370  62.3781280
  73.5934210 100.6586450  62.0965730  72.1153330 100.3923350  62.2868780
  68.2692550  99.1735230  51.2588130  67.8920530  99.6622330  50.5273030
  68.5265620  99.8460510  51.8894660  85.3461940  91.2754440  58.4217650
  84.3986850  91.3093420  58.5533080  85.6711930  92.0893390  58.8067010
  82.7241960 100.0135130  54.0971270  82.6138290  99.0709460  54.2220690
  82.7210210 100.3750770  54.9834030  80.8281980  98.1948750  60.3363710
  81.2450770  97.9808860  59.5017170  81.5521800  98.4521540  60.9072330
  78.2662240  95.6400450  53.4533760  77.3391520  95.5737830  53.6822230
  78.4187060  96.5780580  53.3389000  82.2959530  97.2020750  53.9569010
  81.6771950  96.8640300  53.3095310  82.2783980  96.5580510  54.6648200
  81.7386090  93.3805290  61.3734820  81.3257270  94.2059000  61.6274810
  81.0062040  92.7950330  61.1811180  80.4724230  96.4407560  50.9641760
  80.9117510  95.6029990  50.8179580  81.1852650  97.0736960  51.0505900
  78.5819610 101.3803630  54.9323000  79.0215520 102.1227960  54.5178390
  78.5206500 101.6230200  55.8561960  84.0541370  87.6950370  49.2782800
  83.7414030  87.7877200  50.1781870  84.8153840  88.2731400  49.2280230
  68.2108880  98.2325310  59.5428780  68.2889300  98.3674080  58.5984500
  68.8250560  97.5241200  59.7356900  69.4556510  99.9325500  55.9534960
  69.0484590 100.0740090  55.0988560  70.3469520  99.6485660  55.7506170
  85.4118650 100.3789410  64.2907200  85.5381710 100.1401290  63.3724380
  85.4540030  99.5473950  64.7629280  79.2735390 104.0817410  62.8602010
  79.7880060 103.9925420  63.6624440  78.4304470 104.4277110  63.1529920
  81.2489790 104.3672750  52.2886010  81.0890930 104.0775690  53.1867840
  81.0836500 103.5912880  51.7531240  73.7278170 104.1471280  54.0657630
  73.5520650 103.2306820  53.8525430  72.8733910 104.5058570  54.3055430
  80.9515920 101.8760310  50.8484010  80.2581080 101.8737600  50.1886290
  81.6938780 101.4519630  50.4178180  80.5165850 103.5023020  54.9232500
  80.9722800 102.7212400  55.2371120  80.8558370 104.2129840  55.4673680
  68.2668400  99.2739480  62.0823240  68.4299440  98.8044840  61.2642610
  68.7320850  98.7663040  62.7472080  80.0599150  93.5342180  53.4455710
  79.4608040  94.2577980  53.2619330  80.6078760  93.4718960  52.6632160
  75.9904520  95.4967450  59.7227670  76.3574650  95.0226020  60.4689010
  75.8009580  96.3709020  60.0636010  72.3085680  98.7437080  52.6378730
  71.5347940  98.2034700  52.4777450  73.0380310  98.2243690  52.2996490
  81.2431990  93.5060050  50.8696670  82.1311610  93.8177280  50.6948010
  81.2137080  92.6332300  50.4777250  77.2392580  99.6783740  51.5484840
  77.5808280 100.4225970  51.0528160  76.4105290  99.9914860  51.9109670
  83.5146260  94.8171890  50.3376530  83.4309980  95.2486110  49.4872970
  84.2340450  95.2770240  50.7703350  84.5920400  97.2739410  63.4146500
  83.8668590  97.8668190  63.2175890  85.1195860  97.2662950  62.6159870
  80.1219990  98.9999580  56.9130350  80.4743810  98.4027710  56.2531720
  79.2382320  98.6743810  57.0838600  76.2083270  99.7597270  54.3200760
  76.8954400 100.3066480  54.7008350  75.4215690 100.3038000  54.3550370
  75.5110480  96.7643300  53.9326120  75.9673260  97.5748550  54.1586310
  75.1598690  96.4466440  54.7644610  77.8143090 102.2749640  61.1618420
  78.4585310 102.4809020  61.8391840  78.1772530 101.5138040  60.7089270
  79.0875170 100.2781990  59.8795870  79.7297400  99.5775150  59.9928040
  79.6124520 101.0580430  59.6992760  82.9330890 100.5630610  49.6035010
  82.7068470  99.8461050  50.1959650  82.5427090 100.3143050  48.7656760
  80.8612790 101.0776890  63.0831930  81.1969030 101.6643580  63.7609850
  79.9413130 100.9469600  63.3129720  68.7146920 104.5897470  50.3779470
  69.0744560 105.1886810  49.7236740  68.5739260 105.1357360  51.1514500
  82.5147140  98.4802550  51.2649170  82.2268840  98.9415240  52.0527050
  83.3099310  98.0200320  51.5333390  68.6988780 102.8552330  64.8521870
  68.8079900 101.9147070  64.7117260  68.0469340 103.1207080  64.2035600
  74.7315540 101.9728670  51.1953140  74.7225640 102.7058360  50.5797650
  73.8113900 101.7260250  51.2880100  77.7175140 102.0356910  49.8578330
  77.8187120 101.8320900  48.9280310  76.8176880 101.7815190  50.0626110
  76.3593250 104.5543230  54.5526000  76.6134750 104.5164620  53.6305370
  75.4105730 104.4276560  54.5454250  82.3645830  95.4735110  56.1284510
  81.4235970  95.4885340  56.3032200  82.6789900  94.6871070  56.5744810
  71.8388940 104.7375170  57.4755900  72.5751420 104.1890630  57.7464470
  72.2229860 105.6031180  57.3361890  68.7234420 100.8048740  53.3497410
  67.7974200 101.0469880  53.3402820  69.1890850 101.6323000  53.2282160
  70.8447220 103.9221240  66.6641480  71.6459950 104.2433290  67.0776880
  70.3299040 103.5616820  67.3861390  74.9491250 103.9105480  49.2981470
  75.7419860 104.1994310  48.8463260  74.4295600 103.4797650  48.6193950
  81.1112220 103.7581400  65.2226300  82.0633970 103.6739420  65.1726540
  80.9640440 104.4223110  65.8960090  75.4668650  99.1308890  49.1623820
  75.3619290  98.5161240  49.8885200  75.2992870  98.6074780  48.3786830
  78.7071380  98.1928920  49.7665810  78.1581480  98.6398220  50.4108550
  79.3290640  97.6878170  50.2903480  76.8874140  96.1757450  48.9108210
  77.4079800  95.4606470  48.5449360  77.5342540  96.8143320  49.2108720
  81.4351980  97.5985850  64.2343280  81.8493000  97.7530930  65.0833700
  80.5002980  97.7241070  64.3969060  80.8719010  95.8359700  62.1639560
  80.3454230  96.3602320  61.5604700  81.2150350  96.4687090  62.7949290
  74.0474630 103.8559340  63.3196940  73.5095720 104.5805400  63.0005640
  74.3008590 103.3789680  62.5294280  76.9036840 105.0910550  63.5783590
  76.8295540 105.9945690  63.8855960  76.0015680 104.7722450  63.5505660
  77.4522170 104.2569060  51.2009950  78.3472960 104.5954030  51.2228710
  77.4839800 103.5348470  50.5734230  71.0918330  99.6296110  49.4296950
  71.5293200 100.1725780  50.0854530  71.5766060  98.8043060  49.4393290
  72.9026050 100.7494150  54.5419180  72.6021590 100.6259120  55.4423090
  72.7963540  99.8902740  54.1334910  68.7954340 103.2855730  59.6198840
  68.3585330 103.4656530  60.4522990  69.3632020 104.0430350  59.4780560
  85.6717970 100.5290550  49.2445860  84.8410930 100.5967200  49.7153090
  85.8489800 101.4194670  48.9412720  81.5769210  90.5917250  50.2006210
  81.9954090  90.4048230  49.3602870  81.2705270  89.7396300  50.5109140
  85.0758940  95.5041390  53.8982010  84.7002540  94.7369320  53.4663300
  84.3462060  95.8864090  54.3856940  84.5299620  93.8138750  60.7208800
  83.5802330  93.7802290  60.8353790  84.7112630  94.7238860  60.4858570
  83.8409870  92.9872230  53.1381660  84.3368990  92.7543100  53.9230540
  83.6425940  92.1484070  52.7219300  85.2697030  91.6233180  55.6719340
  85.1596310  91.4689220  56.6101610  86.0304620  91.0954120  55.4294750
  86.1587300  89.4541100  48.9125480  87.0836610  89.3222280  48.7043770
  86.1363090  89.5333920  49.8661930  86.2325790  90.2251760  51.5382190
  85.4377290  90.1596880  52.0675100  86.4369070  91.1602400  51.5267540
  74.7812810 102.2520810  61.2820930  74.5404170 102.5195370  60.3951450
  75.7215450 102.4226540  61.3371790  70.9194810 103.6423470  62.8008990
  70.3255130 103.5108170  63.5399030  70.9118650 102.8061610  62.3351090
  70.5507040 101.0081850  61.7517030  69.8241100 100.3887140  61.6842980
  70.6116190 101.4022460  60.8815110  74.1552140 103.2226850  58.5366440
  74.6717160 102.6114210  58.0114700  74.8049520 103.7255630  59.0277450
  76.8947640 104.1135340  59.3635420  77.1825450 103.8589640  58.4868430
  77.4070860 103.5612700  59.9540990  68.8337040 104.3256240  54.9613790
  68.6659080 103.6926920  55.6595680  67.9671550 104.5315640  54.6107980
  70.4399740 103.0189470  52.4063930  69.9147360 103.3997500  51.7025890
  70.3644320 103.6440240  53.1273640  76.9620000 105.0351440  66.7303620
  77.8887310 104.7995710  66.7739580  76.9470430 105.8623440  66.2489650
  73.0392710 104.9671850  51.2813180  73.7711530 104.6831130  50.7337070
  73.2986380 104.7285130  52.1712560  72.2007500 101.0836580  51.2859510
  71.5716380 101.5521680  51.8345340  72.3155330 100.2385800  51.7205700
  79.6557220  95.1342240  37.4360710  79.5751270  94.2196850  37.1652420
  79.2421640  95.6309310  36.7300420  77.7875260  96.9121260  39.3169980
  77.0117360  96.4321700  39.6068550  78.4388190  96.2326910  39.1426140
  71.8041090  97.2241070  40.1945740  70.9725970  96.9689780  40.5942250
  72.4122070  97.2951840  40.9303660  81.8082690 101.3181450  38.0969110
  81.3464220 100.5468690  38.4256280  82.6208240 101.3447520  38.6021560
  71.7842350 101.2581160  40.3903760  72.0870390 100.3678900  40.2113980
  72.5285940 101.8151380  40.1626010  70.2133040  92.1842960  33.9788130
  69.3249740  92.5258930  33.8768010  70.4974230  91.9843280  33.0868960
  68.1766050  94.7848610  39.8627830  68.7482160  94.0170810  39.8631470
  68.1767590  95.0837370  38.9534440  78.2589420  92.3948830  39.5509070
  78.6354240  91.5220710  39.4382740  78.1608930  92.7307530  38.6599510
  72.3894430  90.7674460  35.0126510  72.4961180  91.6678190  35.3195270
  71.4786790  90.7192430  34.7221160  82.0413540  89.8899270  36.4837410
  82.8623160  89.3995840  36.5262890  82.0747620  90.4796930  37.2369250
  70.0377590  92.6893470  40.2579100  70.7187700  92.9531840  40.8766500
  69.7225640  91.8494340  40.5917110  74.2302160  93.7360830  39.3451690
  74.7380380  94.2341800  39.9856710  74.7615400  92.9596030  39.1691050
  86.3313090  91.9066020  43.0481040  85.6265260  92.2947730  42.5296150
  86.5971010  92.6016310  43.6501970  78.9009350  98.4878700  35.1105010
  78.2826620  98.9528150  34.5467730  79.4132600  99.1806180  35.5274520
  73.7641110  98.0154570  41.7888610  73.4310490  98.6423490  42.4309680
  73.9407790  98.5416450  41.0090280  82.2775020  91.8299650  39.2564950
  81.5730590  92.1184540  39.8368060  82.6387180  92.6399760  38.8964510
  72.9760210  99.9835370  43.6037790  73.5934210 100.6586450  43.3222240
  72.1153330 100.3923350  43.5125290  68.2692550  99.1735230  32.4844640
  67.8920530  99.6622330  31.7529540  68.5265620  99.8460510  33.1151170
  83.8937800 101.4474780  41.5192430  83.2101320 102.1173890  41.5109100
  84.4332090 101.6455430  40.7537290  75.8781480  87.5751620  37.9430150
  76.1856460  87.0198510  37.2265650  74.9482180  87.7096080  37.7603140
  81.4296540 103.2918910  40.2337610  81.4423700 102.8881200  39.3659870
  80.8771760 104.0666200  40.1299040  82.7241960 100.0135130  35.3227780
  82.6138290  99.0709460  35.4477200  82.7210210 100.3750770  36.2090540
  80.8281980  98.1948750  41.5620220  81.2450770  97.9808860  40.7273680
  81.5521800  98.4521540  42.1328840  78.2662240  95.6400450  34.6790270
  77.3391520  95.5737830  34.9078740  78.4187060  96.5780580  34.5645510
  84.7744080  96.5935970  41.6536460  83.9462710  96.6629060  41.1786590
  85.3694560  97.1790280  41.1852290  82.2959530  97.2020750  35.1825520
  81.6771950  96.8640300  34.5351820  82.2783980  96.5580510  35.8904710
  81.7386090  93.3805290  42.5991330  81.3257270  94.2059000  42.8531320
  81.0062040  92.7950330  42.4067690  73.8718880  96.1665190  37.4610000
  73.4675880  95.4542440  36.9655900  73.9582000  95.8218430  38.3498040
  72.5847500  92.9408400  41.2409040  73.1362090  93.0503740  40.4662290
  73.0991010  93.3146000  41.9564270  82.4286190 103.4264620  43.2872310
  81.9516750 104.2336810  43.0944920  81.7447980 102.7742950  43.4398520
  73.4319010  99.5914440  46.2757010  72.5347540  99.8154410  46.5230410
  73.4571880  99.7149380  45.3268410  78.5819610 101.3803630  36.1579510
  79.0215520 102.1227960  35.7434900  78.5206500 101.6230200  37.0818470
  74.0570580 102.4049460  47.0599530  74.0286010 102.8092410  46.1927960
  73.8935550 101.4759820  46.8971130  70.5723510  95.0610170  34.9616650
  70.4521110  95.7872260  34.3497920  70.2624400  94.2913080  34.4844560
  68.2108880  98.2325310  40.7685290  68.2889300  98.3674080  39.8241010
  68.8250560  97.5241200  40.9613410  69.4556510  99.9325500  37.1791470
  69.0484590 100.0740090  36.3245070  70.3469520  99.6485660  36.9762680
  79.2735390 104.0817410  44.0858520  79.7880060 103.9925420  44.8880950
  78.4304470 104.4277110  44.3786430  80.9515920 101.8760310  32.0740520
  80.2581080 101.8737600  31.4142800  81.6938780 101.4519630  31.6434690
  85.2642660  92.4321870  46.4813450  84.6486930  92.9401540  45.9528910
  84.9439080  91.5320200  46.4239390  68.2668400  99.2739480  43.3079750
  68.4299440  98.8044840  42.4899120  68.7320850  98.7663040  43.9728590
  73.0387170  88.4045240  38.3440320  72.5955320  89.1854780  38.0124840
  73.5972160  88.7275130  39.0511260  77.3256980  91.2713760  43.9475640
  76.8636350  91.4796780  44.7595580  76.9235090  90.4573110  43.6446310
  82.3261490  92.4922710  45.0772300  81.4755080  92.1928460  45.3981370
  82.1663280  92.7364720  44.1656120  79.4211200  93.9924460  47.1771090
  79.7464610  93.1588210  46.8373320  80.2091530  94.5152980  47.3249420
  76.1545990  88.0255940  33.2246150  75.5300170  88.0215810  33.9499460
  76.0676110  87.1586900  32.8282120  75.0763070  88.9492570  40.2029920
  75.3735400  89.8555400  40.1221940  75.6248630  88.4611350  39.5889490
  72.8301390  93.5278810  36.0721570  72.6042310  93.3115980  36.9768190
  72.0493920  93.9607270  35.7267540  75.2700600  94.4264390  46.7381840
  75.1744200  93.4859120  46.5882240  76.1132580  94.6479460  46.3429910
  78.6664020  92.1705720  36.7015500  79.0593590  92.4877920  35.8884190
  79.0280870  91.2917600  36.8160020  67.8898420  92.7026640  30.1348420
  67.8073090  93.6457400  30.2763410  67.5381480  92.5601550  29.2560770
  79.2519160  94.7611470  40.7966280  78.5200280  95.2698280  41.1456380
  78.8543500  93.9441450  40.4955060  75.6896550  91.4365670  39.2018770
  75.6932610  90.9955620  38.3523310  76.5847670  91.7583000  39.3090590
  71.5398930  91.3192160  38.1612980  71.1998980  91.7967390  38.9180030
  70.7776250  90.8657280  37.8014080  75.7516700  92.4377750  32.1925530
  75.8729520  92.3964230  33.1411350  75.3665210  93.3001900  32.0372260
  79.7145070  90.2145150  40.2089220  79.7317810  90.6653800  41.0531070
  79.4660650  89.3150790  40.4222660  74.7638200  94.7478890  31.5908830
  74.1955100  94.2997140  30.9644740  75.4727200  95.1071670  31.0573980
  83.1415820  87.6277330  46.0475600  83.4661590  86.8966990  46.5733580
  83.1772330  87.3090970  45.1456590  69.8407380  98.6490910  45.4675560
  69.4562170  98.0084580  46.0658520  70.1519570  99.3527030  46.0370290
  75.9904520  95.4967450  40.9484180  76.3574650  95.0226020  41.6945520
  75.8009580  96.3709020  41.2892520  72.3085680  98.7437080  33.8635240
  71.5347940  98.2034700  33.7033960  73.0380310  98.2243690  33.5253000
  83.0673660  97.7402440  39.6561630  83.7872780  98.2357730  39.2657740
  82.8655480  97.0620330  39.0115500  78.5283600  89.1340400  33.7991020
  77.7148210  88.6353570  33.7236330  78.3345550  89.9738650  33.3827370
  78.4492460  97.8111500  45.5430630  78.3829770  96.8907170  45.2888220
  77.8197600  97.9086940  46.2575270  72.3523080  98.4117460  37.5014050
  72.8701750  97.6085720  37.4470940  71.9007100  98.3496600  38.3430880
  77.2392580  99.6783740  32.7741350  77.5808280 100.4225970  32.2784670
  76.4105290  99.9914860  33.1366180  78.3809190 100.6332070  45.2934430
  78.3953730  99.7013030  45.0753340  77.6734290 100.7191830  45.9324200
  84.5920400  97.2739410  44.6403010  83.8668590  97.8668190  44.4432400
  85.1195860  97.2662950  43.8416380  84.5433510 101.6714150  34.2915170
  83.9009670 101.0169770  34.5658890  84.1564170 102.0769240  33.5155840
  80.1219990  98.9999580  38.1386860  80.4743810  98.4027710  37.4788230
  79.2382320  98.6743810  38.3095110  76.2083270  99.7597270  35.5457270
  76.8954400 100.3066480  35.9264860  75.4215690 100.3038000  35.5806880
  68.3475670  95.3770090  31.0374350  69.2170520  95.6594890  31.3210270
  67.8565990  96.1905960  30.9223160  75.5110480  96.7643300  35.1582630
  75.9673260  97.5748550  35.3842820  75.1598690  96.4466440  35.9901120
  71.4122260  87.1080950  35.6305150  71.2836890  87.0998850  36.5790070
  70.5884280  87.4464040  35.2796160  82.9330890 100.5630610  30.8291520
  82.7068470  99.8461050  31.4216160  82.5427090 100.3143050  29.9913270
  80.8612790 101.0776890  44.3088440  81.1969030 101.6643580  44.9866360
  79.9413130 100.9469600  44.5386230  68.7146920 104.5897470  31.6035980
  69.0744560 105.1886810  30.9493250  68.5739260 105.1357360  32.3771010
  68.6988780 102.8552330  46.0778380  68.8079900 101.9147070  45.9373770
  68.0469340 103.1207080  45.4292110  76.6901370 101.1268220  47.4776500
  76.3698240 100.4077460  48.0222190  76.0159730 101.8023290  47.5512560
  74.7315540 101.9728670  32.4209650  74.7225640 102.7058360  31.8054160
  73.8113900 101.7260250  32.5136610  70.3322180  97.1943560  33.1656410
  69.7250130  97.9342460  33.1751710  70.8071530  97.2842920  32.3394610
  79.9054970  91.3594380  42.8413300  80.2735790  90.5389590  43.1692870
  79.0453170  91.4196270  43.2568950  83.2717000  90.3151320  33.6500860
  82.6430160  90.4196990  32.9359090  82.7768920  90.5348100  34.4394740
  77.7175140 102.0356910  31.0834840  77.8187120 101.8320900  30.1536820
  76.8176880 101.7815190  31.2882620  75.2401030  92.5937270  35.0658740
  74.5317180  93.0623610  35.5072350  75.5245510  91.9359280  35.7003930
  76.8656960  94.0133970  43.0651270  77.3642210  94.4879790  43.7303120
  77.0079910  93.0897490  43.2721300  79.2716460  89.3187930  36.5054530
  79.1484240  89.3374060  35.5564040  80.2201020  89.3666870  36.6252930
  73.4436050  90.9022350  32.4409450  74.2926580  91.3392500  32.3749640
  73.0767320  91.2142610  33.2681510  84.0723820  90.2301930  43.9079660
  83.5697420  90.9707330  44.2473470  84.8880480  90.6185930  43.5916450
  82.3645830  95.4735110  37.3541020  81.4235970  95.4885340  37.5288710
  82.6789900  94.6871070  37.8001320  71.0374230  94.5879780  31.5977870
  71.1177820  93.6407290  31.7095270  71.9293980  94.9186660  31.7038530
  84.3671410 102.6443960  39.0295280  84.4918830 103.4675130  39.5019090
  85.2336970 102.4334690  38.6819430  68.7234420 100.8048740  34.5753920
  67.7974200 101.0469880  34.5659330  69.1890850 101.6323000  34.4538670
  70.8447220 103.9221240  47.8897990  71.6459950 104.2433290  48.3033390
  70.3299040 103.5616820  48.6117900  79.6811850 100.0301110  47.8373400
  79.0750010 100.0532710  47.0969150  79.3765960  99.2984150  48.3740650
  81.1112220 103.7581400  46.4482810  82.0633970 103.6739420  46.3983050
  80.9640440 104.4223110  47.1216600  84.0021420 103.1375610  31.9474720
  83.7162930 102.7240750  31.1328900  83.8040970 104.0663320  31.8275240
  75.4668650  99.1308890  30.3880330  75.3619290  98.5161240  31.1141710
  75.2992870  98.6074780  29.6043340  75.6182970  97.8165690  46.3669560
  74.8528640  98.3850690  46.2824230  75.7998930  97.5241900  45.4737790
  78.7071380  98.1928920  30.9922320  78.1581480  98.6398220  31.6365060
  79.3290640  97.6878170  31.5159990  82.7606320  99.5471020  46.9244580
  83.5015790  99.8846780  46.4212040  81.9979000  99.7163080  46.3714350
  74.3746500  97.1519840  32.8887620  74.7962920  96.9859710  33.7319010
  74.4997340  96.3420070  32.3942760  76.8874140  96.1757450  30.1364720
  77.4079800  95.4606470  29.7705870  77.5342540  96.8143320  30.4365230
  81.4351980  97.5985850  45.4599790  81.8493000  97.7530930  46.3090210
  80.5002980  97.7241070  45.6225570  81.9074150  94.9382010  47.4638940
  82.4894920  94.1834330  47.3759420  82.0835920  95.4689450  46.6870420
  76.1967210  97.5506330  43.4295720  76.6155320  98.3939060  43.2571960
  75.2775840  97.6878370  43.2002500  78.5331110  95.2822510  44.8133560
  78.6527320  94.6863650  45.5528400  79.3925110  95.3192200  44.3934860
  80.8719010  95.8359700  43.3896070  80.3454230  96.3602320  42.7861210
  81.2150350  96.4687090  44.0205800  73.2705400  93.2253070  29.8345780
  73.0694460  92.3620430  30.1959120  73.0997450  93.1386430  28.8967380
  80.1193310  91.4409670  46.3042400  79.4308830  90.7791210  46.2392390
  80.8399330  90.9947940  46.7490860  80.7493710  88.0361300  32.3632660
  81.0296000  87.1929200  32.7192080  79.9759440  88.2684410  32.8771410
  72.0688200  90.3253690  29.8223660  72.3714100  90.3321120  28.9142810
  72.8082790  89.9751550  30.3191320  75.2873130  89.2688310  30.8079860
  74.9395130  88.5912300  30.2282310  75.4885900  88.8077820  31.6223250
  77.4522170 104.2569060  32.4266460  78.3472960 104.5954030  32.4485220
  77.4839800 103.5348470  31.7990740  68.3064130 102.4185140  38.1073720
  68.6367140 101.5506200  37.8752360  68.7355130 102.6243660  38.9378680
  68.7954340 103.2855730  40.8455350  68.3585330 103.4656530  41.6779500
  69.3632020 104.0430350  40.7037070  85.6717970 100.5290550  30.4702370
  84.8410930 100.5967200  30.9409600  85.8489800 101.4194670  30.1669230
  85.1274430  97.2738030  32.9736570  85.8893340  97.8434680  33.0796260
  85.1428800  96.7065230  33.7444880  68.6278770  95.7975960  37.2044230
  67.9727610  95.5287600  36.5603930  69.4656720  95.6880440  36.7546210
  83.1168160  99.5124710  43.2308820  82.3028000  99.9421870  43.4934610
  83.5242360 100.1243120  42.6177870  85.1793600  97.5672400  30.1309090
  85.4542440  98.4751280  30.0028310  84.9904340  97.5034930  31.0671080
  69.6654700  96.1828530  41.7447570  70.0327740  96.0955930  42.6243590
  69.0965520  95.4195080  41.6454430  84.4658560  94.6512910  44.7578040
  84.2344650  94.4225660  43.8575990  84.7263110  95.5712460  44.7122930
  82.9046630  89.8769340  47.5357740  83.7816810  89.8852740  47.9191740
  82.9167470  89.1400180  46.9250090  67.8416850  93.0074890  33.1469560
  66.9380930  93.2705090  32.9721220  68.3257470  93.2786060  32.3669520
  84.5299620  93.8138750  41.9465310  83.5802330  93.7802290  42.0610300
  84.7112630  94.7238860  41.7115080  70.3844060  92.0640430  31.0563940
  71.0935760  91.6423650  30.5711220  69.6684000  92.1315660  30.4247290
  70.0318220  88.1179760  30.0966590  70.7546350  88.6588700  30.4147810
  70.3042740  87.8443180  29.2208130  83.8409870  92.9872230  34.3638170
  84.3368990  92.7543100  35.1487050  83.6425940  92.1484070  33.9475810
  83.6162750  87.5627310  43.3558850  84.2534970  88.1761450  43.7218040
  83.7637640  87.5987970  42.4108080  86.2325790  90.2251760  32.7638700
  85.4377290  90.1596880  33.2931610  86.4369070  91.1602400  32.7524050
  71.0806780 100.6961220  46.9067720  71.0376410 100.3254130  47.7882180
  71.2117790 101.6338790  47.0469540  70.9194810 103.6423470  44.0265500
  70.3255130 103.5108170  44.7655540  70.9118650 102.8061610  43.5607600
  80.3649830  86.9355700  42.2295530  79.4909670  87.2690810  42.0268460
  80.2560580  86.4628880  43.0547400  81.2721810  89.1426570  43.6137250
  80.9435170  88.3278330  43.2338980  82.2204110  89.0996380  43.4902940
  83.7256420 104.9138610  40.5874820  83.2659390 105.6654420  40.2132840
  83.0968880 104.1945080  40.5289620  70.5507040 101.0081850  42.9773540
  69.8241100 100.3887140  42.9099490  70.6116190 101.4022460  42.1071620
  78.1124650  87.8525540  41.1688440  77.3296440  88.3271040  41.4485200
  77.8187580  86.9480370  41.0601620  82.6645720  88.5548640  39.2137530
  83.1053810  88.4993740  38.3659130  82.3953310  89.4706650  39.2847710
  84.5284290  88.1863880  37.2246350  84.4672690  87.2425100  37.0777370
  85.3076320  88.2943970  37.7699810  68.8337040 104.3256240  36.1870300
  68.6659080 103.6926920  36.8852190  67.9671550 104.5315640  35.8364490
  69.4565060  88.1573020  33.6902160  70.2144420  88.2701900  33.1166190
  68.9942230  88.9942220  33.6445590  75.9978870  90.2712290  36.6804470
  75.1853380  89.8969180  36.3400350  76.5020510  89.5157370  36.9825660
  80.5003850  86.9354740  37.9187540  81.1033220  87.5074950  38.3936060
  79.7596840  87.4994180  37.6961440  83.6438450  87.3376300  33.1927820
  83.8389080  88.2359750  33.4595250  82.8568320  87.1063380  33.6860770
  70.4399740 103.0189470  33.6320440  69.9147360 103.3997500  32.9282400
  70.3644320 103.6440240  34.3530150  71.8290210  88.6837070  32.2304130
  72.3582970  87.8966870  32.1012080  72.4618530  89.3628260  32.4639660
  74.0228050  88.4212210  35.2849520  73.3930790  87.7199520  35.4519650
  73.4833190  89.1816340  35.0682680  76.9620000 105.0351440  47.9560130
  77.8887310 104.7995710  47.9996090  76.9470430 105.8623440  47.4746160
  85.1965060 104.5777010  34.9534380  85.3717250 103.8914750  34.3095300
  84.4986630 105.1024060  34.5611050  73.0392710 104.9671850  32.5069690
  73.7711530 104.6831130  31.9593580  73.2986380 104.7285130  33.3969070
  72.2007500 101.0836580  32.5116020  71.5716380 101.5521680  33.0601850
  72.3155330 100.2385800  32.9462210  68.1766050  94.7848610  21.0884340
  68.7482160  94.0170810  21.0887980  68.1767590  95.0837370  20.1790950
  78.0346000 103.6039460  18.9429610  77.4157440 104.0596960  18.3724050
  78.8897780 103.7590920  18.5419310  69.4190920  90.1932970  22.8753270
  69.2393760  89.2958720  23.1556030  69.0171000  90.7404840  23.5500220
  72.5138260  88.3759390  24.8371620  72.5156700  88.8931780  24.0317520
  71.6842570  87.8989570  24.8141550  82.2775020  91.8299650  20.4821460
  81.5730590  92.1184540  21.0624570  82.6387180  92.6399760  20.1221020
  72.1953590  90.0869350  22.8442070  72.5370400  90.9311400  22.5495940
  71.2569400  90.2353090  22.9607410  68.2692550  99.1735230  13.7101150
  67.8920530  99.6622330  12.9786050  68.5265620  99.8460510  14.3407680
  83.8937800 101.4474780  22.7448940  83.2101320 102.1173890  22.7365610
  84.4332090 101.6455430  21.9793800  75.8781480  87.5751620  19.1686660
  76.1856460  87.0198510  18.4522160  74.9482180  87.7096080  18.9859650
  78.2531320  91.9117450  12.9013940  77.3134990  92.0731410  12.9866400
  78.5714580  92.6303130  12.3549930  74.3400580  99.8532750  20.8505720
  74.0428870  99.2478220  20.1713500  75.2900400  99.8910060  20.7395080
  82.4286190 103.4264620  24.5128820  81.9516750 104.2336810  24.3201430
  81.7447980 102.7742950  24.6655030  80.4724230  96.4407560  13.4154780
  80.9117510  95.6029990  13.2692600  81.1852650  97.0736960  13.5018920
  78.5819610 101.3803630  17.3836020  79.0215520 102.1227960  16.9691410
  78.5206500 101.6230200  18.3074980  74.0570580 102.4049460  28.2856040
  74.0286010 102.8092410  27.4184470  73.8935550 101.4759820  28.1227640
  86.0085400 103.1876560  29.5820210  86.4845120 103.6659450  30.2609290
  86.6292560 103.1194050  28.8565710  85.4118650 100.3789410  26.7420220
  85.5381710 100.1401290  25.8237400  85.4540030  99.5473950  27.2142300
  79.2735390 104.0817410  25.3115030  79.7880060 103.9925420  26.1137460
  78.4304470 104.4277110  25.6042940  81.2489790 104.3672750  14.7399030
  81.0890930 104.0775690  15.6380860  81.0836500 103.5912880  14.2044260
  73.7278170 104.1471280  16.5170650  73.5520650 103.2306820  16.3038450
  72.8733910 104.5058570  16.7568450  80.9515920 101.8760310  13.2997030
  80.2581080 101.8737600  12.6399310  81.6938780 101.4519630  12.8691200
  80.5165850 103.5023020  17.3745520  80.9722800 102.7212400  17.6884140
  80.8558370 104.2129840  17.9186700  77.3256980  91.2713760  25.1732150
  76.8636350  91.4796780  25.9852090  76.9235090  90.4573110  24.8702820
  76.1545990  88.0255940  14.4502660  75.5300170  88.0215810  15.1755970
  76.0676110  87.1586900  14.0538630  75.0763070  88.9492570  21.4286430
  75.3735400  89.8555400  21.3478450  75.6248630  88.4611350  20.8146000
  80.0599150  93.5342180  15.8968730  79.4608040  94.2577980  15.7132350
  80.6078760  93.4718960  15.1145180  75.2700600  94.4264390  27.9638350
  75.1744200  93.4859120  27.8138750  76.1132580  94.6479460  27.5686420
  70.4011140  90.8378060  26.1172130  70.0074530  91.6853270  26.3244910
  69.7129540  90.2004430  26.3080770  67.7028190  88.7606520  20.1502210
  67.4141240  89.3309380  20.8627190  68.4473950  88.2810970  20.5133440
  67.8898420  92.7026640  11.3604930  67.8073090  93.6457400  11.5019920
  67.5381480  92.5601550  10.4817280  75.6896550  91.4365670  20.4275280
  75.6932610  90.9955620  19.5779820  76.5847670  91.7583000  20.5347100
  75.7516700  92.4377750  13.4182040  75.8729520  92.3964230  14.3667860
  75.3665210  93.3001900  13.2628770  79.7145070  90.2145150  21.4345730
  79.7317810  90.6653800  22.2787580  79.4660650  89.3150790  21.6479170
  74.7638200  94.7478890  12.8165340  74.1955100  94.2997140  12.1901250
  75.4727200  95.1071670  12.2830490  72.3085680  98.7437080  15.0891750
  71.5347940  98.2034700  14.9290470  73.0380310  98.2243690  14.7509510
  81.2431990  93.5060050  13.3209690  82.1311610  93.8177280  13.1461030
  81.2137080  92.6332300  12.9290270  72.3523080  98.4117460  18.7270560
  72.8701750  97.6085720  18.6727450  71.9007100  98.3496600  19.5687390
  77.2392580  99.6783740  13.9997860  77.5808280 100.4225970  13.5041180
  76.4105290  99.9914860  14.3622690  78.3809190 100.6332070  26.5190940
  78.3953730  99.7013030  26.3009850  77.6734290 100.7191830  27.1580710
  83.5146260  94.8171890  12.7889550  83.4309980  95.2486110  11.9385990
  84.2340450  95.2770240  13.2216370  84.5433510 101.6714150  15.5171680
  83.9009670 101.0169770  15.7915400  84.1564170 102.0769240  14.7412350
  76.2083270  99.7597270  16.7713780  76.8954400 100.3066480  17.1521370
  75.4215690 100.3038000  16.8063390  68.3475670  95.3770090  12.2630860
  69.2170520  95.6594890  12.5466780  67.8565990  96.1905960  12.1479670
  75.5110480  96.7643300  16.3839140  75.9673260  97.5748550  16.6099330
  75.1598690  96.4466440  17.2157630  77.8143090 102.2749640  23.6131440
  78.4585310 102.4809020  24.2904860  78.1772530 101.5138040  23.1602290
  82.9330890 100.5630610  12.0548030  82.7068470  99.8461050  12.6472670
  82.5427090 100.3143050  11.2169780  68.7146920 104.5897470  12.8292490
  69.0744560 105.1886810  12.1749760  68.5739260 105.1357360  13.6027520
  68.4116190  88.8672070  26.3168360  67.6974710  89.0668990  26.9220970
  68.8311230  88.0911640  26.6883160  82.5147140  98.4802550  13.7162190
  82.2268840  98.9415240  14.5040070  83.3099310  98.0200320  13.9846410
  76.6901370 101.1268220  28.7033010  76.3698240 100.4077460  29.2478700
  76.0159730 101.8023290  28.7769070  74.7315540 101.9728670  13.6466160
  74.7225640 102.7058360  13.0310670  73.8113900 101.7260250  13.7393120
  70.3322180  97.1943560  14.3912920  69.7250130  97.9342460  14.4008220
  70.8071530  97.2842920  13.5651120  79.9054970  91.3594380  24.0669810
  80.2735790  90.5389590  24.3949380  79.0453170  91.4196270  24.4825460
  77.7175140 102.0356910  12.3091350  77.8187120 101.8320900  11.3793330
  76.8176880 101.7815190  12.5139130  76.3593250 104.5543230  17.0039020
  76.6134750 104.5164620  16.0818390  75.4105730 104.4276560  16.9967270
  72.3427470  97.1554710  12.1401490  73.1090740  97.0436070  12.7026920
  72.4202160  96.4592680  11.4878260  84.3671410 102.6443960  20.2551790
  84.4918830 103.4675130  20.7275600  85.2336970 102.4334690  19.9075940
  71.8388940 104.7375170  19.9268920  72.5751420 104.1890630  20.1977490
  72.2229860 105.6031180  19.7874910  68.7234420 100.8048740  15.8010430
  67.7974200 101.0469880  15.7915840  69.1890850 101.6323000  15.6795180
  70.8447220 103.9221240  29.1154500  71.6459950 104.2433290  29.5289900
  70.3299040 103.5616820  29.8374410  74.9491250 103.9105480  11.7494490
  75.7419860 104.1994310  11.2976280  74.4295600 103.4797650  11.0706970
  79.6811850 100.0301110  29.0629910  79.0750010 100.0532710  28.3225660
  79.3765960  99.2984150  29.5997160  81.1112220 103.7581400  27.6739320
  82.0633970 103.6739420  27.6239560  80.9640440 104.4223110  28.3473110
  84.0021420 103.1375610  13.1731230  83.7162930 102.7240750  12.3585410
  83.8040970 104.0663320  13.0531750  75.4668650  99.1308890  11.6136840
  75.3619290  98.5161240  12.3398220  75.2992870  98.6074780  10.8299850
  75.6182970  97.8165690  27.5926070  74.8528640  98.3850690  27.5080740
  75.7998930  97.5241900  26.6994300  78.7071380  98.1928920  12.2178830
  78.1581480  98.6398220  12.8621570  79.3290640  97.6878170  12.7416500
  74.3746500  97.1519840  14.1144130  74.7962920  96.9859710  14.9575520
  74.4997340  96.3420070  13.6199270  72.5373920  93.1316390  26.9215110
  72.0070380  92.6407340  26.2938450  73.2061990  93.5600590  26.3873040
  76.8874140  96.1757450  11.3621230  77.4079800  95.4606470  10.9962380
  77.5342540  96.8143320  11.6621740  73.0246220  90.0978760  27.0012400
  72.9303090  89.4799510  26.2763270  72.4443610  90.8245050  26.7742310
  75.7907660  88.6552000  24.0339790  75.3424960  88.6776260  23.1885340
  75.1572860  88.2571020  24.6310090  73.2705400  93.2253070  11.0602290
  73.0694460  92.3620430  11.4215630  73.0997450  93.1386430  10.1223890
  75.2999880  91.8243860  27.2965890  75.8899570  91.5159710  27.9843710
  74.4820120  91.3523610  27.4525790  72.0688200  90.3253690  11.0480170
  72.3714100  90.3321120  10.1399320  72.8082790  89.9751550  11.5447830
  75.2873130  89.2688310  12.0336370  74.9395130  88.5912300  11.4538820
  75.4885900  88.8077820  12.8479760  77.4522170 104.2569060  13.6522970
  78.3472960 104.5954030  13.6741730  77.4839800 103.5348470  13.0247250
  71.0918330  99.6296110  11.8809970  71.5293200 100.1725780  12.5367550
  71.5766060  98.8043060  11.8906310  72.9026050 100.7494150  16.9932200
  72.6021590 100.6259120  17.8936110  72.7963540  99.8902740  16.5847930
  84.4316520 102.7872730  26.3589170  83.8318510 102.8465290  25.6153090
  84.5610420 101.8477710  26.4886020  85.6717970 100.5290550  11.6958880
  84.8410930 100.5967200  12.1666110  85.8489800 101.4194670  11.3925740
  85.1274430  97.2738030  14.1993080  85.8893340  97.8434680  14.3052770
  85.1428800  96.7065230  14.9701390  68.6278770  95.7975960  18.4300740
  67.9727610  95.5287600  17.7860440  69.4656720  95.6880440  17.9802720
  86.1334400  98.1288130  19.0435010  86.5043230  97.3455450  18.6370980
  86.7736330  98.8177230  18.8652310  85.1793600  97.5672400  11.3565600
  85.4542440  98.4751280  11.2284820  84.9904340  97.5034930  12.2927590
  69.2170700  93.0937620  26.8762500  68.3226750  93.0604380  27.2156210
  69.7568250  93.2924410  27.6413750  67.8416850  93.0074890  14.3726070
  66.9380930  93.2705090  14.1977730  68.3257470  93.2786060  13.5926030
  70.0318220  88.1179760  11.3223100  70.7546350  88.6588700  11.6404320
  70.3042740  87.8443180  10.4464640  69.7210410  87.3685950  21.2245720
  70.3686600  86.8183330  20.7840880  70.1412250  87.6229100  22.0461530
  83.1744210 104.2643310  17.9833600  83.7703280 103.9427880  17.3068020
  83.4322360 103.7915130  18.7746870  69.4742410  87.5241620  23.9671040
  69.1257230  87.9805440  24.7329220  69.1430110  86.6298750  24.0493470
  74.7812810 102.2520810  23.7333950  74.5404170 102.5195370  22.8464470
  75.7215450 102.4226540  23.7884810  76.9867230  88.7153500  27.4890460
  76.9256120  89.3075330  28.2385870  77.9267610  88.6079460  27.3440720
  86.0416970 104.2715190  24.5344590  85.5475250 104.6684060  23.8171720
  85.4330260 103.6464400  24.9281870  70.1463050  87.0517820  27.2421810
  70.6946040  86.8705870  26.4787920  70.2118360  86.2611930  27.7778120
  80.3649830  86.9355700  23.4552040  79.4909670  87.2690810  23.2524970
  80.2560580  86.4628880  24.2803910  83.7256420 104.9138610  21.8131330
  83.2659390 105.6654420  21.4389350  83.0968880 104.1945080  21.7546130
  74.1552140 103.2226850  20.9879460  74.6717160 102.6114210  20.4627720
  74.8049520 103.7255630  21.4790470  76.8947640 104.1135340  21.8148440
  77.1825450 103.8589640  20.9381450  77.4070860 103.5612700  22.4054010
  78.1124650  87.8525540  22.3944950  77.3296440  88.3271040  22.6741710
  77.8187580  86.9480370  22.2858130  75.9978870  90.2712290  17.9060980
  75.1853380  89.8969180  17.5656860  76.5020510  89.5157370  18.2082170
  70.4399740 103.0189470  14.8576950  69.9147360 103.3997500  14.1538910
  70.3644320 103.6440240  15.5786660  85.1965060 104.5777010  16.1790890
  85.3717250 103.8914750  15.5351810  84.4986630 105.1024060  15.7867560
  74.1483610  87.6996190  28.9458520  73.8667880  88.2029790  28.1819340
  74.5303310  86.9017940  28.5800650  73.0392710 104.9671850  13.7326200
  73.7711530 104.6831130  13.1850090  73.2986380 104.7285130  14.6225580
  72.2007500 101.0836580  13.7372530  71.5716380 101.5521680  14.2858360
  72.3155330 100.2385800  14.1718720  83.5297560 104.2621300  29.0057680
  84.3222880 103.7670530  28.7983640  83.8230710 104.9411440  29.6133290
  77.7875260  96.9121260   1.7683000  77.0117360  96.4321700   2.0581570
  78.4388190  96.2326910   1.5939160  71.8041090  97.2241070   2.6458760
  70.9725970  96.9689780   3.0455270  72.4122070  97.2951840   3.3816680
  71.7842350 101.2581160   2.8416780  72.0870390 100.3678900   2.6627000
  72.5285940 101.8151380   2.6139030  77.2284250  99.5878450   1.7753160
  77.1592530  98.6468390   1.6142290  77.9904110  99.6779860   2.3475730
  69.4190920  90.1932970   4.1009780  69.2393760  89.2958720   4.3812540
  69.0171000  90.7404840   4.7756730  70.0377590  92.6893470   2.7092120
  70.7187700  92.9531840   3.3279520  69.7225640  91.8494340   3.0430130
  74.2302160  93.7360830   1.7964710  74.7380380  94.2341800   2.4369730
  74.7615400  92.9596030   1.6204070  86.3313090  91.9066020   5.4994060
  85.6265260  92.2947730   4.9809170  86.5971010  92.6016310   6.1014990
  72.5138260  88.3759390   6.0628130  72.5156700  88.8931780   5.2574030
  71.6842570  87.8989570   6.0398060  73.7641110  98.0154570   4.2401630
  73.4310490  98.6423490   4.8822700  73.9407790  98.5416450   3.4603300
  72.1953590  90.0869350   4.0698580  72.5370400  90.9311400   3.7752450
  71.2569400  90.2353090   4.1863920  72.9760210  99.9835370   6.0550810
  73.5934210 100.6586450   5.7735260  72.1153330 100.3923350   5.9638310
  83.8937800 101.4474780   3.9705450  83.2101320 102.1173890   3.9622120
  84.4332090 101.6455430   3.2050310  85.3461940  91.2754440   2.0987180
  84.3986850  91.3093420   2.2302610  85.6711930  92.0893390   2.4836540
  81.4296540 103.2918910   2.6850630  81.4423700 102.8881200   1.8172890
  80.8771760 104.0666200   2.5812060  80.8281980  98.1948750   4.0133240
  81.2450770  97.9808860   3.1786700  81.5521800  98.4521540   4.5841860
  84.7744080  96.5935970   4.1049480  83.9462710  96.6629060   3.6299610
  85.3694560  97.1790280   3.6365310  81.7386090  93.3805290   5.0504350
  81.3257270  94.2059000   5.3044340  81.0062040  92.7950330   4.8580710
  72.5847500  92.9408400   3.6922060  73.1362090  93.0503740   2.9175310
  73.0991010  93.3146000   4.4077290  82.4286190 103.4264620   5.7385330
  81.9516750 104.2336810   5.5457940  81.7447980 102.7742950   5.8911540
  73.4319010  99.5914440   8.7270030  72.5347540  99.8154410   8.9743430
  73.4571880  99.7149380   7.7781430  72.2590230  96.4627760   7.3027400
  72.1198000  97.3350560   7.6714800  71.3771590  96.1200570   7.1575340
  74.0570580 102.4049460   9.5112550  74.0286010 102.8092410   8.6440980
  73.8935550 101.4759820   9.3484150  86.0085400 103.1876560  10.8076720
  86.4845120 103.6659450  11.4865800  86.6292560 103.1194050  10.0822220
  68.2108880  98.2325310   3.2198310  68.2889300  98.3674080   2.2754030
  68.8250560  97.5241200   3.4126430  85.4118650 100.3789410   7.9676730
  85.5381710 100.1401290   7.0493910  85.4540030  99.5473950   8.4398810
  79.2735390 104.0817410   6.5371540  79.7880060 103.9925420   7.3393970
  78.4304470 104.4277110   6.8299450  85.2642660  92.4321870   8.9326470
  84.6486930  92.9401540   8.4041930  84.9439080  91.5320200   8.8752410
  68.2668400  99.2739480   5.7592770  68.4299440  98.8044840   4.9412140
  68.7320850  98.7663040   6.4241610  77.3256980  91.2713760   6.3988660
  76.8636350  91.4796780   7.2108600  76.9235090  90.4573110   6.0959330
  82.3261490  92.4922710   7.5285320  81.4755080  92.1928460   7.8494390
  82.1663280  92.7364720   6.6169140  79.4211200  93.9924460   9.6284110
  79.7464610  93.1588210   9.2886340  80.2091530  94.5152980   9.7762440
  75.0763070  88.9492570   2.6542940  75.3735400  89.8555400   2.5734960
  75.6248630  88.4611350   2.0402510  75.2700600  94.4264390   9.1894860
  75.1744200  93.4859120   9.0395260  76.1132580  94.6479460   8.7942930
  70.4011140  90.8378060   7.3428640  70.0074530  91.6853270   7.5501420
  69.7129540  90.2004430   7.5337280  76.9756190  90.9213030  10.4125380
  76.2854510  90.7285230  11.0471470  77.7188490  91.2047670  10.9449680
  79.2519160  94.7611470   3.2479300  78.5200280  95.2698280   3.5969400
  78.8543500  93.9441450   2.9468080  79.7145070  90.2145150   2.6602240
  79.7317810  90.6653800   3.5044090  79.4660650  89.3150790   2.8735680
  83.1415820  87.6277330   8.4988620  83.4661590  86.8966990   9.0246600
  83.1772330  87.3090970   7.5969610  69.8407380  98.6490910   7.9188580
  69.4562170  98.0084580   8.5171540  70.1519570  99.3527030   8.4883310
  75.9904520  95.4967450   3.3997200  76.3574650  95.0226020   4.1458540
  75.8009580  96.3709020   3.7405540  73.7803890  94.5376090   5.7181410
  73.4760960  95.4168070   5.9431770  74.7350350  94.5975880   5.7538850
  83.0673660  97.7402440   2.1074650  83.7872780  98.2357730   1.7170760
  82.8655480  97.0620330   1.4628520  78.4492460  97.8111500   7.9943650
  78.3829770  96.8907170   7.7401240  77.8197600  97.9086940   8.7088290
  69.8367620  95.3778830   6.8652770  69.4782560  96.0432680   7.4526110
  69.5422180  94.5462380   7.2365390  73.0380740  95.8363070   9.7492320
  72.7380880  95.9820250   8.8520140  73.8091980  95.2768360   9.6565710
  78.3809190 100.6332070   7.7447450  78.3953730  99.7013030   7.5266360
  77.6734290 100.7191830   8.3837220  84.5920400  97.2739410   7.0916030
  83.8668590  97.8668190   6.8945420  85.1195860  97.2662950   6.2929400
  77.8143090 102.2749640   4.8387950  78.4585310 102.4809020   5.5161370
  78.1772530 101.5138040   4.3858800  79.0875170 100.2781990   3.5565400
  79.7297400  99.5775150   3.6697570  79.6124520 101.0580430   3.3762290
  80.8612790 101.0776890   6.7601460  81.1969030 101.6643580   7.4379380
  79.9413130 100.9469600   6.9899250  68.4116190  88.8672070   7.5424870
  67.6974710  89.0668990   8.1477480  68.8311230  88.0911640   7.9139670
  68.6988780 102.8552330   8.5291400  68.8079900 101.9147070   8.3886790
  68.0469340 103.1207080   7.8805130  76.6901370 101.1268220   9.9289520
  76.3698240 100.4077460  10.4735210  76.0159730 101.8023290  10.0025580
  79.9054970  91.3594380   5.2926320  80.2735790  90.5389590   5.6205890
  79.0453170  91.4196270   5.7081970  76.8656960  94.0133970   5.5164290
  77.3642210  94.4879790   6.1816140  77.0079910  93.0897490   5.7234320
  84.0723820  90.2301930   6.3592680  83.5697420  90.9707330   6.6986490
  84.8880480  90.6185930   6.0429470  70.8447220 103.9221240  10.3411010
  71.6459950 104.2433290  10.7546410  70.3299040 103.5616820  11.0630920
  79.6811850 100.0301110  10.2886420  79.0750010 100.0532710   9.5482170
  79.3765960  99.2984150  10.8253670  81.1112220 103.7581400   8.8995830
  82.0633970 103.6739420   8.8496070  80.9640440 104.4223110   9.5729620
  68.5645030  96.4094700   9.2847060  69.0684050  95.8301980   9.8563290
  67.8252450  96.6934930   9.8223430  75.6182970  97.8165690   8.8182580
  74.8528640  98.3850690   8.7337250  75.7998930  97.5241900   7.9250810
  82.7606320  99.5471020   9.3757600  83.5015790  99.8846780   8.8725060
  81.9979000  99.7163080   8.8227370  70.5968110  94.5524290  10.1797130
  70.6373450  94.2538160  11.0882360  71.4513610  94.9531900  10.0204650
  72.5373920  93.1316390   8.1471620  72.0070380  92.6407340   7.5194960
  73.2061990  93.5600590   7.6129550  81.4351980  97.5985850   7.9112810
  81.8493000  97.7530930   8.7603230  80.5002980  97.7241070   8.0738590
  81.9074150  94.9382010   9.9151960  82.4894920  94.1834330   9.8272440
  82.0835920  95.4689450   9.1383440  73.0246220  90.0978760   8.2268910
  72.9303090  89.4799510   7.5019780  72.4443610  90.8245050   7.9998820
  75.7907660  88.6552000   5.2596300  75.3424960  88.6776260   4.4141850
  75.1572860  88.2571020   5.8566600  76.1967210  97.5506330   5.8808740
  76.6155320  98.3939060   5.7084980  75.2775840  97.6878370   5.6515520
  78.5331110  95.2822510   7.2646580  78.6527320  94.6863650   8.0041420
  79.3925110  95.3192200   6.8447880  80.8719010  95.8359700   5.8409090
  80.3454230  96.3602320   5.2374230  81.2150350  96.4687090   6.4718820
  74.0474630 103.8559340   6.9966470  73.5095720 104.5805400   6.6775170
  74.3008590 103.3789680   6.2063810  75.2999880  91.8243860   8.5222400
  75.8899570  91.5159710   9.2100220  74.4820120  91.3523610   8.6782300
  80.1193310  91.4409670   8.7555420  79.4308830  90.7791210   8.6905410
  80.8399330  90.9947940   9.2003880  76.9036840 105.0910550   7.2553120
  76.8295540 105.9945690   7.5625490  76.0015680 104.7722450   7.2275190
  68.7954340 103.2855730   3.2968370  68.3585330 103.4656530   4.1292520
  69.3632020 104.0430350   3.1550090  84.4316520 102.7872730   7.5845680
  83.8318510 102.8465290   6.8409600  84.5610420 101.8477710   7.7142530
  83.1168160  99.5124710   5.6821840  82.3028000  99.9421870   5.9447630
  83.5242360 100.1243120   5.0690890  69.6654700  96.1828530   4.1960590
  70.0327740  96.0955930   5.0756610  69.0965520  95.4195080   4.0967450
  84.4658560  94.6512910   7.2091060  84.2344650  94.4225660   6.3089010
  84.7263110  95.5712460   7.1635950  69.2170700  93.0937620   8.1019010
  68.3226750  93.0604380   8.4412720  69.7568250  93.2924410   8.8670260
  82.9046630  89.8769340   9.9870760  83.7816810  89.8852740  10.3704760
  82.9167470  89.1400180   9.3763110  84.5299620  93.8138750   4.3978330
  83.5802330  93.7802290   4.5123320  84.7112630  94.7238860   4.1628100
  69.7210410  87.3685950   2.4502230  70.3686600  86.8183330   2.0097390
  70.1412250  87.6229100   3.2718040  83.6162750  87.5627310   5.8071870
  84.2534970  88.1761450   6.1731060  83.7637640  87.5987970   4.8621100
  69.4742410  87.5241620   5.1927550  69.1257230  87.9805440   5.9585730
  69.1430110  86.6298750   5.2749980  71.0806780 100.6961220   9.3580740
  71.0376410 100.3254130  10.2395200  71.2117790 101.6338790   9.4982560
  74.7812810 102.2520810   4.9590460  74.5404170 102.5195370   4.0720980
  75.7215450 102.4226540   5.0141320  76.9867230  88.7153500   8.7146970
  76.9256120  89.3075330   9.4642380  77.9267610  88.6079460   8.5697230
  79.6241790  88.3723560   8.3539260  80.2382200  88.6902850   7.6920340
  80.1691350  87.8872150   8.9735120  86.0416970 104.2715190   5.7601100
  85.5475250 104.6684060   5.0428230  85.4330260 103.6464400   6.1538380
  70.1463050  87.0517820   8.4678320  70.6946040  86.8705870   7.7044430
  70.2118360  86.2611930   9.0034630  70.9194810 103.6423470   6.4778520
  70.3255130 103.5108170   7.2168560  70.9118650 102.8061610   6.0120620
  80.3649830  86.9355700   4.6808550  79.4909670  87.2690810   4.4781480
  80.2560580  86.4628880   5.5060420  81.2721810  89.1426570   6.0650270
  80.9435170  88.3278330   5.6852000  82.2204110  89.0996380   5.9415960
  83.7256420 104.9138610   3.0387840  83.2659390 105.6654420   2.6645860
  83.0968880 104.1945080   2.9802640  70.5507040 101.0081850   5.4286560
  69.8241100 100.3887140   5.3612510  70.6116190 101.4022460   4.5584640
  74.1552140 103.2226850   2.2135970  74.6717160 102.6114210   1.6884230
  74.8049520 103.7255630   2.7046980  76.8947640 104.1135340   3.0404950
  77.1825450 103.8589640   2.1637960  77.4070860 103.5612700   3.6310520
  78.1124650  87.8525540   3.6201460  77.3296440  88.3271040   3.8998220
  77.8187580  86.9480370   3.5114640  76.9620000 105.0351440  10.4073150
  77.8887310 104.7995710  10.4509110  76.9470430 105.8623440   9.9259180
  74.1483610  87.6996190  10.1715030  73.8667880  88.2029790   9.4075850
  74.5303310  86.9017940   9.8057160  80.7499070  87.1149770  10.7495500
  80.6364520  87.4344380  11.6447020  81.5668810  87.5162280  10.4532780
  83.5297560 104.2621300  10.2314190  84.3222880 103.7670530  10.0240150
  83.8230710 104.9411440  10.8389800  79.6557220  76.3598750 150.0821650
  79.5751270  75.4453360 149.8113360  79.2421640  76.8565820 149.3761360
  81.8082690  82.5437960 150.7430050  81.3464220  81.7725200 151.0717220
  82.6208240  82.5704030 151.2482500  70.2133040  73.4099470 146.6249070
  69.3249740  73.7515440 146.5228950  70.4974230  73.2099790 145.7329900
  78.0346000  84.8295970 150.3634040  77.4157440  85.2853470 149.7928480
  78.8897780  84.9847430 149.9623740  72.3894430  71.9930970 147.6587450
  72.4961180  72.8934700 147.9656210  71.4786790  71.9448940 147.3682100
  82.0413540  71.1155780 149.1298350  82.8623160  70.6252350 149.1723830
  82.0747620  71.7053440 149.8830190  78.9009350  79.7135210 147.7565950
  78.2826620  80.1784660 147.1928670  79.4132600  80.4062690 148.1735460
  68.2692550  80.3991740 145.1305580  67.8920530  80.8878840 144.3990480
  68.5265620  81.0717020 145.7612110  75.8781480  68.8008130 150.5891090
  76.1856460  68.2455020 149.8726590  74.9482180  68.9352590 150.4064080
  82.7241960  81.2391640 147.9688720  82.6138290  80.2965970 148.0938140
  82.7210210  81.6007280 148.8551480  78.2662240  76.8656960 147.3251210
  77.3391520  76.7994340 147.5539680  78.4187060  77.8037090 147.2106450
  78.2531320  73.1373960 144.3218370  77.3134990  73.2987920 144.4070830
  78.5714580  73.8559640 143.7754360  82.2959530  78.4277260 147.8286460
  81.6771950  78.0896810 147.1812760  82.2783980  77.7837020 148.5365650
  73.8718880  77.3921700 150.1070940  73.4675880  76.6798950 149.6116840
  73.9582000  77.0474940 150.9958980  80.4724230  77.6664070 144.8359210
  80.9117510  76.8286500 144.6897030  81.1852650  78.2993470 144.9223350
  78.5819610  82.6060140 148.8040450  79.0215520  83.3484470 148.3895840
  78.5206500  82.8486710 149.7279410  84.0541370  68.9206880 143.1500250
  83.7414030  69.0133710 144.0499320  84.8153840  69.4987910 143.0997680
  70.5723510  76.2866680 147.6077590  70.4521110  77.0128770 146.9958860
  70.2624400  75.5169590 147.1305500  69.4556510  81.1582010 149.8252410
  69.0484590  81.2996600 148.9706010  70.3469520  80.8742170 149.6223620
  81.2489790  85.5929260 146.1603460  81.0890930  85.3032200 147.0585290
  81.0836500  84.8169390 145.6248690  73.7278170  85.3727790 147.9375080
  73.5520650  84.4563330 147.7242880  72.8733910  85.7315080 148.1772880
  80.9515920  83.1016820 144.7201460  80.2581080  83.0994110 144.0603740
  81.6938780  82.6776140 144.2895630  80.5165850  84.7279530 148.7949950
  80.9722800  83.9468910 149.1088570  80.8558370  85.4386350 149.3391130
  73.0387170  69.6301750 150.9901260  72.5955320  70.4111290 150.6585780
  73.5972160  69.9531640 151.6972200  76.1545990  69.2512450 145.8707090
  75.5300170  69.2472320 146.5960400  76.0676110  68.3843410 145.4743060
  72.8301390  74.7535320 148.7182510  72.6042310  74.5372490 149.6229130
  72.0493920  75.1863780 148.3728480  80.0599150  74.7598690 147.3173160
  79.4608040  75.4834490 147.1336780  80.6078760  74.6975470 146.5349610
  78.6664020  73.3962230 149.3476440  79.0593590  73.7134430 148.5345130
  79.0280870  72.5174110 149.4620960  67.8898420  73.9283150 142.7809360
  67.8073090  74.8713910 142.9224350  67.5381480  73.7858060 141.9021710
  71.5398930  72.5448670 150.8073920  71.1998980  73.0223900 151.5640970
  70.7776250  72.0913790 150.4475020  75.7516700  73.6634260 144.8386470
  75.8729520  73.6220740 145.7872290  75.3665210  74.5258410 144.6833200
  74.7638200  75.9735400 144.2369770  74.1955100  75.5253650 143.6105680
  75.4727200  76.3328180 143.7034920  68.8545010  71.4667650 149.7238590
  68.5691930  71.1023320 150.5617210  68.7923870  70.7348110 149.1101730
  72.3085680  79.9693590 146.5096180  71.5347940  79.4291210 146.3494900
  73.0380310  79.4500200 146.1713940  78.5283600  70.3596910 146.4451960
  77.7148210  69.8610080 146.3697270  78.3345550  71.1995160 146.0288310
  81.2431990  74.7316560 144.7414120  82.1311610  75.0433790 144.5665460
  81.2137080  73.8588810 144.3494700  72.3523080  79.6373970 150.1474990
  72.8701750  78.8342230 150.0931880  71.9007100  79.5753110 150.9891820
  77.2392580  80.9040250 145.4202290  77.5808280  81.6482480 144.9245610
  76.4105290  81.2171370 145.7827120  83.5146260  76.0428400 144.2093980
  83.4309980  76.4742620 143.3590420  84.2340450  76.5026750 144.6420800
  84.5433510  82.8970660 146.9376110  83.9009670  82.2426280 147.2119830
  84.1564170  83.3025750 146.1616780  80.1219990  80.2256090 150.7847800
  80.4743810  79.6284220 150.1249170  79.2382320  79.9000320 150.9556050
  76.2083270  80.9853780 148.1918210  76.8954400  81.5322990 148.5725800
  75.4215690  81.5294510 148.2267820  68.3475670  76.6026600 143.6835290
  69.2170520  76.8851400 143.9671210  67.8565990  77.4162470 143.5684100
  75.5110480  77.9899810 147.8043570  75.9673260  78.8005060 148.0303760
  75.1598690  77.6722950 148.6362060  71.4122260  68.3337460 148.2766090
  71.2836890  68.3255360 149.2251010  70.5884280  68.6720550 147.9257100
  82.9330890  81.7887120 143.4752460  82.7068470  81.0717560 144.0677100
  82.5427090  81.5399560 142.6374210  68.7146920  85.8153980 144.2496920
  69.0744560  86.4143320 143.5954190  68.5739260  86.3613870 145.0231950
  82.5147140  79.7059060 145.1366620  82.2268840  80.1671750 145.9244500
  83.3099310  79.2456830 145.4050840  74.7315540  83.1985180 145.0670590
  74.7225640  83.9314870 144.4515100  73.8113900  82.9516760 145.1597550
  70.3322180  78.4200070 145.8117350  69.7250130  79.1598970 145.8212650
  70.8071530  78.5099430 144.9855550  83.2717000  71.5407830 146.2961800
  82.6430160  71.6453500 145.5820030  82.7768920  71.7604610 147.0855680
  77.7175140  83.2613420 143.7295780  77.8187120  83.0577410 142.7997760
  76.8176880  83.0071700 143.9343560  75.2401030  73.8193780 147.7119680
  74.5317180  74.2880120 148.1533290  75.5245510  73.1615790 148.3464870
  79.2716460  70.5444440 149.1515470  79.1484240  70.5630570 148.2024980
  80.2201020  70.5923380 149.2713870  76.3593250  85.7799740 148.4243450
  76.6134750  85.7421130 147.5022820  75.4105730  85.6533070 148.4171700
  73.4436050  72.1278860 145.0870390  74.2926580  72.5649010 145.0210580
  73.0767320  72.4399120 145.9142450  82.3645830  76.6991620 150.0001960
  81.4235970  76.7141850 150.1749650  82.6789900  75.9127580 150.4462260
  72.3427470  78.3811220 143.5605920  73.1090740  78.2692580 144.1231350
  72.4202160  77.6849190 142.9082690  71.0374230  75.8136290 144.2438810
  71.1177820  74.8663800 144.3556210  71.9293980  76.1443170 144.3499470
  71.8388940  85.9631680 151.3473350  72.5751420  85.4147140 151.6181920
  72.2229860  86.8287690 151.2079340  68.7234420  82.0305250 147.2214860
  67.7974200  82.2726390 147.2120270  69.1890850  82.8579510 147.0999610
  74.9491250  85.1361990 143.1698920  75.7419860  85.4250820 142.7180710
  74.4295600  84.7054160 142.4911400  84.0021420  84.3632120 144.5935660
  83.7162930  83.9497260 143.7789840  83.8040970  85.2919830 144.4736180
  75.4668650  80.3565400 143.0341270  75.3619290  79.7417750 143.7602650
  75.2992870  79.8331290 142.2504280  78.7071380  79.4185430 143.6383260
  78.1581480  79.8654730 144.2826000  79.3290640  78.9134680 144.1620930
  74.3746500  78.3776350 145.5348560  74.7962920  78.2116220 146.3779950
  74.4997340  77.5676580 145.0403700  76.8874140  77.4013960 142.7825660
  77.4079800  76.6862980 142.4166810  77.5342540  78.0399830 143.0826170
  73.2705400  74.4509580 142.4806720  73.0694460  73.5876940 142.8420060
  73.0997450  74.3642940 141.5428320  80.7493710  69.2617810 145.0093600
  81.0296000  68.4185710 145.3653020  79.9759440  69.4940920 145.5232350
  72.0688200  71.5510200 142.4684600  72.3714100  71.5577630 141.5603750
  72.8082790  71.2008060 142.9652260  75.2873130  70.4944820 143.4540800
  74.9395130  69.8168810 142.8743250  75.4885900  70.0334330 144.2684190
  77.4522170  85.4825570 145.0727400  78.3472960  85.8210540 145.0946160
  77.4839800  84.7604980 144.4451680  71.0918330  80.8552620 143.3014400
  71.5293200  81.3982290 143.9571980  71.5766060  80.0299570 143.3110740
  68.3064130  83.6441650 150.7534660  68.6367140  82.7762710 150.5213300
  68.7355130  83.8500170 151.5839620  72.9026050  81.9750660 148.4136630
  72.6021590  81.8515630 149.3140540  72.7963540  81.1159250 148.0052360
  85.6717970  81.7547060 143.1163310  84.8410930  81.8223710 143.5870540
  85.8489800  82.6451180 142.8130170  85.1274430  78.4994540 145.6197510
  85.8893340  79.0691190 145.7257200  85.1428800  77.9321740 146.3905820
  68.6278770  77.0232470 149.8505170  67.9727610  76.7544110 149.2064870
  69.4656720  76.9136950 149.4007150  86.1334400  79.3544640 150.4639440
  86.5043230  78.5711960 150.0575410  86.7736330  80.0433740 150.2856740
  85.1793600  78.7928910 142.7770030  85.4542440  79.7007790 142.6489250
  84.9904340  78.7291440 143.7132020  81.5769210  71.8173760 144.0723660
  81.9954090  71.6304740 143.2320320  81.2705270  70.9652810 144.3826590
  85.0758940  76.7297900 147.7699460  84.7002540  75.9625830 147.3380750
  84.3462060  77.1120600 148.2574390  67.8416850  74.2331400 145.7930500
  66.9380930  74.4961600 145.6182160  68.3257470  74.5042570 145.0130460
  70.3844060  73.2896940 143.7024880  71.0935760  72.8680160 143.2172160
  69.6684000  73.3572170 143.0708230  70.0318220  69.3436270 142.7427530
  70.7546350  69.8845210 143.0608750  70.3042740  69.0699690 141.8669070
  83.8409870  74.2128740 147.0099110  84.3368990  73.9799610 147.7947990
  83.6425940  73.3740580 146.5936750  85.2697030  72.8489690 149.5436790
  85.1596310  72.6945730 150.4819060  86.0304620  72.3210630 149.3012200
  86.1587300  70.6797610 142.7842930  87.0836610  70.5478790 142.5761220
  86.1363090  70.7590430 143.7379380  86.2325790  71.4508270 145.4099640
  85.4377290  71.3853390 145.9392550  86.4369070  72.3858910 145.3984990
  83.1744210  85.4899820 149.4038030  83.7703280  85.1684390 148.7272450
  83.4322360  85.0171640 150.1951300  84.5284290  69.4120390 149.8707290
  84.4672690  68.4681610 149.7238310  85.3076320  69.5200480 150.4160750
  68.8337040  85.5512750 148.8331240  68.6659080  84.9183430 149.5313130
  67.9671550  85.7572150 148.4825430  69.4565060  69.3829530 146.3363100
  70.2144420  69.4958410 145.7627130  68.9942230  70.2198730 146.2906530
  75.9978870  71.4968800 149.3265410  75.1853380  71.1225690 148.9861290
  76.5020510  70.7413880 149.6286600  80.5003850  68.1611250 150.5648480
  81.1033220  68.7331460 151.0397000  79.7596840  68.7250690 150.3422380
  83.6438450  68.5632810 145.8388760  83.8389080  69.4616260 146.1056190
  82.8568320  68.3319890 146.3321710  70.4399740  84.2445980 146.2781380
  69.9147360  84.6254010 145.5743340  70.3644320  84.8696750 146.9991090
  71.8290210  69.9093580 144.8765070  72.3582970  69.1223380 144.7473020
  72.4618530  70.5884770 145.1100600  74.0228050  69.6468720 147.9310460
  73.3930790  68.9456030 148.0980590  73.4833190  70.4072850 147.7143620
  85.1965060  85.8033520 147.5995320  85.3717250  85.1171260 146.9556240
  84.4986630  86.3280570 147.2071990  73.0392710  86.1928360 145.1530630
  73.7711530  85.9087640 144.6054520  73.2986380  85.9541640 146.0430010
  72.2007500  82.3093090 145.1576960  71.5716380  82.7778190 145.7062790
  72.3155330  81.4642310 145.5923150  77.7875260  78.1377770 133.1887430
  77.0117360  77.6578210 133.4786000  78.4388190  77.4583420 133.0143590
  71.7842350  82.4837670 134.2621210  72.0870390  81.5935410 134.0831430
  72.5285940  83.0407890 134.0343460  70.2133040  73.4099470 127.8505580
  69.3249740  73.7515440 127.7485460  70.4974230  73.2099790 126.9586410
  77.2284250  80.8134960 133.1957590  77.1592530  79.8724900 133.0346720
  77.9904110  80.9036370 133.7680160  86.3313090  73.1322530 136.9198490
  85.6265260  73.5204240 136.4013600  86.5971010  73.8272820 137.5219420
  72.9760210  81.2091880 137.4755240  73.5934210  81.8842960 137.1939690
  72.1153330  81.6179860 137.3842740  68.2692550  80.3991740 126.3562090
  67.8920530  80.8878840 125.6246990  68.5265620  81.0717020 126.9868620
  83.8937800  82.6731290 135.3909880  83.2101320  83.3430400 135.3826550
  84.4332090  82.8711940 134.6254740  81.4296540  84.5175420 134.1055060
  81.4423700  84.1137710 133.2377320  80.8771760  85.2922710 134.0016490
  80.8281980  79.4205260 135.4337670  81.2450770  79.2065370 134.5991130
  81.5521800  79.6778050 136.0046290  78.2662240  76.8656960 128.5507720
  77.3391520  76.7994340 128.7796190  78.4187060  77.8037090 128.4362960
  78.2531320  73.1373960 125.5474880  77.3134990  73.2987920 125.6327340
  78.5714580  73.8559640 125.0010870  84.7744080  77.8192480 135.5253910
  83.9462710  77.8885570 135.0504040  85.3694560  78.4046790 135.0569740
  74.3400580  81.0789260 133.4966660  74.0428870  80.4734730 132.8174440
  75.2900400  81.1166570 133.3856020  82.4286190  84.6521130 137.1589760
  81.9516750  85.4593320 136.9662370  81.7447980  83.9999460 137.3115970
  73.4319010  80.8170950 140.1474460  72.5347540  81.0410920 140.3947860
  73.4571880  80.9405890 139.1985860  80.4724230  77.6664070 126.0615720
  80.9117510  76.8286500 125.9153540  81.1852650  78.2993470 126.1479860
  72.2590230  77.6884270 138.7231830  72.1198000  78.5607070 139.0919230
  71.3771590  77.3457080 138.5779770  74.0570580  83.6305970 140.9316980
  74.0286010  84.0348920 140.0645410  73.8935550  82.7016330 140.7688580
  70.5723510  76.2866680 128.8334100  70.4521110  77.0128770 128.2215370
  70.2624400  75.5169590 128.3562010  86.0085400  84.4133070 142.2281150
  86.4845120  84.8915960 142.9070230  86.6292560  84.3450560 141.5026650
  68.2108880  79.4581820 134.6402740  68.2889300  79.5930590 133.6958460
  68.8250560  78.7497710 134.8330860  69.4556510  81.1582010 131.0508920
  69.0484590  81.2996600 130.1962520  70.3469520  80.8742170 130.8480130
  85.4118650  81.6045920 139.3881160  85.5381710  81.3657800 138.4698340
  85.4540030  80.7730460 139.8603240  79.2735390  85.3073920 137.9575970
  79.7880060  85.2181930 138.7598400  78.4304470  85.6533620 138.2503880
  85.2642660  73.6578380 140.3530900  84.6486930  74.1658050 139.8246360
  84.9439080  72.7576710 140.2956840  68.2668400  80.4995990 137.1797200
  68.4299440  80.0301350 136.3616570  68.7320850  79.9919550 137.8446040
  77.3256980  72.4970270 137.8193090  76.8636350  72.7053290 138.6313030
  76.9235090  71.6829620 137.5163760  82.3261490  73.7179220 138.9489750
  81.4755080  73.4184970 139.2698820  82.1663280  73.9621230 138.0373570
  79.4211200  75.2180970 141.0488540  79.7464610  74.3844720 140.7090770
  80.2091530  75.7409490 141.1966870  80.0599150  74.7598690 128.5429670
  79.4608040  75.4834490 128.3593290  80.6078760  74.6975470 127.7606120
  75.2700600  75.6520900 140.6099290  75.1744200  74.7115630 140.4599690
  76.1132580  75.8735970 140.2147360  78.6664020  73.3962230 130.5732950
  79.0593590  73.7134430 129.7601640  79.0280870  72.5174110 130.6877470
  76.9756190  72.1469540 141.8329810  76.2854510  71.9541740 142.4675900
  77.7188490  72.4304180 142.3654110  75.7516700  73.6634260 126.0642980
  75.8729520  73.6220740 127.0128800  75.3665210  74.5258410 125.9089710
  79.7145070  71.4401660 134.0806670  79.7317810  71.8910310 134.9248520
  79.4660650  70.5407300 134.2940110  83.1415820  68.8533840 139.9193050
  83.4661590  68.1223500 140.4451030  83.1772330  68.5347480 139.0174040
  69.8407380  79.8747420 139.3393010  69.4562170  79.2341090 139.9375970
  70.1519570  80.5783540 139.9087740  78.4492460  79.0368010 139.4148080
  78.3829770  78.1163680 139.1605670  77.8197600  79.1343450 140.1292720
  81.2431990  74.7316560 125.9670630  82.1311610  75.0433790 125.7921970
  81.2137080  73.8588810 125.5751210  72.3523080  79.6373970 131.3731500
  72.8701750  78.8342230 131.3188390  71.9007100  79.5753110 132.2148330
  69.8367620  76.6035340 138.2857200  69.4782560  77.2689190 138.8730540
  69.5422180  75.7718890 138.6569820  73.0380740  77.0619580 141.1696750
  72.7380880  77.2076760 140.2724570  73.8091980  76.5024870 141.0770140
  78.3809190  81.8588580 139.1651880  78.3953730  80.9269540 138.9470790
  77.6734290  81.9448340 139.8041650  84.5920400  78.4995920 138.5120460
  83.8668590  79.0924700 138.3149850  85.1195860  78.4919460 137.7133830
  77.8143090  83.5006150 136.2592380  78.4585310  83.7065530 136.9365800
  78.1772530  82.7394550 135.8063230  79.0875170  81.5038500 134.9769830
  79.7297400  80.8031660 135.0902000  79.6124520  82.2836940 134.7966720
  80.8612790  82.3033400 138.1805890  81.1969030  82.8900090 138.8583810
  79.9413130  82.1726110 138.4103680  68.4116190  70.0928580 138.9629300
  67.6974710  70.2925500 139.5681910  68.8311230  69.3168150 139.3344100
  68.6988780  84.0808840 139.9495830  68.8079900  83.1403580 139.8091220
  68.0469340  84.3463590 139.3009560  76.6901370  82.3524730 141.3493950
  76.3698240  81.6333970 141.8939640  76.0159730  83.0279800 141.4230010
  70.3322180  78.4200070 127.0373860  69.7250130  79.1598970 127.0469160
  70.8071530  78.5099430 126.2112060  79.9054970  72.5850890 136.7130750
  80.2735790  71.7646100 137.0410320  79.0453170  72.6452780 137.1286400
  76.8656960  75.2390480 136.9368720  77.3642210  75.7136300 137.6020570
  77.0079910  74.3154000 137.1438750  73.4436050  72.1278860 126.3126900
  74.2926580  72.5649010 126.2467090  73.0767320  72.4399120 127.1398960
  84.0723820  71.4558440 137.7797110  83.5697420  72.1963840 138.1190920
  84.8880480  71.8442440 137.4633900  72.3427470  78.3811220 124.7862430
  73.1090740  78.2692580 125.3487860  72.4202160  77.6849190 124.1339200
  71.0374230  75.8136290 125.4695320  71.1177820  74.8663800 125.5812720
  71.9293980  76.1443170 125.5755980  84.3671410  83.8700470 132.9012730
  84.4918830  84.6931640 133.3736540  85.2336970  83.6591200 132.5536880
  71.8388940  85.9631680 132.5729860  72.5751420  85.4147140 132.8438430
  72.2229860  86.8287690 132.4335850  68.7234420  82.0305250 128.4471370
  67.7974200  82.2726390 128.4376780  69.1890850  82.8579510 128.3256120
  70.8447220  85.1477750 141.7615440  71.6459950  85.4689800 142.1750840
  70.3299040  84.7873330 142.4835350  79.6811850  81.2557620 141.7090850
  79.0750010  81.2789220 140.9686600  79.3765960  80.5240660 142.2458100
  81.1112220  84.9837910 140.3200260  82.0633970  84.8995930 140.2700500
  80.9640440  85.6479620 140.9934050  68.5645030  77.6351210 140.7051490
  69.0684050  77.0558490 141.2767720  67.8252450  77.9191440 141.2427860
  75.6182970  79.0422200 140.2387010  74.8528640  79.6107200 140.1541680
  75.7998930  78.7498410 139.3455240  82.7606320  80.7727530 140.7962030
  83.5015790  81.1103290 140.2929490  81.9979000  80.9419590 140.2431800
  70.5968110  75.7780800 141.6001560  70.6373450  75.4794670 142.5086790
  71.4513610  76.1788410 141.4409080  72.5373920  74.3572900 139.5676050
  72.0070380  73.8663850 138.9399390  73.2061990  74.7857100 139.0333980
  81.4351980  78.8242360 139.3317240  81.8493000  78.9787440 140.1807660
  80.5002980  78.9497580 139.4943020  81.9074150  76.1638520 141.3356390
  82.4894920  75.4090840 141.2476870  82.0835920  76.6945960 140.5587870
  76.1967210  78.7762840 137.3013170  76.6155320  79.6195570 137.1289410
  75.2775840  78.9134880 137.0719950  78.5331110  76.5079020 138.6851010
  78.6527320  75.9120160 139.4245850  79.3925110  76.5448710 138.2652310
  80.8719010  77.0616210 137.2613520  80.3454230  77.5858830 136.6578660
  81.2150350  77.6943600 137.8923250  73.2705400  74.4509580 123.7063230
  73.0694460  73.5876940 124.0676570  73.0997450  74.3642940 122.7684830
  74.0474630  85.0815850 138.4170900  73.5095720  85.8061910 138.0979600
  74.3008590  84.6046190 137.6268240  80.1193310  72.6666180 140.1759850
  79.4308830  72.0047720 140.1109840  80.8399330  72.2204450 140.6208310
  76.9036840  86.3167060 138.6757550  76.8295540  87.2202200 138.9829920
  76.0015680  85.9978960 138.6479620  75.2873130  70.4944820 124.6797310
  74.9395130  69.8168810 124.0999760  75.4885900  70.0334330 125.4940700
  71.0918330  80.8552620 124.5270910  71.5293200  81.3982290 125.1828490
  71.5766060  80.0299570 124.5367250  68.3064130  83.6441650 131.9791170
  68.6367140  82.7762710 131.7469810  68.7355130  83.8500170 132.8096130
  68.7954340  84.5112240 134.7172800  68.3585330  84.6913040 135.5496950
  69.3632020  85.2686860 134.5754520  84.4316520  84.0129240 139.0050110
  83.8318510  84.0721800 138.2614030  84.5610420  83.0734220 139.1346960
  68.6278770  77.0232470 131.0761680  67.9727610  76.7544110 130.4321380
  69.4656720  76.9136950 130.6263660  83.1168160  80.7381220 137.1026270
  82.3028000  81.1678380 137.3652060  83.5242360  81.3499630 136.4895320
  84.4658560  75.8769420 138.6295490  84.2344650  75.6482170 137.7293440
  84.7263110  76.7968970 138.5840380  69.2170700  74.3194130 139.5223440
  68.3226750  74.2860890 139.8617150  69.7568250  74.5180920 140.2874690
  82.9046630  71.1025850 141.4075190  83.7816810  71.1109250 141.7909190
  82.9167470  70.3656690 140.7967540  83.6162750  68.7883820 137.2276300
  84.2534970  69.4017960 137.5935490  83.7637640  68.8244480 136.2825530
  71.0806780  81.9217730 140.7785170  71.0376410  81.5510640 141.6599630
  71.2117790  82.8595300 140.9186990  74.7812810  83.4777320 136.3794890
  74.5404170  83.7451880 135.4925410  75.7215450  83.6483050 136.4345750
  76.9867230  69.9410010 140.1351400  76.9256120  70.5331840 140.8846810
  77.9267610  69.8335970 139.9901660  79.6241790  69.5980070 139.7743690
  80.2382200  69.9159360 139.1124770  80.1691350  69.1128660 140.3939550
  86.0416970  85.4971700 137.1805530  85.5475250  85.8940570 136.4632660
  85.4330260  84.8720910 137.5742810  70.9194810  84.8679980 137.8982950
  70.3255130  84.7364680 138.6372990  70.9118650  84.0318120 137.4325050
  80.3649830  68.1612210 136.1012980  79.4909670  68.4947320 135.8985910
  80.2560580  67.6885390 136.9264850  81.2721810  70.3683080 137.4854700
  80.9435170  69.5534840 137.1056430  82.2204110  70.3252890 137.3620390
  83.7256420  86.1395120 134.4592270  83.2659390  86.8910930 134.0850290
  83.0968880  85.4201590 134.4007070  70.5507040  82.2338360 136.8490990
  69.8241100  81.6143650 136.7816940  70.6116190  82.6278970 135.9789070
  74.1552140  84.4483360 133.6340400  74.6717160  83.8370720 133.1088660
  74.8049520  84.9512140 134.1251410  76.8947640  85.3391850 134.4609380
  77.1825450  85.0846150 133.5842390  77.4070860  84.7869210 135.0514950
  68.8337040  85.5512750 130.0587750  68.6659080  84.9183430 130.7569640
  67.9671550  85.7572150 129.7081940  80.5003850  68.1611250 131.7904990
  81.1033220  68.7331460 132.2653510  79.7596840  68.7250690 131.5678890
  71.8290210  69.9093580 126.1021580  72.3582970  69.1223380 125.9729530
  72.4618530  70.5884770 126.3357110  76.9620000  86.2607950 141.8277580
  77.8887310  86.0252220 141.8713540  76.9470430  87.0879950 141.3463610
  85.1965060  85.8033520 128.8251830  85.3717250  85.1171260 128.1812750
  84.4986630  86.3280570 128.4328500  74.1483610  68.9252700 141.5919460
  73.8667880  69.4286300 140.8280280  74.5303310  68.1274450 141.2261590
  80.7499070  68.3406280 142.1699930  80.6364520  68.6600890 143.0651450
  81.5668810  68.7418790 141.8737210  83.5297560  85.4877810 141.6518620
  84.3222880  84.9927040 141.4444580  83.8230710  86.1667950 142.2594230
  77.7875260  78.1377770 114.4143940  77.0117360  77.6578210 114.7042510
  78.4388190  77.4583420 114.2400100  71.8041090  78.4497580 115.2919700
  70.9725970  78.1946290 115.6916210  72.4122070  78.5208350 116.0277620
  81.8082690  82.5437960 113.1943070  81.3464220  81.7725200 113.5230240
  82.6208240  82.5704030 113.6995520  71.7842350  82.4837670 115.4877720
  72.0870390  81.5935410 115.3087940  72.5285940  83.0407890 115.2599970
  78.0346000  84.8295970 112.8147060  77.4157440  85.2853470 112.2441500
  78.8897780  84.9847430 112.4136760  77.2284250  80.8134960 114.4214100
  77.1592530  79.8724900 114.2603230  77.9904110  80.9036370 114.9936670
  86.3313090  73.1322530 118.1455000  85.6265260  73.5204240 117.6270110
  86.5971010  73.8272820 118.7475930  72.5138260  69.6015900 118.7089070
  72.5156700  70.1188290 117.9034970  71.6842570  69.1246080 118.6859000
  73.7641110  79.2411080 116.8862570  73.4310490  79.8680000 117.5283640
  73.9407790  79.7672960 116.1064240  82.2775020  73.0556160 114.3538910
  81.5730590  73.3441050 114.9342020  82.6387180  73.8656270 113.9938470
  72.9760210  81.2091880 118.7011750  73.5934210  81.8842960 118.4196200
  72.1153330  81.6179860 118.6099250  83.8937800  82.6731290 116.6166390
  83.2101320  83.3430400 116.6083060  84.4332090  82.8711940 115.8511250
  85.3461940  72.5010950 114.7448120  84.3986850  72.5349930 114.8763550
  85.6711930  73.3149900 115.1297480  81.4296540  84.5175420 115.3311570
  81.4423700  84.1137710 114.4633830  80.8771760  85.2922710 115.2273000
  82.7241960  81.2391640 110.4201740  82.6138290  80.2965970 110.5451160
  82.7210210  81.6007280 111.3064500  80.8281980  79.4205260 116.6594180
  81.2450770  79.2065370 115.8247640  81.5521800  79.6778050 117.2302800
  84.7744080  77.8192480 116.7510420  83.9462710  77.8885570 116.2760550
  85.3694560  78.4046790 116.2826250  81.7386090  74.6061800 117.6965290
  81.3257270  75.4315510 117.9505280  81.0062040  74.0206840 117.5041650
  74.3400580  81.0789260 114.7223170  74.0428870  80.4734730 114.0430950
  75.2900400  81.1166570 114.6112530  82.4286190  84.6521130 118.3846270
  81.9516750  85.4593320 118.1918880  81.7447980  83.9999460 118.5372480
  72.2590230  77.6884270 119.9488340  72.1198000  78.5607070 120.3175740
  71.3771590  77.3457080 119.8036280  78.5819610  82.6060140 111.2553470
  79.0215520  83.3484470 110.8408860  78.5206500  82.8486710 112.1792430
  86.0085400  84.4133070 123.4537660  86.4845120  84.8915960 124.1326740
  86.6292560  84.3450560 122.7283160  68.2108880  79.4581820 115.8659250
  68.2889300  79.5930590 114.9214970  68.8250560  78.7497710 116.0587370
  69.4556510  81.1582010 112.2765430  69.0484590  81.2996600 111.4219030
  70.3469520  80.8742170 112.0736640  85.4118650  81.6045920 120.6137670
  85.5381710  81.3657800 119.6954850  85.4540030  80.7730460 121.0859750
  79.2735390  85.3073920 119.1832480  79.7880060  85.2181930 119.9854910
  78.4304470  85.6533620 119.4760390  80.5165850  84.7279530 111.2462970
  80.9722800  83.9468910 111.5601590  80.8558370  85.4386350 111.7904150
  68.2668400  80.4995990 118.4053710  68.4299440  80.0301350 117.5873080
  68.7320850  79.9919550 119.0702550  77.3256980  72.4970270 119.0449600
  76.8636350  72.7053290 119.8569540  76.9235090  71.6829620 118.7420270
  82.3261490  73.7179220 120.1746260  81.4755080  73.4184970 120.4955330
  82.1663280  73.9621230 119.2630080  79.4211200  75.2180970 122.2745050
  79.7464610  74.3844720 121.9347280  80.2091530  75.7409490 122.4223380
  75.0763070  70.1749080 115.3003880  75.3735400  71.0811910 115.2195900
  75.6248630  69.6867860 114.6863450  75.2700600  75.6520900 121.8355800
  75.1744200  74.7115630 121.6856200  76.1132580  75.8735970 121.4403870
  70.4011140  72.0634570 119.9889580  70.0074530  72.9109780 120.1962360
  69.7129540  71.4260940 120.1798220  76.9756190  72.1469540 123.0586320
  76.2854510  71.9541740 123.6932410  77.7188490  72.4304180 123.5910620
  79.2519160  75.9867980 115.8940240  78.5200280  76.4954790 116.2430340
  78.8543500  75.1697960 115.5929020  79.7145070  71.4401660 115.3063180
  79.7317810  71.8910310 116.1505030  79.4660650  70.5407300 115.5196620
  69.8407380  79.8747420 120.5649520  69.4562170  79.2341090 121.1632480
  70.1519570  80.5783540 121.1344250  75.9904520  76.7223960 116.0458140
  76.3574650  76.2482530 116.7919480  75.8009580  77.5965530 116.3866480
  73.7803890  75.7632600 118.3642350  73.4760960  76.6424580 118.5892710
  74.7350350  75.8232390 118.3999790  83.0673660  78.9658950 114.7535590
  83.7872780  79.4614240 114.3631700  82.8655480  78.2876840 114.1089460
  72.3523080  79.6373970 112.5988010  72.8701750  78.8342230 112.5444900
  71.9007100  79.5753110 113.4404840  69.8367620  76.6035340 119.5113710
  69.4782560  77.2689190 120.0987050  69.5422180  75.7718890 119.8826330
  73.0380740  77.0619580 122.3953260  72.7380880  77.2076760 121.4981080
  73.8091980  76.5024870 122.3026650  80.1219990  80.2256090 113.2360820
  80.4743810  79.6284220 112.5762190  79.2382320  79.9000320 113.4069070
  76.2083270  80.9853780 110.6431230  76.8954400  81.5322990 111.0238820
  75.4215690  81.5294510 110.6780840  77.8143090  83.5006150 117.4848890
  78.4585310  83.7065530 118.1622310  78.1772530  82.7394550 117.0319740
  79.0875170  81.5038500 116.2026340  79.7297400  80.8031660 116.3158510
  79.6124520  82.2836940 116.0223230  79.9054970  72.5850890 117.9387260
  80.2735790  71.7646100 118.2666830  79.0453170  72.6452780 118.3542910
  76.8656960  75.2390480 118.1625230  77.3642210  75.7136300 118.8277080
  77.0079910  74.3154000 118.3695260  84.3671410  83.8700470 114.1269240
  84.4918830  84.6931640 114.5993050  85.2336970  83.6591200 113.7793390
  71.8388940  85.9631680 113.7986370  72.5751420  85.4147140 114.0694940
  72.2229860  86.8287690 113.6592360  70.5968110  75.7780800 122.8258070
  70.6373450  75.4794670 123.7343300  71.4513610  76.1788410 122.6665590
  72.5373920  74.3572900 120.7932560  72.0070380  73.8663850 120.1655900
  73.2061990  74.7857100 120.2590490  73.0246220  71.3235270 120.8729850
  72.9303090  70.7056020 120.1480720  72.4443610  72.0501560 120.6459760
  75.7907660  69.8808510 117.9057240  75.3424960  69.9032770 117.0602790
  75.1572860  69.4827530 118.5027540  76.1967210  78.7762840 118.5269680
  76.6155320  79.6195570 118.3545920  75.2775840  78.9134880 118.2976460
  78.5331110  76.5079020 119.9107520  78.6527320  75.9120160 120.6502360
  79.3925110  76.5448710 119.4908820  80.8719010  77.0616210 118.4870030
  80.3454230  77.5858830 117.8835170  81.2150350  77.6943600 119.1179760
  74.0474630  85.0815850 119.6427410  73.5095720  85.8061910 119.3236110
  74.3008590  84.6046190 118.8524750  75.2999880  73.0500370 121.1683340
  75.8899570  72.7416220 121.8561160  74.4820120  72.5780120 121.3243240
  80.1193310  72.6666180 121.4016360  79.4308830  72.0047720 121.3366350
  80.8399330  72.2204450 121.8464820  76.9036840  86.3167060 119.9014060
  76.8295540  87.2202200 120.2086430  76.0015680  85.9978960 119.8736130
  68.3064130  83.6441650 113.2047680  68.6367140  82.7762710 112.9726320
  68.7355130  83.8500170 114.0352640  86.1334400  79.3544640 112.9152460
  86.5043230  78.5711960 112.5088430  86.7736330  80.0433740 112.7369760
  85.0758940  76.7297900 110.2212480  84.7002540  75.9625830 109.7893770
  84.3462060  77.1120600 110.7087410  69.6654700  77.4085040 116.8421530
  70.0327740  77.3212440 117.7217550  69.0965520  76.6451590 116.7428390
  69.2170700  74.3194130 120.7479950  68.3226750  74.2860890 121.0873660
  69.7568250  74.5180920 121.5131200  84.3509900  74.9555390 113.5219720
  84.8747380  74.4618040 112.8909890  84.9369320  75.0905750 114.2667290
  84.5299620  75.0395260 117.0439270  83.5802330  75.0058800 117.1584260
  84.7112630  75.9495370 116.8089040  85.2697030  72.8489690 111.9949810
  85.1596310  72.6945730 112.9332080  86.0304620  72.3210630 111.7525220
  83.6162750  68.7883820 118.4532810  84.2534970  69.4017960 118.8192000
  83.7637640  68.8244480 117.5082040  83.1744210  85.4899820 111.8551050
  83.7703280  85.1684390 111.1785470  83.4322360  85.0171640 112.6464320
  71.0806780  81.9217730 122.0041680  71.0376410  81.5510640 122.8856140
  71.2117790  82.8595300 122.1443500  74.7812810  83.4777320 117.6051400
  74.5404170  83.7451880 116.7181920  75.7215450  83.6483050 117.6602260
  76.9867230  69.9410010 121.3607910  76.9256120  70.5331840 122.1103320
  77.9267610  69.8335970 121.2158170  86.0416970  85.4971700 118.4062040
  85.5475250  85.8940570 117.6889170  85.4330260  84.8720910 118.7999320
  80.3649830  68.1612210 117.3269490  79.4909670  68.4947320 117.1242420
  80.2560580  67.6885390 118.1521360  81.2721810  70.3683080 118.7111210
  80.9435170  69.5534840 118.3312940  82.2204110  70.3252890 118.5876900
  83.7256420  86.1395120 115.6848780  83.2659390  86.8910930 115.3106800
  83.0968880  85.4201590 115.6263580  70.5507040  82.2338360 118.0747500
  69.8241100  81.6143650 118.0073450  70.6116190  82.6278970 117.2045580
  74.1552140  84.4483360 114.8596910  74.6717160  83.8370720 114.3345170
  74.8049520  84.9512140 115.3507920  76.8947640  85.3391850 115.6865890
  77.1825450  85.0846150 114.8098900  77.4070860  84.7869210 116.2771460
  78.1124650  69.0782050 116.2662400  77.3296440  69.5527550 116.5459160
  77.8187580  68.1736880 116.1575580  82.6645720  69.7805150 114.3111490
  83.1053810  69.7250250 113.4633090  82.3953310  70.6963160 114.3821670
  84.5284290  69.4120390 112.3220310  84.4672690  68.4681610 112.1751330
  85.3076320  69.5200480 112.8673770  68.8337040  85.5512750 111.2844260
  68.6659080  84.9183430 111.9826150  67.9671550  85.7572150 110.9338450
  76.9620000  86.2607950 123.0534090  77.8887310  86.0252220 123.0970050
  76.9470430  87.0879950 122.5720120  74.1483610  68.9252700 122.8175970
  73.8667880  69.4286300 122.0536790  74.5303310  68.1274450 122.4518100
  79.6557220  76.3598750  74.9847690  79.5751270  75.4453360  74.7139400
  79.2421640  76.8565820  74.2787400  77.7875260  78.1377770  76.8656960
  77.0117360  77.6578210  77.1555530  78.4388190  77.4583420  76.6913120
  71.8041090  78.4497580  77.7432720  70.9725970  78.1946290  78.1429230
  72.4122070  78.5208350  78.4790640  68.1766050  76.0105120  77.4114810
  68.7482160  75.2427320  77.4118450  68.1767590  76.3093880  76.5021420
  69.4190920  71.4189480  79.1983740  69.2393760  70.5215230  79.4786500
  69.0171000  71.9661350  79.8730690  78.2589420  73.6205340  77.0996050
  78.6354240  72.7477220  76.9869720  78.1608930  73.9564040  76.2086490
  70.0377590  73.9149980  77.8066080  70.7187700  74.1788350  78.4253480
  69.7225640  73.0750850  78.1404090  74.2302160  74.9617340  76.8938670
  74.7380380  75.4598310  77.5343690  74.7615400  74.1852540  76.7178030
  72.5138260  69.6015900  81.1602090  72.5156700  70.1188290  80.3547990
  71.6842570  69.1246080  81.1372020  73.7641110  79.2411080  79.3375590
  73.4310490  79.8680000  79.9796660  73.9407790  79.7672960  78.5577260
  72.1953590  71.3125860  79.1672540  72.5370400  72.1567910  78.8726410
  71.2569400  71.4609600  79.2837880  78.2662240  76.8656960  72.2277250
  77.3391520  76.7994340  72.4565720  78.4187060  77.8037090  72.1132490
  73.8718880  77.3921700  75.0096980  73.4675880  76.6798950  74.5142880
  73.9582000  77.0474940  75.8985020  74.3400580  81.0789260  77.1736190
  74.0428870  80.4734730  76.4943970  75.2900400  81.1166570  77.0625550
  72.5847500  74.1664910  78.7896020  73.1362090  74.2760250  78.0149270
  73.0991010  74.5402510  79.5051250  68.2108880  79.4581820  78.3172270
  68.2889300  79.5930590  77.3727990  68.8250560  78.7497710  78.5100390
  69.4556510  81.1582010  74.7278450  69.0484590  81.2996600  73.8732050
  70.3469520  80.8742170  74.5249660  68.2668400  80.4995990  80.8566730
  68.4299440  80.0301350  80.0386100  68.7320850  79.9919550  81.5215570
  77.3256980  72.4970270  81.4962620  76.8636350  72.7053290  82.3082560
  76.9235090  71.6829620  81.1933290  79.4211200  75.2180970  84.7258070
  79.7464610  74.3844720  84.3860300  80.2091530  75.7409490  84.8736400
  72.8301390  74.7535320  73.6208550  72.6042310  74.5372490  74.5255170
  72.0493920  75.1863780  73.2754520  80.0599150  74.7598690  72.2199200
  79.4608040  75.4834490  72.0362820  80.6078760  74.6975470  71.4375650
  75.2700600  75.6520900  84.2868820  75.1744200  74.7115630  84.1369220
  76.1132580  75.8735970  83.8916890  78.6664020  73.3962230  74.2502480
  79.0593590  73.7134430  73.4371170  79.0280870  72.5174110  74.3647000
  70.4011140  72.0634570  82.4402600  70.0074530  72.9109780  82.6475380
  69.7129540  71.4260940  82.6311240  76.9756190  72.1469540  85.5099340
  76.2854510  71.9541740  86.1445430  77.7188490  72.4304180  86.0423640
  67.7028190  69.9863030  76.4732680  67.4141240  70.5565890  77.1857660
  68.4473950  69.5067480  76.8363910  79.2519160  75.9867980  78.3453260
  78.5200280  76.4954790  78.6943360  78.8543500  75.1697960  78.0442040
  75.6896550  72.6622180  76.7505750  75.6932610  72.2212130  75.9010290
  76.5847670  72.9839510  76.8577570  71.5398930  72.5448670  75.7099960
  71.1998980  73.0223900  76.4667010  70.7776250  72.0913790  75.3501060
  75.9904520  76.7223960  78.4971160  76.3574650  76.2482530  79.2432500
  75.8009580  77.5965530  78.8379500  73.7803890  75.7632600  80.8155370
  73.4760960  76.6424580  81.0405730  74.7350350  75.8232390  80.8512810
  72.3085680  79.9693590  71.4122220  71.5347940  79.4291210  71.2520940
  73.0380310  79.4500200  71.0739980  78.5283600  70.3596910  71.3478000
  77.7148210  69.8610080  71.2723310  78.3345550  71.1995160  70.9314350
  72.3523080  79.6373970  75.0501030  72.8701750  78.8342230  74.9957920
  71.9007100  79.5753110  75.8917860  77.2392580  80.9040250  70.3228330
  77.5808280  81.6482480  69.8271650  76.4105290  81.2171370  70.6853160
  76.2083270  80.9853780  73.0944250  76.8954400  81.5322990  73.4751840
  75.4215690  81.5294510  73.1293860  75.5110480  77.9899810  72.7069610
  75.9673260  78.8005060  72.9329800  75.1598690  77.6722950  73.5388100
  83.2717000  71.5407830  71.1987840  82.6430160  71.6453500  70.4846070
  82.7768920  71.7604610  71.9881720  76.8656960  75.2390480  80.6138250
  77.3642210  75.7136300  81.2790100  77.0079910  74.3154000  80.8208280
  72.5373920  74.3572900  83.2445580  72.0070380  73.8663850  82.6168920
  73.2061990  74.7857100  82.7103510  81.4351980  78.8242360  83.0086770
  81.8493000  78.9787440  83.8577190  80.5002980  78.9497580  83.1712550
  73.0246220  71.3235270  83.3242870  72.9303090  70.7056020  82.5993740
  72.4443610  72.0501560  83.0972780  76.1967210  78.7762840  80.9782700
  76.6155320  79.6195570  80.8058940  75.2775840  78.9134880  80.7489480
  78.5331110  76.5079020  82.3620540  78.6527320  75.9120160  83.1015380
  79.3925110  76.5448710  81.9421840  80.8719010  77.0616210  80.9383050
  80.3454230  77.5858830  80.3348190  81.2150350  77.6943600  81.5692780
  75.2999880  73.0500370  83.6196360  75.8899570  72.7416220  84.3074180
  74.4820120  72.5780120  83.7756260  72.9026050  81.9750660  73.3162670
  72.6021590  81.8515630  74.2166580  72.7963540  81.1159250  72.9078400
  68.6278770  77.0232470  74.7531210  67.9727610  76.7544110  74.1090910
  69.4656720  76.9136950  74.3033190  69.6654700  77.4085040  79.2934550
  70.0327740  77.3212440  80.1730570  69.0965520  76.6451590  79.1941410
  69.2170700  74.3194130  83.1992970  68.3226750  74.2860890  83.5386680
  69.7568250  74.5180920  83.9644220  83.8409870  74.2128740  71.9125150
  84.3368990  73.9799610  72.6974030  83.6425940  73.3740580  71.4962790
  76.9867230  69.9410010  83.8120930  76.9256120  70.5331840  84.5616340
  77.9267610  69.8335970  83.6671190  85.6717970  81.7547060  49.2445860
  84.8410930  81.8223710  49.7153090  85.8489800  82.6451180  48.9412720
  85.1965060  85.8033520  53.7277870  85.3717250  85.1171260  53.0838790
  84.4986630  86.3280570  53.3354540  79.6557220  76.3598750  37.4360710
  79.5751270  75.4453360  37.1652420  79.2421640  76.8565820  36.7300420
  77.7875260  78.1377770  39.3169980  77.0117360  77.6578210  39.6068550
  78.4388190  77.4583420  39.1426140  81.8082690  82.5437960  38.0969110
  81.3464220  81.7725200  38.4256280  82.6208240  82.5704030  38.6021560
  71.7842350  82.4837670  40.3903760  72.0870390  81.5935410  40.2113980
  72.5285940  83.0407890  40.1626010  68.1766050  76.0105120  39.8627830
  68.7482160  75.2427320  39.8631470  68.1767590  76.3093880  38.9534440
  78.0346000  84.8295970  37.7173100  77.4157440  85.2853470  37.1467540
  78.8897780  84.9847430  37.3162800  77.2284250  80.8134960  39.3240140
  77.1592530  79.8724900  39.1629270  77.9904110  80.9036370  39.8962710
  78.2589420  73.6205340  39.5509070  78.6354240  72.7477220  39.4382740
  78.1608930  73.9564040  38.6599510  70.0377590  73.9149980  40.2579100
  70.7187700  74.1788350  40.8766500  69.7225640  73.0750850  40.5917110
  86.3313090  73.1322530  43.0481040  85.6265260  73.5204240  42.5296150
  86.5971010  73.8272820  43.6501970  72.5138260  69.6015900  43.6115110
  72.5156700  70.1188290  42.8061010  71.6842570  69.1246080  43.5885040
  78.9009350  79.7135210  35.1105010  78.2826620  80.1784660  34.5467730
  79.4132600  80.4062690  35.5274520  68.2692550  80.3991740  32.4844640
  67.8920530  80.8878840  31.7529540  68.5265620  81.0717020  33.1151170
  83.8937800  82.6731290  41.5192430  83.2101320  83.3430400  41.5109100
  84.4332090  82.8711940  40.7537290  81.4296540  84.5175420  40.2337610
  81.4423700  84.1137710  39.3659870  80.8771760  85.2922710  40.1299040
  82.7241960  81.2391640  35.3227780  82.6138290  80.2965970  35.4477200
  82.7210210  81.6007280  36.2090540  80.8281980  79.4205260  41.5620220
  81.2450770  79.2065370  40.7273680  81.5521800  79.6778050  42.1328840
  78.2531320  73.1373960  31.6757430  77.3134990  73.2987920  31.7609890
  78.5714580  73.8559640  31.1293420  81.7386090  74.6061800  42.5991330
  81.3257270  75.4315510  42.8531320  81.0062040  74.0206840  42.4067690
  73.8718880  77.3921700  37.4610000  73.4675880  76.6798950  36.9655900
  73.9582000  77.0474940  38.3498040  74.3400580  81.0789260  39.6249210
  74.0428870  80.4734730  38.9456990  75.2900400  81.1166570  39.5138570
  82.4286190  84.6521130  43.2872310  81.9516750  85.4593320  43.0944920
  81.7447980  83.9999460  43.4398520  80.4724230  77.6664070  32.1898270
  80.9117510  76.8286500  32.0436090  81.1852650  78.2993470  32.2762410
  78.5819610  82.6060140  36.1579510  79.0215520  83.3484470  35.7434900
  78.5206500  82.8486710  37.0818470  84.0541370  68.9206880  30.5039310
  83.7414030  69.0133710  31.4038380  84.8153840  69.4987910  30.4536740
  86.0085400  84.4133070  48.3563700  86.4845120  84.8915960  49.0352780
  86.6292560  84.3450560  47.6309200  69.4556510  81.1582010  37.1791470
  69.0484590  81.2996600  36.3245070  70.3469520  80.8742170  36.9762680
  85.4118650  81.6045920  45.5163710  85.5381710  81.3657800  44.5980890
  85.4540030  80.7730460  45.9885790  79.2735390  85.3073920  44.0858520
  79.7880060  85.2181930  44.8880950  78.4304470  85.6533620  44.3786430
  81.2489790  85.5929260  33.5142520  81.0890930  85.3032200  34.4124350
  81.0836500  84.8169390  32.9787750  73.7278170  85.3727790  35.2914140
  73.5520650  84.4563330  35.0781940  72.8733910  85.7315080  35.5311940
  80.9515920  83.1016820  32.0740520  80.2581080  83.0994110  31.4142800
  81.6938780  82.6776140  31.6434690  80.5165850  84.7279530  36.1489010
  80.9722800  83.9468910  36.4627630  80.8558370  85.4386350  36.6930190
  77.3256980  72.4970270  43.9475640  76.8636350  72.7053290  44.7595580
  76.9235090  71.6829620  43.6446310  80.0599150  74.7598690  34.6712220
  79.4608040  75.4834490  34.4875840  80.6078760  74.6975470  33.8888670
  78.6664020  73.3962230  36.7015500  79.0593590  73.7134430  35.8884190
  79.0280870  72.5174110  36.8160020  67.8898420  73.9283150  30.1348420
  67.8073090  74.8713910  30.2763410  67.5381480  73.7858060  29.2560770
  79.2519160  75.9867980  40.7966280  78.5200280  76.4954790  41.1456380
  78.8543500  75.1697960  40.4955060  75.7516700  73.6634260  32.1925530
  75.8729520  73.6220740  33.1411350  75.3665210  74.5258410  32.0372260
  79.7145070  71.4401660  40.2089220  79.7317810  71.8910310  41.0531070
  79.4660650  70.5407300  40.4222660  78.5283600  70.3596910  33.7991020
  77.7148210  69.8610080  33.7236330  78.3345550  71.1995160  33.3827370
  81.2431990  74.7316560  32.0953180  82.1311610  75.0433790  31.9204520
  81.2137080  73.8588810  31.7033760  72.3523080  79.6373970  37.5014050
  72.8701750  78.8342230  37.4470940  71.9007100  79.5753110  38.3430880
  83.5146260  76.0428400  31.5633040  83.4309980  76.4742620  30.7129480
  84.2340450  76.5026750  31.9959860  84.5920400  78.4995920  44.6403010
  83.8668590  79.0924700  44.4432400  85.1195860  78.4919460  43.8416380
  84.5433510  82.8970660  34.2915170  83.9009670  82.2426280  34.5658890
  84.1564170  83.3025750  33.5155840  80.1219990  80.2256090  38.1386860
  80.4743810  79.6284220  37.4788230  79.2382320  79.9000320  38.3095110
  76.2083270  80.9853780  35.5457270  76.8954400  81.5322990  35.9264860
  75.4215690  81.5294510  35.5806880  68.3475670  76.6026600  31.0374350
  69.2170520  76.8851400  31.3210270  67.8565990  77.4162470  30.9223160
  79.0875170  81.5038500  41.1052380  79.7297400  80.8031660  41.2184550
  79.6124520  82.2836940  40.9249270  82.9330890  81.7887120  30.8291520
  82.7068470  81.0717560  31.4216160  82.5427090  81.5399560  29.9913270
  68.7146920  85.8153980  31.6035980  69.0744560  86.4143320  30.9493250
  68.5739260  86.3613870  32.3771010  82.5147140  79.7059060  32.4905680
  82.2268840  80.1671750  33.2783560  83.3099310  79.2456830  32.7589900
  70.3322180  78.4200070  33.1656410  69.7250130  79.1598970  33.1751710
  70.8071530  78.5099430  32.3394610  79.9054970  72.5850890  42.8413300
  80.2735790  71.7646100  43.1692870  79.0453170  72.6452780  43.2568950
  77.7175140  83.2613420  31.0834840  77.8187120  83.0577410  30.1536820
  76.8176880  83.0071700  31.2882620  79.2716460  70.5444440  36.5054530
  79.1484240  70.5630570  35.5564040  80.2201020  70.5923380  36.6252930
  76.3593250  85.7799740  35.7782510  76.6134750  85.7421130  34.8561880
  75.4105730  85.6533070  35.7710760  84.0723820  71.4558440  43.9079660
  83.5697420  72.1963840  44.2473470  84.8880480  71.8442440  43.5916450
  71.0374230  75.8136290  31.5977870  71.1177820  74.8663800  31.7095270
  71.9293980  76.1443170  31.7038530  84.3671410  83.8700470  39.0295280
  84.4918830  84.6931640  39.5019090  85.2336970  83.6591200  38.6819430
  71.8388940  85.9631680  38.7012410  72.5751420  85.4147140  38.9720980
  72.2229860  86.8287690  38.5618400  68.7234420  82.0305250  34.5753920
  67.7974200  82.2726390  34.5659330  69.1890850  82.8579510  34.4538670
  74.9491250  85.1361990  30.5237980  75.7419860  85.4250820  30.0719770
  74.4295600  84.7054160  29.8450460  81.1112220  84.9837910  46.4482810
  82.0633970  84.8995930  46.3983050  80.9640440  85.6479620  47.1216600
  84.0021420  84.3632120  31.9474720  83.7162930  83.9497260  31.1328900
  83.8040970  85.2919830  31.8275240  75.7907660  69.8808510  42.8083280
  75.3424960  69.9032770  41.9628830  75.1572860  69.4827530  43.4053580
  73.2705400  74.4509580  29.8345780  73.0694460  73.5876940  30.1959120
  73.0997450  74.3642940  28.8967380  80.7493710  69.2617810  32.3632660
  81.0296000  68.4185710  32.7192080  79.9759440  69.4940920  32.8771410
  72.0688200  71.5510200  29.8223660  72.3714100  71.5577630  28.9142810
  72.8082790  71.2008060  30.3191320  77.4522170  85.4825570  32.4266460
  78.3472960  85.8210540  32.4485220  77.4839800  84.7604980  31.7990740
  68.3064130  83.6441650  38.1073720  68.6367140  82.7762710  37.8752360
  68.7355130  83.8500170  38.9378680  72.9026050  81.9750660  35.7675690
  72.6021590  81.8515630  36.6679600  72.7963540  81.1159250  35.3591420
  84.4316520  84.0129240  45.1332660  83.8318510  84.0721800  44.3896580
  84.5610420  83.0734220  45.2629510  85.6717970  81.7547060  30.4702370
  84.8410930  81.8223710  30.9409600  85.8489800  82.6451180  30.1669230
  68.6278770  77.0232470  37.2044230  67.9727610  76.7544110  36.5603930
  69.4656720  76.9136950  36.7546210  83.1168160  80.7381220  43.2308820
  82.3028000  81.1678380  43.4934610  83.5242360  81.3499630  42.6177870
  85.1793600  78.7928910  30.1309090  85.4542440  79.7007790  30.0028310
  84.9904340  78.7291440  31.0671080  81.5769210  71.8173760  31.4262720
  81.9954090  71.6304740  30.5859380  81.2705270  70.9652810  31.7365650
  69.6654700  77.4085040  41.7447570  70.0327740  77.3212440  42.6243590
  69.0965520  76.6451590  41.6454430  84.4658560  75.8769420  44.7578040
  84.2344650  75.6482170  43.8575990  84.7263110  76.7968970  44.7122930
  67.8416850  74.2331400  33.1469560  66.9380930  74.4961600  32.9721220
  68.3257470  74.5042570  32.3669520  84.5299620  75.0395260  41.9465310
  83.5802330  75.0058800  42.0610300  84.7112630  75.9495370  41.7115080
  70.3844060  73.2896940  31.0563940  71.0935760  72.8680160  30.5711220
  69.6684000  73.3572170  30.4247290  70.0318220  69.3436270  30.0966590
  70.7546350  69.8845210  30.4147810  70.3042740  69.0699690  29.2208130
  86.1587300  70.6797610  30.1381990  87.0836610  70.5478790  29.9300280
  86.1363090  70.7590430  31.0918440  83.1744210  85.4899820  36.7577090
  83.7703280  85.1684390  36.0811510  83.4322360  85.0171640  37.5490360
  86.0416970  85.4971700  43.3088080  85.5475250  85.8940570  42.5915210
  85.4330260  84.8720910  43.7025360  80.3649830  68.1612210  42.2295530
  79.4909670  68.4947320  42.0268460  80.2560580  67.6885390  43.0547400
  81.2721810  70.3683080  43.6137250  80.9435170  69.5534840  43.2338980
  82.2204110  70.3252890  43.4902940  83.7256420  86.1395120  40.5874820
  83.2659390  86.8910930  40.2132840  83.0968880  85.4201590  40.5289620
  74.1552140  84.4483360  39.7622950  74.6717160  83.8370720  39.2371210
  74.8049520  84.9512140  40.2533960  76.8947640  85.3391850  40.5891930
  77.1825450  85.0846150  39.7124940  77.4070860  84.7869210  41.1797500
  78.1124650  69.0782050  41.1688440  77.3296440  69.5527550  41.4485200
  77.8187580  68.1736880  41.0601620  68.8337040  85.5512750  36.1870300
  68.6659080  84.9183430  36.8852190  67.9671550  85.7572150  35.8364490
  80.5003850  68.1611250  37.9187540  81.1033220  68.7331460  38.3936060
  79.7596840  68.7250690  37.6961440  70.4399740  84.2445980  33.6320440
  69.9147360  84.6254010  32.9282400  70.3644320  84.8696750  34.3530150
  85.1965060  85.8033520  34.9534380  85.3717250  85.1171260  34.3095300
  84.4986630  86.3280570  34.5611050  73.0392710  86.1928360  32.5069690
  73.7711530  85.9087640  31.9593580  73.2986380  85.9541640  33.3969070
  72.2007500  82.3093090  32.5116020  71.5716380  82.7778190  33.0601850
  72.3155330  81.4642310  32.9462210  83.5297560  85.4877810  47.7801170
  84.3222880  84.9927040  47.5727130  83.8230710  86.1667950  48.3876780
  79.6557220  76.3598750  18.6617220  79.5751270  75.4453360  18.3908930
  79.2421640  76.8565820  17.9556930  77.7875260  78.1377770  20.5426490
  77.0117360  77.6578210  20.8325060  78.4388190  77.4583420  20.3682650
  71.8041090  78.4497580  21.4202250  70.9725970  78.1946290  21.8198760
  72.4122070  78.5208350  22.1560170  81.8082690  82.5437960  19.3225620
  81.3464220  81.7725200  19.6512790  82.6208240  82.5704030  19.8278070
  71.7842350  82.4837670  21.6160270  72.0870390  81.5935410  21.4370490
  72.5285940  83.0407890  21.3882520  70.2133040  73.4099470  15.2044640
  69.3249740  73.7515440  15.1024520  70.4974230  73.2099790  14.3125470
  78.0346000  84.8295970  18.9429610  77.4157440  85.2853470  18.3724050
  78.8897780  84.9847430  18.5419310  77.2284250  80.8134960  20.5496650
  77.1592530  79.8724900  20.3885780  77.9904110  80.9036370  21.1219220
  78.2589420  73.6205340  20.7765580  78.6354240  72.7477220  20.6639250
  78.1608930  73.9564040  19.8856020  72.3894430  71.9930970  16.2383020
  72.4961180  72.8934700  16.5451780  71.4786790  71.9448940  15.9477670
  82.0413540  71.1155780  17.7093920  82.8623160  70.6252350  17.7519400
  82.0747620  71.7053440  18.4625760  74.2302160  74.9617340  20.5708200
  74.7380380  75.4598310  21.2113220  74.7615400  74.1852540  20.3947560
  78.9009350  79.7135210  16.3361520  78.2826620  80.1784660  15.7724240
  79.4132600  80.4062690  16.7531030  73.7641110  79.2411080  23.0145120
  73.4310490  79.8680000  23.6566190  73.9407790  79.7672960  22.2346790
  72.9760210  81.2091880  24.8294300  73.5934210  81.8842960  24.5478750
  72.1153330  81.6179860  24.7381800  83.8937800  82.6731290  22.7448940
  83.2101320  83.3430400  22.7365610  84.4332090  82.8711940  21.9793800
  75.8781480  68.8008130  19.1686660  76.1856460  68.2455020  18.4522160
  74.9482180  68.9352590  18.9859650  81.4296540  84.5175420  21.4594120
  81.4423700  84.1137710  20.5916380  80.8771760  85.2922710  21.3555550
  82.7241960  81.2391640  16.5484290  82.6138290  80.2965970  16.6733710
  82.7210210  81.6007280  17.4347050  80.8281980  79.4205260  22.7876730
  81.2450770  79.2065370  21.9530190  81.5521800  79.6778050  23.3585350
  78.2662240  76.8656960  15.9046780  77.3391520  76.7994340  16.1335250
  78.4187060  77.8037090  15.7902020  78.2531320  73.1373960  12.9013940
  77.3134990  73.2987920  12.9866400  78.5714580  73.8559640  12.3549930
  84.7744080  77.8192480  22.8792970  83.9462710  77.8885570  22.4043100
  85.3694560  78.4046790  22.4108800  82.2959530  78.4277260  16.4082030
  81.6771950  78.0896810  15.7608330  82.2783980  77.7837020  17.1161220
  81.7386090  74.6061800  23.8247840  81.3257270  75.4315510  24.0787830
  81.0062040  74.0206840  23.6324200  74.3400580  81.0789260  20.8505720
  74.0428870  80.4734730  20.1713500  75.2900400  81.1166570  20.7395080
  72.5847500  74.1664910  22.4665550  73.1362090  74.2760250  21.6918800
  73.0991010  74.5402510  23.1820780  82.4286190  84.6521130  24.5128820
  81.9516750  85.4593320  24.3201430  81.7447980  83.9999460  24.6655030
  80.4724230  77.6664070  13.4154780  80.9117510  76.8286500  13.2692600
  81.1852650  78.2993470  13.5018920  72.2590230  77.6884270  26.0770890
  72.1198000  78.5607070  26.4458290  71.3771590  77.3457080  25.9318830
  78.5819610  82.6060140  17.3836020  79.0215520  83.3484470  16.9691410
  78.5206500  82.8486710  18.3074980  84.0541370  68.9206880  11.7295820
  83.7414030  69.0133710  12.6294890  84.8153840  69.4987910  11.6793250
  86.0085400  84.4133070  29.5820210  86.4845120  84.8915960  30.2609290
  86.6292560  84.3450560  28.8565710  68.2108880  79.4581820  21.9941800
  68.2889300  79.5930590  21.0497520  68.8250560  78.7497710  22.1869920
  85.4118650  81.6045920  26.7420220  85.5381710  81.3657800  25.8237400
  85.4540030  80.7730460  27.2142300  79.2735390  85.3073920  25.3115030
  79.7880060  85.2181930  26.1137460  78.4304470  85.6533620  25.6042940
  81.2489790  85.5929260  14.7399030  81.0890930  85.3032200  15.6380860
  81.0836500  84.8169390  14.2044260  73.7278170  85.3727790  16.5170650
  73.5520650  84.4563330  16.3038450  72.8733910  85.7315080  16.7568450
  80.9515920  83.1016820  13.2997030  80.2581080  83.0994110  12.6399310
  81.6938780  82.6776140  12.8691200  80.5165850  84.7279530  17.3745520
  80.9722800  83.9468910  17.6884140  80.8558370  85.4386350  17.9186700
  85.2642660  73.6578380  27.7069960  84.6486930  74.1658050  27.1785420
  84.9439080  72.7576710  27.6495900  68.2668400  80.4995990  24.5336260
  68.4299440  80.0301350  23.7155630  68.7320850  79.9919550  25.1985100
  77.3256980  72.4970270  25.1732150  76.8636350  72.7053290  25.9852090
  76.9235090  71.6829620  24.8702820  82.3261490  73.7179220  26.3028810
  81.4755080  73.4184970  26.6237880  82.1663280  73.9621230  25.3912630
  79.4211200  75.2180970  28.4027600  79.7464610  74.3844720  28.0629830
  80.2091530  75.7409490  28.5505930  76.1545990  69.2512450  14.4502660
  75.5300170  69.2472320  15.1755970  76.0676110  68.3843410  14.0538630
  72.8301390  74.7535320  17.2978080  72.6042310  74.5372490  18.2024700
  72.0493920  75.1863780  16.9524050  80.0599150  74.7598690  15.8968730
  79.4608040  75.4834490  15.7132350  80.6078760  74.6975470  15.1145180
  78.6664020  73.3962230  17.9272010  79.0593590  73.7134430  17.1140700
  79.0280870  72.5174110  18.0416530  70.4011140  72.0634570  26.1172130
  70.0074530  72.9109780  26.3244910  69.7129540  71.4260940  26.3080770
  76.9756190  72.1469540  29.1868870  76.2854510  71.9541740  29.8214960
  77.7188490  72.4304180  29.7193170  67.8898420  73.9283150  11.3604930
  67.8073090  74.8713910  11.5019920  67.5381480  73.7858060  10.4817280
  79.2519160  75.9867980  22.0222790  78.5200280  76.4954790  22.3712890
  78.8543500  75.1697960  21.7211570  75.6896550  72.6622180  20.4275280
  75.6932610  72.2212130  19.5779820  76.5847670  72.9839510  20.5347100
  71.5398930  72.5448670  19.3869490  71.1998980  73.0223900  20.1436540
  70.7776250  72.0913790  19.0270590  75.7516700  73.6634260  13.4182040
  75.8729520  73.6220740  14.3667860  75.3665210  74.5258410  13.2628770
  79.7145070  71.4401660  21.4345730  79.7317810  71.8910310  22.2787580
  79.4660650  70.5407300  21.6479170  83.1415820  68.8533840  27.2732110
  83.4661590  68.1223500  27.7990090  83.1772330  68.5347480  26.3713100
  69.8407380  79.8747420  26.6932070  69.4562170  79.2341090  27.2915030
  70.1519570  80.5783540  27.2626800  75.9904520  76.7223960  22.1740690
  76.3574650  76.2482530  22.9202030  75.8009580  77.5965530  22.5149030
  73.7803890  75.7632600  24.4924900  73.4760960  76.6424580  24.7175260
  74.7350350  75.8232390  24.5282340  83.0673660  78.9658950  20.8818140
  83.7872780  79.4614240  20.4914250  82.8655480  78.2876840  20.2372010
  78.5283600  70.3596910  15.0247530  77.7148210  69.8610080  14.9492840
  78.3345550  71.1995160  14.6083880  78.4492460  79.0368010  26.7687140
  78.3829770  78.1163680  26.5144730  77.8197600  79.1343450  27.4831780
  81.2431990  74.7316560  13.3209690  82.1311610  75.0433790  13.1461030
  81.2137080  73.8588810  12.9290270  77.2392580  80.9040250  13.9997860
  77.5808280  81.6482480  13.5041180  76.4105290  81.2171370  14.3622690
  69.8367620  76.6035340  25.6396260  69.4782560  77.2689190  26.2269600
  69.5422180  75.7718890  26.0108880  78.3809190  81.8588580  26.5190940
  78.3953730  80.9269540  26.3009850  77.6734290  81.9448340  27.1580710
  83.5146260  76.0428400  12.7889550  83.4309980  76.4742620  11.9385990
  84.2340450  76.5026750  13.2216370  84.5920400  78.4995920  25.8659520
  83.8668590  79.0924700  25.6688910  85.1195860  78.4919460  25.0672890
  84.5433510  82.8970660  15.5171680  83.9009670  82.2426280  15.7915400
  84.1564170  83.3025750  14.7412350  80.1219990  80.2256090  19.3643370
  80.4743810  79.6284220  18.7044740  79.2382320  79.9000320  19.5351620
  76.2083270  80.9853780  16.7713780  76.8954400  81.5322990  17.1521370
  75.4215690  81.5294510  16.8063390  77.8143090  83.5006150  23.6131440
  78.4585310  83.7065530  24.2904860  78.1772530  82.7394550  23.1602290
  71.4122260  68.3337460  16.8561660  71.2836890  68.3255360  17.8046580
  70.5884280  68.6720550  16.5052670  79.0875170  81.5038500  22.3308890
  79.7297400  80.8031660  22.4441060  79.6124520  82.2836940  22.1505780
  82.9330890  81.7887120  12.0548030  82.7068470  81.0717560  12.6472670
  82.5427090  81.5399560  11.2169780  80.8612790  82.3033400  25.5344950
  81.1969030  82.8900090  26.2122870  79.9413130  82.1726110  25.7642740
  68.7146920  85.8153980  12.8292490  69.0744560  86.4143320  12.1749760
  68.5739260  86.3613870  13.6027520  68.4116190  70.0928580  26.3168360
  67.6974710  70.2925500  26.9220970  68.8311230  69.3168150  26.6883160
  82.5147140  79.7059060  13.7162190  82.2268840  80.1671750  14.5040070
  83.3099310  79.2456830  13.9846410  68.6988780  84.0808840  27.3034890
  68.8079900  83.1403580  27.1630280  68.0469340  84.3463590  26.6548620
  74.7315540  83.1985180  13.6466160  74.7225640  83.9314870  13.0310670
  73.8113900  82.9516760  13.7393120  79.9054970  72.5850890  24.0669810
  80.2735790  71.7646100  24.3949380  79.0453170  72.6452780  24.4825460
  83.2717000  71.5407830  14.8757370  82.6430160  71.6453500  14.1615600
  82.7768920  71.7604610  15.6651250  77.7175140  83.2613420  12.3091350
  77.8187120  83.0577410  11.3793330  76.8176880  83.0071700  12.5139130
  75.2401030  73.8193780  16.2915250  74.5317180  74.2880120  16.7328860
  75.5245510  73.1615790  16.9260440  76.8656960  75.2390480  24.2907780
  77.3642210  75.7136300  24.9559630  77.0079910  74.3154000  24.4977810
  79.2716460  70.5444440  17.7311040  79.1484240  70.5630570  16.7820550
  80.2201020  70.5923380  17.8509440  76.3593250  85.7799740  17.0039020
  76.6134750  85.7421130  16.0818390  75.4105730  85.6533070  16.9967270
  73.4436050  72.1278860  13.6665960  74.2926580  72.5649010  13.6006150
  73.0767320  72.4399120  14.4938020  84.0723820  71.4558440  25.1336170
  83.5697420  72.1963840  25.4729980  84.8880480  71.8442440  24.8172960
  82.3645830  76.6991620  18.5797530  81.4235970  76.7141850  18.7545220
  82.6789900  75.9127580  19.0257830  84.3671410  83.8700470  20.2551790
  84.4918830  84.6931640  20.7275600  85.2336970  83.6591200  19.9075940
  71.8388940  85.9631680  19.9268920  72.5751420  85.4147140  20.1977490
  72.2229860  86.8287690  19.7874910  70.8447220  85.1477750  29.1154500
  71.6459950  85.4689800  29.5289900  70.3299040  84.7873330  29.8374410
  74.9491250  85.1361990  11.7494490  75.7419860  85.4250820  11.2976280
  74.4295600  84.7054160  11.0706970  79.6811850  81.2557620  29.0629910
  79.0750010  81.2789220  28.3225660  79.3765960  80.5240660  29.5997160
  81.1112220  84.9837910  27.6739320  82.0633970  84.8995930  27.6239560
  80.9640440  85.6479620  28.3473110  84.0021420  84.3632120  13.1731230
  83.7162930  83.9497260  12.3585410  83.8040970  85.2919830  13.0531750
  68.5645030  77.6351210  28.0590550  69.0684050  77.0558490  28.6306780
  67.8252450  77.9191440  28.5966920  75.4668650  80.3565400  11.6136840
  75.3619290  79.7417750  12.3398220  75.2992870  79.8331290  10.8299850
  78.7071380  79.4185430  12.2178830  78.1581480  79.8654730  12.8621570
  79.3290640  78.9134680  12.7416500  82.7606320  80.7727530  28.1501090
  83.5015790  81.1103290  27.6468550  81.9979000  80.9419590  27.5970860
  70.5968110  75.7780800  28.9540620  70.6373450  75.4794670  29.8625850
  71.4513610  76.1788410  28.7948140  72.5373920  74.3572900  26.9215110
  72.0070380  73.8663850  26.2938450  73.2061990  74.7857100  26.3873040
  76.8874140  77.4013960  11.3621230  77.4079800  76.6862980  10.9962380
  77.5342540  78.0399830  11.6621740  81.4351980  78.8242360  26.6856300
  81.8493000  78.9787440  27.5346720  80.5002980  78.9497580  26.8482080
  81.9074150  76.1638520  28.6895450  82.4894920  75.4090840  28.6015930
  82.0835920  76.6945960  27.9126930  73.0246220  71.3235270  27.0012400
  72.9303090  70.7056020  26.2763270  72.4443610  72.0501560  26.7742310
  76.1967210  78.7762840  24.6552230  76.6155320  79.6195570  24.4828470
  75.2775840  78.9134880  24.4259010  78.5331110  76.5079020  26.0390070
  78.6527320  75.9120160  26.7784910  79.3925110  76.5448710  25.6191370
  80.8719010  77.0616210  24.6152580  80.3454230  77.5858830  24.0117720
  81.2150350  77.6943600  25.2462310  73.2705400  74.4509580  11.0602290
  73.0694460  73.5876940  11.4215630  73.0997450  74.3642940  10.1223890
  74.0474630  85.0815850  25.7709960  73.5095720  85.8061910  25.4518660
  74.3008590  84.6046190  24.9807300  75.2999880  73.0500370  27.2965890
  75.8899570  72.7416220  27.9843710  74.4820120  72.5780120  27.4525790
  80.1193310  72.6666180  27.5298910  79.4308830  72.0047720  27.4648900
  80.8399330  72.2204450  27.9747370  80.7493710  69.2617810  13.5889170
  81.0296000  68.4185710  13.9448590  79.9759440  69.4940920  14.1027920
  72.0688200  71.5510200  11.0480170  72.3714100  71.5577630  10.1399320
  72.8082790  71.2008060  11.5447830  76.9036840  86.3167060  26.0296610
  76.8295540  87.2202200  26.3368980  76.0015680  85.9978960  26.0018680
  75.2873130  70.4944820  12.0336370  74.9395130  69.8168810  11.4538820
  75.4885900  70.0334330  12.8479760  77.4522170  85.4825570  13.6522970
  78.3472960  85.8210540  13.6741730  77.4839800  84.7604980  13.0247250
  68.3064130  83.6441650  19.3330230  68.6367140  82.7762710  19.1008870
  68.7355130  83.8500170  20.1635190  68.7954340  84.5112240  22.0711860
  68.3585330  84.6913040  22.9036010  69.3632020  85.2686860  21.9293580
  84.4316520  84.0129240  26.3589170  83.8318510  84.0721800  25.6153090
  84.5610420  83.0734220  26.4886020  85.6717970  81.7547060  11.6958880
  84.8410930  81.8223710  12.1666110  85.8489800  82.6451180  11.3925740
  85.1274430  78.4994540  14.1993080  85.8893340  79.0691190  14.3052770
  85.1428800  77.9321740  14.9701390  68.6278770  77.0232470  18.4300740
  67.9727610  76.7544110  17.7860440  69.4656720  76.9136950  17.9802720
  86.1334400  79.3544640  19.0435010  86.5043230  78.5711960  18.6370980
  86.7736330  80.0433740  18.8652310  83.1168160  80.7381220  24.4565330
  82.3028000  81.1678380  24.7191120  83.5242360  81.3499630  23.8434380
  85.1793600  78.7928910  11.3565600  85.4542440  79.7007790  11.2284820
  84.9904340  78.7291440  12.2927590  81.5769210  71.8173760  12.6519230
  81.9954090  71.6304740  11.8115890  81.2705270  70.9652810  12.9622160
  85.0758940  76.7297900  16.3495030  84.7002540  75.9625830  15.9176320
  84.3462060  77.1120600  16.8369960  69.6654700  77.4085040  22.9704080
  70.0327740  77.3212440  23.8500100  69.0965520  76.6451590  22.8710940
  84.4658560  75.8769420  25.9834550  84.2344650  75.6482170  25.0832500
  84.7263110  76.7968970  25.9379440  69.2170700  74.3194130  26.8762500
  68.3226750  74.2860890  27.2156210  69.7568250  74.5180920  27.6413750
  82.9046630  71.1025850  28.7614250  83.7816810  71.1109250  29.1448250
  82.9167470  70.3656690  28.1506600  67.8416850  74.2331400  14.3726070
  66.9380930  74.4961600  14.1977730  68.3257470  74.5042570  13.5926030
  70.3844060  73.2896940  12.2820450  71.0935760  72.8680160  11.7967730
  69.6684000  73.3572170  11.6503800  70.0318220  69.3436270  11.3223100
  70.7546350  69.8845210  11.6404320  70.3042740  69.0699690  10.4464640
  83.8409870  74.2128740  15.5894680  84.3368990  73.9799610  16.3743560
  83.6425940  73.3740580  15.1732320  86.1587300  70.6797610  11.3638500
  87.0836610  70.5478790  11.1556790  86.1363090  70.7590430  12.3174950
  86.2325790  71.4508270  13.9895210  85.4377290  71.3853390  14.5188120
  86.4369070  72.3858910  13.9780560  71.0806780  81.9217730  28.1324230
  71.0376410  81.5510640  29.0138690  71.2117790  82.8595300  28.2726050
  74.7812810  83.4777320  23.7333950  74.5404170  83.7451880  22.8464470
  75.7215450  83.6483050  23.7884810  86.0416970  85.4971700  24.5344590
  85.5475250  85.8940570  23.8171720  85.4330260  84.8720910  24.9281870
  70.1463050  68.2774330  27.2421810  70.6946040  68.0962380  26.4787920
  70.2118360  67.4868440  27.7778120  70.9194810  84.8679980  25.2522010
  70.3255130  84.7364680  25.9912050  70.9118650  84.0318120  24.7864110
  83.7256420  86.1395120  21.8131330  83.2659390  86.8910930  21.4389350
  83.0968880  85.4201590  21.7546130  70.5507040  82.2338360  24.2030050
  69.8241100  81.6143650  24.1356000  70.6116190  82.6278970  23.3328130
  74.1552140  84.4483360  20.9879460  74.6717160  83.8370720  20.4627720
  74.8049520  84.9512140  21.4790470  76.8947640  85.3391850  21.8148440
  77.1825450  85.0846150  20.9381450  77.4070860  84.7869210  22.4054010
  82.6645720  69.7805150  20.4394040  83.1053810  69.7250250  19.5915640
  82.3953310  70.6963160  20.5104220  84.5284290  69.4120390  18.4502860
  84.4672690  68.4681610  18.3033880  85.3076320  69.5200480  18.9956320
  68.8337040  85.5512750  17.4126810  68.6659080  84.9183430  18.1108700
  67.9671550  85.7572150  17.0621000  69.4565060  69.3829530  14.9158670
  70.2144420  69.4958410  14.3422700  68.9942230  70.2198730  14.8702100
  75.9978870  71.4968800  17.9060980  75.1853380  71.1225690  17.5656860
  76.5020510  70.7413880  18.2082170  80.5003850  68.1611250  19.1444050
  81.1033220  68.7331460  19.6192570  79.7596840  68.7250690  18.9217950
  83.6438450  68.5632810  14.4184330  83.8389080  69.4616260  14.6851760
  82.8568320  68.3319890  14.9117280  70.4399740  84.2445980  14.8576950
  69.9147360  84.6254010  14.1538910  70.3644320  84.8696750  15.5786660
  71.8290210  69.9093580  13.4560640  72.3582970  69.1223380  13.3268590
  72.4618530  70.5884770  13.6896170  74.0228050  69.6468720  16.5106030
  73.3930790  68.9456030  16.6776160  73.4833190  70.4072850  16.2939190
  76.9620000  86.2607950  29.1816640  77.8887310  86.0252220  29.2252600
  76.9470430  87.0879950  28.7002670  74.1483610  68.9252700  28.9458520
  73.8667880  69.4286300  28.1819340  74.5303310  68.1274450  28.5800650
  73.0392710  86.1928360  13.7326200  73.7711530  85.9087640  13.1850090
  73.2986380  85.9541640  14.6225580  72.2007500  82.3093090  13.7372530
  71.5716380  82.7778190  14.2858360  72.3155330  81.4642310  14.1718720
  80.7499070  68.3406280  29.5238990  80.6364520  68.6600890  30.4190510
  81.5668810  68.7418790  29.2276270  83.5297560  85.4877810  29.0057680
  84.3222880  84.9927040  28.7983640  83.8230710  86.1667950  29.6133290
  77.7875260  78.1377770   1.7683000  77.0117360  77.6578210   2.0581570
  78.4388190  77.4583420   1.5939160  71.8041090  78.4497580   2.6458760
  70.9725970  78.1946290   3.0455270  72.4122070  78.5208350   3.3816680
  71.7842350  82.4837670   2.8416780  72.0870390  81.5935410   2.6627000
  72.5285940  83.0407890   2.6139030  77.2284250  80.8134960   1.7753160
  77.1592530  79.8724900   1.6142290  77.9904110  80.9036370   2.3475730
  69.4190920  71.4189480   4.1009780  69.2393760  70.5215230   4.3812540
  69.0171000  71.9661350   4.7756730  70.0377590  73.9149980   2.7092120
  70.7187700  74.1788350   3.3279520  69.7225640  73.0750850   3.0430130
  74.2302160  74.9617340   1.7964710  74.7380380  75.4598310   2.4369730
  74.7615400  74.1852540   1.6204070  86.3313090  73.1322530   5.4994060
  85.6265260  73.5204240   4.9809170  86.5971010  73.8272820   6.1014990
  72.5138260  69.6015900   6.0628130  72.5156700  70.1188290   5.2574030
  71.6842570  69.1246080   6.0398060  73.7641110  79.2411080   4.2401630
  73.4310490  79.8680000   4.8822700  73.9407790  79.7672960   3.4603300
  72.1953590  71.3125860   4.0698580  72.5370400  72.1567910   3.7752450
  71.2569400  71.4609600   4.1863920  72.9760210  81.2091880   6.0550810
  73.5934210  81.8842960   5.7735260  72.1153330  81.6179860   5.9638310
  83.8937800  82.6731290   3.9705450  83.2101320  83.3430400   3.9622120
  84.4332090  82.8711940   3.2050310  85.3461940  72.5010950   2.0987180
  84.3986850  72.5349930   2.2302610  85.6711930  73.3149900   2.4836540
  81.4296540  84.5175420   2.6850630  81.4423700  84.1137710   1.8172890
  80.8771760  85.2922710   2.5812060  80.8281980  79.4205260   4.0133240
  81.2450770  79.2065370   3.1786700  81.5521800  79.6778050   4.5841860
  84.7744080  77.8192480   4.1049480  83.9462710  77.8885570   3.6299610
  85.3694560  78.4046790   3.6365310  81.7386090  74.6061800   5.0504350
  81.3257270  75.4315510   5.3044340  81.0062040  74.0206840   4.8580710
  72.5847500  74.1664910   3.6922060  73.1362090  74.2760250   2.9175310
  73.0991010  74.5402510   4.4077290  82.4286190  84.6521130   5.7385330
  81.9516750  85.4593320   5.5457940  81.7447980  83.9999460   5.8911540
  73.4319010  80.8170950   8.7270030  72.5347540  81.0410920   8.9743430
  73.4571880  80.9405890   7.7781430  72.2590230  77.6884270   7.3027400
  72.1198000  78.5607070   7.6714800  71.3771590  77.3457080   7.1575340
  74.0570580  83.6305970   9.5112550  74.0286010  84.0348920   8.6440980
  73.8935550  82.7016330   9.3484150  86.0085400  84.4133070  10.8076720
  86.4845120  84.8915960  11.4865800  86.6292560  84.3450560  10.0822220
  68.2108880  79.4581820   3.2198310  68.2889300  79.5930590   2.2754030
  68.8250560  78.7497710   3.4126430  85.4118650  81.6045920   7.9676730
  85.5381710  81.3657800   7.0493910  85.4540030  80.7730460   8.4398810
  79.2735390  85.3073920   6.5371540  79.7880060  85.2181930   7.3393970
  78.4304470  85.6533620   6.8299450  85.2642660  73.6578380   8.9326470
  84.6486930  74.1658050   8.4041930  84.9439080  72.7576710   8.8752410
  68.2668400  80.4995990   5.7592770  68.4299440  80.0301350   4.9412140
  68.7320850  79.9919550   6.4241610  77.3256980  72.4970270   6.3988660
  76.8636350  72.7053290   7.2108600  76.9235090  71.6829620   6.0959330
  82.3261490  73.7179220   7.5285320  81.4755080  73.4184970   7.8494390
  82.1663280  73.9621230   6.6169140  79.4211200  75.2180970   9.6284110
  79.7464610  74.3844720   9.2886340  80.2091530  75.7409490   9.7762440
  75.0763070  70.1749080   2.6542940  75.3735400  71.0811910   2.5734960
  75.6248630  69.6867860   2.0402510  75.2700600  75.6520900   9.1894860
  75.1744200  74.7115630   9.0395260  76.1132580  75.8735970   8.7942930
  70.4011140  72.0634570   7.3428640  70.0074530  72.9109780   7.5501420
  69.7129540  71.4260940   7.5337280  76.9756190  72.1469540  10.4125380
  76.2854510  71.9541740  11.0471470  77.7188490  72.4304180  10.9449680
  79.2519160  75.9867980   3.2479300  78.5200280  76.4954790   3.5969400
  78.8543500  75.1697960   2.9468080  79.7145070  71.4401660   2.6602240
  79.7317810  71.8910310   3.5044090  79.4660650  70.5407300   2.8735680
  83.1415820  68.8533840   8.4988620  83.4661590  68.1223500   9.0246600
  83.1772330  68.5347480   7.5969610  69.8407380  79.8747420   7.9188580
  69.4562170  79.2341090   8.5171540  70.1519570  80.5783540   8.4883310
  75.9904520  76.7223960   3.3997200  76.3574650  76.2482530   4.1458540
  75.8009580  77.5965530   3.7405540  73.7803890  75.7632600   5.7181410
  73.4760960  76.6424580   5.9431770  74.7350350  75.8232390   5.7538850
  83.0673660  78.9658950   2.1074650  83.7872780  79.4614240   1.7170760
  82.8655480  78.2876840   1.4628520  78.4492460  79.0368010   7.9943650
  78.3829770  78.1163680   7.7401240  77.8197600  79.1343450   8.7088290
  69.8367620  76.6035340   6.8652770  69.4782560  77.2689190   7.4526110
  69.5422180  75.7718890   7.2365390  73.0380740  77.0619580   9.7492320
  72.7380880  77.2076760   8.8520140  73.8091980  76.5024870   9.6565710
  78.3809190  81.8588580   7.7447450  78.3953730  80.9269540   7.5266360
  77.6734290  81.9448340   8.3837220  84.5920400  78.4995920   7.0916030
  83.8668590  79.0924700   6.8945420  85.1195860  78.4919460   6.2929400
  77.8143090  83.5006150   4.8387950  78.4585310  83.7065530   5.5161370
  78.1772530  82.7394550   4.3858800  79.0875170  81.5038500   3.5565400
  79.7297400  80.8031660   3.6697570  79.6124520  82.2836940   3.3762290
  80.8612790  82.3033400   6.7601460  81.1969030  82.8900090   7.4379380
  79.9413130  82.1726110   6.9899250  68.4116190  70.0928580   7.5424870
  67.6974710  70.2925500   8.1477480  68.8311230  69.3168150   7.9139670
  68.6988780  84.0808840   8.5291400  68.8079900  83.1403580   8.3886790
  68.0469340  84.3463590   7.8805130  76.6901370  82.3524730   9.9289520
  76.3698240  81.6333970  10.4735210  76.0159730  83.0279800  10.0025580
  79.9054970  72.5850890   5.2926320  80.2735790  71.7646100   5.6205890
  79.0453170  72.6452780   5.7081970  76.8656960  75.2390480   5.5164290
  77.3642210  75.7136300   6.1816140  77.0079910  74.3154000   5.7234320
  84.0723820  71.4558440   6.3592680  83.5697420  72.1963840   6.6986490
  84.8880480  71.8442440   6.0429470  70.8447220  85.1477750  10.3411010
  71.6459950  85.4689800  10.7546410  70.3299040  84.7873330  11.0630920
  79.6811850  81.2557620  10.2886420  79.0750010  81.2789220   9.5482170
  79.3765960  80.5240660  10.8253670  81.1112220  84.9837910   8.8995830
  82.0633970  84.8995930   8.8496070  80.9640440  85.6479620   9.5729620
  68.5645030  77.6351210   9.2847060  69.0684050  77.0558490   9.8563290
  67.8252450  77.9191440   9.8223430  75.6182970  79.0422200   8.8182580
  74.8528640  79.6107200   8.7337250  75.7998930  78.7498410   7.9250810
  82.7606320  80.7727530   9.3757600  83.5015790  81.1103290   8.8725060
  81.9979000  80.9419590   8.8227370  70.5968110  75.7780800  10.1797130
  70.6373450  75.4794670  11.0882360  71.4513610  76.1788410  10.0204650
  72.5373920  74.3572900   8.1471620  72.0070380  73.8663850   7.5194960
  73.2061990  74.7857100   7.6129550  81.4351980  78.8242360   7.9112810
  81.8493000  78.9787440   8.7603230  80.5002980  78.9497580   8.0738590
  81.9074150  76.1638520   9.9151960  82.4894920  75.4090840   9.8272440
  82.0835920  76.6945960   9.1383440  73.0246220  71.3235270   8.2268910
  72.9303090  70.7056020   7.5019780  72.4443610  72.0501560   7.9998820
  75.7907660  69.8808510   5.2596300  75.3424960  69.9032770   4.4141850
  75.1572860  69.4827530   5.8566600  76.1967210  78.7762840   5.8808740
  76.6155320  79.6195570   5.7084980  75.2775840  78.9134880   5.6515520
  78.5331110  76.5079020   7.2646580  78.6527320  75.9120160   8.0041420
  79.3925110  76.5448710   6.8447880  80.8719010  77.0616210   5.8409090
  80.3454230  77.5858830   5.2374230  81.2150350  77.6943600   6.4718820
  74.0474630  85.0815850   6.9966470  73.5095720  85.8061910   6.6775170
  74.3008590  84.6046190   6.2063810  75.2999880  73.0500370   8.5222400
  75.8899570  72.7416220   9.2100220  74.4820120  72.5780120   8.6782300
  80.1193310  72.6666180   8.7555420  79.4308830  72.0047720   8.6905410
  80.8399330  72.2204450   9.2003880  76.9036840  86.3167060   7.2553120
  76.8295540  87.2202200   7.5625490  76.0015680  85.9978960   7.2275190
  68.7954340  84.5112240   3.2968370  68.3585330  84.6913040   4.1292520
  69.3632020  85.2686860   3.1550090  84.4316520  84.0129240   7.5845680
  83.8318510  84.0721800   6.8409600  84.5610420  83.0734220   7.7142530
  83.1168160  80.7381220   5.6821840  82.3028000  81.1678380   5.9447630
  83.5242360  81.3499630   5.0690890  69.6654700  77.4085040   4.1960590
  70.0327740  77.3212440   5.0756610  69.0965520  76.6451590   4.0967450
  84.4658560  75.8769420   7.2091060  84.2344650  75.6482170   6.3089010
  84.7263110  76.7968970   7.1635950  69.2170700  74.3194130   8.1019010
  68.3226750  74.2860890   8.4412720  69.7568250  74.5180920   8.8670260
  82.9046630  71.1025850   9.9870760  83.7816810  71.1109250  10.3704760
  82.9167470  70.3656690   9.3763110  84.5299620  75.0395260   4.3978330
  83.5802330  75.0058800   4.5123320  84.7112630  75.9495370   4.1628100
  69.7210410  68.5942460   2.4502230  70.3686600  68.0439840   2.0097390
  70.1412250  68.8485610   3.2718040  83.6162750  68.7883820   5.8071870
  84.2534970  69.4017960   6.1731060  83.7637640  68.8244480   4.8621100
  69.4742410  68.7498130   5.1927550  69.1257230  69.2061950   5.9585730
  69.1430110  67.8555260   5.2749980  71.0806780  81.9217730   9.3580740
  71.0376410  81.5510640  10.2395200  71.2117790  82.8595300   9.4982560
  74.7812810  83.4777320   4.9590460  74.5404170  83.7451880   4.0720980
  75.7215450  83.6483050   5.0141320  76.9867230  69.9410010   8.7146970
  76.9256120  70.5331840   9.4642380  77.9267610  69.8335970   8.5697230
  79.6241790  69.5980070   8.3539260  80.2382200  69.9159360   7.6920340
  80.1691350  69.1128660   8.9735120  86.0416970  85.4971700   5.7601100
  85.5475250  85.8940570   5.0428230  85.4330260  84.8720910   6.1538380
  70.1463050  68.2774330   8.4678320  70.6946040  68.0962380   7.7044430
  70.2118360  67.4868440   9.0034630  70.9194810  84.8679980   6.4778520
  70.3255130  84.7364680   7.2168560  70.9118650  84.0318120   6.0120620
  80.3649830  68.1612210   4.6808550  79.4909670  68.4947320   4.4781480
  80.2560580  67.6885390   5.5060420  81.2721810  70.3683080   6.0650270
  80.9435170  69.5534840   5.6852000  82.2204110  70.3252890   5.9415960
  83.7256420  86.1395120   3.0387840  83.2659390  86.8910930   2.6645860
  83.0968880  85.4201590   2.9802640  70.5507040  82.2338360   5.4286560
  69.8241100  81.6143650   5.3612510  70.6116190  82.6278970   4.5584640
  74.1552140  84.4483360   2.2135970  74.6717160  83.8370720   1.6884230
  74.8049520  84.9512140   2.7046980  76.8947640  85.3391850   3.0404950
  77.1825450  85.0846150   2.1637960  77.4070860  84.7869210   3.6310520
  78.1124650  69.0782050   3.6201460  77.3296440  69.5527550   3.8998220
  77.8187580  68.1736880   3.5114640  76.9620000  86.2607950  10.4073150
  77.8887310  86.0252220  10.4509110  76.9470430  87.0879950   9.9259180
  74.1483610  68.9252700  10.1715030  73.8667880  69.4286300   9.4075850
  74.5303310  68.1274450   9.8057160  80.7499070  68.3406280  10.7495500
  80.6364520  68.6600890  11.6447020  81.5668810  68.7418790  10.4532780
  83.5297560  85.4877810  10.2314190  84.3222880  84.9927040  10.0240150
  83.8230710  86.1667950  10.8389800  79.6557220  57.5855260 150.0821650
  79.5751270  56.6709870 149.8113360  79.2421640  58.0822330 149.3761360
  81.8082690  63.7694470 150.7430050  81.3464220  62.9981710 151.0717220
  82.6208240  63.7960540 151.2482500  70.2133040  54.6355980 146.6249070
  69.3249740  54.9771950 146.5228950  70.4974230  54.4356300 145.7329900
  78.0346000  66.0552480 150.3634040  77.4157440  66.5109980 149.7928480
  78.8897780  66.2103940 149.9623740  72.3894430  53.2187480 147.6587450
  72.4961180  54.1191210 147.9656210  71.4786790  53.1705450 147.3682100
  82.0413540  52.3412290 149.1298350  82.8623160  51.8508860 149.1723830
  82.0747620  52.9309950 149.8830190  78.9009350  60.9391720 147.7565950
  78.2826620  61.4041170 147.1928670  79.4132600  61.6319200 148.1735460
  68.2692550  61.6248250 145.1305580  67.8920530  62.1135350 144.3990480
  68.5265620  62.2973530 145.7612110  75.8781480  50.0264640 150.5891090
  76.1856460  49.4711530 149.8726590  74.9482180  50.1609100 150.4064080
  82.7241960  62.4648150 147.9688720  82.6138290  61.5222480 148.0938140
  82.7210210  62.8263790 148.8551480  78.2662240  58.0913470 147.3251210
  77.3391520  58.0250850 147.5539680  78.4187060  59.0293600 147.2106450
  78.2531320  54.3630470 144.3218370  77.3134990  54.5244430 144.4070830
  78.5714580  55.0816150 143.7754360  82.2959530  59.6533770 147.8286460
  81.6771950  59.3153320 147.1812760  82.2783980  59.0093530 148.5365650
  73.8718880  58.6178210 150.1070940  73.4675880  57.9055460 149.6116840
  73.9582000  58.2731450 150.9958980  80.4724230  58.8920580 144.8359210
  80.9117510  58.0543010 144.6897030  81.1852650  59.5249980 144.9223350
  78.5819610  63.8316650 148.8040450  79.0215520  64.5740980 148.3895840
  78.5206500  64.0743220 149.7279410  84.0541370  50.1463390 143.1500250
  83.7414030  50.2390220 144.0499320  84.8153840  50.7244420 143.0997680
  70.5723510  57.5123190 147.6077590  70.4521110  58.2385280 146.9958860
  70.2624400  56.7426100 147.1305500  69.4556510  62.3838520 149.8252410
  69.0484590  62.5253110 148.9706010  70.3469520  62.0998680 149.6223620
  81.2489790  66.8185770 146.1603460  81.0890930  66.5288710 147.0585290
  81.0836500  66.0425900 145.6248690  73.7278170  66.5984300 147.9375080
  73.5520650  65.6819840 147.7242880  72.8733910  66.9571590 148.1772880
  80.9515920  64.3273330 144.7201460  80.2581080  64.3250620 144.0603740
  81.6938780  63.9032650 144.2895630  80.5165850  65.9536040 148.7949950
  80.9722800  65.1725420 149.1088570  80.8558370  66.6642860 149.3391130
  73.0387170  50.8558260 150.9901260  72.5955320  51.6367800 150.6585780
  73.5972160  51.1788150 151.6972200  76.1545990  50.4768960 145.8707090
  75.5300170  50.4728830 146.5960400  76.0676110  49.6099920 145.4743060
  72.8301390  55.9791830 148.7182510  72.6042310  55.7629000 149.6229130
  72.0493920  56.4120290 148.3728480  80.0599150  55.9855200 147.3173160
  79.4608040  56.7091000 147.1336780  80.6078760  55.9231980 146.5349610
  78.6664020  54.6218740 149.3476440  79.0593590  54.9390940 148.5345130
  79.0280870  53.7430620 149.4620960  67.8898420  55.1539660 142.7809360
  67.8073090  56.0970420 142.9224350  67.5381480  55.0114570 141.9021710
  71.5398930  53.7705180 150.8073920  71.1998980  54.2480410 151.5640970
  70.7776250  53.3170300 150.4475020  75.7516700  54.8890770 144.8386470
  75.8729520  54.8477250 145.7872290  75.3665210  55.7514920 144.6833200
  74.7638200  57.1991910 144.2369770  74.1955100  56.7510160 143.6105680
  75.4727200  57.5584690 143.7034920  68.8545010  52.6924160 149.7238590
  68.5691930  52.3279830 150.5617210  68.7923870  51.9604620 149.1101730
  72.3085680  61.1950100 146.5096180  71.5347940  60.6547720 146.3494900
  73.0380310  60.6756710 146.1713940  78.5283600  51.5853420 146.4451960
  77.7148210  51.0866590 146.3697270  78.3345550  52.4251670 146.0288310
  81.2431990  55.9573070 144.7414120  82.1311610  56.2690300 144.5665460
  81.2137080  55.0845320 144.3494700  72.3523080  60.8630480 150.1474990
  72.8701750  60.0598740 150.0931880  71.9007100  60.8009620 150.9891820
  77.2392580  62.1296760 145.4202290  77.5808280  62.8738990 144.9245610
  76.4105290  62.4427880 145.7827120  83.5146260  57.2684910 144.2093980
  83.4309980  57.6999130 143.3590420  84.2340450  57.7283260 144.6420800
  84.5433510  64.1227170 146.9376110  83.9009670  63.4682790 147.2119830
  84.1564170  64.5282260 146.1616780  80.1219990  61.4512600 150.7847800
  80.4743810  60.8540730 150.1249170  79.2382320  61.1256830 150.9556050
  76.2083270  62.2110290 148.1918210  76.8954400  62.7579500 148.5725800
  75.4215690  62.7551020 148.2267820  68.3475670  57.8283110 143.6835290
  69.2170520  58.1107910 143.9671210  67.8565990  58.6418980 143.5684100
  75.5110480  59.2156320 147.8043570  75.9673260  60.0261570 148.0303760
  75.1598690  58.8979460 148.6362060  71.4122260  49.5593970 148.2766090
  71.2836890  49.5511870 149.2251010  70.5884280  49.8977060 147.9257100
  82.9330890  63.0143630 143.4752460  82.7068470  62.2974070 144.0677100
  82.5427090  62.7656070 142.6374210  68.7146920  67.0410490 144.2496920
  69.0744560  67.6399830 143.5954190  68.5739260  67.5870380 145.0231950
  82.5147140  60.9315570 145.1366620  82.2268840  61.3928260 145.9244500
  83.3099310  60.4713340 145.4050840  74.7315540  64.4241690 145.0670590
  74.7225640  65.1571380 144.4515100  73.8113900  64.1773270 145.1597550
  70.3322180  59.6456580 145.8117350  69.7250130  60.3855480 145.8212650
  70.8071530  59.7355940 144.9855550  83.2717000  52.7664340 146.2961800
  82.6430160  52.8710010 145.5820030  82.7768920  52.9861120 147.0855680
  77.7175140  64.4869930 143.7295780  77.8187120  64.2833920 142.7997760
  76.8176880  64.2328210 143.9343560  75.2401030  55.0450290 147.7119680
  74.5317180  55.5136630 148.1533290  75.5245510  54.3872300 148.3464870
  79.2716460  51.7700950 149.1515470  79.1484240  51.7887080 148.2024980
  80.2201020  51.8179890 149.2713870  76.3593250  67.0056250 148.4243450
  76.6134750  66.9677640 147.5022820  75.4105730  66.8789580 148.4171700
  73.4436050  53.3535370 145.0870390  74.2926580  53.7905520 145.0210580
  73.0767320  53.6655630 145.9142450  82.3645830  57.9248130 150.0001960
  81.4235970  57.9398360 150.1749650  82.6789900  57.1384090 150.4462260
  72.3427470  59.6067730 143.5605920  73.1090740  59.4949090 144.1231350
  72.4202160  58.9105700 142.9082690  71.0374230  57.0392800 144.2438810
  71.1177820  56.0920310 144.3556210  71.9293980  57.3699680 144.3499470
  71.8388940  67.1888190 151.3473350  72.5751420  66.6403650 151.6181920
  72.2229860  68.0544200 151.2079340  68.7234420  63.2561760 147.2214860
  67.7974200  63.4982900 147.2120270  69.1890850  64.0836020 147.0999610
  74.9491250  66.3618500 143.1698920  75.7419860  66.6507330 142.7180710
  74.4295600  65.9310670 142.4911400  84.0021420  65.5888630 144.5935660
  83.7162930  65.1753770 143.7789840  83.8040970  66.5176340 144.4736180
  75.4668650  61.5821910 143.0341270  75.3619290  60.9674260 143.7602650
  75.2992870  61.0587800 142.2504280  78.7071380  60.6441940 143.6383260
  78.1581480  61.0911240 144.2826000  79.3290640  60.1391190 144.1620930
  74.3746500  59.6032860 145.5348560  74.7962920  59.4372730 146.3779950
  74.4997340  58.7933090 145.0403700  76.8874140  58.6270470 142.7825660
  77.4079800  57.9119490 142.4166810  77.5342540  59.2656340 143.0826170
  73.2705400  55.6766090 142.4806720  73.0694460  54.8133450 142.8420060
  73.0997450  55.5899450 141.5428320  80.7493710  50.4874320 145.0093600
  81.0296000  49.6442220 145.3653020  79.9759440  50.7197430 145.5232350
  72.0688200  52.7766710 142.4684600  72.3714100  52.7834140 141.5603750
  72.8082790  52.4264570 142.9652260  75.2873130  51.7201330 143.4540800
  74.9395130  51.0425320 142.8743250  75.4885900  51.2590840 144.2684190
  77.4522170  66.7082080 145.0727400  78.3472960  67.0467050 145.0946160
  77.4839800  65.9861490 144.4451680  71.0918330  62.0809130 143.3014400
  71.5293200  62.6238800 143.9571980  71.5766060  61.2556080 143.3110740
  68.3064130  64.8698160 150.7534660  68.6367140  64.0019220 150.5213300
  68.7355130  65.0756680 151.5839620  72.9026050  63.2007170 148.4136630
  72.6021590  63.0772140 149.3140540  72.7963540  62.3415760 148.0052360
  85.6717970  62.9803570 143.1163310  84.8410930  63.0480220 143.5870540
  85.8489800  63.8707690 142.8130170  85.1274430  59.7251050 145.6197510
  85.8893340  60.2947700 145.7257200  85.1428800  59.1578250 146.3905820
  68.6278770  58.2488980 149.8505170  67.9727610  57.9800620 149.2064870
  69.4656720  58.1393460 149.4007150  86.1334400  60.5801150 150.4639440
  86.5043230  59.7968470 150.0575410  86.7736330  61.2690250 150.2856740
  85.1793600  60.0185420 142.7770030  85.4542440  60.9264300 142.6489250
  84.9904340  59.9547950 143.7132020  81.5769210  53.0430270 144.0723660
  81.9954090  52.8561250 143.2320320  81.2705270  52.1909320 144.3826590
  85.0758940  57.9554410 147.7699460  84.7002540  57.1882340 147.3380750
  84.3462060  58.3377110 148.2574390  67.8416850  55.4587910 145.7930500
  66.9380930  55.7218110 145.6182160  68.3257470  55.7299080 145.0130460
  70.3844060  54.5153450 143.7024880  71.0935760  54.0936670 143.2172160
  69.6684000  54.5828680 143.0708230  70.0318220  50.5692780 142.7427530
  70.7546350  51.1101720 143.0608750  70.3042740  50.2956200 141.8669070
  83.8409870  55.4385250 147.0099110  84.3368990  55.2056120 147.7947990
  83.6425940  54.5997090 146.5936750  85.2697030  54.0746200 149.5436790
  85.1596310  53.9202240 150.4819060  86.0304620  53.5467140 149.3012200
  86.1587300  51.9054120 142.7842930  87.0836610  51.7735300 142.5761220
  86.1363090  51.9846940 143.7379380  86.2325790  52.6764780 145.4099640
  85.4377290  52.6109900 145.9392550  86.4369070  53.6115420 145.3984990
  83.1744210  66.7156330 149.4038030  83.7703280  66.3940900 148.7272450
  83.4322360  66.2428150 150.1951300  84.5284290  50.6376900 149.8707290
  84.4672690  49.6938120 149.7238310  85.3076320  50.7456990 150.4160750
  68.8337040  66.7769260 148.8331240  68.6659080  66.1439940 149.5313130
  67.9671550  66.9828660 148.4825430  69.4565060  50.6086040 146.3363100
  70.2144420  50.7214920 145.7627130  68.9942230  51.4455240 146.2906530
  75.9978870  52.7225310 149.3265410  75.1853380  52.3482200 148.9861290
  76.5020510  51.9670390 149.6286600  80.5003850  49.3867760 150.5648480
  81.1033220  49.9587970 151.0397000  79.7596840  49.9507200 150.3422380
  83.6438450  49.7889320 145.8388760  83.8389080  50.6872770 146.1056190
  82.8568320  49.5576400 146.3321710  70.4399740  65.4702490 146.2781380
  69.9147360  65.8510520 145.5743340  70.3644320  66.0953260 146.9991090
  71.8290210  51.1350090 144.8765070  72.3582970  50.3479890 144.7473020
  72.4618530  51.8141280 145.1100600  74.0228050  50.8725230 147.9310460
  73.3930790  50.1712540 148.0980590  73.4833190  51.6329360 147.7143620
  85.1965060  67.0290030 147.5995320  85.3717250  66.3427770 146.9556240
  84.4986630  67.5537080 147.2071990  73.0392710  67.4184870 145.1530630
  73.7711530  67.1344150 144.6054520  73.2986380  67.1798150 146.0430010
  72.2007500  63.5349600 145.1576960  71.5716380  64.0034700 145.7062790
  72.3155330  62.6898820 145.5923150  71.8041090  59.6754090 134.0663190
  70.9725970  59.4202800 134.4659700  72.4122070  59.7464860 134.8021110
  70.2133040  54.6355980 127.8505580  69.3249740  54.9771950 127.7485460
  70.4974230  54.4356300 126.9586410  72.3894430  53.2187480 128.8843960
  72.4961180  54.1191210 129.1912720  71.4786790  53.1705450 128.5938610
  82.0413540  52.3412290 130.3554860  82.8623160  51.8508860 130.3980340
  82.0747620  52.9309950 131.1086700  70.0377590  55.1406490 134.1296550
  70.7187700  55.4044860 134.7483950  69.7225640  54.3007360 134.4634560
  72.5138260  50.8272410 137.4832560  72.5156700  51.3444800 136.6778460
  71.6842570  50.3502590 137.4602490  82.2775020  54.2812670 133.1282400
  81.5730590  54.5697560 133.7085510  82.6387180  55.0912780 132.7681960
  72.1953590  52.5382370 135.4903010  72.5370400  53.3824420 135.1956880
  71.2569400  52.6866110 135.6068350  72.9760210  62.4348390 137.4755240
  73.5934210  63.1099470 137.1939690  72.1153330  62.8436370 137.3842740
  68.2692550  61.6248250 126.3562090  67.8920530  62.1135350 125.6246990
  68.5265620  62.2973530 126.9868620  75.8781480  50.0264640 131.8147600
  76.1856460  49.4711530 131.0983100  74.9482180  50.1609100 131.6320590
  84.7744080  59.0448990 135.5253910  83.9462710  59.1142080 135.0504040
  85.3694560  59.6303300 135.0569740  82.2959530  59.6533770 129.0542970
  81.6771950  59.3153320 128.4069270  82.2783980  59.0093530 129.7622160
  81.7386090  55.8318310 136.4708780  81.3257270  56.6572020 136.7248770
  81.0062040  55.2463350 136.2785140  73.8718880  58.6178210 131.3327450
  73.4675880  57.9055460 130.8373350  73.9582000  58.2731450 132.2215490
  82.4286190  65.8777640 137.1589760  81.9516750  66.6849830 136.9662370
  81.7447980  65.2255970 137.3115970  73.4319010  62.0427460 140.1474460
  72.5347540  62.2667430 140.3947860  73.4571880  62.1662400 139.1985860
  72.2590230  58.9140780 138.7231830  72.1198000  59.7863580 139.0919230
  71.3771590  58.5713590 138.5779770  74.0570580  64.8562480 140.9316980
  74.0286010  65.2605430 140.0645410  73.8935550  63.9272840 140.7688580
  70.5723510  57.5123190 128.8334100  70.4521110  58.2385280 128.2215370
  70.2624400  56.7426100 128.3562010  86.0085400  65.6389580 142.2281150
  86.4845120  66.1172470 142.9070230  86.6292560  65.5707070 141.5026650
  68.2108880  60.6838330 134.6402740  68.2889300  60.8187100 133.6958460
  68.8250560  59.9754220 134.8330860  69.4556510  62.3838520 131.0508920
  69.0484590  62.5253110 130.1962520  70.3469520  62.0998680 130.8480130
  85.4118650  62.8302430 139.3881160  85.5381710  62.5914310 138.4698340
  85.4540030  61.9986970 139.8603240  85.2642660  54.8834890 140.3530900
  84.6486930  55.3914560 139.8246360  84.9439080  53.9833220 140.2956840
  68.2668400  61.7252500 137.1797200  68.4299440  61.2557860 136.3616570
  68.7320850  61.2176060 137.8446040  73.0387170  50.8558260 132.2157770
  72.5955320  51.6367800 131.8842290  73.5972160  51.1788150 132.9228710
  77.3256980  53.7226780 137.8193090  76.8636350  53.9309800 138.6313030
  76.9235090  52.9086130 137.5163760  82.3261490  54.9435730 138.9489750
  81.4755080  54.6441480 139.2698820  82.1663280  55.1877740 138.0373570
  79.4211200  56.4437480 141.0488540  79.7464610  55.6101230 140.7090770
  80.2091530  56.9666000 141.1966870  76.1545990  50.4768960 127.0963600
  75.5300170  50.4728830 127.8216910  76.0676110  49.6099920 126.6999570
  75.0763070  51.4005590 134.0747370  75.3735400  52.3068420 133.9939390
  75.6248630  50.9124370 133.4606940  70.4011140  53.2891080 138.7633070
  70.0074530  54.1366290 138.9705850  69.7129540  52.6517450 138.9541710
  76.9756190  53.3726050 141.8329810  76.2854510  53.1798250 142.4675900
  77.7188490  53.6560690 142.3654110  67.8898420  55.1539660 124.0065870
  67.8073090  56.0970420 124.1480860  67.5381480  55.0114570 123.1278220
  71.5398930  53.7705180 132.0330430  71.1998980  54.2480410 132.7897480
  70.7776250  53.3170300 131.6731530  79.7145070  52.6658170 134.0806670
  79.7317810  53.1166820 134.9248520  79.4660650  51.7663810 134.2940110
  83.1415820  50.0790350 139.9193050  83.4661590  49.3480010 140.4451030
  83.1772330  49.7603990 139.0174040  69.8407380  61.1003930 139.3393010
  69.4562170  60.4597600 139.9375970  70.1519570  61.8040050 139.9087740
  72.3085680  61.1950100 127.7352690  71.5347940  60.6547720 127.5751410
  73.0380310  60.6756710 127.3970450  78.5283600  51.5853420 127.6708470
  77.7148210  51.0866590 127.5953780  78.3345550  52.4251670 127.2544820
  81.2431990  55.9573070 125.9670630  82.1311610  56.2690300 125.7921970
  81.2137080  55.0845320 125.5751210  72.3523080  60.8630480 131.3731500
  72.8701750  60.0598740 131.3188390  71.9007100  60.8009620 132.2148330
  77.2392580  62.1296760 126.6458800  77.5808280  62.8738990 126.1502120
  76.4105290  62.4427880 127.0083630  69.8367620  57.8291850 138.2857200
  69.4782560  58.4945700 138.8730540  69.5422180  56.9975400 138.6569820
  73.0380740  58.2876090 141.1696750  72.7380880  58.4333270 140.2724570
  73.8091980  57.7281380 141.0770140  83.5146260  57.2684910 125.4350490
  83.4309980  57.6999130 124.5846930  84.2340450  57.7283260 125.8677310
  84.5920400  59.7252430 138.5120460  83.8668590  60.3181210 138.3149850
  85.1195860  59.7175970 137.7133830  68.3475670  57.8283110 124.9091800
  69.2170520  58.1107910 125.1927720  67.8565990  58.6418980 124.7940610
  71.4122260  49.5593970 129.5022600  71.2836890  49.5511870 130.4507520
  70.5884280  49.8977060 129.1513610  68.4116190  51.3185090 138.9629300
  67.6974710  51.5182010 139.5681910  68.8311230  50.5424660 139.3344100
  82.5147140  60.9315570 126.3623130  82.2268840  61.3928260 127.1501010
  83.3099310  60.4713340 126.6307350  68.6988780  65.3065350 139.9495830
  68.8079900  64.3660090 139.8091220  68.0469340  65.5720100 139.3009560
  76.6901370  63.5781240 141.3493950  76.3698240  62.8590480 141.8939640
  76.0159730  64.2536310 141.4230010  74.7315540  64.4241690 126.2927100
  74.7225640  65.1571380 125.6771610  73.8113900  64.1773270 126.3854060
  70.3322180  59.6456580 127.0373860  69.7250130  60.3855480 127.0469160
  70.8071530  59.7355940 126.2112060  79.9054970  53.8107400 136.7130750
  80.2735790  52.9902610 137.0410320  79.0453170  53.8709290 137.1286400
  77.7175140  64.4869930 124.9552290  77.8187120  64.2833920 124.0254270
  76.8176880  64.2328210 125.1600070  79.2716460  51.7700950 130.3771980
  79.1484240  51.7887080 129.4281490  80.2201020  51.8179890 130.4970380
  73.4436050  53.3535370 126.3126900  74.2926580  53.7905520 126.2467090
  73.0767320  53.6655630 127.1398960  84.0723820  52.6814950 137.7797110
  83.5697420  53.4220350 138.1190920  84.8880480  53.0698950 137.4633900
  82.3645830  57.9248130 131.2258470  81.4235970  57.9398360 131.4006160
  82.6789900  57.1384090 131.6718770  72.3427470  59.6067730 124.7862430
  73.1090740  59.4949090 125.3487860  72.4202160  58.9105700 124.1339200
  71.0374230  57.0392800 125.4695320  71.1177820  56.0920310 125.5812720
  71.9293980  57.3699680 125.5755980  84.3671410  65.0956980 132.9012730
  84.4918830  65.9188150 133.3736540  85.2336970  64.8847710 132.5536880
  68.7234420  63.2561760 128.4471370  67.7974200  63.4982900 128.4376780
  69.1890850  64.0836020 128.3256120  70.8447220  66.3734260 141.7615440
  71.6459950  66.6946310 142.1750840  70.3299040  66.0129840 142.4835350
  74.9491250  66.3618500 124.3955430  75.7419860  66.6507330 123.9437220
  74.4295600  65.9310670 123.7167910  79.6811850  62.4814130 141.7090850
  79.0750010  62.5045730 140.9686600  79.3765960  61.7497170 142.2458100
  81.1112220  66.2094420 140.3200260  82.0633970  66.1252440 140.2700500
  80.9640440  66.8736130 140.9934050  68.5645030  58.8607720 140.7051490
  69.0684050  58.2815000 141.2767720  67.8252450  59.1447950 141.2427860
  75.4668650  61.5821910 124.2597780  75.3619290  60.9674260 124.9859160
  75.2992870  61.0587800 123.4760790  82.7606320  61.9984040 140.7962030
  83.5015790  62.3359800 140.2929490  81.9979000  62.1676100 140.2431800
  70.5968110  57.0037310 141.6001560  70.6373450  56.7051180 142.5086790
  71.4513610  57.4044920 141.4409080  72.5373920  55.5829410 139.5676050
  72.0070380  55.0920360 138.9399390  73.2061990  56.0113610 139.0333980
  81.4351980  60.0498870 139.3317240  81.8493000  60.2043950 140.1807660
  80.5002980  60.1754090 139.4943020  81.9074150  57.3895030 141.3356390
  82.4894920  56.6347350 141.2476870  82.0835920  57.9202470 140.5587870
  73.0246220  52.5491780 139.6473340  72.9303090  51.9312530 138.9224210
  72.4443610  53.2758070 139.4203250  75.7907660  51.1065020 136.6800730
  75.3424960  51.1289280 135.8346280  75.1572860  50.7084040 137.2771030
  80.8719010  58.2872720 137.2613520  80.3454230  58.8115340 136.6578660
  81.2150350  58.9200110 137.8923250  73.2705400  55.6766090 123.7063230
  73.0694460  54.8133450 124.0676570  73.0997450  55.5899450 122.7684830
  74.0474630  66.3072360 138.4170900  73.5095720  67.0318420 138.0979600
  74.3008590  65.8302700 137.6268240  75.2999880  54.2756880 139.9426830
  75.8899570  53.9672730 140.6304650  74.4820120  53.8036630 140.0986730
  80.1193310  53.8922690 140.1759850  79.4308830  53.2304230 140.1109840
  80.8399330  53.4460960 140.6208310  72.0688200  52.7766710 123.6941110
  72.3714100  52.7834140 122.7860260  72.8082790  52.4264570 124.1908770
  75.2873130  51.7201330 124.6797310  74.9395130  51.0425320 124.0999760
  75.4885900  51.2590840 125.4940700  77.4522170  66.7082080 126.2983910
  78.3472960  67.0467050 126.3202670  77.4839800  65.9861490 125.6708190
  71.0918330  62.0809130 124.5270910  71.5293200  62.6238800 125.1828490
  71.5766060  61.2556080 124.5367250  72.9026050  63.2007170 129.6393140
  72.6021590  63.0772140 130.5397050  72.7963540  62.3415760 129.2308870
  84.4316520  65.2385750 139.0050110  83.8318510  65.2978310 138.2614030
  84.5610420  64.2990730 139.1346960  85.1274430  59.7251050 126.8454020
  85.8893340  60.2947700 126.9513710  85.1428800  59.1578250 127.6162330
  68.6278770  58.2488980 131.0761680  67.9727610  57.9800620 130.4321380
  69.4656720  58.1393460 130.6263660  86.1334400  60.5801150 131.6895950
  86.5043230  59.7968470 131.2831920  86.7736330  61.2690250 131.5113250
  85.1793600  60.0185420 124.0026540  85.4542440  60.9264300 123.8745760
  84.9904340  59.9547950 124.9388530  81.5769210  53.0430270 125.2980170
  81.9954090  52.8561250 124.4576830  81.2705270  52.1909320 125.6083100
  85.0758940  57.9554410 128.9955970  84.7002540  57.1882340 128.5637260
  84.3462060  58.3377110 129.4830900  69.6654700  58.6341550 135.6165020
  70.0327740  58.5468950 136.4961040  69.0965520  57.8708100 135.5171880
  84.4658560  57.1025930 138.6295490  84.2344650  56.8738680 137.7293440
  84.7263110  58.0225480 138.5840380  69.2170700  55.5450640 139.5223440
  68.3226750  55.5117400 139.8617150  69.7568250  55.7437430 140.2874690
  82.9046630  52.3282360 141.4075190  83.7816810  52.3365760 141.7909190
  82.9167470  51.5913200 140.7967540  67.8416850  55.4587910 127.0187010
  66.9380930  55.7218110 126.8438670  68.3257470  55.7299080 126.2386970
  84.3509900  56.1811900 132.2963210  84.8747380  55.6874550 131.6653380
  84.9369320  56.3162260 133.0410780  84.5299620  56.2651770 135.8182760
  83.5802330  56.2315310 135.9327750  84.7112630  57.1751880 135.5832530
  70.3844060  54.5153450 124.9281390  71.0935760  54.0936670 124.4428670
  69.6684000  54.5828680 124.2964740  70.0318220  50.5692780 123.9684040
  70.7546350  51.1101720 124.2865260  70.3042740  50.2956200 123.0925580
  83.8409870  55.4385250 128.2355620  84.3368990  55.2056120 129.0204500
  83.6425940  54.5997090 127.8193260  69.7210410  49.8198970 133.8706660
  70.3686600  49.2696350 133.4301820  70.1412250  50.0742120 134.6922470
  83.6162750  50.0140330 137.2276300  84.2534970  50.6274470 137.5935490
  83.7637640  50.0500990 136.2825530  86.1587300  51.9054120 124.0099440
  87.0836610  51.7735300 123.8017730  86.1363090  51.9846940 124.9635890
  86.2325790  52.6764780 126.6356150  85.4377290  52.6109900 127.1649060
  86.4369070  53.6115420 126.6241500  83.1744210  66.7156330 130.6294540
  83.7703280  66.3940900 129.9528960  83.4322360  66.2428150 131.4207810
  69.4742410  49.9754640 136.6131980  69.1257230  50.4318460 137.3790160
  69.1430110  49.0811770 136.6954410  71.0806780  63.1474240 140.7785170
  71.0376410  62.7767150 141.6599630  71.2117790  64.0851810 140.9186990
  76.9867230  51.1666520 140.1351400  76.9256120  51.7588350 140.8846810
  77.9267610  51.0592480 139.9901660  79.6241790  50.8236580 139.7743690
  80.2382200  51.1415870 139.1124770  80.1691350  50.3385170 140.3939550
  86.0416970  66.7228210 137.1805530  85.5475250  67.1197080 136.4632660
  85.4330260  66.0977420 137.5742810  70.1463050  49.5030840 139.8882750
  70.6946040  49.3218890 139.1248860  70.2118360  48.7124950 140.4239060
  80.3649830  49.3868720 136.1012980  79.4909670  49.7203830 135.8985910
  80.2560580  48.9141900 136.9264850  81.2721810  51.5939590 137.4854700
  80.9435170  50.7791350 137.1056430  82.2204110  51.5509400 137.3620390
  83.7256420  67.3651630 134.4592270  83.2659390  68.1167440 134.0850290
  83.0968880  66.6458100 134.4007070  78.1124650  50.3038560 135.0405890
  77.3296440  50.7784060 135.3202650  77.8187580  49.3993390 134.9319070
  82.6645720  51.0061660 133.0854980  83.1053810  50.9506760 132.2376580
  82.3953310  51.9219670 133.1565160  69.4565060  50.6086040 127.5619610
  70.2144420  50.7214920 126.9883640  68.9942230  51.4455240 127.5163040
  80.5003850  49.3867760 131.7904990  81.1033220  49.9587970 132.2653510
  79.7596840  49.9507200 131.5678890  70.4399740  65.4702490 127.5037890
  69.9147360  65.8510520 126.7999850  70.3644320  66.0953260 128.2247600
  71.8290210  51.1350090 126.1021580  72.3582970  50.3479890 125.9729530
  72.4618530  51.8141280 126.3357110  74.0228050  50.8725230 129.1566970
  73.3930790  50.1712540 129.3237100  73.4833190  51.6329360 128.9400130
  76.9620000  67.4864460 141.8277580  77.8887310  67.2508730 141.8713540
  76.9470430  68.3136460 141.3463610  74.1483610  50.1509210 141.5919460
  73.8667880  50.6542810 140.8280280  74.5303310  49.3530960 141.2261590
  73.0392710  67.4184870 126.3787140  73.7711530  67.1344150 125.8311030
  73.2986380  67.1798150 127.2686520  72.2007500  63.5349600 126.3833470
  71.5716380  64.0034700 126.9319300  72.3155330  62.6898820 126.8179660
  80.7499070  49.5662790 142.1699930  80.6364520  49.8857400 143.0651450
  81.5668810  49.9675300 141.8737210  83.5297560  66.7134320 141.6518620
  84.3222880  66.2183550 141.4444580  83.8230710  67.3924460 142.2594230
  81.8082690  63.7694470 113.1943070  81.3464220  62.9981710 113.5230240
  82.6208240  63.7960540 113.6995520  77.2284250  62.0391470 114.4214100
  77.1592530  61.0981410 114.2603230  77.9904110  62.1292880 114.9936670
  69.4190920  52.6445990 116.7470720  69.2393760  51.7471740 117.0273480
  69.0171000  53.1917860 117.4217670  72.3894430  53.2187480 110.1100470
  72.4961180  54.1191210 110.4169230  71.4786790  53.1705450 109.8195120
  74.2302160  56.1873850 114.4425650  74.7380380  56.6854820 115.0830670
  74.7615400  55.4109050 114.2665010  72.5138260  50.8272410 118.7089070
  72.5156700  51.3444800 117.9034970  71.6842570  50.3502590 118.6859000
  78.9009350  60.9391720 110.2078970  78.2826620  61.4041170 109.6441690
  79.4132600  61.6319200 110.6248480  73.7641110  60.4667590 116.8862570
  73.4310490  61.0936510 117.5283640  73.9407790  60.9929470 116.1064240
  72.1953590  52.5382370 116.7159520  72.5370400  53.3824420 116.4213390
  71.2569400  52.6866110 116.8324860  72.9760210  62.4348390 118.7011750
  73.5934210  63.1099470 118.4196200  72.1153330  62.8436370 118.6099250
  83.8937800  63.8987800 116.6166390  83.2101320  64.5686910 116.6083060
  84.4332090  64.0968450 115.8511250  85.3461940  53.7267460 114.7448120
  84.3986850  53.7606440 114.8763550  85.6711930  54.5406410 115.1297480
  81.4296540  65.7431930 115.3311570  81.4423700  65.3394220 114.4633830
  80.8771760  66.5179220 115.2273000  78.2531320  54.3630470 106.7731390
  77.3134990  54.5244430 106.8583850  78.5714580  55.0816150 106.2267380
  72.5847500  55.3921420 116.3383000  73.1362090  55.5016760 115.5636250
  73.0991010  55.7659020 117.0538230  73.4319010  62.0427460 121.3730970
  72.5347540  62.2667430 121.6204370  73.4571880  62.1662400 120.4242370
  72.2590230  58.9140780 119.9488340  72.1198000  59.7863580 120.3175740
  71.3771590  58.5713590 119.8036280  78.5819610  63.8316650 111.2553470
  79.0215520  64.5740980 110.8408860  78.5206500  64.0743220 112.1792430
  74.0570580  64.8562480 122.1573490  74.0286010  65.2605430 121.2901920
  73.8935550  63.9272840 121.9945090  84.0541370  50.1463390 105.6013270
  83.7414030  50.2390220 106.5012340  84.8153840  50.7244420 105.5510700
  85.4118650  62.8302430 120.6137670  85.5381710  62.5914310 119.6954850
  85.4540030  61.9986970 121.0859750  79.2735390  66.5330430 119.1832480
  79.7880060  66.4438440 119.9854910  78.4304470  66.8790130 119.4760390
  73.0387170  50.8558260 113.4414280  72.5955320  51.6367800 113.1098800
  73.5972160  51.1788150 114.1485220  77.3256980  53.7226780 119.0449600
  76.8636350  53.9309800 119.8569540  76.9235090  52.9086130 118.7420270
  79.4211200  56.4437480 122.2745050  79.7464610  55.6101230 121.9347280
  80.2091530  56.9666000 122.4223380  76.1545990  50.4768960 108.3220110
  75.5300170  50.4728830 109.0473420  76.0676110  49.6099920 107.9256080
  75.2700600  56.8777410 121.8355800  75.1744200  55.9372140 121.6856200
  76.1132580  57.0992480 121.4403870  70.4011140  53.2891080 119.9889580
  70.0074530  54.1366290 120.1962360  69.7129540  52.6517450 120.1798220
  76.9756190  53.3726050 123.0586320  76.2854510  53.1798250 123.6932410
  77.7188490  53.6560690 123.5910620  75.6896550  53.8878690 114.2992730
  75.6932610  53.4468640 113.4497270  76.5847670  54.2096020 114.4064550
  79.7145070  52.6658170 115.3063180  79.7317810  53.1166820 116.1505030
  79.4660650  51.7663810 115.5196620  83.1415820  50.0790350 121.1449560
  83.4661590  49.3480010 121.6707540  83.1772330  49.7603990 120.2430550
  69.8407380  61.1003930 120.5649520  69.4562170  60.4597600 121.1632480
  70.1519570  61.8040050 121.1344250  73.7803890  56.9889110 118.3642350
  73.4760960  57.8681090 118.5892710  74.7350350  57.0488900 118.3999790
  78.5283600  51.5853420 108.8964980  77.7148210  51.0866590 108.8210290
  78.3345550  52.4251670 108.4801330  81.2431990  55.9573070 107.1927140
  82.1311610  56.2690300 107.0178480  81.2137080  55.0845320 106.8007720
  69.8367620  57.8291850 119.5113710  69.4782560  58.4945700 120.0987050
  69.5422180  56.9975400 119.8826330  73.0380740  58.2876090 122.3953260
  72.7380880  58.4333270 121.4981080  73.8091980  57.7281380 122.3026650
  83.5146260  57.2684910 106.6607000  83.4309980  57.6999130 105.8103440
  84.2340450  57.7283260 107.0933820  80.1219990  61.4512600 113.2360820
  80.4743810  60.8540730 112.5762190  79.2382320  61.1256830 113.4069070
  77.8143090  64.7262660 117.4848890  78.4585310  64.9322040 118.1622310
  78.1772530  63.9651060 117.0319740  71.4122260  49.5593970 110.7279110
  71.2836890  49.5511870 111.6764030  70.5884280  49.8977060 110.3770120
  68.4116190  51.3185090 120.1885810  67.6974710  51.5182010 120.7938420
  68.8311230  50.5424660 120.5600610  82.5147140  60.9315570 107.5879640
  82.2268840  61.3928260 108.3757520  83.3099310  60.4713340 107.8563860
  68.6988780  65.3065350 121.1752340  68.8079900  64.3660090 121.0347730
  68.0469340  65.5720100 120.5266070  76.6901370  63.5781240 122.5750460
  76.3698240  62.8590480 123.1196150  76.0159730  64.2536310 122.6486520
  79.9054970  53.8107400 117.9387260  80.2735790  52.9902610 118.2666830
  79.0453170  53.8709290 118.3542910  83.2717000  52.7664340 108.7474820
  82.6430160  52.8710010 108.0333050  82.7768920  52.9861120 109.5368700
  79.2716460  51.7700950 111.6028490  79.1484240  51.7887080 110.6538000
  80.2201020  51.8179890 111.7226890  73.4436050  53.3535370 107.5383410
  74.2926580  53.7905520 107.4723600  73.0767320  53.6655630 108.3655470
  84.0723820  52.6814950 119.0053620  83.5697420  53.4220350 119.3447430
  84.8880480  53.0698950 118.6890410  70.8447220  66.3734260 122.9871950
  71.6459950  66.6946310 123.4007350  70.3299040  66.0129840 123.7091860
  68.5645030  58.8607720 121.9308000  69.0684050  58.2815000 122.5024230
  67.8252450  59.1447950 122.4684370  70.5968110  57.0037310 122.8258070
  70.6373450  56.7051180 123.7343300  71.4513610  57.4044920 122.6665590
  72.5373920  55.5829410 120.7932560  72.0070380  55.0920360 120.1655900
  73.2061990  56.0113610 120.2590490  81.9074150  57.3895030 122.5612900
  82.4894920  56.6347350 122.4733380  82.0835920  57.9202470 121.7844380
  73.0246220  52.5491780 120.8729850  72.9303090  51.9312530 120.1480720
  72.4443610  53.2758070 120.6459760  75.7907660  51.1065020 117.9057240
  75.3424960  51.1289280 117.0602790  75.1572860  50.7084040 118.5027540
  74.0474630  66.3072360 119.6427410  73.5095720  67.0318420 119.3236110
  74.3008590  65.8302700 118.8524750  75.2999880  54.2756880 121.1683340
  75.8899570  53.9672730 121.8561160  74.4820120  53.8036630 121.3243240
  80.1193310  53.8922690 121.4016360  79.4308830  53.2304230 121.3366350
  80.8399330  53.4460960 121.8464820  80.7493710  50.4874320 107.4606620
  81.0296000  49.6442220 107.8166040  79.9759440  50.7197430 107.9745370
  72.0688200  52.7766710 104.9197620  72.3714100  52.7834140 104.0116770
  72.8082790  52.4264570 105.4165280  76.9036840  67.5423570 119.9014060
  76.8295540  68.4458710 120.2086430  76.0015680  67.2235470 119.8736130
  75.2873130  51.7201330 105.9053820  74.9395130  51.0425320 105.3256270
  75.4885900  51.2590840 106.7197210  85.1793600  60.0185420 105.2283050
  85.4542440  60.9264300 105.1002270  84.9904340  59.9547950 106.1645040
  81.5769210  53.0430270 106.5236680  81.9954090  52.8561250 105.6833340
  81.2705270  52.1909320 106.8339610  69.2170700  55.5450640 120.7479950
  68.3226750  55.5117400 121.0873660  69.7568250  55.7437430 121.5131200
  82.9046630  52.3282360 122.6331700  83.7816810  52.3365760 123.0165700
  82.9167470  51.5913200 122.0224050  70.0318220  50.5692780 105.1940550
  70.7546350  51.1101720 105.5121770  70.3042740  50.2956200 104.3182090
  69.7210410  49.8198970 115.0963170  70.3686600  49.2696350 114.6558330
  70.1412250  50.0742120 115.9178980  83.6162750  50.0140330 118.4532810
  84.2534970  50.6274470 118.8192000  83.7637640  50.0500990 117.5082040
  86.1587300  51.9054120 105.2355950  87.0836610  51.7735300 105.0274240
  86.1363090  51.9846940 106.1892400  86.2325790  52.6764780 107.8612660
  85.4377290  52.6109900 108.3905570  86.4369070  53.6115420 107.8498010
  83.1744210  66.7156330 111.8551050  83.7703280  66.3940900 111.1785470
  83.4322360  66.2428150 112.6464320  69.4742410  49.9754640 117.8388490
  69.1257230  50.4318460 118.6046670  69.1430110  49.0811770 117.9210920
  71.0806780  63.1474240 122.0041680  71.0376410  62.7767150 122.8856140
  71.2117790  64.0851810 122.1443500  74.7812810  64.7033830 117.6051400
  74.5404170  64.9708390 116.7181920  75.7215450  64.8739560 117.6602260
  76.9867230  51.1666520 121.3607910  76.9256120  51.7588350 122.1103320
  77.9267610  51.0592480 121.2158170  79.6241790  50.8236580 121.0000200
  80.2382200  51.1415870 120.3381280  80.1691350  50.3385170 121.6196060
  86.0416970  66.7228210 118.4062040  85.5475250  67.1197080 117.6889170
  85.4330260  66.0977420 118.7999320  70.1463050  49.5030840 121.1139260
  70.6946040  49.3218890 120.3505370  70.2118360  48.7124950 121.6495570
  70.9194810  66.0936490 119.1239460  70.3255130  65.9621190 119.8629500
  70.9118650  65.2574630 118.6581560  81.2721810  51.5939590 118.7111210
  80.9435170  50.7791350 118.3312940  82.2204110  51.5509400 118.5876900
  83.7256420  67.3651630 115.6848780  83.2659390  68.1167440 115.3106800
  83.0968880  66.6458100 115.6263580  70.5507040  63.4594870 118.0747500
  69.8241100  62.8400160 118.0073450  70.6116190  63.8535480 117.2045580
  76.8947640  66.5648360 115.6865890  77.1825450  66.3102660 114.8098900
  77.4070860  66.0125720 116.2771460  82.6645720  51.0061660 114.3111490
  83.1053810  50.9506760 113.4633090  82.3953310  51.9219670 114.3821670
  84.5284290  50.6376900 112.3220310  84.4672690  49.6938120 112.1751330
  85.3076320  50.7456990 112.8673770  69.4565060  50.6086040 108.7876120
  70.2144420  50.7214920 108.2140150  68.9942230  51.4455240 108.7419550
  75.9978870  52.7225310 111.7778430  75.1853380  52.3482200 111.4374310
  76.5020510  51.9670390 112.0799620  80.5003850  49.3867760 113.0161500
  81.1033220  49.9587970 113.4910020  79.7596840  49.9507200 112.7935400
  83.6438450  49.7889320 108.2901780  83.8389080  50.6872770 108.5569210
  82.8568320  49.5576400 108.7834730  71.8290210  51.1350090 107.3278090
  72.3582970  50.3479890 107.1986040  72.4618530  51.8141280 107.5613620
  74.0228050  50.8725230 110.3823480  73.3930790  50.1712540 110.5493610
  73.4833190  51.6329360 110.1656640  76.9620000  67.4864460 123.0534090
  77.8887310  67.2508730 123.0970050  76.9470430  68.3136460 122.5720120
  85.1965060  67.0290030 110.0508340  85.3717250  66.3427770 109.4069260
  84.4986630  67.5537080 109.6585010  74.1483610  50.1509210 122.8175970
  73.8667880  50.6542810 122.0536790  74.5303310  49.3530960 122.4518100
  80.7499070  49.5662790 123.3956440  80.6364520  49.8857400 124.2907960
  81.5668810  49.9675300 123.0993720  82.0413540  52.3412290  92.8067880
  82.8623160  51.8508860  92.8493360  82.0747620  52.9309950  93.5599720
  86.3313090  54.3579040  99.3711510  85.6265260  54.7460750  98.8526620
  86.5971010  55.0529330  99.9732440  82.2775020  54.2812670  95.5795420
  81.5730590  54.5697560  96.1598530  82.6387180  55.0912780  95.2194980
  85.3461940  53.7267460  95.9704630  84.3986850  53.7606440  96.1020060
  85.6711930  54.5406410  96.3553990  75.8781480  50.0264640  94.2660620
  76.1856460  49.4711530  93.5496120  74.9482180  50.1609100  94.0833610
  84.7744080  59.0448990  97.9766930  83.9462710  59.1142080  97.5017060
  85.3694560  59.6303300  97.5082760  81.7386090  55.8318310  98.9221800
  81.3257270  56.6572020  99.1761790  81.0062040  55.2463350  98.7298160
  85.2642660  54.8834890 102.8043920  84.6486930  55.3914560 102.2759380
  84.9439080  53.9833220 102.7469860  73.0387170  50.8558260  94.6670790
  72.5955320  51.6367800  94.3355310  73.5972160  51.1788150  95.3741730
  82.3261490  54.9435730 101.4002770  81.4755080  54.6441480 101.7211840
  82.1663280  55.1877740 100.4886590  79.4211200  56.4437480 103.5001560
  79.7464610  55.6101230 103.1603790  80.2091530  56.9666000 103.6479890
  75.0763070  51.4005590  96.5260390  75.3735400  52.3068420  96.4452410
  75.6248630  50.9124370  95.9119960  76.9756190  53.3726050 104.2842830
  76.2854510  53.1798250 104.9188920  77.7188490  53.6560690 104.8167130
  67.7028190  51.2119540  95.2476170  67.4141240  51.7822400  95.9601150
  68.4473950  50.7323990  95.6107400  71.5398930  53.7705180  94.4843450
  71.1998980  54.2480410  95.2410500  70.7776250  53.3170300  94.1244550
  79.7145070  52.6658170  96.5319690  79.7317810  53.1166820  97.3761540
  79.4660650  51.7663810  96.7453130  83.1415820  50.0790350 102.3706070
  83.4661590  49.3480010 102.8964050  83.1772330  49.7603990 101.4687060
  84.5920400  59.7252430 100.9633480  83.8668590  60.3181210 100.7662870
  85.1195860  59.7175970 100.1646850  71.4122260  49.5593970  91.9535620
  71.2836890  49.5511870  92.9020540  70.5884280  49.8977060  91.6026630
  68.4116190  51.3185090 101.4142320  67.6974710  51.5182010 102.0194930
  68.8311230  50.5424660 101.7857120  79.9054970  53.8107400  99.1643770
  80.2735790  52.9902610  99.4923340  79.0453170  53.8709290  99.5799420
  83.2717000  52.7664340  89.9731330  82.6430160  52.8710010  89.2589560
  82.7768920  52.9861120  90.7625210  84.0723820  52.6814950 100.2310130
  83.5697420  53.4220350 100.5703940  84.8880480  53.0698950  99.9146920
  82.3645830  57.9248130  93.6771490  81.4235970  57.9398360  93.8519180
  82.6789900  57.1384090  94.1231790  81.9074150  57.3895030 103.7869410
  82.4894920  56.6347350 103.6989890  82.0835920  57.9202470 103.0100890
  75.7907660  51.1065020  99.1313750  75.3424960  51.1289280  98.2859300
  75.1572860  50.7084040  99.7284050  80.8719010  58.2872720  99.7126540
  80.3454230  58.8115340  99.1091680  81.2150350  58.9200110 100.3436270
  75.2999880  54.2756880 102.3939850  75.8899570  53.9672730 103.0817670
  74.4820120  53.8036630 102.5499750  80.1193310  53.8922690 102.6272870
  79.4308830  53.2304230 102.5622860  80.8399330  53.4460960 103.0721330
  80.7493710  50.4874320  88.6863130  81.0296000  49.6442220  89.0422550
  79.9759440  50.7197430  89.2001880  86.1334400  60.5801150  94.1408970
  86.5043230  59.7968470  93.7344940  86.7736330  61.2690250  93.9626270
  85.0758940  57.9554410  91.4468990  84.7002540  57.1882340  91.0150280
  84.3462060  58.3377110  91.9343920  84.4658560  57.1025930 101.0808510
  84.2344650  56.8738680 100.1806460  84.7263110  58.0225480 101.0353400
  82.9046630  52.3282360 103.8588210  83.7816810  52.3365760 104.2422210
  82.9167470  51.5913200 103.2480560  84.3509900  56.1811900  94.7476230
  84.8747380  55.6874550  94.1166400  84.9369320  56.3162260  95.4923800
  84.5299620  56.2651770  98.2695780  83.5802330  56.2315310  98.3840770
  84.7112630  57.1751880  98.0345550  83.8409870  55.4385250  90.6868640
  84.3368990  55.2056120  91.4717520  83.6425940  54.5997090  90.2706280
  69.7210410  49.8198970  96.3219680  70.3686600  49.2696350  95.8814840
  70.1412250  50.0742120  97.1435490  85.2697030  54.0746200  93.2206320
  85.1596310  53.9202240  94.1588590  86.0304620  53.5467140  92.9781730
  83.6162750  50.0140330  99.6789320  84.2534970  50.6274470 100.0448510
  83.7637640  50.0500990  98.7338550  69.4742410  49.9754640  99.0645000
  69.1257230  50.4318460  99.8303180  69.1430110  49.0811770  99.1467430
  76.9867230  51.1666520 102.5864420  76.9256120  51.7588350 103.3359830
  77.9267610  51.0592480 102.4414680  79.6241790  50.8236580 102.2256710
  80.2382200  51.1415870 101.5637790  80.1691350  50.3385170 102.8452570
  70.1463050  49.5030840 102.3395770  70.6946040  49.3218890 101.5761880
  70.2118360  48.7124950 102.8752080  80.3649830  49.3868720  98.5526000
  79.4909670  49.7203830  98.3498930  80.2560580  48.9141900  99.3777870
  81.2721810  51.5939590  99.9367720  80.9435170  50.7791350  99.5569450
  82.2204110  51.5509400  99.8133410  78.1124650  50.3038560  97.4918910
  77.3296440  50.7784060  97.7715670  77.8187580  49.3993390  97.3832090
  82.6645720  51.0061660  95.5368000  83.1053810  50.9506760  94.6889600
  82.3953310  51.9219670  95.6078180  84.5284290  50.6376900  93.5476820
  84.4672690  49.6938120  93.4007840  85.3076320  50.7456990  94.0930280
  80.5003850  49.3867760  94.2418010  81.1033220  49.9587970  94.7166530
  79.7596840  49.9507200  94.0191910  83.6438450  49.7889320  89.5158290
  83.8389080  50.6872770  89.7825720  82.8568320  49.5576400  90.0091240
  74.1483610  50.1509210 104.0432480  73.8667880  50.6542810 103.2793300
  74.5303310  49.3530960 103.6774610  80.7499070  49.5662790 104.6212950
  80.6364520  49.8857400 105.5164470  81.5668810  49.9675300 104.3250230
  67.8898420  55.1539660  48.9091910  67.8073090  56.0970420  49.0506900
  67.5381480  55.0114570  48.0304260  86.1587300  51.9054120  48.9125480
  87.0836610  51.7735300  48.7043770  86.1363090  51.9846940  49.8661930
  79.6557220  57.5855260  37.4360710  79.5751270  56.6709870  37.1652420
  79.2421640  58.0822330  36.7300420  77.7875260  59.3634280  39.3169980
  77.0117360  58.8834720  39.6068550  78.4388190  58.6839930  39.1426140
  71.8041090  59.6754090  40.1945740  70.9725970  59.4202800  40.5942250
  72.4122070  59.7464860  40.9303660  81.8082690  63.7694470  38.0969110
  81.3464220  62.9981710  38.4256280  82.6208240  63.7960540  38.6021560
  71.7842350  63.7094180  40.3903760  72.0870390  62.8191920  40.2113980
  72.5285940  64.2664400  40.1626010  70.2133040  54.6355980  33.9788130
  69.3249740  54.9771950  33.8768010  70.4974230  54.4356300  33.0868960
  78.0346000  66.0552480  37.7173100  77.4157440  66.5109980  37.1467540
  78.8897780  66.2103940  37.3162800  77.2284250  62.0391470  39.3240140
  77.1592530  61.0981410  39.1629270  77.9904110  62.1292880  39.8962710
  69.4190920  52.6445990  41.6496760  69.2393760  51.7471740  41.9299520
  69.0171000  53.1917860  42.3243710  78.2589420  54.8461850  39.5509070
  78.6354240  53.9733730  39.4382740  78.1608930  55.1820550  38.6599510
  72.3894430  53.2187480  35.0126510  72.4961180  54.1191210  35.3195270
  71.4786790  53.1705450  34.7221160  82.0413540  52.3412290  36.4837410
  82.8623160  51.8508860  36.5262890  82.0747620  52.9309950  37.2369250
  74.2302160  56.1873850  39.3451690  74.7380380  56.6854820  39.9856710
  74.7615400  55.4109050  39.1691050  86.3313090  54.3579040  43.0481040
  85.6265260  54.7460750  42.5296150  86.5971010  55.0529330  43.6501970
  72.5138260  50.8272410  43.6115110  72.5156700  51.3444800  42.8061010
  71.6842570  50.3502590  43.5885040  78.9009350  60.9391720  35.1105010
  78.2826620  61.4041170  34.5467730  79.4132600  61.6319200  35.5274520
  73.7641110  60.4667590  41.7888610  73.4310490  61.0936510  42.4309680
  73.9407790  60.9929470  41.0090280  82.2775020  54.2812670  39.2564950
  81.5730590  54.5697560  39.8368060  82.6387180  55.0912780  38.8964510
  72.1953590  52.5382370  41.6185560  72.5370400  53.3824420  41.3239430
  71.2569400  52.6866110  41.7350900  68.2692550  61.6248250  32.4844640
  67.8920530  62.1135350  31.7529540  68.5265620  62.2973530  33.1151170
  83.8937800  63.8987800  41.5192430  83.2101320  64.5686910  41.5109100
  84.4332090  64.0968450  40.7537290  85.3461940  53.7267460  39.6474160
  84.3986850  53.7606440  39.7789590  85.6711930  54.5406410  40.0323520
  75.8781480  50.0264640  37.9430150  76.1856460  49.4711530  37.2265650
  74.9482180  50.1609100  37.7603140  81.4296540  65.7431930  40.2337610
  81.4423700  65.3394220  39.3659870  80.8771760  66.5179220  40.1299040
  82.7241960  62.4648150  35.3227780  82.6138290  61.5222480  35.4477200
  82.7210210  62.8263790  36.2090540  80.8281980  60.6461770  41.5620220
  81.2450770  60.4321880  40.7273680  81.5521800  60.9034560  42.1328840
  84.7744080  59.0448990  41.6536460  83.9462710  59.1142080  41.1786590
  85.3694560  59.6303300  41.1852290  82.2959530  59.6533770  35.1825520
  81.6771950  59.3153320  34.5351820  82.2783980  59.0093530  35.8904710
  73.8718880  58.6178210  37.4610000  73.4675880  57.9055460  36.9655900
  73.9582000  58.2731450  38.3498040  74.3400580  62.3045770  39.6249210
  74.0428870  61.6991240  38.9456990  75.2900400  62.3423080  39.5138570
  72.5847500  55.3921420  41.2409040  73.1362090  55.5016760  40.4662290
  73.0991010  55.7659020  41.9564270  82.4286190  65.8777640  43.2872310
  81.9516750  66.6849830  43.0944920  81.7447980  65.2255970  43.4398520
  72.2590230  58.9140780  44.8514380  72.1198000  59.7863580  45.2201780
  71.3771590  58.5713590  44.7062320  78.5819610  63.8316650  36.1579510
  79.0215520  64.5740980  35.7434900  78.5206500  64.0743220  37.0818470
  70.5723510  57.5123190  34.9616650  70.4521110  58.2385280  34.3497920
  70.2624400  56.7426100  34.4844560  68.2108880  60.6838330  40.7685290
  68.2889300  60.8187100  39.8241010  68.8250560  59.9754220  40.9613410
  69.4556510  62.3838520  37.1791470  69.0484590  62.5253110  36.3245070
  70.3469520  62.0998680  36.9762680  79.2735390  66.5330430  44.0858520
  79.7880060  66.4438440  44.8880950  78.4304470  66.8790130  44.3786430
  81.2489790  66.8185770  33.5142520  81.0890930  66.5288710  34.4124350
  81.0836500  66.0425900  32.9787750  73.7278170  66.5984300  35.2914140
  73.5520650  65.6819840  35.0781940  72.8733910  66.9571590  35.5311940
  80.9515920  64.3273330  32.0740520  80.2581080  64.3250620  31.4142800
  81.6938780  63.9032650  31.6434690  80.5165850  65.9536040  36.1489010
  80.9722800  65.1725420  36.4627630  80.8558370  66.6642860  36.6930190
  68.2668400  61.7252500  43.3079750  68.4299440  61.2557860  42.4899120
  68.7320850  61.2176060  43.9728590  73.0387170  50.8558260  38.3440320
  72.5955320  51.6367800  38.0124840  73.5972160  51.1788150  39.0511260
  77.3256980  53.7226780  43.9475640  76.8636350  53.9309800  44.7595580
  76.9235090  52.9086130  43.6446310  76.1545990  50.4768960  33.2246150
  75.5300170  50.4728830  33.9499460  76.0676110  49.6099920  32.8282120
  75.0763070  51.4005590  40.2029920  75.3735400  52.3068420  40.1221940
  75.6248630  50.9124370  39.5889490  72.8301390  55.9791830  36.0721570
  72.6042310  55.7629000  36.9768190  72.0493920  56.4120290  35.7267540
  80.0599150  55.9855200  34.6712220  79.4608040  56.7091000  34.4875840
  80.6078760  55.9231980  33.8888670  75.2700600  56.8777410  46.7381840
  75.1744200  55.9372140  46.5882240  76.1132580  57.0992480  46.3429910
  78.6664020  54.6218740  36.7015500  79.0593590  54.9390940  35.8884190
  79.0280870  53.7430620  36.8160020  70.4011140  53.2891080  44.8915620
  70.0074530  54.1366290  45.0988400  69.7129540  52.6517450  45.0824260
  67.7028190  51.2119540  38.9245700  67.4141240  51.7822400  39.6370680
  68.4473950  50.7323990  39.2876930  67.8898420  55.1539660  30.1348420
  67.8073090  56.0970420  30.2763410  67.5381480  55.0114570  29.2560770
  79.2519160  57.2124490  40.7966280  78.5200280  57.7211300  41.1456380
  78.8543500  56.3954470  40.4955060  75.6896550  53.8878690  39.2018770
  75.6932610  53.4468640  38.3523310  76.5847670  54.2096020  39.3090590
  71.5398930  53.7705180  38.1612980  71.1998980  54.2480410  38.9180030
  70.7776250  53.3170300  37.8014080  79.7145070  52.6658170  40.2089220
  79.7317810  53.1166820  41.0531070  79.4660650  51.7663810  40.4222660
  75.9904520  57.9480470  40.9484180  76.3574650  57.4739040  41.6945520
  75.8009580  58.8222040  41.2892520  68.8545010  52.6924160  37.0777650
  68.5691930  52.3279830  37.9156270  68.7923870  51.9604620  36.4640790
  73.7803890  56.9889110  43.2668390  73.4760960  57.8681090  43.4918750
  74.7350350  57.0488900  43.3025830  72.3085680  61.1950100  33.8635240
  71.5347940  60.6547720  33.7033960  73.0380310  60.6756710  33.5253000
  83.0673660  60.1915460  39.6561630  83.7872780  60.6870750  39.2657740
  82.8655480  59.5133350  39.0115500  78.5283600  51.5853420  33.7991020
  77.7148210  51.0866590  33.7236330  78.3345550  52.4251670  33.3827370
  72.3523080  60.8630480  37.5014050  72.8701750  60.0598740  37.4470940
  71.9007100  60.8009620  38.3430880  69.8367620  57.8291850  44.4139750
  69.4782560  58.4945700  45.0013090  69.5422180  56.9975400  44.7852370
  84.5433510  64.1227170  34.2915170  83.9009670  63.4682790  34.5658890
  84.1564170  64.5282260  33.5155840  80.1219990  61.4512600  38.1386860
  80.4743810  60.8540730  37.4788230  79.2382320  61.1256830  38.3095110
  76.2083270  62.2110290  35.5457270  76.8954400  62.7579500  35.9264860
  75.4215690  62.7551020  35.5806880  68.3475670  57.8283110  31.0374350
  69.2170520  58.1107910  31.3210270  67.8565990  58.6418980  30.9223160
  77.8143090  64.7262660  42.3874930  78.4585310  64.9322040  43.0648350
  78.1772530  63.9651060  41.9345780  79.0875170  62.7295010  41.1052380
  79.7297400  62.0288170  41.2184550  79.6124520  63.5093450  40.9249270
  82.9330890  63.0143630  30.8291520  82.7068470  62.2974070  31.4216160
  82.5427090  62.7656070  29.9913270  80.8612790  63.5289910  44.3088440
  81.1969030  64.1156600  44.9866360  79.9413130  63.3982620  44.5386230
  68.4116190  51.3185090  45.0911850  67.6974710  51.5182010  45.6964460
  68.8311230  50.5424660  45.4626650  74.7315540  64.4241690  32.4209650
  74.7225640  65.1571380  31.8054160  73.8113900  64.1773270  32.5136610
  70.3322180  59.6456580  33.1656410  69.7250130  60.3855480  33.1751710
  70.8071530  59.7355940  32.3394610  79.9054970  53.8107400  42.8413300
  80.2735790  52.9902610  43.1692870  79.0453170  53.8709290  43.2568950
  83.2717000  52.7664340  33.6500860  82.6430160  52.8710010  32.9359090
  82.7768920  52.9861120  34.4394740  77.7175140  64.4869930  31.0834840
  77.8187120  64.2833920  30.1536820  76.8176880  64.2328210  31.2882620
  76.8656960  56.4646990  43.0651270  77.3642210  56.9392810  43.7303120
  77.0079910  55.5410510  43.2721300  79.2716460  51.7700950  36.5054530
  79.1484240  51.7887080  35.5564040  80.2201020  51.8179890  36.6252930
  76.3593250  67.0056250  35.7782510  76.6134750  66.9677640  34.8561880
  75.4105730  66.8789580  35.7710760  84.0723820  52.6814950  43.9079660
  83.5697420  53.4220350  44.2473470  84.8880480  53.0698950  43.5916450
  82.3645830  57.9248130  37.3541020  81.4235970  57.9398360  37.5288710
  82.6789900  57.1384090  37.8001320  71.0374230  57.0392800  31.5977870
  71.1177820  56.0920310  31.7095270  71.9293980  57.3699680  31.7038530
  84.3671410  65.0956980  39.0295280  84.4918830  65.9188150  39.5019090
  85.2336970  64.8847710  38.6819430  74.9491250  66.3618500  30.5237980
  75.7419860  66.6507330  30.0719770  74.4295600  65.9310670  29.8450460
  84.0021420  65.5888630  31.9474720  83.7162930  65.1753770  31.1328900
  83.8040970  66.5176340  31.8275240  68.5645030  58.8607720  46.8334040
  69.0684050  58.2815000  47.4050270  67.8252450  59.1447950  47.3710410
  72.5373920  55.5829410  45.6958600  72.0070380  55.0920360  45.0681940
  73.2061990  56.0113610  45.1616530  73.0246220  52.5491780  45.7755890
  72.9303090  51.9312530  45.0506760  72.4443610  53.2758070  45.5485800
  75.7907660  51.1065020  42.8083280  75.3424960  51.1289280  41.9628830
  75.1572860  50.7084040  43.4053580  76.1967210  60.0019350  43.4295720
  76.6155320  60.8452080  43.2571960  75.2775840  60.1391390  43.2002500
  80.1193310  53.8922690  46.3042400  79.4308830  53.2304230  46.2392390
  80.8399330  53.4460960  46.7490860  80.7493710  50.4874320  32.3632660
  81.0296000  49.6442220  32.7192080  79.9759440  50.7197430  32.8771410
  77.4522170  66.7082080  32.4266460  78.3472960  67.0467050  32.4485220
  77.4839800  65.9861490  31.7990740  71.0918330  62.0809130  30.6553460
  71.5293200  62.6238800  31.3111040  71.5766060  61.2556080  30.6649800
  72.9026050  63.2007170  35.7675690  72.6021590  63.0772140  36.6679600
  72.7963540  62.3415760  35.3591420  68.7954340  65.7368750  40.8455350
  68.3585330  65.9169550  41.6779500  69.3632020  66.4943370  40.7037070
  85.6717970  62.9803570  30.4702370  84.8410930  63.0480220  30.9409600
  85.8489800  63.8707690  30.1669230  85.1274430  59.7251050  32.9736570
  85.8893340  60.2947700  33.0796260  85.1428800  59.1578250  33.7444880
  86.1334400  60.5801150  37.8178500  86.5043230  59.7968470  37.4114470
  86.7736330  61.2690250  37.6395800  81.5769210  53.0430270  31.4262720
  81.9954090  52.8561250  30.5859380  81.2705270  52.1909320  31.7365650
  85.0758940  57.9554410  35.1238520  84.7002540  57.1882340  34.6919810
  84.3462060  58.3377110  35.6113450  69.2170700  55.5450640  45.6505990
  68.3226750  55.5117400  45.9899700  69.7568250  55.7437430  46.4157240
  67.8416850  55.4587910  33.1469560  66.9380930  55.7218110  32.9721220
  68.3257470  55.7299080  32.3669520  84.3509900  56.1811900  38.4245760
  84.8747380  55.6874550  37.7935930  84.9369320  56.3162260  39.1693330
  84.5299620  56.2651770  41.9465310  83.5802330  56.2315310  42.0610300
  84.7112630  57.1751880  41.7115080  70.3844060  54.5153450  31.0563940
  71.0935760  54.0936670  30.5711220  69.6684000  54.5828680  30.4247290
  83.8409870  55.4385250  34.3638170  84.3368990  55.2056120  35.1487050
  83.6425940  54.5997090  33.9475810  85.2697030  54.0746200  36.8975850
  85.1596310  53.9202240  37.8358120  86.0304620  53.5467140  36.6551260
  83.6162750  50.0140330  43.3558850  84.2534970  50.6274470  43.7218040
  83.7637640  50.0500990  42.4108080  86.2325790  52.6764780  32.7638700
  85.4377290  52.6109900  33.2931610  86.4369070  53.6115420  32.7524050
  83.1744210  66.7156330  36.7577090  83.7703280  66.3940900  36.0811510
  83.4322360  66.2428150  37.5490360  69.4742410  49.9754640  42.7414530
  69.1257230  50.4318460  43.5072710  69.1430110  49.0811770  42.8236960
  74.7812810  64.7033830  42.5077440  74.5404170  64.9708390  41.6207960
  75.7215450  64.8739560  42.5628300  79.6241790  50.8236580  45.9026240
  80.2382200  51.1415870  45.2407320  80.1691350  50.3385170  46.5222100
  70.1463050  49.5030840  46.0165300  70.6946040  49.3218890  45.2531410
  70.2118360  48.7124950  46.5521610  80.3649830  49.3868720  42.2295530
  79.4909670  49.7203830  42.0268460  80.2560580  48.9141900  43.0547400
  81.2721810  51.5939590  43.6137250  80.9435170  50.7791350  43.2338980
  82.2204110  51.5509400  43.4902940  83.7256420  67.3651630  40.5874820
  83.2659390  68.1167440  40.2132840  83.0968880  66.6458100  40.5289620
  70.5507040  63.4594870  42.9773540  69.8241100  62.8400160  42.9099490
  70.6116190  63.8535480  42.1071620  74.1552140  65.6739870  39.7622950
  74.6717160  65.0627230  39.2371210  74.8049520  66.1768650  40.2533960
  76.8947640  66.5648360  40.5891930  77.1825450  66.3102660  39.7124940
  77.4070860  66.0125720  41.1797500  78.1124650  50.3038560  41.1688440
  77.3296440  50.7784060  41.4485200  77.8187580  49.3993390  41.0601620
  82.6645720  51.0061660  39.2137530  83.1053810  50.9506760  38.3659130
  82.3953310  51.9219670  39.2847710  84.5284290  50.6376900  37.2246350
  84.4672690  49.6938120  37.0777370  85.3076320  50.7456990  37.7699810
  75.9978870  52.7225310  36.6804470  75.1853380  52.3482200  36.3400350
  76.5020510  51.9670390  36.9825660  80.5003850  49.3867760  37.9187540
  81.1033220  49.9587970  38.3936060  79.7596840  49.9507200  37.6961440
  83.6438450  49.7889320  33.1927820  83.8389080  50.6872770  33.4595250
  82.8568320  49.5576400  33.6860770  74.0228050  50.8725230  35.2849520
  73.3930790  50.1712540  35.4519650  73.4833190  51.6329360  35.0682680
  73.0392710  67.4184870  32.5069690  73.7711530  67.1344150  31.9593580
  73.2986380  67.1798150  33.3969070  72.2007500  63.5349600  32.5116020
  71.5716380  64.0034700  33.0601850  72.3155330  62.6898820  32.9462210
  77.7875260  59.3634280  20.5426490  77.0117360  58.8834720  20.8325060
  78.4388190  58.6839930  20.3682650  71.8041090  59.6754090  21.4202250
  70.9725970  59.4202800  21.8198760  72.4122070  59.7464860  22.1560170
  81.8082690  63.7694470  19.3225620  81.3464220  62.9981710  19.6512790
  82.6208240  63.7960540  19.8278070  70.2133040  54.6355980  15.2044640
  69.3249740  54.9771950  15.1024520  70.4974230  54.4356300  14.3125470
  68.1766050  57.2361630  21.0884340  68.7482160  56.4683830  21.0887980
  68.1767590  57.5350390  20.1790950  78.0346000  66.0552480  18.9429610
  77.4157440  66.5109980  18.3724050  78.8897780  66.2103940  18.5419310
  69.4190920  52.6445990  22.8753270  69.2393760  51.7471740  23.1556030
  69.0171000  53.1917860  23.5500220  72.3894430  53.2187480  16.2383020
  72.4961180  54.1191210  16.5451780  71.4786790  53.1705450  15.9477670
  70.0377590  55.1406490  21.4835610  70.7187700  55.4044860  22.1023010
  69.7225640  54.3007360  21.8173620  86.3313090  54.3579040  24.2737550
  85.6265260  54.7460750  23.7552660  86.5971010  55.0529330  24.8758480
  78.9009350  60.9391720  16.3361520  78.2826620  61.4041170  15.7724240
  79.4132600  61.6319200  16.7531030  73.7641110  60.4667590  23.0145120
  73.4310490  61.0936510  23.6566190  73.9407790  60.9929470  22.2346790
  72.1953590  52.5382370  22.8442070  72.5370400  53.3824420  22.5495940
  71.2569400  52.6866110  22.9607410  68.2692550  61.6248250  13.7101150
  67.8920530  62.1135350  12.9786050  68.5265620  62.2973530  14.3407680
  83.8937800  63.8987800  22.7448940  83.2101320  64.5686910  22.7365610
  84.4332090  64.0968450  21.9793800  85.3461940  53.7267460  20.8730670
  84.3986850  53.7606440  21.0046100  85.6711930  54.5406410  21.2580030
  75.8781480  50.0264640  19.1686660  76.1856460  49.4711530  18.4522160
  74.9482180  50.1609100  18.9859650  82.7241960  62.4648150  16.5484290
  82.6138290  61.5222480  16.6733710  82.7210210  62.8263790  17.4347050
  80.8281980  60.6461770  22.7876730  81.2450770  60.4321880  21.9530190
  81.5521800  60.9034560  23.3585350  78.2662240  58.0913470  15.9046780
  77.3391520  58.0250850  16.1335250  78.4187060  59.0293600  15.7902020
  78.2531320  54.3630470  12.9013940  77.3134990  54.5244430  12.9866400
  78.5714580  55.0816150  12.3549930  84.7744080  59.0448990  22.8792970
  83.9462710  59.1142080  22.4043100  85.3694560  59.6303300  22.4108800
  82.2959530  59.6533770  16.4082030  81.6771950  59.3153320  15.7608330
  82.2783980  59.0093530  17.1161220  72.5847500  55.3921420  22.4665550
  73.1362090  55.5016760  21.6918800  73.0991010  55.7659020  23.1820780
  73.4319010  62.0427460  27.5013520  72.5347540  62.2667430  27.7486920
  73.4571880  62.1662400  26.5524920  80.4724230  58.8920580  13.4154780
  80.9117510  58.0543010  13.2692600  81.1852650  59.5249980  13.5018920
  72.2590230  58.9140780  26.0770890  72.1198000  59.7863580  26.4458290
  71.3771590  58.5713590  25.9318830  78.5819610  63.8316650  17.3836020
  79.0215520  64.5740980  16.9691410  78.5206500  64.0743220  18.3074980
  74.0570580  64.8562480  28.2856040  74.0286010  65.2605430  27.4184470
  73.8935550  63.9272840  28.1227640  84.0541370  50.1463390  11.7295820
  83.7414030  50.2390220  12.6294890  84.8153840  50.7244420  11.6793250
  70.5723510  57.5123190  16.1873160  70.4521110  58.2385280  15.5754430
  70.2624400  56.7426100  15.7101070  86.0085400  65.6389580  29.5820210
  86.4845120  66.1172470  30.2609290  86.6292560  65.5707070  28.8565710
  69.4556510  62.3838520  18.4047980  69.0484590  62.5253110  17.5501580
  70.3469520  62.0998680  18.2019190  85.4118650  62.8302430  26.7420220
  85.5381710  62.5914310  25.8237400  85.4540030  61.9986970  27.2142300
  81.2489790  66.8185770  14.7399030  81.0890930  66.5288710  15.6380860
  81.0836500  66.0425900  14.2044260  73.7278170  66.5984300  16.5170650
  73.5520650  65.6819840  16.3038450  72.8733910  66.9571590  16.7568450
  80.9515920  64.3273330  13.2997030  80.2581080  64.3250620  12.6399310
  81.6938780  63.9032650  12.8691200  80.5165850  65.9536040  17.3745520
  80.9722800  65.1725420  17.6884140  80.8558370  66.6642860  17.9186700
  85.2642660  54.8834890  27.7069960  84.6486930  55.3914560  27.1785420
  84.9439080  53.9833220  27.6495900  73.0387170  50.8558260  19.5696830
  72.5955320  51.6367800  19.2381350  73.5972160  51.1788150  20.2767770
  77.3256980  53.7226780  25.1732150  76.8636350  53.9309800  25.9852090
  76.9235090  52.9086130  24.8702820  76.1545990  50.4768960  14.4502660
  75.5300170  50.4728830  15.1755970  76.0676110  49.6099920  14.0538630
  75.0763070  51.4005590  21.4286430  75.3735400  52.3068420  21.3478450
  75.6248630  50.9124370  20.8146000  70.4011140  53.2891080  26.1172130
  70.0074530  54.1366290  26.3244910  69.7129540  52.6517450  26.3080770
  67.7028190  51.2119540  20.1502210  67.4141240  51.7822400  20.8627190
  68.4473950  50.7323990  20.5133440  67.8898420  55.1539660  11.3604930
  67.8073090  56.0970420  11.5019920  67.5381480  55.0114570  10.4817280
  71.5398930  53.7705180  19.3869490  71.1998980  54.2480410  20.1436540
  70.7776250  53.3170300  19.0270590  74.7638200  57.1991910  12.8165340
  74.1955100  56.7510160  12.1901250  75.4727200  57.5584690  12.2830490
  69.8407380  61.1003930  26.6932070  69.4562170  60.4597600  27.2915030
  70.1519570  61.8040050  27.2626800  68.8545010  52.6924160  18.3034160
  68.5691930  52.3279830  19.1412780  68.7923870  51.9604620  17.6897300
  73.7803890  56.9889110  24.4924900  73.4760960  57.8681090  24.7175260
  74.7350350  57.0488900  24.5282340  72.3085680  61.1950100  15.0891750
  71.5347940  60.6547720  14.9290470  73.0380310  60.6756710  14.7509510
  83.0673660  60.1915460  20.8818140  83.7872780  60.6870750  20.4914250
  82.8655480  59.5133350  20.2372010  78.4492460  60.2624520  26.7687140
  78.3829770  59.3420190  26.5144730  77.8197600  60.3599960  27.4831780
  81.2431990  55.9573070  13.3209690  82.1311610  56.2690300  13.1461030
  81.2137080  55.0845320  12.9290270  72.3523080  60.8630480  18.7270560
  72.8701750  60.0598740  18.6727450  71.9007100  60.8009620  19.5687390
  77.2392580  62.1296760  13.9997860  77.5808280  62.8738990  13.5041180
  76.4105290  62.4427880  14.3622690  69.8367620  57.8291850  25.6396260
  69.4782560  58.4945700  26.2269600  69.5422180  56.9975400  26.0108880
  73.0380740  58.2876090  28.5235810  72.7380880  58.4333270  27.6263630
  73.8091980  57.7281380  28.4309200  83.5146260  57.2684910  12.7889550
  83.4309980  57.6999130  11.9385990  84.2340450  57.7283260  13.2216370
  84.5433510  64.1227170  15.5171680  83.9009670  63.4682790  15.7915400
  84.1564170  64.5282260  14.7412350  80.1219990  61.4512600  19.3643370
  80.4743810  60.8540730  18.7044740  79.2382320  61.1256830  19.5351620
  76.2083270  62.2110290  16.7713780  76.8954400  62.7579500  17.1521370
  75.4215690  62.7551020  16.8063390  68.3475670  57.8283110  12.2630860
  69.2170520  58.1107910  12.5466780  67.8565990  58.6418980  12.1479670
  75.5110480  59.2156320  16.3839140  75.9673260  60.0261570  16.6099330
  75.1598690  58.8979460  17.2157630  71.4122260  49.5593970  16.8561660
  71.2836890  49.5511870  17.8046580  70.5884280  49.8977060  16.5052670
  82.9330890  63.0143630  12.0548030  82.7068470  62.2974070  12.6472670
  82.5427090  62.7656070  11.2169780  68.7146920  67.0410490  12.8292490
  69.0744560  67.6399830  12.1749760  68.5739260  67.5870380  13.6027520
  68.4116190  51.3185090  26.3168360  67.6974710  51.5182010  26.9220970
  68.8311230  50.5424660  26.6883160  82.5147140  60.9315570  13.7162190
  82.2268840  61.3928260  14.5040070  83.3099310  60.4713340  13.9846410
  68.6988780  65.3065350  27.3034890  68.8079900  64.3660090  27.1630280
  68.0469340  65.5720100  26.6548620  74.7315540  64.4241690  13.6466160
  74.7225640  65.1571380  13.0310670  73.8113900  64.1773270  13.7393120
  70.3322180  59.6456580  14.3912920  69.7250130  60.3855480  14.4008220
  70.8071530  59.7355940  13.5651120  83.2717000  52.7664340  14.8757370
  82.6430160  52.8710010  14.1615600  82.7768920  52.9861120  15.6651250
  77.7175140  64.4869930  12.3091350  77.8187120  64.2833920  11.3793330
  76.8176880  64.2328210  12.5139130  76.8656960  56.4646990  24.2907780
  77.3642210  56.9392810  24.9559630  77.0079910  55.5410510  24.4977810
  76.3593250  67.0056250  17.0039020  76.6134750  66.9677640  16.0818390
  75.4105730  66.8789580  16.9967270  73.4436050  53.3535370  13.6665960
  74.2926580  53.7905520  13.6006150  73.0767320  53.6655630  14.4938020
  72.3427470  59.6067730  12.1401490  73.1090740  59.4949090  12.7026920
  72.4202160  58.9105700  11.4878260  71.0374230  57.0392800  12.8234380
  71.1177820  56.0920310  12.9351780  71.9293980  57.3699680  12.9295040
  84.3671410  65.0956980  20.2551790  84.4918830  65.9188150  20.7275600
  85.2336970  64.8847710  19.9075940  68.7234420  63.2561760  15.8010430
  67.7974200  63.4982900  15.7915840  69.1890850  64.0836020  15.6795180
  70.8447220  66.3734260  29.1154500  71.6459950  66.6946310  29.5289900
  70.3299040  66.0129840  29.8374410  74.9491250  66.3618500  11.7494490
  75.7419860  66.6507330  11.2976280  74.4295600  65.9310670  11.0706970
  84.0021420  65.5888630  13.1731230  83.7162930  65.1753770  12.3585410
  83.8040970  66.5176340  13.0531750  68.5645030  58.8607720  28.0590550
  69.0684050  58.2815000  28.6306780  67.8252450  59.1447950  28.5966920
  75.4668650  61.5821910  11.6136840  75.3619290  60.9674260  12.3398220
  75.2992870  61.0587800  10.8299850  78.7071380  60.6441940  12.2178830
  78.1581480  61.0911240  12.8621570  79.3290640  60.1391190  12.7416500
  70.5968110  57.0037310  28.9540620  70.6373450  56.7051180  29.8625850
  71.4513610  57.4044920  28.7948140  74.3746500  59.6032860  14.1144130
  74.7962920  59.4372730  14.9575520  74.4997340  58.7933090  13.6199270
  72.5373920  55.5829410  26.9215110  72.0070380  55.0920360  26.2938450
  73.2061990  56.0113610  26.3873040  76.8874140  58.6270470  11.3621230
  77.4079800  57.9119490  10.9962380  77.5342540  59.2656340  11.6621740
  75.7907660  51.1065020  24.0339790  75.3424960  51.1289280  23.1885340
  75.1572860  50.7084040  24.6310090  78.5331110  57.7335530  26.0390070
  78.6527320  57.1376670  26.7784910  79.3925110  57.7705220  25.6191370
  73.2705400  55.6766090  11.0602290  73.0694460  54.8133450  11.4215630
  73.0997450  55.5899450  10.1223890  80.1193310  53.8922690  27.5298910
  79.4308830  53.2304230  27.4648900  80.8399330  53.4460960  27.9747370
  80.7493710  50.4874320  13.5889170  81.0296000  49.6442220  13.9448590
  79.9759440  50.7197430  14.1027920  72.0688200  52.7766710  11.0480170
  72.3714100  52.7834140  10.1399320  72.8082790  52.4264570  11.5447830
  75.2873130  51.7201330  12.0336370  74.9395130  51.0425320  11.4538820
  75.4885900  51.2590840  12.8479760  77.4522170  66.7082080  13.6522970
  78.3472960  67.0467050  13.6741730  77.4839800  65.9861490  13.0247250
  71.0918330  62.0809130  11.8809970  71.5293200  62.6238800  12.5367550
  71.5766060  61.2556080  11.8906310  68.3064130  64.8698160  19.3330230
  68.6367140  64.0019220  19.1008870  68.7355130  65.0756680  20.1635190
  84.4316520  65.2385750  26.3589170  83.8318510  65.2978310  25.6153090
  84.5610420  64.2990730  26.4886020  85.6717970  62.9803570  11.6958880
  84.8410930  63.0480220  12.1666110  85.8489800  63.8707690  11.3925740
  85.1274430  59.7251050  14.1993080  85.8893340  60.2947700  14.3052770
  85.1428800  59.1578250  14.9701390  68.6278770  58.2488980  18.4300740
  67.9727610  57.9800620  17.7860440  69.4656720  58.1393460  17.9802720
  86.1334400  60.5801150  19.0435010  86.5043230  59.7968470  18.6370980
  86.7736330  61.2690250  18.8652310  83.1168160  61.9637730  24.4565330
  82.3028000  62.3934890  24.7191120  83.5242360  62.5756140  23.8434380
  85.1793600  60.0185420  11.3565600  85.4542440  60.9264300  11.2284820
  84.9904340  59.9547950  12.2927590  81.5769210  53.0430270  12.6519230
  81.9954090  52.8561250  11.8115890  81.2705270  52.1909320  12.9622160
  85.0758940  57.9554410  16.3495030  84.7002540  57.1882340  15.9176320
  84.3462060  58.3377110  16.8369960  69.6654700  58.6341550  22.9704080
  70.0327740  58.5468950  23.8500100  69.0965520  57.8708100  22.8710940
  69.2170700  55.5450640  26.8762500  68.3226750  55.5117400  27.2156210
  69.7568250  55.7437430  27.6413750  67.8416850  55.4587910  14.3726070
  66.9380930  55.7218110  14.1977730  68.3257470  55.7299080  13.5926030
  70.3844060  54.5153450  12.2820450  71.0935760  54.0936670  11.7967730
  69.6684000  54.5828680  11.6503800  70.0318220  50.5692780  11.3223100
  70.7546350  51.1101720  11.6404320  70.3042740  50.2956200  10.4464640
  83.8409870  55.4385250  15.5894680  84.3368990  55.2056120  16.3743560
  83.6425940  54.5997090  15.1732320  69.7210410  49.8198970  21.2245720
  70.3686600  49.2696350  20.7840880  70.1412250  50.0742120  22.0461530
  85.2697030  54.0746200  18.1232360  85.1596310  53.9202240  19.0614630
  86.0304620  53.5467140  17.8807770  86.1587300  51.9054120  11.3638500
  87.0836610  51.7735300  11.1556790  86.1363090  51.9846940  12.3174950
  86.2325790  52.6764780  13.9895210  85.4377290  52.6109900  14.5188120
  86.4369070  53.6115420  13.9780560  83.1744210  66.7156330  17.9833600
  83.7703280  66.3940900  17.3068020  83.4322360  66.2428150  18.7746870
  69.4742410  49.9754640  23.9671040  69.1257230  50.4318460  24.7329220
  69.1430110  49.0811770  24.0493470  71.0806780  63.1474240  28.1324230
  71.0376410  62.7767150  29.0138690  71.2117790  64.0851810  28.2726050
  86.0416970  66.7228210  24.5344590  85.5475250  67.1197080  23.8171720
  85.4330260  66.0977420  24.9281870  83.7256420  67.3651630  21.8131330
  83.2659390  68.1167440  21.4389350  83.0968880  66.6458100  21.7546130
  78.1124650  50.3038560  22.3944950  77.3296440  50.7784060  22.6741710
  77.8187580  49.3993390  22.2858130  84.5284290  50.6376900  18.4502860
  84.4672690  49.6938120  18.3033880  85.3076320  50.7456990  18.9956320
  68.8337040  66.7769260  17.4126810  68.6659080  66.1439940  18.1108700
  67.9671550  66.9828660  17.0621000  69.4565060  50.6086040  14.9158670
  70.2144420  50.7214920  14.3422700  68.9942230  51.4455240  14.8702100
  80.5003850  49.3867760  19.1444050  81.1033220  49.9587970  19.6192570
  79.7596840  49.9507200  18.9217950  83.6438450  49.7889320  14.4184330
  83.8389080  50.6872770  14.6851760  82.8568320  49.5576400  14.9117280
  70.4399740  65.4702490  14.8576950  69.9147360  65.8510520  14.1538910
  70.3644320  66.0953260  15.5786660  71.8290210  51.1350090  13.4560640
  72.3582970  50.3479890  13.3268590  72.4618530  51.8141280  13.6896170
  74.0228050  50.8725230  16.5106030  73.3930790  50.1712540  16.6776160
  73.4833190  51.6329360  16.2939190  76.9620000  67.4864460  29.1816640
  77.8887310  67.2508730  29.2252600  76.9470430  68.3136460  28.7002670
  85.1965060  67.0290030  16.1790890  85.3717250  66.3427770  15.5351810
  84.4986630  67.5537080  15.7867560  73.0392710  67.4184870  13.7326200
  73.7711530  67.1344150  13.1850090  73.2986380  67.1798150  14.6225580
  72.2007500  63.5349600  13.7372530  71.5716380  64.0034700  14.2858360
  72.3155330  62.6898820  14.1718720  83.5297560  66.7134320  29.0057680
  84.3222880  66.2183550  28.7983640  83.8230710  67.3924460  29.6133290
  77.7875260  59.3634280   1.7683000  77.0117360  58.8834720   2.0581570
  78.4388190  58.6839930   1.5939160  71.8041090  59.6754090   2.6458760
  70.9725970  59.4202800   3.0455270  72.4122070  59.7464860   3.3816680
  71.7842350  63.7094180   2.8416780  72.0870390  62.8191920   2.6627000
  72.5285940  64.2664400   2.6139030  77.2284250  62.0391470   1.7753160
  77.1592530  61.0981410   1.6142290  77.9904110  62.1292880   2.3475730
  69.4190920  52.6445990   4.1009780  69.2393760  51.7471740   4.3812540
  69.0171000  53.1917860   4.7756730  70.0377590  55.1406490   2.7092120
  70.7187700  55.4044860   3.3279520  69.7225640  54.3007360   3.0430130
  74.2302160  56.1873850   1.7964710  74.7380380  56.6854820   2.4369730
  74.7615400  55.4109050   1.6204070  86.3313090  54.3579040   5.4994060
  85.6265260  54.7460750   4.9809170  86.5971010  55.0529330   6.1014990
  72.5138260  50.8272410   6.0628130  72.5156700  51.3444800   5.2574030
  71.6842570  50.3502590   6.0398060  73.7641110  60.4667590   4.2401630
  73.4310490  61.0936510   4.8822700  73.9407790  60.9929470   3.4603300
  72.1953590  52.5382370   4.0698580  72.5370400  53.3824420   3.7752450
  71.2569400  52.6866110   4.1863920  72.9760210  62.4348390   6.0550810
  73.5934210  63.1099470   5.7735260  72.1153330  62.8436370   5.9638310
  83.8937800  63.8987800   3.9705450  83.2101320  64.5686910   3.9622120
  84.4332090  64.0968450   3.2050310  85.3461940  53.7267460   2.0987180
  84.3986850  53.7606440   2.2302610  85.6711930  54.5406410   2.4836540
  81.4296540  65.7431930   2.6850630  81.4423700  65.3394220   1.8172890
  80.8771760  66.5179220   2.5812060  80.8281980  60.6461770   4.0133240
  81.2450770  60.4321880   3.1786700  81.5521800  60.9034560   4.5841860
  84.7744080  59.0448990   4.1049480  83.9462710  59.1142080   3.6299610
  85.3694560  59.6303300   3.6365310  81.7386090  55.8318310   5.0504350
  81.3257270  56.6572020   5.3044340  81.0062040  55.2463350   4.8580710
  72.5847500  55.3921420   3.6922060  73.1362090  55.5016760   2.9175310
  73.0991010  55.7659020   4.4077290  82.4286190  65.8777640   5.7385330
  81.9516750  66.6849830   5.5457940  81.7447980  65.2255970   5.8911540
  73.4319010  62.0427460   8.7270030  72.5347540  62.2667430   8.9743430
  73.4571880  62.1662400   7.7781430  72.2590230  58.9140780   7.3027400
  72.1198000  59.7863580   7.6714800  71.3771590  58.5713590   7.1575340
  74.0570580  64.8562480   9.5112550  74.0286010  65.2605430   8.6440980
  73.8935550  63.9272840   9.3484150  86.0085400  65.6389580  10.8076720
  86.4845120  66.1172470  11.4865800  86.6292560  65.5707070  10.0822220
  68.2108880  60.6838330   3.2198310  68.2889300  60.8187100   2.2754030
  68.8250560  59.9754220   3.4126430  85.4118650  62.8302430   7.9676730
  85.5381710  62.5914310   7.0493910  85.4540030  61.9986970   8.4398810
  79.2735390  66.5330430   6.5371540  79.7880060  66.4438440   7.3393970
  78.4304470  66.8790130   6.8299450  85.2642660  54.8834890   8.9326470
  84.6486930  55.3914560   8.4041930  84.9439080  53.9833220   8.8752410
  68.2668400  61.7252500   5.7592770  68.4299440  61.2557860   4.9412140
  68.7320850  61.2176060   6.4241610  77.3256980  53.7226780   6.3988660
  76.8636350  53.9309800   7.2108600  76.9235090  52.9086130   6.0959330
  82.3261490  54.9435730   7.5285320  81.4755080  54.6441480   7.8494390
  82.1663280  55.1877740   6.6169140  79.4211200  56.4437480   9.6284110
  79.7464610  55.6101230   9.2886340  80.2091530  56.9666000   9.7762440
  75.0763070  51.4005590   2.6542940  75.3735400  52.3068420   2.5734960
  75.6248630  50.9124370   2.0402510  75.2700600  56.8777410   9.1894860
  75.1744200  55.9372140   9.0395260  76.1132580  57.0992480   8.7942930
  70.4011140  53.2891080   7.3428640  70.0074530  54.1366290   7.5501420
  69.7129540  52.6517450   7.5337280  76.9756190  53.3726050  10.4125380
  76.2854510  53.1798250  11.0471470  77.7188490  53.6560690  10.9449680
  79.2519160  57.2124490   3.2479300  78.5200280  57.7211300   3.5969400
  78.8543500  56.3954470   2.9468080  79.7145070  52.6658170   2.6602240
  79.7317810  53.1166820   3.5044090  79.4660650  51.7663810   2.8735680
  83.1415820  50.0790350   8.4988620  83.4661590  49.3480010   9.0246600
  83.1772330  49.7603990   7.5969610  69.8407380  61.1003930   7.9188580
  69.4562170  60.4597600   8.5171540  70.1519570  61.8040050   8.4883310
  75.9904520  57.9480470   3.3997200  76.3574650  57.4739040   4.1458540
  75.8009580  58.8222040   3.7405540  73.7803890  56.9889110   5.7181410
  73.4760960  57.8681090   5.9431770  74.7350350  57.0488900   5.7538850
  83.0673660  60.1915460   2.1074650  83.7872780  60.6870750   1.7170760
  82.8655480  59.5133350   1.4628520  78.4492460  60.2624520   7.9943650
  78.3829770  59.3420190   7.7401240  77.8197600  60.3599960   8.7088290
  69.8367620  57.8291850   6.8652770  69.4782560  58.4945700   7.4526110
  69.5422180  56.9975400   7.2365390  73.0380740  58.2876090   9.7492320
  72.7380880  58.4333270   8.8520140  73.8091980  57.7281380   9.6565710
  78.3809190  63.0845090   7.7447450  78.3953730  62.1526050   7.5266360
  77.6734290  63.1704850   8.3837220  84.5920400  59.7252430   7.0916030
  83.8668590  60.3181210   6.8945420  85.1195860  59.7175970   6.2929400
  77.8143090  64.7262660   4.8387950  78.4585310  64.9322040   5.5161370
  78.1772530  63.9651060   4.3858800  79.0875170  62.7295010   3.5565400
  79.7297400  62.0288170   3.6697570  79.6124520  63.5093450   3.3762290
  80.8612790  63.5289910   6.7601460  81.1969030  64.1156600   7.4379380
  79.9413130  63.3982620   6.9899250  68.4116190  51.3185090   7.5424870
  67.6974710  51.5182010   8.1477480  68.8311230  50.5424660   7.9139670
  68.6988780  65.3065350   8.5291400  68.8079900  64.3660090   8.3886790
  68.0469340  65.5720100   7.8805130  76.6901370  63.5781240   9.9289520
  76.3698240  62.8590480  10.4735210  76.0159730  64.2536310  10.0025580
  79.9054970  53.8107400   5.2926320  80.2735790  52.9902610   5.6205890
  79.0453170  53.8709290   5.7081970  76.8656960  56.4646990   5.5164290
  77.3642210  56.9392810   6.1816140  77.0079910  55.5410510   5.7234320
  84.0723820  52.6814950   6.3592680  83.5697420  53.4220350   6.6986490
  84.8880480  53.0698950   6.0429470  70.8447220  66.3734260  10.3411010
  71.6459950  66.6946310  10.7546410  70.3299040  66.0129840  11.0630920
  79.6811850  62.4814130  10.2886420  79.0750010  62.5045730   9.5482170
  79.3765960  61.7497170  10.8253670  81.1112220  66.2094420   8.8995830
  82.0633970  66.1252440   8.8496070  80.9640440  66.8736130   9.5729620
  68.5645030  58.8607720   9.2847060  69.0684050  58.2815000   9.8563290
  67.8252450  59.1447950   9.8223430  75.6182970  60.2678710   8.8182580
  74.8528640  60.8363710   8.7337250  75.7998930  59.9754920   7.9250810
  82.7606320  61.9984040   9.3757600  83.5015790  62.3359800   8.8725060
  81.9979000  62.1676100   8.8227370  70.5968110  57.0037310  10.1797130
  70.6373450  56.7051180  11.0882360  71.4513610  57.4044920  10.0204650
  72.5373920  55.5829410   8.1471620  72.0070380  55.0920360   7.5194960
  73.2061990  56.0113610   7.6129550  81.4351980  60.0498870   7.9112810
  81.8493000  60.2043950   8.7603230  80.5002980  60.1754090   8.0738590
  81.9074150  57.3895030   9.9151960  82.4894920  56.6347350   9.8272440
  82.0835920  57.9202470   9.1383440  73.0246220  52.5491780   8.2268910
  72.9303090  51.9312530   7.5019780  72.4443610  53.2758070   7.9998820
  75.7907660  51.1065020   5.2596300  75.3424960  51.1289280   4.4141850
  75.1572860  50.7084040   5.8566600  76.1967210  60.0019350   5.8808740
  76.6155320  60.8452080   5.7084980  75.2775840  60.1391390   5.6515520
  78.5331110  57.7335530   7.2646580  78.6527320  57.1376670   8.0041420
  79.3925110  57.7705220   6.8447880  80.8719010  58.2872720   5.8409090
  80.3454230  58.8115340   5.2374230  81.2150350  58.9200110   6.4718820
  74.0474630  66.3072360   6.9966470  73.5095720  67.0318420   6.6775170
  74.3008590  65.8302700   6.2063810  75.2999880  54.2756880   8.5222400
  75.8899570  53.9672730   9.2100220  74.4820120  53.8036630   8.6782300
  80.1193310  53.8922690   8.7555420  79.4308830  53.2304230   8.6905410
  80.8399330  53.4460960   9.2003880  76.9036840  67.5423570   7.2553120
  76.8295540  68.4458710   7.5625490  76.0015680  67.2235470   7.2275190
  68.7954340  65.7368750   3.2968370  68.3585330  65.9169550   4.1292520
  69.3632020  66.4943370   3.1550090  84.4316520  65.2385750   7.5845680
  83.8318510  65.2978310   6.8409600  84.5610420  64.2990730   7.7142530
  83.1168160  61.9637730   5.6821840  82.3028000  62.3934890   5.9447630
  83.5242360  62.5756140   5.0690890  69.6654700  58.6341550   4.1960590
  70.0327740  58.5468950   5.0756610  69.0965520  57.8708100   4.0967450
  84.4658560  57.1025930   7.2091060  84.2344650  56.8738680   6.3089010
  84.7263110  58.0225480   7.1635950  69.2170700  55.5450640   8.1019010
  68.3226750  55.5117400   8.4412720  69.7568250  55.7437430   8.8670260
  82.9046630  52.3282360   9.9870760  83.7816810  52.3365760  10.3704760
  82.9167470  51.5913200   9.3763110  84.5299620  56.2651770   4.3978330
  83.5802330  56.2315310   4.5123320  84.7112630  57.1751880   4.1628100
  69.7210410  49.8198970   2.4502230  70.3686600  49.2696350   2.0097390
  70.1412250  50.0742120   3.2718040  83.6162750  50.0140330   5.8071870
  84.2534970  50.6274470   6.1731060  83.7637640  50.0500990   4.8621100
  69.4742410  49.9754640   5.1927550  69.1257230  50.4318460   5.9585730
  69.1430110  49.0811770   5.2749980  71.0806780  63.1474240   9.3580740
  71.0376410  62.7767150  10.2395200  71.2117790  64.0851810   9.4982560
  74.7812810  64.7033830   4.9590460  74.5404170  64.9708390   4.0720980
  75.7215450  64.8739560   5.0141320  76.9867230  51.1666520   8.7146970
  76.9256120  51.7588350   9.4642380  77.9267610  51.0592480   8.5697230
  79.6241790  50.8236580   8.3539260  80.2382200  51.1415870   7.6920340
  80.1691350  50.3385170   8.9735120  86.0416970  66.7228210   5.7601100
  85.5475250  67.1197080   5.0428230  85.4330260  66.0977420   6.1538380
  70.1463050  49.5030840   8.4678320  70.6946040  49.3218890   7.7044430
  70.2118360  48.7124950   9.0034630  70.9194810  66.0936490   6.4778520
  70.3255130  65.9621190   7.2168560  70.9118650  65.2574630   6.0120620
  80.3649830  49.3868720   4.6808550  79.4909670  49.7203830   4.4781480
  80.2560580  48.9141900   5.5060420  81.2721810  51.5939590   6.0650270
  80.9435170  50.7791350   5.6852000  82.2204110  51.5509400   5.9415960
  83.7256420  67.3651630   3.0387840  83.2659390  68.1167440   2.6645860
  83.0968880  66.6458100   2.9802640  70.5507040  63.4594870   5.4286560
  69.8241100  62.8400160   5.3612510  70.6116190  63.8535480   4.5584640
  74.1552140  65.6739870   2.2135970  74.6717160  65.0627230   1.6884230
  74.8049520  66.1768650   2.7046980  76.8947640  66.5648360   3.0404950
  77.1825450  66.3102660   2.1637960  77.4070860  66.0125720   3.6310520
  78.1124650  50.3038560   3.6201460  77.3296440  50.7784060   3.8998220
  77.8187580  49.3993390   3.5114640  76.9620000  67.4864460  10.4073150
  77.8887310  67.2508730  10.4509110  76.9470430  68.3136460   9.9259180
  74.1483610  50.1509210  10.1715030  73.8667880  50.6542810   9.4075850
  74.5303310  49.3530960   9.8057160  80.7499070  49.5662790  10.7495500
  80.6364520  49.8857400  11.6447020  81.5668810  49.9675300  10.4532780
  83.5297560  66.7134320  10.2314190  84.3222880  66.2183550  10.0240150
  83.8230710  67.3924460  10.8389800  79.6557220  38.8111770 150.0821650
  79.5751270  37.8966380 149.8113360  79.2421640  39.3078840 149.3761360
  81.8082690  44.9950980 150.7430050  81.3464220  44.2238220 151.0717220
  82.6208240  45.0217050 151.2482500  70.2133040  35.8612490 146.6249070
  69.3249740  36.2028460 146.5228950  70.4974230  35.6612810 145.7329900
  78.0346000  47.2808990 150.3634040  77.4157440  47.7366490 149.7928480
  78.8897780  47.4360450 149.9623740  72.3894430  34.4443990 147.6587450
  72.4961180  35.3447720 147.9656210  71.4786790  34.3961960 147.3682100
  82.0413540  33.5668800 149.1298350  82.8623160  33.0765370 149.1723830
  82.0747620  34.1566460 149.8830190  78.9009350  42.1648230 147.7565950
  78.2826620  42.6297680 147.1928670  79.4132600  42.8575710 148.1735460
  68.2692550  42.8504760 145.1305580  67.8920530  43.3391860 144.3990480
  68.5265620  43.5230040 145.7612110  75.8781480  31.2521150 150.5891090
  76.1856460  30.6968040 149.8726590  74.9482180  31.3865610 150.4064080
  82.7241960  43.6904660 147.9688720  82.6138290  42.7478990 148.0938140
  82.7210210  44.0520300 148.8551480  78.2662240  39.3169980 147.3251210
  77.3391520  39.2507360 147.5539680  78.4187060  40.2550110 147.2106450
  78.2531320  35.5886980 144.3218370  77.3134990  35.7500940 144.4070830
  78.5714580  36.3072660 143.7754360  82.2959530  40.8790280 147.8286460
  81.6771950  40.5409830 147.1812760  82.2783980  40.2350040 148.5365650
  73.8718880  39.8434720 150.1070940  73.4675880  39.1311970 149.6116840
  73.9582000  39.4987960 150.9958980  80.4724230  40.1177090 144.8359210
  80.9117510  39.2799520 144.6897030  81.1852650  40.7506490 144.9223350
  78.5819610  45.0573160 148.8040450  79.0215520  45.7997490 148.3895840
  78.5206500  45.2999730 149.7279410  84.0541370  31.3719900 143.1500250
  83.7414030  31.4646730 144.0499320  84.8153840  31.9500930 143.0997680
  70.5723510  38.7379700 147.6077590  70.4521110  39.4641790 146.9958860
  70.2624400  37.9682610 147.1305500  69.4556510  43.6095030 149.8252410
  69.0484590  43.7509620 148.9706010  70.3469520  43.3255190 149.6223620
  81.2489790  48.0442280 146.1603460  81.0890930  47.7545220 147.0585290
  81.0836500  47.2682410 145.6248690  73.7278170  47.8240810 147.9375080
  73.5520650  46.9076350 147.7242880  72.8733910  48.1828100 148.1772880
  80.9515920  45.5529840 144.7201460  80.2581080  45.5507130 144.0603740
  81.6938780  45.1289160 144.2895630  80.5165850  47.1792550 148.7949950
  80.9722800  46.3981930 149.1088570  80.8558370  47.8899370 149.3391130
  73.0387170  32.0814770 150.9901260  72.5955320  32.8624310 150.6585780
  73.5972160  32.4044660 151.6972200  76.1545990  31.7025470 145.8707090
  75.5300170  31.6985340 146.5960400  76.0676110  30.8356430 145.4743060
  72.8301390  37.2048340 148.7182510  72.6042310  36.9885510 149.6229130
  72.0493920  37.6376800 148.3728480  80.0599150  37.2111710 147.3173160
  79.4608040  37.9347510 147.1336780  80.6078760  37.1488490 146.5349610
  78.6664020  35.8475250 149.3476440  79.0593590  36.1647450 148.5345130
  79.0280870  34.9687130 149.4620960  67.8898420  36.3796170 142.7809360
  67.8073090  37.3226930 142.9224350  67.5381480  36.2371080 141.9021710
  71.5398930  34.9961690 150.8073920  71.1998980  35.4736920 151.5640970
  70.7776250  34.5426810 150.4475020  75.7516700  36.1147280 144.8386470
  75.8729520  36.0733760 145.7872290  75.3665210  36.9771430 144.6833200
  74.7638200  38.4248420 144.2369770  74.1955100  37.9766670 143.6105680
  75.4727200  38.7841200 143.7034920  68.8545010  33.9180670 149.7238590
  68.5691930  33.5536340 150.5617210  68.7923870  33.1861130 149.1101730
  72.3085680  42.4206610 146.5096180  71.5347940  41.8804230 146.3494900
  73.0380310  41.9013220 146.1713940  78.5283600  32.8109930 146.4451960
  77.7148210  32.3123100 146.3697270  78.3345550  33.6508180 146.0288310
  81.2431990  37.1829580 144.7414120  82.1311610  37.4946810 144.5665460
  81.2137080  36.3101830 144.3494700  72.3523080  42.0886990 150.1474990
  72.8701750  41.2855250 150.0931880  71.9007100  42.0266130 150.9891820
  77.2392580  43.3553270 145.4202290  77.5808280  44.0995500 144.9245610
  76.4105290  43.6684390 145.7827120  83.5146260  38.4941420 144.2093980
  83.4309980  38.9255640 143.3590420  84.2340450  38.9539770 144.6420800
  84.5433510  45.3483680 146.9376110  83.9009670  44.6939300 147.2119830
  84.1564170  45.7538770 146.1616780  80.1219990  42.6769110 150.7847800
  80.4743810  42.0797240 150.1249170  79.2382320  42.3513340 150.9556050
  76.2083270  43.4366800 148.1918210  76.8954400  43.9836010 148.5725800
  75.4215690  43.9807530 148.2267820  68.3475670  39.0539620 143.6835290
  69.2170520  39.3364420 143.9671210  67.8565990  39.8675490 143.5684100
  75.5110480  40.4412830 147.8043570  75.9673260  41.2518080 148.0303760
  75.1598690  40.1235970 148.6362060  71.4122260  30.7850480 148.2766090
  71.2836890  30.7768380 149.2251010  70.5884280  31.1233570 147.9257100
  82.9330890  44.2400140 143.4752460  82.7068470  43.5230580 144.0677100
  82.5427090  43.9912580 142.6374210  68.7146920  48.2667000 144.2496920
  69.0744560  48.8656340 143.5954190  68.5739260  48.8126890 145.0231950
  82.5147140  42.1572080 145.1366620  82.2268840  42.6184770 145.9244500
  83.3099310  41.6969850 145.4050840  74.7315540  45.6498200 145.0670590
  74.7225640  46.3827890 144.4515100  73.8113900  45.4029780 145.1597550
  70.3322180  40.8713090 145.8117350  69.7250130  41.6111990 145.8212650
  70.8071530  40.9612450 144.9855550  83.2717000  33.9920850 146.2961800
  82.6430160  34.0966520 145.5820030  82.7768920  34.2117630 147.0855680
  77.7175140  45.7126440 143.7295780  77.8187120  45.5090430 142.7997760
  76.8176880  45.4584720 143.9343560  75.2401030  36.2706800 147.7119680
  74.5317180  36.7393140 148.1533290  75.5245510  35.6128810 148.3464870
  79.2716460  32.9957460 149.1515470  79.1484240  33.0143590 148.2024980
  80.2201020  33.0436400 149.2713870  76.3593250  48.2312760 148.4243450
  76.6134750  48.1934150 147.5022820  75.4105730  48.1046090 148.4171700
  73.4436050  34.5791880 145.0870390  74.2926580  35.0162030 145.0210580
  73.0767320  34.8912140 145.9142450  82.3645830  39.1504640 150.0001960
  81.4235970  39.1654870 150.1749650  82.6789900  38.3640600 150.4462260
  72.3427470  40.8324240 143.5605920  73.1090740  40.7205600 144.1231350
  72.4202160  40.1362210 142.9082690  71.0374230  38.2649310 144.2438810
  71.1177820  37.3176820 144.3556210  71.9293980  38.5956190 144.3499470
  71.8388940  48.4144700 151.3473350  72.5751420  47.8660160 151.6181920
  72.2229860  49.2800710 151.2079340  68.7234420  44.4818270 147.2214860
  67.7974200  44.7239410 147.2120270  69.1890850  45.3092530 147.0999610
  74.9491250  47.5875010 143.1698920  75.7419860  47.8763840 142.7180710
  74.4295600  47.1567180 142.4911400  84.0021420  46.8145140 144.5935660
  83.7162930  46.4010280 143.7789840  83.8040970  47.7432850 144.4736180
  75.4668650  42.8078420 143.0341270  75.3619290  42.1930770 143.7602650
  75.2992870  42.2844310 142.2504280  78.7071380  41.8698450 143.6383260
  78.1581480  42.3167750 144.2826000  79.3290640  41.3647700 144.1620930
  74.3746500  40.8289370 145.5348560  74.7962920  40.6629240 146.3779950
  74.4997340  40.0189600 145.0403700  76.8874140  39.8526980 142.7825660
  77.4079800  39.1376000 142.4166810  77.5342540  40.4912850 143.0826170
  73.2705400  36.9022600 142.4806720  73.0694460  36.0389960 142.8420060
  73.0997450  36.8155960 141.5428320  80.7493710  31.7130830 145.0093600
  81.0296000  30.8698730 145.3653020  79.9759440  31.9453940 145.5232350
  72.0688200  34.0023220 142.4684600  72.3714100  34.0090650 141.5603750
  72.8082790  33.6521080 142.9652260  75.2873130  32.9457840 143.4540800
  74.9395130  32.2681830 142.8743250  75.4885900  32.4847350 144.2684190
  77.4522170  47.9338590 145.0727400  78.3472960  48.2723560 145.0946160
  77.4839800  47.2118000 144.4451680  71.0918330  43.3065640 143.3014400
  71.5293200  43.8495310 143.9571980  71.5766060  42.4812590 143.3110740
  68.3064130  46.0954670 150.7534660  68.6367140  45.2275730 150.5213300
  68.7355130  46.3013190 151.5839620  72.9026050  44.4263680 148.4136630
  72.6021590  44.3028650 149.3140540  72.7963540  43.5672270 148.0052360
  85.6717970  44.2060080 143.1163310  84.8410930  44.2736730 143.5870540
  85.8489800  45.0964200 142.8130170  85.1274430  40.9507560 145.6197510
  85.8893340  41.5204210 145.7257200  85.1428800  40.3834760 146.3905820
  68.6278770  39.4745490 149.8505170  67.9727610  39.2057130 149.2064870
  69.4656720  39.3649970 149.4007150  86.1334400  41.8057660 150.4639440
  86.5043230  41.0224980 150.0575410  86.7736330  42.4946760 150.2856740
  85.1793600  41.2441930 142.7770030  85.4542440  42.1520810 142.6489250
  84.9904340  41.1804460 143.7132020  81.5769210  34.2686780 144.0723660
  81.9954090  34.0817760 143.2320320  81.2705270  33.4165830 144.3826590
  85.0758940  39.1810920 147.7699460  84.7002540  38.4138850 147.3380750
  84.3462060  39.5633620 148.2574390  67.8416850  36.6844420 145.7930500
  66.9380930  36.9474620 145.6182160  68.3257470  36.9555590 145.0130460
  70.3844060  35.7409960 143.7024880  71.0935760  35.3193180 143.2172160
  69.6684000  35.8085190 143.0708230  70.0318220  31.7949290 142.7427530
  70.7546350  32.3358230 143.0608750  70.3042740  31.5212710 141.8669070
  83.8409870  36.6641760 147.0099110  84.3368990  36.4312630 147.7947990
  83.6425940  35.8253600 146.5936750  85.2697030  35.3002710 149.5436790
  85.1596310  35.1458750 150.4819060  86.0304620  34.7723650 149.3012200
  86.1587300  33.1310630 142.7842930  87.0836610  32.9991810 142.5761220
  86.1363090  33.2103450 143.7379380  86.2325790  33.9021290 145.4099640
  85.4377290  33.8366410 145.9392550  86.4369070  34.8371930 145.3984990
  83.1744210  47.9412840 149.4038030  83.7703280  47.6197410 148.7272450
  83.4322360  47.4684660 150.1951300  84.5284290  31.8633410 149.8707290
  84.4672690  30.9194630 149.7238310  85.3076320  31.9713500 150.4160750
  68.8337040  48.0025770 148.8331240  68.6659080  47.3696450 149.5313130
  67.9671550  48.2085170 148.4825430  69.4565060  31.8342550 146.3363100
  70.2144420  31.9471430 145.7627130  68.9942230  32.6711750 146.2906530
  75.9978870  33.9481820 149.3265410  75.1853380  33.5738710 148.9861290
  76.5020510  33.1926900 149.6286600  80.5003850  30.6124270 150.5648480
  81.1033220  31.1844480 151.0397000  79.7596840  31.1763710 150.3422380
  83.6438450  31.0145830 145.8388760  83.8389080  31.9129280 146.1056190
  82.8568320  30.7832910 146.3321710  70.4399740  46.6959000 146.2781380
  69.9147360  47.0767030 145.5743340  70.3644320  47.3209770 146.9991090
  71.8290210  32.3606600 144.8765070  72.3582970  31.5736400 144.7473020
  72.4618530  33.0397790 145.1100600  74.0228050  32.0981740 147.9310460
  73.3930790  31.3969050 148.0980590  73.4833190  32.8585870 147.7143620
  85.1965060  48.2546540 147.5995320  85.3717250  47.5684280 146.9556240
  84.4986630  48.7793590 147.2071990  73.0392710  48.6441380 145.1530630
  73.7711530  48.3600660 144.6054520  73.2986380  48.4054660 146.0430010
  72.2007500  44.7606110 145.1576960  71.5716380  45.2291210 145.7062790
  72.3155330  43.9155330 145.5923150  79.6557220  38.8111770 131.3078160
  79.5751270  37.8966380 131.0369870  79.2421640  39.3078840 130.6017870
  81.8082690  44.9950980 131.9686560  81.3464220  44.2238220 132.2973730
  82.6208240  45.0217050 132.4739010  71.7842350  44.9350690 134.2621210
  72.0870390  44.0448430 134.0831430  72.5285940  45.4920910 134.0343460
  78.0346000  47.2808990 131.5890550  77.4157440  47.7366490 131.0184990
  78.8897780  47.4360450 131.1880250  69.4190920  33.8702500 135.5214210
  69.2393760  32.9728250 135.8016970  69.0171000  34.4174370 136.1961160
  78.2589420  36.0718360 133.4226520  78.6354240  35.1990240 133.3100190
  78.1608930  36.4077060 132.5316960  82.0413540  33.5668800 130.3554860
  82.8623160  33.0765370 130.3980340  82.0747620  34.1566460 131.1086700
  70.0377590  36.3663000 134.1296550  70.7187700  36.6301370 134.7483950
  69.7225640  35.5263870 134.4634560  74.2302160  37.4130360 133.2169140
  74.7380380  37.9111330 133.8574160  74.7615400  36.6365560 133.0408500
  86.3313090  35.5835550 136.9198490  85.6265260  35.9717260 136.4013600
  86.5971010  36.2785840 137.5219420  72.5138260  32.0528920 137.4832560
  72.5156700  32.5701310 136.6778460  71.6842570  31.5759100 137.4602490
  78.9009350  42.1648230 128.9822460  78.2826620  42.6297680 128.4185180
  79.4132600  42.8575710 129.3991970  73.7641110  41.6924100 135.6606060
  73.4310490  42.3193020 136.3027130  73.9407790  42.2185980 134.8807730
  82.2775020  35.5069180 133.1282400  81.5730590  35.7954070 133.7085510
  82.6387180  36.3169290 132.7681960  72.1953590  33.7638880 135.4903010
  72.5370400  34.6080930 135.1956880  71.2569400  33.9122620 135.6068350
  72.9760210  43.6604900 137.4755240  73.5934210  44.3355980 137.1939690
  72.1153330  44.0692880 137.3842740  83.8937800  45.1244310 135.3909880
  83.2101320  45.7943420 135.3826550  84.4332090  45.3224960 134.6254740
  85.3461940  34.9523970 133.5191610  84.3986850  34.9862950 133.6507040
  85.6711930  35.7662920 133.9040970  75.8781480  31.2521150 131.8147600
  76.1856460  30.6968040 131.0983100  74.9482180  31.3865610 131.6320590
  81.4296540  46.9688440 134.1055060  81.4423700  46.5650730 133.2377320
  80.8771760  47.7435730 134.0016490  80.8281980  41.8718280 135.4337670
  81.2450770  41.6578390 134.5991130  81.5521800  42.1291070 136.0046290
  78.2662240  39.3169980 128.5507720  77.3391520  39.2507360 128.7796190
  78.4187060  40.2550110 128.4362960  78.2531320  35.5886980 125.5474880
  77.3134990  35.7500940 125.6327340  78.5714580  36.3072660 125.0010870
  84.7744080  40.2705500 135.5253910  83.9462710  40.3398590 135.0504040
  85.3694560  40.8559810 135.0569740  82.2959530  40.8790280 129.0542970
  81.6771950  40.5409830 128.4069270  82.2783980  40.2350040 129.7622160
  81.7386090  37.0574820 136.4708780  81.3257270  37.8828530 136.7248770
  81.0062040  36.4719860 136.2785140  72.5847500  36.6177930 135.1126490
  73.1362090  36.7273270 134.3379740  73.0991010  36.9915530 135.8281720
  82.4286190  47.1034150 137.1589760  81.9516750  47.9106340 136.9662370
  81.7447980  46.4512480 137.3115970  73.4319010  43.2683970 140.1474460
  72.5347540  43.4923940 140.3947860  73.4571880  43.3918910 139.1985860
  80.4724230  40.1177090 126.0615720  80.9117510  39.2799520 125.9153540
  81.1852650  40.7506490 126.1479860  72.2590230  40.1397290 138.7231830
  72.1198000  41.0120090 139.0919230  71.3771590  39.7970100 138.5779770
  74.0570580  46.0818990 140.9316980  74.0286010  46.4861940 140.0645410
  73.8935550  45.1529350 140.7688580  84.0541370  31.3719900 124.3756760
  83.7414030  31.4646730 125.2755830  84.8153840  31.9500930 124.3254190
  86.0085400  46.8646090 142.2281150  86.4845120  47.3428980 142.9070230
  86.6292560  46.7963580 141.5026650  68.2108880  41.9094840 134.6402740
  68.2889300  42.0443610 133.6958460  68.8250560  41.2010730 134.8330860
  85.4118650  44.0558940 139.3881160  85.5381710  43.8170820 138.4698340
  85.4540030  43.2243480 139.8603240  79.2735390  47.7586940 137.9575970
  79.7880060  47.6694950 138.7598400  78.4304470  48.1046640 138.2503880
  80.5165850  47.1792550 130.0206460  80.9722800  46.3981930 130.3345080
  80.8558370  47.8899370 130.5647640  85.2642660  36.1091400 140.3530900
  84.6486930  36.6171070 139.8246360  84.9439080  35.2089730 140.2956840
  68.2668400  42.9509010 137.1797200  68.4299440  42.4814370 136.3616570
  68.7320850  42.4432570 137.8446040  73.0387170  32.0814770 132.2157770
  72.5955320  32.8624310 131.8842290  73.5972160  32.4044660 132.9228710
  77.3256980  34.9483290 137.8193090  76.8636350  35.1566310 138.6313030
  76.9235090  34.1342640 137.5163760  82.3261490  36.1692240 138.9489750
  81.4755080  35.8697990 139.2698820  82.1663280  36.4134250 138.0373570
  79.4211200  37.6693990 141.0488540  79.7464610  36.8357740 140.7090770
  80.2091530  38.1922510 141.1966870  76.1545990  31.7025470 127.0963600
  75.5300170  31.6985340 127.8216910  76.0676110  30.8356430 126.6999570
  75.0763070  32.6262100 134.0747370  75.3735400  33.5324930 133.9939390
  75.6248630  32.1380880 133.4606940  80.0599150  37.2111710 128.5429670
  79.4608040  37.9347510 128.3593290  80.6078760  37.1488490 127.7606120
  75.2700600  38.1033920 140.6099290  75.1744200  37.1628650 140.4599690
  76.1132580  38.3248990 140.2147360  78.6664020  35.8475250 130.5732950
  79.0593590  36.1647450 129.7601640  79.0280870  34.9687130 130.6877470
  70.4011140  34.5147590 138.7633070  70.0074530  35.3622800 138.9705850
  69.7129540  33.8773960 138.9541710  76.9756190  34.5982560 141.8329810
  76.2854510  34.4054760 142.4675900  77.7188490  34.8817200 142.3654110
  67.7028190  32.4376050 132.7963150  67.4141240  33.0078910 133.5088130
  68.4473950  31.9580500 133.1594380  79.2519160  38.4381000 134.6683730
  78.5200280  38.9467810 135.0173830  78.8543500  37.6210980 134.3672510
  75.6896550  35.1135200 133.0736220  75.6932610  34.6725150 132.2240760
  76.5847670  35.4352530 133.1808040  79.7145070  33.8914680 134.0806670
  79.7317810  34.3423330 134.9248520  79.4660650  32.9920320 134.2940110
  74.7638200  38.4248420 125.4626280  74.1955100  37.9766670 124.8362190
  75.4727200  38.7841200 124.9291430  83.1415820  31.3046860 139.9193050
  83.4661590  30.5736520 140.4451030  83.1772330  30.9860500 139.0174040
  69.8407380  42.3260440 139.3393010  69.4562170  41.6854110 139.9375970
  70.1519570  43.0296560 139.9087740  75.9904520  39.1736980 134.8201630
  76.3574650  38.6995550 135.5662970  75.8009580  40.0478550 135.1609970
  68.8545010  33.9180670 130.9495100  68.5691930  33.5536340 131.7873720
  68.7923870  33.1861130 130.3358240  73.7803890  38.2145620 137.1385840
  73.4760960  39.0937600 137.3636200  74.7350350  38.2745410 137.1743280
  83.0673660  41.4171970 133.5279080  83.7872780  41.9127260 133.1375190
  82.8655480  40.7389860 132.8832950  78.5283600  32.8109930 127.6708470
  77.7148210  32.3123100 127.5953780  78.3345550  33.6508180 127.2544820
  78.4492460  41.4881030 139.4148080  78.3829770  40.5676700 139.1605670
  77.8197600  41.5856470 140.1292720  81.2431990  37.1829580 125.9670630
  82.1311610  37.4946810 125.7921970  81.2137080  36.3101830 125.5751210
  77.2392580  43.3553270 126.6458800  77.5808280  44.0995500 126.1502120
  76.4105290  43.6684390 127.0083630  69.8367620  39.0548360 138.2857200
  69.4782560  39.7202210 138.8730540  69.5422180  38.2231910 138.6569820
  73.0380740  39.5132600 141.1696750  72.7380880  39.6589780 140.2724570
  73.8091980  38.9537890 141.0770140  78.3809190  44.3101600 139.1651880
  78.3953730  43.3782560 138.9470790  77.6734290  44.3961360 139.8041650
  83.5146260  38.4941420 125.4350490  83.4309980  38.9255640 124.5846930
  84.2340450  38.9539770 125.8677310  84.5920400  40.9508940 138.5120460
  83.8668590  41.5437720 138.3149850  85.1195860  40.9432480 137.7133830
  80.1219990  42.6769110 132.0104310  80.4743810  42.0797240 131.3505680
  79.2382320  42.3513340 132.1812560  77.8143090  45.9519170 136.2592380
  78.4585310  46.1578550 136.9365800  78.1772530  45.1907570 135.8063230
  71.4122260  30.7850480 129.5022600  71.2836890  30.7768380 130.4507520
  70.5884280  31.1233570 129.1513610  79.0875170  43.9551520 134.9769830
  79.7297400  43.2544680 135.0902000  79.6124520  44.7349960 134.7966720
  80.8612790  44.7546420 138.1805890  81.1969030  45.3413110 138.8583810
  79.9413130  44.6239130 138.4103680  68.7146920  48.2667000 125.4753430
  69.0744560  48.8656340 124.8210700  68.5739260  48.8126890 126.2488460
  68.4116190  32.5441600 138.9629300  67.6974710  32.7438520 139.5681910
  68.8311230  31.7681170 139.3344100  82.5147140  42.1572080 126.3623130
  82.2268840  42.6184770 127.1501010  83.3099310  41.6969850 126.6307350
  68.6988780  46.5321860 139.9495830  68.8079900  45.5916600 139.8091220
  68.0469340  46.7976610 139.3009560  76.6901370  44.8037750 141.3493950
  76.3698240  44.0846990 141.8939640  76.0159730  45.4792820 141.4230010
  74.7315540  45.6498200 126.2927100  74.7225640  46.3827890 125.6771610
  73.8113900  45.4029780 126.3854060  79.9054970  35.0363910 136.7130750
  80.2735790  34.2159120 137.0410320  79.0453170  35.0965800 137.1286400
  83.2717000  33.9920850 127.5218310  82.6430160  34.0966520 126.8076540
  82.7768920  34.2117630 128.3112190  77.7175140  45.7126440 124.9552290
  77.8187120  45.5090430 124.0254270  76.8176880  45.4584720 125.1600070
  76.8656960  37.6903500 136.9368720  77.3642210  38.1649320 137.6020570
  77.0079910  36.7667020 137.1438750  79.2716460  32.9957460 130.3771980
  79.1484240  33.0143590 129.4281490  80.2201020  33.0436400 130.4970380
  84.0723820  33.9071460 137.7797110  83.5697420  34.6476860 138.1190920
  84.8880480  34.2955460 137.4633900  82.3645830  39.1504640 131.2258470
  81.4235970  39.1654870 131.4006160  82.6789900  38.3640600 131.6718770
  71.8388940  48.4144700 132.5729860  72.5751420  47.8660160 132.8438430
  72.2229860  49.2800710 132.4335850  70.8447220  47.5990770 141.7615440
  71.6459950  47.9202820 142.1750840  70.3299040  47.2386350 142.4835350
  74.9491250  47.5875010 124.3955430  75.7419860  47.8763840 123.9437220
  74.4295600  47.1567180 123.7167910  79.6811850  43.7070640 141.7090850
  79.0750010  43.7302240 140.9686600  79.3765960  42.9753680 142.2458100
  81.1112220  47.4350930 140.3200260  82.0633970  47.3508950 140.2700500
  80.9640440  48.0992640 140.9934050  68.5645030  40.0864230 140.7051490
  69.0684050  39.5071510 141.2767720  67.8252450  40.3704460 141.2427860
  75.4668650  42.8078420 124.2597780  75.3619290  42.1930770 124.9859160
  75.2992870  42.2844310 123.4760790  75.6182970  41.4935220 140.2387010
  74.8528640  42.0620220 140.1541680  75.7998930  41.2011430 139.3455240
  78.7071380  41.8698450 124.8639770  78.1581480  42.3167750 125.5082510
  79.3290640  41.3647700 125.3877440  82.7606320  43.2240550 140.7962030
  83.5015790  43.5616310 140.2929490  81.9979000  43.3932610 140.2431800
  70.5968110  38.2293820 141.6001560  70.6373450  37.9307690 142.5086790
  71.4513610  38.6301430 141.4409080  74.3746500  40.8289370 126.7605070
  74.7962920  40.6629240 127.6036460  74.4997340  40.0189600 126.2660210
  72.5373920  36.8085920 139.5676050  72.0070380  36.3176870 138.9399390
  73.2061990  37.2370120 139.0333980  76.8874140  39.8526980 124.0082170
  77.4079800  39.1376000 123.6423320  77.5342540  40.4912850 124.3082680
  81.4351980  41.2755380 139.3317240  81.8493000  41.4300460 140.1807660
  80.5002980  41.4010600 139.4943020  81.9074150  38.6151540 141.3356390
  82.4894920  37.8603860 141.2476870  82.0835920  39.1458980 140.5587870
  73.0246220  33.7748290 139.6473340  72.9303090  33.1569040 138.9224210
  72.4443610  34.5014580 139.4203250  75.7907660  32.3321530 136.6800730
  75.3424960  32.3545790 135.8346280  75.1572860  31.9340550 137.2771030
  76.1967210  41.2275860 137.3013170  76.6155320  42.0708590 137.1289410
  75.2775840  41.3647900 137.0719950  78.5331110  38.9592040 138.6851010
  78.6527320  38.3633180 139.4245850  79.3925110  38.9961730 138.2652310
  80.8719010  39.5129230 137.2613520  80.3454230  40.0371850 136.6578660
  81.2150350  40.1456620 137.8923250  74.0474630  47.5328870 138.4170900
  73.5095720  48.2574930 138.0979600  74.3008590  47.0559210 137.6268240
  75.2999880  35.5013390 139.9426830  75.8899570  35.1929240 140.6304650
  74.4820120  35.0293140 140.0986730  80.1193310  35.1179200 140.1759850
  79.4308830  34.4560740 140.1109840  80.8399330  34.6717470 140.6208310
  80.7493710  31.7130830 126.2350110  81.0296000  30.8698730 126.5909530
  79.9759440  31.9453940 126.7488860  76.9036840  48.7680080 138.6757550
  76.8295540  49.6715220 138.9829920  76.0015680  48.4491980 138.6479620
  77.4522170  47.9338590 126.2983910  78.3472960  48.2723560 126.3202670
  77.4839800  47.2118000 125.6708190  68.3064130  46.0954670 131.9791170
  68.6367140  45.2275730 131.7469810  68.7355130  46.3013190 132.8096130
  68.7954340  46.9625260 134.7172800  68.3585330  47.1426060 135.5496950
  69.3632020  47.7199880 134.5754520  84.4316520  46.4642260 139.0050110
  83.8318510  46.5234820 138.2614030  84.5610420  45.5247240 139.1346960
  85.1274430  40.9507560 126.8454020  85.8893340  41.5204210 126.9513710
  85.1428800  40.3834760 127.6162330  86.1334400  41.8057660 131.6895950
  86.5043230  41.0224980 131.2831920  86.7736330  42.4946760 131.5113250
  83.1168160  43.1894240 137.1026270  82.3028000  43.6191400 137.3652060
  83.5242360  43.8012650 136.4895320  85.1793600  41.2441930 124.0026540
  85.4542440  42.1520810 123.8745760  84.9904340  41.1804460 124.9388530
  81.5769210  34.2686780 125.2980170  81.9954090  34.0817760 124.4576830
  81.2705270  33.4165830 125.6083100  85.0758940  39.1810920 128.9955970
  84.7002540  38.4138850 128.5637260  84.3462060  39.5633620 129.4830900
  69.6654700  39.8598060 135.6165020  70.0327740  39.7725460 136.4961040
  69.0965520  39.0964610 135.5171880  84.4658560  38.3282440 138.6295490
  84.2344650  38.0995190 137.7293440  84.7263110  39.2481990 138.5840380
  69.2170700  36.7707150 139.5223440  68.3226750  36.7373910 139.8617150
  69.7568250  36.9693940 140.2874690  82.9046630  33.5538870 141.4075190
  83.7816810  33.5622270 141.7909190  82.9167470  32.8169710 140.7967540
  84.3509900  37.4068410 132.2963210  84.8747380  36.9131060 131.6653380
  84.9369320  37.5418770 133.0410780  84.5299620  37.4908280 135.8182760
  83.5802330  37.4571820 135.9327750  84.7112630  38.4008390 135.5832530
  70.0318220  31.7949290 123.9684040  70.7546350  32.3358230 124.2865260
  70.3042740  31.5212710 123.0925580  83.8409870  36.6641760 128.2355620
  84.3368990  36.4312630 129.0204500  83.6425940  35.8253600 127.8193260
  69.7210410  31.0455480 133.8706660  70.3686600  30.4952860 133.4301820
  70.1412250  31.2998630 134.6922470  85.2697030  35.3002710 130.7693300
  85.1596310  35.1458750 131.7075570  86.0304620  34.7723650 130.5268710
  83.6162750  31.2396840 137.2276300  84.2534970  31.8530980 137.5935490
  83.7637640  31.2757500 136.2825530  86.1587300  33.1310630 124.0099440
  87.0836610  32.9991810 123.8017730  86.1363090  33.2103450 124.9635890
  86.2325790  33.9021290 126.6356150  85.4377290  33.8366410 127.1649060
  86.4369070  34.8371930 126.6241500  69.4742410  31.2011150 136.6131980
  69.1257230  31.6574970 137.3790160  69.1430110  30.3068280 136.6954410
  71.0806780  44.3730750 140.7785170  71.0376410  44.0023660 141.6599630
  71.2117790  45.3108320 140.9186990  74.7812810  45.9290340 136.3794890
  74.5404170  46.1964900 135.4925410  75.7215450  46.0996070 136.4345750
  76.9867230  32.3923030 140.1351400  76.9256120  32.9844860 140.8846810
  77.9267610  32.2848990 139.9901660  79.6241790  32.0493090 139.7743690
  80.2382200  32.3672380 139.1124770  80.1691350  31.5641680 140.3939550
  86.0416970  47.9484720 137.1805530  85.5475250  48.3453590 136.4632660
  85.4330260  47.3233930 137.5742810  70.1463050  30.7287350 139.8882750
  70.6946040  30.5475400 139.1248860  70.2118360  29.9381460 140.4239060
  70.9194810  47.3193000 137.8982950  70.3255130  47.1877700 138.6372990
  70.9118650  46.4831140 137.4325050  80.3649830  30.6125230 136.1012980
  79.4909670  30.9460340 135.8985910  80.2560580  30.1398410 136.9264850
  81.2721810  32.8196100 137.4854700  80.9435170  32.0047860 137.1056430
  82.2204110  32.7765910 137.3620390  83.7256420  48.5908140 134.4592270
  83.2659390  49.3423950 134.0850290  83.0968880  47.8714610 134.4007070
  70.5507040  44.6851380 136.8490990  69.8241100  44.0656670 136.7816940
  70.6116190  45.0791990 135.9789070  76.8947640  47.7904870 134.4609380
  77.1825450  47.5359170 133.5842390  77.4070860  47.2382230 135.0514950
  78.1124650  31.5295070 135.0405890  77.3296440  32.0040570 135.3202650
  77.8187580  30.6249900 134.9319070  82.6645720  32.2318170 133.0854980
  83.1053810  32.1763270 132.2376580  82.3953310  33.1476180 133.1565160
  84.5284290  31.8633410 131.0963800  84.4672690  30.9194630 130.9494820
  85.3076320  31.9713500 131.6417260  68.8337040  48.0025770 130.0587750
  68.6659080  47.3696450 130.7569640  67.9671550  48.2085170 129.7081940
  69.4565060  31.8342550 127.5619610  70.2144420  31.9471430 126.9883640
  68.9942230  32.6711750 127.5163040  75.9978870  33.9481820 130.5521920
  75.1853380  33.5738710 130.2117800  76.5020510  33.1926900 130.8543110
  80.5003850  30.6124270 131.7904990  81.1033220  31.1844480 132.2653510
  79.7596840  31.1763710 131.5678890  83.6438450  31.0145830 127.0645270
  83.8389080  31.9129280 127.3312700  82.8568320  30.7832910 127.5578220
  70.4399740  46.6959000 127.5037890  69.9147360  47.0767030 126.7999850
  70.3644320  47.3209770 128.2247600  74.0228050  32.0981740 129.1566970
  73.3930790  31.3969050 129.3237100  73.4833190  32.8585870 128.9400130
  76.9620000  48.7120970 141.8277580  77.8887310  48.4765240 141.8713540
  76.9470430  49.5392970 141.3463610  74.1483610  31.3765720 141.5919460
  73.8667880  31.8799320 140.8280280  74.5303310  30.5787470 141.2261590
  73.0392710  48.6441380 126.3787140  73.7711530  48.3600660 125.8311030
  73.2986380  48.4054660 127.2686520  72.2007500  44.7606110 126.3833470
  71.5716380  45.2291210 126.9319300  72.3155330  43.9155330 126.8179660
  80.7499070  30.7919300 142.1699930  80.6364520  31.1113910 143.0651450
  81.5668810  31.1931810 141.8737210  83.5297560  47.9390830 141.6518620
  84.3222880  47.4440060 141.4444580  83.8230710  48.6180970 142.2594230
  71.8041090  40.9010600 115.2919700  70.9725970  40.6459310 115.6916210
  72.4122070  40.9721370 116.0277620  81.8082690  44.9950980 113.1943070
  81.3464220  44.2238220 113.5230240  82.6208240  45.0217050 113.6995520
  71.7842350  44.9350690 115.4877720  72.0870390  44.0448430 115.3087940
  72.5285940  45.4920910 115.2599970  72.3894430  34.4443990 110.1100470
  72.4961180  35.3447720 110.4169230  71.4786790  34.3961960 109.8195120
  82.0413540  33.5668800 111.5811370  82.8623160  33.0765370 111.6236850
  82.0747620  34.1566460 112.3343210  72.5138260  32.0528920 118.7089070
  72.5156700  32.5701310 117.9034970  71.6842570  31.5759100 118.6859000
  73.7641110  41.6924100 116.8862570  73.4310490  42.3193020 117.5283640
  73.9407790  42.2185980 116.1064240  72.9760210  43.6604900 118.7011750
  73.5934210  44.3355980 118.4196200  72.1153330  44.0692880 118.6099250
  68.2692550  42.8504760 107.5818600  67.8920530  43.3391860 106.8503500
  68.5265620  43.5230040 108.2125130  83.8937800  45.1244310 116.6166390
  83.2101320  45.7943420 116.6083060  84.4332090  45.3224960 115.8511250
  82.7241960  43.6904660 110.4201740  82.6138290  42.7478990 110.5451160
  82.7210210  44.0520300 111.3064500  84.7744080  40.2705500 116.7510420
  83.9462710  40.3398590 116.2760550  85.3694560  40.8559810 116.2826250
  82.2959530  40.8790280 110.2799480  81.6771950  40.5409830 109.6325780
  82.2783980  40.2350040 110.9878670  81.7386090  37.0574820 117.6965290
  81.3257270  37.8828530 117.9505280  81.0062040  36.4719860 117.5041650
  72.5847500  36.6177930 116.3383000  73.1362090  36.7273270 115.5636250
  73.0991010  36.9915530 117.0538230  82.4286190  47.1034150 118.3846270
  81.9516750  47.9106340 118.1918880  81.7447980  46.4512480 118.5372480
  73.4319010  43.2683970 121.3730970  72.5347540  43.4923940 121.6204370
  73.4571880  43.3918910 120.4242370  74.0570580  46.0818990 122.1573490
  74.0286010  46.4861940 121.2901920  73.8935550  45.1529350 121.9945090
  84.0541370  31.3719900 105.6013270  83.7414030  31.4646730 106.5012340
  84.8153840  31.9500930 105.5510700  70.5723510  38.7379700 110.0590610
  70.4521110  39.4641790 109.4471880  70.2624400  37.9682610 109.5818520
  69.4556510  43.6095030 112.2765430  69.0484590  43.7509620 111.4219030
  70.3469520  43.3255190 112.0736640  85.4118650  44.0558940 120.6137670
  85.5381710  43.8170820 119.6954850  85.4540030  43.2243480 121.0859750
  81.2489790  48.0442280 108.6116480  81.0890930  47.7545220 109.5098310
  81.0836500  47.2682410 108.0761710  73.7278170  47.8240810 110.3888100
  73.5520650  46.9076350 110.1755900  72.8733910  48.1828100 110.6285900
  80.5165850  47.1792550 111.2462970  80.9722800  46.3981930 111.5601590
  80.8558370  47.8899370 111.7904150  85.2642660  36.1091400 121.5787410
  84.6486930  36.6171070 121.0502870  84.9439080  35.2089730 121.5213350
  82.3261490  36.1692240 120.1746260  81.4755080  35.8697990 120.4955330
  82.1663280  36.4134250 119.2630080  79.4211200  37.6693990 122.2745050
  79.7464610  36.8357740 121.9347280  80.2091530  38.1922510 122.4223380
  76.1545990  31.7025470 108.3220110  75.5300170  31.6985340 109.0473420
  76.0676110  30.8356430 107.9256080  72.8301390  37.2048340 111.1695530
  72.6042310  36.9885510 112.0742150  72.0493920  37.6376800 110.8241500
  75.2700600  38.1033920 121.8355800  75.1744200  37.1628650 121.6856200
  76.1132580  38.3248990 121.4403870  70.4011140  34.5147590 119.9889580
  70.0074530  35.3622800 120.1962360  69.7129540  33.8773960 120.1798220
  67.8898420  36.3796170 105.2322380  67.8073090  37.3226930 105.3737370
  67.5381480  36.2371080 104.3534730  79.7145070  33.8914680 115.3063180
  79.7317810  34.3423330 116.1505030  79.4660650  32.9920320 115.5196620
  83.1415820  31.3046860 121.1449560  83.4661590  30.5736520 121.6707540
  83.1772330  30.9860500 120.2430550  69.8407380  42.3260440 120.5649520
  69.4562170  41.6854110 121.1632480  70.1519570  43.0296560 121.1344250
  73.7803890  38.2145620 118.3642350  73.4760960  39.0937600 118.5892710
  74.7350350  38.2745410 118.3999790  83.0673660  41.4171970 114.7535590
  83.7872780  41.9127260 114.3631700  82.8655480  40.7389860 114.1089460
  78.5283600  32.8109930 108.8964980  77.7148210  32.3123100 108.8210290
  78.3345550  33.6508180 108.4801330  78.4492460  41.4881030 120.6404590
  78.3829770  40.5676700 120.3862180  77.8197600  41.5856470 121.3549230
  72.3523080  42.0886990 112.5988010  72.8701750  41.2855250 112.5444900
  71.9007100  42.0266130 113.4404840  78.3809190  44.3101600 120.3908390
  78.3953730  43.3782560 120.1727300  77.6734290  44.3961360 121.0298160
  84.5920400  40.9508940 119.7376970  83.8668590  41.5437720 119.5406360
  85.1195860  40.9432480 118.9390340  84.5433510  45.3483680 109.3889130
  83.9009670  44.6939300 109.6632850  84.1564170  45.7538770 108.6129800
  68.3475670  39.0539620 106.1348310  69.2170520  39.3364420 106.4184230
  67.8565990  39.8675490 106.0197120  80.8612790  44.7546420 119.4062400
  81.1969030  45.3413110 120.0840320  79.9413130  44.6239130 119.6360190
  68.7146920  48.2667000 106.7009940  69.0744560  48.8656340 106.0467210
  68.5739260  48.8126890 107.4744970  68.4116190  32.5441600 120.1885810
  67.6974710  32.7438520 120.7938420  68.8311230  31.7681170 120.5600610
  68.6988780  46.5321860 121.1752340  68.8079900  45.5916600 121.0347730
  68.0469340  46.7976610 120.5266070  76.6901370  44.8037750 122.5750460
  76.3698240  44.0846990 123.1196150  76.0159730  45.4792820 122.6486520
  70.3322180  40.8713090 108.2630370  69.7250130  41.6111990 108.2725670
  70.8071530  40.9612450 107.4368570  79.9054970  35.0363910 117.9387260
  80.2735790  34.2159120 118.2666830  79.0453170  35.0965800 118.3542910
  75.2401030  36.2706800 110.1632700  74.5317180  36.7393140 110.6046310
  75.5245510  35.6128810 110.7977890  76.8656960  37.6903500 118.1625230
  77.3642210  38.1649320 118.8277080  77.0079910  36.7667020 118.3695260
  79.2716460  32.9957460 111.6028490  79.1484240  33.0143590 110.6538000
  80.2201020  33.0436400 111.7226890  73.4436050  34.5791880 107.5383410
  74.2926580  35.0162030 107.4723600  73.0767320  34.8912140 108.3655470
  84.0723820  33.9071460 119.0053620  83.5697420  34.6476860 119.3447430
  84.8880480  34.2955460 118.6890410  82.3645830  39.1504640 112.4514980
  81.4235970  39.1654870 112.6262670  82.6789900  38.3640600 112.8975280
  84.3671410  46.3213490 114.1269240  84.4918830  47.1444660 114.5993050
  85.2336970  46.1104220 113.7793390  71.8388940  48.4144700 113.7986370
  72.5751420  47.8660160 114.0694940  72.2229860  49.2800710 113.6592360
  68.7234420  44.4818270 109.6727880  67.7974200  44.7239410 109.6633290
  69.1890850  45.3092530 109.5512630  70.8447220  47.5990770 122.9871950
  71.6459950  47.9202820 123.4007350  70.3299040  47.2386350 123.7091860
  79.6811850  43.7070640 122.9347360  79.0750010  43.7302240 122.1943110
  79.3765960  42.9753680 123.4714610  81.1112220  47.4350930 121.5456770
  82.0633970  47.3508950 121.4957010  80.9640440  48.0992640 122.2190560
  84.0021420  46.8145140 107.0448680  83.7162930  46.4010280 106.2302860
  83.8040970  47.7432850 106.9249200  75.6182970  41.4935220 121.4643520
  74.8528640  42.0620220 121.3798190  75.7998930  41.2011430 120.5711750
  82.7606320  43.2240550 122.0218540  83.5015790  43.5616310 121.5186000
  81.9979000  43.3932610 121.4688310  72.5373920  36.8085920 120.7932560
  72.0070380  36.3176870 120.1655900  73.2061990  37.2370120 120.2590490
  81.4351980  41.2755380 120.5573750  81.8493000  41.4300460 121.4064170
  80.5002980  41.4010600 120.7199530  81.9074150  38.6151540 122.5612900
  82.4894920  37.8603860 122.4733380  82.0835920  39.1458980 121.7844380
  76.1967210  41.2275860 118.5269680  76.6155320  42.0708590 118.3545920
  75.2775840  41.3647900 118.2976460  78.5331110  38.9592040 119.9107520
  78.6527320  38.3633180 120.6502360  79.3925110  38.9961730 119.4908820
  80.8719010  39.5129230 118.4870030  80.3454230  40.0371850 117.8835170
  81.2150350  40.1456620 119.1179760  74.0474630  47.5328870 119.6427410
  73.5095720  48.2574930 119.3236110  74.3008590  47.0559210 118.8524750
  80.1193310  35.1179200 121.4016360  79.4308830  34.4560740 121.3366350
  80.8399330  34.6717470 121.8464820  80.7493710  31.7130830 107.4606620
  81.0296000  30.8698730 107.8166040  79.9759440  31.9453940 107.9745370
  72.0688200  34.0023220 104.9197620  72.3714100  34.0090650 104.0116770
  72.8082790  33.6521080 105.4165280  76.9036840  48.7680080 119.9014060
  76.8295540  49.6715220 120.2086430  76.0015680  48.4491980 119.8736130
  75.2873130  32.9457840 105.9053820  74.9395130  32.2681830 105.3256270
  75.4885900  32.4847350 106.7197210  68.3064130  46.0954670 113.2047680
  68.6367140  45.2275730 112.9726320  68.7355130  46.3013190 114.0352640
  68.7954340  46.9625260 115.9429310  68.3585330  47.1426060 116.7753460
  69.3632020  47.7199880 115.8011030  84.4316520  46.4642260 120.2306620
  83.8318510  46.5234820 119.4870540  84.5610420  45.5247240 120.3603470
  68.6278770  39.4745490 112.3018190  67.9727610  39.2057130 111.6577890
  69.4656720  39.3649970 111.8520170  86.1334400  41.8057660 112.9152460
  86.5043230  41.0224980 112.5088430  86.7736330  42.4946760 112.7369760
  83.1168160  43.1894240 118.3282780  82.3028000  43.6191400 118.5908570
  83.5242360  43.8012650 117.7151830  84.4658560  38.3282440 119.8552000
  84.2344650  38.0995190 118.9549950  84.7263110  39.2481990 119.8096890
  82.9046630  33.5538870 122.6331700  83.7816810  33.5622270 123.0165700
  82.9167470  32.8169710 122.0224050  70.3844060  35.7409960 106.1537900
  71.0935760  35.3193180 105.6685180  69.6684000  35.8085190 105.5221250
  70.0318220  31.7949290 105.1940550  70.7546350  32.3358230 105.5121770
  70.3042740  31.5212710 104.3182090  83.6162750  31.2396840 118.4532810
  84.2534970  31.8530980 118.8192000  83.7637640  31.2757500 117.5082040
  86.1587300  33.1310630 105.2355950  87.0836610  32.9991810 105.0274240
  86.1363090  33.2103450 106.1892400  86.2325790  33.9021290 107.8612660
  85.4377290  33.8366410 108.3905570  86.4369070  34.8371930 107.8498010
  83.1744210  47.9412840 111.8551050  83.7703280  47.6197410 111.1785470
  83.4322360  47.4684660 112.6464320  71.0806780  44.3730750 122.0041680
  71.0376410  44.0023660 122.8856140  71.2117790  45.3108320 122.1443500
  74.7812810  45.9290340 117.6051400  74.5404170  46.1964900 116.7181920
  75.7215450  46.0996070 117.6602260  86.0416970  47.9484720 118.4062040
  85.5475250  48.3453590 117.6889170  85.4330260  47.3233930 118.7999320
  70.1463050  30.7287350 121.1139260  70.6946040  30.5475400 120.3505370
  70.2118360  29.9381460 121.6495570  70.9194810  47.3193000 119.1239460
  70.3255130  47.1877700 119.8629500  70.9118650  46.4831140 118.6581560
  83.7256420  48.5908140 115.6848780  83.2659390  49.3423950 115.3106800
  83.0968880  47.8714610 115.6263580  70.5507040  44.6851380 118.0747500
  69.8241100  44.0656670 118.0073450  70.6116190  45.0791990 117.2045580
  84.5284290  31.8633410 112.3220310  84.4672690  30.9194630 112.1751330
  85.3076320  31.9713500 112.8673770  68.8337040  48.0025770 111.2844260
  68.6659080  47.3696450 111.9826150  67.9671550  48.2085170 110.9338450
  80.5003850  30.6124270 113.0161500  81.1033220  31.1844480 113.4910020
  79.7596840  31.1763710 112.7935400  83.6438450  31.0145830 108.2901780
  83.8389080  31.9129280 108.5569210  82.8568320  30.7832910 108.7834730
  70.4399740  46.6959000 108.7294400  69.9147360  47.0767030 108.0256360
  70.3644320  47.3209770 109.4504110  71.8290210  32.3606600 107.3278090
  72.3582970  31.5736400 107.1986040  72.4618530  33.0397790 107.5613620
  76.9620000  48.7120970 123.0534090  77.8887310  48.4765240 123.0970050
  76.9470430  49.5392970 122.5720120  85.1965060  48.2546540 110.0508340
  85.3717250  47.5684280 109.4069260  84.4986630  48.7793590 109.6585010
  74.1483610  31.3765720 122.8175970  73.8667880  31.8799320 122.0536790
  74.5303310  30.5787470 122.4518100  73.0392710  48.6441380 107.6043650
  73.7711530  48.3600660 107.0567540  73.2986380  48.4054660 108.4943030
  80.7499070  30.7919300 123.3956440  80.6364520  31.1113910 124.2907960
  81.5668810  31.1931810 123.0993720  79.6557220  38.8111770  93.7591180
  79.5751270  37.8966380  93.4882890  79.2421640  39.3078840  93.0530890
  81.8082690  44.9950980  94.4199580  81.3464220  44.2238220  94.7486750
  82.6208240  45.0217050  94.9252030  71.7842350  44.9350690  96.7134230
  72.0870390  44.0448430  96.5344450  72.5285940  45.4920910  96.4856480
  68.1766050  38.4618140  96.1858300  68.7482160  37.6940340  96.1861940
  68.1767590  38.7606900  95.2764910  78.0346000  47.2808990  94.0403570
  77.4157440  47.7366490  93.4698010  78.8897780  47.4360450  93.6393270
  77.2284250  43.2647980  95.6470610  77.1592530  42.3237920  95.4859740
  77.9904110  43.3549390  96.2193180  69.4190920  33.8702500  97.9727230
  69.2393760  32.9728250  98.2529990  69.0171000  34.4174370  98.6474180
  72.3894430  34.4443990  91.3356980  72.4961180  35.3447720  91.6425740
  71.4786790  34.3961960  91.0451630  82.0413540  33.5668800  92.8067880
  82.8623160  33.0765370  92.8493360  82.0747620  34.1566460  93.5599720
  86.3313090  35.5835550  99.3711510  85.6265260  35.9717260  98.8526620
  86.5971010  36.2785840  99.9732440  72.5138260  32.0528920  99.9345580
  72.5156700  32.5701310  99.1291480  71.6842570  31.5759100  99.9115510
  78.9009350  42.1648230  91.4335480  78.2826620  42.6297680  90.8698200
  79.4132600  42.8575710  91.8504990  73.7641110  41.6924100  98.1119080
  73.4310490  42.3193020  98.7540150  73.9407790  42.2185980  97.3320750
  82.2775020  35.5069180  95.5795420  81.5730590  35.7954070  96.1598530
  82.6387180  36.3169290  95.2194980  72.1953590  33.7638880  97.9416030
  72.5370400  34.6080930  97.6469900  71.2569400  33.9122620  98.0581370
  72.9760210  43.6604900  99.9268260  73.5934210  44.3355980  99.6452710
  72.1153330  44.0692880  99.8355760  83.8937800  45.1244310  97.8422900
  83.2101320  45.7943420  97.8339570  84.4332090  45.3224960  97.0767760
  85.3461940  34.9523970  95.9704630  84.3986850  34.9862950  96.1020060
  85.6711930  35.7662920  96.3553990  75.8781480  31.2521150  94.2660620
  76.1856460  30.6968040  93.5496120  74.9482180  31.3865610  94.0833610
  81.4296540  46.9688440  96.5568080  81.4423700  46.5650730  95.6890340
  80.8771760  47.7435730  96.4529510  82.7241960  43.6904660  91.6458250
  82.6138290  42.7478990  91.7707670  82.7210210  44.0520300  92.5321010
  80.8281980  41.8718280  97.8850690  81.2450770  41.6578390  97.0504150
  81.5521800  42.1291070  98.4559310  78.2662240  39.3169980  91.0020740
  77.3391520  39.2507360  91.2309210  78.4187060  40.2550110  90.8875980
  84.7744080  40.2705500  97.9766930  83.9462710  40.3398590  97.5017060
  85.3694560  40.8559810  97.5082760  82.2959530  40.8790280  91.5055990
  81.6771950  40.5409830  90.8582290  82.2783980  40.2350040  92.2135180
  74.3400580  43.5302280  95.9479680  74.0428870  42.9247750  95.2687460
  75.2900400  43.5679590  95.8369040  82.4286190  47.1034150  99.6102780
  81.9516750  47.9106340  99.4175390  81.7447980  46.4512480  99.7628990
  80.4724230  40.1177090  88.5128740  80.9117510  39.2799520  88.3666560
  81.1852650  40.7506490  88.5992880  78.5819610  45.0573160  92.4809980
  79.0215520  45.7997490  92.0665370  78.5206500  45.2999730  93.4048940
  84.0541370  31.3719900  86.8269780  83.7414030  31.4646730  87.7268850
  84.8153840  31.9500930  86.7767210  86.0085400  46.8646090 104.6794170
  86.4845120  47.3428980 105.3583250  86.6292560  46.7963580 103.9539670
  68.2108880  41.9094840  97.0915760  68.2889300  42.0443610  96.1471480
  68.8250560  41.2010730  97.2843880  85.4118650  44.0558940 101.8394180
  85.5381710  43.8170820 100.9211360  85.4540030  43.2243480 102.3116260
  79.2735390  47.7586940 100.4088990  79.7880060  47.6694950 101.2111420
  78.4304470  48.1046640 100.7016900  81.2489790  48.0442280  89.8372990
  81.0890930  47.7545220  90.7354820  81.0836500  47.2682410  89.3018220
  73.7278170  47.8240810  91.6144610  73.5520650  46.9076350  91.4012410
  72.8733910  48.1828100  91.8542410  80.9515920  45.5529840  88.3970990
  80.2581080  45.5507130  87.7373270  81.6938780  45.1289160  87.9665160
  80.5165850  47.1792550  92.4719480  80.9722800  46.3981930  92.7858100
  80.8558370  47.8899370  93.0160660  68.2668400  42.9509010  99.6310220
  68.4299440  42.4814370  98.8129590  68.7320850  42.4432570 100.2959060
  73.0387170  32.0814770  94.6670790  72.5955320  32.8624310  94.3355310
  73.5972160  32.4044660  95.3741730  75.0763070  32.6262100  96.5260390
  75.3735400  33.5324930  96.4452410  75.6248630  32.1380880  95.9119960
  70.4011140  34.5147590 101.2146090  70.0074530  35.3622800 101.4218870
  69.7129540  33.8773960 101.4054730  67.7028190  32.4376050  95.2476170
  67.4141240  33.0078910  95.9601150  68.4473950  31.9580500  95.6107400
  67.8898420  36.3796170  86.4578890  67.8073090  37.3226930  86.5993880
  67.5381480  36.2371080  85.5791240  71.5398930  34.9961690  94.4843450
  71.1998980  35.4736920  95.2410500  70.7776250  34.5426810  94.1244550
  75.7516700  36.1147280  88.5156000  75.8729520  36.0733760  89.4641820
  75.3665210  36.9771430  88.3602730  79.7145070  33.8914680  96.5319690
  79.7317810  34.3423330  97.3761540  79.4660650  32.9920320  96.7453130
  74.7638200  38.4248420  87.9139300  74.1955100  37.9766670  87.2875210
  75.4727200  38.7841200  87.3804450  83.1415820  31.3046860 102.3706070
  83.4661590  30.5736520 102.8964050  83.1772330  30.9860500 101.4687060
  69.8407380  42.3260440 101.7906030  69.4562170  41.6854110 102.3888990
  70.1519570  43.0296560 102.3600760  68.8545010  33.9180670  93.4008120
  68.5691930  33.5536340  94.2386740  68.7923870  33.1861130  92.7871260
  83.0673660  41.4171970  95.9792100  83.7872780  41.9127260  95.5888210
  82.8655480  40.7389860  95.3345970  77.2392580  43.3553270  89.0971820
  77.5808280  44.0995500  88.6015140  76.4105290  43.6684390  89.4596650
  69.8367620  39.0548360 100.7370220  69.4782560  39.7202210 101.3243560
  69.5422180  38.2231910 101.1082840  83.5146260  38.4941420  87.8863510
  83.4309980  38.9255640  87.0359950  84.2340450  38.9539770  88.3190330
  84.5433510  45.3483680  90.6145640  83.9009670  44.6939300  90.8889360
  84.1564170  45.7538770  89.8386310  80.1219990  42.6769110  94.4617330
  80.4743810  42.0797240  93.8018700  79.2382320  42.3513340  94.6325580
  76.2083270  43.4366800  91.8687740  76.8954400  43.9836010  92.2495330
  75.4215690  43.9807530  91.9037350  77.8143090  45.9519170  98.7105400
  78.4585310  46.1578550  99.3878820  78.1772530  45.1907570  98.2576250
  71.4122260  30.7850480  91.9535620  71.2836890  30.7768380  92.9020540
  70.5884280  31.1233570  91.6026630  79.0875170  43.9551520  97.4282850
  79.7297400  43.2544680  97.5415020  79.6124520  44.7349960  97.2479740
  68.7146920  48.2667000  87.9266450  69.0744560  48.8656340  87.2723720
  68.5739260  48.8126890  88.7001480  68.4116190  32.5441600 101.4142320
  67.6974710  32.7438520 102.0194930  68.8311230  31.7681170 101.7857120
  82.5147140  42.1572080  88.8136150  82.2268840  42.6184770  89.6014030
  83.3099310  41.6969850  89.0820370  68.6988780  46.5321860 102.4008850
  68.8079900  45.5916600 102.2604240  68.0469340  46.7976610 101.7522580
  74.7315540  45.6498200  88.7440120  74.7225640  46.3827890  88.1284630
  73.8113900  45.4029780  88.8367080  83.2717000  33.9920850  89.9731330
  82.6430160  34.0966520  89.2589560  82.7768920  34.2117630  90.7625210
  77.7175140  45.7126440  87.4065310  77.8187120  45.5090430  86.4767290
  76.8176880  45.4584720  87.6113090  75.2401030  36.2706800  91.3889210
  74.5317180  36.7393140  91.8302820  75.5245510  35.6128810  92.0234400
  76.3593250  48.2312760  92.1012980  76.6134750  48.1934150  91.1792350
  75.4105730  48.1046090  92.0941230  73.4436050  34.5791880  88.7639920
  74.2926580  35.0162030  88.6980110  73.0767320  34.8912140  89.5911980
  82.3645830  39.1504640  93.6771490  81.4235970  39.1654870  93.8519180
  82.6789900  38.3640600  94.1231790  72.3427470  40.8324240  87.2375450
  73.1090740  40.7205600  87.8000880  72.4202160  40.1362210  86.5852220
  84.3671410  46.3213490  95.3525750  84.4918830  47.1444660  95.8249560
  85.2336970  46.1104220  95.0049900  71.8388940  48.4144700  95.0242880
  72.5751420  47.8660160  95.2951450  72.2229860  49.2800710  94.8848870
  70.8447220  47.5990770 104.2128460  71.6459950  47.9202820 104.6263860
  70.3299040  47.2386350 104.9348370  81.1112220  47.4350930 102.7713280
  82.0633970  47.3508950 102.7213520  80.9640440  48.0992640 103.4447070
  84.0021420  46.8145140  88.2705190  83.7162930  46.4010280  87.4559370
  83.8040970  47.7432850  88.1505710  68.5645030  40.0864230 103.1564510
  69.0684050  39.5071510 103.7280740  67.8252450  40.3704460 103.6940880
  75.4668650  42.8078420  86.7110800  75.3619290  42.1930770  87.4372180
  75.2992870  42.2844310  85.9273810  78.7071380  41.8698450  87.3152790
  78.1581480  42.3167750  87.9595530  79.3290640  41.3647700  87.8390460
  74.3746500  40.8289370  89.2118090  74.7962920  40.6629240  90.0549480
  74.4997340  40.0189600  88.7173230  73.0246220  33.7748290 102.0986360
  72.9303090  33.1569040 101.3737230  72.4443610  34.5014580 101.8716270
  75.7907660  32.3321530  99.1313750  75.3424960  32.3545790  98.2859300
  75.1572860  31.9340550  99.7284050  73.2705400  36.9022600  86.1576250
  73.0694460  36.0389960  86.5189590  73.0997450  36.8155960  85.2197850
  74.0474630  47.5328870 100.8683920  73.5095720  48.2574930 100.5492620
  74.3008590  47.0559210 100.0781260  72.0688200  34.0023220  86.1454130
  72.3714100  34.0090650  85.2373280  72.8082790  33.6521080  86.6421790
  76.9036840  48.7680080 101.1270570  76.8295540  49.6715220 101.4342940
  76.0015680  48.4491980 101.0992640  75.2873130  32.9457840  87.1310330
  74.9395130  32.2681830  86.5512780  75.4885900  32.4847350  87.9453720
  77.4522170  47.9338590  88.7496930  78.3472960  48.2723560  88.7715690
  77.4839800  47.2118000  88.1221210  71.0918330  43.3065640  86.9783930
  71.5293200  43.8495310  87.6341510  71.5766060  42.4812590  86.9880270
  68.3064130  46.0954670  94.4304190  68.6367140  45.2275730  94.1982830
  68.7355130  46.3013190  95.2609150  72.9026050  44.4263680  92.0906160
  72.6021590  44.3028650  92.9910070  72.7963540  43.5672270  91.6821890
  68.7954340  46.9625260  97.1685820  68.3585330  47.1426060  98.0009970
  69.3632020  47.7199880  97.0267540  84.4316520  46.4642260 101.4563130
  83.8318510  46.5234820 100.7127050  84.5610420  45.5247240 101.5859980
  85.1274430  40.9507560  89.2967040  85.8893340  41.5204210  89.4026730
  85.1428800  40.3834760  90.0675350  86.1334400  41.8057660  94.1408970
  86.5043230  41.0224980  93.7344940  86.7736330  42.4946760  93.9626270
  85.0758940  39.1810920  91.4468990  84.7002540  38.4138850  91.0150280
  84.3462060  39.5633620  91.9343920  69.2170700  36.7707150 101.9736460
  68.3226750  36.7373910 102.3130170  69.7568250  36.9693940 102.7387710
  84.3509900  37.4068410  94.7476230  84.8747380  36.9131060  94.1166400
  84.9369320  37.5418770  95.4923800  70.3844060  35.7409960  87.3794410
  71.0935760  35.3193180  86.8941690  69.6684000  35.8085190  86.7477760
  70.0318220  31.7949290  86.4197060  70.7546350  32.3358230  86.7378280
  70.3042740  31.5212710  85.5438600  83.8409870  36.6641760  90.6868640
  84.3368990  36.4312630  91.4717520  83.6425940  35.8253600  90.2706280
  69.7210410  31.0455480  96.3219680  70.3686600  30.4952860  95.8814840
  70.1412250  31.2998630  97.1435490  85.2697030  35.3002710  93.2206320
  85.1596310  35.1458750  94.1588590  86.0304620  34.7723650  92.9781730
  83.6162750  31.2396840  99.6789320  84.2534970  31.8530980 100.0448510
  83.7637640  31.2757500  98.7338550  86.1587300  33.1310630  86.4612460
  87.0836610  32.9991810  86.2530750  86.1363090  33.2103450  87.4148910
  86.2325790  33.9021290  89.0869170  85.4377290  33.8366410  89.6162080
  86.4369070  34.8371930  89.0754520  83.1744210  47.9412840  93.0807560
  83.7703280  47.6197410  92.4041980  83.4322360  47.4684660  93.8720830
  69.4742410  31.2011150  99.0645000  69.1257230  31.6574970  99.8303180
  69.1430110  30.3068280  99.1467430  71.0806780  44.3730750 103.2298190
  71.0376410  44.0023660 104.1112650  71.2117790  45.3108320 103.3700010
  74.7812810  45.9290340  98.8307910  74.5404170  46.1964900  97.9438430
  75.7215450  46.0996070  98.8858770  76.9867230  32.3923030 102.5864420
  76.9256120  32.9844860 103.3359830  77.9267610  32.2848990 102.4414680
  79.6241790  32.0493090 102.2256710  80.2382200  32.3672380 101.5637790
  80.1691350  31.5641680 102.8452570  86.0416970  47.9484720  99.6318550
  85.5475250  48.3453590  98.9145680  85.4330260  47.3233930 100.0255830
  70.1463050  30.7287350 102.3395770  70.6946040  30.5475400 101.5761880
  70.2118360  29.9381460 102.8752080  70.9194810  47.3193000 100.3495970
  70.3255130  47.1877700 101.0886010  70.9118650  46.4831140  99.8838070
  80.3649830  30.6125230  98.5526000  79.4909670  30.9460340  98.3498930
  80.2560580  30.1398410  99.3777870  83.7256420  48.5908140  96.9105290
  83.2659390  49.3423950  96.5363310  83.0968880  47.8714610  96.8520090
  70.5507040  44.6851380  99.3004010  69.8241100  44.0656670  99.2329960
  70.6116190  45.0791990  98.4302090  74.1552140  46.8996380  96.0853420
  74.6717160  46.2883740  95.5601680  74.8049520  47.4025160  96.5764430
  76.8947640  47.7904870  96.9122400  77.1825450  47.5359170  96.0355410
  77.4070860  47.2382230  97.5027970  78.1124650  31.5295070  97.4918910
  77.3296440  32.0040570  97.7715670  77.8187580  30.6249900  97.3832090
  82.6645720  32.2318170  95.5368000  83.1053810  32.1763270  94.6889600
  82.3953310  33.1476180  95.6078180  84.5284290  31.8633410  93.5476820
  84.4672690  30.9194630  93.4007840  85.3076320  31.9713500  94.0930280
  68.8337040  48.0025770  92.5100770  68.6659080  47.3696450  93.2082660
  67.9671550  48.2085170  92.1594960  69.4565060  31.8342550  90.0132630
  70.2144420  31.9471430  89.4396660  68.9942230  32.6711750  89.9676060
  75.9978870  33.9481820  93.0034940  75.1853380  33.5738710  92.6630820
  76.5020510  33.1926900  93.3056130  80.5003850  30.6124270  94.2418010
  81.1033220  31.1844480  94.7166530  79.7596840  31.1763710  94.0191910
  83.6438450  31.0145830  89.5158290  83.8389080  31.9129280  89.7825720
  82.8568320  30.7832910  90.0091240  70.4399740  46.6959000  89.9550910
  69.9147360  47.0767030  89.2512870  70.3644320  47.3209770  90.6760620
  71.8290210  32.3606600  88.5534600  72.3582970  31.5736400  88.4242550
  72.4618530  33.0397790  88.7870130  74.0228050  32.0981740  91.6079990
  73.3930790  31.3969050  91.7750120  73.4833190  32.8585870  91.3913150
  76.9620000  48.7120970 104.2790600  77.8887310  48.4765240 104.3226560
  76.9470430  49.5392970 103.7976630  85.1965060  48.2546540  91.2764850
  85.3717250  47.5684280  90.6325770  84.4986630  48.7793590  90.8841520
  74.1483610  31.3765720 104.0432480  73.8667880  31.8799320 103.2793300
  74.5303310  30.5787470 103.6774610  72.2007500  44.7606110  88.8346490
  71.5716380  45.2291210  89.3832320  72.3155330  43.9155330  89.2692680
  80.7499070  30.7919300 104.6212950  80.6364520  31.1113910 105.5164470
  81.5668810  31.1931810 104.3250230  83.5297560  47.9390830 104.1031640
  84.3222880  47.4440060 103.8957600  83.8230710  48.6180970 104.7107250
  71.8041090  40.9010600  77.7432720  70.9725970  40.6459310  78.1429230
  72.4122070  40.9721370  78.4790640  70.2133040  35.8612490  71.5275110
  69.3249740  36.2028460  71.4254990  70.4974230  35.6612810  70.6355940
  68.1766050  38.4618140  77.4114810  68.7482160  37.6940340  77.4118450
  68.1767590  38.7606900  76.5021420  69.4190920  33.8702500  79.1983740
  69.2393760  32.9728250  79.4786500  69.0171000  34.4174370  79.8730690
  78.2589420  36.0718360  77.0996050  78.6354240  35.1990240  76.9869720
  78.1608930  36.4077060  76.2086490  82.0413540  33.5668800  74.0324390
  82.8623160  33.0765370  74.0749870  82.0747620  34.1566460  74.7856230
  70.0377590  36.3663000  77.8066080  70.7187700  36.6301370  78.4253480
  69.7225640  35.5263870  78.1404090  74.2302160  37.4130360  76.8938670
  74.7380380  37.9111330  77.5343690  74.7615400  36.6365560  76.7178030
  86.3313090  35.5835550  80.5968020  85.6265260  35.9717260  80.0783130
  86.5971010  36.2785840  81.1988950  73.7641110  41.6924100  79.3375590
  73.4310490  42.3193020  79.9796660  73.9407790  42.2185980  78.5577260
  82.2775020  35.5069180  76.8051930  81.5730590  35.7954070  77.3855040
  82.6387180  36.3169290  76.4451490  72.1953590  33.7638880  79.1672540
  72.5370400  34.6080930  78.8726410  71.2569400  33.9122620  79.2837880
  72.9760210  43.6604900  81.1524770  73.5934210  44.3355980  80.8709220
  72.1153330  44.0692880  81.0612270  85.3461940  34.9523970  77.1961140
  84.3986850  34.9862950  77.3276570  85.6711930  35.7662920  77.5810500
  78.2531320  35.5886980  69.2244410  77.3134990  35.7500940  69.3096870
  78.5714580  36.3072660  68.6780400  81.7386090  37.0574820  80.1478310
  81.3257270  37.8828530  80.4018300  81.0062040  36.4719860  79.9554670
  72.5847500  36.6177930  78.7896020  73.1362090  36.7273270  78.0149270
  73.0991010  36.9915530  79.5051250  73.4319010  43.2683970  83.8243990
  72.5347540  43.4923940  84.0717390  73.4571880  43.3918910  82.8755390
  72.2590230  40.1397290  82.4001360  72.1198000  41.0120090  82.7688760
  71.3771590  39.7970100  82.2549300  84.0541370  31.3719900  68.0526290
  83.7414030  31.4646730  68.9525360  84.8153840  31.9500930  68.0023720
  70.5723510  38.7379700  72.5103630  70.4521110  39.4641790  71.8984900
  70.2624400  37.9682610  72.0331540  68.2108880  41.9094840  78.3172270
  68.2889300  42.0443610  77.3727990  68.8250560  41.2010730  78.5100390
  85.2642660  36.1091400  84.0300430  84.6486930  36.6171070  83.5015890
  84.9439080  35.2089730  83.9726370  68.2668400  42.9509010  80.8566730
  68.4299440  42.4814370  80.0386100  68.7320850  42.4432570  81.5215570
  73.0387170  32.0814770  75.8927300  72.5955320  32.8624310  75.5611820
  73.5972160  32.4044660  76.5998240  77.3256980  34.9483290  81.4962620
  76.8636350  35.1566310  82.3082560  76.9235090  34.1342640  81.1933290
  82.3261490  36.1692240  82.6259280  81.4755080  35.8697990  82.9468350
  82.1663280  36.4134250  81.7143100  72.8301390  37.2048340  73.6208550
  72.6042310  36.9885510  74.5255170  72.0493920  37.6376800  73.2754520
  70.4011140  34.5147590  82.4402600  70.0074530  35.3622800  82.6475380
  69.7129540  33.8773960  82.6311240  67.7028190  32.4376050  76.4732680
  67.4141240  33.0078910  77.1857660  68.4473950  31.9580500  76.8363910
  67.8898420  36.3796170  67.6835400  67.8073090  37.3226930  67.8250390
  67.5381480  36.2371080  66.8047750  75.6896550  35.1135200  76.7505750
  75.6932610  34.6725150  75.9010290  76.5847670  35.4352530  76.8577570
  71.5398930  34.9961690  75.7099960  71.1998980  35.4736920  76.4667010
  70.7776250  34.5426810  75.3501060  75.7516700  36.1147280  69.7412510
  75.8729520  36.0733760  70.6898330  75.3665210  36.9771430  69.5859240
  79.7145070  33.8914680  77.7576200  79.7317810  34.3423330  78.6018050
  79.4660650  32.9920320  77.9709640  74.7638200  38.4248420  69.1395810
  74.1955100  37.9766670  68.5131720  75.4727200  38.7841200  68.6060960
  83.1415820  31.3046860  83.5962580  83.4661590  30.5736520  84.1220560
  83.1772330  30.9860500  82.6943570  69.8407380  42.3260440  83.0162540
  69.4562170  41.6854110  83.6145500  70.1519570  43.0296560  83.5857270
  68.8545010  33.9180670  74.6264630  68.5691930  33.5536340  75.4643250
  68.7923870  33.1861130  74.0127770  73.7803890  38.2145620  80.8155370
  73.4760960  39.0937600  81.0405730  74.7350350  38.2745410  80.8512810
  69.8367620  39.0548360  81.9626730  69.4782560  39.7202210  82.5500070
  69.5422180  38.2231910  82.3339350  73.0380740  39.5132600  84.8466280
  72.7380880  39.6589780  83.9494100  73.8091980  38.9537890  84.7539670
  68.3475670  39.0539620  68.5861330  69.2170520  39.3364420  68.8697250
  67.8565990  39.8675490  68.4710140  68.4116190  32.5441600  82.6398830
  67.6974710  32.7438520  83.2451440  68.8311230  31.7681170  83.0113630
  68.6988780  46.5321860  83.6265360  68.8079900  45.5916600  83.4860750
  68.0469340  46.7976610  82.9779090  70.3322180  40.8713090  70.7143390
  69.7250130  41.6111990  70.7238690  70.8071530  40.9612450  69.8881590
  79.9054970  35.0363910  80.3900280  80.2735790  34.2159120  80.7179850
  79.0453170  35.0965800  80.8055930  83.2717000  33.9920850  71.1987840
  82.6430160  34.0966520  70.4846070  82.7768920  34.2117630  71.9881720
  84.0723820  33.9071460  81.4566640  83.5697420  34.6476860  81.7960450
  84.8880480  34.2955460  81.1403430  71.0374230  38.2649310  69.1464850
  71.1177820  37.3176820  69.2582250  71.9293980  38.5956190  69.2525510
  68.5645030  40.0864230  84.3821020  69.0684050  39.5071510  84.9537250
  67.8252450  40.3704460  84.9197390  70.5968110  38.2293820  85.2771090
  70.6373450  37.9307690  86.1856320  71.4513610  38.6301430  85.1178610
  72.5373920  36.8085920  83.2445580  72.0070380  36.3176870  82.6168920
  73.2061990  37.2370120  82.7103510  81.9074150  38.6151540  85.0125920
  82.4894920  37.8603860  84.9246400  82.0835920  39.1458980  84.2357400
  73.0246220  33.7748290  83.3242870  72.9303090  33.1569040  82.5993740
  72.4443610  34.5014580  83.0972780  75.7907660  32.3321530  80.3570260
  75.3424960  32.3545790  79.5115810  75.1572860  31.9340550  80.9540560
  73.2705400  36.9022600  67.3832760  73.0694460  36.0389960  67.7446100
  73.0997450  36.8155960  66.4454360  75.2999880  35.5013390  83.6196360
  75.8899570  35.1929240  84.3074180  74.4820120  35.0293140  83.7756260
  80.1193310  35.1179200  83.8529380  79.4308830  34.4560740  83.7879370
  80.8399330  34.6717470  84.2977840  80.7493710  31.7130830  69.9119640
  81.0296000  30.8698730  70.2679060  79.9759440  31.9453940  70.4258390
  72.0688200  34.0023220  67.3710640  72.3714100  34.0090650  66.4629790
  72.8082790  33.6521080  67.8678300  68.6278770  39.4745490  74.7531210
  67.9727610  39.2057130  74.1090910  69.4656720  39.3649970  74.3033190
  81.5769210  34.2686780  68.9749700  81.9954090  34.0817760  68.1346360
  81.2705270  33.4165830  69.2852630  69.6654700  39.8598060  79.2934550
  70.0327740  39.7725460  80.1730570  69.0965520  39.0964610  79.1941410
  84.4658560  38.3282440  82.3065020  84.2344650  38.0995190  81.4062970
  84.7263110  39.2481990  82.2609910  69.2170700  36.7707150  83.1992970
  68.3226750  36.7373910  83.5386680  69.7568250  36.9693940  83.9644220
  82.9046630  33.5538870  85.0844720  83.7816810  33.5622270  85.4678720
  82.9167470  32.8169710  84.4737070  67.8416850  36.6844420  70.6956540
  66.9380930  36.9474620  70.5208200  68.3257470  36.9555590  69.9156500
  84.5299620  37.4908280  79.4952290  83.5802330  37.4571820  79.6097280
  84.7112630  38.4008390  79.2602060  70.3844060  35.7409960  68.6050920
  71.0935760  35.3193180  68.1198200  69.6684000  35.8085190  67.9734270
  70.0318220  31.7949290  67.6453570  70.7546350  32.3358230  67.9634790
  70.3042740  31.5212710  66.7695110  69.7210410  31.0455480  77.5476190
  70.3686600  30.4952860  77.1071350  70.1412250  31.2998630  78.3692000
  83.6162750  31.2396840  80.9045830  84.2534970  31.8530980  81.2705020
  83.7637640  31.2757500  79.9595060  86.1587300  33.1310630  67.6868970
  87.0836610  32.9991810  67.4787260  86.1363090  33.2103450  68.6405420
  86.2325790  33.9021290  70.3125680  85.4377290  33.8366410  70.8418590
  86.4369070  34.8371930  70.3011030  69.4742410  31.2011150  80.2901510
  69.1257230  31.6574970  81.0559690  69.1430110  30.3068280  80.3723940
  71.0806780  44.3730750  84.4554700  71.0376410  44.0023660  85.3369160
  71.2117790  45.3108320  84.5956520  76.9867230  32.3923030  83.8120930
  76.9256120  32.9844860  84.5616340  77.9267610  32.2848990  83.6671190
  79.6241790  32.0493090  83.4513220  80.2382200  32.3672380  82.7894300
  80.1691350  31.5641680  84.0709080  70.1463050  30.7287350  83.5652280
  70.6946040  30.5475400  82.8018390  70.2118360  29.9381460  84.1008590
  80.3649830  30.6125230  79.7782510  79.4909670  30.9460340  79.5755440
  80.2560580  30.1398410  80.6034380  81.2721810  32.8196100  81.1624230
  80.9435170  32.0047860  80.7825960  82.2204110  32.7765910  81.0389920
  78.1124650  31.5295070  78.7175420  77.3296440  32.0040570  78.9972180
  77.8187580  30.6249900  78.6088600  82.6645720  32.2318170  76.7624510
  83.1053810  32.1763270  75.9146110  82.3953310  33.1476180  76.8334690
  84.5284290  31.8633410  74.7733330  84.4672690  30.9194630  74.6264350
  85.3076320  31.9713500  75.3186790  69.4565060  31.8342550  71.2389140
  70.2144420  31.9471430  70.6653170  68.9942230  32.6711750  71.1932570
  80.5003850  30.6124270  75.4674520  81.1033220  31.1844480  75.9423040
  79.7596840  31.1763710  75.2448420  83.6438450  31.0145830  70.7414800
  83.8389080  31.9129280  71.0082230  82.8568320  30.7832910  71.2347750
  74.1483610  31.3765720  85.2688990  73.8667880  31.8799320  84.5049810
  74.5303310  30.5787470  84.9031120  70.2133040  35.8612490  52.7531620
  69.3249740  36.2028460  52.6511500  70.4974230  35.6612810  51.8612450
  68.1766050  38.4618140  58.6371320  68.7482160  37.6940340  58.6374960
  68.1767590  38.7606900  57.7277930  69.4190920  33.8702500  60.4240250
  69.2393760  32.9728250  60.7043010  69.0171000  34.4174370  61.0987200
  72.3894430  34.4443990  53.7870000  72.4961180  35.3447720  54.0938760
  71.4786790  34.3961960  53.4964650  82.0413540  33.5668800  55.2580900
  82.8623160  33.0765370  55.3006380  82.0747620  34.1566460  56.0112740
  70.0377590  36.3663000  59.0322590  70.7187700  36.6301370  59.6509990
  69.7225640  35.5263870  59.3660600  85.3461940  34.9523970  58.4217650
  84.3986850  34.9862950  58.5533080  85.6711930  35.7662920  58.8067010
  75.8781480  31.2521150  56.7173640  76.1856460  30.6968040  56.0009140
  74.9482180  31.3865610  56.5346630  78.2662240  39.3169980  53.4533760
  77.3391520  39.2507360  53.6822230  78.4187060  40.2550110  53.3389000
  78.2531320  35.5886980  50.4500920  77.3134990  35.7500940  50.5353380
  78.5714580  36.3072660  49.9036910  80.4724230  40.1177090  50.9641760
  80.9117510  39.2799520  50.8179580  81.1852650  40.7506490  51.0505900
  73.0387170  32.0814770  57.1183810  72.5955320  32.8624310  56.7868330
  73.5972160  32.4044660  57.8254750  76.1545990  31.7025470  51.9989640
  75.5300170  31.6985340  52.7242950  76.0676110  30.8356430  51.6025610
  80.0599150  37.2111710  53.4455710  79.4608040  37.9347510  53.2619330
  80.6078760  37.1488490  52.6632160  78.6664020  35.8475250  55.4758990
  79.0593590  36.1647450  54.6627680  79.0280870  34.9687130  55.5903510
  70.4011140  34.5147590  63.6659110  70.0074530  35.3622800  63.8731890
  69.7129540  33.8773960  63.8567750  76.9756190  34.5982560  66.7355850
  76.2854510  34.4054760  67.3701940  77.7188490  34.8817200  67.2680150
  67.7028190  32.4376050  57.6989190  67.4141240  33.0078910  58.4114170
  68.4473950  31.9580500  58.0620420  67.8898420  36.3796170  48.9091910
  67.8073090  37.3226930  49.0506900  67.5381480  36.2371080  48.0304260
  71.5398930  34.9961690  56.9356470  71.1998980  35.4736920  57.6923520
  70.7776250  34.5426810  56.5757570  75.7516700  36.1147280  50.9669020
  75.8729520  36.0733760  51.9154840  75.3665210  36.9771430  50.8115750
  74.7638200  38.4248420  50.3652320  74.1955100  37.9766670  49.7388230
  75.4727200  38.7841200  49.8317470  83.1415820  31.3046860  64.8219090
  83.4661590  30.5736520  65.3477070  83.1772330  30.9860500  63.9200080
  68.8545010  33.9180670  55.8521140  68.5691930  33.5536340  56.6899760
  68.7923870  33.1861130  55.2384280  78.5283600  32.8109930  52.5734510
  77.7148210  32.3123100  52.4979820  78.3345550  33.6508180  52.1570860
  81.2431990  37.1829580  50.8696670  82.1311610  37.4946810  50.6948010
  81.2137080  36.3101830  50.4777250  77.2392580  43.3553270  51.5484840
  77.5808280  44.0995500  51.0528160  76.4105290  43.6684390  51.9109670
  83.5146260  38.4941420  50.3376530  83.4309980  38.9255640  49.4872970
  84.2340450  38.9539770  50.7703350  68.3475670  39.0539620  49.8117840
  69.2170520  39.3364420  50.0953760  67.8565990  39.8675490  49.6966650
  71.4122260  30.7850480  54.4048640  71.2836890  30.7768380  55.3533560
  70.5884280  31.1233570  54.0539650  68.4116190  32.5441600  63.8655340
  67.6974710  32.7438520  64.4707950  68.8311230  31.7681170  64.2370140
  82.5147140  42.1572080  51.2649170  82.2268840  42.6184770  52.0527050
  83.3099310  41.6969850  51.5333390  75.2401030  36.2706800  53.8402230
  74.5317180  36.7393140  54.2815840  75.5245510  35.6128810  54.4747420
  79.2716460  32.9957460  55.2798020  79.1484240  33.0143590  54.3307530
  80.2201020  33.0436400  55.3996420  73.4436050  34.5791880  51.2152940
  74.2926580  35.0162030  51.1493130  73.0767320  34.8912140  52.0425000
  72.3427470  40.8324240  49.6888470  73.1090740  40.7205600  50.2513900
  72.4202160  40.1362210  49.0365240  71.0374230  38.2649310  50.3721360
  71.1177820  37.3176820  50.4838760  71.9293980  38.5956190  50.4782020
  75.4668650  42.8078420  49.1623820  75.3619290  42.1930770  49.8885200
  75.2992870  42.2844310  48.3786830  78.7071380  41.8698450  49.7665810
  78.1581480  42.3167750  50.4108550  79.3290640  41.3647700  50.2903480
  76.8874140  39.8526980  48.9108210  77.4079800  39.1376000  48.5449360
  77.5342540  40.4912850  49.2108720  73.2705400  36.9022600  48.6089270
  73.0694460  36.0389960  48.9702610  73.0997450  36.8155960  47.6710870
  72.0688200  34.0023220  48.5967150  72.3714100  34.0090650  47.6886300
  72.8082790  33.6521080  49.0934810  75.2873130  32.9457840  49.5823350
  74.9395130  32.2681830  49.0025800  75.4885900  32.4847350  50.3966740
  71.0918330  43.3065640  49.4296950  71.5293200  43.8495310  50.0854530
  71.5766060  42.4812590  49.4393290  85.1274430  40.9507560  51.7480060
  85.8893340  41.5204210  51.8539750  85.1428800  40.3834760  52.5188370
  85.1793600  41.2441930  48.9052580  85.4542440  42.1520810  48.7771800
  84.9904340  41.1804460  49.8414570  85.0758940  39.1810920  53.8982010
  84.7002540  38.4138850  53.4663300  84.3462060  39.5633620  54.3856940
  69.2170700  36.7707150  64.4249480  68.3226750  36.7373910  64.7643190
  69.7568250  36.9693940  65.1900730  82.9046630  33.5538870  66.3101230
  83.7816810  33.5622270  66.6935230  82.9167470  32.8169710  65.6993580
  67.8416850  36.6844420  51.9213050  66.9380930  36.9474620  51.7464710
  68.3257470  36.9555590  51.1413010  84.3509900  37.4068410  57.1989250
  84.8747380  36.9131060  56.5679420  84.9369320  37.5418770  57.9436820
  70.3844060  35.7409960  49.8307430  71.0935760  35.3193180  49.3454710
  69.6684000  35.8085190  49.1990780  70.0318220  31.7949290  48.8710080
  70.7546350  32.3358230  49.1891300  70.3042740  31.5212710  47.9951620
  83.8409870  36.6641760  53.1381660  84.3368990  36.4312630  53.9230540
  83.6425940  35.8253600  52.7219300  69.7210410  31.0455480  58.7732700
  70.3686600  30.4952860  58.3327860  70.1412250  31.2998630  59.5948510
  85.2697030  35.3002710  55.6719340  85.1596310  35.1458750  56.6101610
  86.0304620  34.7723650  55.4294750  79.6241790  32.0493090  64.6769730
  80.2382200  32.3672380  64.0150810  80.1691350  31.5641680  65.2965590
  69.4565060  31.8342550  52.4645650  70.2144420  31.9471430  51.8909680
  68.9942230  32.6711750  52.4189080  75.9978870  33.9481820  55.4547960
  75.1853380  33.5738710  55.1143840  76.5020510  33.1926900  55.7569150
  71.8290210  32.3606600  51.0047620  72.3582970  31.5736400  50.8755570
  72.4618530  33.0397790  51.2383150  74.0228050  32.0981740  54.0593010
  73.3930790  31.3969050  54.2263140  73.4833190  32.8585870  53.8426170
  80.7499070  30.7919300  67.0725970  80.6364520  31.1113910  67.9677490
  81.5668810  31.1931810  66.7763250  71.8041090  40.9010600  40.1945740
  70.9725970  40.6459310  40.5942250  72.4122070  40.9721370  40.9303660
  71.7842350  44.9350690  40.3903760  72.0870390  44.0448430  40.2113980
  72.5285940  45.4920910  40.1626010  82.0413540  33.5668800  36.4837410
  82.8623160  33.0765370  36.5262890  82.0747620  34.1566460  37.2369250
  74.2302160  37.4130360  39.3451690  74.7380380  37.9111330  39.9856710
  74.7615400  36.6365560  39.1691050  73.7641110  41.6924100  41.7888610
  73.4310490  42.3193020  42.4309680  73.9407790  42.2185980  41.0090280
  72.9760210  43.6604900  43.6037790  73.5934210  44.3355980  43.3222240
  72.1153330  44.0692880  43.5125290  78.2531320  35.5886980  31.6757430
  77.3134990  35.7500940  31.7609890  78.5714580  36.3072660  31.1293420
  73.8718880  39.8434720  37.4610000  73.4675880  39.1311970  36.9655900
  73.9582000  39.4987960  38.3498040  73.4319010  43.2683970  46.2757010
  72.5347540  43.4923940  46.5230410  73.4571880  43.3918910  45.3268410
  72.2590230  40.1397290  44.8514380  72.1198000  41.0120090  45.2201780
  71.3771590  39.7970100  44.7062320  74.0570580  46.0818990  47.0599530
  74.0286010  46.4861940  46.1927960  73.8935550  45.1529350  46.8971130
  84.0541370  31.3719900  30.5039310  83.7414030  31.4646730  31.4038380
  84.8153840  31.9500930  30.4536740  70.5723510  38.7379700  34.9616650
  70.4521110  39.4641790  34.3497920  70.2624400  37.9682610  34.4844560
  79.2735390  47.7586940  44.0858520  79.7880060  47.6694950  44.8880950
  78.4304470  48.1046640  44.3786430  81.2489790  48.0442280  33.5142520
  81.0890930  47.7545220  34.4124350  81.0836500  47.2682410  32.9787750
  73.7278170  47.8240810  35.2914140  73.5520650  46.9076350  35.0781940
  72.8733910  48.1828100  35.5311940  80.9515920  45.5529840  32.0740520
  80.2581080  45.5507130  31.4142800  81.6938780  45.1289160  31.6434690
  80.5165850  47.1792550  36.1489010  80.9722800  46.3981930  36.4627630
  80.8558370  47.8899370  36.6930190  85.2642660  36.1091400  46.4813450
  84.6486930  36.6171070  45.9528910  84.9439080  35.2089730  46.4239390
  79.4211200  37.6693990  47.1771090  79.7464610  36.8357740  46.8373320
  80.2091530  38.1922510  47.3249420  76.1545990  31.7025470  33.2246150
  75.5300170  31.6985340  33.9499460  76.0676110  30.8356430  32.8282120
  72.8301390  37.2048340  36.0721570  72.6042310  36.9885510  36.9768190
  72.0493920  37.6376800  35.7267540  75.2700600  38.1033920  46.7381840
  75.1744200  37.1628650  46.5882240  76.1132580  38.3248990  46.3429910
  76.9756190  34.5982560  47.9612360  76.2854510  34.4054760  48.5958450
  77.7188490  34.8817200  48.4936660  67.8898420  36.3796170  30.1348420
  67.8073090  37.3226930  30.2763410  67.5381480  36.2371080  29.2560770
  75.7516700  36.1147280  32.1925530  75.8729520  36.0733760  33.1411350
  75.3665210  36.9771430  32.0372260  73.7803890  38.2145620  43.2668390
  73.4760960  39.0937600  43.4918750  74.7350350  38.2745410  43.3025830
  72.3085680  42.4206610  33.8635240  71.5347940  41.8804230  33.7033960
  73.0380310  41.9013220  33.5253000  78.5283600  32.8109930  33.7991020
  77.7148210  32.3123100  33.7236330  78.3345550  33.6508180  33.3827370
  78.4492460  41.4881030  45.5430630  78.3829770  40.5676700  45.2888220
  77.8197600  41.5856470  46.2575270  81.2431990  37.1829580  32.0953180
  82.1311610  37.4946810  31.9204520  81.2137080  36.3101830  31.7033760
  72.3523080  42.0886990  37.5014050  72.8701750  41.2855250  37.4470940
  71.9007100  42.0266130  38.3430880  73.0380740  39.5132600  47.2979300
  72.7380880  39.6589780  46.4007120  73.8091980  38.9537890  47.2052690
  78.3809190  44.3101600  45.2934430  78.3953730  43.3782560  45.0753340
  77.6734290  44.3961360  45.9324200  83.5146260  38.4941420  31.5633040
  83.4309980  38.9255640  30.7129480  84.2340450  38.9539770  31.9959860
  84.5920400  40.9508940  44.6403010  83.8668590  41.5437720  44.4432400
  85.1195860  40.9432480  43.8416380  68.3475670  39.0539620  31.0374350
  69.2170520  39.3364420  31.3210270  67.8565990  39.8675490  30.9223160
  80.8612790  44.7546420  44.3088440  81.1969030  45.3413110  44.9866360
  79.9413130  44.6239130  44.5386230  68.7146920  48.2667000  31.6035980
  69.0744560  48.8656340  30.9493250  68.5739260  48.8126890  32.3771010
  68.4116190  32.5441600  45.0911850  67.6974710  32.7438520  45.6964460
  68.8311230  31.7681170  45.4626650  82.5147140  42.1572080  32.4905680
  82.2268840  42.6184770  33.2783560  83.3099310  41.6969850  32.7589900
  76.6901370  44.8037750  47.4776500  76.3698240  44.0846990  48.0222190
  76.0159730  45.4792820  47.5512560  74.7315540  45.6498200  32.4209650
  74.7225640  46.3827890  31.8054160  73.8113900  45.4029780  32.5136610
  70.3322180  40.8713090  33.1656410  69.7250130  41.6111990  33.1751710
  70.8071530  40.9612450  32.3394610  83.2717000  33.9920850  33.6500860
  82.6430160  34.0966520  32.9359090  82.7768920  34.2117630  34.4394740
  75.2401030  36.2706800  35.0658740  74.5317180  36.7393140  35.5072350
  75.5245510  35.6128810  35.7003930  76.3593250  48.2312760  35.7782510
  76.6134750  48.1934150  34.8561880  75.4105730  48.1046090  35.7710760
  84.0723820  33.9071460  43.9079660  83.5697420  34.6476860  44.2473470
  84.8880480  34.2955460  43.5916450  72.3427470  40.8324240  30.9144980
  73.1090740  40.7205600  31.4770410  72.4202160  40.1362210  30.2621750
  71.0374230  38.2649310  31.5977870  71.1177820  37.3176820  31.7095270
  71.9293980  38.5956190  31.7038530  84.3671410  46.3213490  39.0295280
  84.4918830  47.1444660  39.5019090  85.2336970  46.1104220  38.6819430
  70.8447220  47.5990770  47.8897990  71.6459950  47.9202820  48.3033390
  70.3299040  47.2386350  48.6117900  79.6811850  43.7070640  47.8373400
  79.0750010  43.7302240  47.0969150  79.3765960  42.9753680  48.3740650
  68.5645030  40.0864230  46.8334040  69.0684050  39.5071510  47.4050270
  67.8252450  40.3704460  47.3710410  75.6182970  41.4935220  46.3669560
  74.8528640  42.0620220  46.2824230  75.7998930  41.2011430  45.4737790
  70.5968110  38.2293820  47.7284110  70.6373450  37.9307690  48.6369340
  71.4513610  38.6301430  47.5691630  72.5373920  36.8085920  45.6958600
  72.0070380  36.3176870  45.0681940  73.2061990  37.2370120  45.1616530
  81.4351980  41.2755380  45.4599790  81.8493000  41.4300460  46.3090210
  80.5002980  41.4010600  45.6225570  81.9074150  38.6151540  47.4638940
  82.4894920  37.8603860  47.3759420  82.0835920  39.1458980  46.6870420
  76.1967210  41.2275860  43.4295720  76.6155320  42.0708590  43.2571960
  75.2775840  41.3647900  43.2002500  78.5331110  38.9592040  44.8133560
  78.6527320  38.3633180  45.5528400  79.3925110  38.9961730  44.3934860
  73.2705400  36.9022600  29.8345780  73.0694460  36.0389960  30.1959120
  73.0997450  36.8155960  28.8967380  74.0474630  47.5328870  44.5453450
  73.5095720  48.2574930  44.2262150  74.3008590  47.0559210  43.7550790
  75.2999880  35.5013390  46.0709380  75.8899570  35.1929240  46.7587200
  74.4820120  35.0293140  46.2269280  80.1193310  35.1179200  46.3042400
  79.4308830  34.4560740  46.2392390  80.8399330  34.6717470  46.7490860
  80.7493710  31.7130830  32.3632660  81.0296000  30.8698730  32.7192080
  79.9759440  31.9453940  32.8771410  76.9036840  48.7680080  44.8040100
  76.8295540  49.6715220  45.1112470  76.0015680  48.4491980  44.7762170
  75.2873130  32.9457840  30.8079860  74.9395130  32.2681830  30.2282310
  75.4885900  32.4847350  31.6223250  77.4522170  47.9338590  32.4266460
  78.3472960  48.2723560  32.4485220  77.4839800  47.2118000  31.7990740
  71.0918330  43.3065640  30.6553460  71.5293200  43.8495310  31.3111040
  71.5766060  42.4812590  30.6649800  72.9026050  44.4263680  35.7675690
  72.6021590  44.3028650  36.6679600  72.7963540  43.5672270  35.3591420
  85.1274430  40.9507560  32.9736570  85.8893340  41.5204210  33.0796260
  85.1428800  40.3834760  33.7444880  85.1793600  41.2441930  30.1309090
  85.4542440  42.1520810  30.0028310  84.9904340  41.1804460  31.0671080
  81.5769210  34.2686780  31.4262720  81.9954090  34.0817760  30.5859380
  81.2705270  33.4165830  31.7365650  85.0758940  39.1810920  35.1238520
  84.7002540  38.4138850  34.6919810  84.3462060  39.5633620  35.6113450
  69.2170700  36.7707150  45.6505990  68.3226750  36.7373910  45.9899700
  69.7568250  36.9693940  46.4157240  83.8409870  36.6641760  34.3638170
  84.3368990  36.4312630  35.1487050  83.6425940  35.8253600  33.9475810
  83.6162750  31.2396840  43.3558850  84.2534970  31.8530980  43.7218040
  83.7637640  31.2757500  42.4108080  86.1587300  33.1310630  30.1381990
  87.0836610  32.9991810  29.9300280  86.1363090  33.2103450  31.0918440
  86.2325790  33.9021290  32.7638700  85.4377290  33.8366410  33.2931610
  86.4369070  34.8371930  32.7524050  83.1744210  47.9412840  36.7577090
  83.7703280  47.6197410  36.0811510  83.4322360  47.4684660  37.5490360
  74.7812810  45.9290340  42.5077440  74.5404170  46.1964900  41.6207960
  75.7215450  46.0996070  42.5628300  79.6241790  32.0493090  45.9026240
  80.2382200  32.3672380  45.2407320  80.1691350  31.5641680  46.5222100
  86.0416970  47.9484720  43.3088080  85.5475250  48.3453590  42.5915210
  85.4330260  47.3233930  43.7025360  81.2721810  32.8196100  43.6137250
  80.9435170  32.0047860  43.2338980  82.2204110  32.7765910  43.4902940
  83.7256420  48.5908140  40.5874820  83.2659390  49.3423950  40.2132840
  83.0968880  47.8714610  40.5289620  74.1552140  46.8996380  39.7622950
  74.6717160  46.2883740  39.2371210  74.8049520  47.4025160  40.2533960
  76.8947640  47.7904870  40.5891930  77.1825450  47.5359170  39.7124940
  77.4070860  47.2382230  41.1797500  82.6645720  32.2318170  39.2137530
  83.1053810  32.1763270  38.3659130  82.3953310  33.1476180  39.2847710
  84.5284290  31.8633410  37.2246350  84.4672690  30.9194630  37.0777370
  85.3076320  31.9713500  37.7699810  75.9978870  33.9481820  36.6804470
  75.1853380  33.5738710  36.3400350  76.5020510  33.1926900  36.9825660
  83.6438450  31.0145830  33.1927820  83.8389080  31.9129280  33.4595250
  82.8568320  30.7832910  33.6860770  85.1965060  48.2546540  34.9534380
  85.3717250  47.5684280  34.3095300  84.4986630  48.7793590  34.5611050
  74.1483610  31.3765720  47.7202010  73.8667880  31.8799320  46.9562830
  74.5303310  30.5787470  47.3544140  72.2007500  44.7606110  32.5116020
  71.5716380  45.2291210  33.0601850  72.3155330  43.9155330  32.9462210
  79.6557220  38.8111770  18.6617220  79.5751270  37.8966380  18.3908930
  79.2421640  39.3078840  17.9556930  77.7875260  40.5890790  20.5426490
  77.0117360  40.1091230  20.8325060  78.4388190  39.9096440  20.3682650
  71.8041090  40.9010600  21.4202250  70.9725970  40.6459310  21.8198760
  72.4122070  40.9721370  22.1560170  81.8082690  44.9950980  19.3225620
  81.3464220  44.2238220  19.6512790  82.6208240  45.0217050  19.8278070
  71.7842350  44.9350690  21.6160270  72.0870390  44.0448430  21.4370490
  72.5285940  45.4920910  21.3882520  70.2133040  35.8612490  15.2044640
  69.3249740  36.2028460  15.1024520  70.4974230  35.6612810  14.3125470
  68.1766050  38.4618140  21.0884340  68.7482160  37.6940340  21.0887980
  68.1767590  38.7606900  20.1790950  78.0346000  47.2808990  18.9429610
  77.4157440  47.7366490  18.3724050  78.8897780  47.4360450  18.5419310
  77.2284250  43.2647980  20.5496650  77.1592530  42.3237920  20.3885780
  77.9904110  43.3549390  21.1219220  69.4190920  33.8702500  22.8753270
  69.2393760  32.9728250  23.1556030  69.0171000  34.4174370  23.5500220
  78.2589420  36.0718360  20.7765580  78.6354240  35.1990240  20.6639250
  78.1608930  36.4077060  19.8856020  72.3894430  34.4443990  16.2383020
  72.4961180  35.3447720  16.5451780  71.4786790  34.3961960  15.9477670
  82.0413540  33.5668800  17.7093920  82.8623160  33.0765370  17.7519400
  82.0747620  34.1566460  18.4625760  70.0377590  36.3663000  21.4835610
  70.7187700  36.6301370  22.1023010  69.7225640  35.5263870  21.8173620
  74.2302160  37.4130360  20.5708200  74.7380380  37.9111330  21.2113220
  74.7615400  36.6365560  20.3947560  86.3313090  35.5835550  24.2737550
  85.6265260  35.9717260  23.7552660  86.5971010  36.2785840  24.8758480
  72.5138260  32.0528920  24.8371620  72.5156700  32.5701310  24.0317520
  71.6842570  31.5759100  24.8141550  78.9009350  42.1648230  16.3361520
  78.2826620  42.6297680  15.7724240  79.4132600  42.8575710  16.7531030
  73.7641110  41.6924100  23.0145120  73.4310490  42.3193020  23.6566190
  73.9407790  42.2185980  22.2346790  82.2775020  35.5069180  20.4821460
  81.5730590  35.7954070  21.0624570  82.6387180  36.3169290  20.1221020
  72.1953590  33.7638880  22.8442070  72.5370400  34.6080930  22.5495940
  71.2569400  33.9122620  22.9607410  72.9760210  43.6604900  24.8294300
  73.5934210  44.3355980  24.5478750  72.1153330  44.0692880  24.7381800
  68.2692550  42.8504760  13.7101150  67.8920530  43.3391860  12.9786050
  68.5265620  43.5230040  14.3407680  85.3461940  34.9523970  20.8730670
  84.3986850  34.9862950  21.0046100  85.6711930  35.7662920  21.2580030
  75.8781480  31.2521150  19.1686660  76.1856460  30.6968040  18.4522160
  74.9482180  31.3865610  18.9859650  82.7241960  43.6904660  16.5484290
  82.6138290  42.7478990  16.6733710  82.7210210  44.0520300  17.4347050
  80.8281980  41.8718280  22.7876730  81.2450770  41.6578390  21.9530190
  81.5521800  42.1291070  23.3585350  78.2662240  39.3169980  15.9046780
  77.3391520  39.2507360  16.1335250  78.4187060  40.2550110  15.7902020
  78.2531320  35.5886980  12.9013940  77.3134990  35.7500940  12.9866400
  78.5714580  36.3072660  12.3549930  84.7744080  40.2705500  22.8792970
  83.9462710  40.3398590  22.4043100  85.3694560  40.8559810  22.4108800
  82.2959530  40.8790280  16.4082030  81.6771950  40.5409830  15.7608330
  82.2783980  40.2350040  17.1161220  81.7386090  37.0574820  23.8247840
  81.3257270  37.8828530  24.0787830  81.0062040  36.4719860  23.6324200
  73.8718880  39.8434720  18.6866510  73.4675880  39.1311970  18.1912410
  73.9582000  39.4987960  19.5754550  74.3400580  43.5302280  20.8505720
  74.0428870  42.9247750  20.1713500  75.2900400  43.5679590  20.7395080
  72.5847500  36.6177930  22.4665550  73.1362090  36.7273270  21.6918800
  73.0991010  36.9915530  23.1820780  80.4724230  40.1177090  13.4154780
  80.9117510  39.2799520  13.2692600  81.1852650  40.7506490  13.5018920
  72.2590230  40.1397290  26.0770890  72.1198000  41.0120090  26.4458290
  71.3771590  39.7970100  25.9318830  78.5819610  45.0573160  17.3836020
  79.0215520  45.7997490  16.9691410  78.5206500  45.2999730  18.3074980
  84.0541370  31.3719900  11.7295820  83.7414030  31.4646730  12.6294890
  84.8153840  31.9500930  11.6793250  70.5723510  38.7379700  16.1873160
  70.4521110  39.4641790  15.5754430  70.2624400  37.9682610  15.7101070
  69.4556510  43.6095030  18.4047980  69.0484590  43.7509620  17.5501580
  70.3469520  43.3255190  18.2019190  79.2735390  47.7586940  25.3115030
  79.7880060  47.6694950  26.1137460  78.4304470  48.1046640  25.6042940
  81.2489790  48.0442280  14.7399030  81.0890930  47.7545220  15.6380860
  81.0836500  47.2682410  14.2044260  73.7278170  47.8240810  16.5170650
  73.5520650  46.9076350  16.3038450  72.8733910  48.1828100  16.7568450
  80.9515920  45.5529840  13.2997030  80.2581080  45.5507130  12.6399310
  81.6938780  45.1289160  12.8691200  80.5165850  47.1792550  17.3745520
  80.9722800  46.3981930  17.6884140  80.8558370  47.8899370  17.9186700
  85.2642660  36.1091400  27.7069960  84.6486930  36.6171070  27.1785420
  84.9439080  35.2089730  27.6495900  73.0387170  32.0814770  19.5696830
  72.5955320  32.8624310  19.2381350  73.5972160  32.4044660  20.2767770
  77.3256980  34.9483290  25.1732150  76.8636350  35.1566310  25.9852090
  76.9235090  34.1342640  24.8702820  82.3261490  36.1692240  26.3028810
  81.4755080  35.8697990  26.6237880  82.1663280  36.4134250  25.3912630
  79.4211200  37.6693990  28.4027600  79.7464610  36.8357740  28.0629830
  80.2091530  38.1922510  28.5505930  76.1545990  31.7025470  14.4502660
  75.5300170  31.6985340  15.1755970  76.0676110  30.8356430  14.0538630
  75.0763070  32.6262100  21.4286430  75.3735400  33.5324930  21.3478450
  75.6248630  32.1380880  20.8146000  72.8301390  37.2048340  17.2978080
  72.6042310  36.9885510  18.2024700  72.0493920  37.6376800  16.9524050
  80.0599150  37.2111710  15.8968730  79.4608040  37.9347510  15.7132350
  80.6078760  37.1488490  15.1145180  78.6664020  35.8475250  17.9272010
  79.0593590  36.1647450  17.1140700  79.0280870  34.9687130  18.0416530
  70.4011140  34.5147590  26.1172130  70.0074530  35.3622800  26.3244910
  69.7129540  33.8773960  26.3080770  76.9756190  34.5982560  29.1868870
  76.2854510  34.4054760  29.8214960  77.7188490  34.8817200  29.7193170
  67.7028190  32.4376050  20.1502210  67.4141240  33.0078910  20.8627190
  68.4473950  31.9580500  20.5133440  67.8898420  36.3796170  11.3604930
  67.8073090  37.3226930  11.5019920  67.5381480  36.2371080  10.4817280
  79.2519160  38.4381000  22.0222790  78.5200280  38.9467810  22.3712890
  78.8543500  37.6210980  21.7211570  75.6896550  35.1135200  20.4275280
  75.6932610  34.6725150  19.5779820  76.5847670  35.4352530  20.5347100
  71.5398930  34.9961690  19.3869490  71.1998980  35.4736920  20.1436540
  70.7776250  34.5426810  19.0270590  75.7516700  36.1147280  13.4182040
  75.8729520  36.0733760  14.3667860  75.3665210  36.9771430  13.2628770
  79.7145070  33.8914680  21.4345730  79.7317810  34.3423330  22.2787580
  79.4660650  32.9920320  21.6479170  74.7638200  38.4248420  12.8165340
  74.1955100  37.9766670  12.1901250  75.4727200  38.7841200  12.2830490
  83.1415820  31.3046860  27.2732110  83.4661590  30.5736520  27.7990090
  83.1772330  30.9860500  26.3713100  75.9904520  39.1736980  22.1740690
  76.3574650  38.6995550  22.9202030  75.8009580  40.0478550  22.5149030
  68.8545010  33.9180670  18.3034160  68.5691930  33.5536340  19.1412780
  68.7923870  33.1861130  17.6897300  73.7803890  38.2145620  24.4924900
  73.4760960  39.0937600  24.7175260  74.7350350  38.2745410  24.5282340
  72.3085680  42.4206610  15.0891750  71.5347940  41.8804230  14.9290470
  73.0380310  41.9013220  14.7509510  83.0673660  41.4171970  20.8818140
  83.7872780  41.9127260  20.4914250  82.8655480  40.7389860  20.2372010
  78.5283600  32.8109930  15.0247530  77.7148210  32.3123100  14.9492840
  78.3345550  33.6508180  14.6083880  81.2431990  37.1829580  13.3209690
  82.1311610  37.4946810  13.1461030  81.2137080  36.3101830  12.9290270
  72.3523080  42.0886990  18.7270560  72.8701750  41.2855250  18.6727450
  71.9007100  42.0266130  19.5687390  77.2392580  43.3553270  13.9997860
  77.5808280  44.0995500  13.5041180  76.4105290  43.6684390  14.3622690
  69.8367620  39.0548360  25.6396260  69.4782560  39.7202210  26.2269600
  69.5422180  38.2231910  26.0108880  73.0380740  39.5132600  28.5235810
  72.7380880  39.6589780  27.6263630  73.8091980  38.9537890  28.4309200
  83.5146260  38.4941420  12.7889550  83.4309980  38.9255640  11.9385990
  84.2340450  38.9539770  13.2216370  84.5920400  40.9508940  25.8659520
  83.8668590  41.5437720  25.6688910  85.1195860  40.9432480  25.0672890
  84.5433510  45.3483680  15.5171680  83.9009670  44.6939300  15.7915400
  84.1564170  45.7538770  14.7412350  80.1219990  42.6769110  19.3643370
  80.4743810  42.0797240  18.7044740  79.2382320  42.3513340  19.5351620
  76.2083270  43.4366800  16.7713780  76.8954400  43.9836010  17.1521370
  75.4215690  43.9807530  16.8063390  68.3475670  39.0539620  12.2630860
  69.2170520  39.3364420  12.5466780  67.8565990  39.8675490  12.1479670
  75.5110480  40.4412830  16.3839140  75.9673260  41.2518080  16.6099330
  75.1598690  40.1235970  17.2157630  77.8143090  45.9519170  23.6131440
  78.4585310  46.1578550  24.2904860  78.1772530  45.1907570  23.1602290
  71.4122260  30.7850480  16.8561660  71.2836890  30.7768380  17.8046580
  70.5884280  31.1233570  16.5052670  79.0875170  43.9551520  22.3308890
  79.7297400  43.2544680  22.4441060  79.6124520  44.7349960  22.1505780
  82.9330890  44.2400140  12.0548030  82.7068470  43.5230580  12.6472670
  82.5427090  43.9912580  11.2169780  68.7146920  48.2667000  12.8292490
  69.0744560  48.8656340  12.1749760  68.5739260  48.8126890  13.6027520
  68.4116190  32.5441600  26.3168360  67.6974710  32.7438520  26.9220970
  68.8311230  31.7681170  26.6883160  82.5147140  42.1572080  13.7162190
  82.2268840  42.6184770  14.5040070  83.3099310  41.6969850  13.9846410
  74.7315540  45.6498200  13.6466160  74.7225640  46.3827890  13.0310670
  73.8113900  45.4029780  13.7393120  70.3322180  40.8713090  14.3912920
  69.7250130  41.6111990  14.4008220  70.8071530  40.9612450  13.5651120
  79.9054970  35.0363910  24.0669810  80.2735790  34.2159120  24.3949380
  79.0453170  35.0965800  24.4825460  83.2717000  33.9920850  14.8757370
  82.6430160  34.0966520  14.1615600  82.7768920  34.2117630  15.6651250
  77.7175140  45.7126440  12.3091350  77.8187120  45.5090430  11.3793330
  76.8176880  45.4584720  12.5139130  75.2401030  36.2706800  16.2915250
  74.5317180  36.7393140  16.7328860  75.5245510  35.6128810  16.9260440
  76.8656960  37.6903500  24.2907780  77.3642210  38.1649320  24.9559630
  77.0079910  36.7667020  24.4977810  79.2716460  32.9957460  17.7311040
  79.1484240  33.0143590  16.7820550  80.2201020  33.0436400  17.8509440
  76.3593250  48.2312760  17.0039020  76.6134750  48.1934150  16.0818390
  75.4105730  48.1046090  16.9967270  73.4436050  34.5791880  13.6665960
  74.2926580  35.0162030  13.6006150  73.0767320  34.8912140  14.4938020
  84.0723820  33.9071460  25.1336170  83.5697420  34.6476860  25.4729980
  84.8880480  34.2955460  24.8172960  82.3645830  39.1504640  18.5797530
  81.4235970  39.1654870  18.7545220  82.6789900  38.3640600  19.0257830
  72.3427470  40.8324240  12.1401490  73.1090740  40.7205600  12.7026920
  72.4202160  40.1362210  11.4878260  71.0374230  38.2649310  12.8234380
  71.1177820  37.3176820  12.9351780  71.9293980  38.5956190  12.9295040
  71.8388940  48.4144700  19.9268920  72.5751420  47.8660160  20.1977490
  72.2229860  49.2800710  19.7874910  68.7234420  44.4818270  15.8010430
  67.7974200  44.7239410  15.7915840  69.1890850  45.3092530  15.6795180
  74.9491250  47.5875010  11.7494490  75.7419860  47.8763840  11.2976280
  74.4295600  47.1567180  11.0706970  84.0021420  46.8145140  13.1731230
  83.7162930  46.4010280  12.3585410  83.8040970  47.7432850  13.0531750
  68.5645030  40.0864230  28.0590550  69.0684050  39.5071510  28.6306780
  67.8252450  40.3704460  28.5966920  75.4668650  42.8078420  11.6136840
  75.3619290  42.1930770  12.3398220  75.2992870  42.2844310  10.8299850
  78.7071380  41.8698450  12.2178830  78.1581480  42.3167750  12.8621570
  79.3290640  41.3647700  12.7416500  82.7606320  43.2240550  28.1501090
  83.5015790  43.5616310  27.6468550  81.9979000  43.3932610  27.5970860
  70.5968110  38.2293820  28.9540620  70.6373450  37.9307690  29.8625850
  71.4513610  38.6301430  28.7948140  74.3746500  40.8289370  14.1144130
  74.7962920  40.6629240  14.9575520  74.4997340  40.0189600  13.6199270
  72.5373920  36.8085920  26.9215110  72.0070380  36.3176870  26.2938450
  73.2061990  37.2370120  26.3873040  76.8874140  39.8526980  11.3621230
  77.4079800  39.1376000  10.9962380  77.5342540  40.4912850  11.6621740
  81.4351980  41.2755380  26.6856300  81.8493000  41.4300460  27.5346720
  80.5002980  41.4010600  26.8482080  81.9074150  38.6151540  28.6895450
  82.4894920  37.8603860  28.6015930  82.0835920  39.1458980  27.9126930
  73.0246220  33.7748290  27.0012400  72.9303090  33.1569040  26.2763270
  72.4443610  34.5014580  26.7742310  75.7907660  32.3321530  24.0339790
  75.3424960  32.3545790  23.1885340  75.1572860  31.9340550  24.6310090
  78.5331110  38.9592040  26.0390070  78.6527320  38.3633180  26.7784910
  79.3925110  38.9961730  25.6191370  80.8719010  39.5129230  24.6152580
  80.3454230  40.0371850  24.0117720  81.2150350  40.1456620  25.2462310
  73.2705400  36.9022600  11.0602290  73.0694460  36.0389960  11.4215630
  73.0997450  36.8155960  10.1223890  75.2999880  35.5013390  27.2965890
  75.8899570  35.1929240  27.9843710  74.4820120  35.0293140  27.4525790
  80.1193310  35.1179200  27.5298910  79.4308830  34.4560740  27.4648900
  80.8399330  34.6717470  27.9747370  80.7493710  31.7130830  13.5889170
  81.0296000  30.8698730  13.9448590  79.9759440  31.9453940  14.1027920
  72.0688200  34.0023220  11.0480170  72.3714100  34.0090650  10.1399320
  72.8082790  33.6521080  11.5447830  76.9036840  48.7680080  26.0296610
  76.8295540  49.6715220  26.3368980  76.0015680  48.4491980  26.0018680
  75.2873130  32.9457840  12.0336370  74.9395130  32.2681830  11.4538820
  75.4885900  32.4847350  12.8479760  77.4522170  47.9338590  13.6522970
  78.3472960  48.2723560  13.6741730  77.4839800  47.2118000  13.0247250
  71.0918330  43.3065640  11.8809970  71.5293200  43.8495310  12.5367550
  71.5766060  42.4812590  11.8906310  68.3064130  46.0954670  19.3330230
  68.6367140  45.2275730  19.1008870  68.7355130  46.3013190  20.1635190
  72.9026050  44.4263680  16.9932200  72.6021590  44.3028650  17.8936110
  72.7963540  43.5672270  16.5847930  68.7954340  46.9625260  22.0711860
  68.3585330  47.1426060  22.9036010  69.3632020  47.7199880  21.9293580
  85.6717970  44.2060080  11.6958880  84.8410930  44.2736730  12.1666110
  85.8489800  45.0964200  11.3925740  85.1274430  40.9507560  14.1993080
  85.8893340  41.5204210  14.3052770  85.1428800  40.3834760  14.9701390
  68.6278770  39.4745490  18.4300740  67.9727610  39.2057130  17.7860440
  69.4656720  39.3649970  17.9802720  86.1334400  41.8057660  19.0435010
  86.5043230  41.0224980  18.6370980  86.7736330  42.4946760  18.8652310
  85.1793600  41.2441930  11.3565600  85.4542440  42.1520810  11.2284820
  84.9904340  41.1804460  12.2927590  81.5769210  34.2686780  12.6519230
  81.9954090  34.0817760  11.8115890  81.2705270  33.4165830  12.9622160
  85.0758940  39.1810920  16.3495030  84.7002540  38.4138850  15.9176320
  84.3462060  39.5633620  16.8369960  69.6654700  39.8598060  22.9704080
  70.0327740  39.7725460  23.8500100  69.0965520  39.0964610  22.8710940
  84.4658560  38.3282440  25.9834550  84.2344650  38.0995190  25.0832500
  84.7263110  39.2481990  25.9379440  69.2170700  36.7707150  26.8762500
  68.3226750  36.7373910  27.2156210  69.7568250  36.9693940  27.6413750
  82.9046630  33.5538870  28.7614250  83.7816810  33.5622270  29.1448250
  82.9167470  32.8169710  28.1506600  67.8416850  36.6844420  14.3726070
  66.9380930  36.9474620  14.1977730  68.3257470  36.9555590  13.5926030
  84.3509900  37.4068410  19.6502270  84.8747380  36.9131060  19.0192440
  84.9369320  37.5418770  20.3949840  84.5299620  37.4908280  23.1721820
  83.5802330  37.4571820  23.2866810  84.7112630  38.4008390  22.9371590
  70.3844060  35.7409960  12.2820450  71.0935760  35.3193180  11.7967730
  69.6684000  35.8085190  11.6503800  70.0318220  31.7949290  11.3223100
  70.7546350  32.3358230  11.6404320  70.3042740  31.5212710  10.4464640
  83.8409870  36.6641760  15.5894680  84.3368990  36.4312630  16.3743560
  83.6425940  35.8253600  15.1732320  69.7210410  31.0455480  21.2245720
  70.3686600  30.4952860  20.7840880  70.1412250  31.2998630  22.0461530
  85.2697030  35.3002710  18.1232360  85.1596310  35.1458750  19.0614630
  86.0304620  34.7723650  17.8807770  83.6162750  31.2396840  24.5815360
  84.2534970  31.8530980  24.9474550  83.7637640  31.2757500  23.6364590
  86.1587300  33.1310630  11.3638500  87.0836610  32.9991810  11.1556790
  86.1363090  33.2103450  12.3174950  86.2325790  33.9021290  13.9895210
  85.4377290  33.8366410  14.5188120  86.4369070  34.8371930  13.9780560
  83.1744210  47.9412840  17.9833600  83.7703280  47.6197410  17.3068020
  83.4322360  47.4684660  18.7746870  69.4742410  31.2011150  23.9671040
  69.1257230  31.6574970  24.7329220  69.1430110  30.3068280  24.0493470
  71.0806780  44.3730750  28.1324230  71.0376410  44.0023660  29.0138690
  71.2117790  45.3108320  28.2726050  74.7812810  45.9290340  23.7333950
  74.5404170  46.1964900  22.8464470  75.7215450  46.0996070  23.7884810
  76.9867230  32.3923030  27.4890460  76.9256120  32.9844860  28.2385870
  77.9267610  32.2848990  27.3440720  79.6241790  32.0493090  27.1282750
  80.2382200  32.3672380  26.4663830  80.1691350  31.5641680  27.7478610
  70.1463050  30.7287350  27.2421810  70.6946040  30.5475400  26.4787920
  70.2118360  29.9381460  27.7778120  80.3649830  30.6125230  23.4552040
  79.4909670  30.9460340  23.2524970  80.2560580  30.1398410  24.2803910
  81.2721810  32.8196100  24.8393760  80.9435170  32.0047860  24.4595490
  82.2204110  32.7765910  24.7159450  74.1552140  46.8996380  20.9879460
  74.6717160  46.2883740  20.4627720  74.8049520  47.4025160  21.4790470
  76.8947640  47.7904870  21.8148440  77.1825450  47.5359170  20.9381450
  77.4070860  47.2382230  22.4054010  78.1124650  31.5295070  22.3944950
  77.3296440  32.0040570  22.6741710  77.8187580  30.6249900  22.2858130
  82.6645720  32.2318170  20.4394040  83.1053810  32.1763270  19.5915640
  82.3953310  33.1476180  20.5104220  84.5284290  31.8633410  18.4502860
  84.4672690  30.9194630  18.3033880  85.3076320  31.9713500  18.9956320
  68.8337040  48.0025770  17.4126810  68.6659080  47.3696450  18.1108700
  67.9671550  48.2085170  17.0621000  69.4565060  31.8342550  14.9158670
  70.2144420  31.9471430  14.3422700  68.9942230  32.6711750  14.8702100
  75.9978870  33.9481820  17.9060980  75.1853380  33.5738710  17.5656860
  76.5020510  33.1926900  18.2082170  80.5003850  30.6124270  19.1444050
  81.1033220  31.1844480  19.6192570  79.7596840  31.1763710  18.9217950
  83.6438450  31.0145830  14.4184330  83.8389080  31.9129280  14.6851760
  82.8568320  30.7832910  14.9117280  70.4399740  46.6959000  14.8576950
  69.9147360  47.0767030  14.1538910  70.3644320  47.3209770  15.5786660
  71.8290210  32.3606600  13.4560640  72.3582970  31.5736400  13.3268590
  72.4618530  33.0397790  13.6896170  74.0228050  32.0981740  16.5106030
  73.3930790  31.3969050  16.6776160  73.4833190  32.8585870  16.2939190
  76.9620000  48.7120970  29.1816640  77.8887310  48.4765240  29.2252600
  76.9470430  49.5392970  28.7002670  85.1965060  48.2546540  16.1790890
  85.3717250  47.5684280  15.5351810  84.4986630  48.7793590  15.7867560
  74.1483610  31.3765720  28.9458520  73.8667880  31.8799320  28.1819340
  74.5303310  30.5787470  28.5800650  73.0392710  48.6441380  13.7326200
  73.7711530  48.3600660  13.1850090  73.2986380  48.4054660  14.6225580
  72.2007500  44.7606110  13.7372530  71.5716380  45.2291210  14.2858360
  72.3155330  43.9155330  14.1718720  80.7499070  30.7919300  29.5238990
  80.6364520  31.1113910  30.4190510  81.5668810  31.1931810  29.2276270
  77.7875260  40.5890790   1.7683000  77.0117360  40.1091230   2.0581570
  78.4388190  39.9096440   1.5939160  71.8041090  40.9010600   2.6458760
  70.9725970  40.6459310   3.0455270  72.4122070  40.9721370   3.3816680
  71.7842350  44.9350690   2.8416780  72.0870390  44.0448430   2.6627000
  72.5285940  45.4920910   2.6139030  77.2284250  43.2647980   1.7753160
  77.1592530  42.3237920   1.6142290  77.9904110  43.3549390   2.3475730
  69.4190920  33.8702500   4.1009780  69.2393760  32.9728250   4.3812540
  69.0171000  34.4174370   4.7756730  70.0377590  36.3663000   2.7092120
  70.7187700  36.6301370   3.3279520  69.7225640  35.5263870   3.0430130
  74.2302160  37.4130360   1.7964710  74.7380380  37.9111330   2.4369730
  74.7615400  36.6365560   1.6204070  86.3313090  35.5835550   5.4994060
  85.6265260  35.9717260   4.9809170  86.5971010  36.2785840   6.1014990
  72.5138260  32.0528920   6.0628130  72.5156700  32.5701310   5.2574030
  71.6842570  31.5759100   6.0398060  73.7641110  41.6924100   4.2401630
  73.4310490  42.3193020   4.8822700  73.9407790  42.2185980   3.4603300
  72.1953590  33.7638880   4.0698580  72.5370400  34.6080930   3.7752450
  71.2569400  33.9122620   4.1863920  72.9760210  43.6604900   6.0550810
  73.5934210  44.3355980   5.7735260  72.1153330  44.0692880   5.9638310
  83.8937800  45.1244310   3.9705450  83.2101320  45.7943420   3.9622120
  84.4332090  45.3224960   3.2050310  85.3461940  34.9523970   2.0987180
  84.3986850  34.9862950   2.2302610  85.6711930  35.7662920   2.4836540
  81.4296540  46.9688440   2.6850630  81.4423700  46.5650730   1.8172890
  80.8771760  47.7435730   2.5812060  80.8281980  41.8718280   4.0133240
  81.2450770  41.6578390   3.1786700  81.5521800  42.1291070   4.5841860
  84.7744080  40.2705500   4.1049480  83.9462710  40.3398590   3.6299610
  85.3694560  40.8559810   3.6365310  81.7386090  37.0574820   5.0504350
  81.3257270  37.8828530   5.3044340  81.0062040  36.4719860   4.8580710
  72.5847500  36.6177930   3.6922060  73.1362090  36.7273270   2.9175310
  73.0991010  36.9915530   4.4077290  82.4286190  47.1034150   5.7385330
  81.9516750  47.9106340   5.5457940  81.7447980  46.4512480   5.8911540
  73.4319010  43.2683970   8.7270030  72.5347540  43.4923940   8.9743430
  73.4571880  43.3918910   7.7781430  72.2590230  40.1397290   7.3027400
  72.1198000  41.0120090   7.6714800  71.3771590  39.7970100   7.1575340
  74.0570580  46.0818990   9.5112550  74.0286010  46.4861940   8.6440980
  73.8935550  45.1529350   9.3484150  86.0085400  46.8646090  10.8076720
  86.4845120  47.3428980  11.4865800  86.6292560  46.7963580  10.0822220
  68.2108880  41.9094840   3.2198310  68.2889300  42.0443610   2.2754030
  68.8250560  41.2010730   3.4126430  85.4118650  44.0558940   7.9676730
  85.5381710  43.8170820   7.0493910  85.4540030  43.2243480   8.4398810
  79.2735390  47.7586940   6.5371540  79.7880060  47.6694950   7.3393970
  78.4304470  48.1046640   6.8299450  85.2642660  36.1091400   8.9326470
  84.6486930  36.6171070   8.4041930  84.9439080  35.2089730   8.8752410
  68.2668400  42.9509010   5.7592770  68.4299440  42.4814370   4.9412140
  68.7320850  42.4432570   6.4241610  77.3256980  34.9483290   6.3988660
  76.8636350  35.1566310   7.2108600  76.9235090  34.1342640   6.0959330
  82.3261490  36.1692240   7.5285320  81.4755080  35.8697990   7.8494390
  82.1663280  36.4134250   6.6169140  79.4211200  37.6693990   9.6284110
  79.7464610  36.8357740   9.2886340  80.2091530  38.1922510   9.7762440
  75.0763070  32.6262100   2.6542940  75.3735400  33.5324930   2.5734960
  75.6248630  32.1380880   2.0402510  75.2700600  38.1033920   9.1894860
  75.1744200  37.1628650   9.0395260  76.1132580  38.3248990   8.7942930
  70.4011140  34.5147590   7.3428640  70.0074530  35.3622800   7.5501420
  69.7129540  33.8773960   7.5337280  76.9756190  34.5982560  10.4125380
  76.2854510  34.4054760  11.0471470  77.7188490  34.8817200  10.9449680
  79.2519160  38.4381000   3.2479300  78.5200280  38.9467810   3.5969400
  78.8543500  37.6210980   2.9468080  79.7145070  33.8914680   2.6602240
  79.7317810  34.3423330   3.5044090  79.4660650  32.9920320   2.8735680
  83.1415820  31.3046860   8.4988620  83.4661590  30.5736520   9.0246600
  83.1772330  30.9860500   7.5969610  69.8407380  42.3260440   7.9188580
  69.4562170  41.6854110   8.5171540  70.1519570  43.0296560   8.4883310
  75.9904520  39.1736980   3.3997200  76.3574650  38.6995550   4.1458540
  75.8009580  40.0478550   3.7405540  73.7803890  38.2145620   5.7181410
  73.4760960  39.0937600   5.9431770  74.7350350  38.2745410   5.7538850
  83.0673660  41.4171970   2.1074650  83.7872780  41.9127260   1.7170760
  82.8655480  40.7389860   1.4628520  78.4492460  41.4881030   7.9943650
  78.3829770  40.5676700   7.7401240  77.8197600  41.5856470   8.7088290
  69.8367620  39.0548360   6.8652770  69.4782560  39.7202210   7.4526110
  69.5422180  38.2231910   7.2365390  73.0380740  39.5132600   9.7492320
  72.7380880  39.6589780   8.8520140  73.8091980  38.9537890   9.6565710
  78.3809190  44.3101600   7.7447450  78.3953730  43.3782560   7.5266360
  77.6734290  44.3961360   8.3837220  84.5920400  40.9508940   7.0916030
  83.8668590  41.5437720   6.8945420  85.1195860  40.9432480   6.2929400
  77.8143090  45.9519170   4.8387950  78.4585310  46.1578550   5.5161370
  78.1772530  45.1907570   4.3858800  79.0875170  43.9551520   3.5565400
  79.7297400  43.2544680   3.6697570  79.6124520  44.7349960   3.3762290
  80.8612790  44.7546420   6.7601460  81.1969030  45.3413110   7.4379380
  79.9413130  44.6239130   6.9899250  68.4116190  32.5441600   7.5424870
  67.6974710  32.7438520   8.1477480  68.8311230  31.7681170   7.9139670
  68.6988780  46.5321860   8.5291400  68.8079900  45.5916600   8.3886790
  68.0469340  46.7976610   7.8805130  76.6901370  44.8037750   9.9289520
  76.3698240  44.0846990  10.4735210  76.0159730  45.4792820  10.0025580
  79.9054970  35.0363910   5.2926320  80.2735790  34.2159120   5.6205890
  79.0453170  35.0965800   5.7081970  76.8656960  37.6903500   5.5164290
  77.3642210  38.1649320   6.1816140  77.0079910  36.7667020   5.7234320
  84.0723820  33.9071460   6.3592680  83.5697420  34.6476860   6.6986490
  84.8880480  34.2955460   6.0429470  70.8447220  47.5990770  10.3411010
  71.6459950  47.9202820  10.7546410  70.3299040  47.2386350  11.0630920
  79.6811850  43.7070640  10.2886420  79.0750010  43.7302240   9.5482170
  79.3765960  42.9753680  10.8253670  81.1112220  47.4350930   8.8995830
  82.0633970  47.3508950   8.8496070  80.9640440  48.0992640   9.5729620
  68.5645030  40.0864230   9.2847060  69.0684050  39.5071510   9.8563290
  67.8252450  40.3704460   9.8223430  75.6182970  41.4935220   8.8182580
  74.8528640  42.0620220   8.7337250  75.7998930  41.2011430   7.9250810
  82.7606320  43.2240550   9.3757600  83.5015790  43.5616310   8.8725060
  81.9979000  43.3932610   8.8227370  70.5968110  38.2293820  10.1797130
  70.6373450  37.9307690  11.0882360  71.4513610  38.6301430  10.0204650
  72.5373920  36.8085920   8.1471620  72.0070380  36.3176870   7.5194960
  73.2061990  37.2370120   7.6129550  81.4351980  41.2755380   7.9112810
  81.8493000  41.4300460   8.7603230  80.5002980  41.4010600   8.0738590
  81.9074150  38.6151540   9.9151960  82.4894920  37.8603860   9.8272440
  82.0835920  39.1458980   9.1383440  73.0246220  33.7748290   8.2268910
  72.9303090  33.1569040   7.5019780  72.4443610  34.5014580   7.9998820
  75.7907660  32.3321530   5.2596300  75.3424960  32.3545790   4.4141850
  75.1572860  31.9340550   5.8566600  76.1967210  41.2275860   5.8808740
  76.6155320  42.0708590   5.7084980  75.2775840  41.3647900   5.6515520
  78.5331110  38.9592040   7.2646580  78.6527320  38.3633180   8.0041420
  79.3925110  38.9961730   6.8447880  80.8719010  39.5129230   5.8409090
  80.3454230  40.0371850   5.2374230  81.2150350  40.1456620   6.4718820
  74.0474630  47.5328870   6.9966470  73.5095720  48.2574930   6.6775170
  74.3008590  47.0559210   6.2063810  75.2999880  35.5013390   8.5222400
  75.8899570  35.1929240   9.2100220  74.4820120  35.0293140   8.6782300
  80.1193310  35.1179200   8.7555420  79.4308830  34.4560740   8.6905410
  80.8399330  34.6717470   9.2003880  76.9036840  48.7680080   7.2553120
  76.8295540  49.6715220   7.5625490  76.0015680  48.4491980   7.2275190
  68.7954340  46.9625260   3.2968370  68.3585330  47.1426060   4.1292520
  69.3632020  47.7199880   3.1550090  84.4316520  46.4642260   7.5845680
  83.8318510  46.5234820   6.8409600  84.5610420  45.5247240   7.7142530
  83.1168160  43.1894240   5.6821840  82.3028000  43.6191400   5.9447630
  83.5242360  43.8012650   5.0690890  69.6654700  39.8598060   4.1960590
  70.0327740  39.7725460   5.0756610  69.0965520  39.0964610   4.0967450
  84.4658560  38.3282440   7.2091060  84.2344650  38.0995190   6.3089010
  84.7263110  39.2481990   7.1635950  69.2170700  36.7707150   8.1019010
  68.3226750  36.7373910   8.4412720  69.7568250  36.9693940   8.8670260
  82.9046630  33.5538870   9.9870760  83.7816810  33.5622270  10.3704760
  82.9167470  32.8169710   9.3763110  84.5299620  37.4908280   4.3978330
  83.5802330  37.4571820   4.5123320  84.7112630  38.4008390   4.1628100
  69.7210410  31.0455480   2.4502230  70.3686600  30.4952860   2.0097390
  70.1412250  31.2998630   3.2718040  83.6162750  31.2396840   5.8071870
  84.2534970  31.8530980   6.1731060  83.7637640  31.2757500   4.8621100
  69.4742410  31.2011150   5.1927550  69.1257230  31.6574970   5.9585730
  69.1430110  30.3068280   5.2749980  71.0806780  44.3730750   9.3580740
  71.0376410  44.0023660  10.2395200  71.2117790  45.3108320   9.4982560
  74.7812810  45.9290340   4.9590460  74.5404170  46.1964900   4.0720980
  75.7215450  46.0996070   5.0141320  76.9867230  32.3923030   8.7146970
  76.9256120  32.9844860   9.4642380  77.9267610  32.2848990   8.5697230
  79.6241790  32.0493090   8.3539260  80.2382200  32.3672380   7.6920340
  80.1691350  31.5641680   8.9735120  86.0416970  47.9484720   5.7601100
  85.5475250  48.3453590   5.0428230  85.4330260  47.3233930   6.1538380
  70.1463050  30.7287350   8.4678320  70.6946040  30.5475400   7.7044430
  70.2118360  29.9381460   9.0034630  70.9194810  47.3193000   6.4778520
  70.3255130  47.1877700   7.2168560  70.9118650  46.4831140   6.0120620
  80.3649830  30.6125230   4.6808550  79.4909670  30.9460340   4.4781480
  80.2560580  30.1398410   5.5060420  81.2721810  32.8196100   6.0650270
  80.9435170  32.0047860   5.6852000  82.2204110  32.7765910   5.9415960
  83.7256420  48.5908140   3.0387840  83.2659390  49.3423950   2.6645860
  83.0968880  47.8714610   2.9802640  70.5507040  44.6851380   5.4286560
  69.8241100  44.0656670   5.3612510  70.6116190  45.0791990   4.5584640
  74.1552140  46.8996380   2.2135970  74.6717160  46.2883740   1.6884230
  74.8049520  47.4025160   2.7046980  76.8947640  47.7904870   3.0404950
  77.1825450  47.5359170   2.1637960  77.4070860  47.2382230   3.6310520
  78.1124650  31.5295070   3.6201460  77.3296440  32.0040570   3.8998220
  77.8187580  30.6249900   3.5114640  76.9620000  48.7120970  10.4073150
  77.8887310  48.4765240  10.4509110  76.9470430  49.5392970   9.9259180
  74.1483610  31.3765720  10.1715030  73.8667880  31.8799320   9.4075850
  74.5303310  30.5787470   9.8057160  80.7499070  30.7919300  10.7495500
  80.6364520  31.1113910  11.6447020  81.5668810  31.1931810  10.4532780
  83.5297560  47.9390830  10.2314190  84.3222880  47.4440060  10.0240150
  83.8230710  48.6180970  10.8389800  79.6557220  20.0368280 150.0821650
  79.5751270  19.1222890 149.8113360  79.2421640  20.5335350 149.3761360
  81.8082690  26.2207490 150.7430050  81.3464220  25.4494730 151.0717220
  82.6208240  26.2473560 151.2482500  70.2133040  17.0869000 146.6249070
  69.3249740  17.4284970 146.5228950  70.4974230  16.8869320 145.7329900
  78.0346000  28.5065500 150.3634040  77.4157440  28.9623000 149.7928480
  78.8897780  28.6616960 149.9623740  72.3894430  15.6700500 147.6587450
  72.4961180  16.5704230 147.9656210  71.4786790  15.6218470 147.3682100
  82.0413540  14.7925310 149.1298350  82.8623160  14.3021880 149.1723830
  82.0747620  15.3822970 149.8830190  78.9009350  23.3904740 147.7565950
  78.2826620  23.8554190 147.1928670  79.4132600  24.0832220 148.1735460
  68.2692550  24.0761270 145.1305580  67.8920530  24.5648370 144.3990480
  68.5265620  24.7486550 145.7612110  75.8781480  12.4777660 150.5891090
  76.1856460  11.9224550 149.8726590  74.9482180  12.6122120 150.4064080
  82.7241960  24.9161170 147.9688720  82.6138290  23.9735500 148.0938140
  82.7210210  25.2776810 148.8551480  78.2662240  20.5426490 147.3251210
  77.3391520  20.4763870 147.5539680  78.4187060  21.4806620 147.2106450
  78.2531320  16.8143490 144.3218370  77.3134990  16.9757450 144.4070830
  78.5714580  17.5329170 143.7754360  82.2959530  22.1046790 147.8286460
  81.6771950  21.7666340 147.1812760  82.2783980  21.4606550 148.5365650
  73.8718880  21.0691230 150.1070940  73.4675880  20.3568480 149.6116840
  73.9582000  20.7244470 150.9958980  80.4724230  21.3433600 144.8359210
  80.9117510  20.5056030 144.6897030  81.1852650  21.9763000 144.9223350
  78.5819610  26.2829670 148.8040450  79.0215520  27.0254000 148.3895840
  78.5206500  26.5256240 149.7279410  84.0541370  12.5976410 143.1500250
  83.7414030  12.6903240 144.0499320  84.8153840  13.1757440 143.0997680
  70.5723510  19.9636210 147.6077590  70.4521110  20.6898300 146.9958860
  70.2624400  19.1939120 147.1305500  69.4556510  24.8351540 149.8252410
  69.0484590  24.9766130 148.9706010  70.3469520  24.5511700 149.6223620
  81.2489790  29.2698790 146.1603460  81.0890930  28.9801730 147.0585290
  81.0836500  28.4938920 145.6248690  73.7278170  29.0497320 147.9375080
  73.5520650  28.1332860 147.7242880  72.8733910  29.4084610 148.1772880
  80.9515920  26.7786350 144.7201460  80.2581080  26.7763640 144.0603740
  81.6938780  26.3545670 144.2895630  80.5165850  28.4049060 148.7949950
  80.9722800  27.6238440 149.1088570  80.8558370  29.1155880 149.3391130
  73.0387170  13.3071280 150.9901260  72.5955320  14.0880820 150.6585780
  73.5972160  13.6301170 151.6972200  76.1545990  12.9281980 145.8707090
  75.5300170  12.9241850 146.5960400  76.0676110  12.0612940 145.4743060
  72.8301390  18.4304850 148.7182510  72.6042310  18.2142020 149.6229130
  72.0493920  18.8633310 148.3728480  80.0599150  18.4368220 147.3173160
  79.4608040  19.1604020 147.1336780  80.6078760  18.3745000 146.5349610
  78.6664020  17.0731760 149.3476440  79.0593590  17.3903960 148.5345130
  79.0280870  16.1943640 149.4620960  67.8898420  17.6052680 142.7809360
  67.8073090  18.5483440 142.9224350  67.5381480  17.4627590 141.9021710
  71.5398930  16.2218200 150.8073920  71.1998980  16.6993430 151.5640970
  70.7776250  15.7683320 150.4475020  75.7516700  17.3403790 144.8386470
  75.8729520  17.2990270 145.7872290  75.3665210  18.2027940 144.6833200
  74.7638200  19.6504930 144.2369770  74.1955100  19.2023180 143.6105680
  75.4727200  20.0097710 143.7034920  68.8545010  15.1437180 149.7238590
  68.5691930  14.7792850 150.5617210  68.7923870  14.4117640 149.1101730
  72.3085680  23.6463120 146.5096180  71.5347940  23.1060740 146.3494900
  73.0380310  23.1269730 146.1713940  78.5283600  14.0366440 146.4451960
  77.7148210  13.5379610 146.3697270  78.3345550  14.8764690 146.0288310
  81.2431990  18.4086090 144.7414120  82.1311610  18.7203320 144.5665460
  81.2137080  17.5358340 144.3494700  72.3523080  23.3143500 150.1474990
  72.8701750  22.5111760 150.0931880  71.9007100  23.2522640 150.9891820
  77.2392580  24.5809780 145.4202290  77.5808280  25.3252010 144.9245610
  76.4105290  24.8940900 145.7827120  83.5146260  19.7197930 144.2093980
  83.4309980  20.1512150 143.3590420  84.2340450  20.1796280 144.6420800
  84.5433510  26.5740190 146.9376110  83.9009670  25.9195810 147.2119830
  84.1564170  26.9795280 146.1616780  80.1219990  23.9025620 150.7847800
  80.4743810  23.3053750 150.1249170  79.2382320  23.5769850 150.9556050
  76.2083270  24.6623310 148.1918210  76.8954400  25.2092520 148.5725800
  75.4215690  25.2064040 148.2267820  68.3475670  20.2796130 143.6835290
  69.2170520  20.5620930 143.9671210  67.8565990  21.0932000 143.5684100
  75.5110480  21.6669340 147.8043570  75.9673260  22.4774590 148.0303760
  75.1598690  21.3492480 148.6362060  71.4122260  12.0106990 148.2766090
  71.2836890  12.0024890 149.2251010  70.5884280  12.3490080 147.9257100
  82.9330890  25.4656650 143.4752460  82.7068470  24.7487090 144.0677100
  82.5427090  25.2169090 142.6374210  68.7146920  29.4923510 144.2496920
  69.0744560  30.0912850 143.5954190  68.5739260  30.0383400 145.0231950
  82.5147140  23.3828590 145.1366620  82.2268840  23.8441280 145.9244500
  83.3099310  22.9226360 145.4050840  74.7315540  26.8754710 145.0670590
  74.7225640  27.6084400 144.4515100  73.8113900  26.6286290 145.1597550
  70.3322180  22.0969600 145.8117350  69.7250130  22.8368500 145.8212650
  70.8071530  22.1868960 144.9855550  83.2717000  15.2177360 146.2961800
  82.6430160  15.3223030 145.5820030  82.7768920  15.4374140 147.0855680
  77.7175140  26.9382950 143.7295780  77.8187120  26.7346940 142.7997760
  76.8176880  26.6841230 143.9343560  75.2401030  17.4963310 147.7119680
  74.5317180  17.9649650 148.1533290  75.5245510  16.8385320 148.3464870
  79.2716460  14.2213970 149.1515470  79.1484240  14.2400100 148.2024980
  80.2201020  14.2692910 149.2713870  76.3593250  29.4569270 148.4243450
  76.6134750  29.4190660 147.5022820  75.4105730  29.3302600 148.4171700
  73.4436050  15.8048390 145.0870390  74.2926580  16.2418540 145.0210580
  73.0767320  16.1168650 145.9142450  82.3645830  20.3761150 150.0001960
  81.4235970  20.3911380 150.1749650  82.6789900  19.5897110 150.4462260
  72.3427470  22.0580750 143.5605920  73.1090740  21.9462110 144.1231350
  72.4202160  21.3618720 142.9082690  71.0374230  19.4905820 144.2438810
  71.1177820  18.5433330 144.3556210  71.9293980  19.8212700 144.3499470
  71.8388940  29.6401210 151.3473350  72.5751420  29.0916670 151.6181920
  72.2229860  30.5057220 151.2079340  68.7234420  25.7074780 147.2214860
  67.7974200  25.9495920 147.2120270  69.1890850  26.5349040 147.0999610
  74.9491250  28.8131520 143.1698920  75.7419860  29.1020350 142.7180710
  74.4295600  28.3823690 142.4911400  84.0021420  28.0401650 144.5935660
  83.7162930  27.6266790 143.7789840  83.8040970  28.9689360 144.4736180
  75.4668650  24.0334930 143.0341270  75.3619290  23.4187280 143.7602650
  75.2992870  23.5100820 142.2504280  78.7071380  23.0954960 143.6383260
  78.1581480  23.5424260 144.2826000  79.3290640  22.5904210 144.1620930
  74.3746500  22.0545880 145.5348560  74.7962920  21.8885750 146.3779950
  74.4997340  21.2446110 145.0403700  76.8874140  21.0783490 142.7825660
  77.4079800  20.3632510 142.4166810  77.5342540  21.7169360 143.0826170
  73.2705400  18.1279110 142.4806720  73.0694460  17.2646470 142.8420060
  73.0997450  18.0412470 141.5428320  80.7493710  12.9387340 145.0093600
  81.0296000  12.0955240 145.3653020  79.9759440  13.1710450 145.5232350
  72.0688200  15.2279730 142.4684600  72.3714100  15.2347160 141.5603750
  72.8082790  14.8777590 142.9652260  75.2873130  14.1714350 143.4540800
  74.9395130  13.4938340 142.8743250  75.4885900  13.7103860 144.2684190
  77.4522170  29.1595100 145.0727400  78.3472960  29.4980070 145.0946160
  77.4839800  28.4374510 144.4451680  71.0918330  24.5322150 143.3014400
  71.5293200  25.0751820 143.9571980  71.5766060  23.7069100 143.3110740
  68.3064130  27.3211180 150.7534660  68.6367140  26.4532240 150.5213300
  68.7355130  27.5269700 151.5839620  72.9026050  25.6520190 148.4136630
  72.6021590  25.5285160 149.3140540  72.7963540  24.7928780 148.0052360
  85.6717970  25.4316590 143.1163310  84.8410930  25.4993240 143.5870540
  85.8489800  26.3220710 142.8130170  85.1274430  22.1764070 145.6197510
  85.8893340  22.7460720 145.7257200  85.1428800  21.6091270 146.3905820
  68.6278770  20.7002000 149.8505170  67.9727610  20.4313640 149.2064870
  69.4656720  20.5906480 149.4007150  86.1334400  23.0314170 150.4639440
  86.5043230  22.2481490 150.0575410  86.7736330  23.7203270 150.2856740
  85.1793600  22.4698440 142.7770030  85.4542440  23.3777320 142.6489250
  84.9904340  22.4060970 143.7132020  81.5769210  15.4943290 144.0723660
  81.9954090  15.3074270 143.2320320  81.2705270  14.6422340 144.3826590
  85.0758940  20.4067430 147.7699460  84.7002540  19.6395360 147.3380750
  84.3462060  20.7890130 148.2574390  67.8416850  17.9100930 145.7930500
  66.9380930  18.1731130 145.6182160  68.3257470  18.1812100 145.0130460
  70.3844060  16.9666470 143.7024880  71.0935760  16.5449690 143.2172160
  69.6684000  17.0341700 143.0708230  70.0318220  13.0205800 142.7427530
  70.7546350  13.5614740 143.0608750  70.3042740  12.7469220 141.8669070
  83.8409870  17.8898270 147.0099110  84.3368990  17.6569140 147.7947990
  83.6425940  17.0510110 146.5936750  85.2697030  16.5259220 149.5436790
  85.1596310  16.3715260 150.4819060  86.0304620  15.9980160 149.3012200
  86.1587300  14.3567140 142.7842930  87.0836610  14.2248320 142.5761220
  86.1363090  14.4359960 143.7379380  86.2325790  15.1277800 145.4099640
  85.4377290  15.0622920 145.9392550  86.4369070  16.0628440 145.3984990
  83.1744210  29.1669350 149.4038030  83.7703280  28.8453920 148.7272450
  83.4322360  28.6941170 150.1951300  84.5284290  13.0889920 149.8707290
  84.4672690  12.1451140 149.7238310  85.3076320  13.1970010 150.4160750
  68.8337040  29.2282280 148.8331240  68.6659080  28.5952960 149.5313130
  67.9671550  29.4341680 148.4825430  69.4565060  13.0599060 146.3363100
  70.2144420  13.1727940 145.7627130  68.9942230  13.8968260 146.2906530
  75.9978870  15.1738330 149.3265410  75.1853380  14.7995220 148.9861290
  76.5020510  14.4183410 149.6286600  80.5003850  11.8380780 150.5648480
  81.1033220  12.4100990 151.0397000  79.7596840  12.4020220 150.3422380
  83.6438450  12.2402340 145.8388760  83.8389080  13.1385790 146.1056190
  82.8568320  12.0089420 146.3321710  70.4399740  27.9215510 146.2781380
  69.9147360  28.3023540 145.5743340  70.3644320  28.5466280 146.9991090
  71.8290210  13.5863110 144.8765070  72.3582970  12.7992910 144.7473020
  72.4618530  14.2654300 145.1100600  74.0228050  13.3238250 147.9310460
  73.3930790  12.6225560 148.0980590  73.4833190  14.0842380 147.7143620
  85.1965060  29.4803050 147.5995320  85.3717250  28.7940790 146.9556240
  84.4986630  30.0050100 147.2071990  73.0392710  29.8697890 145.1530630
  73.7711530  29.5857170 144.6054520  73.2986380  29.6311170 146.0430010
  72.2007500  25.9862620 145.1576960  71.5716380  26.4547720 145.7062790
  72.3155330  25.1411840 145.5923150  79.6557220  20.0368280 131.3078160
  79.5751270  19.1222890 131.0369870  79.2421640  20.5335350 130.6017870
  77.7875260  21.8147300 133.1887430  77.0117360  21.3347740 133.4786000
  78.4388190  21.1352950 133.0143590  71.8041090  22.1267110 134.0663190
  70.9725970  21.8715820 134.4659700  72.4122070  22.1977880 134.8021110
  81.8082690  26.2207490 131.9686560  81.3464220  25.4494730 132.2973730
  82.6208240  26.2473560 132.4739010  71.7842350  26.1607200 134.2621210
  72.0870390  25.2704940 134.0831430  72.5285940  26.7177420 134.0343460
  70.2133040  17.0869000 127.8505580  69.3249740  17.4284970 127.7485460
  70.4974230  16.8869320 126.9586410  68.1766050  19.6874650 133.7345280
  68.7482160  18.9196850 133.7348920  68.1767590  19.9863410 132.8251890
  78.0346000  28.5065500 131.5890550  77.4157440  28.9623000 131.0184990
  78.8897780  28.6616960 131.1880250  77.2284250  24.4904490 133.1957590
  77.1592530  23.5494430 133.0346720  77.9904110  24.5805900 133.7680160
  69.4190920  15.0959010 135.5214210  69.2393760  14.1984760 135.8016970
  69.0171000  15.6430880 136.1961160  78.2589420  17.2974870 133.4226520
  78.6354240  16.4246750 133.3100190  78.1608930  17.6333570 132.5316960
  72.3894430  15.6700500 128.8843960  72.4961180  16.5704230 129.1912720
  71.4786790  15.6218470 128.5938610  82.0413540  14.7925310 130.3554860
  82.8623160  14.3021880 130.3980340  82.0747620  15.3822970 131.1086700
  70.0377590  17.5919510 134.1296550  70.7187700  17.8557880 134.7483950
  69.7225640  16.7520380 134.4634560  74.2302160  18.6386870 133.2169140
  74.7380380  19.1367840 133.8574160  74.7615400  17.8622070 133.0408500
  86.3313090  16.8092060 136.9198490  85.6265260  17.1973770 136.4013600
  86.5971010  17.5042350 137.5219420  72.5138260  13.2785430 137.4832560
  72.5156700  13.7957820 136.6778460  71.6842570  12.8015610 137.4602490
  78.9009350  23.3904740 128.9822460  78.2826620  23.8554190 128.4185180
  79.4132600  24.0832220 129.3991970  73.7641110  22.9180610 135.6606060
  73.4310490  23.5449530 136.3027130  73.9407790  23.4442490 134.8807730
  82.2775020  16.7325690 133.1282400  81.5730590  17.0210580 133.7085510
  82.6387180  17.5425800 132.7681960  72.1953590  14.9895390 135.4903010
  72.5370400  15.8337440 135.1956880  71.2569400  15.1379130 135.6068350
  72.9760210  24.8861410 137.4755240  73.5934210  25.5612490 137.1939690
  72.1153330  25.2949390 137.3842740  68.2692550  24.0761270 126.3562090
  67.8920530  24.5648370 125.6246990  68.5265620  24.7486550 126.9868620
  83.8937800  26.3500820 135.3909880  83.2101320  27.0199930 135.3826550
  84.4332090  26.5481470 134.6254740  85.3461940  16.1780480 133.5191610
  84.3986850  16.2119460 133.6507040  85.6711930  16.9919430 133.9040970
  75.8781480  12.4777660 131.8147600  76.1856460  11.9224550 131.0983100
  74.9482180  12.6122120 131.6320590  81.4296540  28.1944950 134.1055060
  81.4423700  27.7907240 133.2377320  80.8771760  28.9692240 134.0016490
  82.7241960  24.9161170 129.1945230  82.6138290  23.9735500 129.3194650
  82.7210210  25.2776810 130.0807990  80.8281980  23.0974790 135.4337670
  81.2450770  22.8834900 134.5991130  81.5521800  23.3547580 136.0046290
  78.2662240  20.5426490 128.5507720  77.3391520  20.4763870 128.7796190
  78.4187060  21.4806620 128.4362960  78.2531320  16.8143490 125.5474880
  77.3134990  16.9757450 125.6327340  78.5714580  17.5329170 125.0010870
  84.7744080  21.4962010 135.5253910  83.9462710  21.5655100 135.0504040
  85.3694560  22.0816320 135.0569740  82.2959530  22.1046790 129.0542970
  81.6771950  21.7666340 128.4069270  82.2783980  21.4606550 129.7622160
  81.7386090  18.2831330 136.4708780  81.3257270  19.1085040 136.7248770
  81.0062040  17.6976370 136.2785140  73.8718880  21.0691230 131.3327450
  73.4675880  20.3568480 130.8373350  73.9582000  20.7244470 132.2215490
  74.3400580  24.7558790 133.4966660  74.0428870  24.1504260 132.8174440
  75.2900400  24.7936100 133.3856020  72.5847500  17.8434440 135.1126490
  73.1362090  17.9529780 134.3379740  73.0991010  18.2172040 135.8281720
  82.4286190  28.3290660 137.1589760  81.9516750  29.1362850 136.9662370
  81.7447980  27.6768990 137.3115970  73.4319010  24.4940480 140.1474460
  72.5347540  24.7180450 140.3947860  73.4571880  24.6175420 139.1985860
  80.4724230  21.3433600 126.0615720  80.9117510  20.5056030 125.9153540
  81.1852650  21.9763000 126.1479860  72.2590230  21.3653800 138.7231830
  72.1198000  22.2376600 139.0919230  71.3771590  21.0226610 138.5779770
  78.5819610  26.2829670 130.0296960  79.0215520  27.0254000 129.6152350
  78.5206500  26.5256240 130.9535920  74.0570580  27.3075500 140.9316980
  74.0286010  27.7118450 140.0645410  73.8935550  26.3785860 140.7688580
  84.0541370  12.5976410 124.3756760  83.7414030  12.6903240 125.2755830
  84.8153840  13.1757440 124.3254190  70.5723510  19.9636210 128.8334100
  70.4521110  20.6898300 128.2215370  70.2624400  19.1939120 128.3562010
  86.0085400  28.0902600 142.2281150  86.4845120  28.5685490 142.9070230
  86.6292560  28.0220090 141.5026650  68.2108880  23.1351350 134.6402740
  68.2889300  23.2700120 133.6958460  68.8250560  22.4267240 134.8330860
  69.4556510  24.8351540 131.0508920  69.0484590  24.9766130 130.1962520
  70.3469520  24.5511700 130.8480130  85.4118650  25.2815450 139.3881160
  85.5381710  25.0427330 138.4698340  85.4540030  24.4499990 139.8603240
  79.2735390  28.9843450 137.9575970  79.7880060  28.8951460 138.7598400
  78.4304470  29.3303150 138.2503880  81.2489790  29.2698790 127.3859970
  81.0890930  28.9801730 128.2841800  81.0836500  28.4938920 126.8505200
  73.7278170  29.0497320 129.1631590  73.5520650  28.1332860 128.9499390
  72.8733910  29.4084610 129.4029390  80.9515920  26.7786350 125.9457970
  80.2581080  26.7763640 125.2860250  81.6938780  26.3545670 125.5152140
  80.5165850  28.4049060 130.0206460  80.9722800  27.6238440 130.3345080
  80.8558370  29.1155880 130.5647640  85.2642660  17.3347910 140.3530900
  84.6486930  17.8427580 139.8246360  84.9439080  16.4346240 140.2956840
  68.2668400  24.1765520 137.1797200  68.4299440  23.7070880 136.3616570
  68.7320850  23.6689080 137.8446040  73.0387170  13.3071280 132.2157770
  72.5955320  14.0880820 131.8842290  73.5972160  13.6301170 132.9228710
  77.3256980  16.1739800 137.8193090  76.8636350  16.3822820 138.6313030
  76.9235090  15.3599150 137.5163760  82.3261490  17.3948750 138.9489750
  81.4755080  17.0954500 139.2698820  82.1663280  17.6390760 138.0373570
  79.4211200  18.8950500 141.0488540  79.7464610  18.0614250 140.7090770
  80.2091530  19.4179020 141.1966870  76.1545990  12.9281980 127.0963600
  75.5300170  12.9241850 127.8216910  76.0676110  12.0612940 126.6999570
  75.0763070  13.8518610 134.0747370  75.3735400  14.7581440 133.9939390
  75.6248630  13.3637390 133.4606940  72.8301390  18.4304850 129.9439020
  72.6042310  18.2142020 130.8485640  72.0493920  18.8633310 129.5984990
  80.0599150  18.4368220 128.5429670  79.4608040  19.1604020 128.3593290
  80.6078760  18.3745000 127.7606120  75.2700600  19.3290430 140.6099290
  75.1744200  18.3885160 140.4599690  76.1132580  19.5505500 140.2147360
  78.6664020  17.0731760 130.5732950  79.0593590  17.3903960 129.7601640
  79.0280870  16.1943640 130.6877470  70.4011140  15.7404100 138.7633070
  70.0074530  16.5879310 138.9705850  69.7129540  15.1030470 138.9541710
  76.9756190  15.8239070 141.8329810  76.2854510  15.6311270 142.4675900
  77.7188490  16.1073710 142.3654110  67.7028190  13.6632560 132.7963150
  67.4141240  14.2335420 133.5088130  68.4473950  13.1837010 133.1594380
  67.8898420  17.6052680 124.0065870  67.8073090  18.5483440 124.1480860
  67.5381480  17.4627590 123.1278220  79.2519160  19.6637510 134.6683730
  78.5200280  20.1724320 135.0173830  78.8543500  18.8467490 134.3672510
  75.6896550  16.3391710 133.0736220  75.6932610  15.8981660 132.2240760
  76.5847670  16.6609040 133.1808040  71.5398930  16.2218200 132.0330430
  71.1998980  16.6993430 132.7897480  70.7776250  15.7683320 131.6731530
  75.7516700  17.3403790 126.0642980  75.8729520  17.2990270 127.0128800
  75.3665210  18.2027940 125.9089710  79.7145070  15.1171190 134.0806670
  79.7317810  15.5679840 134.9248520  79.4660650  14.2176830 134.2940110
  74.7638200  19.6504930 125.4626280  74.1955100  19.2023180 124.8362190
  75.4727200  20.0097710 124.9291430  83.1415820  12.5303370 139.9193050
  83.4661590  11.7993030 140.4451030  83.1772330  12.2117010 139.0174040
  69.8407380  23.5516950 139.3393010  69.4562170  22.9110620 139.9375970
  70.1519570  24.2553070 139.9087740  75.9904520  20.3993490 134.8201630
  76.3574650  19.9252060 135.5662970  75.8009580  21.2735060 135.1609970
  68.8545010  15.1437180 130.9495100  68.5691930  14.7792850 131.7873720
  68.7923870  14.4117640 130.3358240  73.7803890  19.4402130 137.1385840
  73.4760960  20.3194110 137.3636200  74.7350350  19.5001920 137.1743280
  72.3085680  23.6463120 127.7352690  71.5347940  23.1060740 127.5751410
  73.0380310  23.1269730 127.3970450  83.0673660  22.6428480 133.5279080
  83.7872780  23.1383770 133.1375190  82.8655480  21.9646370 132.8832950
  78.5283600  14.0366440 127.6708470  77.7148210  13.5379610 127.5953780
  78.3345550  14.8764690 127.2544820  78.4492460  22.7137540 139.4148080
  78.3829770  21.7933210 139.1605670  77.8197600  22.8112980 140.1292720
  81.2431990  18.4086090 125.9670630  82.1311610  18.7203320 125.7921970
  81.2137080  17.5358340 125.5751210  72.3523080  23.3143500 131.3731500
  72.8701750  22.5111760 131.3188390  71.9007100  23.2522640 132.2148330
  77.2392580  24.5809780 126.6458800  77.5808280  25.3252010 126.1502120
  76.4105290  24.8940900 127.0083630  69.8367620  20.2804870 138.2857200
  69.4782560  20.9458720 138.8730540  69.5422180  19.4488420 138.6569820
  73.0380740  20.7389110 141.1696750  72.7380880  20.8846290 140.2724570
  73.8091980  20.1794400 141.0770140  78.3809190  25.5358110 139.1651880
  78.3953730  24.6039070 138.9470790  77.6734290  25.6217870 139.8041650
  83.5146260  19.7197930 125.4350490  83.4309980  20.1512150 124.5846930
  84.2340450  20.1796280 125.8677310  84.5920400  22.1765450 138.5120460
  83.8668590  22.7694230 138.3149850  85.1195860  22.1688990 137.7133830
  84.5433510  26.5740190 128.1632620  83.9009670  25.9195810 128.4376340
  84.1564170  26.9795280 127.3873290  80.1219990  23.9025620 132.0104310
  80.4743810  23.3053750 131.3505680  79.2382320  23.5769850 132.1812560
  76.2083270  24.6623310 129.4174720  76.8954400  25.2092520 129.7982310
  75.4215690  25.2064040 129.4524330  68.3475670  20.2796130 124.9091800
  69.2170520  20.5620930 125.1927720  67.8565990  21.0932000 124.7940610
  75.5110480  21.6669340 129.0300080  75.9673260  22.4774590 129.2560270
  75.1598690  21.3492480 129.8618570  77.8143090  27.1775680 136.2592380
  78.4585310  27.3835060 136.9365800  78.1772530  26.4164080 135.8063230
  71.4122260  12.0106990 129.5022600  71.2836890  12.0024890 130.4507520
  70.5884280  12.3490080 129.1513610  79.0875170  25.1808030 134.9769830
  79.7297400  24.4801190 135.0902000  79.6124520  25.9606470 134.7966720
  82.9330890  25.4656650 124.7008970  82.7068470  24.7487090 125.2933610
  82.5427090  25.2169090 123.8630720  80.8612790  25.9802930 138.1805890
  81.1969030  26.5669620 138.8583810  79.9413130  25.8495640 138.4103680
  68.7146920  29.4923510 125.4753430  69.0744560  30.0912850 124.8210700
  68.5739260  30.0383400 126.2488460  68.4116190  13.7698110 138.9629300
  67.6974710  13.9695030 139.5681910  68.8311230  12.9937680 139.3344100
  82.5147140  23.3828590 126.3623130  82.2268840  23.8441280 127.1501010
  83.3099310  22.9226360 126.6307350  68.6988780  27.7578370 139.9495830
  68.8079900  26.8173110 139.8091220  68.0469340  28.0233120 139.3009560
  76.6901370  26.0294260 141.3493950  76.3698240  25.3103500 141.8939640
  76.0159730  26.7049330 141.4230010  74.7315540  26.8754710 126.2927100
  74.7225640  27.6084400 125.6771610  73.8113900  26.6286290 126.3854060
  70.3322180  22.0969600 127.0373860  69.7250130  22.8368500 127.0469160
  70.8071530  22.1868960 126.2112060  79.9054970  16.2620420 136.7130750
  80.2735790  15.4415630 137.0410320  79.0453170  16.3222310 137.1286400
  83.2717000  15.2177360 127.5218310  82.6430160  15.3223030 126.8076540
  82.7768920  15.4374140 128.3112190  77.7175140  26.9382950 124.9552290
  77.8187120  26.7346940 124.0254270  76.8176880  26.6841230 125.1600070
  75.2401030  17.4963310 128.9376190  74.5317180  17.9649650 129.3789800
  75.5245510  16.8385320 129.5721380  76.8656960  18.9160010 136.9368720
  77.3642210  19.3905830 137.6020570  77.0079910  17.9923530 137.1438750
  79.2716460  14.2213970 130.3771980  79.1484240  14.2400100 129.4281490
  80.2201020  14.2692910 130.4970380  76.3593250  29.4569270 129.6499960
  76.6134750  29.4190660 128.7279330  75.4105730  29.3302600 129.6428210
  73.4436050  15.8048390 126.3126900  74.2926580  16.2418540 126.2467090
  73.0767320  16.1168650 127.1398960  84.0723820  15.1327970 137.7797110
  83.5697420  15.8733370 138.1190920  84.8880480  15.5211970 137.4633900
  82.3645830  20.3761150 131.2258470  81.4235970  20.3911380 131.4006160
  82.6789900  19.5897110 131.6718770  72.3427470  22.0580750 124.7862430
  73.1090740  21.9462110 125.3487860  72.4202160  21.3618720 124.1339200
  71.0374230  19.4905820 125.4695320  71.1177820  18.5433330 125.5812720
  71.9293980  19.8212700 125.5755980  84.3671410  27.5470000 132.9012730
  84.4918830  28.3701170 133.3736540  85.2336970  27.3360730 132.5536880
  71.8388940  29.6401210 132.5729860  72.5751420  29.0916670 132.8438430
  72.2229860  30.5057220 132.4335850  68.7234420  25.7074780 128.4471370
  67.7974200  25.9495920 128.4376780  69.1890850  26.5349040 128.3256120
  70.8447220  28.8247280 141.7615440  71.6459950  29.1459330 142.1750840
  70.3299040  28.4642860 142.4835350  74.9491250  28.8131520 124.3955430
  75.7419860  29.1020350 123.9437220  74.4295600  28.3823690 123.7167910
  79.6811850  24.9327150 141.7090850  79.0750010  24.9558750 140.9686600
  79.3765960  24.2010190 142.2458100  81.1112220  28.6607440 140.3200260
  82.0633970  28.5765460 140.2700500  80.9640440  29.3249150 140.9934050
  84.0021420  28.0401650 125.8192170  83.7162930  27.6266790 125.0046350
  83.8040970  28.9689360 125.6992690  68.5645030  21.3120740 140.7051490
  69.0684050  20.7328020 141.2767720  67.8252450  21.5960970 141.2427860
  75.4668650  24.0334930 124.2597780  75.3619290  23.4187280 124.9859160
  75.2992870  23.5100820 123.4760790  75.6182970  22.7191730 140.2387010
  74.8528640  23.2876730 140.1541680  75.7998930  22.4267940 139.3455240
  78.7071380  23.0954960 124.8639770  78.1581480  23.5424260 125.5082510
  79.3290640  22.5904210 125.3877440  82.7606320  24.4497060 140.7962030
  83.5015790  24.7872820 140.2929490  81.9979000  24.6189120 140.2431800
  70.5968110  19.4550330 141.6001560  70.6373450  19.1564200 142.5086790
  71.4513610  19.8557940 141.4409080  74.3746500  22.0545880 126.7605070
  74.7962920  21.8885750 127.6036460  74.4997340  21.2446110 126.2660210
  72.5373920  18.0342430 139.5676050  72.0070380  17.5433380 138.9399390
  73.2061990  18.4626630 139.0333980  76.8874140  21.0783490 124.0082170
  77.4079800  20.3632510 123.6423320  77.5342540  21.7169360 124.3082680
  81.4351980  22.5011890 139.3317240  81.8493000  22.6556970 140.1807660
  80.5002980  22.6267110 139.4943020  81.9074150  19.8408050 141.3356390
  82.4894920  19.0860370 141.2476870  82.0835920  20.3715490 140.5587870
  73.0246220  15.0004800 139.6473340  72.9303090  14.3825550 138.9224210
  72.4443610  15.7271090 139.4203250  75.7907660  13.5578040 136.6800730
  75.3424960  13.5802300 135.8346280  75.1572860  13.1597060 137.2771030
  76.1967210  22.4532370 137.3013170  76.6155320  23.2965100 137.1289410
  75.2775840  22.5904410 137.0719950  78.5331110  20.1848550 138.6851010
  78.6527320  19.5889690 139.4245850  79.3925110  20.2218240 138.2652310
  80.8719010  20.7385740 137.2613520  80.3454230  21.2628360 136.6578660
  81.2150350  21.3713130 137.8923250  73.2705400  18.1279110 123.7063230
  73.0694460  17.2646470 124.0676570  73.0997450  18.0412470 122.7684830
  74.0474630  28.7585380 138.4170900  73.5095720  29.4831440 138.0979600
  74.3008590  28.2815720 137.6268240  75.2999880  16.7269900 139.9426830
  75.8899570  16.4185750 140.6304650  74.4820120  16.2549650 140.0986730
  80.1193310  16.3435710 140.1759850  79.4308830  15.6817250 140.1109840
  80.8399330  15.8973980 140.6208310  80.7493710  12.9387340 126.2350110
  81.0296000  12.0955240 126.5909530  79.9759440  13.1710450 126.7488860
  72.0688200  15.2279730 123.6941110  72.3714100  15.2347160 122.7860260
  72.8082790  14.8777590 124.1908770  76.9036840  29.9936590 138.6757550
  76.8295540  30.8971730 138.9829920  76.0015680  29.6748490 138.6479620
  75.2873130  14.1714350 124.6797310  74.9395130  13.4938340 124.0999760
  75.4885900  13.7103860 125.4940700  77.4522170  29.1595100 126.2983910
  78.3472960  29.4980070 126.3202670  77.4839800  28.4374510 125.6708190
  71.0918330  24.5322150 124.5270910  71.5293200  25.0751820 125.1828490
  71.5766060  23.7069100 124.5367250  68.3064130  27.3211180 131.9791170
  68.6367140  26.4532240 131.7469810  68.7355130  27.5269700 132.8096130
  72.9026050  25.6520190 129.6393140  72.6021590  25.5285160 130.5397050
  72.7963540  24.7928780 129.2308870  68.7954340  28.1881770 134.7172800
  68.3585330  28.3682570 135.5496950  69.3632020  28.9456390 134.5754520
  84.4316520  27.6898770 139.0050110  83.8318510  27.7491330 138.2614030
  84.5610420  26.7503750 139.1346960  85.6717970  25.4316590 124.3419820
  84.8410930  25.4993240 124.8127050  85.8489800  26.3220710 124.0386680
  85.1274430  22.1764070 126.8454020  85.8893340  22.7460720 126.9513710
  85.1428800  21.6091270 127.6162330  68.6278770  20.7002000 131.0761680
  67.9727610  20.4313640 130.4321380  69.4656720  20.5906480 130.6263660
  86.1334400  23.0314170 131.6895950  86.5043230  22.2481490 131.2831920
  86.7736330  23.7203270 131.5113250  83.1168160  24.4150750 137.1026270
  82.3028000  24.8447910 137.3652060  83.5242360  25.0269160 136.4895320
  85.1793600  22.4698440 124.0026540  85.4542440  23.3777320 123.8745760
  84.9904340  22.4060970 124.9388530  81.5769210  15.4943290 125.2980170
  81.9954090  15.3074270 124.4576830  81.2705270  14.6422340 125.6083100
  85.0758940  20.4067430 128.9955970  84.7002540  19.6395360 128.5637260
  84.3462060  20.7890130 129.4830900  69.6654700  21.0854570 135.6165020
  70.0327740  20.9981970 136.4961040  69.0965520  20.3221120 135.5171880
  84.4658560  19.5538950 138.6295490  84.2344650  19.3251700 137.7293440
  84.7263110  20.4738500 138.5840380  69.2170700  17.9963660 139.5223440
  68.3226750  17.9630420 139.8617150  69.7568250  18.1950450 140.2874690
  82.9046630  14.7795380 141.4075190  83.7816810  14.7878780 141.7909190
  82.9167470  14.0426220 140.7967540  67.8416850  17.9100930 127.0187010
  66.9380930  18.1731130 126.8438670  68.3257470  18.1812100 126.2386970
  84.3509900  18.6324920 132.2963210  84.8747380  18.1387570 131.6653380
  84.9369320  18.7675280 133.0410780  84.5299620  18.7164790 135.8182760
  83.5802330  18.6828330 135.9327750  84.7112630  19.6264900 135.5832530
  70.3844060  16.9666470 124.9281390  71.0935760  16.5449690 124.4428670
  69.6684000  17.0341700 124.2964740  70.0318220  13.0205800 123.9684040
  70.7546350  13.5614740 124.2865260  70.3042740  12.7469220 123.0925580
  83.8409870  17.8898270 128.2355620  84.3368990  17.6569140 129.0204500
  83.6425940  17.0510110 127.8193260  69.7210410  12.2711990 133.8706660
  70.3686600  11.7209370 133.4301820  70.1412250  12.5255140 134.6922470
  85.2697030  16.5259220 130.7693300  85.1596310  16.3715260 131.7075570
  86.0304620  15.9980160 130.5268710  83.6162750  12.4653350 137.2276300
  84.2534970  13.0787490 137.5935490  83.7637640  12.5014010 136.2825530
  86.1587300  14.3567140 124.0099440  87.0836610  14.2248320 123.8017730
  86.1363090  14.4359960 124.9635890  86.2325790  15.1277800 126.6356150
  85.4377290  15.0622920 127.1649060  86.4369070  16.0628440 126.6241500
  83.1744210  29.1669350 130.6294540  83.7703280  28.8453920 129.9528960
  83.4322360  28.6941170 131.4207810  69.4742410  12.4267660 136.6131980
  69.1257230  12.8831480 137.3790160  69.1430110  11.5324790 136.6954410
  71.0806780  25.5987260 140.7785170  71.0376410  25.2280170 141.6599630
  71.2117790  26.5364830 140.9186990  74.7812810  27.1546850 136.3794890
  74.5404170  27.4221410 135.4925410  75.7215450  27.3252580 136.4345750
  76.9867230  13.6179540 140.1351400  76.9256120  14.2101370 140.8846810
  77.9267610  13.5105500 139.9901660  79.6241790  13.2749600 139.7743690
  80.2382200  13.5928890 139.1124770  80.1691350  12.7898190 140.3939550
  86.0416970  29.1741230 137.1805530  85.5475250  29.5710100 136.4632660
  85.4330260  28.5490440 137.5742810  70.1463050  11.9543860 139.8882750
  70.6946040  11.7731910 139.1248860  70.2118360  11.1637970 140.4239060
  70.9194810  28.5449510 137.8982950  70.3255130  28.4134210 138.6372990
  70.9118650  27.7087650 137.4325050  80.3649830  11.8381740 136.1012980
  79.4909670  12.1716850 135.8985910  80.2560580  11.3654920 136.9264850
  81.2721810  14.0452610 137.4854700  80.9435170  13.2304370 137.1056430
  82.2204110  14.0022420 137.3620390  83.7256420  29.8164650 134.4592270
  83.2659390  30.5680460 134.0850290  83.0968880  29.0971120 134.4007070
  70.5507040  25.9107890 136.8490990  69.8241100  25.2913180 136.7816940
  70.6116190  26.3048500 135.9789070  74.1552140  28.1252890 133.6340400
  74.6717160  27.5140250 133.1088660  74.8049520  28.6281670 134.1251410
  76.8947640  29.0161380 134.4609380  77.1825450  28.7615680 133.5842390
  77.4070860  28.4638740 135.0514950  78.1124650  12.7551580 135.0405890
  77.3296440  13.2297080 135.3202650  77.8187580  11.8506410 134.9319070
  82.6645720  13.4574680 133.0854980  83.1053810  13.4019780 132.2376580
  82.3953310  14.3732690 133.1565160  84.5284290  13.0889920 131.0963800
  84.4672690  12.1451140 130.9494820  85.3076320  13.1970010 131.6417260
  68.8337040  29.2282280 130.0587750  68.6659080  28.5952960 130.7569640
  67.9671550  29.4341680 129.7081940  69.4565060  13.0599060 127.5619610
  70.2144420  13.1727940 126.9883640  68.9942230  13.8968260 127.5163040
  75.9978870  15.1738330 130.5521920  75.1853380  14.7995220 130.2117800
  76.5020510  14.4183410 130.8543110  80.5003850  11.8380780 131.7904990
  81.1033220  12.4100990 132.2653510  79.7596840  12.4020220 131.5678890
  83.6438450  12.2402340 127.0645270  83.8389080  13.1385790 127.3312700
  82.8568320  12.0089420 127.5578220  70.4399740  27.9215510 127.5037890
  69.9147360  28.3023540 126.7999850  70.3644320  28.5466280 128.2247600
  71.8290210  13.5863110 126.1021580  72.3582970  12.7992910 125.9729530
  72.4618530  14.2654300 126.3357110  74.0228050  13.3238250 129.1566970
  73.3930790  12.6225560 129.3237100  73.4833190  14.0842380 128.9400130
  76.9620000  29.9377480 141.8277580  77.8887310  29.7021750 141.8713540
  76.9470430  30.7649480 141.3463610  85.1965060  29.4803050 128.8251830
  85.3717250  28.7940790 128.1812750  84.4986630  30.0050100 128.4328500
  74.1483610  12.6022230 141.5919460  73.8667880  13.1055830 140.8280280
  74.5303310  11.8043980 141.2261590  73.0392710  29.8697890 126.3787140
  73.7711530  29.5857170 125.8311030  73.2986380  29.6311170 127.2686520
  72.2007500  25.9862620 126.3833470  71.5716380  26.4547720 126.9319300
  72.3155330  25.1411840 126.8179660  80.7499070  12.0175810 142.1699930
  80.6364520  12.3370420 143.0651450  81.5668810  12.4188320 141.8737210
  83.5297560  29.1647340 141.6518620  84.3222880  28.6696570 141.4444580
  83.8230710  29.8437480 142.2594230  79.6557220  20.0368280 112.5334670
  79.5751270  19.1222890 112.2626380  79.2421640  20.5335350 111.8274380
  71.8041090  22.1267110 115.2919700  70.9725970  21.8715820 115.6916210
  72.4122070  22.1977880 116.0277620  81.8082690  26.2207490 113.1943070
  81.3464220  25.4494730 113.5230240  82.6208240  26.2473560 113.6995520
  70.2133040  17.0869000 109.0762090  69.3249740  17.4284970 108.9741970
  70.4974230  16.8869320 108.1842920  68.1766050  19.6874650 114.9601790
  68.7482160  18.9196850 114.9605430  68.1767590  19.9863410 114.0508400
  69.4190920  15.0959010 116.7470720  69.2393760  14.1984760 117.0273480
  69.0171000  15.6430880 117.4217670  78.2589420  17.2974870 114.6483030
  78.6354240  16.4246750 114.5356700  78.1608930  17.6333570 113.7573470
  72.3894430  15.6700500 110.1100470  72.4961180  16.5704230 110.4169230
  71.4786790  15.6218470 109.8195120  82.0413540  14.7925310 111.5811370
  82.8623160  14.3021880 111.6236850  82.0747620  15.3822970 112.3343210
  70.0377590  17.5919510 115.3553060  70.7187700  17.8557880 115.9740460
  69.7225640  16.7520380 115.6891070  74.2302160  18.6386870 114.4425650
  74.7380380  19.1367840 115.0830670  74.7615400  17.8622070 114.2665010
  86.3313090  16.8092060 118.1455000  85.6265260  17.1973770 117.6270110
  86.5971010  17.5042350 118.7475930  72.5138260  13.2785430 118.7089070
  72.5156700  13.7957820 117.9034970  71.6842570  12.8015610 118.6859000
  82.2775020  16.7325690 114.3538910  81.5730590  17.0210580 114.9342020
  82.6387180  17.5425800 113.9938470  72.1953590  14.9895390 116.7159520
  72.5370400  15.8337440 116.4213390  71.2569400  15.1379130 116.8324860
  72.9760210  24.8861410 118.7011750  73.5934210  25.5612490 118.4196200
  72.1153330  25.2949390 118.6099250  83.8937800  26.3500820 116.6166390
  83.2101320  27.0199930 116.6083060  84.4332090  26.5481470 115.8511250
  85.3461940  16.1780480 114.7448120  84.3986850  16.2119460 114.8763550
  85.6711930  16.9919430 115.1297480  75.8781480  12.4777660 113.0404110
  76.1856460  11.9224550 112.3239610  74.9482180  12.6122120 112.8577100
  81.4296540  28.1944950 115.3311570  81.4423700  27.7907240 114.4633830
  80.8771760  28.9692240 115.2273000  82.7241960  24.9161170 110.4201740
  82.6138290  23.9735500 110.5451160  82.7210210  25.2776810 111.3064500
  80.8281980  23.0974790 116.6594180  81.2450770  22.8834900 115.8247640
  81.5521800  23.3547580 117.2302800  84.7744080  21.4962010 116.7510420
  83.9462710  21.5655100 116.2760550  85.3694560  22.0816320 116.2826250
  82.2959530  22.1046790 110.2799480  81.6771950  21.7666340 109.6325780
  82.2783980  21.4606550 110.9878670  81.7386090  18.2831330 117.6965290
  81.3257270  19.1085040 117.9505280  81.0062040  17.6976370 117.5041650
  72.5847500  17.8434440 116.3383000  73.1362090  17.9529780 115.5636250
  73.0991010  18.2172040 117.0538230  82.4286190  28.3290660 118.3846270
  81.9516750  29.1362850 118.1918880  81.7447980  27.6768990 118.5372480
  73.4319010  24.4940480 121.3730970  72.5347540  24.7180450 121.6204370
  73.4571880  24.6175420 120.4242370  72.2590230  21.3653800 119.9488340
  72.1198000  22.2376600 120.3175740  71.3771590  21.0226610 119.8036280
  74.0570580  27.3075500 122.1573490  74.0286010  27.7118450 121.2901920
  73.8935550  26.3785860 121.9945090  84.0541370  12.5976410 105.6013270
  83.7414030  12.6903240 106.5012340  84.8153840  13.1757440 105.5510700
  86.0085400  28.0902600 123.4537660  86.4845120  28.5685490 124.1326740
  86.6292560  28.0220090 122.7283160  68.2108880  23.1351350 115.8659250
  68.2889300  23.2700120 114.9214970  68.8250560  22.4267240 116.0587370
  85.4118650  25.2815450 120.6137670  85.5381710  25.0427330 119.6954850
  85.4540030  24.4499990 121.0859750  81.2489790  29.2698790 108.6116480
  81.0890930  28.9801730 109.5098310  81.0836500  28.4938920 108.0761710
  80.9515920  26.7786350 107.1714480  80.2581080  26.7763640 106.5116760
  81.6938780  26.3545670 106.7408650  80.5165850  28.4049060 111.2462970
  80.9722800  27.6238440 111.5601590  80.8558370  29.1155880 111.7904150
  85.2642660  17.3347910 121.5787410  84.6486930  17.8427580 121.0502870
  84.9439080  16.4346240 121.5213350  68.2668400  24.1765520 118.4053710
  68.4299440  23.7070880 117.5873080  68.7320850  23.6689080 119.0702550
  73.0387170  13.3071280 113.4414280  72.5955320  14.0880820 113.1098800
  73.5972160  13.6301170 114.1485220  77.3256980  16.1739800 119.0449600
  76.8636350  16.3822820 119.8569540  76.9235090  15.3599150 118.7420270
  82.3261490  17.3948750 120.1746260  81.4755080  17.0954500 120.4955330
  82.1663280  17.6390760 119.2630080  79.4211200  18.8950500 122.2745050
  79.7464610  18.0614250 121.9347280  80.2091530  19.4179020 122.4223380
  76.1545990  12.9281980 108.3220110  75.5300170  12.9241850 109.0473420
  76.0676110  12.0612940 107.9256080  75.0763070  13.8518610 115.3003880
  75.3735400  14.7581440 115.2195900  75.6248630  13.3637390 114.6863450
  75.2700600  19.3290430 121.8355800  75.1744200  18.3885160 121.6856200
  76.1132580  19.5505500 121.4403870  78.6664020  17.0731760 111.7989460
  79.0593590  17.3903960 110.9858150  79.0280870  16.1943640 111.9133980
  70.4011140  15.7404100 119.9889580  70.0074530  16.5879310 120.1962360
  69.7129540  15.1030470 120.1798220  76.9756190  15.8239070 123.0586320
  76.2854510  15.6311270 123.6932410  77.7188490  16.1073710 123.5910620
  67.7028190  13.6632560 114.0219660  67.4141240  14.2335420 114.7344640
  68.4473950  13.1837010 114.3850890  67.8898420  17.6052680 105.2322380
  67.8073090  18.5483440 105.3737370  67.5381480  17.4627590 104.3534730
  79.2519160  19.6637510 115.8940240  78.5200280  20.1724320 116.2430340
  78.8543500  18.8467490 115.5929020  75.6896550  16.3391710 114.2992730
  75.6932610  15.8981660 113.4497270  76.5847670  16.6609040 114.4064550
  71.5398930  16.2218200 113.2586940  71.1998980  16.6993430 114.0153990
  70.7776250  15.7683320 112.8988040  75.7516700  17.3403790 107.2899490
  75.8729520  17.2990270 108.2385310  75.3665210  18.2027940 107.1346220
  79.7145070  15.1171190 115.3063180  79.7317810  15.5679840 116.1505030
  79.4660650  14.2176830 115.5196620  83.1415820  12.5303370 121.1449560
  83.4661590  11.7993030 121.6707540  83.1772330  12.2117010 120.2430550
  69.8407380  23.5516950 120.5649520  69.4562170  22.9110620 121.1632480
  70.1519570  24.2553070 121.1344250  75.9904520  20.3993490 116.0458140
  76.3574650  19.9252060 116.7919480  75.8009580  21.2735060 116.3866480
  68.8545010  15.1437180 112.1751610  68.5691930  14.7792850 113.0130230
  68.7923870  14.4117640 111.5614750  73.7803890  19.4402130 118.3642350
  73.4760960  20.3194110 118.5892710  74.7350350  19.5001920 118.3999790
  83.0673660  22.6428480 114.7535590  83.7872780  23.1383770 114.3631700
  82.8655480  21.9646370 114.1089460  78.5283600  14.0366440 108.8964980
  77.7148210  13.5379610 108.8210290  78.3345550  14.8764690 108.4801330
  78.4492460  22.7137540 120.6404590  78.3829770  21.7933210 120.3862180
  77.8197600  22.8112980 121.3549230  69.8367620  20.2804870 119.5113710
  69.4782560  20.9458720 120.0987050  69.5422180  19.4488420 119.8826330
  73.0380740  20.7389110 122.3953260  72.7380880  20.8846290 121.4981080
  73.8091980  20.1794400 122.3026650  78.3809190  25.5358110 120.3908390
  78.3953730  24.6039070 120.1727300  77.6734290  25.6217870 121.0298160
  84.5920400  22.1765450 119.7376970  83.8668590  22.7694230 119.5406360
  85.1195860  22.1688990 118.9390340  84.5433510  26.5740190 109.3889130
  83.9009670  25.9195810 109.6632850  84.1564170  26.9795280 108.6129800
  68.3475670  20.2796130 106.1348310  69.2170520  20.5620930 106.4184230
  67.8565990  21.0932000 106.0197120  71.4122260  12.0106990 110.7279110
  71.2836890  12.0024890 111.6764030  70.5884280  12.3490080 110.3770120
  82.9330890  25.4656650 105.9265480  82.7068470  24.7487090 106.5190120
  82.5427090  25.2169090 105.0887230  80.8612790  25.9802930 119.4062400
  81.1969030  26.5669620 120.0840320  79.9413130  25.8495640 119.6360190
  68.7146920  29.4923510 106.7009940  69.0744560  30.0912850 106.0467210
  68.5739260  30.0383400 107.4744970  68.4116190  13.7698110 120.1885810
  67.6974710  13.9695030 120.7938420  68.8311230  12.9937680 120.5600610
  82.5147140  23.3828590 107.5879640  82.2268840  23.8441280 108.3757520
  83.3099310  22.9226360 107.8563860  68.6988780  27.7578370 121.1752340
  68.8079900  26.8173110 121.0347730  68.0469340  28.0233120 120.5266070
  76.6901370  26.0294260 122.5750460  76.3698240  25.3103500 123.1196150
  76.0159730  26.7049330 122.6486520  79.9054970  16.2620420 117.9387260
  80.2735790  15.4415630 118.2666830  79.0453170  16.3222310 118.3542910
  83.2717000  15.2177360 108.7474820  82.6430160  15.3223030 108.0333050
  82.7768920  15.4374140 109.5368700  76.8656960  18.9160010 118.1625230
  77.3642210  19.3905830 118.8277080  77.0079910  17.9923530 118.3695260
  79.2716460  14.2213970 111.6028490  79.1484240  14.2400100 110.6538000
  80.2201020  14.2692910 111.7226890  73.4436050  15.8048390 107.5383410
  74.2926580  16.2418540 107.4723600  73.0767320  16.1168650 108.3655470
  84.0723820  15.1327970 119.0053620  83.5697420  15.8733370 119.3447430
  84.8880480  15.5211970 118.6890410  82.3645830  20.3761150 112.4514980
  81.4235970  20.3911380 112.6262670  82.6789900  19.5897110 112.8975280
  71.0374230  19.4905820 106.6951830  71.1177820  18.5433330 106.8069230
  71.9293980  19.8212700 106.8012490  84.3671410  27.5470000 114.1269240
  84.4918830  28.3701170 114.5993050  85.2336970  27.3360730 113.7793390
  70.8447220  28.8247280 122.9871950  71.6459950  29.1459330 123.4007350
  70.3299040  28.4642860 123.7091860  74.9491250  28.8131520 105.6211940
  75.7419860  29.1020350 105.1693730  74.4295600  28.3823690 104.9424420
  79.6811850  24.9327150 122.9347360  79.0750010  24.9558750 122.1943110
  79.3765960  24.2010190 123.4714610  81.1112220  28.6607440 121.5456770
  82.0633970  28.5765460 121.4957010  80.9640440  29.3249150 122.2190560
  84.0021420  28.0401650 107.0448680  83.7162930  27.6266790 106.2302860
  83.8040970  28.9689360 106.9249200  68.5645030  21.3120740 121.9308000
  69.0684050  20.7328020 122.5024230  67.8252450  21.5960970 122.4684370
  75.6182970  22.7191730 121.4643520  74.8528640  23.2876730 121.3798190
  75.7998930  22.4267940 120.5711750  82.7606320  24.4497060 122.0218540
  83.5015790  24.7872820 121.5186000  81.9979000  24.6189120 121.4688310
  70.5968110  19.4550330 122.8258070  70.6373450  19.1564200 123.7343300
  71.4513610  19.8557940 122.6665590  72.5373920  18.0342430 120.7932560
  72.0070380  17.5433380 120.1655900  73.2061990  18.4626630 120.2590490
  81.4351980  22.5011890 120.5573750  81.8493000  22.6556970 121.4064170
  80.5002980  22.6267110 120.7199530  81.9074150  19.8408050 122.5612900
  82.4894920  19.0860370 122.4733380  82.0835920  20.3715490 121.7844380
  73.0246220  15.0004800 120.8729850  72.9303090  14.3825550 120.1480720
  72.4443610  15.7271090 120.6459760  75.7907660  13.5578040 117.9057240
  75.3424960  13.5802300 117.0602790  75.1572860  13.1597060 118.5027540
  76.1967210  22.4532370 118.5269680  76.6155320  23.2965100 118.3545920
  75.2775840  22.5904410 118.2976460  78.5331110  20.1848550 119.9107520
  78.6527320  19.5889690 120.6502360  79.3925110  20.2218240 119.4908820
  80.8719010  20.7385740 118.4870030  80.3454230  21.2628360 117.8835170
  81.2150350  21.3713130 119.1179760  73.2705400  18.1279110 104.9319740
  73.0694460  17.2646470 105.2933080  73.0997450  18.0412470 103.9941340
  74.0474630  28.7585380 119.6427410  73.5095720  29.4831440 119.3236110
  74.3008590  28.2815720 118.8524750  75.2999880  16.7269900 121.1683340
  75.8899570  16.4185750 121.8561160  74.4820120  16.2549650 121.3243240
  80.1193310  16.3435710 121.4016360  79.4308830  15.6817250 121.3366350
  80.8399330  15.8973980 121.8464820  80.7493710  12.9387340 107.4606620
  81.0296000  12.0955240 107.8166040  79.9759440  13.1710450 107.9745370
  72.0688200  15.2279730 104.9197620  72.3714100  15.2347160 104.0116770
  72.8082790  14.8777590 105.4165280  75.2873130  14.1714350 105.9053820
  74.9395130  13.4938340 105.3256270  75.4885900  13.7103860 106.7197210
  77.4522170  29.1595100 107.5240420  78.3472960  29.4980070 107.5459180
  77.4839800  28.4374510 106.8964700  84.4316520  27.6898770 120.2306620
  83.8318510  27.7491330 119.4870540  84.5610420  26.7503750 120.3603470
  68.6278770  20.7002000 112.3018190  67.9727610  20.4313640 111.6577890
  69.4656720  20.5906480 111.8520170  83.1168160  24.4150750 118.3282780
  82.3028000  24.8447910 118.5908570  83.5242360  25.0269160 117.7151830
  85.0758940  20.4067430 110.2212480  84.7002540  19.6395360 109.7893770
  84.3462060  20.7890130 110.7087410  69.6654700  21.0854570 116.8421530
  70.0327740  20.9981970 117.7217550  69.0965520  20.3221120 116.7428390
  84.4658560  19.5538950 119.8552000  84.2344650  19.3251700 118.9549950
  84.7263110  20.4738500 119.8096890  69.2170700  17.9963660 120.7479950
  68.3226750  17.9630420 121.0873660  69.7568250  18.1950450 121.5131200
  82.9046630  14.7795380 122.6331700  83.7816810  14.7878780 123.0165700
  82.9167470  14.0426220 122.0224050  67.8416850  17.9100930 108.2443520
  66.9380930  18.1731130 108.0695180  68.3257470  18.1812100 107.4643480
  84.3509900  18.6324920 113.5219720  84.8747380  18.1387570 112.8909890
  84.9369320  18.7675280 114.2667290  84.5299620  18.7164790 117.0439270
  83.5802330  18.6828330 117.1584260  84.7112630  19.6264900 116.8089040
  70.3844060  16.9666470 106.1537900  71.0935760  16.5449690 105.6685180
  69.6684000  17.0341700 105.5221250  70.0318220  13.0205800 105.1940550
  70.7546350  13.5614740 105.5121770  70.3042740  12.7469220 104.3182090
  83.8409870  17.8898270 109.4612130  84.3368990  17.6569140 110.2461010
  83.6425940  17.0510110 109.0449770  69.7210410  12.2711990 115.0963170
  70.3686600  11.7209370 114.6558330  70.1412250  12.5255140 115.9178980
  85.2697030  16.5259220 111.9949810  85.1596310  16.3715260 112.9332080
  86.0304620  15.9980160 111.7525220  83.6162750  12.4653350 118.4532810
  84.2534970  13.0787490 118.8192000  83.7637640  12.5014010 117.5082040
  86.1587300  14.3567140 105.2355950  87.0836610  14.2248320 105.0274240
  86.1363090  14.4359960 106.1892400  86.2325790  15.1277800 107.8612660
  85.4377290  15.0622920 108.3905570  86.4369070  16.0628440 107.8498010
  83.1744210  29.1669350 111.8551050  83.7703280  28.8453920 111.1785470
  83.4322360  28.6941170 112.6464320  69.4742410  12.4267660 117.8388490
  69.1257230  12.8831480 118.6046670  69.1430110  11.5324790 117.9210920
  71.0806780  25.5987260 122.0041680  71.0376410  25.2280170 122.8856140
  71.2117790  26.5364830 122.1443500  76.9867230  13.6179540 121.3607910
  76.9256120  14.2101370 122.1103320  77.9267610  13.5105500 121.2158170
  79.6241790  13.2749600 121.0000200  80.2382200  13.5928890 120.3381280
  80.1691350  12.7898190 121.6196060  86.0416970  29.1741230 118.4062040
  85.5475250  29.5710100 117.6889170  85.4330260  28.5490440 118.7999320
  70.1463050  11.9543860 121.1139260  70.6946040  11.7731910 120.3505370
  70.2118360  11.1637970 121.6495570  70.9194810  28.5449510 119.1239460
  70.3255130  28.4134210 119.8629500  70.9118650  27.7087650 118.6581560
  80.3649830  11.8381740 117.3269490  79.4909670  12.1716850 117.1242420
  80.2560580  11.3654920 118.1521360  81.2721810  14.0452610 118.7111210
  80.9435170  13.2304370 118.3312940  82.2204110  14.0022420 118.5876900
  83.7256420  29.8164650 115.6848780  83.2659390  30.5680460 115.3106800
  83.0968880  29.0971120 115.6263580  70.5507040  25.9107890 118.0747500
  69.8241100  25.2913180 118.0073450  70.6116190  26.3048500 117.2045580
  78.1124650  12.7551580 116.2662400  77.3296440  13.2297080 116.5459160
  77.8187580  11.8506410 116.1575580  82.6645720  13.4574680 114.3111490
  83.1053810  13.4019780 113.4633090  82.3953310  14.3732690 114.3821670
  84.5284290  13.0889920 112.3220310  84.4672690  12.1451140 112.1751330
  85.3076320  13.1970010 112.8673770  69.4565060  13.0599060 108.7876120
  70.2144420  13.1727940 108.2140150  68.9942230  13.8968260 108.7419550
  75.9978870  15.1738330 111.7778430  75.1853380  14.7995220 111.4374310
  76.5020510  14.4183410 112.0799620  80.5003850  11.8380780 113.0161500
  81.1033220  12.4100990 113.4910020  79.7596840  12.4020220 112.7935400
  83.6438450  12.2402340 108.2901780  83.8389080  13.1385790 108.5569210
  82.8568320  12.0089420 108.7834730  71.8290210  13.5863110 107.3278090
  72.3582970  12.7992910 107.1986040  72.4618530  14.2654300 107.5613620
  74.0228050  13.3238250 110.3823480  73.3930790  12.6225560 110.5493610
  73.4833190  14.0842380 110.1656640  85.1965060  29.4803050 110.0508340
  85.3717250  28.7940790 109.4069260  84.4986630  30.0050100 109.6585010
  74.1483610  12.6022230 122.8175970  73.8667880  13.1055830 122.0536790
  74.5303310  11.8043980 122.4518100  73.0392710  29.8697890 107.6043650
  73.7711530  29.5857170 107.0567540  73.2986380  29.6311170 108.4943030
  80.7499070  12.0175810 123.3956440  80.6364520  12.3370420 124.2907960
  81.5668810  12.4188320 123.0993720  83.5297560  29.1647340 122.8775130
  84.3222880  28.6696570 122.6701090  83.8230710  29.8437480 123.4850740
  79.6557220  20.0368280  93.7591180  79.5751270  19.1222890  93.4882890
  79.2421640  20.5335350  93.0530890  77.7875260  21.8147300  95.6400450
  77.0117360  21.3347740  95.9299020  78.4388190  21.1352950  95.4656610
  71.8041090  22.1267110  96.5176210  70.9725970  21.8715820  96.9172720
  72.4122070  22.1977880  97.2534130  71.7842350  26.1607200  96.7134230
  72.0870390  25.2704940  96.5344450  72.5285940  26.7177420  96.4856480
  70.2133040  17.0869000  90.3018600  69.3249740  17.4284970  90.1998480
  70.4974230  16.8869320  89.4099430  68.1766050  19.6874650  96.1858300
  68.7482160  18.9196850  96.1861940  68.1767590  19.9863410  95.2764910
  78.0346000  28.5065500  94.0403570  77.4157440  28.9623000  93.4698010
  78.8897780  28.6616960  93.6393270  77.2284250  24.4904490  95.6470610
  77.1592530  23.5494430  95.4859740  77.9904110  24.5805900  96.2193180
  69.4190920  15.0959010  97.9727230  69.2393760  14.1984760  98.2529990
  69.0171000  15.6430880  98.6474180  78.2589420  17.2974870  95.8739540
  78.6354240  16.4246750  95.7613210  78.1608930  17.6333570  94.9829980
  72.3894430  15.6700500  91.3356980  72.4961180  16.5704230  91.6425740
  71.4786790  15.6218470  91.0451630  70.0377590  17.5919510  96.5809570
  70.7187700  17.8557880  97.1996970  69.7225640  16.7520380  96.9147580
  74.2302160  18.6386870  95.6682160  74.7380380  19.1367840  96.3087180
  74.7615400  17.8622070  95.4921520  86.3313090  16.8092060  99.3711510
  85.6265260  17.1973770  98.8526620  86.5971010  17.5042350  99.9732440
  72.5138260  13.2785430  99.9345580  72.5156700  13.7957820  99.1291480
  71.6842570  12.8015610  99.9115510  78.9009350  23.3904740  91.4335480
  78.2826620  23.8554190  90.8698200  79.4132600  24.0832220  91.8504990
  73.7641110  22.9180610  98.1119080  73.4310490  23.5449530  98.7540150
  73.9407790  23.4442490  97.3320750  82.2775020  16.7325690  95.5795420
  81.5730590  17.0210580  96.1598530  82.6387180  17.5425800  95.2194980
  72.1953590  14.9895390  97.9416030  72.5370400  15.8337440  97.6469900
  71.2569400  15.1379130  98.0581370  72.9760210  24.8861410  99.9268260
  73.5934210  25.5612490  99.6452710  72.1153330  25.2949390  99.8355760
  68.2692550  24.0761270  88.8075110  67.8920530  24.5648370  88.0760010
  68.5265620  24.7486550  89.4381640  85.3461940  16.1780480  95.9704630
  84.3986850  16.2119460  96.1020060  85.6711930  16.9919430  96.3553990
  75.8781480  12.4777660  94.2660620  76.1856460  11.9224550  93.5496120
  74.9482180  12.6122120  94.0833610  81.4296540  28.1944950  96.5568080
  81.4423700  27.7907240  95.6890340  80.8771760  28.9692240  96.4529510
  82.7241960  24.9161170  91.6458250  82.6138290  23.9735500  91.7707670
  82.7210210  25.2776810  92.5321010  78.2662240  20.5426490  91.0020740
  77.3391520  20.4763870  91.2309210  78.4187060  21.4806620  90.8875980
  82.2959530  22.1046790  91.5055990  81.6771950  21.7666340  90.8582290
  82.2783980  21.4606550  92.2135180  73.8718880  21.0691230  93.7840470
  73.4675880  20.3568480  93.2886370  73.9582000  20.7244470  94.6728510
  74.3400580  24.7558790  95.9479680  74.0428870  24.1504260  95.2687460
  75.2900400  24.7936100  95.8369040  72.5847500  17.8434440  97.5639510
  73.1362090  17.9529780  96.7892760  73.0991010  18.2172040  98.2794740
  82.4286190  28.3290660  99.6102780  81.9516750  29.1362850  99.4175390
  81.7447980  27.6768990  99.7628990  73.4319010  24.4940480 102.5987480
  72.5347540  24.7180450 102.8460880  73.4571880  24.6175420 101.6498880
  72.2590230  21.3653800 101.1744850  72.1198000  22.2376600 101.5432250
  71.3771590  21.0226610 101.0292790  78.5819610  26.2829670  92.4809980
  79.0215520  27.0254000  92.0665370  78.5206500  26.5256240  93.4048940
  74.0570580  27.3075500 103.3830000  74.0286010  27.7118450 102.5158430
  73.8935550  26.3785860 103.2201600  70.5723510  19.9636210  91.2847120
  70.4521110  20.6898300  90.6728390  70.2624400  19.1939120  90.8075030
  86.0085400  28.0902600 104.6794170  86.4845120  28.5685490 105.3583250
  86.6292560  28.0220090 103.9539670  79.2735390  28.9843450 100.4088990
  79.7880060  28.8951460 101.2111420  78.4304470  29.3303150 100.7016900
  73.7278170  29.0497320  91.6144610  73.5520650  28.1332860  91.4012410
  72.8733910  29.4084610  91.8542410  80.9515920  26.7786350  88.3970990
  80.2581080  26.7763640  87.7373270  81.6938780  26.3545670  87.9665160
  80.5165850  28.4049060  92.4719480  80.9722800  27.6238440  92.7858100
  80.8558370  29.1155880  93.0160660  85.2642660  17.3347910 102.8043920
  84.6486930  17.8427580 102.2759380  84.9439080  16.4346240 102.7469860
  68.2668400  24.1765520  99.6310220  68.4299440  23.7070880  98.8129590
  68.7320850  23.6689080 100.2959060  73.0387170  13.3071280  94.6670790
  72.5955320  14.0880820  94.3355310  73.5972160  13.6301170  95.3741730
  77.3256980  16.1739800 100.2706110  76.8636350  16.3822820 101.0826050
  76.9235090  15.3599150  99.9676780  76.1545990  12.9281980  89.5476620
  75.5300170  12.9241850  90.2729930  76.0676110  12.0612940  89.1512590
  75.0763070  13.8518610  96.5260390  75.3735400  14.7581440  96.4452410
  75.6248630  13.3637390  95.9119960  72.8301390  18.4304850  92.3952040
  72.6042310  18.2142020  93.2998660  72.0493920  18.8633310  92.0498010
  80.0599150  18.4368220  90.9942690  79.4608040  19.1604020  90.8106310
  80.6078760  18.3745000  90.2119140  75.2700600  19.3290430 103.0612310
  75.1744200  18.3885160 102.9112710  76.1132580  19.5505500 102.6660380
  78.6664020  17.0731760  93.0245970  79.0593590  17.3903960  92.2114660
  79.0280870  16.1943640  93.1390490  70.4011140  15.7404100 101.2146090
  70.0074530  16.5879310 101.4218870  69.7129540  15.1030470 101.4054730
  76.9756190  15.8239070 104.2842830  76.2854510  15.6311270 104.9188920
  77.7188490  16.1073710 104.8167130  67.7028190  13.6632560  95.2476170
  67.4141240  14.2335420  95.9601150  68.4473950  13.1837010  95.6107400
  67.8898420  17.6052680  86.4578890  67.8073090  18.5483440  86.5993880
  67.5381480  17.4627590  85.5791240  79.2519160  19.6637510  97.1196750
  78.5200280  20.1724320  97.4686850  78.8543500  18.8467490  96.8185530
  75.6896550  16.3391710  95.5249240  75.6932610  15.8981660  94.6753780
  76.5847670  16.6609040  95.6321060  71.5398930  16.2218200  94.4843450
  71.1998980  16.6993430  95.2410500  70.7776250  15.7683320  94.1244550
  75.7516700  17.3403790  88.5156000  75.8729520  17.2990270  89.4641820
  75.3665210  18.2027940  88.3602730  79.7145070  15.1171190  96.5319690
  79.7317810  15.5679840  97.3761540  79.4660650  14.2176830  96.7453130
  74.7638200  19.6504930  87.9139300  74.1955100  19.2023180  87.2875210
  75.4727200  20.0097710  87.3804450  83.1415820  12.5303370 102.3706070
  83.4661590  11.7993030 102.8964050  83.1772330  12.2117010 101.4687060
  69.8407380  23.5516950 101.7906030  69.4562170  22.9110620 102.3888990
  70.1519570  24.2553070 102.3600760  75.9904520  20.3993490  97.2714650
  76.3574650  19.9252060  98.0175990  75.8009580  21.2735060  97.6122990
  68.8545010  15.1437180  93.4008120  68.5691930  14.7792850  94.2386740
  68.7923870  14.4117640  92.7871260  73.7803890  19.4402130  99.5898860
  73.4760960  20.3194110  99.8149220  74.7350350  19.5001920  99.6256300
  72.3085680  23.6463120  90.1865710  71.5347940  23.1060740  90.0264430
  73.0380310  23.1269730  89.8483470  78.5283600  14.0366440  90.1221490
  77.7148210  13.5379610  90.0466800  78.3345550  14.8764690  89.7057840
  72.3523080  23.3143500  93.8244520  72.8701750  22.5111760  93.7701410
  71.9007100  23.2522640  94.6661350  77.2392580  24.5809780  89.0971820
  77.5808280  25.3252010  88.6015140  76.4105290  24.8940900  89.4596650
  69.8367620  20.2804870 100.7370220  69.4782560  20.9458720 101.3243560
  69.5422180  19.4488420 101.1082840  73.0380740  20.7389110 103.6209770
  72.7380880  20.8846290 102.7237590  73.8091980  20.1794400 103.5283160
  84.5433510  26.5740190  90.6145640  83.9009670  25.9195810  90.8889360
  84.1564170  26.9795280  89.8386310  76.2083270  24.6623310  91.8687740
  76.8954400  25.2092520  92.2495330  75.4215690  25.2064040  91.9037350
  68.3475670  20.2796130  87.3604820  69.2170520  20.5620930  87.6440740
  67.8565990  21.0932000  87.2453630  75.5110480  21.6669340  91.4813100
  75.9673260  22.4774590  91.7073290  75.1598690  21.3492480  92.3131590
  71.4122260  12.0106990  91.9535620  71.2836890  12.0024890  92.9020540
  70.5884280  12.3490080  91.6026630  82.9330890  25.4656650  87.1521990
  82.7068470  24.7487090  87.7446630  82.5427090  25.2169090  86.3143740
  68.7146920  29.4923510  87.9266450  69.0744560  30.0912850  87.2723720
  68.5739260  30.0383400  88.7001480  68.4116190  13.7698110 101.4142320
  67.6974710  13.9695030 102.0194930  68.8311230  12.9937680 101.7857120
  68.6988780  27.7578370 102.4008850  68.8079900  26.8173110 102.2604240
  68.0469340  28.0233120 101.7522580  74.7315540  26.8754710  88.7440120
  74.7225640  27.6084400  88.1284630  73.8113900  26.6286290  88.8367080
  70.3322180  22.0969600  89.4886880  69.7250130  22.8368500  89.4982180
  70.8071530  22.1868960  88.6625080  79.9054970  16.2620420  99.1643770
  80.2735790  15.4415630  99.4923340  79.0453170  16.3222310  99.5799420
  77.7175140  26.9382950  87.4065310  77.8187120  26.7346940  86.4767290
  76.8176880  26.6841230  87.6113090  75.2401030  17.4963310  91.3889210
  74.5317180  17.9649650  91.8302820  75.5245510  16.8385320  92.0234400
  76.8656960  18.9160010  99.3881740  77.3642210  19.3905830 100.0533590
  77.0079910  17.9923530  99.5951770  79.2716460  14.2213970  92.8285000
  79.1484240  14.2400100  91.8794510  80.2201020  14.2692910  92.9483400
  73.4436050  15.8048390  88.7639920  74.2926580  16.2418540  88.6980110
  73.0767320  16.1168650  89.5911980  84.0723820  15.1327970 100.2310130
  83.5697420  15.8733370 100.5703940  84.8880480  15.5211970  99.9146920
  72.3427470  22.0580750  87.2375450  73.1090740  21.9462110  87.8000880
  72.4202160  21.3618720  86.5852220  71.0374230  19.4905820  87.9208340
  71.1177820  18.5433330  88.0325740  71.9293980  19.8212700  88.0269000
  84.3671410  27.5470000  95.3525750  84.4918830  28.3701170  95.8249560
  85.2336970  27.3360730  95.0049900  71.8388940  29.6401210  95.0242880
  72.5751420  29.0916670  95.2951450  72.2229860  30.5057220  94.8848870
  70.8447220  28.8247280 104.2128460  71.6459950  29.1459330 104.6263860
  70.3299040  28.4642860 104.9348370  74.9491250  28.8131520  86.8468450
  75.7419860  29.1020350  86.3950240  74.4295600  28.3823690  86.1680930
  81.1112220  28.6607440 102.7713280  82.0633970  28.5765460 102.7213520
  80.9640440  29.3249150 103.4447070  84.0021420  28.0401650  88.2705190
  83.7162930  27.6266790  87.4559370  83.8040970  28.9689360  88.1505710
  68.5645030  21.3120740 103.1564510  69.0684050  20.7328020 103.7280740
  67.8252450  21.5960970 103.6940880  75.4668650  24.0334930  86.7110800
  75.3619290  23.4187280  87.4372180  75.2992870  23.5100820  85.9273810
  70.5968110  19.4550330 104.0514580  70.6373450  19.1564200 104.9599810
  71.4513610  19.8557940 103.8922100  74.3746500  22.0545880  89.2118090
  74.7962920  21.8885750  90.0549480  74.4997340  21.2446110  88.7173230
  72.5373920  18.0342430 102.0189070  72.0070380  17.5433380 101.3912410
  73.2061990  18.4626630 101.4847000  73.0246220  15.0004800 102.0986360
  72.9303090  14.3825550 101.3737230  72.4443610  15.7271090 101.8716270
  75.7907660  13.5578040  99.1313750  75.3424960  13.5802300  98.2859300
  75.1572860  13.1597060  99.7284050  74.0474630  28.7585380 100.8683920
  73.5095720  29.4831440 100.5492620  74.3008590  28.2815720 100.0781260
  75.2999880  16.7269900 102.3939850  75.8899570  16.4185750 103.0817670
  74.4820120  16.2549650 102.5499750  72.0688200  15.2279730  86.1454130
  72.3714100  15.2347160  85.2373280  72.8082790  14.8777590  86.6421790
  76.9036840  29.9936590 101.1270570  76.8295540  30.8971730 101.4342940
  76.0015680  29.6748490 101.0992640  75.2873130  14.1714350  87.1310330
  74.9395130  13.4938340  86.5512780  75.4885900  13.7103860  87.9453720
  71.0918330  24.5322150  86.9783930  71.5293200  25.0751820  87.6341510
  71.5766060  23.7069100  86.9880270  72.9026050  25.6520190  92.0906160
  72.6021590  25.5285160  92.9910070  72.7963540  24.7928780  91.6821890
  68.7954340  28.1881770  97.1685820  68.3585330  28.3682570  98.0009970
  69.3632020  28.9456390  97.0267540  84.4316520  27.6898770 101.4563130
  83.8318510  27.7491330 100.7127050  84.5610420  26.7503750 101.5859980
  85.6717970  25.4316590  86.7932840  84.8410930  25.4993240  87.2640070
  85.8489800  26.3220710  86.4899700  86.1334400  23.0314170  94.1408970
  86.5043230  22.2481490  93.7344940  86.7736330  23.7203270  93.9626270
  69.6654700  21.0854570  98.0678040  70.0327740  20.9981970  98.9474060
  69.0965520  20.3221120  97.9684900  69.2170700  17.9963660 101.9736460
  68.3226750  17.9630420 102.3130170  69.7568250  18.1950450 102.7387710
  82.9046630  14.7795380 103.8588210  83.7816810  14.7878780 104.2422210
  82.9167470  14.0426220 103.2480560  67.8416850  17.9100930  89.4700030
  66.9380930  18.1731130  89.2951690  68.3257470  18.1812100  88.6899990
  70.3844060  16.9666470  87.3794410  71.0935760  16.5449690  86.8941690
  69.6684000  17.0341700  86.7477760  70.0318220  13.0205800  86.4197060
  70.7546350  13.5614740  86.7378280  70.3042740  12.7469220  85.5438600
  69.7210410  12.2711990  96.3219680  70.3686600  11.7209370  95.8814840
  70.1412250  12.5255140  97.1435490  83.6162750  12.4653350  99.6789320
  84.2534970  13.0787490 100.0448510  83.7637640  12.5014010  98.7338550
  86.1587300  14.3567140  86.4612460  87.0836610  14.2248320  86.2530750
  86.1363090  14.4359960  87.4148910  83.1744210  29.1669350  93.0807560
  83.7703280  28.8453920  92.4041980  83.4322360  28.6941170  93.8720830
  69.4742410  12.4267660  99.0645000  69.1257230  12.8831480  99.8303180
  69.1430110  11.5324790  99.1467430  74.7812810  27.1546850  98.8307910
  74.5404170  27.4221410  97.9438430  75.7215450  27.3252580  98.8858770
  76.9867230  13.6179540 102.5864420  76.9256120  14.2101370 103.3359830
  77.9267610  13.5105500 102.4414680  79.6241790  13.2749600 102.2256710
  80.2382200  13.5928890 101.5637790  80.1691350  12.7898190 102.8452570
  86.0416970  29.1741230  99.6318550  85.5475250  29.5710100  98.9145680
  85.4330260  28.5490440 100.0255830  70.1463050  11.9543860 102.3395770
  70.6946040  11.7731910 101.5761880  70.2118360  11.1637970 102.8752080
  70.9194810  28.5449510 100.3495970  70.3255130  28.4134210 101.0886010
  70.9118650  27.7087650  99.8838070  80.3649830  11.8381740  98.5526000
  79.4909670  12.1716850  98.3498930  80.2560580  11.3654920  99.3777870
  81.2721810  14.0452610  99.9367720  80.9435170  13.2304370  99.5569450
  82.2204110  14.0022420  99.8133410  83.7256420  29.8164650  96.9105290
  83.2659390  30.5680460  96.5363310  83.0968880  29.0971120  96.8520090
  70.5507040  25.9107890  99.3004010  69.8241100  25.2913180  99.2329960
  70.6116190  26.3048500  98.4302090  74.1552140  28.1252890  96.0853420
  74.6717160  27.5140250  95.5601680  74.8049520  28.6281670  96.5764430
  76.8947640  29.0161380  96.9122400  77.1825450  28.7615680  96.0355410
  77.4070860  28.4638740  97.5027970  78.1124650  12.7551580  97.4918910
  77.3296440  13.2297080  97.7715670  77.8187580  11.8506410  97.3832090
  82.6645720  13.4574680  95.5368000  83.1053810  13.4019780  94.6889600
  82.3953310  14.3732690  95.6078180  68.8337040  29.2282280  92.5100770
  68.6659080  28.5952960  93.2082660  67.9671550  29.4341680  92.1594960
  69.4565060  13.0599060  90.0132630  70.2144420  13.1727940  89.4396660
  68.9942230  13.8968260  89.9676060  75.9978870  15.1738330  93.0034940
  75.1853380  14.7995220  92.6630820  76.5020510  14.4183410  93.3056130
  80.5003850  11.8380780  94.2418010  81.1033220  12.4100990  94.7166530
  79.7596840  12.4020220  94.0191910  70.4399740  27.9215510  89.9550910
  69.9147360  28.3023540  89.2512870  70.3644320  28.5466280  90.6760620
  71.8290210  13.5863110  88.5534600  72.3582970  12.7992910  88.4242550
  72.4618530  14.2654300  88.7870130  74.0228050  13.3238250  91.6079990
  73.3930790  12.6225560  91.7750120  73.4833190  14.0842380  91.3913150
  76.9620000  29.9377480 104.2790600  77.8887310  29.7021750 104.3226560
  76.9470430  30.7649480 103.7976630  74.1483610  12.6022230 104.0432480
  73.8667880  13.1055830 103.2793300  74.5303310  11.8043980 103.6774610
  73.0392710  29.8697890  88.8300160  73.7711530  29.5857170  88.2824050
  73.2986380  29.6311170  89.7199540  72.2007500  25.9862620  88.8346490
  71.5716380  26.4547720  89.3832320  72.3155330  25.1411840  89.2692680
  80.7499070  12.0175810 104.6212950  80.6364520  12.3370420 105.5164470
  81.5668810  12.4188320 104.3250230  83.5297560  29.1647340 104.1031640
  84.3222880  28.6696570 103.8957600  83.8230710  29.8437480 104.7107250
  77.7875260  21.8147300  76.8656960  77.0117360  21.3347740  77.1555530
  78.4388190  21.1352950  76.6913120  71.8041090  22.1267110  77.7432720
  70.9725970  21.8715820  78.1429230  72.4122070  22.1977880  78.4790640
  81.8082690  26.2207490  75.6456090  81.3464220  25.4494730  75.9743260
  82.6208240  26.2473560  76.1508540  70.2133040  17.0869000  71.5275110
  69.3249740  17.4284970  71.4254990  70.4974230  16.8869320  70.6355940
  77.2284250  24.4904490  76.8727120  77.1592530  23.5494430  76.7116250
  77.9904110  24.5805900  77.4449690  72.3894430  15.6700500  72.5613490
  72.4961180  16.5704230  72.8682250  71.4786790  15.6218470  72.2708140
  82.0413540  14.7925310  74.0324390  82.8623160  14.3021880  74.0749870
  82.0747620  15.3822970  74.7856230  74.2302160  18.6386870  76.8938670
  74.7380380  19.1367840  77.5343690  74.7615400  17.8622070  76.7178030
  72.5138260  13.2785430  81.1602090  72.5156700  13.7957820  80.3547990
  71.6842570  12.8015610  81.1372020  78.9009350  23.3904740  72.6591990
  78.2826620  23.8554190  72.0954710  79.4132600  24.0832220  73.0761500
  72.1953590  14.9895390  79.1672540  72.5370400  15.8337440  78.8726410
  71.2569400  15.1379130  79.2837880  83.8937800  26.3500820  79.0679410
  83.2101320  27.0199930  79.0596080  84.4332090  26.5481470  78.3024270
  85.3461940  16.1780480  77.1961140  84.3986850  16.2119460  77.3276570
  85.6711930  16.9919430  77.5810500  75.8781480  12.4777660  75.4917130
  76.1856460  11.9224550  74.7752630  74.9482180  12.6122120  75.3090120
  81.4296540  28.1944950  77.7824590  81.4423700  27.7907240  76.9146850
  80.8771760  28.9692240  77.6786020  82.7241960  24.9161170  72.8714760
  82.6138290  23.9735500  72.9964180  82.7210210  25.2776810  73.7577520
  80.8281980  23.0974790  79.1107200  81.2450770  22.8834900  78.2760660
  81.5521800  23.3547580  79.6815820  78.2662240  20.5426490  72.2277250
  77.3391520  20.4763870  72.4565720  78.4187060  21.4806620  72.1132490
  78.2531320  16.8143490  69.2244410  77.3134990  16.9757450  69.3096870
  78.5714580  17.5329170  68.6780400  84.7744080  21.4962010  79.2023440
  83.9462710  21.5655100  78.7273570  85.3694560  22.0816320  78.7339270
  82.2959530  22.1046790  72.7312500  81.6771950  21.7666340  72.0838800
  82.2783980  21.4606550  73.4391690  73.8718880  21.0691230  75.0096980
  73.4675880  20.3568480  74.5142880  73.9582000  20.7244470  75.8985020
  82.4286190  28.3290660  80.8359290  81.9516750  29.1362850  80.6431900
  81.7447980  27.6768990  80.9885500  73.4319010  24.4940480  83.8243990
  72.5347540  24.7180450  84.0717390  73.4571880  24.6175420  82.8755390
  78.5819610  26.2829670  73.7066490  79.0215520  27.0254000  73.2921880
  78.5206500  26.5256240  74.6305450  74.0570580  27.3075500  84.6086510
  74.0286010  27.7118450  83.7414940  73.8935550  26.3785860  84.4458110
  70.5723510  19.9636210  72.5103630  70.4521110  20.6898300  71.8984900
  70.2624400  19.1939120  72.0331540  86.0085400  28.0902600  85.9050680
  86.4845120  28.5685490  86.5839760  86.6292560  28.0220090  85.1796180
  79.2735390  28.9843450  81.6345500  79.7880060  28.8951460  82.4367930
  78.4304470  29.3303150  81.9273410  81.2489790  29.2698790  71.0629500
  81.0890930  28.9801730  71.9611330  81.0836500  28.4938920  70.5274730
  80.9515920  26.7786350  69.6227500  80.2581080  26.7763640  68.9629780
  81.6938780  26.3545670  69.1921670  80.5165850  28.4049060  73.6975990
  80.9722800  27.6238440  74.0114610  80.8558370  29.1155880  74.2417170
  68.2668400  24.1765520  80.8566730  68.4299440  23.7070880  80.0386100
  68.7320850  23.6689080  81.5215570  73.0387170  13.3071280  75.8927300
  72.5955320  14.0880820  75.5611820  73.5972160  13.6301170  76.5998240
  76.1545990  12.9281980  70.7733130  75.5300170  12.9241850  71.4986440
  76.0676110  12.0612940  70.3769100  75.0763070  13.8518610  77.7516900
  75.3735400  14.7581440  77.6708920  75.6248630  13.3637390  77.1376470
  72.8301390  18.4304850  73.6208550  72.6042310  18.2142020  74.5255170
  72.0493920  18.8633310  73.2754520  80.0599150  18.4368220  72.2199200
  79.4608040  19.1604020  72.0362820  80.6078760  18.3745000  71.4375650
  78.6664020  17.0731760  74.2502480  79.0593590  17.3903960  73.4371170
  79.0280870  16.1943640  74.3647000  67.7028190  13.6632560  76.4732680
  67.4141240  14.2335420  77.1857660  68.4473950  13.1837010  76.8363910
  67.8898420  17.6052680  67.6835400  67.8073090  18.5483440  67.8250390
  67.5381480  17.4627590  66.8047750  75.6896550  16.3391710  76.7505750
  75.6932610  15.8981660  75.9010290  76.5847670  16.6609040  76.8577570
  71.5398930  16.2218200  75.7099960  71.1998980  16.6993430  76.4667010
  70.7776250  15.7683320  75.3501060  75.7516700  17.3403790  69.7412510
  75.8729520  17.2990270  70.6898330  75.3665210  18.2027940  69.5859240
  74.7638200  19.6504930  69.1395810  74.1955100  19.2023180  68.5131720
  75.4727200  20.0097710  68.6060960  69.8407380  23.5516950  83.0162540
  69.4562170  22.9110620  83.6145500  70.1519570  24.2553070  83.5857270
  68.8545010  15.1437180  74.6264630  68.5691930  14.7792850  75.4643250
  68.7923870  14.4117640  74.0127770  83.0673660  22.6428480  77.2048610
  83.7872780  23.1383770  76.8144720  82.8655480  21.9646370  76.5602480
  78.5283600  14.0366440  71.3478000  77.7148210  13.5379610  71.2723310
  78.3345550  14.8764690  70.9314350  78.4492460  22.7137540  83.0917610
  78.3829770  21.7933210  82.8375200  77.8197600  22.8112980  83.8062250
  81.2431990  18.4086090  69.6440160  82.1311610  18.7203320  69.4691500
  81.2137080  17.5358340  69.2520740  77.2392580  24.5809780  70.3228330
  77.5808280  25.3252010  69.8271650  76.4105290  24.8940900  70.6853160
  78.3809190  25.5358110  82.8421410  78.3953730  24.6039070  82.6240320
  77.6734290  25.6217870  83.4811180  83.5146260  19.7197930  69.1120020
  83.4309980  20.1512150  68.2616460  84.2340450  20.1796280  69.5446840
  84.5433510  26.5740190  71.8402150  83.9009670  25.9195810  72.1145870
  84.1564170  26.9795280  71.0642820  80.1219990  23.9025620  75.6873840
  80.4743810  23.3053750  75.0275210  79.2382320  23.5769850  75.8582090
  76.2083270  24.6623310  73.0944250  76.8954400  25.2092520  73.4751840
  75.4215690  25.2064040  73.1293860  75.5110480  21.6669340  72.7069610
  75.9673260  22.4774590  72.9329800  75.1598690  21.3492480  73.5388100
  77.8143090  27.1775680  79.9361910  78.4585310  27.3835060  80.6135330
  78.1772530  26.4164080  79.4832760  71.4122260  12.0106990  73.1792130
  71.2836890  12.0024890  74.1277050  70.5884280  12.3490080  72.8283140
  79.0875170  25.1808030  78.6539360  79.7297400  24.4801190  78.7671530
  79.6124520  25.9606470  78.4736250  80.8612790  25.9802930  81.8575420
  81.1969030  26.5669620  82.5353340  79.9413130  25.8495640  82.0873210
  68.7146920  29.4923510  69.1522960  69.0744560  30.0912850  68.4980230
  68.5739260  30.0383400  69.9257990  68.6988780  27.7578370  83.6265360
  68.8079900  26.8173110  83.4860750  68.0469340  28.0233120  82.9779090
  76.6901370  26.0294260  85.0263480  76.3698240  25.3103500  85.5709170
  76.0159730  26.7049330  85.0999540  74.7315540  26.8754710  69.9696630
  74.7225640  27.6084400  69.3541140  73.8113900  26.6286290  70.0623590
  83.2717000  15.2177360  71.1987840  82.6430160  15.3223030  70.4846070
  82.7768920  15.4374140  71.9881720  77.7175140  26.9382950  68.6321820
  77.8187120  26.7346940  67.7023800  76.8176880  26.6841230  68.8369600
  75.2401030  17.4963310  72.6145720  74.5317180  17.9649650  73.0559330
  75.5245510  16.8385320  73.2490910  79.2716460  14.2213970  74.0541510
  79.1484240  14.2400100  73.1051020  80.2201020  14.2692910  74.1739910
  73.4436050  15.8048390  69.9896430  74.2926580  16.2418540  69.9236620
  73.0767320  16.1168650  70.8168490  82.3645830  20.3761150  74.9028000
  81.4235970  20.3911380  75.0775690  82.6789900  19.5897110  75.3488300
  72.3427470  22.0580750  68.4631960  73.1090740  21.9462110  69.0257390
  72.4202160  21.3618720  67.8108730  84.3671410  27.5470000  76.5782260
  84.4918830  28.3701170  77.0506070  85.2336970  27.3360730  76.2306410
  70.8447220  28.8247280  85.4384970  71.6459950  29.1459330  85.8520370
  70.3299040  28.4642860  86.1604880  74.9491250  28.8131520  68.0724960
  75.7419860  29.1020350  67.6206750  74.4295600  28.3823690  67.3937440
  79.6811850  24.9327150  85.3860380  79.0750010  24.9558750  84.6456130
  79.3765960  24.2010190  85.9227630  81.1112220  28.6607440  83.9969790
  82.0633970  28.5765460  83.9470030  80.9640440  29.3249150  84.6703580
  84.0021420  28.0401650  69.4961700  83.7162930  27.6266790  68.6815880
  83.8040970  28.9689360  69.3762220  68.5645030  21.3120740  84.3821020
  69.0684050  20.7328020  84.9537250  67.8252450  21.5960970  84.9197390
  75.4668650  24.0334930  67.9367310  75.3619290  23.4187280  68.6628690
  75.2992870  23.5100820  67.1530320  75.6182970  22.7191730  83.9156540
  74.8528640  23.2876730  83.8311210  75.7998930  22.4267940  83.0224770
  82.7606320  24.4497060  84.4731560  83.5015790  24.7872820  83.9699020
  81.9979000  24.6189120  83.9201330  70.5968110  19.4550330  85.2771090
  70.6373450  19.1564200  86.1856320  71.4513610  19.8557940  85.1178610
  74.3746500  22.0545880  70.4374600  74.7962920  21.8885750  71.2805990
  74.4997340  21.2446110  69.9429740  76.8874140  21.0783490  67.6851700
  77.4079800  20.3632510  67.3192850  77.5342540  21.7169360  67.9852210
  81.4351980  22.5011890  83.0086770  81.8493000  22.6556970  83.8577190
  80.5002980  22.6267110  83.1712550  75.7907660  13.5578040  80.3570260
  75.3424960  13.5802300  79.5115810  75.1572860  13.1597060  80.9540560
  73.2705400  18.1279110  67.3832760  73.0694460  17.2646470  67.7446100
  73.0997450  18.0412470  66.4454360  72.0688200  15.2279730  67.3710640
  72.3714100  15.2347160  66.4629790  72.8082790  14.8777590  67.8678300
  76.9036840  29.9936590  82.3527080  76.8295540  30.8971730  82.6599450
  76.0015680  29.6748490  82.3249150  75.2873130  14.1714350  68.3566840
  74.9395130  13.4938340  67.7769290  75.4885900  13.7103860  69.1710230
  71.0918330  24.5322150  68.2040440  71.5293200  25.0751820  68.8598020
  71.5766060  23.7069100  68.2136780  84.4316520  27.6898770  82.6819640
  83.8318510  27.7491330  81.9383560  84.5610420  26.7503750  82.8116490
  85.6717970  25.4316590  68.0189350  84.8410930  25.4993240  68.4896580
  85.8489800  26.3220710  67.7156210  85.1274430  22.1764070  70.5223550
  85.8893340  22.7460720  70.6283240  85.1428800  21.6091270  71.2931860
  86.1334400  23.0314170  75.3665480  86.5043230  22.2481490  74.9601450
  86.7736330  23.7203270  75.1882780  83.1168160  24.4150750  80.7795800
  82.3028000  24.8447910  81.0421590  83.5242360  25.0269160  80.1664850
  85.0758940  20.4067430  72.6725500  84.7002540  19.6395360  72.2406790
  84.3462060  20.7890130  73.1600430  67.8416850  17.9100930  70.6956540
  66.9380930  18.1731130  70.5208200  68.3257470  18.1812100  69.9156500
  84.3509900  18.6324920  75.9732740  84.8747380  18.1387570  75.3422910
  84.9369320  18.7675280  76.7180310  84.5299620  18.7164790  79.4952290
  83.5802330  18.6828330  79.6097280  84.7112630  19.6264900  79.2602060
  70.3844060  16.9666470  68.6050920  71.0935760  16.5449690  68.1198200
  69.6684000  17.0341700  67.9734270  70.0318220  13.0205800  67.6453570
  70.7546350  13.5614740  67.9634790  70.3042740  12.7469220  66.7695110
  83.8409870  17.8898270  71.9125150  84.3368990  17.6569140  72.6974030
  83.6425940  17.0510110  71.4962790  69.7210410  12.2711990  77.5476190
  70.3686600  11.7209370  77.1071350  70.1412250  12.5255140  78.3692000
  85.2697030  16.5259220  74.4462830  85.1596310  16.3715260  75.3845100
  86.0304620  15.9980160  74.2038240  86.2325790  15.1277800  70.3125680
  85.4377290  15.0622920  70.8418590  86.4369070  16.0628440  70.3011030
  83.1744210  29.1669350  74.3064070  83.7703280  28.8453920  73.6298490
  83.4322360  28.6941170  75.0977340  69.4742410  12.4267660  80.2901510
  69.1257230  12.8831480  81.0559690  69.1430110  11.5324790  80.3723940
  71.0806780  25.5987260  84.4554700  71.0376410  25.2280170  85.3369160
  71.2117790  26.5364830  84.5956520  76.9867230  13.6179540  83.8120930
  76.9256120  14.2101370  84.5616340  77.9267610  13.5105500  83.6671190
  86.0416970  29.1741230  80.8575060  85.5475250  29.5710100  80.1402190
  85.4330260  28.5490440  81.2512340  70.1463050  11.9543860  83.5652280
  70.6946040  11.7731910  82.8018390  70.2118360  11.1637970  84.1008590
  83.7256420  29.8164650  78.1361800  83.2659390  30.5680460  77.7619820
  83.0968880  29.0971120  78.0776600  82.6645720  13.4574680  76.7624510
  83.1053810  13.4019780  75.9146110  82.3953310  14.3732690  76.8334690
  84.5284290  13.0889920  74.7733330  84.4672690  12.1451140  74.6264350
  85.3076320  13.1970010  75.3186790  69.4565060  13.0599060  71.2389140
  70.2144420  13.1727940  70.6653170  68.9942230  13.8968260  71.1932570
  75.9978870  15.1738330  74.2291450  75.1853380  14.7995220  73.8887330
  76.5020510  14.4183410  74.5312640  80.5003850  11.8380780  75.4674520
  81.1033220  12.4100990  75.9423040  79.7596840  12.4020220  75.2448420
  83.6438450  12.2402340  70.7414800  83.8389080  13.1385790  71.0082230
  82.8568320  12.0089420  71.2347750  71.8290210  13.5863110  69.7791110
  72.3582970  12.7992910  69.6499060  72.4618530  14.2654300  70.0126640
  74.0228050  13.3238250  72.8336500  73.3930790  12.6225560  73.0006630
  73.4833190  14.0842380  72.6169660  76.9620000  29.9377480  85.5047110
  77.8887310  29.7021750  85.5483070  76.9470430  30.7649480  85.0233140
  85.1965060  29.4803050  72.5021360  85.3717250  28.7940790  71.8582280
  84.4986630  30.0050100  72.1098030  74.1483610  12.6022230  85.2688990
  73.8667880  13.1055830  84.5049810  74.5303310  11.8043980  84.9031120
  72.2007500  25.9862620  70.0603000  71.5716380  26.4547720  70.6088830
  72.3155330  25.1411840  70.4949190  83.5297560  29.1647340  85.3288150
  84.3222880  28.6696570  85.1214110  83.8230710  29.8437480  85.9363760
  79.6557220  20.0368280  56.2104200  79.5751270  19.1222890  55.9395910
  79.2421640  20.5335350  55.5043910  77.7875260  21.8147300  58.0913470
  77.0117360  21.3347740  58.3812040  78.4388190  21.1352950  57.9169630
  71.7842350  26.1607200  59.1647250  72.0870390  25.2704940  58.9857470
  72.5285940  26.7177420  58.9369500  68.1766050  19.6874650  58.6371320
  68.7482160  18.9196850  58.6374960  68.1767590  19.9863410  57.7277930
  77.2284250  24.4904490  58.0983630  77.1592530  23.5494430  57.9372760
  77.9904110  24.5805900  58.6706200  69.4190920  15.0959010  60.4240250
  69.2393760  14.1984760  60.7043010  69.0171000  15.6430880  61.0987200
  78.2589420  17.2974870  58.3252560  78.6354240  16.4246750  58.2126230
  78.1608930  17.6333570  57.4343000  72.3894430  15.6700500  53.7870000
  72.4961180  16.5704230  54.0938760  71.4786790  15.6218470  53.4964650
  82.0413540  14.7925310  55.2580900  82.8623160  14.3021880  55.3006380
  82.0747620  15.3822970  56.0112740  70.0377590  17.5919510  59.0322590
  70.7187700  17.8557880  59.6509990  69.7225640  16.7520380  59.3660600
  72.5138260  13.2785430  62.3858600  72.5156700  13.7957820  61.5804500
  71.6842570  12.8015610  62.3628530  78.9009350  23.3904740  53.8848500
  78.2826620  23.8554190  53.3211220  79.4132600  24.0832220  54.3018010
  73.7641110  22.9180610  60.5632100  73.4310490  23.5449530  61.2053170
  73.9407790  23.4442490  59.7833770  82.2775020  16.7325690  58.0308440
  81.5730590  17.0210580  58.6111550  82.6387180  17.5425800  57.6708000
  72.1953590  14.9895390  60.3929050  72.5370400  15.8337440  60.0982920
  71.2569400  15.1379130  60.5094390  72.9760210  24.8861410  62.3781280
  73.5934210  25.5612490  62.0965730  72.1153330  25.2949390  62.2868780
  68.2692550  24.0761270  51.2588130  67.8920530  24.5648370  50.5273030
  68.5265620  24.7486550  51.8894660  83.8937800  26.3500820  60.2935920
  83.2101320  27.0199930  60.2852590  84.4332090  26.5481470  59.5280780
  85.3461940  16.1780480  58.4217650  84.3986850  16.2119460  58.5533080
  85.6711930  16.9919430  58.8067010  75.8781480  12.4777660  56.7173640
  76.1856460  11.9224550  56.0009140  74.9482180  12.6122120  56.5346630
  78.2662240  20.5426490  53.4533760  77.3391520  20.4763870  53.6822230
  78.4187060  21.4806620  53.3389000  78.2531320  16.8143490  50.4500920
  77.3134990  16.9757450  50.5353380  78.5714580  17.5329170  49.9036910
  84.7744080  21.4962010  60.4279950  83.9462710  21.5655100  59.9530080
  85.3694560  22.0816320  59.9595780  82.2959530  22.1046790  53.9569010
  81.6771950  21.7666340  53.3095310  82.2783980  21.4606550  54.6648200
  81.7386090  18.2831330  61.3734820  81.3257270  19.1085040  61.6274810
  81.0062040  17.6976370  61.1811180  72.5847500  17.8434440  60.0152530
  73.1362090  17.9529780  59.2405780  73.0991010  18.2172040  60.7307760
  73.4319010  24.4940480  65.0500500  72.5347540  24.7180450  65.2973900
  73.4571880  24.6175420  64.1011900  80.4724230  21.3433600  50.9641760
  80.9117510  20.5056030  50.8179580  81.1852650  21.9763000  51.0505900
  72.2590230  21.3653800  63.6257870  72.1198000  22.2376600  63.9945270
  71.3771590  21.0226610  63.4805810  84.0541370  12.5976410  49.2782800
  83.7414030  12.6903240  50.1781870  84.8153840  13.1757440  49.2280230
  86.0085400  28.0902600  67.1307190  86.4845120  28.5685490  67.8096270
  86.6292560  28.0220090  66.4052690  68.2108880  23.1351350  59.5428780
  68.2889300  23.2700120  58.5984500  68.8250560  22.4267240  59.7356900
  69.4556510  24.8351540  55.9534960  69.0484590  24.9766130  55.0988560
  70.3469520  24.5511700  55.7506170  73.7278170  29.0497320  54.0657630
  73.5520650  28.1332860  53.8525430  72.8733910  29.4084610  54.3055430
  68.2668400  24.1765520  62.0823240  68.4299440  23.7070880  61.2642610
  68.7320850  23.6689080  62.7472080  73.0387170  13.3071280  57.1183810
  72.5955320  14.0880820  56.7868330  73.5972160  13.6301170  57.8254750
  77.3256980  16.1739800  62.7219130  76.8636350  16.3822820  63.5339070
  76.9235090  15.3599150  62.4189800  79.4211200  18.8950500  65.9514580
  79.7464610  18.0614250  65.6116810  80.2091530  19.4179020  66.0992910
  76.1545990  12.9281980  51.9989640  75.5300170  12.9241850  52.7242950
  76.0676110  12.0612940  51.6025610  75.0763070  13.8518610  58.9773410
  75.3735400  14.7581440  58.8965430  75.6248630  13.3637390  58.3632980
  80.0599150  18.4368220  53.4455710  79.4608040  19.1604020  53.2619330
  80.6078760  18.3745000  52.6632160  75.2700600  19.3290430  65.5125330
  75.1744200  18.3885160  65.3625730  76.1132580  19.5505500  65.1173400
  78.6664020  17.0731760  55.4758990  79.0593590  17.3903960  54.6627680
  79.0280870  16.1943640  55.5903510  70.4011140  15.7404100  63.6659110
  70.0074530  16.5879310  63.8731890  69.7129540  15.1030470  63.8567750
  76.9756190  15.8239070  66.7355850  76.2854510  15.6311270  67.3701940
  77.7188490  16.1073710  67.2680150  67.7028190  13.6632560  57.6989190
  67.4141240  14.2335420  58.4114170  68.4473950  13.1837010  58.0620420
  67.8898420  17.6052680  48.9091910  67.8073090  18.5483440  49.0506900
  67.5381480  17.4627590  48.0304260  79.2519160  19.6637510  59.5709770
  78.5200280  20.1724320  59.9199870  78.8543500  18.8467490  59.2698550
  75.6896550  16.3391710  57.9762260  75.6932610  15.8981660  57.1266800
  76.5847670  16.6609040  58.0834080  75.7516700  17.3403790  50.9669020
  75.8729520  17.2990270  51.9154840  75.3665210  18.2027940  50.8115750
  79.7145070  15.1171190  58.9832710  79.7317810  15.5679840  59.8274560
  79.4660650  14.2176830  59.1966150  74.7638200  19.6504930  50.3652320
  74.1955100  19.2023180  49.7388230  75.4727200  20.0097710  49.8317470
  69.8407380  23.5516950  64.2419050  69.4562170  22.9110620  64.8402010
  70.1519570  24.2553070  64.8113780  75.9904520  20.3993490  59.7227670
  76.3574650  19.9252060  60.4689010  75.8009580  21.2735060  60.0636010
  68.8545010  15.1437180  55.8521140  68.5691930  14.7792850  56.6899760
  68.7923870  14.4117640  55.2384280  73.7803890  19.4402130  62.0411880
  73.4760960  20.3194110  62.2662240  74.7350350  19.5001920  62.0769320
  72.3085680  23.6463120  52.6378730  71.5347940  23.1060740  52.4777450
  73.0380310  23.1269730  52.2996490  83.0673660  22.6428480  58.4305120
  83.7872780  23.1383770  58.0401230  82.8655480  21.9646370  57.7858990
  78.5283600  14.0366440  52.5734510  77.7148210  13.5379610  52.4979820
  78.3345550  14.8764690  52.1570860  81.2431990  18.4086090  50.8696670
  82.1311610  18.7203320  50.6948010  81.2137080  17.5358340  50.4777250
  77.2392580  24.5809780  51.5484840  77.5808280  25.3252010  51.0528160
  76.4105290  24.8940900  51.9109670  69.8367620  20.2804870  63.1883240
  69.4782560  20.9458720  63.7756580  69.5422180  19.4488420  63.5595860
  73.0380740  20.7389110  66.0722790  72.7380880  20.8846290  65.1750610
  73.8091980  20.1794400  65.9796180  80.1219990  23.9025620  56.9130350
  80.4743810  23.3053750  56.2531720  79.2382320  23.5769850  57.0838600
  76.2083270  24.6623310  54.3200760  76.8954400  25.2092520  54.7008350
  75.4215690  25.2064040  54.3550370  68.3475670  20.2796130  49.8117840
  69.2170520  20.5620930  50.0953760  67.8565990  21.0932000  49.6966650
  71.4122260  12.0106990  54.4048640  71.2836890  12.0024890  55.3533560
  70.5884280  12.3490080  54.0539650  79.0875170  25.1808030  59.8795870
  79.7297400  24.4801190  59.9928040  79.6124520  25.9606470  59.6992760
  68.7146920  29.4923510  50.3779470  69.0744560  30.0912850  49.7236740
  68.5739260  30.0383400  51.1514500  68.4116190  13.7698110  63.8655340
  67.6974710  13.9695030  64.4707950  68.8311230  12.9937680  64.2370140
  82.5147140  23.3828590  51.2649170  82.2268840  23.8441280  52.0527050
  83.3099310  22.9226360  51.5333390  68.6988780  27.7578370  64.8521870
  68.8079900  26.8173110  64.7117260  68.0469340  28.0233120  64.2035600
  76.6901370  26.0294260  66.2519990  76.3698240  25.3103500  66.7965680
  76.0159730  26.7049330  66.3256050  74.7315540  26.8754710  51.1953140
  74.7225640  27.6084400  50.5797650  73.8113900  26.6286290  51.2880100
  70.3322180  22.0969600  51.9399900  69.7250130  22.8368500  51.9495200
  70.8071530  22.1868960  51.1138100  79.9054970  16.2620420  61.6156790
  80.2735790  15.4415630  61.9436360  79.0453170  16.3222310  62.0312440
  83.2717000  15.2177360  52.4244350  82.6430160  15.3223030  51.7102580
  82.7768920  15.4374140  53.2138230  76.8656960  18.9160010  61.8394760
  77.3642210  19.3905830  62.5046610  77.0079910  17.9923530  62.0464790
  79.2716460  14.2213970  55.2798020  79.1484240  14.2400100  54.3307530
  80.2201020  14.2692910  55.3996420  76.3593250  29.4569270  54.5526000
  76.6134750  29.4190660  53.6305370  75.4105730  29.3302600  54.5454250
  73.4436050  15.8048390  51.2152940  74.2926580  16.2418540  51.1493130
  73.0767320  16.1168650  52.0425000  82.3645830  20.3761150  56.1284510
  81.4235970  20.3911380  56.3032200  82.6789900  19.5897110  56.5744810
  72.3427470  22.0580750  49.6888470  73.1090740  21.9462110  50.2513900
  72.4202160  21.3618720  49.0365240  71.0374230  19.4905820  50.3721360
  71.1177820  18.5433330  50.4838760  71.9293980  19.8212700  50.4782020
  71.8388940  29.6401210  57.4755900  72.5751420  29.0916670  57.7464470
  72.2229860  30.5057220  57.3361890  68.7234420  25.7074780  53.3497410
  67.7974200  25.9495920  53.3402820  69.1890850  26.5349040  53.2282160
  74.9491250  28.8131520  49.2981470  75.7419860  29.1020350  48.8463260
  74.4295600  28.3823690  48.6193950  81.1112220  28.6607440  65.2226300
  82.0633970  28.5765460  65.1726540  80.9640440  29.3249150  65.8960090
  75.4668650  24.0334930  49.1623820  75.3619290  23.4187280  49.8885200
  75.2992870  23.5100820  48.3786830  75.6182970  22.7191730  65.1413050
  74.8528640  23.2876730  65.0567720  75.7998930  22.4267940  64.2481280
  78.7071380  23.0954960  49.7665810  78.1581480  23.5424260  50.4108550
  79.3290640  22.5904210  50.2903480  70.5968110  19.4550330  66.5027600
  70.6373450  19.1564200  67.4112830  71.4513610  19.8557940  66.3435120
  74.3746500  22.0545880  51.6631110  74.7962920  21.8885750  52.5062500
  74.4997340  21.2446110  51.1686250  72.5373920  18.0342430  64.4702090
  72.0070380  17.5433380  63.8425430  73.2061990  18.4626630  63.9360020
  76.8874140  21.0783490  48.9108210  77.4079800  20.3632510  48.5449360
  77.5342540  21.7169360  49.2108720  81.9074150  19.8408050  66.2382430
  82.4894920  19.0860370  66.1502910  82.0835920  20.3715490  65.4613910
  73.0246220  15.0004800  64.5499380  72.9303090  14.3825550  63.8250250
  72.4443610  15.7271090  64.3229290  75.7907660  13.5578040  61.5826770
  75.3424960  13.5802300  60.7372320  75.1572860  13.1597060  62.1797070
  76.1967210  22.4532370  62.2039210  76.6155320  23.2965100  62.0315450
  75.2775840  22.5904410  61.9745990  73.2705400  18.1279110  48.6089270
  73.0694460  17.2646470  48.9702610  73.0997450  18.0412470  47.6710870
  75.2999880  16.7269900  64.8452870  75.8899570  16.4185750  65.5330690
  74.4820120  16.2549650  65.0012770  80.7493710  12.9387340  51.1376150
  81.0296000  12.0955240  51.4935570  79.9759440  13.1710450  51.6514900
  72.0688200  15.2279730  48.5967150  72.3714100  15.2347160  47.6886300
  72.8082790  14.8777590  49.0934810  75.2873130  14.1714350  49.5823350
  74.9395130  13.4938340  49.0025800  75.4885900  13.7103860  50.3966740
  71.0918330  24.5322150  49.4296950  71.5293200  25.0751820  50.0854530
  71.5766060  23.7069100  49.4393290  68.3064130  27.3211180  56.8817210
  68.6367140  26.4532240  56.6495850  68.7355130  27.5269700  57.7122170
  72.9026050  25.6520190  54.5419180  72.6021590  25.5285160  55.4423090
  72.7963540  24.7928780  54.1334910  68.7954340  28.1881770  59.6198840
  68.3585330  28.3682570  60.4522990  69.3632020  28.9456390  59.4780560
  84.4316520  27.6898770  63.9076150  83.8318510  27.7491330  63.1640070
  84.5610420  26.7503750  64.0373000  86.1334400  23.0314170  56.5921990
  86.5043230  22.2481490  56.1857960  86.7736330  23.7203270  56.4139290
  81.5769210  15.4943290  50.2006210  81.9954090  15.3074270  49.3602870
  81.2705270  14.6422340  50.5109140  85.0758940  20.4067430  53.8982010
  84.7002540  19.6395360  53.4663300  84.3462060  20.7890130  54.3856940
  69.6654700  21.0854570  60.5191060  70.0327740  20.9981970  61.3987080
  69.0965520  20.3221120  60.4197920  84.4658560  19.5538950  63.5321530
  84.2344650  19.3251700  62.6319480  84.7263110  20.4738500  63.4866420
  69.2170700  17.9963660  64.4249480  68.3226750  17.9630420  64.7643190
  69.7568250  18.1950450  65.1900730  67.8416850  17.9100930  51.9213050
  66.9380930  18.1731130  51.7464710  68.3257470  18.1812100  51.1413010
  84.3509900  18.6324920  57.1989250  84.8747380  18.1387570  56.5679420
  84.9369320  18.7675280  57.9436820  84.5299620  18.7164790  60.7208800
  83.5802330  18.6828330  60.8353790  84.7112630  19.6264900  60.4858570
  70.3844060  16.9666470  49.8307430  71.0935760  16.5449690  49.3454710
  69.6684000  17.0341700  49.1990780  70.0318220  13.0205800  48.8710080
  70.7546350  13.5614740  49.1891300  70.3042740  12.7469220  47.9951620
  83.8409870  17.8898270  53.1381660  84.3368990  17.6569140  53.9230540
  83.6425940  17.0510110  52.7219300  69.7210410  12.2711990  58.7732700
  70.3686600  11.7209370  58.3327860  70.1412250  12.5255140  59.5948510
  85.2697030  16.5259220  55.6719340  85.1596310  16.3715260  56.6101610
  86.0304620  15.9980160  55.4294750  86.1587300  14.3567140  48.9125480
  87.0836610  14.2248320  48.7043770  86.1363090  14.4359960  49.8661930
  86.2325790  15.1277800  51.5382190  85.4377290  15.0622920  52.0675100
  86.4369070  16.0628440  51.5267540  69.4742410  12.4267660  61.5158020
  69.1257230  12.8831480  62.2816200  69.1430110  11.5324790  61.5980450
  71.0806780  25.5987260  65.6811210  71.0376410  25.2280170  66.5625670
  71.2117790  26.5364830  65.8213030  74.7812810  27.1546850  61.2820930
  74.5404170  27.4221410  60.3951450  75.7215450  27.3252580  61.3371790
  76.9867230  13.6179540  65.0377440  76.9256120  14.2101370  65.7872850
  77.9267610  13.5105500  64.8927700  86.0416970  29.1741230  62.0831570
  85.5475250  29.5710100  61.3658700  85.4330260  28.5490440  62.4768850
  70.1463050  11.9543860  64.7908790  70.6946040  11.7731910  64.0274900
  70.2118360  11.1637970  65.3265100  80.3649830  11.8381740  61.0039020
  79.4909670  12.1716850  60.8011950  80.2560580  11.3654920  61.8290890
  70.5507040  25.9107890  61.7517030  69.8241100  25.2913180  61.6842980
  70.6116190  26.3048500  60.8815110  74.1552140  28.1252890  58.5366440
  74.6717160  27.5140250  58.0114700  74.8049520  28.6281670  59.0277450
  76.8947640  29.0161380  59.3635420  77.1825450  28.7615680  58.4868430
  77.4070860  28.4638740  59.9540990  78.1124650  12.7551580  59.9431930
  77.3296440  13.2297080  60.2228690  77.8187580  11.8506410  59.8345110
  82.6645720  13.4574680  57.9881020  83.1053810  13.4019780  57.1402620
  82.3953310  14.3732690  58.0591200  84.5284290  13.0889920  55.9989840
  84.4672690  12.1451140  55.8520860  85.3076320  13.1970010  56.5443300
  68.8337040  29.2282280  54.9613790  68.6659080  28.5952960  55.6595680
  67.9671550  29.4341680  54.6107980  69.4565060  13.0599060  52.4645650
  70.2144420  13.1727940  51.8909680  68.9942230  13.8968260  52.4189080
  75.9978870  15.1738330  55.4547960  75.1853380  14.7995220  55.1143840
  76.5020510  14.4183410  55.7569150  80.5003850  11.8380780  56.6931030
  81.1033220  12.4100990  57.1679550  79.7596840  12.4020220  56.4704930
  83.6438450  12.2402340  51.9671310  83.8389080  13.1385790  52.2338740
  82.8568320  12.0089420  52.4604260  70.4399740  27.9215510  52.4063930
  69.9147360  28.3023540  51.7025890  70.3644320  28.5466280  53.1273640
  71.8290210  13.5863110  51.0047620  72.3582970  12.7992910  50.8755570
  72.4618530  14.2654300  51.2383150  74.0228050  13.3238250  54.0593010
  73.3930790  12.6225560  54.2263140  73.4833190  14.0842380  53.8426170
  74.1483610  12.6022230  66.4945500  73.8667880  13.1055830  65.7306320
  74.5303310  11.8043980  66.1287630  73.0392710  29.8697890  51.2813180
  73.7711530  29.5857170  50.7337070  73.2986380  29.6311170  52.1712560
  72.2007500  25.9862620  51.2859510  71.5716380  26.4547720  51.8345340
  72.3155330  25.1411840  51.7205700  83.5297560  29.1647340  66.5544660
  84.3222880  28.6696570  66.3470620  83.8230710  29.8437480  67.1620270
  79.6557220  20.0368280  37.4360710  79.5751270  19.1222890  37.1652420
  79.2421640  20.5335350  36.7300420  77.7875260  21.8147300  39.3169980
  77.0117360  21.3347740  39.6068550  78.4388190  21.1352950  39.1426140
  71.8041090  22.1267110  40.1945740  70.9725970  21.8715820  40.5942250
  72.4122070  22.1977880  40.9303660  81.8082690  26.2207490  38.0969110
  81.3464220  25.4494730  38.4256280  82.6208240  26.2473560  38.6021560
  70.2133040  17.0869000  33.9788130  69.3249740  17.4284970  33.8768010
  70.4974230  16.8869320  33.0868960  68.1766050  19.6874650  39.8627830
  68.7482160  18.9196850  39.8631470  68.1767590  19.9863410  38.9534440
  78.0346000  28.5065500  37.7173100  77.4157440  28.9623000  37.1467540
  78.8897780  28.6616960  37.3162800  77.2284250  24.4904490  39.3240140
  77.1592530  23.5494430  39.1629270  77.9904110  24.5805900  39.8962710
  69.4190920  15.0959010  41.6496760  69.2393760  14.1984760  41.9299520
  69.0171000  15.6430880  42.3243710  78.2589420  17.2974870  39.5509070
  78.6354240  16.4246750  39.4382740  78.1608930  17.6333570  38.6599510
  72.3894430  15.6700500  35.0126510  72.4961180  16.5704230  35.3195270
  71.4786790  15.6218470  34.7221160  82.0413540  14.7925310  36.4837410
  82.8623160  14.3021880  36.5262890  82.0747620  15.3822970  37.2369250
  70.0377590  17.5919510  40.2579100  70.7187700  17.8557880  40.8766500
  69.7225640  16.7520380  40.5917110  74.2302160  18.6386870  39.3451690
  74.7380380  19.1367840  39.9856710  74.7615400  17.8622070  39.1691050
  86.3313090  16.8092060  43.0481040  85.6265260  17.1973770  42.5296150
  86.5971010  17.5042350  43.6501970  72.5138260  13.2785430  43.6115110
  72.5156700  13.7957820  42.8061010  71.6842570  12.8015610  43.5885040
  78.9009350  23.3904740  35.1105010  78.2826620  23.8554190  34.5467730
  79.4132600  24.0832220  35.5274520  73.7641110  22.9180610  41.7888610
  73.4310490  23.5449530  42.4309680  73.9407790  23.4442490  41.0090280
  82.2775020  16.7325690  39.2564950  81.5730590  17.0210580  39.8368060
  82.6387180  17.5425800  38.8964510  72.1953590  14.9895390  41.6185560
  72.5370400  15.8337440  41.3239430  71.2569400  15.1379130  41.7350900
  68.2692550  24.0761270  32.4844640  67.8920530  24.5648370  31.7529540
  68.5265620  24.7486550  33.1151170  83.8937800  26.3500820  41.5192430
  83.2101320  27.0199930  41.5109100  84.4332090  26.5481470  40.7537290
  85.3461940  16.1780480  39.6474160  84.3986850  16.2119460  39.7789590
  85.6711930  16.9919430  40.0323520  75.8781480  12.4777660  37.9430150
  76.1856460  11.9224550  37.2265650  74.9482180  12.6122120  37.7603140
  81.4296540  28.1944950  40.2337610  81.4423700  27.7907240  39.3659870
  80.8771760  28.9692240  40.1299040  82.7241960  24.9161170  35.3227780
  82.6138290  23.9735500  35.4477200  82.7210210  25.2776810  36.2090540
  80.8281980  23.0974790  41.5620220  81.2450770  22.8834900  40.7273680
  81.5521800  23.3547580  42.1328840  78.2662240  20.5426490  34.6790270
  77.3391520  20.4763870  34.9078740  78.4187060  21.4806620  34.5645510
  78.2531320  16.8143490  31.6757430  77.3134990  16.9757450  31.7609890
  78.5714580  17.5329170  31.1293420  84.7744080  21.4962010  41.6536460
  83.9462710  21.5655100  41.1786590  85.3694560  22.0816320  41.1852290
  82.2959530  22.1046790  35.1825520  81.6771950  21.7666340  34.5351820
  82.2783980  21.4606550  35.8904710  81.7386090  18.2831330  42.5991330
  81.3257270  19.1085040  42.8531320  81.0062040  17.6976370  42.4067690
  73.8718880  21.0691230  37.4610000  73.4675880  20.3568480  36.9655900
  73.9582000  20.7244470  38.3498040  72.5847500  17.8434440  41.2409040
  73.1362090  17.9529780  40.4662290  73.0991010  18.2172040  41.9564270
  82.4286190  28.3290660  43.2872310  81.9516750  29.1362850  43.0944920
  81.7447980  27.6768990  43.4398520  73.4319010  24.4940480  46.2757010
  72.5347540  24.7180450  46.5230410  73.4571880  24.6175420  45.3268410
  80.4724230  21.3433600  32.1898270  80.9117510  20.5056030  32.0436090
  81.1852650  21.9763000  32.2762410  72.2590230  21.3653800  44.8514380
  72.1198000  22.2376600  45.2201780  71.3771590  21.0226610  44.7062320
  78.5819610  26.2829670  36.1579510  79.0215520  27.0254000  35.7434900
  78.5206500  26.5256240  37.0818470  84.0541370  12.5976410  30.5039310
  83.7414030  12.6903240  31.4038380  84.8153840  13.1757440  30.4536740
  70.5723510  19.9636210  34.9616650  70.4521110  20.6898300  34.3497920
  70.2624400  19.1939120  34.4844560  79.2735390  28.9843450  44.0858520
  79.7880060  28.8951460  44.8880950  78.4304470  29.3303150  44.3786430
  81.2489790  29.2698790  33.5142520  81.0890930  28.9801730  34.4124350
  81.0836500  28.4938920  32.9787750  73.7278170  29.0497320  35.2914140
  73.5520650  28.1332860  35.0781940  72.8733910  29.4084610  35.5311940
  80.9515920  26.7786350  32.0740520  80.2581080  26.7763640  31.4142800
  81.6938780  26.3545670  31.6434690  80.5165850  28.4049060  36.1489010
  80.9722800  27.6238440  36.4627630  80.8558370  29.1155880  36.6930190
  85.2642660  17.3347910  46.4813450  84.6486930  17.8427580  45.9528910
  84.9439080  16.4346240  46.4239390  73.0387170  13.3071280  38.3440320
  72.5955320  14.0880820  38.0124840  73.5972160  13.6301170  39.0511260
  77.3256980  16.1739800  43.9475640  76.8636350  16.3822820  44.7595580
  76.9235090  15.3599150  43.6446310  82.3261490  17.3948750  45.0772300
  81.4755080  17.0954500  45.3981370  82.1663280  17.6390760  44.1656120
  79.4211200  18.8950500  47.1771090  79.7464610  18.0614250  46.8373320
  80.2091530  19.4179020  47.3249420  76.1545990  12.9281980  33.2246150
  75.5300170  12.9241850  33.9499460  76.0676110  12.0612940  32.8282120
  75.0763070  13.8518610  40.2029920  75.3735400  14.7581440  40.1221940
  75.6248630  13.3637390  39.5889490  72.8301390  18.4304850  36.0721570
  72.6042310  18.2142020  36.9768190  72.0493920  18.8633310  35.7267540
  80.0599150  18.4368220  34.6712220  79.4608040  19.1604020  34.4875840
  80.6078760  18.3745000  33.8888670  75.2700600  19.3290430  46.7381840
  75.1744200  18.3885160  46.5882240  76.1132580  19.5505500  46.3429910
  78.6664020  17.0731760  36.7015500  79.0593590  17.3903960  35.8884190
  79.0280870  16.1943640  36.8160020  70.4011140  15.7404100  44.8915620
  70.0074530  16.5879310  45.0988400  69.7129540  15.1030470  45.0824260
  76.9756190  15.8239070  47.9612360  76.2854510  15.6311270  48.5958450
  77.7188490  16.1073710  48.4936660  67.7028190  13.6632560  38.9245700
  67.4141240  14.2335420  39.6370680  68.4473950  13.1837010  39.2876930
  67.8898420  17.6052680  30.1348420  67.8073090  18.5483440  30.2763410
  67.5381480  17.4627590  29.2560770  79.2519160  19.6637510  40.7966280
  78.5200280  20.1724320  41.1456380  78.8543500  18.8467490  40.4955060
  75.6896550  16.3391710  39.2018770  75.6932610  15.8981660  38.3523310
  76.5847670  16.6609040  39.3090590  71.5398930  16.2218200  38.1612980
  71.1998980  16.6993430  38.9180030  70.7776250  15.7683320  37.8014080
  75.7516700  17.3403790  32.1925530  75.8729520  17.2990270  33.1411350
  75.3665210  18.2027940  32.0372260  79.7145070  15.1171190  40.2089220
  79.7317810  15.5679840  41.0531070  79.4660650  14.2176830  40.4222660
  74.7638200  19.6504930  31.5908830  74.1955100  19.2023180  30.9644740
  75.4727200  20.0097710  31.0573980  83.1415820  12.5303370  46.0475600
  83.4661590  11.7993030  46.5733580  83.1772330  12.2117010  45.1456590
  69.8407380  23.5516950  45.4675560  69.4562170  22.9110620  46.0658520
  70.1519570  24.2553070  46.0370290  75.9904520  20.3993490  40.9484180
  76.3574650  19.9252060  41.6945520  75.8009580  21.2735060  41.2892520
  68.8545010  15.1437180  37.0777650  68.5691930  14.7792850  37.9156270
  68.7923870  14.4117640  36.4640790  73.7803890  19.4402130  43.2668390
  73.4760960  20.3194110  43.4918750  74.7350350  19.5001920  43.3025830
  72.3085680  23.6463120  33.8635240  71.5347940  23.1060740  33.7033960
  73.0380310  23.1269730  33.5253000  83.0673660  22.6428480  39.6561630
  83.7872780  23.1383770  39.2657740  82.8655480  21.9646370  39.0115500
  78.5283600  14.0366440  33.7991020  77.7148210  13.5379610  33.7236330
  78.3345550  14.8764690  33.3827370  78.4492460  22.7137540  45.5430630
  78.3829770  21.7933210  45.2888220  77.8197600  22.8112980  46.2575270
  81.2431990  18.4086090  32.0953180  82.1311610  18.7203320  31.9204520
  81.2137080  17.5358340  31.7033760  72.3523080  23.3143500  37.5014050
  72.8701750  22.5111760  37.4470940  71.9007100  23.2522640  38.3430880
  77.2392580  24.5809780  32.7741350  77.5808280  25.3252010  32.2784670
  76.4105290  24.8940900  33.1366180  69.8367620  20.2804870  44.4139750
  69.4782560  20.9458720  45.0013090  69.5422180  19.4488420  44.7852370
  73.0380740  20.7389110  47.2979300  72.7380880  20.8846290  46.4007120
  73.8091980  20.1794400  47.2052690  78.3809190  25.5358110  45.2934430
  78.3953730  24.6039070  45.0753340  77.6734290  25.6217870  45.9324200
  83.5146260  19.7197930  31.5633040  83.4309980  20.1512150  30.7129480
  84.2340450  20.1796280  31.9959860  84.5433510  26.5740190  34.2915170
  83.9009670  25.9195810  34.5658890  84.1564170  26.9795280  33.5155840
  80.1219990  23.9025620  38.1386860  80.4743810  23.3053750  37.4788230
  79.2382320  23.5769850  38.3095110  76.2083270  24.6623310  35.5457270
  76.8954400  25.2092520  35.9264860  75.4215690  25.2064040  35.5806880
  68.3475670  20.2796130  31.0374350  69.2170520  20.5620930  31.3210270
  67.8565990  21.0932000  30.9223160  75.5110480  21.6669340  35.1582630
  75.9673260  22.4774590  35.3842820  75.1598690  21.3492480  35.9901120
  77.8143090  27.1775680  42.3874930  78.4585310  27.3835060  43.0648350
  78.1772530  26.4164080  41.9345780  71.4122260  12.0106990  35.6305150
  71.2836890  12.0024890  36.5790070  70.5884280  12.3490080  35.2796160
  79.0875170  25.1808030  41.1052380  79.7297400  24.4801190  41.2184550
  79.6124520  25.9606470  40.9249270  82.9330890  25.4656650  30.8291520
  82.7068470  24.7487090  31.4216160  82.5427090  25.2169090  29.9913270
  80.8612790  25.9802930  44.3088440  81.1969030  26.5669620  44.9866360
  79.9413130  25.8495640  44.5386230  68.7146920  29.4923510  31.6035980
  69.0744560  30.0912850  30.9493250  68.5739260  30.0383400  32.3771010
  68.4116190  13.7698110  45.0911850  67.6974710  13.9695030  45.6964460
  68.8311230  12.9937680  45.4626650  82.5147140  23.3828590  32.4905680
  82.2268840  23.8441280  33.2783560  83.3099310  22.9226360  32.7589900
  76.6901370  26.0294260  47.4776500  76.3698240  25.3103500  48.0222190
  76.0159730  26.7049330  47.5512560  74.7315540  26.8754710  32.4209650
  74.7225640  27.6084400  31.8054160  73.8113900  26.6286290  32.5136610
  70.3322180  22.0969600  33.1656410  69.7250130  22.8368500  33.1751710
  70.8071530  22.1868960  32.3394610  79.9054970  16.2620420  42.8413300
  80.2735790  15.4415630  43.1692870  79.0453170  16.3222310  43.2568950
  83.2717000  15.2177360  33.6500860  82.6430160  15.3223030  32.9359090
  82.7768920  15.4374140  34.4394740  77.7175140  26.9382950  31.0834840
  77.8187120  26.7346940  30.1536820  76.8176880  26.6841230  31.2882620
  75.2401030  17.4963310  35.0658740  74.5317180  17.9649650  35.5072350
  75.5245510  16.8385320  35.7003930  76.8656960  18.9160010  43.0651270
  77.3642210  19.3905830  43.7303120  77.0079910  17.9923530  43.2721300
  79.2716460  14.2213970  36.5054530  79.1484240  14.2400100  35.5564040
  80.2201020  14.2692910  36.6252930  76.3593250  29.4569270  35.7782510
  76.6134750  29.4190660  34.8561880  75.4105730  29.3302600  35.7710760
  73.4436050  15.8048390  32.4409450  74.2926580  16.2418540  32.3749640
  73.0767320  16.1168650  33.2681510  84.0723820  15.1327970  43.9079660
  83.5697420  15.8733370  44.2473470  84.8880480  15.5211970  43.5916450
  82.3645830  20.3761150  37.3541020  81.4235970  20.3911380  37.5288710
  82.6789900  19.5897110  37.8001320  72.3427470  22.0580750  30.9144980
  73.1090740  21.9462110  31.4770410  72.4202160  21.3618720  30.2621750
  71.0374230  19.4905820  31.5977870  71.1177820  18.5433330  31.7095270
  71.9293980  19.8212700  31.7038530  84.3671410  27.5470000  39.0295280
  84.4918830  28.3701170  39.5019090  85.2336970  27.3360730  38.6819430
  68.7234420  25.7074780  34.5753920  67.7974200  25.9495920  34.5659330
  69.1890850  26.5349040  34.4538670  74.9491250  28.8131520  30.5237980
  75.7419860  29.1020350  30.0719770  74.4295600  28.3823690  29.8450460
  79.6811850  24.9327150  47.8373400  79.0750010  24.9558750  47.0969150
  79.3765960  24.2010190  48.3740650  81.1112220  28.6607440  46.4482810
  82.0633970  28.5765460  46.3983050  80.9640440  29.3249150  47.1216600
  84.0021420  28.0401650  31.9474720  83.7162930  27.6266790  31.1328900
  83.8040970  28.9689360  31.8275240  68.5645030  21.3120740  46.8334040
  69.0684050  20.7328020  47.4050270  67.8252450  21.5960970  47.3710410
  75.4668650  24.0334930  30.3880330  75.3619290  23.4187280  31.1141710
  75.2992870  23.5100820  29.6043340  75.6182970  22.7191730  46.3669560
  74.8528640  23.2876730  46.2824230  75.7998930  22.4267940  45.4737790
  78.7071380  23.0954960  30.9922320  78.1581480  23.5424260  31.6365060
  79.3290640  22.5904210  31.5159990  70.5968110  19.4550330  47.7284110
  70.6373450  19.1564200  48.6369340  71.4513610  19.8557940  47.5691630
  74.3746500  22.0545880  32.8887620  74.7962920  21.8885750  33.7319010
  74.4997340  21.2446110  32.3942760  72.5373920  18.0342430  45.6958600
  72.0070380  17.5433380  45.0681940  73.2061990  18.4626630  45.1616530
  76.8874140  21.0783490  30.1364720  77.4079800  20.3632510  29.7705870
  77.5342540  21.7169360  30.4365230  81.4351980  22.5011890  45.4599790
  81.8493000  22.6556970  46.3090210  80.5002980  22.6267110  45.6225570
  73.0246220  15.0004800  45.7755890  72.9303090  14.3825550  45.0506760
  72.4443610  15.7271090  45.5485800  75.7907660  13.5578040  42.8083280
  75.3424960  13.5802300  41.9628830  75.1572860  13.1597060  43.4053580
  76.1967210  22.4532370  43.4295720  76.6155320  23.2965100  43.2571960
  75.2775840  22.5904410  43.2002500  78.5331110  20.1848550  44.8133560
  78.6527320  19.5889690  45.5528400  79.3925110  20.2218240  44.3934860
  80.8719010  20.7385740  43.3896070  80.3454230  21.2628360  42.7861210
  81.2150350  21.3713130  44.0205800  73.2705400  18.1279110  29.8345780
  73.0694460  17.2646470  30.1959120  73.0997450  18.0412470  28.8967380
  75.2999880  16.7269900  46.0709380  75.8899570  16.4185750  46.7587200
  74.4820120  16.2549650  46.2269280  80.1193310  16.3435710  46.3042400
  79.4308830  15.6817250  46.2392390  80.8399330  15.8973980  46.7490860
  80.7493710  12.9387340  32.3632660  81.0296000  12.0955240  32.7192080
  79.9759440  13.1710450  32.8771410  72.0688200  15.2279730  29.8223660
  72.3714100  15.2347160  28.9142810  72.8082790  14.8777590  30.3191320
  75.2873130  14.1714350  30.8079860  74.9395130  13.4938340  30.2282310
  75.4885900  13.7103860  31.6223250  77.4522170  29.1595100  32.4266460
  78.3472960  29.4980070  32.4485220  77.4839800  28.4374510  31.7990740
  71.0918330  24.5322150  30.6553460  71.5293200  25.0751820  31.3111040
  71.5766060  23.7069100  30.6649800  85.6717970  25.4316590  30.4702370
  84.8410930  25.4993240  30.9409600  85.8489800  26.3220710  30.1669230
  85.1274430  22.1764070  32.9736570  85.8893340  22.7460720  33.0796260
  85.1428800  21.6091270  33.7444880  68.6278770  20.7002000  37.2044230
  67.9727610  20.4313640  36.5603930  69.4656720  20.5906480  36.7546210
  86.1334400  23.0314170  37.8178500  86.5043230  22.2481490  37.4114470
  86.7736330  23.7203270  37.6395800  83.1168160  24.4150750  43.2308820
  82.3028000  24.8447910  43.4934610  83.5242360  25.0269160  42.6177870
  85.1793600  22.4698440  30.1309090  85.4542440  23.3777320  30.0028310
  84.9904340  22.4060970  31.0671080  81.5769210  15.4943290  31.4262720
  81.9954090  15.3074270  30.5859380  81.2705270  14.6422340  31.7365650
  85.0758940  20.4067430  35.1238520  84.7002540  19.6395360  34.6919810
  84.3462060  20.7890130  35.6113450  69.6654700  21.0854570  41.7447570
  70.0327740  20.9981970  42.6243590  69.0965520  20.3221120  41.6454430
  69.2170700  17.9963660  45.6505990  68.3226750  17.9630420  45.9899700
  69.7568250  18.1950450  46.4157240  82.9046630  14.7795380  47.5357740
  83.7816810  14.7878780  47.9191740  82.9167470  14.0426220  46.9250090
  67.8416850  17.9100930  33.1469560  66.9380930  18.1731130  32.9721220
  68.3257470  18.1812100  32.3669520  84.3509900  18.6324920  38.4245760
  84.8747380  18.1387570  37.7935930  84.9369320  18.7675280  39.1693330
  84.5299620  18.7164790  41.9465310  83.5802330  18.6828330  42.0610300
  84.7112630  19.6264900  41.7115080  70.3844060  16.9666470  31.0563940
  71.0935760  16.5449690  30.5711220  69.6684000  17.0341700  30.4247290
  70.0318220  13.0205800  30.0966590  70.7546350  13.5614740  30.4147810
  70.3042740  12.7469220  29.2208130  83.8409870  17.8898270  34.3638170
  84.3368990  17.6569140  35.1487050  83.6425940  17.0510110  33.9475810
  69.7210410  12.2711990  39.9989210  70.3686600  11.7209370  39.5584370
  70.1412250  12.5255140  40.8205020  85.2697030  16.5259220  36.8975850
  85.1596310  16.3715260  37.8358120  86.0304620  15.9980160  36.6551260
  83.6162750  12.4653350  43.3558850  84.2534970  13.0787490  43.7218040
  83.7637640  12.5014010  42.4108080  86.1587300  14.3567140  30.1381990
  87.0836610  14.2248320  29.9300280  86.1363090  14.4359960  31.0918440
  86.2325790  15.1277800  32.7638700  85.4377290  15.0622920  33.2931610
  86.4369070  16.0628440  32.7524050  83.1744210  29.1669350  36.7577090
  83.7703280  28.8453920  36.0811510  83.4322360  28.6941170  37.5490360
  69.4742410  12.4267660  42.7414530  69.1257230  12.8831480  43.5072710
  69.1430110  11.5324790  42.8236960  76.9867230  13.6179540  46.2633950
  76.9256120  14.2101370  47.0129360  77.9267610  13.5105500  46.1184210
  79.6241790  13.2749600  45.9026240  80.2382200  13.5928890  45.2407320
  80.1691350  12.7898190  46.5222100  70.1463050  11.9543860  46.0165300
  70.6946040  11.7731910  45.2531410  70.2118360  11.1637970  46.5521610
  80.3649830  11.8381740  42.2295530  79.4909670  12.1716850  42.0268460
  80.2560580  11.3654920  43.0547400  81.2721810  14.0452610  43.6137250
  80.9435170  13.2304370  43.2338980  82.2204110  14.0022420  43.4902940
  83.7256420  29.8164650  40.5874820  83.2659390  30.5680460  40.2132840
  83.0968880  29.0971120  40.5289620  78.1124650  12.7551580  41.1688440
  77.3296440  13.2297080  41.4485200  77.8187580  11.8506410  41.0601620
  82.6645720  13.4574680  39.2137530  83.1053810  13.4019780  38.3659130
  82.3953310  14.3732690  39.2847710  84.5284290  13.0889920  37.2246350
  84.4672690  12.1451140  37.0777370  85.3076320  13.1970010  37.7699810
  69.4565060  13.0599060  33.6902160  70.2144420  13.1727940  33.1166190
  68.9942230  13.8968260  33.6445590  75.9978870  15.1738330  36.6804470
  75.1853380  14.7995220  36.3400350  76.5020510  14.4183410  36.9825660
  80.5003850  11.8380780  37.9187540  81.1033220  12.4100990  38.3936060
  79.7596840  12.4020220  37.6961440  83.6438450  12.2402340  33.1927820
  83.8389080  13.1385790  33.4595250  82.8568320  12.0089420  33.6860770
  70.4399740  27.9215510  33.6320440  69.9147360  28.3023540  32.9282400
  70.3644320  28.5466280  34.3530150  71.8290210  13.5863110  32.2304130
  72.3582970  12.7992910  32.1012080  72.4618530  14.2654300  32.4639660
  74.0228050  13.3238250  35.2849520  73.3930790  12.6225560  35.4519650
  73.4833190  14.0842380  35.0682680  76.9620000  29.9377480  47.9560130
  77.8887310  29.7021750  47.9996090  76.9470430  30.7649480  47.4746160
  85.1965060  29.4803050  34.9534380  85.3717250  28.7940790  34.3095300
  84.4986630  30.0050100  34.5611050  74.1483610  12.6022230  47.7202010
  73.8667880  13.1055830  46.9562830  74.5303310  11.8043980  47.3544140
  73.0392710  29.8697890  32.5069690  73.7711530  29.5857170  31.9593580
  73.2986380  29.6311170  33.3969070  72.2007500  25.9862620  32.5116020
  71.5716380  26.4547720  33.0601850  72.3155330  25.1411840  32.9462210
  80.7499070  12.0175810  48.2982480  80.6364520  12.3370420  49.1934000
  81.5668810  12.4188320  48.0019760  79.6557220  20.0368280  18.6617220
  79.5751270  19.1222890  18.3908930  79.2421640  20.5335350  17.9556930
  77.7875260  21.8147300  20.5426490  77.0117360  21.3347740  20.8325060
  78.4388190  21.1352950  20.3682650  71.8041090  22.1267110  21.4202250
  70.9725970  21.8715820  21.8198760  72.4122070  22.1977880  22.1560170
  81.8082690  26.2207490  19.3225620  81.3464220  25.4494730  19.6512790
  82.6208240  26.2473560  19.8278070  71.7842350  26.1607200  21.6160270
  72.0870390  25.2704940  21.4370490  72.5285940  26.7177420  21.3882520
  70.2133040  17.0869000  15.2044640  69.3249740  17.4284970  15.1024520
  70.4974230  16.8869320  14.3125470  68.1766050  19.6874650  21.0884340
  68.7482160  18.9196850  21.0887980  68.1767590  19.9863410  20.1790950
  78.0346000  28.5065500  18.9429610  77.4157440  28.9623000  18.3724050
  78.8897780  28.6616960  18.5419310  77.2284250  24.4904490  20.5496650
  77.1592530  23.5494430  20.3885780  77.9904110  24.5805900  21.1219220
  69.4190920  15.0959010  22.8753270  69.2393760  14.1984760  23.1556030
  69.0171000  15.6430880  23.5500220  78.2589420  17.2974870  20.7765580
  78.6354240  16.4246750  20.6639250  78.1608930  17.6333570  19.8856020
  72.3894430  15.6700500  16.2383020  72.4961180  16.5704230  16.5451780
  71.4786790  15.6218470  15.9477670  82.0413540  14.7925310  17.7093920
  82.8623160  14.3021880  17.7519400  82.0747620  15.3822970  18.4625760
  70.0377590  17.5919510  21.4835610  70.7187700  17.8557880  22.1023010
  69.7225640  16.7520380  21.8173620  74.2302160  18.6386870  20.5708200
  74.7380380  19.1367840  21.2113220  74.7615400  17.8622070  20.3947560
  86.3313090  16.8092060  24.2737550  85.6265260  17.1973770  23.7552660
  86.5971010  17.5042350  24.8758480  72.5138260  13.2785430  24.8371620
  72.5156700  13.7957820  24.0317520  71.6842570  12.8015610  24.8141550
  78.9009350  23.3904740  16.3361520  78.2826620  23.8554190  15.7724240
  79.4132600  24.0832220  16.7531030  73.7641110  22.9180610  23.0145120
  73.4310490  23.5449530  23.6566190  73.9407790  23.4442490  22.2346790
  82.2775020  16.7325690  20.4821460  81.5730590  17.0210580  21.0624570
  82.6387180  17.5425800  20.1221020  72.1953590  14.9895390  22.8442070
  72.5370400  15.8337440  22.5495940  71.2569400  15.1379130  22.9607410
  72.9760210  24.8861410  24.8294300  73.5934210  25.5612490  24.5478750
  72.1153330  25.2949390  24.7381800  68.2692550  24.0761270  13.7101150
  67.8920530  24.5648370  12.9786050  68.5265620  24.7486550  14.3407680
  83.8937800  26.3500820  22.7448940  83.2101320  27.0199930  22.7365610
  84.4332090  26.5481470  21.9793800  85.3461940  16.1780480  20.8730670
  84.3986850  16.2119460  21.0046100  85.6711930  16.9919430  21.2580030
  75.8781480  12.4777660  19.1686660  76.1856460  11.9224550  18.4522160
  74.9482180  12.6122120  18.9859650  81.4296540  28.1944950  21.4594120
  81.4423700  27.7907240  20.5916380  80.8771760  28.9692240  21.3555550
  82.7241960  24.9161170  16.5484290  82.6138290  23.9735500  16.6733710
  82.7210210  25.2776810  17.4347050  80.8281980  23.0974790  22.7876730
  81.2450770  22.8834900  21.9530190  81.5521800  23.3547580  23.3585350
  78.2662240  20.5426490  15.9046780  77.3391520  20.4763870  16.1335250
  78.4187060  21.4806620  15.7902020  78.2531320  16.8143490  12.9013940
  77.3134990  16.9757450  12.9866400  78.5714580  17.5329170  12.3549930
  84.7744080  21.4962010  22.8792970  83.9462710  21.5655100  22.4043100
  85.3694560  22.0816320  22.4108800  82.2959530  22.1046790  16.4082030
  81.6771950  21.7666340  15.7608330  82.2783980  21.4606550  17.1161220
  81.7386090  18.2831330  23.8247840  81.3257270  19.1085040  24.0787830
  81.0062040  17.6976370  23.6324200  73.8718880  21.0691230  18.6866510
  73.4675880  20.3568480  18.1912410  73.9582000  20.7244470  19.5754550
  74.3400580  24.7558790  20.8505720  74.0428870  24.1504260  20.1713500
  75.2900400  24.7936100  20.7395080  72.5847500  17.8434440  22.4665550
  73.1362090  17.9529780  21.6918800  73.0991010  18.2172040  23.1820780
  82.4286190  28.3290660  24.5128820  81.9516750  29.1362850  24.3201430
  81.7447980  27.6768990  24.6655030  73.4319010  24.4940480  27.5013520
  72.5347540  24.7180450  27.7486920  73.4571880  24.6175420  26.5524920
  80.4724230  21.3433600  13.4154780  80.9117510  20.5056030  13.2692600
  81.1852650  21.9763000  13.5018920  72.2590230  21.3653800  26.0770890
  72.1198000  22.2376600  26.4458290  71.3771590  21.0226610  25.9318830
  78.5819610  26.2829670  17.3836020  79.0215520  27.0254000  16.9691410
  78.5206500  26.5256240  18.3074980  74.0570580  27.3075500  28.2856040
  74.0286010  27.7118450  27.4184470  73.8935550  26.3785860  28.1227640
  84.0541370  12.5976410  11.7295820  83.7414030  12.6903240  12.6294890
  84.8153840  13.1757440  11.6793250  70.5723510  19.9636210  16.1873160
  70.4521110  20.6898300  15.5754430  70.2624400  19.1939120  15.7101070
  86.0085400  28.0902600  29.5820210  86.4845120  28.5685490  30.2609290
  86.6292560  28.0220090  28.8565710  68.2108880  23.1351350  21.9941800
  68.2889300  23.2700120  21.0497520  68.8250560  22.4267240  22.1869920
  69.4556510  24.8351540  18.4047980  69.0484590  24.9766130  17.5501580
  70.3469520  24.5511700  18.2019190  85.4118650  25.2815450  26.7420220
  85.5381710  25.0427330  25.8237400  85.4540030  24.4499990  27.2142300
  79.2735390  28.9843450  25.3115030  79.7880060  28.8951460  26.1137460
  78.4304470  29.3303150  25.6042940  81.2489790  29.2698790  14.7399030
  81.0890930  28.9801730  15.6380860  81.0836500  28.4938920  14.2044260
  73.7278170  29.0497320  16.5170650  73.5520650  28.1332860  16.3038450
  72.8733910  29.4084610  16.7568450  80.9515920  26.7786350  13.2997030
  80.2581080  26.7763640  12.6399310  81.6938780  26.3545670  12.8691200
  80.5165850  28.4049060  17.3745520  80.9722800  27.6238440  17.6884140
  80.8558370  29.1155880  17.9186700  85.2642660  17.3347910  27.7069960
  84.6486930  17.8427580  27.1785420  84.9439080  16.4346240  27.6495900
  68.2668400  24.1765520  24.5336260  68.4299440  23.7070880  23.7155630
  68.7320850  23.6689080  25.1985100  73.0387170  13.3071280  19.5696830
  72.5955320  14.0880820  19.2381350  73.5972160  13.6301170  20.2767770
  77.3256980  16.1739800  25.1732150  76.8636350  16.3822820  25.9852090
  76.9235090  15.3599150  24.8702820  82.3261490  17.3948750  26.3028810
  81.4755080  17.0954500  26.6237880  82.1663280  17.6390760  25.3912630
  79.4211200  18.8950500  28.4027600  79.7464610  18.0614250  28.0629830
  80.2091530  19.4179020  28.5505930  76.1545990  12.9281980  14.4502660
  75.5300170  12.9241850  15.1755970  76.0676110  12.0612940  14.0538630
  75.0763070  13.8518610  21.4286430  75.3735400  14.7581440  21.3478450
  75.6248630  13.3637390  20.8146000  72.8301390  18.4304850  17.2978080
  72.6042310  18.2142020  18.2024700  72.0493920  18.8633310  16.9524050
  80.0599150  18.4368220  15.8968730  79.4608040  19.1604020  15.7132350
  80.6078760  18.3745000  15.1145180  75.2700600  19.3290430  27.9638350
  75.1744200  18.3885160  27.8138750  76.1132580  19.5505500  27.5686420
  78.6664020  17.0731760  17.9272010  79.0593590  17.3903960  17.1140700
  79.0280870  16.1943640  18.0416530  70.4011140  15.7404100  26.1172130
  70.0074530  16.5879310  26.3244910  69.7129540  15.1030470  26.3080770
  76.9756190  15.8239070  29.1868870  76.2854510  15.6311270  29.8214960
  77.7188490  16.1073710  29.7193170  67.7028190  13.6632560  20.1502210
  67.4141240  14.2335420  20.8627190  68.4473950  13.1837010  20.5133440
  67.8898420  17.6052680  11.3604930  67.8073090  18.5483440  11.5019920
  67.5381480  17.4627590  10.4817280  79.2519160  19.6637510  22.0222790
  78.5200280  20.1724320  22.3712890  78.8543500  18.8467490  21.7211570
  75.6896550  16.3391710  20.4275280  75.6932610  15.8981660  19.5779820
  76.5847670  16.6609040  20.5347100  71.5398930  16.2218200  19.3869490
  71.1998980  16.6993430  20.1436540  70.7776250  15.7683320  19.0270590
  75.7516700  17.3403790  13.4182040  75.8729520  17.2990270  14.3667860
  75.3665210  18.2027940  13.2628770  79.7145070  15.1171190  21.4345730
  79.7317810  15.5679840  22.2787580  79.4660650  14.2176830  21.6479170
  74.7638200  19.6504930  12.8165340  74.1955100  19.2023180  12.1901250
  75.4727200  20.0097710  12.2830490  83.1415820  12.5303370  27.2732110
  83.4661590  11.7993030  27.7990090  83.1772330  12.2117010  26.3713100
  69.8407380  23.5516950  26.6932070  69.4562170  22.9110620  27.2915030
  70.1519570  24.2553070  27.2626800  75.9904520  20.3993490  22.1740690
  76.3574650  19.9252060  22.9202030  75.8009580  21.2735060  22.5149030
  68.8545010  15.1437180  18.3034160  68.5691930  14.7792850  19.1412780
  68.7923870  14.4117640  17.6897300  73.7803890  19.4402130  24.4924900
  73.4760960  20.3194110  24.7175260  74.7350350  19.5001920  24.5282340
  72.3085680  23.6463120  15.0891750  71.5347940  23.1060740  14.9290470
  73.0380310  23.1269730  14.7509510  83.0673660  22.6428480  20.8818140
  83.7872780  23.1383770  20.4914250  82.8655480  21.9646370  20.2372010
  78.5283600  14.0366440  15.0247530  77.7148210  13.5379610  14.9492840
  78.3345550  14.8764690  14.6083880  78.4492460  22.7137540  26.7687140
  78.3829770  21.7933210  26.5144730  77.8197600  22.8112980  27.4831780
  81.2431990  18.4086090  13.3209690  82.1311610  18.7203320  13.1461030
  81.2137080  17.5358340  12.9290270  72.3523080  23.3143500  18.7270560
  72.8701750  22.5111760  18.6727450  71.9007100  23.2522640  19.5687390
  77.2392580  24.5809780  13.9997860  77.5808280  25.3252010  13.5041180
  76.4105290  24.8940900  14.3622690  69.8367620  20.2804870  25.6396260
  69.4782560  20.9458720  26.2269600  69.5422180  19.4488420  26.0108880
  73.0380740  20.7389110  28.5235810  72.7380880  20.8846290  27.6263630
  73.8091980  20.1794400  28.4309200  78.3809190  25.5358110  26.5190940
  78.3953730  24.6039070  26.3009850  77.6734290  25.6217870  27.1580710
  83.5146260  19.7197930  12.7889550  83.4309980  20.1512150  11.9385990
  84.2340450  20.1796280  13.2216370  84.5920400  22.1765450  25.8659520
  83.8668590  22.7694230  25.6688910  85.1195860  22.1688990  25.0672890
  84.5433510  26.5740190  15.5171680  83.9009670  25.9195810  15.7915400
  84.1564170  26.9795280  14.7412350  80.1219990  23.9025620  19.3643370
  80.4743810  23.3053750  18.7044740  79.2382320  23.5769850  19.5351620
  76.2083270  24.6623310  16.7713780  76.8954400  25.2092520  17.1521370
  75.4215690  25.2064040  16.8063390  68.3475670  20.2796130  12.2630860
  69.2170520  20.5620930  12.5466780  67.8565990  21.0932000  12.1479670
  75.5110480  21.6669340  16.3839140  75.9673260  22.4774590  16.6099330
  75.1598690  21.3492480  17.2157630  77.8143090  27.1775680  23.6131440
  78.4585310  27.3835060  24.2904860  78.1772530  26.4164080  23.1602290
  71.4122260  12.0106990  16.8561660  71.2836890  12.0024890  17.8046580
  70.5884280  12.3490080  16.5052670  79.0875170  25.1808030  22.3308890
  79.7297400  24.4801190  22.4441060  79.6124520  25.9606470  22.1505780
  82.9330890  25.4656650  12.0548030  82.7068470  24.7487090  12.6472670
  82.5427090  25.2169090  11.2169780  80.8612790  25.9802930  25.5344950
  81.1969030  26.5669620  26.2122870  79.9413130  25.8495640  25.7642740
  68.7146920  29.4923510  12.8292490  69.0744560  30.0912850  12.1749760
  68.5739260  30.0383400  13.6027520  68.4116190  13.7698110  26.3168360
  67.6974710  13.9695030  26.9220970  68.8311230  12.9937680  26.6883160
  82.5147140  23.3828590  13.7162190  82.2268840  23.8441280  14.5040070
  83.3099310  22.9226360  13.9846410  68.6988780  27.7578370  27.3034890
  68.8079900  26.8173110  27.1630280  68.0469340  28.0233120  26.6548620
  76.6901370  26.0294260  28.7033010  76.3698240  25.3103500  29.2478700
  76.0159730  26.7049330  28.7769070  74.7315540  26.8754710  13.6466160
  74.7225640  27.6084400  13.0310670  73.8113900  26.6286290  13.7393120
  70.3322180  22.0969600  14.3912920  69.7250130  22.8368500  14.4008220
  70.8071530  22.1868960  13.5651120  79.9054970  16.2620420  24.0669810
  80.2735790  15.4415630  24.3949380  79.0453170  16.3222310  24.4825460
  83.2717000  15.2177360  14.8757370  82.6430160  15.3223030  14.1615600
  82.7768920  15.4374140  15.6651250  77.7175140  26.9382950  12.3091350
  77.8187120  26.7346940  11.3793330  76.8176880  26.6841230  12.5139130
  75.2401030  17.4963310  16.2915250  74.5317180  17.9649650  16.7328860
  75.5245510  16.8385320  16.9260440  76.8656960  18.9160010  24.2907780
  77.3642210  19.3905830  24.9559630  77.0079910  17.9923530  24.4977810
  79.2716460  14.2213970  17.7311040  79.1484240  14.2400100  16.7820550
  80.2201020  14.2692910  17.8509440  76.3593250  29.4569270  17.0039020
  76.6134750  29.4190660  16.0818390  75.4105730  29.3302600  16.9967270
  73.4436050  15.8048390  13.6665960  74.2926580  16.2418540  13.6006150
  73.0767320  16.1168650  14.4938020  84.0723820  15.1327970  25.1336170
  83.5697420  15.8733370  25.4729980  84.8880480  15.5211970  24.8172960
  82.3645830  20.3761150  18.5797530  81.4235970  20.3911380  18.7545220
  82.6789900  19.5897110  19.0257830  72.3427470  22.0580750  12.1401490
  73.1090740  21.9462110  12.7026920  72.4202160  21.3618720  11.4878260
  71.0374230  19.4905820  12.8234380  71.1177820  18.5433330  12.9351780
  71.9293980  19.8212700  12.9295040  84.3671410  27.5470000  20.2551790
  84.4918830  28.3701170  20.7275600  85.2336970  27.3360730  19.9075940
  71.8388940  29.6401210  19.9268920  72.5751420  29.0916670  20.1977490
  72.2229860  30.5057220  19.7874910  68.7234420  25.7074780  15.8010430
  67.7974200  25.9495920  15.7915840  69.1890850  26.5349040  15.6795180
  70.8447220  28.8247280  29.1154500  71.6459950  29.1459330  29.5289900
  70.3299040  28.4642860  29.8374410  74.9491250  28.8131520  11.7494490
  75.7419860  29.1020350  11.2976280  74.4295600  28.3823690  11.0706970
  79.6811850  24.9327150  29.0629910  79.0750010  24.9558750  28.3225660
  79.3765960  24.2010190  29.5997160  81.1112220  28.6607440  27.6739320
  82.0633970  28.5765460  27.6239560  80.9640440  29.3249150  28.3473110
  84.0021420  28.0401650  13.1731230  83.7162930  27.6266790  12.3585410
  83.8040970  28.9689360  13.0531750  68.5645030  21.3120740  28.0590550
  69.0684050  20.7328020  28.6306780  67.8252450  21.5960970  28.5966920
  75.4668650  24.0334930  11.6136840  75.3619290  23.4187280  12.3398220
  75.2992870  23.5100820  10.8299850  75.6182970  22.7191730  27.5926070
  74.8528640  23.2876730  27.5080740  75.7998930  22.4267940  26.6994300
  78.7071380  23.0954960  12.2178830  78.1581480  23.5424260  12.8621570
  79.3290640  22.5904210  12.7416500  82.7606320  24.4497060  28.1501090
  83.5015790  24.7872820  27.6468550  81.9979000  24.6189120  27.5970860
  70.5968110  19.4550330  28.9540620  70.6373450  19.1564200  29.8625850
  71.4513610  19.8557940  28.7948140  74.3746500  22.0545880  14.1144130
  74.7962920  21.8885750  14.9575520  74.4997340  21.2446110  13.6199270
  72.5373920  18.0342430  26.9215110  72.0070380  17.5433380  26.2938450
  73.2061990  18.4626630  26.3873040  76.8874140  21.0783490  11.3621230
  77.4079800  20.3632510  10.9962380  77.5342540  21.7169360  11.6621740
  81.4351980  22.5011890  26.6856300  81.8493000  22.6556970  27.5346720
  80.5002980  22.6267110  26.8482080  81.9074150  19.8408050  28.6895450
  82.4894920  19.0860370  28.6015930  82.0835920  20.3715490  27.9126930
  73.0246220  15.0004800  27.0012400  72.9303090  14.3825550  26.2763270
  72.4443610  15.7271090  26.7742310  75.7907660  13.5578040  24.0339790
  75.3424960  13.5802300  23.1885340  75.1572860  13.1597060  24.6310090
  76.1967210  22.4532370  24.6552230  76.6155320  23.2965100  24.4828470
  75.2775840  22.5904410  24.4259010  78.5331110  20.1848550  26.0390070
  78.6527320  19.5889690  26.7784910  79.3925110  20.2218240  25.6191370
  80.8719010  20.7385740  24.6152580  80.3454230  21.2628360  24.0117720
  81.2150350  21.3713130  25.2462310  73.2705400  18.1279110  11.0602290
  73.0694460  17.2646470  11.4215630  73.0997450  18.0412470  10.1223890
  74.0474630  28.7585380  25.7709960  73.5095720  29.4831440  25.4518660
  74.3008590  28.2815720  24.9807300  75.2999880  16.7269900  27.2965890
  75.8899570  16.4185750  27.9843710  74.4820120  16.2549650  27.4525790
  80.1193310  16.3435710  27.5298910  79.4308830  15.6817250  27.4648900
  80.8399330  15.8973980  27.9747370  80.7493710  12.9387340  13.5889170
  81.0296000  12.0955240  13.9448590  79.9759440  13.1710450  14.1027920
  72.0688200  15.2279730  11.0480170  72.3714100  15.2347160  10.1399320
  72.8082790  14.8777590  11.5447830  76.9036840  29.9936590  26.0296610
  76.8295540  30.8971730  26.3368980  76.0015680  29.6748490  26.0018680
  75.2873130  14.1714350  12.0336370  74.9395130  13.4938340  11.4538820
  75.4885900  13.7103860  12.8479760  77.4522170  29.1595100  13.6522970
  78.3472960  29.4980070  13.6741730  77.4839800  28.4374510  13.0247250
  71.0918330  24.5322150  11.8809970  71.5293200  25.0751820  12.5367550
  71.5766060  23.7069100  11.8906310  68.3064130  27.3211180  19.3330230
  68.6367140  26.4532240  19.1008870  68.7355130  27.5269700  20.1635190
  72.9026050  25.6520190  16.9932200  72.6021590  25.5285160  17.8936110
  72.7963540  24.7928780  16.5847930  68.7954340  28.1881770  22.0711860
  68.3585330  28.3682570  22.9036010  69.3632020  28.9456390  21.9293580
  84.4316520  27.6898770  26.3589170  83.8318510  27.7491330  25.6153090
  84.5610420  26.7503750  26.4886020  85.6717970  25.4316590  11.6958880
  84.8410930  25.4993240  12.1666110  85.8489800  26.3220710  11.3925740
  85.1274430  22.1764070  14.1993080  85.8893340  22.7460720  14.3052770
  85.1428800  21.6091270  14.9701390  68.6278770  20.7002000  18.4300740
  67.9727610  20.4313640  17.7860440  69.4656720  20.5906480  17.9802720
  86.1334400  23.0314170  19.0435010  86.5043230  22.2481490  18.6370980
  86.7736330  23.7203270  18.8652310  83.1168160  24.4150750  24.4565330
  82.3028000  24.8447910  24.7191120  83.5242360  25.0269160  23.8434380
  85.1793600  22.4698440  11.3565600  85.4542440  23.3777320  11.2284820
  84.9904340  22.4060970  12.2927590  81.5769210  15.4943290  12.6519230
  81.9954090  15.3074270  11.8115890  81.2705270  14.6422340  12.9622160
  85.0758940  20.4067430  16.3495030  84.7002540  19.6395360  15.9176320
  84.3462060  20.7890130  16.8369960  69.6654700  21.0854570  22.9704080
  70.0327740  20.9981970  23.8500100  69.0965520  20.3221120  22.8710940
  84.4658560  19.5538950  25.9834550  84.2344650  19.3251700  25.0832500
  84.7263110  20.4738500  25.9379440  69.2170700  17.9963660  26.8762500
  68.3226750  17.9630420  27.2156210  69.7568250  18.1950450  27.6413750
  82.9046630  14.7795380  28.7614250  83.7816810  14.7878780  29.1448250
  82.9167470  14.0426220  28.1506600  67.8416850  17.9100930  14.3726070
  66.9380930  18.1731130  14.1977730  68.3257470  18.1812100  13.5926030
  84.3509900  18.6324920  19.6502270  84.8747380  18.1387570  19.0192440
  84.9369320  18.7675280  20.3949840  84.5299620  18.7164790  23.1721820
  83.5802330  18.6828330  23.2866810  84.7112630  19.6264900  22.9371590
  70.3844060  16.9666470  12.2820450  71.0935760  16.5449690  11.7967730
  69.6684000  17.0341700  11.6503800  70.0318220  13.0205800  11.3223100
  70.7546350  13.5614740  11.6404320  70.3042740  12.7469220  10.4464640
  83.8409870  17.8898270  15.5894680  84.3368990  17.6569140  16.3743560
  83.6425940  17.0510110  15.1732320  69.7210410  12.2711990  21.2245720
  70.3686600  11.7209370  20.7840880  70.1412250  12.5255140  22.0461530
  85.2697030  16.5259220  18.1232360  85.1596310  16.3715260  19.0614630
  86.0304620  15.9980160  17.8807770  83.6162750  12.4653350  24.5815360
  84.2534970  13.0787490  24.9474550  83.7637640  12.5014010  23.6364590
  86.1587300  14.3567140  11.3638500  87.0836610  14.2248320  11.1556790
  86.1363090  14.4359960  12.3174950  86.2325790  15.1277800  13.9895210
  85.4377290  15.0622920  14.5188120  86.4369070  16.0628440  13.9780560
  83.1744210  29.1669350  17.9833600  83.7703280  28.8453920  17.3068020
  83.4322360  28.6941170  18.7746870  69.4742410  12.4267660  23.9671040
  69.1257230  12.8831480  24.7329220  69.1430110  11.5324790  24.0493470
  71.0806780  25.5987260  28.1324230  71.0376410  25.2280170  29.0138690
  71.2117790  26.5364830  28.2726050  74.7812810  27.1546850  23.7333950
  74.5404170  27.4221410  22.8464470  75.7215450  27.3252580  23.7884810
  76.9867230  13.6179540  27.4890460  76.9256120  14.2101370  28.2385870
  77.9267610  13.5105500  27.3440720  79.6241790  13.2749600  27.1282750
  80.2382200  13.5928890  26.4663830  80.1691350  12.7898190  27.7478610
  86.0416970  29.1741230  24.5344590  85.5475250  29.5710100  23.8171720
  85.4330260  28.5490440  24.9281870  70.1463050  11.9543860  27.2421810
  70.6946040  11.7731910  26.4787920  70.2118360  11.1637970  27.7778120
  70.9194810  28.5449510  25.2522010  70.3255130  28.4134210  25.9912050
  70.9118650  27.7087650  24.7864110  80.3649830  11.8381740  23.4552040
  79.4909670  12.1716850  23.2524970  80.2560580  11.3654920  24.2803910
  81.2721810  14.0452610  24.8393760  80.9435170  13.2304370  24.4595490
  82.2204110  14.0022420  24.7159450  83.7256420  29.8164650  21.8131330
  83.2659390  30.5680460  21.4389350  83.0968880  29.0971120  21.7546130
  70.5507040  25.9107890  24.2030050  69.8241100  25.2913180  24.1356000
  70.6116190  26.3048500  23.3328130  74.1552140  28.1252890  20.9879460
  74.6717160  27.5140250  20.4627720  74.8049520  28.6281670  21.4790470
  76.8947640  29.0161380  21.8148440  77.1825450  28.7615680  20.9381450
  77.4070860  28.4638740  22.4054010  78.1124650  12.7551580  22.3944950
  77.3296440  13.2297080  22.6741710  77.8187580  11.8506410  22.2858130
  82.6645720  13.4574680  20.4394040  83.1053810  13.4019780  19.5915640
  82.3953310  14.3732690  20.5104220  84.5284290  13.0889920  18.4502860
  84.4672690  12.1451140  18.3033880  85.3076320  13.1970010  18.9956320
  68.8337040  29.2282280  17.4126810  68.6659080  28.5952960  18.1108700
  67.9671550  29.4341680  17.0621000  69.4565060  13.0599060  14.9158670
  70.2144420  13.1727940  14.3422700  68.9942230  13.8968260  14.8702100
  75.9978870  15.1738330  17.9060980  75.1853380  14.7995220  17.5656860
  76.5020510  14.4183410  18.2082170  80.5003850  11.8380780  19.1444050
  81.1033220  12.4100990  19.6192570  79.7596840  12.4020220  18.9217950
  83.6438450  12.2402340  14.4184330  83.8389080  13.1385790  14.6851760
  82.8568320  12.0089420  14.9117280  70.4399740  27.9215510  14.8576950
  69.9147360  28.3023540  14.1538910  70.3644320  28.5466280  15.5786660
  71.8290210  13.5863110  13.4560640  72.3582970  12.7992910  13.3268590
  72.4618530  14.2654300  13.6896170  74.0228050  13.3238250  16.5106030
  73.3930790  12.6225560  16.6776160  73.4833190  14.0842380  16.2939190
  76.9620000  29.9377480  29.1816640  77.8887310  29.7021750  29.2252600
  76.9470430  30.7649480  28.7002670  85.1965060  29.4803050  16.1790890
  85.3717250  28.7940790  15.5351810  84.4986630  30.0050100  15.7867560
  74.1483610  12.6022230  28.9458520  73.8667880  13.1055830  28.1819340
  74.5303310  11.8043980  28.5800650  73.0392710  29.8697890  13.7326200
  73.7711530  29.5857170  13.1850090  73.2986380  29.6311170  14.6225580
  72.2007500  25.9862620  13.7372530  71.5716380  26.4547720  14.2858360
  72.3155330  25.1411840  14.1718720  80.7499070  12.0175810  29.5238990
  80.6364520  12.3370420  30.4190510  81.5668810  12.4188320  29.2276270
  83.5297560  29.1647340  29.0057680  84.3222880  28.6696570  28.7983640
  83.8230710  29.8437480  29.6133290  77.7875260  21.8147300   1.7683000
  77.0117360  21.3347740   2.0581570  78.4388190  21.1352950   1.5939160
  71.8041090  22.1267110   2.6458760  70.9725970  21.8715820   3.0455270
  72.4122070  22.1977880   3.3816680  71.7842350  26.1607200   2.8416780
  72.0870390  25.2704940   2.6627000  72.5285940  26.7177420   2.6139030
  77.2284250  24.4904490   1.7753160  77.1592530  23.5494430   1.6142290
  77.9904110  24.5805900   2.3475730  69.4190920  15.0959010   4.1009780
  69.2393760  14.1984760   4.3812540  69.0171000  15.6430880   4.7756730
  70.0377590  17.5919510   2.7092120  70.7187700  17.8557880   3.3279520
  69.7225640  16.7520380   3.0430130  74.2302160  18.6386870   1.7964710
  74.7380380  19.1367840   2.4369730  74.7615400  17.8622070   1.6204070
  86.3313090  16.8092060   5.4994060  85.6265260  17.1973770   4.9809170
  86.5971010  17.5042350   6.1014990  72.5138260  13.2785430   6.0628130
  72.5156700  13.7957820   5.2574030  71.6842570  12.8015610   6.0398060
  73.7641110  22.9180610   4.2401630  73.4310490  23.5449530   4.8822700
  73.9407790  23.4442490   3.4603300  72.1953590  14.9895390   4.0698580
  72.5370400  15.8337440   3.7752450  71.2569400  15.1379130   4.1863920
  72.9760210  24.8861410   6.0550810  73.5934210  25.5612490   5.7735260
  72.1153330  25.2949390   5.9638310  83.8937800  26.3500820   3.9705450
  83.2101320  27.0199930   3.9622120  84.4332090  26.5481470   3.2050310
  85.3461940  16.1780480   2.0987180  84.3986850  16.2119460   2.2302610
  85.6711930  16.9919430   2.4836540  81.4296540  28.1944950   2.6850630
  81.4423700  27.7907240   1.8172890  80.8771760  28.9692240   2.5812060
  80.8281980  23.0974790   4.0133240  81.2450770  22.8834900   3.1786700
  81.5521800  23.3547580   4.5841860  84.7744080  21.4962010   4.1049480
  83.9462710  21.5655100   3.6299610  85.3694560  22.0816320   3.6365310
  81.7386090  18.2831330   5.0504350  81.3257270  19.1085040   5.3044340
  81.0062040  17.6976370   4.8580710  72.5847500  17.8434440   3.6922060
  73.1362090  17.9529780   2.9175310  73.0991010  18.2172040   4.4077290
  82.4286190  28.3290660   5.7385330  81.9516750  29.1362850   5.5457940
  81.7447980  27.6768990   5.8911540  73.4319010  24.4940480   8.7270030
  72.5347540  24.7180450   8.9743430  73.4571880  24.6175420   7.7781430
  72.2590230  21.3653800   7.3027400  72.1198000  22.2376600   7.6714800
  71.3771590  21.0226610   7.1575340  74.0570580  27.3075500   9.5112550
  74.0286010  27.7118450   8.6440980  73.8935550  26.3785860   9.3484150
  86.0085400  28.0902600  10.8076720  86.4845120  28.5685490  11.4865800
  86.6292560  28.0220090  10.0822220  68.2108880  23.1351350   3.2198310
  68.2889300  23.2700120   2.2754030  68.8250560  22.4267240   3.4126430
  85.4118650  25.2815450   7.9676730  85.5381710  25.0427330   7.0493910
  85.4540030  24.4499990   8.4398810  79.2735390  28.9843450   6.5371540
  79.7880060  28.8951460   7.3393970  78.4304470  29.3303150   6.8299450
  85.2642660  17.3347910   8.9326470  84.6486930  17.8427580   8.4041930
  84.9439080  16.4346240   8.8752410  68.2668400  24.1765520   5.7592770
  68.4299440  23.7070880   4.9412140  68.7320850  23.6689080   6.4241610
  77.3256980  16.1739800   6.3988660  76.8636350  16.3822820   7.2108600
  76.9235090  15.3599150   6.0959330  82.3261490  17.3948750   7.5285320
  81.4755080  17.0954500   7.8494390  82.1663280  17.6390760   6.6169140
  79.4211200  18.8950500   9.6284110  79.7464610  18.0614250   9.2886340
  80.2091530  19.4179020   9.7762440  75.0763070  13.8518610   2.6542940
  75.3735400  14.7581440   2.5734960  75.6248630  13.3637390   2.0402510
  75.2700600  19.3290430   9.1894860  75.1744200  18.3885160   9.0395260
  76.1132580  19.5505500   8.7942930  70.4011140  15.7404100   7.3428640
  70.0074530  16.5879310   7.5501420  69.7129540  15.1030470   7.5337280
  76.9756190  15.8239070  10.4125380  76.2854510  15.6311270  11.0471470
  77.7188490  16.1073710  10.9449680  79.2519160  19.6637510   3.2479300
  78.5200280  20.1724320   3.5969400  78.8543500  18.8467490   2.9468080
  79.7145070  15.1171190   2.6602240  79.7317810  15.5679840   3.5044090
  79.4660650  14.2176830   2.8735680  83.1415820  12.5303370   8.4988620
  83.4661590  11.7993030   9.0246600  83.1772330  12.2117010   7.5969610
  69.8407380  23.5516950   7.9188580  69.4562170  22.9110620   8.5171540
  70.1519570  24.2553070   8.4883310  75.9904520  20.3993490   3.3997200
  76.3574650  19.9252060   4.1458540  75.8009580  21.2735060   3.7405540
  73.7803890  19.4402130   5.7181410  73.4760960  20.3194110   5.9431770
  74.7350350  19.5001920   5.7538850  83.0673660  22.6428480   2.1074650
  83.7872780  23.1383770   1.7170760  82.8655480  21.9646370   1.4628520
  78.4492460  22.7137540   7.9943650  78.3829770  21.7933210   7.7401240
  77.8197600  22.8112980   8.7088290  69.8367620  20.2804870   6.8652770
  69.4782560  20.9458720   7.4526110  69.5422180  19.4488420   7.2365390
  73.0380740  20.7389110   9.7492320  72.7380880  20.8846290   8.8520140
  73.8091980  20.1794400   9.6565710  78.3809190  25.5358110   7.7447450
  78.3953730  24.6039070   7.5266360  77.6734290  25.6217870   8.3837220
  84.5920400  22.1765450   7.0916030  83.8668590  22.7694230   6.8945420
  85.1195860  22.1688990   6.2929400  77.8143090  27.1775680   4.8387950
  78.4585310  27.3835060   5.5161370  78.1772530  26.4164080   4.3858800
  79.0875170  25.1808030   3.5565400  79.7297400  24.4801190   3.6697570
  79.6124520  25.9606470   3.3762290  80.8612790  25.9802930   6.7601460
  81.1969030  26.5669620   7.4379380  79.9413130  25.8495640   6.9899250
  68.4116190  13.7698110   7.5424870  67.6974710  13.9695030   8.1477480
  68.8311230  12.9937680   7.9139670  68.6988780  27.7578370   8.5291400
  68.8079900  26.8173110   8.3886790  68.0469340  28.0233120   7.8805130
  76.6901370  26.0294260   9.9289520  76.3698240  25.3103500  10.4735210
  76.0159730  26.7049330  10.0025580  79.9054970  16.2620420   5.2926320
  80.2735790  15.4415630   5.6205890  79.0453170  16.3222310   5.7081970
  76.8656960  18.9160010   5.5164290  77.3642210  19.3905830   6.1816140
  77.0079910  17.9923530   5.7234320  84.0723820  15.1327970   6.3592680
  83.5697420  15.8733370   6.6986490  84.8880480  15.5211970   6.0429470
  70.8447220  28.8247280  10.3411010  71.6459950  29.1459330  10.7546410
  70.3299040  28.4642860  11.0630920  79.6811850  24.9327150  10.2886420
  79.0750010  24.9558750   9.5482170  79.3765960  24.2010190  10.8253670
  81.1112220  28.6607440   8.8995830  82.0633970  28.5765460   8.8496070
  80.9640440  29.3249150   9.5729620  68.5645030  21.3120740   9.2847060
  69.0684050  20.7328020   9.8563290  67.8252450  21.5960970   9.8223430
  75.6182970  22.7191730   8.8182580  74.8528640  23.2876730   8.7337250
  75.7998930  22.4267940   7.9250810  82.7606320  24.4497060   9.3757600
  83.5015790  24.7872820   8.8725060  81.9979000  24.6189120   8.8227370
  70.5968110  19.4550330  10.1797130  70.6373450  19.1564200  11.0882360
  71.4513610  19.8557940  10.0204650  72.5373920  18.0342430   8.1471620
  72.0070380  17.5433380   7.5194960  73.2061990  18.4626630   7.6129550
  81.4351980  22.5011890   7.9112810  81.8493000  22.6556970   8.7603230
  80.5002980  22.6267110   8.0738590  81.9074150  19.8408050   9.9151960
  82.4894920  19.0860370   9.8272440  82.0835920  20.3715490   9.1383440
  73.0246220  15.0004800   8.2268910  72.9303090  14.3825550   7.5019780
  72.4443610  15.7271090   7.9998820  75.7907660  13.5578040   5.2596300
  75.3424960  13.5802300   4.4141850  75.1572860  13.1597060   5.8566600
  76.1967210  22.4532370   5.8808740  76.6155320  23.2965100   5.7084980
  75.2775840  22.5904410   5.6515520  78.5331110  20.1848550   7.2646580
  78.6527320  19.5889690   8.0041420  79.3925110  20.2218240   6.8447880
  80.8719010  20.7385740   5.8409090  80.3454230  21.2628360   5.2374230
  81.2150350  21.3713130   6.4718820  74.0474630  28.7585380   6.9966470
  73.5095720  29.4831440   6.6775170  74.3008590  28.2815720   6.2063810
  75.2999880  16.7269900   8.5222400  75.8899570  16.4185750   9.2100220
  74.4820120  16.2549650   8.6782300  80.1193310  16.3435710   8.7555420
  79.4308830  15.6817250   8.6905410  80.8399330  15.8973980   9.2003880
  76.9036840  29.9936590   7.2553120  76.8295540  30.8971730   7.5625490
  76.0015680  29.6748490   7.2275190  68.7954340  28.1881770   3.2968370
  68.3585330  28.3682570   4.1292520  69.3632020  28.9456390   3.1550090
  84.4316520  27.6898770   7.5845680  83.8318510  27.7491330   6.8409600
  84.5610420  26.7503750   7.7142530  83.1168160  24.4150750   5.6821840
  82.3028000  24.8447910   5.9447630  83.5242360  25.0269160   5.0690890
  69.6654700  21.0854570   4.1960590  70.0327740  20.9981970   5.0756610
  69.0965520  20.3221120   4.0967450  84.4658560  19.5538950   7.2091060
  84.2344650  19.3251700   6.3089010  84.7263110  20.4738500   7.1635950
  69.2170700  17.9963660   8.1019010  68.3226750  17.9630420   8.4412720
  69.7568250  18.1950450   8.8670260  82.9046630  14.7795380   9.9870760
  83.7816810  14.7878780  10.3704760  82.9167470  14.0426220   9.3763110
  84.5299620  18.7164790   4.3978330  83.5802330  18.6828330   4.5123320
  84.7112630  19.6264900   4.1628100  69.7210410  12.2711990   2.4502230
  70.3686600  11.7209370   2.0097390  70.1412250  12.5255140   3.2718040
  83.6162750  12.4653350   5.8071870  84.2534970  13.0787490   6.1731060
  83.7637640  12.5014010   4.8621100  69.4742410  12.4267660   5.1927550
  69.1257230  12.8831480   5.9585730  69.1430110  11.5324790   5.2749980
  71.0806780  25.5987260   9.3580740  71.0376410  25.2280170  10.2395200
  71.2117790  26.5364830   9.4982560  74.7812810  27.1546850   4.9590460
  74.5404170  27.4221410   4.0720980  75.7215450  27.3252580   5.0141320
  76.9867230  13.6179540   8.7146970  76.9256120  14.2101370   9.4642380
  77.9267610  13.5105500   8.5697230  79.6241790  13.2749600   8.3539260
  80.2382200  13.5928890   7.6920340  80.1691350  12.7898190   8.9735120
  86.0416970  29.1741230   5.7601100  85.5475250  29.5710100   5.0428230
  85.4330260  28.5490440   6.1538380  70.1463050  11.9543860   8.4678320
  70.6946040  11.7731910   7.7044430  70.2118360  11.1637970   9.0034630
  70.9194810  28.5449510   6.4778520  70.3255130  28.4134210   7.2168560
  70.9118650  27.7087650   6.0120620  80.3649830  11.8381740   4.6808550
  79.4909670  12.1716850   4.4781480  80.2560580  11.3654920   5.5060420
  81.2721810  14.0452610   6.0650270  80.9435170  13.2304370   5.6852000
  82.2204110  14.0022420   5.9415960  83.7256420  29.8164650   3.0387840
  83.2659390  30.5680460   2.6645860  83.0968880  29.0971120   2.9802640
  70.5507040  25.9107890   5.4286560  69.8241100  25.2913180   5.3612510
  70.6116190  26.3048500   4.5584640  74.1552140  28.1252890   2.2135970
  74.6717160  27.5140250   1.6884230  74.8049520  28.6281670   2.7046980
  76.8947640  29.0161380   3.0404950  77.1825450  28.7615680   2.1637960
  77.4070860  28.4638740   3.6310520  78.1124650  12.7551580   3.6201460
  77.3296440  13.2297080   3.8998220  77.8187580  11.8506410   3.5114640
  76.9620000  29.9377480  10.4073150  77.8887310  29.7021750  10.4509110
  76.9470430  30.7649480   9.9259180  74.1483610  12.6022230  10.1715030
  73.8667880  13.1055830   9.4075850  74.5303310  11.8043980   9.8057160
  80.7499070  12.0175810  10.7495500  80.6364520  12.3370420  11.6447020
  81.5668810  12.4188320  10.4532780  83.5297560  29.1647340  10.2314190
  84.3222880  28.6696570  10.0240150  83.8230710  29.8437480  10.8389800
  81.8082690   7.4464000 150.7430050  81.3464220   6.6751240 151.0717220
  82.6208240   7.4730070 151.2482500  78.0346000   9.7322010 150.3634040
  77.4157440  10.1879510 149.7928480  78.8897780   9.8873470 149.9623740
  78.9009350   4.6161250 147.7565950  78.2826620   5.0810700 147.1928670
  79.4132600   5.3088730 148.1735460  68.2692550   5.3017780 145.1305580
  67.8920530   5.7904880 144.3990480  68.5265620   5.9743060 145.7612110
  82.7241960   6.1417680 147.9688720  82.6138290   5.1992010 148.0938140
  82.7210210   6.5033320 148.8551480  78.2662240   1.7683000 147.3251210
  77.3391520   1.7020380 147.5539680  78.4187060   2.7063130 147.2106450
  82.2959530   3.3303300 147.8286460  81.6771950   2.9922850 147.1812760
  82.2783980   2.6863060 148.5365650  80.4724230   2.5690110 144.8359210
  80.9117510   1.7312540 144.6897030  81.1852650   3.2019510 144.9223350
  78.5819610   7.5086180 148.8040450  79.0215520   8.2510510 148.3895840
  78.5206500   7.7512750 149.7279410  69.4556510   6.0608050 149.8252410
  69.0484590   6.2022640 148.9706010  70.3469520   5.7768210 149.6223620
  81.2489790  10.4955300 146.1603460  81.0890930  10.2058240 147.0585290
  81.0836500   9.7195430 145.6248690  73.7278170  10.2753830 147.9375080
  73.5520650   9.3589370 147.7242880  72.8733910  10.6341120 148.1772880
  80.9515920   8.0042860 144.7201460  80.2581080   8.0020150 144.0603740
  81.6938780   7.5802180 144.2895630  80.5165850   9.6305570 148.7949950
  80.9722800   8.8494950 149.1088570  80.8558370  10.3412390 149.3391130
  72.3085680   4.8719630 146.5096180  71.5347940   4.3317250 146.3494900
  73.0380310   4.3526240 146.1713940  72.3523080   4.5400010 150.1474990
  72.8701750   3.7368270 150.0931880  71.9007100   4.4779150 150.9891820
  77.2392580   5.8066290 145.4202290  77.5808280   6.5508520 144.9245610
  76.4105290   6.1197410 145.7827120  84.5433510   7.7996700 146.9376110
  83.9009670   7.1452320 147.2119830  84.1564170   8.2051790 146.1616780
  80.1219990   5.1282130 150.7847800  80.4743810   4.5310260 150.1249170
  79.2382320   4.8026360 150.9556050  76.2083270   5.8879820 148.1918210
  76.8954400   6.4349030 148.5725800  75.4215690   6.4320550 148.2267820
  75.5110480   2.8925850 147.8043570  75.9673260   3.7031100 148.0303760
  75.1598690   2.5748990 148.6362060  82.9330890   6.6913160 143.4752460
  82.7068470   5.9743600 144.0677100  82.5427090   6.4425600 142.6374210
  68.7146920  10.7180020 144.2496920  69.0744560  11.3169360 143.5954190
  68.5739260  11.2639910 145.0231950  82.5147140   4.6085100 145.1366620
  82.2268840   5.0697790 145.9244500  83.3099310   4.1482870 145.4050840
  74.7315540   8.1011220 145.0670590  74.7225640   8.8340910 144.4515100
  73.8113900   7.8542800 145.1597550  70.3322180   3.3226110 145.8117350
  69.7250130   4.0625010 145.8212650  70.8071530   3.4125470 144.9855550
  77.7175140   8.1639460 143.7295780  77.8187120   7.9603450 142.7997760
  76.8176880   7.9097740 143.9343560  76.3593250  10.6825780 148.4243450
  76.6134750  10.6447170 147.5022820  75.4105730  10.5559110 148.4171700
  72.3427470   3.2837260 143.5605920  73.1090740   3.1718620 144.1231350
  72.4202160   2.5875230 142.9082690  71.8388940  10.8657720 151.3473350
  72.5751420  10.3173180 151.6181920  72.2229860  11.7313730 151.2079340
  68.7234420   6.9331290 147.2214860  67.7974200   7.1752430 147.2120270
  69.1890850   7.7605550 147.0999610  74.9491250  10.0388030 143.1698920
  75.7419860  10.3276860 142.7180710  74.4295600   9.6080200 142.4911400
  84.0021420   9.2658160 144.5935660  83.7162930   8.8523300 143.7789840
  83.8040970  10.1945870 144.4736180  75.4668650   5.2591440 143.0341270
  75.3619290   4.6443790 143.7602650  75.2992870   4.7357330 142.2504280
  78.7071380   4.3211470 143.6383260  78.1581480   4.7680770 144.2826000
  79.3290640   3.8160720 144.1620930  74.3746500   3.2802390 145.5348560
  74.7962920   3.1142260 146.3779950  74.4997340   2.4702620 145.0403700
  77.4522170  10.3851610 145.0727400  78.3472960  10.7236580 145.0946160
  77.4839800   9.6631020 144.4451680  71.0918330   5.7578660 143.3014400
  71.5293200   6.3008330 143.9571980  71.5766060   4.9325610 143.3110740
  68.3064130   8.5467690 150.7534660  68.6367140   7.6788750 150.5213300
  68.7355130   8.7526210 151.5839620  72.9026050   6.8776700 148.4136630
  72.6021590   6.7541670 149.3140540  72.7963540   6.0185290 148.0052360
  85.6717970   6.6573100 143.1163310  84.8410930   6.7249750 143.5870540
  85.8489800   7.5477220 142.8130170  85.1274430   3.4020580 145.6197510
  85.8893340   3.9717230 145.7257200  85.1428800   2.8347780 146.3905820
  68.6278770   1.9258510 149.8505170  67.9727610   1.6570150 149.2064870
  69.4656720   1.8162990 149.4007150  86.1334400   4.2570680 150.4639440
  86.5043230   3.4738000 150.0575410  86.7736330   4.9459780 150.2856740
  85.1793600   3.6954950 142.7770030  85.4542440   4.6033830 142.6489250
  84.9904340   3.6317480 143.7132020  83.1744210  10.3925860 149.4038030
  83.7703280  10.0710430 148.7272450  83.4322360   9.9197680 150.1951300
  68.8337040  10.4538790 148.8331240  68.6659080   9.8209470 149.5313130
  67.9671550  10.6598190 148.4825430  70.4399740   9.1472020 146.2781380
  69.9147360   9.5280050 145.5743340  70.3644320   9.7722790 146.9991090
  85.1965060  10.7059560 147.5995320  85.3717250  10.0197300 146.9556240
  84.4986630  11.2306610 147.2071990  73.0392710  11.0954400 145.1530630
  73.7711530  10.8113680 144.6054520  73.2986380  10.8567680 146.0430010
  72.2007500   7.2119130 145.1576960  71.5716380   7.6804230 145.7062790
  72.3155330   6.3668350 145.5923150  77.7875260   3.0403810 133.1887430
  77.0117360   2.5604250 133.4786000  78.4388190   2.3609460 133.0143590
  71.8041090   3.3523620 134.0663190  70.9725970   3.0972330 134.4659700
  72.4122070   3.4234390 134.8021110  81.8082690   7.4464000 131.9686560
  81.3464220   6.6751240 132.2973730  82.6208240   7.4730070 132.4739010
  71.7842350   7.3863710 134.2621210  72.0870390   6.4961450 134.0831430
  72.5285940   7.9433930 134.0343460  78.0346000   9.7322010 131.5890550
  77.4157440  10.1879510 131.0184990  78.8897780   9.8873470 131.1880250
  77.2284250   5.7161000 133.1957590  77.1592530   4.7750940 133.0346720
  77.9904110   5.8062410 133.7680160  78.9009350   4.6161250 128.9822460
  78.2826620   5.0810700 128.4185180  79.4132600   5.3088730 129.3991970
  73.7641110   4.1437120 135.6606060  73.4310490   4.7706040 136.3027130
  73.9407790   4.6699000 134.8807730  72.9760210   6.1117920 137.4755240
  73.5934210   6.7869000 137.1939690  72.1153330   6.5205900 137.3842740
  68.2692550   5.3017780 126.3562090  67.8920530   5.7904880 125.6246990
  68.5265620   5.9743060 126.9868620  83.8937800   7.5757330 135.3909880
  83.2101320   8.2456440 135.3826550  84.4332090   7.7737980 134.6254740
  81.4296540   9.4201460 134.1055060  81.4423700   9.0163750 133.2377320
  80.8771760  10.1948750 134.0016490  82.7241960   6.1417680 129.1945230
  82.6138290   5.1992010 129.3194650  82.7210210   6.5033320 130.0807990
  80.8281980   4.3231300 135.4337670  81.2450770   4.1091410 134.5991130
  81.5521800   4.5804090 136.0046290  78.2662240   1.7683000 128.5507720
  77.3391520   1.7020380 128.7796190  78.4187060   2.7063130 128.4362960
  84.7744080   2.7218520 135.5253910  83.9462710   2.7911610 135.0504040
  85.3694560   3.3072830 135.0569740  82.2959530   3.3303300 129.0542970
  81.6771950   2.9922850 128.4069270  82.2783980   2.6863060 129.7622160
  74.3400580   5.9815300 133.4966660  74.0428870   5.3760770 132.8174440
  75.2900400   6.0192610 133.3856020  82.4286190   9.5547170 137.1589760
  81.9516750  10.3619360 136.9662370  81.7447980   8.9025500 137.3115970
  73.4319010   5.7196990 140.1474460  72.5347540   5.9436960 140.3947860
  73.4571880   5.8431930 139.1985860  80.4724230   2.5690110 126.0615720
  80.9117510   1.7312540 125.9153540  81.1852650   3.2019510 126.1479860
  72.2590230   2.5910310 138.7231830  72.1198000   3.4633110 139.0919230
  71.3771590   2.2483120 138.5779770  78.5819610   7.5086180 130.0296960
  79.0215520   8.2510510 129.6152350  78.5206500   7.7512750 130.9535920
  74.0570580   8.5332010 140.9316980  74.0286010   8.9374960 140.0645410
  73.8935550   7.6042370 140.7688580  86.0085400   9.3159110 142.2281150
  86.4845120   9.7942000 142.9070230  86.6292560   9.2476600 141.5026650
  68.2108880   4.3607860 134.6402740  68.2889300   4.4956630 133.6958460
  68.8250560   3.6523750 134.8330860  69.4556510   6.0608050 131.0508920
  69.0484590   6.2022640 130.1962520  70.3469520   5.7768210 130.8480130
  85.4118650   6.5071960 139.3881160  85.5381710   6.2683840 138.4698340
  85.4540030   5.6756500 139.8603240  79.2735390  10.2099960 137.9575970
  79.7880060  10.1207970 138.7598400  78.4304470  10.5559660 138.2503880
  81.2489790  10.4955300 127.3859970  81.0890930  10.2058240 128.2841800
  81.0836500   9.7195430 126.8505200  73.7278170  10.2753830 129.1631590
  73.5520650   9.3589370 128.9499390  72.8733910  10.6341120 129.4029390
  80.9515920   8.0042860 125.9457970  80.2581080   8.0020150 125.2860250
  81.6938780   7.5802180 125.5152140  80.5165850   9.6305570 130.0206460
  80.9722800   8.8494950 130.3345080  80.8558370  10.3412390 130.5647640
  68.2668400   5.4022030 137.1797200  68.4299440   4.9327390 136.3616570
  68.7320850   4.8945590 137.8446040  69.8407380   4.7773460 139.3393010
  69.4562170   4.1367130 139.9375970  70.1519570   5.4809580 139.9087740
  72.3085680   4.8719630 127.7352690  71.5347940   4.3317250 127.5751410
  73.0380310   4.3526240 127.3970450  83.0673660   3.8684990 133.5279080
  83.7872780   4.3640280 133.1375190  82.8655480   3.1902880 132.8832950
  78.4492460   3.9394050 139.4148080  78.3829770   3.0189720 139.1605670
  77.8197600   4.0369490 140.1292720  72.3523080   4.5400010 131.3731500
  72.8701750   3.7368270 131.3188390  71.9007100   4.4779150 132.2148330
  77.2392580   5.8066290 126.6458800  77.5808280   6.5508520 126.1502120
  76.4105290   6.1197410 127.0083630  78.3809190   6.7614620 139.1651880
  78.3953730   5.8295580 138.9470790  77.6734290   6.8474380 139.8041650
  84.5920400   3.4021960 138.5120460  83.8668590   3.9950740 138.3149850
  85.1195860   3.3945500 137.7133830  84.5433510   7.7996700 128.1632620
  83.9009670   7.1452320 128.4376340  84.1564170   8.2051790 127.3873290
  80.1219990   5.1282130 132.0104310  80.4743810   4.5310260 131.3505680
  79.2382320   4.8026360 132.1812560  76.2083270   5.8879820 129.4174720
  76.8954400   6.4349030 129.7982310  75.4215690   6.4320550 129.4524330
  75.5110480   2.8925850 129.0300080  75.9673260   3.7031100 129.2560270
  75.1598690   2.5748990 129.8618570  77.8143090   8.4032190 136.2592380
  78.4585310   8.6091570 136.9365800  78.1772530   7.6420590 135.8063230
  79.0875170   6.4064540 134.9769830  79.7297400   5.7057700 135.0902000
  79.6124520   7.1862980 134.7966720  82.9330890   6.6913160 124.7008970
  82.7068470   5.9743600 125.2933610  82.5427090   6.4425600 123.8630720
  80.8612790   7.2059440 138.1805890  81.1969030   7.7926130 138.8583810
  79.9413130   7.0752150 138.4103680  68.7146920  10.7180020 125.4753430
  69.0744560  11.3169360 124.8210700  68.5739260  11.2639910 126.2488460
  82.5147140   4.6085100 126.3623130  82.2268840   5.0697790 127.1501010
  83.3099310   4.1482870 126.6307350  68.6988780   8.9834880 139.9495830
  68.8079900   8.0429620 139.8091220  68.0469340   9.2489630 139.3009560
  76.6901370   7.2550770 141.3493950  76.3698240   6.5360010 141.8939640
  76.0159730   7.9305840 141.4230010  74.7315540   8.1011220 126.2927100
  74.7225640   8.8340910 125.6771610  73.8113900   7.8542800 126.3854060
  70.3322180   3.3226110 127.0373860  69.7250130   4.0625010 127.0469160
  70.8071530   3.4125470 126.2112060  77.7175140   8.1639460 124.9552290
  77.8187120   7.9603450 124.0254270  76.8176880   7.9097740 125.1600070
  76.3593250  10.6825780 129.6499960  76.6134750  10.6447170 128.7279330
  75.4105730  10.5559110 129.6428210  72.3427470   3.2837260 124.7862430
  73.1090740   3.1718620 125.3487860  72.4202160   2.5875230 124.1339200
  84.3671410   8.7726510 132.9012730  84.4918830   9.5957680 133.3736540
  85.2336970   8.5617240 132.5536880  71.8388940  10.8657720 132.5729860
  72.5751420  10.3173180 132.8438430  72.2229860  11.7313730 132.4335850
  68.7234420   6.9331290 128.4471370  67.7974200   7.1752430 128.4376780
  69.1890850   7.7605550 128.3256120  70.8447220  10.0503790 141.7615440
  71.6459950  10.3715840 142.1750840  70.3299040   9.6899370 142.4835350
  74.9491250  10.0388030 124.3955430  75.7419860  10.3276860 123.9437220
  74.4295600   9.6080200 123.7167910  79.6811850   6.1583660 141.7090850
  79.0750010   6.1815260 140.9686600  79.3765960   5.4266700 142.2458100
  81.1112220   9.8863950 140.3200260  82.0633970   9.8021970 140.2700500
  80.9640440  10.5505660 140.9934050  84.0021420   9.2658160 125.8192170
  83.7162930   8.8523300 125.0046350  83.8040970  10.1945870 125.6992690
  68.5645030   2.5377250 140.7051490  69.0684050   1.9584530 141.2767720
  67.8252450   2.8217480 141.2427860  75.4668650   5.2591440 124.2597780
  75.3619290   4.6443790 124.9859160  75.2992870   4.7357330 123.4760790
  75.6182970   3.9448240 140.2387010  74.8528640   4.5133240 140.1541680
  75.7998930   3.6524450 139.3455240  78.7071380   4.3211470 124.8639770
  78.1581480   4.7680770 125.5082510  79.3290640   3.8160720 125.3877440
  82.7606320   5.6753570 140.7962030  83.5015790   6.0129330 140.2929490
  81.9979000   5.8445630 140.2431800  74.3746500   3.2802390 126.7605070
  74.7962920   3.1142260 127.6036460  74.4997340   2.4702620 126.2660210
  81.4351980   3.7268400 139.3317240  81.8493000   3.8813480 140.1807660
  80.5002980   3.8523620 139.4943020  76.1967210   3.6788880 137.3013170
  76.6155320   4.5221610 137.1289410  75.2775840   3.8160920 137.0719950
  80.8719010   1.9642250 137.2613520  80.3454230   2.4884870 136.6578660
  81.2150350   2.5969640 137.8923250  74.0474630   9.9841890 138.4170900
  73.5095720  10.7087950 138.0979600  74.3008590   9.5072230 137.6268240
  76.9036840  11.2193100 138.6757550  76.8295540  12.1228240 138.9829920
  76.0015680  10.9005000 138.6479620  77.4522170  10.3851610 126.2983910
  78.3472960  10.7236580 126.3202670  77.4839800   9.6631020 125.6708190
  71.0918330   5.7578660 124.5270910  71.5293200   6.3008330 125.1828490
  71.5766060   4.9325610 124.5367250  68.3064130   8.5467690 131.9791170
  68.6367140   7.6788750 131.7469810  68.7355130   8.7526210 132.8096130
  72.9026050   6.8776700 129.6393140  72.6021590   6.7541670 130.5397050
  72.7963540   6.0185290 129.2308870  68.7954340   9.4138280 134.7172800
  68.3585330   9.5939080 135.5496950  69.3632020  10.1712900 134.5754520
  84.4316520   8.9155280 139.0050110  83.8318510   8.9747840 138.2614030
  84.5610420   7.9760260 139.1346960  85.6717970   6.6573100 124.3419820
  84.8410930   6.7249750 124.8127050  85.8489800   7.5477220 124.0386680
  85.1274430   3.4020580 126.8454020  85.8893340   3.9717230 126.9513710
  85.1428800   2.8347780 127.6162330  68.6278770   1.9258510 131.0761680
  67.9727610   1.6570150 130.4321380  69.4656720   1.8162990 130.6263660
  86.1334400   4.2570680 131.6895950  86.5043230   3.4738000 131.2831920
  86.7736330   4.9459780 131.5113250  83.1168160   5.6407260 137.1026270
  82.3028000   6.0704420 137.3652060  83.5242360   6.2525670 136.4895320
  85.1793600   3.6954950 124.0026540  85.4542440   4.6033830 123.8745760
  84.9904340   3.6317480 124.9388530  83.1744210  10.3925860 130.6294540
  83.7703280  10.0710430 129.9528960  83.4322360   9.9197680 131.4207810
  71.0806780   6.8243770 140.7785170  71.0376410   6.4536680 141.6599630
  71.2117790   7.7621340 140.9186990  74.7812810   8.3803360 136.3794890
  74.5404170   8.6477920 135.4925410  75.7215450   8.5509090 136.4345750
  86.0416970  10.3997740 137.1805530  85.5475250  10.7966610 136.4632660
  85.4330260   9.7746950 137.5742810  70.9194810   9.7706020 137.8982950
  70.3255130   9.6390720 138.6372990  70.9118650   8.9344160 137.4325050
  83.7256420  11.0421160 134.4592270  83.2659390  11.7936970 134.0850290
  83.0968880  10.3227630 134.4007070  70.5507040   7.1364400 136.8490990
  69.8241100   6.5169690 136.7816940  70.6116190   7.5305010 135.9789070
  74.1552140   9.3509400 133.6340400  74.6717160   8.7396760 133.1088660
  74.8049520   9.8538180 134.1251410  76.8947640  10.2417890 134.4609380
  77.1825450   9.9872190 133.5842390  77.4070860   9.6895250 135.0514950
  68.8337040  10.4538790 130.0587750  68.6659080   9.8209470 130.7569640
  67.9671550  10.6598190 129.7081940  70.4399740   9.1472020 127.5037890
  69.9147360   9.5280050 126.7999850  70.3644320   9.7722790 128.2247600
  76.9620000  11.1633990 141.8277580  77.8887310  10.9278260 141.8713540
  76.9470430  11.9905990 141.3463610  85.1965060  10.7059560 128.8251830
  85.3717250  10.0197300 128.1812750  84.4986630  11.2306610 128.4328500
  73.0392710  11.0954400 126.3787140  73.7711530  10.8113680 125.8311030
  73.2986380  10.8567680 127.2686520  72.2007500   7.2119130 126.3833470
  71.5716380   7.6804230 126.9319300  72.3155330   6.3668350 126.8179660
  83.5297560  10.3903850 141.6518620  84.3222880   9.8953080 141.4444580
  83.8230710  11.0693990 142.2594230  77.7875260   3.0403810 114.4143940
  77.0117360   2.5604250 114.7042510  78.4388190   2.3609460 114.2400100
  71.8041090   3.3523620 115.2919700  70.9725970   3.0972330 115.6916210
  72.4122070   3.4234390 116.0277620  81.8082690   7.4464000 113.1943070
  81.3464220   6.6751240 113.5230240  82.6208240   7.4730070 113.6995520
  71.7842350   7.3863710 115.4877720  72.0870390   6.4961450 115.3087940
  72.5285940   7.9433930 115.2599970  78.0346000   9.7322010 112.8147060
  77.4157440  10.1879510 112.2441500  78.8897780   9.8873470 112.4136760
  77.2284250   5.7161000 114.4214100  77.1592530   4.7750940 114.2603230
  77.9904110   5.8062410 114.9936670  78.9009350   4.6161250 110.2078970
  78.2826620   5.0810700 109.6441690  79.4132600   5.3088730 110.6248480
  73.7641110   4.1437120 116.8862570  73.4310490   4.7706040 117.5283640
  73.9407790   4.6699000 116.1064240  72.9760210   6.1117920 118.7011750
  73.5934210   6.7869000 118.4196200  72.1153330   6.5205900 118.6099250
  68.2692550   5.3017780 107.5818600  67.8920530   5.7904880 106.8503500
  68.5265620   5.9743060 108.2125130  83.8937800   7.5757330 116.6166390
  83.2101320   8.2456440 116.6083060  84.4332090   7.7737980 115.8511250
  81.4296540   9.4201460 115.3311570  81.4423700   9.0163750 114.4633830
  80.8771760  10.1948750 115.2273000  82.7241960   6.1417680 110.4201740
  82.6138290   5.1992010 110.5451160  82.7210210   6.5033320 111.3064500
  80.8281980   4.3231300 116.6594180  81.2450770   4.1091410 115.8247640
  81.5521800   4.5804090 117.2302800  78.2662240   1.7683000 109.7764230
  77.3391520   1.7020380 110.0052700  78.4187060   2.7063130 109.6619470
  84.7744080   2.7218520 116.7510420  83.9462710   2.7911610 116.2760550
  85.3694560   3.3072830 116.2826250  82.2959530   3.3303300 110.2799480
  81.6771950   2.9922850 109.6325780  82.2783980   2.6863060 110.9878670
  74.3400580   5.9815300 114.7223170  74.0428870   5.3760770 114.0430950
  75.2900400   6.0192610 114.6112530  82.4286190   9.5547170 118.3846270
  81.9516750  10.3619360 118.1918880  81.7447980   8.9025500 118.5372480
  73.4319010   5.7196990 121.3730970  72.5347540   5.9436960 121.6204370
  73.4571880   5.8431930 120.4242370  80.4724230   2.5690110 107.2872230
  80.9117510   1.7312540 107.1410050  81.1852650   3.2019510 107.3736370
  72.2590230   2.5910310 119.9488340  72.1198000   3.4633110 120.3175740
  71.3771590   2.2483120 119.8036280  78.5819610   7.5086180 111.2553470
  79.0215520   8.2510510 110.8408860  78.5206500   7.7512750 112.1792430
  74.0570580   8.5332010 122.1573490  74.0286010   8.9374960 121.2901920
  73.8935550   7.6042370 121.9945090  86.0085400   9.3159110 123.4537660
  86.4845120   9.7942000 124.1326740  86.6292560   9.2476600 122.7283160
  68.2108880   4.3607860 115.8659250  68.2889300   4.4956630 114.9214970
  68.8250560   3.6523750 116.0587370  69.4556510   6.0608050 112.2765430
  69.0484590   6.2022640 111.4219030  70.3469520   5.7768210 112.0736640
  85.4118650   6.5071960 120.6137670  85.5381710   6.2683840 119.6954850
  85.4540030   5.6756500 121.0859750  79.2735390  10.2099960 119.1832480
  79.7880060  10.1207970 119.9854910  78.4304470  10.5559660 119.4760390
  81.2489790  10.4955300 108.6116480  81.0890930  10.2058240 109.5098310
  81.0836500   9.7195430 108.0761710  73.7278170  10.2753830 110.3888100
  73.5520650   9.3589370 110.1755900  72.8733910  10.6341120 110.6285900
  80.9515920   8.0042860 107.1714480  80.2581080   8.0020150 106.5116760
  81.6938780   7.5802180 106.7408650  80.5165850   9.6305570 111.2462970
  80.9722800   8.8494950 111.5601590  80.8558370  10.3412390 111.7904150
  68.2668400   5.4022030 118.4053710  68.4299440   4.9327390 117.5873080
  68.7320850   4.8945590 119.0702550  69.8407380   4.7773460 120.5649520
  69.4562170   4.1367130 121.1632480  70.1519570   5.4809580 121.1344250
  72.3085680   4.8719630 108.9609200  71.5347940   4.3317250 108.8007920
  73.0380310   4.3526240 108.6226960  83.0673660   3.8684990 114.7535590
  83.7872780   4.3640280 114.3631700  82.8655480   3.1902880 114.1089460
  78.4492460   3.9394050 120.6404590  78.3829770   3.0189720 120.3862180
  77.8197600   4.0369490 121.3549230  72.3523080   4.5400010 112.5988010
  72.8701750   3.7368270 112.5444900  71.9007100   4.4779150 113.4404840
  77.2392580   5.8066290 107.8715310  77.5808280   6.5508520 107.3758630
  76.4105290   6.1197410 108.2340140  78.3809190   6.7614620 120.3908390
  78.3953730   5.8295580 120.1727300  77.6734290   6.8474380 121.0298160
  84.5920400   3.4021960 119.7376970  83.8668590   3.9950740 119.5406360
  85.1195860   3.3945500 118.9390340  84.5433510   7.7996700 109.3889130
  83.9009670   7.1452320 109.6632850  84.1564170   8.2051790 108.6129800
  80.1219990   5.1282130 113.2360820  80.4743810   4.5310260 112.5762190
  79.2382320   4.8026360 113.4069070  76.2083270   5.8879820 110.6431230
  76.8954400   6.4349030 111.0238820  75.4215690   6.4320550 110.6780840
  75.5110480   2.8925850 110.2556590  75.9673260   3.7031100 110.4816780
  75.1598690   2.5748990 111.0875080  77.8143090   8.4032190 117.4848890
  78.4585310   8.6091570 118.1622310  78.1772530   7.6420590 117.0319740
  79.0875170   6.4064540 116.2026340  79.7297400   5.7057700 116.3158510
  79.6124520   7.1862980 116.0223230  82.9330890   6.6913160 105.9265480
  82.7068470   5.9743600 106.5190120  82.5427090   6.4425600 105.0887230
  80.8612790   7.2059440 119.4062400  81.1969030   7.7926130 120.0840320
  79.9413130   7.0752150 119.6360190  68.7146920  10.7180020 106.7009940
  69.0744560  11.3169360 106.0467210  68.5739260  11.2639910 107.4744970
  82.5147140   4.6085100 107.5879640  82.2268840   5.0697790 108.3757520
  83.3099310   4.1482870 107.8563860  68.6988780   8.9834880 121.1752340
  68.8079900   8.0429620 121.0347730  68.0469340   9.2489630 120.5266070
  76.6901370   7.2550770 122.5750460  76.3698240   6.5360010 123.1196150
  76.0159730   7.9305840 122.6486520  74.7315540   8.1011220 107.5183610
  74.7225640   8.8340910 106.9028120  73.8113900   7.8542800 107.6110570
  70.3322180   3.3226110 108.2630370  69.7250130   4.0625010 108.2725670
  70.8071530   3.4125470 107.4368570  77.7175140   8.1639460 106.1808800
  77.8187120   7.9603450 105.2510780  76.8176880   7.9097740 106.3856580
  76.3593250  10.6825780 110.8756470  76.6134750  10.6447170 109.9535840
  75.4105730  10.5559110 110.8684720  72.3427470   3.2837260 106.0118940
  73.1090740   3.1718620 106.5744370  72.4202160   2.5875230 105.3595710
  84.3671410   8.7726510 114.1269240  84.4918830   9.5957680 114.5993050
  85.2336970   8.5617240 113.7793390  71.8388940  10.8657720 113.7986370
  72.5751420  10.3173180 114.0694940  72.2229860  11.7313730 113.6592360
  68.7234420   6.9331290 109.6727880  67.7974200   7.1752430 109.6633290
  69.1890850   7.7605550 109.5512630  70.8447220  10.0503790 122.9871950
  71.6459950  10.3715840 123.4007350  70.3299040   9.6899370 123.7091860
  74.9491250  10.0388030 105.6211940  75.7419860  10.3276860 105.1693730
  74.4295600   9.6080200 104.9424420  79.6811850   6.1583660 122.9347360
  79.0750010   6.1815260 122.1943110  79.3765960   5.4266700 123.4714610
  81.1112220   9.8863950 121.5456770  82.0633970   9.8021970 121.4957010
  80.9640440  10.5505660 122.2190560  84.0021420   9.2658160 107.0448680
  83.7162930   8.8523300 106.2302860  83.8040970  10.1945870 106.9249200
  68.5645030   2.5377250 121.9308000  69.0684050   1.9584530 122.5024230
  67.8252450   2.8217480 122.4684370  75.4668650   5.2591440 105.4854290
  75.3619290   4.6443790 106.2115670  75.2992870   4.7357330 104.7017300
  75.6182970   3.9448240 121.4643520  74.8528640   4.5133240 121.3798190
  75.7998930   3.6524450 120.5711750  78.7071380   4.3211470 106.0896280
  78.1581480   4.7680770 106.7339020  79.3290640   3.8160720 106.6133950
  82.7606320   5.6753570 122.0218540  83.5015790   6.0129330 121.5186000
  81.9979000   5.8445630 121.4688310  74.3746500   3.2802390 107.9861580
  74.7962920   3.1142260 108.8292970  74.4997340   2.4702620 107.4916720
  81.4351980   3.7268400 120.5573750  81.8493000   3.8813480 121.4064170
  80.5002980   3.8523620 120.7199530  76.1967210   3.6788880 118.5269680
  76.6155320   4.5221610 118.3545920  75.2775840   3.8160920 118.2976460
  80.8719010   1.9642250 118.4870030  80.3454230   2.4884870 117.8835170
  81.2150350   2.5969640 119.1179760  74.0474630   9.9841890 119.6427410
  73.5095720  10.7087950 119.3236110  74.3008590   9.5072230 118.8524750
  76.9036840  11.2193100 119.9014060  76.8295540  12.1228240 120.2086430
  76.0015680  10.9005000 119.8736130  77.4522170  10.3851610 107.5240420
  78.3472960  10.7236580 107.5459180  77.4839800   9.6631020 106.8964700
  71.0918330   5.7578660 105.7527420  71.5293200   6.3008330 106.4085000
  71.5766060   4.9325610 105.7623760  68.3064130   8.5467690 113.2047680
  68.6367140   7.6788750 112.9726320  68.7355130   8.7526210 114.0352640
  72.9026050   6.8776700 110.8649650  72.6021590   6.7541670 111.7653560
  72.7963540   6.0185290 110.4565380  68.7954340   9.4138280 115.9429310
  68.3585330   9.5939080 116.7753460  69.3632020  10.1712900 115.8011030
  84.4316520   8.9155280 120.2306620  83.8318510   8.9747840 119.4870540
  84.5610420   7.9760260 120.3603470  85.6717970   6.6573100 105.5676330
  84.8410930   6.7249750 106.0383560  85.8489800   7.5477220 105.2643190
  85.1274430   3.4020580 108.0710530  85.8893340   3.9717230 108.1770220
  85.1428800   2.8347780 108.8418840  68.6278770   1.9258510 112.3018190
  67.9727610   1.6570150 111.6577890  69.4656720   1.8162990 111.8520170
  86.1334400   4.2570680 112.9152460  86.5043230   3.4738000 112.5088430
  86.7736330   4.9459780 112.7369760  83.1168160   5.6407260 118.3282780
  82.3028000   6.0704420 118.5908570  83.5242360   6.2525670 117.7151830
  85.1793600   3.6954950 105.2283050  85.4542440   4.6033830 105.1002270
  84.9904340   3.6317480 106.1645040  83.1744210  10.3925860 111.8551050
  83.7703280  10.0710430 111.1785470  83.4322360   9.9197680 112.6464320
  71.0806780   6.8243770 122.0041680  71.0376410   6.4536680 122.8856140
  71.2117790   7.7621340 122.1443500  74.7812810   8.3803360 117.6051400
  74.5404170   8.6477920 116.7181920  75.7215450   8.5509090 117.6602260
  86.0416970  10.3997740 118.4062040  85.5475250  10.7966610 117.6889170
  85.4330260   9.7746950 118.7999320  70.9194810   9.7706020 119.1239460
  70.3255130   9.6390720 119.8629500  70.9118650   8.9344160 118.6581560
  83.7256420  11.0421160 115.6848780  83.2659390  11.7936970 115.3106800
  83.0968880  10.3227630 115.6263580  70.5507040   7.1364400 118.0747500
  69.8241100   6.5169690 118.0073450  70.6116190   7.5305010 117.2045580
  74.1552140   9.3509400 114.8596910  74.6717160   8.7396760 114.3345170
  74.8049520   9.8538180 115.3507920  76.8947640  10.2417890 115.6865890
  77.1825450   9.9872190 114.8098900  77.4070860   9.6895250 116.2771460
  68.8337040  10.4538790 111.2844260  68.6659080   9.8209470 111.9826150
  67.9671550  10.6598190 110.9338450  70.4399740   9.1472020 108.7294400
  69.9147360   9.5280050 108.0256360  70.3644320   9.7722790 109.4504110
  76.9620000  11.1633990 123.0534090  77.8887310  10.9278260 123.0970050
  76.9470430  11.9905990 122.5720120  85.1965060  10.7059560 110.0508340
  85.3717250  10.0197300 109.4069260  84.4986630  11.2306610 109.6585010
  73.0392710  11.0954400 107.6043650  73.7711530  10.8113680 107.0567540
  73.2986380  10.8567680 108.4943030  72.2007500   7.2119130 107.6089980
  71.5716380   7.6804230 108.1575810  72.3155330   6.3668350 108.0436170
  83.5297560  10.3903850 122.8775130  84.3222880   9.8953080 122.6701090
  83.8230710  11.0693990 123.4850740  77.7875260   3.0403810  95.6400450
  77.0117360   2.5604250  95.9299020  78.4388190   2.3609460  95.4656610
  71.8041090   3.3523620  96.5176210  70.9725970   3.0972330  96.9172720
  72.4122070   3.4234390  97.2534130  81.8082690   7.4464000  94.4199580
  81.3464220   6.6751240  94.7486750  82.6208240   7.4730070  94.9252030
  71.7842350   7.3863710  96.7134230  72.0870390   6.4961450  96.5344450
  72.5285940   7.9433930  96.4856480  78.0346000   9.7322010  94.0403570
  77.4157440  10.1879510  93.4698010  78.8897780   9.8873470  93.6393270
  77.2284250   5.7161000  95.6470610  77.1592530   4.7750940  95.4859740
  77.9904110   5.8062410  96.2193180  78.9009350   4.6161250  91.4335480
  78.2826620   5.0810700  90.8698200  79.4132600   5.3088730  91.8504990
  73.7641110   4.1437120  98.1119080  73.4310490   4.7706040  98.7540150
  73.9407790   4.6699000  97.3320750  72.9760210   6.1117920  99.9268260
  73.5934210   6.7869000  99.6452710  72.1153330   6.5205900  99.8355760
  68.2692550   5.3017780  88.8075110  67.8920530   5.7904880  88.0760010
  68.5265620   5.9743060  89.4381640  83.8937800   7.5757330  97.8422900
  83.2101320   8.2456440  97.8339570  84.4332090   7.7737980  97.0767760
  81.4296540   9.4201460  96.5568080  81.4423700   9.0163750  95.6890340
  80.8771760  10.1948750  96.4529510  82.7241960   6.1417680  91.6458250
  82.6138290   5.1992010  91.7707670  82.7210210   6.5033320  92.5321010
  80.8281980   4.3231300  97.8850690  81.2450770   4.1091410  97.0504150
  81.5521800   4.5804090  98.4559310  78.2662240   1.7683000  91.0020740
  77.3391520   1.7020380  91.2309210  78.4187060   2.7063130  90.8875980
  84.7744080   2.7218520  97.9766930  83.9462710   2.7911610  97.5017060
  85.3694560   3.3072830  97.5082760  82.2959530   3.3303300  91.5055990
  81.6771950   2.9922850  90.8582290  82.2783980   2.6863060  92.2135180
  74.3400580   5.9815300  95.9479680  74.0428870   5.3760770  95.2687460
  75.2900400   6.0192610  95.8369040  82.4286190   9.5547170  99.6102780
  81.9516750  10.3619360  99.4175390  81.7447980   8.9025500  99.7628990
  73.4319010   5.7196990 102.5987480  72.5347540   5.9436960 102.8460880
  73.4571880   5.8431930 101.6498880  80.4724230   2.5690110  88.5128740
  80.9117510   1.7312540  88.3666560  81.1852650   3.2019510  88.5992880
  72.2590230   2.5910310 101.1744850  72.1198000   3.4633110 101.5432250
  71.3771590   2.2483120 101.0292790  78.5819610   7.5086180  92.4809980
  79.0215520   8.2510510  92.0665370  78.5206500   7.7512750  93.4048940
  74.0570580   8.5332010 103.3830000  74.0286010   8.9374960 102.5158430
  73.8935550   7.6042370 103.2201600  86.0085400   9.3159110 104.6794170
  86.4845120   9.7942000 105.3583250  86.6292560   9.2476600 103.9539670
  68.2108880   4.3607860  97.0915760  68.2889300   4.4956630  96.1471480
  68.8250560   3.6523750  97.2843880  69.4556510   6.0608050  93.5021940
  69.0484590   6.2022640  92.6475540  70.3469520   5.7768210  93.2993150
  85.4118650   6.5071960 101.8394180  85.5381710   6.2683840 100.9211360
  85.4540030   5.6756500 102.3116260  79.2735390  10.2099960 100.4088990
  79.7880060  10.1207970 101.2111420  78.4304470  10.5559660 100.7016900
  81.2489790  10.4955300  89.8372990  81.0890930  10.2058240  90.7354820
  81.0836500   9.7195430  89.3018220  73.7278170  10.2753830  91.6144610
  73.5520650   9.3589370  91.4012410  72.8733910  10.6341120  91.8542410
  80.9515920   8.0042860  88.3970990  80.2581080   8.0020150  87.7373270
  81.6938780   7.5802180  87.9665160  80.5165850   9.6305570  92.4719480
  80.9722800   8.8494950  92.7858100  80.8558370  10.3412390  93.0160660
  68.2668400   5.4022030  99.6310220  68.4299440   4.9327390  98.8129590
  68.7320850   4.8945590 100.2959060  69.8407380   4.7773460 101.7906030
  69.4562170   4.1367130 102.3888990  70.1519570   5.4809580 102.3600760
  72.3085680   4.8719630  90.1865710  71.5347940   4.3317250  90.0264430
  73.0380310   4.3526240  89.8483470  83.0673660   3.8684990  95.9792100
  83.7872780   4.3640280  95.5888210  82.8655480   3.1902880  95.3345970
  78.4492460   3.9394050 101.8661100  78.3829770   3.0189720 101.6118690
  77.8197600   4.0369490 102.5805740  72.3523080   4.5400010  93.8244520
  72.8701750   3.7368270  93.7701410  71.9007100   4.4779150  94.6661350
  77.2392580   5.8066290  89.0971820  77.5808280   6.5508520  88.6015140
  76.4105290   6.1197410  89.4596650  78.3809190   6.7614620 101.6164900
  78.3953730   5.8295580 101.3983810  77.6734290   6.8474380 102.2554670
  84.5920400   3.4021960 100.9633480  83.8668590   3.9950740 100.7662870
  85.1195860   3.3945500 100.1646850  84.5433510   7.7996700  90.6145640
  83.9009670   7.1452320  90.8889360  84.1564170   8.2051790  89.8386310
  80.1219990   5.1282130  94.4617330  80.4743810   4.5310260  93.8018700
  79.2382320   4.8026360  94.6325580  76.2083270   5.8879820  91.8687740
  76.8954400   6.4349030  92.2495330  75.4215690   6.4320550  91.9037350
  75.5110480   2.8925850  91.4813100  75.9673260   3.7031100  91.7073290
  75.1598690   2.5748990  92.3131590  77.8143090   8.4032190  98.7105400
  78.4585310   8.6091570  99.3878820  78.1772530   7.6420590  98.2576250
  79.0875170   6.4064540  97.4282850  79.7297400   5.7057700  97.5415020
  79.6124520   7.1862980  97.2479740  82.9330890   6.6913160  87.1521990
  82.7068470   5.9743600  87.7446630  82.5427090   6.4425600  86.3143740
  80.8612790   7.2059440 100.6318910  81.1969030   7.7926130 101.3096830
  79.9413130   7.0752150 100.8616700  68.7146920  10.7180020  87.9266450
  69.0744560  11.3169360  87.2723720  68.5739260  11.2639910  88.7001480
  82.5147140   4.6085100  88.8136150  82.2268840   5.0697790  89.6014030
  83.3099310   4.1482870  89.0820370  68.6988780   8.9834880 102.4008850
  68.8079900   8.0429620 102.2604240  68.0469340   9.2489630 101.7522580
  76.6901370   7.2550770 103.8006970  76.3698240   6.5360010 104.3452660
  76.0159730   7.9305840 103.8743030  74.7315540   8.1011220  88.7440120
  74.7225640   8.8340910  88.1284630  73.8113900   7.8542800  88.8367080
  70.3322180   3.3226110  89.4886880  69.7250130   4.0625010  89.4982180
  70.8071530   3.4125470  88.6625080  77.7175140   8.1639460  87.4065310
  77.8187120   7.9603450  86.4767290  76.8176880   7.9097740  87.6113090
  76.3593250  10.6825780  92.1012980  76.6134750  10.6447170  91.1792350
  75.4105730  10.5559110  92.0941230  72.3427470   3.2837260  87.2375450
  73.1090740   3.1718620  87.8000880  72.4202160   2.5875230  86.5852220
  84.3671410   8.7726510  95.3525750  84.4918830   9.5957680  95.8249560
  85.2336970   8.5617240  95.0049900  71.8388940  10.8657720  95.0242880
  72.5751420  10.3173180  95.2951450  72.2229860  11.7313730  94.8848870
  68.7234420   6.9331290  90.8984390  67.7974200   7.1752430  90.8889800
  69.1890850   7.7605550  90.7769140  70.8447220  10.0503790 104.2128460
  71.6459950  10.3715840 104.6263860  70.3299040   9.6899370 104.9348370
  74.9491250  10.0388030  86.8468450  75.7419860  10.3276860  86.3950240
  74.4295600   9.6080200  86.1680930  79.6811850   6.1583660 104.1603870
  79.0750010   6.1815260 103.4199620  79.3765960   5.4266700 104.6971120
  81.1112220   9.8863950 102.7713280  82.0633970   9.8021970 102.7213520
  80.9640440  10.5505660 103.4447070  84.0021420   9.2658160  88.2705190
  83.7162930   8.8523300  87.4559370  83.8040970  10.1945870  88.1505710
  68.5645030   2.5377250 103.1564510  69.0684050   1.9584530 103.7280740
  67.8252450   2.8217480 103.6940880  75.4668650   5.2591440  86.7110800
  75.3619290   4.6443790  87.4372180  75.2992870   4.7357330  85.9273810
  75.6182970   3.9448240 102.6900030  74.8528640   4.5133240 102.6054700
  75.7998930   3.6524450 101.7968260  78.7071380   4.3211470  87.3152790
  78.1581480   4.7680770  87.9595530  79.3290640   3.8160720  87.8390460
  82.7606320   5.6753570 103.2475050  83.5015790   6.0129330 102.7442510
  81.9979000   5.8445630 102.6944820  74.3746500   3.2802390  89.2118090
  74.7962920   3.1142260  90.0549480  74.4997340   2.4702620  88.7173230
  81.4351980   3.7268400 101.7830260  81.8493000   3.8813480 102.6320680
  80.5002980   3.8523620 101.9456040  76.1967210   3.6788880  99.7526190
  76.6155320   4.5221610  99.5802430  75.2775840   3.8160920  99.5232970
  80.8719010   1.9642250  99.7126540  80.3454230   2.4884870  99.1091680
  81.2150350   2.5969640 100.3436270  74.0474630   9.9841890 100.8683920
  73.5095720  10.7087950 100.5492620  74.3008590   9.5072230 100.0781260
  76.9036840  11.2193100 101.1270570  76.8295540  12.1228240 101.4342940
  76.0015680  10.9005000 101.0992640  77.4522170  10.3851610  88.7496930
  78.3472960  10.7236580  88.7715690  77.4839800   9.6631020  88.1221210
  71.0918330   5.7578660  86.9783930  71.5293200   6.3008330  87.6341510
  71.5766060   4.9325610  86.9880270  68.3064130   8.5467690  94.4304190
  68.6367140   7.6788750  94.1982830  68.7355130   8.7526210  95.2609150
  72.9026050   6.8776700  92.0906160  72.6021590   6.7541670  92.9910070
  72.7963540   6.0185290  91.6821890  68.7954340   9.4138280  97.1685820
  68.3585330   9.5939080  98.0009970  69.3632020  10.1712900  97.0267540
  84.4316520   8.9155280 101.4563130  83.8318510   8.9747840 100.7127050
  84.5610420   7.9760260 101.5859980  85.6717970   6.6573100  86.7932840
  84.8410930   6.7249750  87.2640070  85.8489800   7.5477220  86.4899700
  85.1274430   3.4020580  89.2967040  85.8893340   3.9717230  89.4026730
  85.1428800   2.8347780  90.0675350  68.6278770   1.9258510  93.5274700
  67.9727610   1.6570150  92.8834400  69.4656720   1.8162990  93.0776680
  86.1334400   4.2570680  94.1408970  86.5043230   3.4738000  93.7344940
  86.7736330   4.9459780  93.9626270  83.1168160   5.6407260  99.5539290
  82.3028000   6.0704420  99.8165080  83.5242360   6.2525670  98.9408340
  85.1793600   3.6954950  86.4539560  85.4542440   4.6033830  86.3258780
  84.9904340   3.6317480  87.3901550  83.1744210  10.3925860  93.0807560
  83.7703280  10.0710430  92.4041980  83.4322360   9.9197680  93.8720830
  71.0806780   6.8243770 103.2298190  71.0376410   6.4536680 104.1112650
  71.2117790   7.7621340 103.3700010  74.7812810   8.3803360  98.8307910
  74.5404170   8.6477920  97.9438430  75.7215450   8.5509090  98.8858770
  86.0416970  10.3997740  99.6318550  85.5475250  10.7966610  98.9145680
  85.4330260   9.7746950 100.0255830  70.9194810   9.7706020 100.3495970
  70.3255130   9.6390720 101.0886010  70.9118650   8.9344160  99.8838070
  83.7256420  11.0421160  96.9105290  83.2659390  11.7936970  96.5363310
  83.0968880  10.3227630  96.8520090  70.5507040   7.1364400  99.3004010
  69.8241100   6.5169690  99.2329960  70.6116190   7.5305010  98.4302090
  74.1552140   9.3509400  96.0853420  74.6717160   8.7396760  95.5601680
  74.8049520   9.8538180  96.5764430  76.8947640  10.2417890  96.9122400
  77.1825450   9.9872190  96.0355410  77.4070860   9.6895250  97.5027970
  68.8337040  10.4538790  92.5100770  68.6659080   9.8209470  93.2082660
  67.9671550  10.6598190  92.1594960  70.4399740   9.1472020  89.9550910
  69.9147360   9.5280050  89.2512870  70.3644320   9.7722790  90.6760620
  76.9620000  11.1633990 104.2790600  77.8887310  10.9278260 104.3226560
  76.9470430  11.9905990 103.7976630  85.1965060  10.7059560  91.2764850
  85.3717250  10.0197300  90.6325770  84.4986630  11.2306610  90.8841520
  73.0392710  11.0954400  88.8300160  73.7711530  10.8113680  88.2824050
  73.2986380  10.8567680  89.7199540  72.2007500   7.2119130  88.8346490
  71.5716380   7.6804230  89.3832320  72.3155330   6.3668350  89.2692680
  83.5297560  10.3903850 104.1031640  84.3222880   9.8953080 103.8957600
  83.8230710  11.0693990 104.7107250  77.7875260   3.0403810  76.8656960
  77.0117360   2.5604250  77.1555530  78.4388190   2.3609460  76.6913120
  71.8041090   3.3523620  77.7432720  70.9725970   3.0972330  78.1429230
  72.4122070   3.4234390  78.4790640  81.8082690   7.4464000  75.6456090
  81.3464220   6.6751240  75.9743260  82.6208240   7.4730070  76.1508540
  71.7842350   7.3863710  77.9390740  72.0870390   6.4961450  77.7600960
  72.5285940   7.9433930  77.7112990  78.0346000   9.7322010  75.2660080
  77.4157440  10.1879510  74.6954520  78.8897780   9.8873470  74.8649780
  77.2284250   5.7161000  76.8727120  77.1592530   4.7750940  76.7116250
  77.9904110   5.8062410  77.4449690  78.9009350   4.6161250  72.6591990
  78.2826620   5.0810700  72.0954710  79.4132600   5.3088730  73.0761500
  73.7641110   4.1437120  79.3375590  73.4310490   4.7706040  79.9796660
  73.9407790   4.6699000  78.5577260  72.9760210   6.1117920  81.1524770
  73.5934210   6.7869000  80.8709220  72.1153330   6.5205900  81.0612270
  68.2692550   5.3017780  70.0331620  67.8920530   5.7904880  69.3016520
  68.5265620   5.9743060  70.6638150  83.8937800   7.5757330  79.0679410
  83.2101320   8.2456440  79.0596080  84.4332090   7.7737980  78.3024270
  81.4296540   9.4201460  77.7824590  81.4423700   9.0163750  76.9146850
  80.8771760  10.1948750  77.6786020  82.7241960   6.1417680  72.8714760
  82.6138290   5.1992010  72.9964180  82.7210210   6.5033320  73.7577520
  80.8281980   4.3231300  79.1107200  81.2450770   4.1091410  78.2760660
  81.5521800   4.5804090  79.6815820  78.2662240   1.7683000  72.2277250
  77.3391520   1.7020380  72.4565720  78.4187060   2.7063130  72.1132490
  84.7744080   2.7218520  79.2023440  83.9462710   2.7911610  78.7273570
  85.3694560   3.3072830  78.7339270  82.2959530   3.3303300  72.7312500
  81.6771950   2.9922850  72.0838800  82.2783980   2.6863060  73.4391690
  74.3400580   5.9815300  77.1736190  74.0428870   5.3760770  76.4943970
  75.2900400   6.0192610  77.0625550  82.4286190   9.5547170  80.8359290
  81.9516750  10.3619360  80.6431900  81.7447980   8.9025500  80.9885500
  73.4319010   5.7196990  83.8243990  72.5347540   5.9436960  84.0717390
  73.4571880   5.8431930  82.8755390  80.4724230   2.5690110  69.7385250
  80.9117510   1.7312540  69.5923070  81.1852650   3.2019510  69.8249390
  72.2590230   2.5910310  82.4001360  72.1198000   3.4633110  82.7688760
  71.3771590   2.2483120  82.2549300  78.5819610   7.5086180  73.7066490
  79.0215520   8.2510510  73.2921880  78.5206500   7.7512750  74.6305450
  74.0570580   8.5332010  84.6086510  74.0286010   8.9374960  83.7414940
  73.8935550   7.6042370  84.4458110  86.0085400   9.3159110  85.9050680
  86.4845120   9.7942000  86.5839760  86.6292560   9.2476600  85.1796180
  68.2108880   4.3607860  78.3172270  68.2889300   4.4956630  77.3727990
  68.8250560   3.6523750  78.5100390  69.4556510   6.0608050  74.7278450
  69.0484590   6.2022640  73.8732050  70.3469520   5.7768210  74.5249660
  85.4118650   6.5071960  83.0650690  85.5381710   6.2683840  82.1467870
  85.4540030   5.6756500  83.5372770  79.2735390  10.2099960  81.6345500
  79.7880060  10.1207970  82.4367930  78.4304470  10.5559660  81.9273410
  81.2489790  10.4955300  71.0629500  81.0890930  10.2058240  71.9611330
  81.0836500   9.7195430  70.5274730  73.7278170  10.2753830  72.8401120
  73.5520650   9.3589370  72.6268920  72.8733910  10.6341120  73.0798920
  80.9515920   8.0042860  69.6227500  80.2581080   8.0020150  68.9629780
  81.6938780   7.5802180  69.1921670  80.5165850   9.6305570  73.6975990
  80.9722800   8.8494950  74.0114610  80.8558370  10.3412390  74.2417170
  68.2668400   5.4022030  80.8566730  68.4299440   4.9327390  80.0386100
  68.7320850   4.8945590  81.5215570  69.8407380   4.7773460  83.0162540
  69.4562170   4.1367130  83.6145500  70.1519570   5.4809580  83.5857270
  72.3085680   4.8719630  71.4122220  71.5347940   4.3317250  71.2520940
  73.0380310   4.3526240  71.0739980  83.0673660   3.8684990  77.2048610
  83.7872780   4.3640280  76.8144720  82.8655480   3.1902880  76.5602480
  78.4492460   3.9394050  83.0917610  78.3829770   3.0189720  82.8375200
  77.8197600   4.0369490  83.8062250  72.3523080   4.5400010  75.0501030
  72.8701750   3.7368270  74.9957920  71.9007100   4.4779150  75.8917860
  77.2392580   5.8066290  70.3228330  77.5808280   6.5508520  69.8271650
  76.4105290   6.1197410  70.6853160  78.3809190   6.7614620  82.8421410
  78.3953730   5.8295580  82.6240320  77.6734290   6.8474380  83.4811180
  84.5920400   3.4021960  82.1889990  83.8668590   3.9950740  81.9919380
  85.1195860   3.3945500  81.3903360  84.5433510   7.7996700  71.8402150
  83.9009670   7.1452320  72.1145870  84.1564170   8.2051790  71.0642820
  80.1219990   5.1282130  75.6873840  80.4743810   4.5310260  75.0275210
  79.2382320   4.8026360  75.8582090  76.2083270   5.8879820  73.0944250
  76.8954400   6.4349030  73.4751840  75.4215690   6.4320550  73.1293860
  75.5110480   2.8925850  72.7069610  75.9673260   3.7031100  72.9329800
  75.1598690   2.5748990  73.5388100  77.8143090   8.4032190  79.9361910
  78.4585310   8.6091570  80.6135330  78.1772530   7.6420590  79.4832760
  79.0875170   6.4064540  78.6539360  79.7297400   5.7057700  78.7671530
  79.6124520   7.1862980  78.4736250  82.9330890   6.6913160  68.3778500
  82.7068470   5.9743600  68.9703140  82.5427090   6.4425600  67.5400250
  80.8612790   7.2059440  81.8575420  81.1969030   7.7926130  82.5353340
  79.9413130   7.0752150  82.0873210  68.7146920  10.7180020  69.1522960
  69.0744560  11.3169360  68.4980230  68.5739260  11.2639910  69.9257990
  82.5147140   4.6085100  70.0392660  82.2268840   5.0697790  70.8270540
  83.3099310   4.1482870  70.3076880  68.6988780   8.9834880  83.6265360
  68.8079900   8.0429620  83.4860750  68.0469340   9.2489630  82.9779090
  76.6901370   7.2550770  85.0263480  76.3698240   6.5360010  85.5709170
  76.0159730   7.9305840  85.0999540  74.7315540   8.1011220  69.9696630
  74.7225640   8.8340910  69.3541140  73.8113900   7.8542800  70.0623590
  70.3322180   3.3226110  70.7143390  69.7250130   4.0625010  70.7238690
  70.8071530   3.4125470  69.8881590  77.7175140   8.1639460  68.6321820
  77.8187120   7.9603450  67.7023800  76.8176880   7.9097740  68.8369600
  76.3593250  10.6825780  73.3269490  76.6134750  10.6447170  72.4048860
  75.4105730  10.5559110  73.3197740  72.3427470   3.2837260  68.4631960
  73.1090740   3.1718620  69.0257390  72.4202160   2.5875230  67.8108730
  84.3671410   8.7726510  76.5782260  84.4918830   9.5957680  77.0506070
  85.2336970   8.5617240  76.2306410  71.8388940  10.8657720  76.2499390
  72.5751420  10.3173180  76.5207960  72.2229860  11.7313730  76.1105380
  68.7234420   6.9331290  72.1240900  67.7974200   7.1752430  72.1146310
  69.1890850   7.7605550  72.0025650  70.8447220  10.0503790  85.4384970
  71.6459950  10.3715840  85.8520370  70.3299040   9.6899370  86.1604880
  74.9491250  10.0388030  68.0724960  75.7419860  10.3276860  67.6206750
  74.4295600   9.6080200  67.3937440  79.6811850   6.1583660  85.3860380
  79.0750010   6.1815260  84.6456130  79.3765960   5.4266700  85.9227630
  81.1112220   9.8863950  83.9969790  82.0633970   9.8021970  83.9470030
  80.9640440  10.5505660  84.6703580  84.0021420   9.2658160  69.4961700
  83.7162930   8.8523300  68.6815880  83.8040970  10.1945870  69.3762220
  68.5645030   2.5377250  84.3821020  69.0684050   1.9584530  84.9537250
  67.8252450   2.8217480  84.9197390  75.4668650   5.2591440  67.9367310
  75.3619290   4.6443790  68.6628690  75.2992870   4.7357330  67.1530320
  75.6182970   3.9448240  83.9156540  74.8528640   4.5133240  83.8311210
  75.7998930   3.6524450  83.0224770  78.7071380   4.3211470  68.5409300
  78.1581480   4.7680770  69.1852040  79.3290640   3.8160720  69.0646970
  82.7606320   5.6753570  84.4731560  83.5015790   6.0129330  83.9699020
  81.9979000   5.8445630  83.9201330  74.3746500   3.2802390  70.4374600
  74.7962920   3.1142260  71.2805990  74.4997340   2.4702620  69.9429740
  81.4351980   3.7268400  83.0086770  81.8493000   3.8813480  83.8577190
  80.5002980   3.8523620  83.1712550  76.1967210   3.6788880  80.9782700
  76.6155320   4.5221610  80.8058940  75.2775840   3.8160920  80.7489480
  80.8719010   1.9642250  80.9383050  80.3454230   2.4884870  80.3348190
  81.2150350   2.5969640  81.5692780  74.0474630   9.9841890  82.0940430
  73.5095720  10.7087950  81.7749130  74.3008590   9.5072230  81.3037770
  76.9036840  11.2193100  82.3527080  76.8295540  12.1228240  82.6599450
  76.0015680  10.9005000  82.3249150  77.4522170  10.3851610  69.9753440
  78.3472960  10.7236580  69.9972200  77.4839800   9.6631020  69.3477720
  71.0918330   5.7578660  68.2040440  71.5293200   6.3008330  68.8598020
  71.5766060   4.9325610  68.2136780  68.3064130   8.5467690  75.6560700
  68.6367140   7.6788750  75.4239340  68.7355130   8.7526210  76.4865660
  72.9026050   6.8776700  73.3162670  72.6021590   6.7541670  74.2166580
  72.7963540   6.0185290  72.9078400  68.7954340   9.4138280  78.3942330
  68.3585330   9.5939080  79.2266480  69.3632020  10.1712900  78.2524050
  84.4316520   8.9155280  82.6819640  83.8318510   8.9747840  81.9383560
  84.5610420   7.9760260  82.8116490  85.6717970   6.6573100  68.0189350
  84.8410930   6.7249750  68.4896580  85.8489800   7.5477220  67.7156210
  85.1274430   3.4020580  70.5223550  85.8893340   3.9717230  70.6283240
  85.1428800   2.8347780  71.2931860  68.6278770   1.9258510  74.7531210
  67.9727610   1.6570150  74.1090910  69.4656720   1.8162990  74.3033190
  86.1334400   4.2570680  75.3665480  86.5043230   3.4738000  74.9601450
  86.7736330   4.9459780  75.1882780  83.1168160   5.6407260  80.7795800
  82.3028000   6.0704420  81.0421590  83.5242360   6.2525670  80.1664850
  85.1793600   3.6954950  67.6796070  85.4542440   4.6033830  67.5515290
  84.9904340   3.6317480  68.6158060  83.1744210  10.3925860  74.3064070
  83.7703280  10.0710430  73.6298490  83.4322360   9.9197680  75.0977340
  71.0806780   6.8243770  84.4554700  71.0376410   6.4536680  85.3369160
  71.2117790   7.7621340  84.5956520  74.7812810   8.3803360  80.0564420
  74.5404170   8.6477920  79.1694940  75.7215450   8.5509090  80.1115280
  86.0416970  10.3997740  80.8575060  85.5475250  10.7966610  80.1402190
  85.4330260   9.7746950  81.2512340  70.9194810   9.7706020  81.5752480
  70.3255130   9.6390720  82.3142520  70.9118650   8.9344160  81.1094580
  83.7256420  11.0421160  78.1361800  83.2659390  11.7936970  77.7619820
  83.0968880  10.3227630  78.0776600  70.5507040   7.1364400  80.5260520
  69.8241100   6.5169690  80.4586470  70.6116190   7.5305010  79.6558600
  74.1552140   9.3509400  77.3109930  74.6717160   8.7396760  76.7858190
  74.8049520   9.8538180  77.8020940  76.8947640  10.2417890  78.1378910
  77.1825450   9.9872190  77.2611920  77.4070860   9.6895250  78.7284480
  68.8337040  10.4538790  73.7357280  68.6659080   9.8209470  74.4339170
  67.9671550  10.6598190  73.3851470  70.4399740   9.1472020  71.1807420
  69.9147360   9.5280050  70.4769380  70.3644320   9.7722790  71.9017130
  76.9620000  11.1633990  85.5047110  77.8887310  10.9278260  85.5483070
  76.9470430  11.9905990  85.0233140  85.1965060  10.7059560  72.5021360
  85.3717250  10.0197300  71.8582280  84.4986630  11.2306610  72.1098030
  73.0392710  11.0954400  70.0556670  73.7711530  10.8113680  69.5080560
  73.2986380  10.8567680  70.9456050  72.2007500   7.2119130  70.0603000
  71.5716380   7.6804230  70.6088830  72.3155330   6.3668350  70.4949190
  77.7875260   3.0403810  58.0913470  77.0117360   2.5604250  58.3812040
  78.4388190   2.3609460  57.9169630  71.8041090   3.3523620  58.9689230
  70.9725970   3.0972330  59.3685740  72.4122070   3.4234390  59.7047150
  81.8082690   7.4464000  56.8712600  81.3464220   6.6751240  57.1999770
  82.6208240   7.4730070  57.3765050  71.7842350   7.3863710  59.1647250
  72.0870390   6.4961450  58.9857470  72.5285940   7.9433930  58.9369500
  78.0346000   9.7322010  56.4916590  77.4157440  10.1879510  55.9211030
  78.8897780   9.8873470  56.0906290  77.2284250   5.7161000  58.0983630
  77.1592530   4.7750940  57.9372760  77.9904110   5.8062410  58.6706200
  78.9009350   4.6161250  53.8848500  78.2826620   5.0810700  53.3211220
  79.4132600   5.3088730  54.3018010  73.7641110   4.1437120  60.5632100
  73.4310490   4.7706040  61.2053170  73.9407790   4.6699000  59.7833770
  72.9760210   6.1117920  62.3781280  73.5934210   6.7869000  62.0965730
  72.1153330   6.5205900  62.2868780  68.2692550   5.3017780  51.2588130
  67.8920530   5.7904880  50.5273030  68.5265620   5.9743060  51.8894660
  83.8937800   7.5757330  60.2935920  83.2101320   8.2456440  60.2852590
  84.4332090   7.7737980  59.5280780  81.4296540   9.4201460  59.0081100
  81.4423700   9.0163750  58.1403360  80.8771760  10.1948750  58.9042530
  82.7241960   6.1417680  54.0971270  82.6138290   5.1992010  54.2220690
  82.7210210   6.5033320  54.9834030  80.8281980   4.3231300  60.3363710
  81.2450770   4.1091410  59.5017170  81.5521800   4.5804090  60.9072330
  78.2662240   1.7683000  53.4533760  77.3391520   1.7020380  53.6822230
  78.4187060   2.7063130  53.3389000  84.7744080   2.7218520  60.4279950
  83.9462710   2.7911610  59.9530080  85.3694560   3.3072830  59.9595780
  82.2959530   3.3303300  53.9569010  81.6771950   2.9922850  53.3095310
  82.2783980   2.6863060  54.6648200  74.3400580   5.9815300  58.3992700
  74.0428870   5.3760770  57.7200480  75.2900400   6.0192610  58.2882060
  82.4286190   9.5547170  62.0615800  81.9516750  10.3619360  61.8688410
  81.7447980   8.9025500  62.2142010  73.4319010   5.7196990  65.0500500
  72.5347540   5.9436960  65.2973900  73.4571880   5.8431930  64.1011900
  80.4724230   2.5690110  50.9641760  80.9117510   1.7312540  50.8179580
  81.1852650   3.2019510  51.0505900  72.2590230   2.5910310  63.6257870
  72.1198000   3.4633110  63.9945270  71.3771590   2.2483120  63.4805810
  78.5819610   7.5086180  54.9323000  79.0215520   8.2510510  54.5178390
  78.5206500   7.7512750  55.8561960  74.0570580   8.5332010  65.8343020
  74.0286010   8.9374960  64.9671450  73.8935550   7.6042370  65.6714620
  86.0085400   9.3159110  67.1307190  86.4845120   9.7942000  67.8096270
  86.6292560   9.2476600  66.4052690  68.2108880   4.3607860  59.5428780
  68.2889300   4.4956630  58.5984500  68.8250560   3.6523750  59.7356900
  69.4556510   6.0608050  55.9534960  69.0484590   6.2022640  55.0988560
  70.3469520   5.7768210  55.7506170  85.4118650   6.5071960  64.2907200
  85.5381710   6.2683840  63.3724380  85.4540030   5.6756500  64.7629280
  79.2735390  10.2099960  62.8602010  79.7880060  10.1207970  63.6624440
  78.4304470  10.5559660  63.1529920  81.2489790  10.4955300  52.2886010
  81.0890930  10.2058240  53.1867840  81.0836500   9.7195430  51.7531240
  73.7278170  10.2753830  54.0657630  73.5520650   9.3589370  53.8525430
  72.8733910  10.6341120  54.3055430  80.9515920   8.0042860  50.8484010
  80.2581080   8.0020150  50.1886290  81.6938780   7.5802180  50.4178180
  80.5165850   9.6305570  54.9232500  80.9722800   8.8494950  55.2371120
  80.8558370  10.3412390  55.4673680  68.2668400   5.4022030  62.0823240
  68.4299440   4.9327390  61.2642610  68.7320850   4.8945590  62.7472080
  69.8407380   4.7773460  64.2419050  69.4562170   4.1367130  64.8402010
  70.1519570   5.4809580  64.8113780  72.3085680   4.8719630  52.6378730
  71.5347940   4.3317250  52.4777450  73.0380310   4.3526240  52.2996490
  83.0673660   3.8684990  58.4305120  83.7872780   4.3640280  58.0401230
  82.8655480   3.1902880  57.7858990  78.4492460   3.9394050  64.3174120
  78.3829770   3.0189720  64.0631710  77.8197600   4.0369490  65.0318760
  72.3523080   4.5400010  56.2757540  72.8701750   3.7368270  56.2214430
  71.9007100   4.4779150  57.1174370  77.2392580   5.8066290  51.5484840
  77.5808280   6.5508520  51.0528160  76.4105290   6.1197410  51.9109670
  78.3809190   6.7614620  64.0677920  78.3953730   5.8295580  63.8496830
  77.6734290   6.8474380  64.7067690  84.5920400   3.4021960  63.4146500
  83.8668590   3.9950740  63.2175890  85.1195860   3.3945500  62.6159870
  84.5433510   7.7996700  53.0658660  83.9009670   7.1452320  53.3402380
  84.1564170   8.2051790  52.2899330  80.1219990   5.1282130  56.9130350
  80.4743810   4.5310260  56.2531720  79.2382320   4.8026360  57.0838600
  76.2083270   5.8879820  54.3200760  76.8954400   6.4349030  54.7008350
  75.4215690   6.4320550  54.3550370  75.5110480   2.8925850  53.9326120
  75.9673260   3.7031100  54.1586310  75.1598690   2.5748990  54.7644610
  77.8143090   8.4032190  61.1618420  78.4585310   8.6091570  61.8391840
  78.1772530   7.6420590  60.7089270  79.0875170   6.4064540  59.8795870
  79.7297400   5.7057700  59.9928040  79.6124520   7.1862980  59.6992760
  82.9330890   6.6913160  49.6035010  82.7068470   5.9743600  50.1959650
  82.5427090   6.4425600  48.7656760  80.8612790   7.2059440  63.0831930
  81.1969030   7.7926130  63.7609850  79.9413130   7.0752150  63.3129720
  68.7146920  10.7180020  50.3779470  69.0744560  11.3169360  49.7236740
  68.5739260  11.2639910  51.1514500  82.5147140   4.6085100  51.2649170
  82.2268840   5.0697790  52.0527050  83.3099310   4.1482870  51.5333390
  68.6988780   8.9834880  64.8521870  68.8079900   8.0429620  64.7117260
  68.0469340   9.2489630  64.2035600  76.6901370   7.2550770  66.2519990
  76.3698240   6.5360010  66.7965680  76.0159730   7.9305840  66.3256050
  74.7315540   8.1011220  51.1953140  74.7225640   8.8340910  50.5797650
  73.8113900   7.8542800  51.2880100  70.3322180   3.3226110  51.9399900
  69.7250130   4.0625010  51.9495200  70.8071530   3.4125470  51.1138100
  77.7175140   8.1639460  49.8578330  77.8187120   7.9603450  48.9280310
  76.8176880   7.9097740  50.0626110  76.3593250  10.6825780  54.5526000
  76.6134750  10.6447170  53.6305370  75.4105730  10.5559110  54.5454250
  72.3427470   3.2837260  49.6888470  73.1090740   3.1718620  50.2513900
  72.4202160   2.5875230  49.0365240  84.3671410   8.7726510  57.8038770
  84.4918830   9.5957680  58.2762580  85.2336970   8.5617240  57.4562920
  71.8388940  10.8657720  57.4755900  72.5751420  10.3173180  57.7464470
  72.2229860  11.7313730  57.3361890  68.7234420   6.9331290  53.3497410
  67.7974200   7.1752430  53.3402820  69.1890850   7.7605550  53.2282160
  70.8447220  10.0503790  66.6641480  71.6459950  10.3715840  67.0776880
  70.3299040   9.6899370  67.3861390  74.9491250  10.0388030  49.2981470
  75.7419860  10.3276860  48.8463260  74.4295600   9.6080200  48.6193950
  79.6811850   6.1583660  66.6116890  79.0750010   6.1815260  65.8712640
  79.3765960   5.4266700  67.1484140  81.1112220   9.8863950  65.2226300
  82.0633970   9.8021970  65.1726540  80.9640440  10.5505660  65.8960090
  84.0021420   9.2658160  50.7218210  83.7162930   8.8523300  49.9072390
  83.8040970  10.1945870  50.6018730  68.5645030   2.5377250  65.6077530
  69.0684050   1.9584530  66.1793760  67.8252450   2.8217480  66.1453900
  75.4668650   5.2591440  49.1623820  75.3619290   4.6443790  49.8885200
  75.2992870   4.7357330  48.3786830  75.6182970   3.9448240  65.1413050
  74.8528640   4.5133240  65.0567720  75.7998930   3.6524450  64.2481280
  78.7071380   4.3211470  49.7665810  78.1581480   4.7680770  50.4108550
  79.3290640   3.8160720  50.2903480  82.7606320   5.6753570  65.6988070
  83.5015790   6.0129330  65.1955530  81.9979000   5.8445630  65.1457840
  74.3746500   3.2802390  51.6631110  74.7962920   3.1142260  52.5062500
  74.4997340   2.4702620  51.1686250  81.4351980   3.7268400  64.2343280
  81.8493000   3.8813480  65.0833700  80.5002980   3.8523620  64.3969060
  76.1967210   3.6788880  62.2039210  76.6155320   4.5221610  62.0315450
  75.2775840   3.8160920  61.9745990  80.8719010   1.9642250  62.1639560
  80.3454230   2.4884870  61.5604700  81.2150350   2.5969640  62.7949290
  74.0474630   9.9841890  63.3196940  73.5095720  10.7087950  63.0005640
  74.3008590   9.5072230  62.5294280  76.9036840  11.2193100  63.5783590
  76.8295540  12.1228240  63.8855960  76.0015680  10.9005000  63.5505660
  77.4522170  10.3851610  51.2009950  78.3472960  10.7236580  51.2228710
  77.4839800   9.6631020  50.5734230  71.0918330   5.7578660  49.4296950
  71.5293200   6.3008330  50.0854530  71.5766060   4.9325610  49.4393290
  68.3064130   8.5467690  56.8817210  68.6367140   7.6788750  56.6495850
  68.7355130   8.7526210  57.7122170  72.9026050   6.8776700  54.5419180
  72.6021590   6.7541670  55.4423090  72.7963540   6.0185290  54.1334910
  68.7954340   9.4138280  59.6198840  68.3585330   9.5939080  60.4522990
  69.3632020  10.1712900  59.4780560  84.4316520   8.9155280  63.9076150
  83.8318510   8.9747840  63.1640070  84.5610420   7.9760260  64.0373000
  85.6717970   6.6573100  49.2445860  84.8410930   6.7249750  49.7153090
  85.8489800   7.5477220  48.9412720  85.1274430   3.4020580  51.7480060
  85.8893340   3.9717230  51.8539750  85.1428800   2.8347780  52.5188370
  68.6278770   1.9258510  55.9787720  67.9727610   1.6570150  55.3347420
  69.4656720   1.8162990  55.5289700  86.1334400   4.2570680  56.5921990
  86.5043230   3.4738000  56.1857960  86.7736330   4.9459780  56.4139290
  83.1168160   5.6407260  62.0052310  82.3028000   6.0704420  62.2678100
  83.5242360   6.2525670  61.3921360  85.1793600   3.6954950  48.9052580
  85.4542440   4.6033830  48.7771800  84.9904340   3.6317480  49.8414570
  83.1744210  10.3925860  55.5320580  83.7703280  10.0710430  54.8555000
  83.4322360   9.9197680  56.3233850  71.0806780   6.8243770  65.6811210
  71.0376410   6.4536680  66.5625670  71.2117790   7.7621340  65.8213030
  74.7812810   8.3803360  61.2820930  74.5404170   8.6477920  60.3951450
  75.7215450   8.5509090  61.3371790  86.0416970  10.3997740  62.0831570
  85.5475250  10.7966610  61.3658700  85.4330260   9.7746950  62.4768850
  70.9194810   9.7706020  62.8008990  70.3255130   9.6390720  63.5399030
  70.9118650   8.9344160  62.3351090  83.7256420  11.0421160  59.3618310
  83.2659390  11.7936970  58.9876330  83.0968880  10.3227630  59.3033110
  70.5507040   7.1364400  61.7517030  69.8241100   6.5169690  61.6842980
  70.6116190   7.5305010  60.8815110  74.1552140   9.3509400  58.5366440
  74.6717160   8.7396760  58.0114700  74.8049520   9.8538180  59.0277450
  76.8947640  10.2417890  59.3635420  77.1825450   9.9872190  58.4868430
  77.4070860   9.6895250  59.9540990  68.8337040  10.4538790  54.9613790
  68.6659080   9.8209470  55.6595680  67.9671550  10.6598190  54.6107980
  70.4399740   9.1472020  52.4063930  69.9147360   9.5280050  51.7025890
  70.3644320   9.7722790  53.1273640  76.9620000  11.1633990  66.7303620
  77.8887310  10.9278260  66.7739580  76.9470430  11.9905990  66.2489650
  85.1965060  10.7059560  53.7277870  85.3717250  10.0197300  53.0838790
  84.4986630  11.2306610  53.3354540  73.0392710  11.0954400  51.2813180
  73.7711530  10.8113680  50.7337070  73.2986380  10.8567680  52.1712560
  72.2007500   7.2119130  51.2859510  71.5716380   7.6804230  51.8345340
  72.3155330   6.3668350  51.7205700  83.5297560  10.3903850  66.5544660
  84.3222880   9.8953080  66.3470620  83.8230710  11.0693990  67.1620270
  77.7875260   3.0403810  39.3169980  77.0117360   2.5604250  39.6068550
  78.4388190   2.3609460  39.1426140  71.8041090   3.3523620  40.1945740
  70.9725970   3.0972330  40.5942250  72.4122070   3.4234390  40.9303660
  81.8082690   7.4464000  38.0969110  81.3464220   6.6751240  38.4256280
  82.6208240   7.4730070  38.6021560  71.7842350   7.3863710  40.3903760
  72.0870390   6.4961450  40.2113980  72.5285940   7.9433930  40.1626010
  78.0346000   9.7322010  37.7173100  77.4157440  10.1879510  37.1467540
  78.8897780   9.8873470  37.3162800  77.2284250   5.7161000  39.3240140
  77.1592530   4.7750940  39.1629270  77.9904110   5.8062410  39.8962710
  78.9009350   4.6161250  35.1105010  78.2826620   5.0810700  34.5467730
  79.4132600   5.3088730  35.5274520  73.7641110   4.1437120  41.7888610
  73.4310490   4.7706040  42.4309680  73.9407790   4.6699000  41.0090280
  72.9760210   6.1117920  43.6037790  73.5934210   6.7869000  43.3222240
  72.1153330   6.5205900  43.5125290  68.2692550   5.3017780  32.4844640
  67.8920530   5.7904880  31.7529540  68.5265620   5.9743060  33.1151170
  83.8937800   7.5757330  41.5192430  83.2101320   8.2456440  41.5109100
  84.4332090   7.7737980  40.7537290  81.4296540   9.4201460  40.2337610
  81.4423700   9.0163750  39.3659870  80.8771760  10.1948750  40.1299040
  82.7241960   6.1417680  35.3227780  82.6138290   5.1992010  35.4477200
  82.7210210   6.5033320  36.2090540  80.8281980   4.3231300  41.5620220
  81.2450770   4.1091410  40.7273680  81.5521800   4.5804090  42.1328840
  78.2662240   1.7683000  34.6790270  77.3391520   1.7020380  34.9078740
  78.4187060   2.7063130  34.5645510  84.7744080   2.7218520  41.6536460
  83.9462710   2.7911610  41.1786590  85.3694560   3.3072830  41.1852290
  82.2959530   3.3303300  35.1825520  81.6771950   2.9922850  34.5351820
  82.2783980   2.6863060  35.8904710  74.3400580   5.9815300  39.6249210
  74.0428870   5.3760770  38.9456990  75.2900400   6.0192610  39.5138570
  82.4286190   9.5547170  43.2872310  81.9516750  10.3619360  43.0944920
  81.7447980   8.9025500  43.4398520  73.4319010   5.7196990  46.2757010
  72.5347540   5.9436960  46.5230410  73.4571880   5.8431930  45.3268410
  80.4724230   2.5690110  32.1898270  80.9117510   1.7312540  32.0436090
  81.1852650   3.2019510  32.2762410  72.2590230   2.5910310  44.8514380
  72.1198000   3.4633110  45.2201780  71.3771590   2.2483120  44.7062320
  78.5819610   7.5086180  36.1579510  79.0215520   8.2510510  35.7434900
  78.5206500   7.7512750  37.0818470  74.0570580   8.5332010  47.0599530
  74.0286010   8.9374960  46.1927960  73.8935550   7.6042370  46.8971130
  86.0085400   9.3159110  48.3563700  86.4845120   9.7942000  49.0352780
  86.6292560   9.2476600  47.6309200  68.2108880   4.3607860  40.7685290
  68.2889300   4.4956630  39.8241010  68.8250560   3.6523750  40.9613410
  69.4556510   6.0608050  37.1791470  69.0484590   6.2022640  36.3245070
  70.3469520   5.7768210  36.9762680  85.4118650   6.5071960  45.5163710
  85.5381710   6.2683840  44.5980890  85.4540030   5.6756500  45.9885790
  79.2735390  10.2099960  44.0858520  79.7880060  10.1207970  44.8880950
  78.4304470  10.5559660  44.3786430  81.2489790  10.4955300  33.5142520
  81.0890930  10.2058240  34.4124350  81.0836500   9.7195430  32.9787750
  73.7278170  10.2753830  35.2914140  73.5520650   9.3589370  35.0781940
  72.8733910  10.6341120  35.5311940  80.9515920   8.0042860  32.0740520
  80.2581080   8.0020150  31.4142800  81.6938780   7.5802180  31.6434690
  80.5165850   9.6305570  36.1489010  80.9722800   8.8494950  36.4627630
  80.8558370  10.3412390  36.6930190  68.2668400   5.4022030  43.3079750
  68.4299440   4.9327390  42.4899120  68.7320850   4.8945590  43.9728590
  69.8407380   4.7773460  45.4675560  69.4562170   4.1367130  46.0658520
  70.1519570   5.4809580  46.0370290  72.3085680   4.8719630  33.8635240
  71.5347940   4.3317250  33.7033960  73.0380310   4.3526240  33.5253000
  83.0673660   3.8684990  39.6561630  83.7872780   4.3640280  39.2657740
  82.8655480   3.1902880  39.0115500  78.4492460   3.9394050  45.5430630
  78.3829770   3.0189720  45.2888220  77.8197600   4.0369490  46.2575270
  72.3523080   4.5400010  37.5014050  72.8701750   3.7368270  37.4470940
  71.9007100   4.4779150  38.3430880  77.2392580   5.8066290  32.7741350
  77.5808280   6.5508520  32.2784670  76.4105290   6.1197410  33.1366180
  78.3809190   6.7614620  45.2934430  78.3953730   5.8295580  45.0753340
  77.6734290   6.8474380  45.9324200  84.5920400   3.4021960  44.6403010
  83.8668590   3.9950740  44.4432400  85.1195860   3.3945500  43.8416380
  84.5433510   7.7996700  34.2915170  83.9009670   7.1452320  34.5658890
  84.1564170   8.2051790  33.5155840  80.1219990   5.1282130  38.1386860
  80.4743810   4.5310260  37.4788230  79.2382320   4.8026360  38.3095110
  76.2083270   5.8879820  35.5457270  76.8954400   6.4349030  35.9264860
  75.4215690   6.4320550  35.5806880  75.5110480   2.8925850  35.1582630
  75.9673260   3.7031100  35.3842820  75.1598690   2.5748990  35.9901120
  77.8143090   8.4032190  42.3874930  78.4585310   8.6091570  43.0648350
  78.1772530   7.6420590  41.9345780  79.0875170   6.4064540  41.1052380
  79.7297400   5.7057700  41.2184550  79.6124520   7.1862980  40.9249270
  82.9330890   6.6913160  30.8291520  82.7068470   5.9743600  31.4216160
  82.5427090   6.4425600  29.9913270  80.8612790   7.2059440  44.3088440
  81.1969030   7.7926130  44.9866360  79.9413130   7.0752150  44.5386230
  68.7146920  10.7180020  31.6035980  69.0744560  11.3169360  30.9493250
  68.5739260  11.2639910  32.3771010  82.5147140   4.6085100  32.4905680
  82.2268840   5.0697790  33.2783560  83.3099310   4.1482870  32.7589900
  68.6988780   8.9834880  46.0778380  68.8079900   8.0429620  45.9373770
  68.0469340   9.2489630  45.4292110  76.6901370   7.2550770  47.4776500
  76.3698240   6.5360010  48.0222190  76.0159730   7.9305840  47.5512560
  74.7315540   8.1011220  32.4209650  74.7225640   8.8340910  31.8054160
  73.8113900   7.8542800  32.5136610  70.3322180   3.3226110  33.1656410
  69.7250130   4.0625010  33.1751710  70.8071530   3.4125470  32.3394610
  77.7175140   8.1639460  31.0834840  77.8187120   7.9603450  30.1536820
  76.8176880   7.9097740  31.2882620  76.3593250  10.6825780  35.7782510
  76.6134750  10.6447170  34.8561880  75.4105730  10.5559110  35.7710760
  72.3427470   3.2837260  30.9144980  73.1090740   3.1718620  31.4770410
  72.4202160   2.5875230  30.2621750  84.3671410   8.7726510  39.0295280
  84.4918830   9.5957680  39.5019090  85.2336970   8.5617240  38.6819430
  71.8388940  10.8657720  38.7012410  72.5751420  10.3173180  38.9720980
  72.2229860  11.7313730  38.5618400  68.7234420   6.9331290  34.5753920
  67.7974200   7.1752430  34.5659330  69.1890850   7.7605550  34.4538670
  70.8447220  10.0503790  47.8897990  71.6459950  10.3715840  48.3033390
  70.3299040   9.6899370  48.6117900  74.9491250  10.0388030  30.5237980
  75.7419860  10.3276860  30.0719770  74.4295600   9.6080200  29.8450460
  79.6811850   6.1583660  47.8373400  79.0750010   6.1815260  47.0969150
  79.3765960   5.4266700  48.3740650  81.1112220   9.8863950  46.4482810
  82.0633970   9.8021970  46.3983050  80.9640440  10.5505660  47.1216600
  84.0021420   9.2658160  31.9474720  83.7162930   8.8523300  31.1328900
  83.8040970  10.1945870  31.8275240  68.5645030   2.5377250  46.8334040
  69.0684050   1.9584530  47.4050270  67.8252450   2.8217480  47.3710410
  75.4668650   5.2591440  30.3880330  75.3619290   4.6443790  31.1141710
  75.2992870   4.7357330  29.6043340  75.6182970   3.9448240  46.3669560
  74.8528640   4.5133240  46.2824230  75.7998930   3.6524450  45.4737790
  78.7071380   4.3211470  30.9922320  78.1581480   4.7680770  31.6365060
  79.3290640   3.8160720  31.5159990  82.7606320   5.6753570  46.9244580
  83.5015790   6.0129330  46.4212040  81.9979000   5.8445630  46.3714350
  74.3746500   3.2802390  32.8887620  74.7962920   3.1142260  33.7319010
  74.4997340   2.4702620  32.3942760  81.4351980   3.7268400  45.4599790
  81.8493000   3.8813480  46.3090210  80.5002980   3.8523620  45.6225570
  76.1967210   3.6788880  43.4295720  76.6155320   4.5221610  43.2571960
  75.2775840   3.8160920  43.2002500  80.8719010   1.9642250  43.3896070
  80.3454230   2.4884870  42.7861210  81.2150350   2.5969640  44.0205800
  74.0474630   9.9841890  44.5453450  73.5095720  10.7087950  44.2262150
  74.3008590   9.5072230  43.7550790  76.9036840  11.2193100  44.8040100
  76.8295540  12.1228240  45.1112470  76.0015680  10.9005000  44.7762170
  77.4522170  10.3851610  32.4266460  78.3472960  10.7236580  32.4485220
  77.4839800   9.6631020  31.7990740  71.0918330   5.7578660  30.6553460
  71.5293200   6.3008330  31.3111040  71.5766060   4.9325610  30.6649800
  68.3064130   8.5467690  38.1073720  68.6367140   7.6788750  37.8752360
  68.7355130   8.7526210  38.9378680  72.9026050   6.8776700  35.7675690
  72.6021590   6.7541670  36.6679600  72.7963540   6.0185290  35.3591420
  68.7954340   9.4138280  40.8455350  68.3585330   9.5939080  41.6779500
  69.3632020  10.1712900  40.7037070  84.4316520   8.9155280  45.1332660
  83.8318510   8.9747840  44.3896580  84.5610420   7.9760260  45.2629510
  85.6717970   6.6573100  30.4702370  84.8410930   6.7249750  30.9409600
  85.8489800   7.5477220  30.1669230  85.1274430   3.4020580  32.9736570
  85.8893340   3.9717230  33.0796260  85.1428800   2.8347780  33.7444880
  68.6278770   1.9258510  37.2044230  67.9727610   1.6570150  36.5603930
  69.4656720   1.8162990  36.7546210  86.1334400   4.2570680  37.8178500
  86.5043230   3.4738000  37.4114470  86.7736330   4.9459780  37.6395800
  83.1168160   5.6407260  43.2308820  82.3028000   6.0704420  43.4934610
  83.5242360   6.2525670  42.6177870  85.1793600   3.6954950  30.1309090
  85.4542440   4.6033830  30.0028310  84.9904340   3.6317480  31.0671080
  83.1744210  10.3925860  36.7577090  83.7703280  10.0710430  36.0811510
  83.4322360   9.9197680  37.5490360  71.0806780   6.8243770  46.9067720
  71.0376410   6.4536680  47.7882180  71.2117790   7.7621340  47.0469540
  74.7812810   8.3803360  42.5077440  74.5404170   8.6477920  41.6207960
  75.7215450   8.5509090  42.5628300  86.0416970  10.3997740  43.3088080
  85.5475250  10.7966610  42.5915210  85.4330260   9.7746950  43.7025360
  70.9194810   9.7706020  44.0265500  70.3255130   9.6390720  44.7655540
  70.9118650   8.9344160  43.5607600  83.7256420  11.0421160  40.5874820
  83.2659390  11.7936970  40.2132840  83.0968880  10.3227630  40.5289620
  70.5507040   7.1364400  42.9773540  69.8241100   6.5169690  42.9099490
  70.6116190   7.5305010  42.1071620  74.1552140   9.3509400  39.7622950
  74.6717160   8.7396760  39.2371210  74.8049520   9.8538180  40.2533960
  76.8947640  10.2417890  40.5891930  77.1825450   9.9872190  39.7124940
  77.4070860   9.6895250  41.1797500  68.8337040  10.4538790  36.1870300
  68.6659080   9.8209470  36.8852190  67.9671550  10.6598190  35.8364490
  70.4399740   9.1472020  33.6320440  69.9147360   9.5280050  32.9282400
  70.3644320   9.7722790  34.3530150  76.9620000  11.1633990  47.9560130
  77.8887310  10.9278260  47.9996090  76.9470430  11.9905990  47.4746160
  85.1965060  10.7059560  34.9534380  85.3717250  10.0197300  34.3095300
  84.4986630  11.2306610  34.5611050  73.0392710  11.0954400  32.5069690
  73.7711530  10.8113680  31.9593580  73.2986380  10.8567680  33.3969070
  72.2007500   7.2119130  32.5116020  71.5716380   7.6804230  33.0601850
  72.3155330   6.3668350  32.9462210  83.5297560  10.3903850  47.7801170
  84.3222880   9.8953080  47.5727130  83.8230710  11.0693990  48.3876780
  77.7875260   3.0403810  20.5426490  77.0117360   2.5604250  20.8325060
  78.4388190   2.3609460  20.3682650  71.8041090   3.3523620  21.4202250
  70.9725970   3.0972330  21.8198760  72.4122070   3.4234390  22.1560170
  81.8082690   7.4464000  19.3225620  81.3464220   6.6751240  19.6512790
  82.6208240   7.4730070  19.8278070  71.7842350   7.3863710  21.6160270
  72.0870390   6.4961450  21.4370490  72.5285940   7.9433930  21.3882520
  78.0346000   9.7322010  18.9429610  77.4157440  10.1879510  18.3724050
  78.8897780   9.8873470  18.5419310  77.2284250   5.7161000  20.5496650
  77.1592530   4.7750940  20.3885780  77.9904110   5.8062410  21.1219220
  78.9009350   4.6161250  16.3361520  78.2826620   5.0810700  15.7724240
  79.4132600   5.3088730  16.7531030  73.7641110   4.1437120  23.0145120
  73.4310490   4.7706040  23.6566190  73.9407790   4.6699000  22.2346790
  72.9760210   6.1117920  24.8294300  73.5934210   6.7869000  24.5478750
  72.1153330   6.5205900  24.7381800  68.2692550   5.3017780  13.7101150
  67.8920530   5.7904880  12.9786050  68.5265620   5.9743060  14.3407680
  83.8937800   7.5757330  22.7448940  83.2101320   8.2456440  22.7365610
  84.4332090   7.7737980  21.9793800  81.4296540   9.4201460  21.4594120
  81.4423700   9.0163750  20.5916380  80.8771760  10.1948750  21.3555550
  82.7241960   6.1417680  16.5484290  82.6138290   5.1992010  16.6733710
  82.7210210   6.5033320  17.4347050  80.8281980   4.3231300  22.7876730
  81.2450770   4.1091410  21.9530190  81.5521800   4.5804090  23.3585350
  78.2662240   1.7683000  15.9046780  77.3391520   1.7020380  16.1335250
  78.4187060   2.7063130  15.7902020  84.7744080   2.7218520  22.8792970
  83.9462710   2.7911610  22.4043100  85.3694560   3.3072830  22.4108800
  82.2959530   3.3303300  16.4082030  81.6771950   2.9922850  15.7608330
  82.2783980   2.6863060  17.1161220  74.3400580   5.9815300  20.8505720
  74.0428870   5.3760770  20.1713500  75.2900400   6.0192610  20.7395080
  82.4286190   9.5547170  24.5128820  81.9516750  10.3619360  24.3201430
  81.7447980   8.9025500  24.6655030  73.4319010   5.7196990  27.5013520
  72.5347540   5.9436960  27.7486920  73.4571880   5.8431930  26.5524920
  80.4724230   2.5690110  13.4154780  80.9117510   1.7312540  13.2692600
  81.1852650   3.2019510  13.5018920  72.2590230   2.5910310  26.0770890
  72.1198000   3.4633110  26.4458290  71.3771590   2.2483120  25.9318830
  78.5819610   7.5086180  17.3836020  79.0215520   8.2510510  16.9691410
  78.5206500   7.7512750  18.3074980  74.0570580   8.5332010  28.2856040
  74.0286010   8.9374960  27.4184470  73.8935550   7.6042370  28.1227640
  86.0085400   9.3159110  29.5820210  86.4845120   9.7942000  30.2609290
  86.6292560   9.2476600  28.8565710  68.2108880   4.3607860  21.9941800
  68.2889300   4.4956630  21.0497520  68.8250560   3.6523750  22.1869920
  69.4556510   6.0608050  18.4047980  69.0484590   6.2022640  17.5501580
  70.3469520   5.7768210  18.2019190  85.4118650   6.5071960  26.7420220
  85.5381710   6.2683840  25.8237400  85.4540030   5.6756500  27.2142300
  79.2735390  10.2099960  25.3115030  79.7880060  10.1207970  26.1137460
  78.4304470  10.5559660  25.6042940  81.2489790  10.4955300  14.7399030
  81.0890930  10.2058240  15.6380860  81.0836500   9.7195430  14.2044260
  73.7278170  10.2753830  16.5170650  73.5520650   9.3589370  16.3038450
  72.8733910  10.6341120  16.7568450  80.9515920   8.0042860  13.2997030
  80.2581080   8.0020150  12.6399310  81.6938780   7.5802180  12.8691200
  80.5165850   9.6305570  17.3745520  80.9722800   8.8494950  17.6884140
  80.8558370  10.3412390  17.9186700  68.2668400   5.4022030  24.5336260
  68.4299440   4.9327390  23.7155630  68.7320850   4.8945590  25.1985100
  69.8407380   4.7773460  26.6932070  69.4562170   4.1367130  27.2915030
  70.1519570   5.4809580  27.2626800  72.3085680   4.8719630  15.0891750
  71.5347940   4.3317250  14.9290470  73.0380310   4.3526240  14.7509510
  83.0673660   3.8684990  20.8818140  83.7872780   4.3640280  20.4914250
  82.8655480   3.1902880  20.2372010  78.4492460   3.9394050  26.7687140
  78.3829770   3.0189720  26.5144730  77.8197600   4.0369490  27.4831780
  72.3523080   4.5400010  18.7270560  72.8701750   3.7368270  18.6727450
  71.9007100   4.4779150  19.5687390  77.2392580   5.8066290  13.9997860
  77.5808280   6.5508520  13.5041180  76.4105290   6.1197410  14.3622690
  78.3809190   6.7614620  26.5190940  78.3953730   5.8295580  26.3009850
  77.6734290   6.8474380  27.1580710  84.5920400   3.4021960  25.8659520
  83.8668590   3.9950740  25.6688910  85.1195860   3.3945500  25.0672890
  84.5433510   7.7996700  15.5171680  83.9009670   7.1452320  15.7915400
  84.1564170   8.2051790  14.7412350  80.1219990   5.1282130  19.3643370
  80.4743810   4.5310260  18.7044740  79.2382320   4.8026360  19.5351620
  76.2083270   5.8879820  16.7713780  76.8954400   6.4349030  17.1521370
  75.4215690   6.4320550  16.8063390  75.5110480   2.8925850  16.3839140
  75.9673260   3.7031100  16.6099330  75.1598690   2.5748990  17.2157630
  77.8143090   8.4032190  23.6131440  78.4585310   8.6091570  24.2904860
  78.1772530   7.6420590  23.1602290  79.0875170   6.4064540  22.3308890
  79.7297400   5.7057700  22.4441060  79.6124520   7.1862980  22.1505780
  82.9330890   6.6913160  12.0548030  82.7068470   5.9743600  12.6472670
  82.5427090   6.4425600  11.2169780  80.8612790   7.2059440  25.5344950
  81.1969030   7.7926130  26.2122870  79.9413130   7.0752150  25.7642740
  68.7146920  10.7180020  12.8292490  69.0744560  11.3169360  12.1749760
  68.5739260  11.2639910  13.6027520  82.5147140   4.6085100  13.7162190
  82.2268840   5.0697790  14.5040070  83.3099310   4.1482870  13.9846410
  68.6988780   8.9834880  27.3034890  68.8079900   8.0429620  27.1630280
  68.0469340   9.2489630  26.6548620  76.6901370   7.2550770  28.7033010
  76.3698240   6.5360010  29.2478700  76.0159730   7.9305840  28.7769070
  74.7315540   8.1011220  13.6466160  74.7225640   8.8340910  13.0310670
  73.8113900   7.8542800  13.7393120  70.3322180   3.3226110  14.3912920
  69.7250130   4.0625010  14.4008220  70.8071530   3.4125470  13.5651120
  77.7175140   8.1639460  12.3091350  77.8187120   7.9603450  11.3793330
  76.8176880   7.9097740  12.5139130  76.3593250  10.6825780  17.0039020
  76.6134750  10.6447170  16.0818390  75.4105730  10.5559110  16.9967270
  72.3427470   3.2837260  12.1401490  73.1090740   3.1718620  12.7026920
  72.4202160   2.5875230  11.4878260  84.3671410   8.7726510  20.2551790
  84.4918830   9.5957680  20.7275600  85.2336970   8.5617240  19.9075940
  71.8388940  10.8657720  19.9268920  72.5751420  10.3173180  20.1977490
  72.2229860  11.7313730  19.7874910  68.7234420   6.9331290  15.8010430
  67.7974200   7.1752430  15.7915840  69.1890850   7.7605550  15.6795180
  70.8447220  10.0503790  29.1154500  71.6459950  10.3715840  29.5289900
  70.3299040   9.6899370  29.8374410  74.9491250  10.0388030  11.7494490
  75.7419860  10.3276860  11.2976280  74.4295600   9.6080200  11.0706970
  79.6811850   6.1583660  29.0629910  79.0750010   6.1815260  28.3225660
  79.3765960   5.4266700  29.5997160  81.1112220   9.8863950  27.6739320
  82.0633970   9.8021970  27.6239560  80.9640440  10.5505660  28.3473110
  84.0021420   9.2658160  13.1731230  83.7162930   8.8523300  12.3585410
  83.8040970  10.1945870  13.0531750  68.5645030   2.5377250  28.0590550
  69.0684050   1.9584530  28.6306780  67.8252450   2.8217480  28.5966920
  75.4668650   5.2591440  11.6136840  75.3619290   4.6443790  12.3398220
  75.2992870   4.7357330  10.8299850  75.6182970   3.9448240  27.5926070
  74.8528640   4.5133240  27.5080740  75.7998930   3.6524450  26.6994300
  78.7071380   4.3211470  12.2178830  78.1581480   4.7680770  12.8621570
  79.3290640   3.8160720  12.7416500  82.7606320   5.6753570  28.1501090
  83.5015790   6.0129330  27.6468550  81.9979000   5.8445630  27.5970860
  74.3746500   3.2802390  14.1144130  74.7962920   3.1142260  14.9575520
  74.4997340   2.4702620  13.6199270  81.4351980   3.7268400  26.6856300
  81.8493000   3.8813480  27.5346720  80.5002980   3.8523620  26.8482080
  76.1967210   3.6788880  24.6552230  76.6155320   4.5221610  24.4828470
  75.2775840   3.8160920  24.4259010  80.8719010   1.9642250  24.6152580
  80.3454230   2.4884870  24.0117720  81.2150350   2.5969640  25.2462310
  74.0474630   9.9841890  25.7709960  73.5095720  10.7087950  25.4518660
  74.3008590   9.5072230  24.9807300  76.9036840  11.2193100  26.0296610
  76.8295540  12.1228240  26.3368980  76.0015680  10.9005000  26.0018680
  77.4522170  10.3851610  13.6522970  78.3472960  10.7236580  13.6741730
  77.4839800   9.6631020  13.0247250  71.0918330   5.7578660  11.8809970
  71.5293200   6.3008330  12.5367550  71.5766060   4.9325610  11.8906310
  68.3064130   8.5467690  19.3330230  68.6367140   7.6788750  19.1008870
  68.7355130   8.7526210  20.1635190  72.9026050   6.8776700  16.9932200
  72.6021590   6.7541670  17.8936110  72.7963540   6.0185290  16.5847930
  68.7954340   9.4138280  22.0711860  68.3585330   9.5939080  22.9036010
  69.3632020  10.1712900  21.9293580  84.4316520   8.9155280  26.3589170
  83.8318510   8.9747840  25.6153090  84.5610420   7.9760260  26.4886020
  85.6717970   6.6573100  11.6958880  84.8410930   6.7249750  12.1666110
  85.8489800   7.5477220  11.3925740  85.1274430   3.4020580  14.1993080
  85.8893340   3.9717230  14.3052770  85.1428800   2.8347780  14.9701390
  68.6278770   1.9258510  18.4300740  67.9727610   1.6570150  17.7860440
  69.4656720   1.8162990  17.9802720  86.1334400   4.2570680  19.0435010
  86.5043230   3.4738000  18.6370980  86.7736330   4.9459780  18.8652310
  83.1168160   5.6407260  24.4565330  82.3028000   6.0704420  24.7191120
  83.5242360   6.2525670  23.8434380  85.1793600   3.6954950  11.3565600
  85.4542440   4.6033830  11.2284820  84.9904340   3.6317480  12.2927590
  83.1744210  10.3925860  17.9833600  83.7703280  10.0710430  17.3068020
  83.4322360   9.9197680  18.7746870  71.0806780   6.8243770  28.1324230
  71.0376410   6.4536680  29.0138690  71.2117790   7.7621340  28.2726050
  74.7812810   8.3803360  23.7333950  74.5404170   8.6477920  22.8464470
  75.7215450   8.5509090  23.7884810  86.0416970  10.3997740  24.5344590
  85.5475250  10.7966610  23.8171720  85.4330260   9.7746950  24.9281870
  70.9194810   9.7706020  25.2522010  70.3255130   9.6390720  25.9912050
  70.9118650   8.9344160  24.7864110  83.7256420  11.0421160  21.8131330
  83.2659390  11.7936970  21.4389350  83.0968880  10.3227630  21.7546130
  70.5507040   7.1364400  24.2030050  69.8241100   6.5169690  24.1356000
  70.6116190   7.5305010  23.3328130  74.1552140   9.3509400  20.9879460
  74.6717160   8.7396760  20.4627720  74.8049520   9.8538180  21.4790470
  76.8947640  10.2417890  21.8148440  77.1825450   9.9872190  20.9381450
  77.4070860   9.6895250  22.4054010  68.8337040  10.4538790  17.4126810
  68.6659080   9.8209470  18.1108700  67.9671550  10.6598190  17.0621000
  70.4399740   9.1472020  14.8576950  69.9147360   9.5280050  14.1538910
  70.3644320   9.7722790  15.5786660  76.9620000  11.1633990  29.1816640
  77.8887310  10.9278260  29.2252600  76.9470430  11.9905990  28.7002670
  85.1965060  10.7059560  16.1790890  85.3717250  10.0197300  15.5351810
  84.4986630  11.2306610  15.7867560  73.0392710  11.0954400  13.7326200
  73.7711530  10.8113680  13.1850090  73.2986380  10.8567680  14.6225580
  72.2007500   7.2119130  13.7372530  71.5716380   7.6804230  14.2858360
  72.3155330   6.3668350  14.1718720  83.5297560  10.3903850  29.0057680
  84.3222880   9.8953080  28.7983640  83.8230710  11.0693990  29.6133290
  77.7875260   3.0403810   1.7683000  77.0117360   2.5604250   2.0581570
  78.4388190   2.3609460   1.5939160  71.8041090   3.3523620   2.6458760
  70.9725970   3.0972330   3.0455270  72.4122070   3.4234390   3.3816680
  71.7842350   7.3863710   2.8416780  72.0870390   6.4961450   2.6627000
  72.5285940   7.9433930   2.6139030  77.2284250   5.7161000   1.7753160
  77.1592530   4.7750940   1.6142290  77.9904110   5.8062410   2.3475730
  73.7641110   4.1437120   4.2401630  73.4310490   4.7706040   4.8822700
  73.9407790   4.6699000   3.4603300  72.9760210   6.1117920   6.0550810
  73.5934210   6.7869000   5.7735260  72.1153330   6.5205900   5.9638310
  83.8937800   7.5757330   3.9705450  83.2101320   8.2456440   3.9622120
  84.4332090   7.7737980   3.2050310  81.4296540   9.4201460   2.6850630
  81.4423700   9.0163750   1.8172890  80.8771760  10.1948750   2.5812060
  80.8281980   4.3231300   4.0133240  81.2450770   4.1091410   3.1786700
  81.5521800   4.5804090   4.5841860  84.7744080   2.7218520   4.1049480
  83.9462710   2.7911610   3.6299610  85.3694560   3.3072830   3.6365310
  82.4286190   9.5547170   5.7385330  81.9516750  10.3619360   5.5457940
  81.7447980   8.9025500   5.8911540  73.4319010   5.7196990   8.7270030
  72.5347540   5.9436960   8.9743430  73.4571880   5.8431930   7.7781430
  72.2590230   2.5910310   7.3027400  72.1198000   3.4633110   7.6714800
  71.3771590   2.2483120   7.1575340  74.0570580   8.5332010   9.5112550
  74.0286010   8.9374960   8.6440980  73.8935550   7.6042370   9.3484150
  86.0085400   9.3159110  10.8076720  86.4845120   9.7942000  11.4865800
  86.6292560   9.2476600  10.0822220  68.2108880   4.3607860   3.2198310
  68.2889300   4.4956630   2.2754030  68.8250560   3.6523750   3.4126430
  85.4118650   6.5071960   7.9676730  85.5381710   6.2683840   7.0493910
  85.4540030   5.6756500   8.4398810  79.2735390  10.2099960   6.5371540
  79.7880060  10.1207970   7.3393970  78.4304470  10.5559660   6.8299450
  68.2668400   5.4022030   5.7592770  68.4299440   4.9327390   4.9412140
  68.7320850   4.8945590   6.4241610  69.8407380   4.7773460   7.9188580
  69.4562170   4.1367130   8.5171540  70.1519570   5.4809580   8.4883310
  83.0673660   3.8684990   2.1074650  83.7872780   4.3640280   1.7170760
  82.8655480   3.1902880   1.4628520  78.4492460   3.9394050   7.9943650
  78.3829770   3.0189720   7.7401240  77.8197600   4.0369490   8.7088290
  78.3809190   6.7614620   7.7447450  78.3953730   5.8295580   7.5266360
  77.6734290   6.8474380   8.3837220  84.5920400   3.4021960   7.0916030
  83.8668590   3.9950740   6.8945420  85.1195860   3.3945500   6.2929400
  77.8143090   8.4032190   4.8387950  78.4585310   8.6091570   5.5161370
  78.1772530   7.6420590   4.3858800  79.0875170   6.4064540   3.5565400
  79.7297400   5.7057700   3.6697570  79.6124520   7.1862980   3.3762290
  80.8612790   7.2059440   6.7601460  81.1969030   7.7926130   7.4379380
  79.9413130   7.0752150   6.9899250  68.6988780   8.9834880   8.5291400
  68.8079900   8.0429620   8.3886790  68.0469340   9.2489630   7.8805130
  76.6901370   7.2550770   9.9289520  76.3698240   6.5360010  10.4735210
  76.0159730   7.9305840  10.0025580  70.8447220  10.0503790  10.3411010
  71.6459950  10.3715840  10.7546410  70.3299040   9.6899370  11.0630920
  79.6811850   6.1583660  10.2886420  79.0750010   6.1815260   9.5482170
  79.3765960   5.4266700  10.8253670  81.1112220   9.8863950   8.8995830
  82.0633970   9.8021970   8.8496070  80.9640440  10.5505660   9.5729620
  68.5645030   2.5377250   9.2847060  69.0684050   1.9584530   9.8563290
  67.8252450   2.8217480   9.8223430  75.6182970   3.9448240   8.8182580
  74.8528640   4.5133240   8.7337250  75.7998930   3.6524450   7.9250810
  82.7606320   5.6753570   9.3757600  83.5015790   6.0129330   8.8725060
  81.9979000   5.8445630   8.8227370  81.4351980   3.7268400   7.9112810
  81.8493000   3.8813480   8.7603230  80.5002980   3.8523620   8.0738590
  76.1967210   3.6788880   5.8808740  76.6155320   4.5221610   5.7084980
  75.2775840   3.8160920   5.6515520  80.8719010   1.9642250   5.8409090
  80.3454230   2.4884870   5.2374230  81.2150350   2.5969640   6.4718820
  74.0474630   9.9841890   6.9966470  73.5095720  10.7087950   6.6775170
  74.3008590   9.5072230   6.2063810  76.9036840  11.2193100   7.2553120
  76.8295540  12.1228240   7.5625490  76.0015680  10.9005000   7.2275190
  68.7954340   9.4138280   3.2968370  68.3585330   9.5939080   4.1292520
  69.3632020  10.1712900   3.1550090  84.4316520   8.9155280   7.5845680
  83.8318510   8.9747840   6.8409600  84.5610420   7.9760260   7.7142530
  83.1168160   5.6407260   5.6821840  82.3028000   6.0704420   5.9447630
  83.5242360   6.2525670   5.0690890  71.0806780   6.8243770   9.3580740
  71.0376410   6.4536680  10.2395200  71.2117790   7.7621340   9.4982560
  74.7812810   8.3803360   4.9590460  74.5404170   8.6477920   4.0720980
  75.7215450   8.5509090   5.0141320  86.0416970  10.3997740   5.7601100
  85.5475250  10.7966610   5.0428230  85.4330260   9.7746950   6.1538380
  70.9194810   9.7706020   6.4778520  70.3255130   9.6390720   7.2168560
  70.9118650   8.9344160   6.0120620  83.7256420  11.0421160   3.0387840
  83.2659390  11.7936970   2.6645860  83.0968880  10.3227630   2.9802640
  70.5507040   7.1364400   5.4286560  69.8241100   6.5169690   5.3612510
  70.6116190   7.5305010   4.5584640  74.1552140   9.3509400   2.2135970
  74.6717160   8.7396760   1.6884230  74.8049520   9.8538180   2.7046980
  76.8947640  10.2417890   3.0404950  77.1825450   9.9872190   2.1637960
  77.4070860   9.6895250   3.6310520  76.9620000  11.1633990  10.4073150
  77.8887310  10.9278260  10.4509110  76.9470430  11.9905990   9.9259180
  83.5297560  10.3903850  10.2314190  84.3222880   9.8953080  10.0240150
  83.8230710  11.0693990  10.8389800  60.8813730 151.4572710 150.0821650
  60.8007780 150.5427320 149.8113360  60.4678150 151.9539780 149.3761360
  51.4389550 148.5073430 146.6249070  50.5506250 148.8489400 146.5228950
  51.7230740 148.3073750 145.7329900  53.6150940 147.0904930 147.6587450
  53.7217690 147.9908660 147.9656210  52.7043300 147.0422900 147.3682100
  63.2670050 146.2129740 149.1298350  64.0879670 145.7226310 149.1723830
  63.3004130 146.8027400 149.8830190  57.1037990 143.8982090 150.5891090
  57.4112970 143.3428980 149.8726590  56.1738690 144.0326550 150.4064080
  59.4787830 148.2347920 144.3218370  58.5391500 148.3961880 144.4070830
  59.7971090 148.9533600 143.7754360  55.0975390 152.4895660 150.1070940
  54.6932390 151.7772910 149.6116840  55.1838510 152.1448900 150.9958980
  65.2797880 144.0180840 143.1500250  64.9670540 144.1107670 144.0499320
  66.0410350 144.5961870 143.0997680  51.7980020 151.3840640 147.6077590
  51.6777620 152.1102730 146.9958860  51.4880910 150.6143550 147.1305500
  54.2643680 144.7275710 150.9901260  53.8211830 145.5085250 150.6585780
  54.8228670 145.0505600 151.6972200  57.3802500 144.3486410 145.8707090
  56.7556680 144.3446280 146.5960400  57.2932620 143.4817370 145.4743060
  54.0557900 149.8509280 148.7182510  53.8298820 149.6346450 149.6229130
  53.2750430 150.2837740 148.3728480  61.2855660 149.8572650 147.3173160
  60.6864550 150.5808450 147.1336780  61.8335270 149.7949430 146.5349610
  59.8920530 148.4936190 149.3476440  60.2850100 148.8108390 148.5345130
  60.2537380 147.6148070 149.4620960  49.1154930 149.0257110 142.7809360
  49.0329600 149.9687870 142.9224350  48.7637990 148.8832020 141.9021710
  52.7655440 147.6422630 150.8073920  52.4255490 148.1197860 151.5640970
  52.0032760 147.1887750 150.4475020  56.9773210 148.7608220 144.8386470
  57.0986030 148.7194700 145.7872290  56.5921720 149.6232370 144.6833200
  55.9894710 151.0709360 144.2369770  55.4211610 150.6227610 143.6105680
  56.6983710 151.4302140 143.7034920  50.0801520 146.5641610 149.7238590
  49.7948440 146.1997280 150.5617210  50.0180380 145.8322070 149.1101730
  59.7540110 145.4570870 146.4451960  58.9404720 144.9584040 146.3697270
  59.5602060 146.2969120 146.0288310  62.4688500 149.8290520 144.7414120
  63.3568120 150.1407750 144.5665460  62.4393590 148.9562770 144.3494700
  64.7402770 151.1402360 144.2093980  64.6566490 151.5716580 143.3590420
  65.4596960 151.6000710 144.6420800  49.5732180 151.7000560 143.6835290
  50.4427030 151.9825360 143.9671210  49.0822500 152.5136430 143.5684100
  52.6378770 143.4311420 148.2766090  52.5093400 143.4229320 149.2251010
  51.8140790 143.7694510 147.9257100  64.4973510 146.6381790 146.2961800
  63.8686670 146.7427460 145.5820030  64.0025430 146.8578570 147.0855680
  56.4657540 148.9167740 147.7119680  55.7573690 149.3854080 148.1533290
  56.7502020 148.2589750 148.3464870  60.4972970 145.6418400 149.1515470
  60.3740750 145.6604530 148.2024980  61.4457530 145.6897340 149.2713870
  54.6692560 147.2252820 145.0870390  55.5183090 147.6622970 145.0210580
  54.3023830 147.5373080 145.9142450  63.5902340 151.7965580 150.0001960
  62.6492480 151.8115810 150.1749650  63.9046410 151.0101540 150.4462260
  52.2630740 150.9110250 144.2438810  52.3434330 149.9637760 144.3556210
  53.1550490 151.2417130 144.3499470  54.4961910 149.5483540 142.4806720
  54.2950970 148.6850900 142.8420060  54.3253960 149.4616900 141.5428320
  61.9750220 144.3591770 145.0093600  62.2552510 143.5159670 145.3653020
  61.2015950 144.5914880 145.5232350  53.2944710 146.6484160 142.4684600
  53.5970610 146.6551590 141.5603750  54.0339300 146.2982020 142.9652260
  56.5129640 145.5918780 143.4540800  56.1651640 144.9142770 142.8743250
  56.7142410 145.1308290 144.2684190  49.8535280 152.1206430 149.8505170
  49.1984120 151.8518070 149.2064870  50.6913230 152.0110910 149.4007150
  62.8025720 146.9147720 144.0723660  63.2210600 146.7278700 143.2320320
  62.4961780 146.0626770 144.3826590  66.3015450 151.8271860 147.7699460
  65.9259050 151.0599790 147.3380750  65.5718570 152.2094560 148.2574390
  49.0673360 149.3305360 145.7930500  48.1637440 149.5935560 145.6182160
  49.5513980 149.6016530 145.0130460  51.6100570 148.3870900 143.7024880
  52.3192270 147.9654120 143.2172160  50.8940510 148.4546130 143.0708230
  51.2574730 144.4410230 142.7427530  51.9802860 144.9819170 143.0608750
  51.5299250 144.1673650 141.8669070  65.0666380 149.3102700 147.0099110
  65.5625500 149.0773570 147.7947990  64.8682450 148.4714540 146.5936750
  66.4953540 147.9463650 149.5436790  66.3852820 147.7919690 150.4819060
  67.2561130 147.4184590 149.3012200  67.3843810 145.7771570 142.7842930
  68.3093120 145.6452750 142.5761220  67.3619600 145.8564390 143.7379380
  67.4582300 146.5482230 145.4099640  66.6633800 146.4827350 145.9392550
  67.6625580 147.4832870 145.3984990  65.7540800 144.5094350 149.8707290
  65.6929200 143.5655570 149.7238310  66.5332830 144.6174440 150.4160750
  50.6821570 144.4803490 146.3363100  51.4400930 144.5932370 145.7627130
  50.2198740 145.3172690 146.2906530  57.2235380 146.5942760 149.3265410
  56.4109890 146.2199650 148.9861290  57.7277020 145.8387840 149.6286600
  61.7260360 143.2585210 150.5648480  62.3289730 143.8305420 151.0397000
  60.9853350 143.8224650 150.3422380  64.8694960 143.6606770 145.8388760
  65.0645590 144.5590220 146.1056190  64.0824830 143.4293850 146.3321710
  53.0546720 145.0067540 144.8765070  53.5839480 144.2197340 144.7473020
  53.6875040 145.6858730 145.1100600  55.2484560 144.7442680 147.9310460
  54.6187300 144.0429990 148.0980590  54.7089700 145.5046810 147.7143620
  60.8813730 151.4572710 131.3078160  60.8007780 150.5427320 131.0369870
  60.4678150 151.9539780 130.6017870  51.4389550 148.5073430 127.8505580
  50.5506250 148.8489400 127.7485460  51.7230740 148.3073750 126.9586410
  49.4022560 151.1079080 133.7345280  49.9738670 150.3401280 133.7348920
  49.4024100 151.4067840 132.8251890  50.6447430 146.5163440 135.5214210
  50.4650270 145.6189190 135.8016970  50.2427510 147.0635310 136.1961160
  59.4845930 148.7179300 133.4226520  59.8610750 147.8451180 133.3100190
  59.3865440 149.0538000 132.5316960  53.6150940 147.0904930 128.8843960
  53.7217690 147.9908660 129.1912720  52.7043300 147.0422900 128.5938610
  63.2670050 146.2129740 130.3554860  64.0879670 145.7226310 130.3980340
  63.3004130 146.8027400 131.1086700  51.2634100 149.0123940 134.1296550
  51.9444210 149.2762310 134.7483950  50.9482150 148.1724810 134.4634560
  55.4558670 150.0591300 133.2169140  55.9636890 150.5572270 133.8574160
  55.9871910 149.2826500 133.0408500  67.5569600 148.2296490 136.9198490
  66.8521770 148.6178200 136.4013600  67.8227520 148.9246780 137.5219420
  53.7394770 144.6989860 137.4832560  53.7413210 145.2162250 136.6778460
  52.9099080 144.2220040 137.4602490  63.5031530 148.1530120 133.1282400
  62.7987100 148.4415010 133.7085510  63.8643690 148.9630230 132.7681960
  53.4210100 146.4099820 135.4903010  53.7626910 147.2541870 135.1956880
  52.4825910 146.5583560 135.6068350  66.5718450 147.5984910 133.5191610
  65.6243360 147.6323890 133.6507040  66.8968440 148.4123860 133.9040970
  57.1037990 143.8982090 131.8147600  57.4112970 143.3428980 131.0983100
  56.1738690 144.0326550 131.6320590  59.4787830 148.2347920 125.5474880
  58.5391500 148.3961880 125.6327340  59.7971090 148.9533600 125.0010870
  62.9642600 149.7035760 136.4708780  62.5513780 150.5289470 136.7248770
  62.2318550 149.1180800 136.2785140  55.0975390 152.4895660 131.3327450
  54.6932390 151.7772910 130.8373350  55.1838510 152.1448900 132.2215490
  53.8104010 149.2638870 135.1126490  54.3618600 149.3734210 134.3379740
  54.3247520 149.6376470 135.8281720  65.2797880 144.0180840 124.3756760
  64.9670540 144.1107670 125.2755830  66.0410350 144.5961870 124.3254190
  51.7980020 151.3840640 128.8334100  51.6777620 152.1102730 128.2215370
  51.4880910 150.6143550 128.3562010  66.4899170 148.7552340 140.3530900
  65.8743440 149.2632010 139.8246360  66.1695590 147.8550670 140.2956840
  54.2643680 144.7275710 132.2157770  53.8211830 145.5085250 131.8842290
  54.8228670 145.0505600 132.9228710  58.5513490 147.5944230 137.8193090
  58.0892860 147.8027250 138.6313030  58.1491600 146.7803580 137.5163760
  63.5518000 148.8153180 138.9489750  62.7011590 148.5158930 139.2698820
  63.3919790 149.0595190 138.0373570  60.6467710 150.3154930 141.0488540
  60.9721120 149.4818680 140.7090770  61.4348040 150.8383450 141.1966870
  57.3802500 144.3486410 127.0963600  56.7556680 144.3446280 127.8216910
  57.2932620 143.4817370 126.6999570  56.3019580 145.2723040 134.0747370
  56.5991910 146.1785870 133.9939390  56.8505140 144.7841820 133.4606940
  54.0557900 149.8509280 129.9439020  53.8298820 149.6346450 130.8485640
  53.2750430 150.2837740 129.5984990  61.2855660 149.8572650 128.5429670
  60.6864550 150.5808450 128.3593290  61.8335270 149.7949430 127.7606120
  56.4957110 150.7494860 140.6099290  56.4000710 149.8089590 140.4599690
  57.3389090 150.9709930 140.2147360  59.8920530 148.4936190 130.5732950
  60.2850100 148.8108390 129.7601640  60.2537380 147.6148070 130.6877470
  51.6267650 147.1608530 138.7633070  51.2331040 148.0083740 138.9705850
  50.9386050 146.5234900 138.9541710  58.2012700 147.2443500 141.8329810
  57.5111020 147.0515700 142.4675900  58.9445000 147.5278140 142.3654110
  48.9284700 145.0836990 132.7963150  48.6397750 145.6539850 133.5088130
  49.6730460 144.6041440 133.1594380  49.1154930 149.0257110 124.0065870
  49.0329600 149.9687870 124.1480860  48.7637990 148.8832020 123.1278220
  60.4775670 151.0841940 134.6683730  59.7456790 151.5928750 135.0173830
  60.0800010 150.2671920 134.3672510  56.9153060 147.7596140 133.0736220
  56.9189120 147.3186090 132.2240760  57.8104180 148.0813470 133.1808040
  52.7655440 147.6422630 132.0330430  52.4255490 148.1197860 132.7897480
  52.0032760 147.1887750 131.6731530  56.9773210 148.7608220 126.0642980
  57.0986030 148.7194700 127.0128800  56.5921720 149.6232370 125.9089710
  60.9401580 146.5375620 134.0806670  60.9574320 146.9884270 134.9248520
  60.6917160 145.6381260 134.2940110  55.9894710 151.0709360 125.4626280
  55.4211610 150.6227610 124.8362190  56.6983710 151.4302140 124.9291430
  64.3672330 143.9507800 139.9193050  64.6918100 143.2197460 140.4451030
  64.4028840 143.6321440 139.0174040  50.0801520 146.5641610 130.9495100
  49.7948440 146.1997280 131.7873720  50.0180380 145.8322070 130.3358240
  55.0060400 150.8606560 137.1385840  54.7017470 151.7398540 137.3636200
  55.9606860 150.9206350 137.1743280  59.7540110 145.4570870 127.6708470
  58.9404720 144.9584040 127.5953780  59.5602060 146.2969120 127.2544820
  62.4688500 149.8290520 125.9670630  63.3568120 150.1407750 125.7921970
  62.4393590 148.9562770 125.5751210  51.0624130 151.7009300 138.2857200
  50.7039070 152.3663150 138.8730540  50.7678690 150.8692850 138.6569820
  54.2637250 152.1593540 141.1696750  53.9637390 152.3050720 140.2724570
  55.0348490 151.5998830 141.0770140  64.7402770 151.1402360 125.4350490
  64.6566490 151.5716580 124.5846930  65.4596960 151.6000710 125.8677310
  49.5732180 151.7000560 124.9091800  50.4427030 151.9825360 125.1927720
  49.0822500 152.5136430 124.7940610  52.6378770 143.4311420 129.5022600
  52.5093400 143.4229320 130.4507520  51.8140790 143.7694510 129.1513610
  49.6372700 145.1902540 138.9629300  48.9231220 145.3899460 139.5681910
  50.0567740 144.4142110 139.3344100  61.1311480 147.6824850 136.7130750
  61.4992300 146.8620060 137.0410320  60.2709680 147.7426740 137.1286400
  64.4973510 146.6381790 127.5218310  63.8686670 146.7427460 126.8076540
  64.0025430 146.8578570 128.3112190  56.4657540 148.9167740 128.9376190
  55.7573690 149.3854080 129.3789800  56.7502020 148.2589750 129.5721380
  58.0913470 150.3364440 136.9368720  58.5898720 150.8110260 137.6020570
  58.2336420 149.4127960 137.1438750  60.4972970 145.6418400 130.3771980
  60.3740750 145.6604530 129.4281490  61.4457530 145.6897340 130.4970380
  54.6692560 147.2252820 126.3126900  55.5183090 147.6622970 126.2467090
  54.3023830 147.5373080 127.1398960  65.2980330 146.5532400 137.7797110
  64.7953930 147.2937800 138.1190920  66.1136990 146.9416400 137.4633900
  63.5902340 151.7965580 131.2258470  62.6492480 151.8115810 131.4006160
  63.9046410 151.0101540 131.6718770  52.2630740 150.9110250 125.4695320
  52.3434330 149.9637760 125.5812720  53.1550490 151.2417130 125.5755980
  51.8224620 150.8754760 141.6001560  51.8629960 150.5768630 142.5086790
  52.6770120 151.2762370 141.4409080  53.7630430 149.4546860 139.5676050
  53.2326890 148.9637810 138.9399390  54.4318500 149.8831060 139.0333980
  63.1330660 151.2612480 141.3356390  63.7151430 150.5064800 141.2476870
  63.3092430 151.7919920 140.5587870  54.2502730 146.4209230 139.6473340
  54.1559600 145.8029980 138.9224210  53.6700120 147.1475520 139.4203250
  57.0164170 144.9782470 136.6800730  56.5681470 145.0006730 135.8346280
  56.3829370 144.5801490 137.2771030  59.7587620 151.6052980 138.6851010
  59.8783830 151.0094120 139.4245850  60.6181620 151.6422670 138.2652310
  54.4961910 149.5483540 123.7063230  54.2950970 148.6850900 124.0676570
  54.3253960 149.4616900 122.7684830  56.5256390 148.1474330 139.9426830
  57.1156080 147.8390180 140.6304650  55.7076630 147.6754080 140.0986730
  61.3449820 147.7640140 140.1759850  60.6565340 147.1021680 140.1109840
  62.0655840 147.3178410 140.6208310  61.9750220 144.3591770 126.2350110
  62.2552510 143.5159670 126.5909530  61.2015950 144.5914880 126.7488860
  53.2944710 146.6484160 123.6941110  53.5970610 146.6551590 122.7860260
  54.0339300 146.2982020 124.1908770  56.5129640 145.5918780 124.6797310
  56.1651640 144.9142770 124.0999760  56.7142410 145.1308290 125.4940700
  49.8535280 152.1206430 131.0761680  49.1984120 151.8518070 130.4321380
  50.6913230 152.0110910 130.6263660  62.8025720 146.9147720 125.2980170
  63.2210600 146.7278700 124.4576830  62.4961780 146.0626770 125.6083100
  66.3015450 151.8271860 128.9955970  65.9259050 151.0599790 128.5637260
  65.5718570 152.2094560 129.4830900  50.8911210 152.5059000 135.6165020
  51.2584250 152.4186400 136.4961040  50.3222030 151.7425550 135.5171880
  65.6915070 150.9743380 138.6295490  65.4601160 150.7456130 137.7293440
  65.9519620 151.8942930 138.5840380  50.4427210 149.4168090 139.5223440
  49.5483260 149.3834850 139.8617150  50.9824760 149.6154880 140.2874690
  64.1303140 146.1999810 141.4075190  65.0073320 146.2083210 141.7909190
  64.1423980 145.4630650 140.7967540  49.0673360 149.3305360 127.0187010
  48.1637440 149.5935560 126.8438670  49.5513980 149.6016530 126.2386970
  65.5766410 150.0529350 132.2963210  66.1003890 149.5592000 131.6653380
  66.1625830 150.1879710 133.0410780  65.7556130 150.1369220 135.8182760
  64.8058840 150.1032760 135.9327750  65.9369140 151.0469330 135.5832530
  51.6100570 148.3870900 124.9281390  52.3192270 147.9654120 124.4428670
  50.8940510 148.4546130 124.2964740  51.2574730 144.4410230 123.9684040
  51.9802860 144.9819170 124.2865260  51.5299250 144.1673650 123.0925580
  65.0666380 149.3102700 128.2355620  65.5625500 149.0773570 129.0204500
  64.8682450 148.4714540 127.8193260  50.9466920 143.6916420 133.8706660
  51.5943110 143.1413800 133.4301820  51.3668760 143.9459570 134.6922470
  66.4953540 147.9463650 130.7693300  66.3852820 147.7919690 131.7075570
  67.2561130 147.4184590 130.5268710  64.8419260 143.8857780 137.2276300
  65.4791480 144.4991920 137.5935490  64.9894150 143.9218440 136.2825530
  67.3843810 145.7771570 124.0099440  68.3093120 145.6452750 123.8017730
  67.3619600 145.8564390 124.9635890  67.4582300 146.5482230 126.6356150
  66.6633800 146.4827350 127.1649060  67.6625580 147.4832870 126.6241500
  50.6998920 143.8472090 136.6131980  50.3513740 144.3035910 137.3790160
  50.3686620 142.9529220 136.6954410  58.2123740 145.0383970 140.1351400
  58.1512630 145.6305800 140.8846810  59.1524120 144.9309930 139.9901660
  60.8498300 144.6954030 139.7743690  61.4638710 145.0133320 139.1124770
  61.3947860 144.2102620 140.3939550  51.3719560 143.3748290 139.8882750
  51.9202550 143.1936340 139.1248860  51.4374870 142.5842400 140.4239060
  61.5906340 143.2586170 136.1012980  60.7166180 143.5921280 135.8985910
  61.4817090 142.7859350 136.9264850  62.4978320 145.4657040 137.4854700
  62.1691680 144.6508800 137.1056430  63.4460620 145.4226850 137.3620390
  59.3381160 144.1756010 135.0405890  58.5552950 144.6501510 135.3202650
  59.0444090 143.2710840 134.9319070  63.8902230 144.8779110 133.0854980
  64.3310320 144.8224210 132.2376580  63.6209820 145.7937120 133.1565160
  65.7540800 144.5094350 131.0963800  65.6929200 143.5655570 130.9494820
  66.5332830 144.6174440 131.6417260  50.6821570 144.4803490 127.5619610
  51.4400930 144.5932370 126.9883640  50.2198740 145.3172690 127.5163040
  57.2235380 146.5942760 130.5521920  56.4109890 146.2199650 130.2117800
  57.7277020 145.8387840 130.8543110  61.7260360 143.2585210 131.7904990
  62.3289730 143.8305420 132.2653510  60.9853350 143.8224650 131.5678890
  64.8694960 143.6606770 127.0645270  65.0645590 144.5590220 127.3312700
  64.0824830 143.4293850 127.5578220  53.0546720 145.0067540 126.1021580
  53.5839480 144.2197340 125.9729530  53.6875040 145.6858730 126.3357110
  55.2484560 144.7442680 129.1566970  54.6187300 144.0429990 129.3237100
  54.7089700 145.5046810 128.9400130  55.3740120 144.0226660 141.5919460
  55.0924390 144.5260260 140.8280280  55.7559820 143.2248410 141.2261590
  61.9755580 143.4380240 142.1699930  61.8621030 143.7574850 143.0651450
  62.7925320 143.8392750 141.8737210  60.8813730 151.4572710 112.5334670
  60.8007780 150.5427320 112.2626380  60.4678150 151.9539780 111.8274380
  51.4389550 148.5073430 109.0762090  50.5506250 148.8489400 108.9741970
  51.7230740 148.3073750 108.1842920  49.4022560 151.1079080 114.9601790
  49.9738670 150.3401280 114.9605430  49.4024100 151.4067840 114.0508400
  50.6447430 146.5163440 116.7470720  50.4650270 145.6189190 117.0273480
  50.2427510 147.0635310 117.4217670  59.4845930 148.7179300 114.6483030
  59.8610750 147.8451180 114.5356700  59.3865440 149.0538000 113.7573470
  53.6150940 147.0904930 110.1100470  53.7217690 147.9908660 110.4169230
  52.7043300 147.0422900 109.8195120  63.2670050 146.2129740 111.5811370
  64.0879670 145.7226310 111.6236850  63.3004130 146.8027400 112.3343210
  51.2634100 149.0123940 115.3553060  51.9444210 149.2762310 115.9740460
  50.9482150 148.1724810 115.6891070  55.4558670 150.0591300 114.4425650
  55.9636890 150.5572270 115.0830670  55.9871910 149.2826500 114.2665010
  67.5569600 148.2296490 118.1455000  66.8521770 148.6178200 117.6270110
  67.8227520 148.9246780 118.7475930  53.7394770 144.6989860 118.7089070
  53.7413210 145.2162250 117.9034970  52.9099080 144.2220040 118.6859000
  63.5031530 148.1530120 114.3538910  62.7987100 148.4415010 114.9342020
  63.8643690 148.9630230 113.9938470  53.4210100 146.4099820 116.7159520
  53.7626910 147.2541870 116.4213390  52.4825910 146.5583560 116.8324860
  66.5718450 147.5984910 114.7448120  65.6243360 147.6323890 114.8763550
  66.8968440 148.4123860 115.1297480  57.1037990 143.8982090 113.0404110
  57.4112970 143.3428980 112.3239610  56.1738690 144.0326550 112.8577100
  59.4787830 148.2347920 106.7731390  58.5391500 148.3961880 106.8583850
  59.7971090 148.9533600 106.2267380  62.9642600 149.7035760 117.6965290
  62.5513780 150.5289470 117.9505280  62.2318550 149.1180800 117.5041650
  55.0975390 152.4895660 112.5583960  54.6932390 151.7772910 112.0629860
  55.1838510 152.1448900 113.4472000  53.8104010 149.2638870 116.3383000
  54.3618600 149.3734210 115.5636250  54.3247520 149.6376470 117.0538230
  65.2797880 144.0180840 105.6013270  64.9670540 144.1107670 106.5012340
  66.0410350 144.5961870 105.5510700  51.7980020 151.3840640 110.0590610
  51.6777620 152.1102730 109.4471880  51.4880910 150.6143550 109.5818520
  66.4899170 148.7552340 121.5787410  65.8743440 149.2632010 121.0502870
  66.1695590 147.8550670 121.5213350  54.2643680 144.7275710 113.4414280
  53.8211830 145.5085250 113.1098800  54.8228670 145.0505600 114.1485220
  58.5513490 147.5944230 119.0449600  58.0892860 147.8027250 119.8569540
  58.1491600 146.7803580 118.7420270  63.5518000 148.8153180 120.1746260
  62.7011590 148.5158930 120.4955330  63.3919790 149.0595190 119.2630080
  60.6467710 150.3154930 122.2745050  60.9721120 149.4818680 121.9347280
  61.4348040 150.8383450 122.4223380  57.3802500 144.3486410 108.3220110
  56.7556680 144.3446280 109.0473420  57.2932620 143.4817370 107.9256080
  56.3019580 145.2723040 115.3003880  56.5991910 146.1785870 115.2195900
  56.8505140 144.7841820 114.6863450  54.0557900 149.8509280 111.1695530
  53.8298820 149.6346450 112.0742150  53.2750430 150.2837740 110.8241500
  61.2855660 149.8572650 109.7686180  60.6864550 150.5808450 109.5849800
  61.8335270 149.7949430 108.9862630  56.4957110 150.7494860 121.8355800
  56.4000710 149.8089590 121.6856200  57.3389090 150.9709930 121.4403870
  59.8920530 148.4936190 111.7989460  60.2850100 148.8108390 110.9858150
  60.2537380 147.6148070 111.9133980  51.6267650 147.1608530 119.9889580
  51.2331040 148.0083740 120.1962360  50.9386050 146.5234900 120.1798220
  58.2012700 147.2443500 123.0586320  57.5111020 147.0515700 123.6932410
  58.9445000 147.5278140 123.5910620  48.9284700 145.0836990 114.0219660
  48.6397750 145.6539850 114.7344640  49.6730460 144.6041440 114.3850890
  49.1154930 149.0257110 105.2322380  49.0329600 149.9687870 105.3737370
  48.7637990 148.8832020 104.3534730  60.4775670 151.0841940 115.8940240
  59.7456790 151.5928750 116.2430340  60.0800010 150.2671920 115.5929020
  56.9153060 147.7596140 114.2992730  56.9189120 147.3186090 113.4497270
  57.8104180 148.0813470 114.4064550  52.7655440 147.6422630 113.2586940
  52.4255490 148.1197860 114.0153990  52.0032760 147.1887750 112.8988040
  56.9773210 148.7608220 107.2899490  57.0986030 148.7194700 108.2385310
  56.5921720 149.6232370 107.1346220  60.9401580 146.5375620 115.3063180
  60.9574320 146.9884270 116.1505030  60.6917160 145.6381260 115.5196620
  55.9894710 151.0709360 106.6882790  55.4211610 150.6227610 106.0618700
  56.6983710 151.4302140 106.1547940  64.3672330 143.9507800 121.1449560
  64.6918100 143.2197460 121.6707540  64.4028840 143.6321440 120.2430550
  50.0801520 146.5641610 112.1751610  49.7948440 146.1997280 113.0130230
  50.0180380 145.8322070 111.5614750  55.0060400 150.8606560 118.3642350
  54.7017470 151.7398540 118.5892710  55.9606860 150.9206350 118.3999790
  59.7540110 145.4570870 108.8964980  58.9404720 144.9584040 108.8210290
  59.5602060 146.2969120 108.4801330  62.4688500 149.8290520 107.1927140
  63.3568120 150.1407750 107.0178480  62.4393590 148.9562770 106.8007720
  51.0624130 151.7009300 119.5113710  50.7039070 152.3663150 120.0987050
  50.7678690 150.8692850 119.8826330  54.2637250 152.1593540 122.3953260
  53.9637390 152.3050720 121.4981080  55.0348490 151.5998830 122.3026650
  64.7402770 151.1402360 106.6607000  64.6566490 151.5716580 105.8103440
  65.4596960 151.6000710 107.0933820  49.5732180 151.7000560 106.1348310
  50.4427030 151.9825360 106.4184230  49.0822500 152.5136430 106.0197120
  52.6378770 143.4311420 110.7279110  52.5093400 143.4229320 111.6764030
  51.8140790 143.7694510 110.3770120  49.6372700 145.1902540 120.1885810
  48.9231220 145.3899460 120.7938420  50.0567740 144.4142110 120.5600610
  61.1311480 147.6824850 117.9387260  61.4992300 146.8620060 118.2666830
  60.2709680 147.7426740 118.3542910  64.4973510 146.6381790 108.7474820
  63.8686670 146.7427460 108.0333050  64.0025430 146.8578570 109.5368700
  56.4657540 148.9167740 110.1632700  55.7573690 149.3854080 110.6046310
  56.7502020 148.2589750 110.7977890  58.0913470 150.3364440 118.1625230
  58.5898720 150.8110260 118.8277080  58.2336420 149.4127960 118.3695260
  60.4972970 145.6418400 111.6028490  60.3740750 145.6604530 110.6538000
  61.4457530 145.6897340 111.7226890  54.6692560 147.2252820 107.5383410
  55.5183090 147.6622970 107.4723600  54.3023830 147.5373080 108.3655470
  65.2980330 146.5532400 119.0053620  64.7953930 147.2937800 119.3447430
  66.1136990 146.9416400 118.6890410  63.5902340 151.7965580 112.4514980
  62.6492480 151.8115810 112.6262670  63.9046410 151.0101540 112.8975280
  52.2630740 150.9110250 106.6951830  52.3434330 149.9637760 106.8069230
  53.1550490 151.2417130 106.8012490  51.8224620 150.8754760 122.8258070
  51.8629960 150.5768630 123.7343300  52.6770120 151.2762370 122.6665590
  53.7630430 149.4546860 120.7932560  53.2326890 148.9637810 120.1655900
  54.4318500 149.8831060 120.2590490  63.1330660 151.2612480 122.5612900
  63.7151430 150.5064800 122.4733380  63.3092430 151.7919920 121.7844380
  54.2502730 146.4209230 120.8729850  54.1559600 145.8029980 120.1480720
  53.6700120 147.1475520 120.6459760  57.0164170 144.9782470 117.9057240
  56.5681470 145.0006730 117.0602790  56.3829370 144.5801490 118.5027540
  59.7587620 151.6052980 119.9107520  59.8783830 151.0094120 120.6502360
  60.6181620 151.6422670 119.4908820  54.4961910 149.5483540 104.9319740
  54.2950970 148.6850900 105.2933080  54.3253960 149.4616900 103.9941340
  56.5256390 148.1474330 121.1683340  57.1156080 147.8390180 121.8561160
  55.7076630 147.6754080 121.3243240  61.3449820 147.7640140 121.4016360
  60.6565340 147.1021680 121.3366350  62.0655840 147.3178410 121.8464820
  61.9750220 144.3591770 107.4606620  62.2552510 143.5159670 107.8166040
  61.2015950 144.5914880 107.9745370  53.2944710 146.6484160 104.9197620
  53.5970610 146.6551590 104.0116770  54.0339300 146.2982020 105.4165280
  56.5129640 145.5918780 105.9053820  56.1651640 144.9142770 105.3256270
  56.7142410 145.1308290 106.7197210  49.8535280 152.1206430 112.3018190
  49.1984120 151.8518070 111.6577890  50.6913230 152.0110910 111.8520170
  62.8025720 146.9147720 106.5236680  63.2210600 146.7278700 105.6833340
  62.4961780 146.0626770 106.8339610  66.3015450 151.8271860 110.2212480
  65.9259050 151.0599790 109.7893770  65.5718570 152.2094560 110.7087410
  50.8911210 152.5059000 116.8421530  51.2584250 152.4186400 117.7217550
  50.3222030 151.7425550 116.7428390  65.6915070 150.9743380 119.8552000
  65.4601160 150.7456130 118.9549950  65.9519620 151.8942930 119.8096890
  50.4427210 149.4168090 120.7479950  49.5483260 149.3834850 121.0873660
  50.9824760 149.6154880 121.5131200  64.1303140 146.1999810 122.6331700
  65.0073320 146.2083210 123.0165700  64.1423980 145.4630650 122.0224050
  49.0673360 149.3305360 108.2443520  48.1637440 149.5935560 108.0695180
  49.5513980 149.6016530 107.4643480  65.5766410 150.0529350 113.5219720
  66.1003890 149.5592000 112.8909890  66.1625830 150.1879710 114.2667290
  65.7556130 150.1369220 117.0439270  64.8058840 150.1032760 117.1584260
  65.9369140 151.0469330 116.8089040  51.6100570 148.3870900 106.1537900
  52.3192270 147.9654120 105.6685180  50.8940510 148.4546130 105.5221250
  51.2574730 144.4410230 105.1940550  51.9802860 144.9819170 105.5121770
  51.5299250 144.1673650 104.3182090  65.0666380 149.3102700 109.4612130
  65.5625500 149.0773570 110.2461010  64.8682450 148.4714540 109.0449770
  50.9466920 143.6916420 115.0963170  51.5943110 143.1413800 114.6558330
  51.3668760 143.9459570 115.9178980  66.4953540 147.9463650 111.9949810
  66.3852820 147.7919690 112.9332080  67.2561130 147.4184590 111.7525220
  64.8419260 143.8857780 118.4532810  65.4791480 144.4991920 118.8192000
  64.9894150 143.9218440 117.5082040  67.3843810 145.7771570 105.2355950
  68.3093120 145.6452750 105.0274240  67.3619600 145.8564390 106.1892400
  67.4582300 146.5482230 107.8612660  66.6633800 146.4827350 108.3905570
  67.6625580 147.4832870 107.8498010  50.6998920 143.8472090 117.8388490
  50.3513740 144.3035910 118.6046670  50.3686620 142.9529220 117.9210920
  58.2123740 145.0383970 121.3607910  58.1512630 145.6305800 122.1103320
  59.1524120 144.9309930 121.2158170  60.8498300 144.6954030 121.0000200
  61.4638710 145.0133320 120.3381280  61.3947860 144.2102620 121.6196060
  51.3719560 143.3748290 121.1139260  51.9202550 143.1936340 120.3505370
  51.4374870 142.5842400 121.6495570  61.5906340 143.2586170 117.3269490
  60.7166180 143.5921280 117.1242420  61.4817090 142.7859350 118.1521360
  62.4978320 145.4657040 118.7111210  62.1691680 144.6508800 118.3312940
  63.4460620 145.4226850 118.5876900  59.3381160 144.1756010 116.2662400
  58.5552950 144.6501510 116.5459160  59.0444090 143.2710840 116.1575580
  63.8902230 144.8779110 114.3111490  64.3310320 144.8224210 113.4633090
  63.6209820 145.7937120 114.3821670  65.7540800 144.5094350 112.3220310
  65.6929200 143.5655570 112.1751330  66.5332830 144.6174440 112.8673770
  50.6821570 144.4803490 108.7876120  51.4400930 144.5932370 108.2140150
  50.2198740 145.3172690 108.7419550  57.2235380 146.5942760 111.7778430
  56.4109890 146.2199650 111.4374310  57.7277020 145.8387840 112.0799620
  61.7260360 143.2585210 113.0161500  62.3289730 143.8305420 113.4910020
  60.9853350 143.8224650 112.7935400  64.8694960 143.6606770 108.2901780
  65.0645590 144.5590220 108.5569210  64.0824830 143.4293850 108.7834730
  53.0546720 145.0067540 107.3278090  53.5839480 144.2197340 107.1986040
  53.6875040 145.6858730 107.5613620  55.2484560 144.7442680 110.3823480
  54.6187300 144.0429990 110.5493610  54.7089700 145.5046810 110.1656640
  55.3740120 144.0226660 122.8175970  55.0924390 144.5260260 122.0536790
  55.7559820 143.2248410 122.4518100  61.9755580 143.4380240 123.3956440
  61.8621030 143.7574850 124.2907960  62.7925320 143.8392750 123.0993720
  60.8813730 151.4572710  93.7591180  60.8007780 150.5427320  93.4882890
  60.4678150 151.9539780  93.0530890  51.4389550 148.5073430  90.3018600
  50.5506250 148.8489400  90.1998480  51.7230740 148.3073750  89.4099430
  49.4022560 151.1079080  96.1858300  49.9738670 150.3401280  96.1861940
  49.4024100 151.4067840  95.2764910  50.6447430 146.5163440  97.9727230
  50.4650270 145.6189190  98.2529990  50.2427510 147.0635310  98.6474180
  59.4845930 148.7179300  95.8739540  59.8610750 147.8451180  95.7613210
  59.3865440 149.0538000  94.9829980  53.6150940 147.0904930  91.3356980
  53.7217690 147.9908660  91.6425740  52.7043300 147.0422900  91.0451630
  63.2670050 146.2129740  92.8067880  64.0879670 145.7226310  92.8493360
  63.3004130 146.8027400  93.5599720  51.2634100 149.0123940  96.5809570
  51.9444210 149.2762310  97.1996970  50.9482150 148.1724810  96.9147580
  55.4558670 150.0591300  95.6682160  55.9636890 150.5572270  96.3087180
  55.9871910 149.2826500  95.4921520  67.5569600 148.2296490  99.3711510
  66.8521770 148.6178200  98.8526620  67.8227520 148.9246780  99.9732440
  53.7394770 144.6989860  99.9345580  53.7413210 145.2162250  99.1291480
  52.9099080 144.2220040  99.9115510  63.5031530 148.1530120  95.5795420
  62.7987100 148.4415010  96.1598530  63.8643690 148.9630230  95.2194980
  53.4210100 146.4099820  97.9416030  53.7626910 147.2541870  97.6469900
  52.4825910 146.5583560  98.0581370  66.5718450 147.5984910  95.9704630
  65.6243360 147.6323890  96.1020060  66.8968440 148.4123860  96.3553990
  57.1037990 143.8982090  94.2660620  57.4112970 143.3428980  93.5496120
  56.1738690 144.0326550  94.0833610  59.4787830 148.2347920  87.9987900
  58.5391500 148.3961880  88.0840360  59.7971090 148.9533600  87.4523890
  62.9642600 149.7035760  98.9221800  62.5513780 150.5289470  99.1761790
  62.2318550 149.1180800  98.7298160  55.0975390 152.4895660  93.7840470
  54.6932390 151.7772910  93.2886370  55.1838510 152.1448900  94.6728510
  53.8104010 149.2638870  97.5639510  54.3618600 149.3734210  96.7892760
  54.3247520 149.6376470  98.2794740  65.2797880 144.0180840  86.8269780
  64.9670540 144.1107670  87.7268850  66.0410350 144.5961870  86.7767210
  51.7980020 151.3840640  91.2847120  51.6777620 152.1102730  90.6728390
  51.4880910 150.6143550  90.8075030  66.4899170 148.7552340 102.8043920
  65.8743440 149.2632010 102.2759380  66.1695590 147.8550670 102.7469860
  54.2643680 144.7275710  94.6670790  53.8211830 145.5085250  94.3355310
  54.8228670 145.0505600  95.3741730  58.5513490 147.5944230 100.2706110
  58.0892860 147.8027250 101.0826050  58.1491600 146.7803580  99.9676780
  63.5518000 148.8153180 101.4002770  62.7011590 148.5158930 101.7211840
  63.3919790 149.0595190 100.4886590  60.6467710 150.3154930 103.5001560
  60.9721120 149.4818680 103.1603790  61.4348040 150.8383450 103.6479890
  57.3802500 144.3486410  89.5476620  56.7556680 144.3446280  90.2729930
  57.2932620 143.4817370  89.1512590  56.3019580 145.2723040  96.5260390
  56.5991910 146.1785870  96.4452410  56.8505140 144.7841820  95.9119960
  54.0557900 149.8509280  92.3952040  53.8298820 149.6346450  93.2998660
  53.2750430 150.2837740  92.0498010  61.2855660 149.8572650  90.9942690
  60.6864550 150.5808450  90.8106310  61.8335270 149.7949430  90.2119140
  56.4957110 150.7494860 103.0612310  56.4000710 149.8089590 102.9112710
  57.3389090 150.9709930 102.6660380  59.8920530 148.4936190  93.0245970
  60.2850100 148.8108390  92.2114660  60.2537380 147.6148070  93.1390490
  51.6267650 147.1608530 101.2146090  51.2331040 148.0083740 101.4218870
  50.9386050 146.5234900 101.4054730  58.2012700 147.2443500 104.2842830
  57.5111020 147.0515700 104.9188920  58.9445000 147.5278140 104.8167130
  48.9284700 145.0836990  95.2476170  48.6397750 145.6539850  95.9601150
  49.6730460 144.6041440  95.6107400  49.1154930 149.0257110  86.4578890
  49.0329600 149.9687870  86.5993880  48.7637990 148.8832020  85.5791240
  60.4775670 151.0841940  97.1196750  59.7456790 151.5928750  97.4686850
  60.0800010 150.2671920  96.8185530  56.9153060 147.7596140  95.5249240
  56.9189120 147.3186090  94.6753780  57.8104180 148.0813470  95.6321060
  52.7655440 147.6422630  94.4843450  52.4255490 148.1197860  95.2410500
  52.0032760 147.1887750  94.1244550  56.9773210 148.7608220  88.5156000
  57.0986030 148.7194700  89.4641820  56.5921720 149.6232370  88.3602730
  60.9401580 146.5375620  96.5319690  60.9574320 146.9884270  97.3761540
  60.6917160 145.6381260  96.7453130  55.9894710 151.0709360  87.9139300
  55.4211610 150.6227610  87.2875210  56.6983710 151.4302140  87.3804450
  64.3672330 143.9507800 102.3706070  64.6918100 143.2197460 102.8964050
  64.4028840 143.6321440 101.4687060  50.0801520 146.5641610  93.4008120
  49.7948440 146.1997280  94.2386740  50.0180380 145.8322070  92.7871260
  55.0060400 150.8606560  99.5898860  54.7017470 151.7398540  99.8149220
  55.9606860 150.9206350  99.6256300  59.7540110 145.4570870  90.1221490
  58.9404720 144.9584040  90.0466800  59.5602060 146.2969120  89.7057840
  62.4688500 149.8290520  88.4183650  63.3568120 150.1407750  88.2434990
  62.4393590 148.9562770  88.0264230  51.0624130 151.7009300 100.7370220
  50.7039070 152.3663150 101.3243560  50.7678690 150.8692850 101.1082840
  54.2637250 152.1593540 103.6209770  53.9637390 152.3050720 102.7237590
  55.0348490 151.5998830 103.5283160  64.7402770 151.1402360  87.8863510
  64.6566490 151.5716580  87.0359950  65.4596960 151.6000710  88.3190330
  49.5732180 151.7000560  87.3604820  50.4427030 151.9825360  87.6440740
  49.0822500 152.5136430  87.2453630  52.6378770 143.4311420  91.9535620
  52.5093400 143.4229320  92.9020540  51.8140790 143.7694510  91.6026630
  49.6372700 145.1902540 101.4142320  48.9231220 145.3899460 102.0194930
  50.0567740 144.4142110 101.7857120  61.1311480 147.6824850  99.1643770
  61.4992300 146.8620060  99.4923340  60.2709680 147.7426740  99.5799420
  64.4973510 146.6381790  89.9731330  63.8686670 146.7427460  89.2589560
  64.0025430 146.8578570  90.7625210  56.4657540 148.9167740  91.3889210
  55.7573690 149.3854080  91.8302820  56.7502020 148.2589750  92.0234400
  58.0913470 150.3364440  99.3881740  58.5898720 150.8110260 100.0533590
  58.2336420 149.4127960  99.5951770  60.4972970 145.6418400  92.8285000
  60.3740750 145.6604530  91.8794510  61.4457530 145.6897340  92.9483400
  54.6692560 147.2252820  88.7639920  55.5183090 147.6622970  88.6980110
  54.3023830 147.5373080  89.5911980  65.2980330 146.5532400 100.2310130
  64.7953930 147.2937800 100.5703940  66.1136990 146.9416400  99.9146920
  63.5902340 151.7965580  93.6771490  62.6492480 151.8115810  93.8519180
  63.9046410 151.0101540  94.1231790  52.2630740 150.9110250  87.9208340
  52.3434330 149.9637760  88.0325740  53.1550490 151.2417130  88.0269000
  51.8224620 150.8754760 104.0514580  51.8629960 150.5768630 104.9599810
  52.6770120 151.2762370 103.8922100  53.7630430 149.4546860 102.0189070
  53.2326890 148.9637810 101.3912410  54.4318500 149.8831060 101.4847000
  63.1330660 151.2612480 103.7869410  63.7151430 150.5064800 103.6989890
  63.3092430 151.7919920 103.0100890  54.2502730 146.4209230 102.0986360
  54.1559600 145.8029980 101.3737230  53.6700120 147.1475520 101.8716270
  57.0164170 144.9782470  99.1313750  56.5681470 145.0006730  98.2859300
  56.3829370 144.5801490  99.7284050  59.7587620 151.6052980 101.1364030
  59.8783830 151.0094120 101.8758870  60.6181620 151.6422670 100.7165330
  54.4961910 149.5483540  86.1576250  54.2950970 148.6850900  86.5189590
  54.3253960 149.4616900  85.2197850  56.5256390 148.1474330 102.3939850
  57.1156080 147.8390180 103.0817670  55.7076630 147.6754080 102.5499750
  61.3449820 147.7640140 102.6272870  60.6565340 147.1021680 102.5622860
  62.0655840 147.3178410 103.0721330  61.9750220 144.3591770  88.6863130
  62.2552510 143.5159670  89.0422550  61.2015950 144.5914880  89.2001880
  53.2944710 146.6484160  86.1454130  53.5970610 146.6551590  85.2373280
  54.0339300 146.2982020  86.6421790  56.5129640 145.5918780  87.1310330
  56.1651640 144.9142770  86.5512780  56.7142410 145.1308290  87.9453720
  49.8535280 152.1206430  93.5274700  49.1984120 151.8518070  92.8834400
  50.6913230 152.0110910  93.0776680  62.8025720 146.9147720  87.7493190
  63.2210600 146.7278700  86.9089850  62.4961780 146.0626770  88.0596120
  66.3015450 151.8271860  91.4468990  65.9259050 151.0599790  91.0150280
  65.5718570 152.2094560  91.9343920  50.8911210 152.5059000  98.0678040
  51.2584250 152.4186400  98.9474060  50.3222030 151.7425550  97.9684900
  65.6915070 150.9743380 101.0808510  65.4601160 150.7456130 100.1806460
  65.9519620 151.8942930 101.0353400  50.4427210 149.4168090 101.9736460
  49.5483260 149.3834850 102.3130170  50.9824760 149.6154880 102.7387710
  64.1303140 146.1999810 103.8588210  65.0073320 146.2083210 104.2422210
  64.1423980 145.4630650 103.2480560  49.0673360 149.3305360  89.4700030
  48.1637440 149.5935560  89.2951690  49.5513980 149.6016530  88.6899990
  65.5766410 150.0529350  94.7476230  66.1003890 149.5592000  94.1166400
  66.1625830 150.1879710  95.4923800  65.7556130 150.1369220  98.2695780
  64.8058840 150.1032760  98.3840770  65.9369140 151.0469330  98.0345550
  51.6100570 148.3870900  87.3794410  52.3192270 147.9654120  86.8941690
  50.8940510 148.4546130  86.7477760  51.2574730 144.4410230  86.4197060
  51.9802860 144.9819170  86.7378280  51.5299250 144.1673650  85.5438600
  65.0666380 149.3102700  90.6868640  65.5625500 149.0773570  91.4717520
  64.8682450 148.4714540  90.2706280  50.9466920 143.6916420  96.3219680
  51.5943110 143.1413800  95.8814840  51.3668760 143.9459570  97.1435490
  66.4953540 147.9463650  93.2206320  66.3852820 147.7919690  94.1588590
  67.2561130 147.4184590  92.9781730  64.8419260 143.8857780  99.6789320
  65.4791480 144.4991920 100.0448510  64.9894150 143.9218440  98.7338550
  67.3843810 145.7771570  86.4612460  68.3093120 145.6452750  86.2530750
  67.3619600 145.8564390  87.4148910  67.4582300 146.5482230  89.0869170
  66.6633800 146.4827350  89.6162080  67.6625580 147.4832870  89.0754520
  50.6998920 143.8472090  99.0645000  50.3513740 144.3035910  99.8303180
  50.3686620 142.9529220  99.1467430  58.2123740 145.0383970 102.5864420
  58.1512630 145.6305800 103.3359830  59.1524120 144.9309930 102.4414680
  60.8498300 144.6954030 102.2256710  61.4638710 145.0133320 101.5637790
  61.3947860 144.2102620 102.8452570  51.3719560 143.3748290 102.3395770
  51.9202550 143.1936340 101.5761880  51.4374870 142.5842400 102.8752080
  61.5906340 143.2586170  98.5526000  60.7166180 143.5921280  98.3498930
  61.4817090 142.7859350  99.3777870  62.4978320 145.4657040  99.9367720
  62.1691680 144.6508800  99.5569450  63.4460620 145.4226850  99.8133410
  59.3381160 144.1756010  97.4918910  58.5552950 144.6501510  97.7715670
  59.0444090 143.2710840  97.3832090  63.8902230 144.8779110  95.5368000
  64.3310320 144.8224210  94.6889600  63.6209820 145.7937120  95.6078180
  65.7540800 144.5094350  93.5476820  65.6929200 143.5655570  93.4007840
  66.5332830 144.6174440  94.0930280  50.6821570 144.4803490  90.0132630
  51.4400930 144.5932370  89.4396660  50.2198740 145.3172690  89.9676060
  57.2235380 146.5942760  93.0034940  56.4109890 146.2199650  92.6630820
  57.7277020 145.8387840  93.3056130  61.7260360 143.2585210  94.2418010
  62.3289730 143.8305420  94.7166530  60.9853350 143.8224650  94.0191910
  64.8694960 143.6606770  89.5158290  65.0645590 144.5590220  89.7825720
  64.0824830 143.4293850  90.0091240  53.0546720 145.0067540  88.5534600
  53.5839480 144.2197340  88.4242550  53.6875040 145.6858730  88.7870130
  55.2484560 144.7442680  91.6079990  54.6187300 144.0429990  91.7750120
  54.7089700 145.5046810  91.3913150  55.3740120 144.0226660 104.0432480
  55.0924390 144.5260260 103.2793300  55.7559820 143.2248410 103.6774610
  61.9755580 143.4380240 104.6212950  61.8621030 143.7574850 105.5164470
  62.7925320 143.8392750 104.3250230  60.8813730 151.4572710  74.9847690
  60.8007780 150.5427320  74.7139400  60.4678150 151.9539780  74.2787400
  51.4389550 148.5073430  71.5275110  50.5506250 148.8489400  71.4254990
  51.7230740 148.3073750  70.6355940  49.4022560 151.1079080  77.4114810
  49.9738670 150.3401280  77.4118450  49.4024100 151.4067840  76.5021420
  50.6447430 146.5163440  79.1983740  50.4650270 145.6189190  79.4786500
  50.2427510 147.0635310  79.8730690  59.4845930 148.7179300  77.0996050
  59.8610750 147.8451180  76.9869720  59.3865440 149.0538000  76.2086490
  53.6150940 147.0904930  72.5613490  53.7217690 147.9908660  72.8682250
  52.7043300 147.0422900  72.2708140  63.2670050 146.2129740  74.0324390
  64.0879670 145.7226310  74.0749870  63.3004130 146.8027400  74.7856230
  51.2634100 149.0123940  77.8066080  51.9444210 149.2762310  78.4253480
  50.9482150 148.1724810  78.1404090  55.4558670 150.0591300  76.8938670
  55.9636890 150.5572270  77.5343690  55.9871910 149.2826500  76.7178030
  67.5569600 148.2296490  80.5968020  66.8521770 148.6178200  80.0783130
  67.8227520 148.9246780  81.1988950  53.7394770 144.6989860  81.1602090
  53.7413210 145.2162250  80.3547990  52.9099080 144.2220040  81.1372020
  63.5031530 148.1530120  76.8051930  62.7987100 148.4415010  77.3855040
  63.8643690 148.9630230  76.4451490  53.4210100 146.4099820  79.1672540
  53.7626910 147.2541870  78.8726410  52.4825910 146.5583560  79.2837880
  66.5718450 147.5984910  77.1961140  65.6243360 147.6323890  77.3276570
  66.8968440 148.4123860  77.5810500  57.1037990 143.8982090  75.4917130
  57.4112970 143.3428980  74.7752630  56.1738690 144.0326550  75.3090120
  59.4787830 148.2347920  69.2244410  58.5391500 148.3961880  69.3096870
  59.7971090 148.9533600  68.6780400  62.9642600 149.7035760  80.1478310
  62.5513780 150.5289470  80.4018300  62.2318550 149.1180800  79.9554670
  55.0975390 152.4895660  75.0096980  54.6932390 151.7772910  74.5142880
  55.1838510 152.1448900  75.8985020  53.8104010 149.2638870  78.7896020
  54.3618600 149.3734210  78.0149270  54.3247520 149.6376470  79.5051250
  65.2797880 144.0180840  68.0526290  64.9670540 144.1107670  68.9525360
  66.0410350 144.5961870  68.0023720  51.7980020 151.3840640  72.5103630
  51.6777620 152.1102730  71.8984900  51.4880910 150.6143550  72.0331540
  66.4899170 148.7552340  84.0300430  65.8743440 149.2632010  83.5015890
  66.1695590 147.8550670  83.9726370  54.2643680 144.7275710  75.8927300
  53.8211830 145.5085250  75.5611820  54.8228670 145.0505600  76.5998240
  58.5513490 147.5944230  81.4962620  58.0892860 147.8027250  82.3082560
  58.1491600 146.7803580  81.1933290  63.5518000 148.8153180  82.6259280
  62.7011590 148.5158930  82.9468350  63.3919790 149.0595190  81.7143100
  60.6467710 150.3154930  84.7258070  60.9721120 149.4818680  84.3860300
  61.4348040 150.8383450  84.8736400  57.3802500 144.3486410  70.7733130
  56.7556680 144.3446280  71.4986440  57.2932620 143.4817370  70.3769100
  56.3019580 145.2723040  77.7516900  56.5991910 146.1785870  77.6708920
  56.8505140 144.7841820  77.1376470  54.0557900 149.8509280  73.6208550
  53.8298820 149.6346450  74.5255170  53.2750430 150.2837740  73.2754520
  61.2855660 149.8572650  72.2199200  60.6864550 150.5808450  72.0362820
  61.8335270 149.7949430  71.4375650  56.4957110 150.7494860  84.2868820
  56.4000710 149.8089590  84.1369220  57.3389090 150.9709930  83.8916890
  59.8920530 148.4936190  74.2502480  60.2850100 148.8108390  73.4371170
  60.2537380 147.6148070  74.3647000  51.6267650 147.1608530  82.4402600
  51.2331040 148.0083740  82.6475380  50.9386050 146.5234900  82.6311240
  58.2012700 147.2443500  85.5099340  57.5111020 147.0515700  86.1445430
  58.9445000 147.5278140  86.0423640  48.9284700 145.0836990  76.4732680
  48.6397750 145.6539850  77.1857660  49.6730460 144.6041440  76.8363910
  49.1154930 149.0257110  67.6835400  49.0329600 149.9687870  67.8250390
  48.7637990 148.8832020  66.8047750  60.4775670 151.0841940  78.3453260
  59.7456790 151.5928750  78.6943360  60.0800010 150.2671920  78.0442040
  56.9153060 147.7596140  76.7505750  56.9189120 147.3186090  75.9010290
  57.8104180 148.0813470  76.8577570  52.7655440 147.6422630  75.7099960
  52.4255490 148.1197860  76.4667010  52.0032760 147.1887750  75.3501060
  56.9773210 148.7608220  69.7412510  57.0986030 148.7194700  70.6898330
  56.5921720 149.6232370  69.5859240  60.9401580 146.5375620  77.7576200
  60.9574320 146.9884270  78.6018050  60.6917160 145.6381260  77.9709640
  55.9894710 151.0709360  69.1395810  55.4211610 150.6227610  68.5131720
  56.6983710 151.4302140  68.6060960  64.3672330 143.9507800  83.5962580
  64.6918100 143.2197460  84.1220560  64.4028840 143.6321440  82.6943570
  50.0801520 146.5641610  74.6264630  49.7948440 146.1997280  75.4643250
  50.0180380 145.8322070  74.0127770  55.0060400 150.8606560  80.8155370
  54.7017470 151.7398540  81.0405730  55.9606860 150.9206350  80.8512810
  59.7540110 145.4570870  71.3478000  58.9404720 144.9584040  71.2723310
  59.5602060 146.2969120  70.9314350  62.4688500 149.8290520  69.6440160
  63.3568120 150.1407750  69.4691500  62.4393590 148.9562770  69.2520740
  51.0624130 151.7009300  81.9626730  50.7039070 152.3663150  82.5500070
  50.7678690 150.8692850  82.3339350  54.2637250 152.1593540  84.8466280
  53.9637390 152.3050720  83.9494100  55.0348490 151.5998830  84.7539670
  64.7402770 151.1402360  69.1120020  64.6566490 151.5716580  68.2616460
  65.4596960 151.6000710  69.5446840  49.5732180 151.7000560  68.5861330
  50.4427030 151.9825360  68.8697250  49.0822500 152.5136430  68.4710140
  52.6378770 143.4311420  73.1792130  52.5093400 143.4229320  74.1277050
  51.8140790 143.7694510  72.8283140  49.6372700 145.1902540  82.6398830
  48.9231220 145.3899460  83.2451440  50.0567740 144.4142110  83.0113630
  61.1311480 147.6824850  80.3900280  61.4992300 146.8620060  80.7179850
  60.2709680 147.7426740  80.8055930  64.4973510 146.6381790  71.1987840
  63.8686670 146.7427460  70.4846070  64.0025430 146.8578570  71.9881720
  56.4657540 148.9167740  72.6145720  55.7573690 149.3854080  73.0559330
  56.7502020 148.2589750  73.2490910  58.0913470 150.3364440  80.6138250
  58.5898720 150.8110260  81.2790100  58.2336420 149.4127960  80.8208280
  60.4972970 145.6418400  74.0541510  60.3740750 145.6604530  73.1051020
  61.4457530 145.6897340  74.1739910  54.6692560 147.2252820  69.9896430
  55.5183090 147.6622970  69.9236620  54.3023830 147.5373080  70.8168490
  65.2980330 146.5532400  81.4566640  64.7953930 147.2937800  81.7960450
  66.1136990 146.9416400  81.1403430  63.5902340 151.7965580  74.9028000
  62.6492480 151.8115810  75.0775690  63.9046410 151.0101540  75.3488300
  52.2630740 150.9110250  69.1464850  52.3434330 149.9637760  69.2582250
  53.1550490 151.2417130  69.2525510  51.8224620 150.8754760  85.2771090
  51.8629960 150.5768630  86.1856320  52.6770120 151.2762370  85.1178610
  53.7630430 149.4546860  83.2445580  53.2326890 148.9637810  82.6168920
  54.4318500 149.8831060  82.7103510  63.1330660 151.2612480  85.0125920
  63.7151430 150.5064800  84.9246400  63.3092430 151.7919920  84.2357400
  54.2502730 146.4209230  83.3242870  54.1559600 145.8029980  82.5993740
  53.6700120 147.1475520  83.0972780  57.0164170 144.9782470  80.3570260
  56.5681470 145.0006730  79.5115810  56.3829370 144.5801490  80.9540560
  59.7587620 151.6052980  82.3620540  59.8783830 151.0094120  83.1015380
  60.6181620 151.6422670  81.9421840  54.4961910 149.5483540  67.3832760
  54.2950970 148.6850900  67.7446100  54.3253960 149.4616900  66.4454360
  56.5256390 148.1474330  83.6196360  57.1156080 147.8390180  84.3074180
  55.7076630 147.6754080  83.7756260  61.3449820 147.7640140  83.8529380
  60.6565340 147.1021680  83.7879370  62.0655840 147.3178410  84.2977840
  61.9750220 144.3591770  69.9119640  62.2552510 143.5159670  70.2679060
  61.2015950 144.5914880  70.4258390  53.2944710 146.6484160  67.3710640
  53.5970610 146.6551590  66.4629790  54.0339300 146.2982020  67.8678300
  56.5129640 145.5918780  68.3566840  56.1651640 144.9142770  67.7769290
  56.7142410 145.1308290  69.1710230  49.8535280 152.1206430  74.7531210
  49.1984120 151.8518070  74.1090910  50.6913230 152.0110910  74.3033190
  62.8025720 146.9147720  68.9749700  63.2210600 146.7278700  68.1346360
  62.4961780 146.0626770  69.2852630  66.3015450 151.8271860  72.6725500
  65.9259050 151.0599790  72.2406790  65.5718570 152.2094560  73.1600430
  50.8911210 152.5059000  79.2934550  51.2584250 152.4186400  80.1730570
  50.3222030 151.7425550  79.1941410  65.6915070 150.9743380  82.3065020
  65.4601160 150.7456130  81.4062970  65.9519620 151.8942930  82.2609910
  50.4427210 149.4168090  83.1992970  49.5483260 149.3834850  83.5386680
  50.9824760 149.6154880  83.9644220  64.1303140 146.1999810  85.0844720
  65.0073320 146.2083210  85.4678720  64.1423980 145.4630650  84.4737070
  49.0673360 149.3305360  70.6956540  48.1637440 149.5935560  70.5208200
  49.5513980 149.6016530  69.9156500  65.5766410 150.0529350  75.9732740
  66.1003890 149.5592000  75.3422910  66.1625830 150.1879710  76.7180310
  65.7556130 150.1369220  79.4952290  64.8058840 150.1032760  79.6097280
  65.9369140 151.0469330  79.2602060  51.6100570 148.3870900  68.6050920
  52.3192270 147.9654120  68.1198200  50.8940510 148.4546130  67.9734270
  51.2574730 144.4410230  67.6453570  51.9802860 144.9819170  67.9634790
  51.5299250 144.1673650  66.7695110  65.0666380 149.3102700  71.9125150
  65.5625500 149.0773570  72.6974030  64.8682450 148.4714540  71.4962790
  50.9466920 143.6916420  77.5476190  51.5943110 143.1413800  77.1071350
  51.3668760 143.9459570  78.3692000  66.4953540 147.9463650  74.4462830
  66.3852820 147.7919690  75.3845100  67.2561130 147.4184590  74.2038240
  64.8419260 143.8857780  80.9045830  65.4791480 144.4991920  81.2705020
  64.9894150 143.9218440  79.9595060  67.3843810 145.7771570  67.6868970
  68.3093120 145.6452750  67.4787260  67.3619600 145.8564390  68.6405420
  67.4582300 146.5482230  70.3125680  66.6633800 146.4827350  70.8418590
  67.6625580 147.4832870  70.3011030  50.6998920 143.8472090  80.2901510
  50.3513740 144.3035910  81.0559690  50.3686620 142.9529220  80.3723940
  58.2123740 145.0383970  83.8120930  58.1512630 145.6305800  84.5616340
  59.1524120 144.9309930  83.6671190  60.8498300 144.6954030  83.4513220
  61.4638710 145.0133320  82.7894300  61.3947860 144.2102620  84.0709080
  51.3719560 143.3748290  83.5652280  51.9202550 143.1936340  82.8018390
  51.4374870 142.5842400  84.1008590  61.5906340 143.2586170  79.7782510
  60.7166180 143.5921280  79.5755440  61.4817090 142.7859350  80.6034380
  62.4978320 145.4657040  81.1624230  62.1691680 144.6508800  80.7825960
  63.4460620 145.4226850  81.0389920  59.3381160 144.1756010  78.7175420
  58.5552950 144.6501510  78.9972180  59.0444090 143.2710840  78.6088600
  63.8902230 144.8779110  76.7624510  64.3310320 144.8224210  75.9146110
  63.6209820 145.7937120  76.8334690  65.7540800 144.5094350  74.7733330
  65.6929200 143.5655570  74.6264350  66.5332830 144.6174440  75.3186790
  50.6821570 144.4803490  71.2389140  51.4400930 144.5932370  70.6653170
  50.2198740 145.3172690  71.1932570  57.2235380 146.5942760  74.2291450
  56.4109890 146.2199650  73.8887330  57.7277020 145.8387840  74.5312640
  61.7260360 143.2585210  75.4674520  62.3289730 143.8305420  75.9423040
  60.9853350 143.8224650  75.2448420  64.8694960 143.6606770  70.7414800
  65.0645590 144.5590220  71.0082230  64.0824830 143.4293850  71.2347750
  53.0546720 145.0067540  69.7791110  53.5839480 144.2197340  69.6499060
  53.6875040 145.6858730  70.0126640  55.2484560 144.7442680  72.8336500
  54.6187300 144.0429990  73.0006630  54.7089700 145.5046810  72.6169660
  55.3740120 144.0226660  85.2688990  55.0924390 144.5260260  84.5049810
  55.7559820 143.2248410  84.9031120  61.9755580 143.4380240  85.8469460
  61.8621030 143.7574850  86.7420980  62.7925320 143.8392750  85.5506740
  60.8813730 151.4572710  56.2104200  60.8007780 150.5427320  55.9395910
  60.4678150 151.9539780  55.5043910  51.4389550 148.5073430  52.7531620
  50.5506250 148.8489400  52.6511500  51.7230740 148.3073750  51.8612450
  49.4022560 151.1079080  58.6371320  49.9738670 150.3401280  58.6374960
  49.4024100 151.4067840  57.7277930  50.6447430 146.5163440  60.4240250
  50.4650270 145.6189190  60.7043010  50.2427510 147.0635310  61.0987200
  59.4845930 148.7179300  58.3252560  59.8610750 147.8451180  58.2126230
  59.3865440 149.0538000  57.4343000  53.6150940 147.0904930  53.7870000
  53.7217690 147.9908660  54.0938760  52.7043300 147.0422900  53.4964650
  63.2670050 146.2129740  55.2580900  64.0879670 145.7226310  55.3006380
  63.3004130 146.8027400  56.0112740  51.2634100 149.0123940  59.0322590
  51.9444210 149.2762310  59.6509990  50.9482150 148.1724810  59.3660600
  55.4558670 150.0591300  58.1195180  55.9636890 150.5572270  58.7600200
  55.9871910 149.2826500  57.9434540  67.5569600 148.2296490  61.8224530
  66.8521770 148.6178200  61.3039640  67.8227520 148.9246780  62.4245460
  53.7394770 144.6989860  62.3858600  53.7413210 145.2162250  61.5804500
  52.9099080 144.2220040  62.3628530  63.5031530 148.1530120  58.0308440
  62.7987100 148.4415010  58.6111550  63.8643690 148.9630230  57.6708000
  53.4210100 146.4099820  60.3929050  53.7626910 147.2541870  60.0982920
  52.4825910 146.5583560  60.5094390  66.5718450 147.5984910  58.4217650
  65.6243360 147.6323890  58.5533080  66.8968440 148.4123860  58.8067010
  57.1037990 143.8982090  56.7173640  57.4112970 143.3428980  56.0009140
  56.1738690 144.0326550  56.5346630  59.4787830 148.2347920  50.4500920
  58.5391500 148.3961880  50.5353380  59.7971090 148.9533600  49.9036910
  62.9642600 149.7035760  61.3734820  62.5513780 150.5289470  61.6274810
  62.2318550 149.1180800  61.1811180  55.0975390 152.4895660  56.2353490
  54.6932390 151.7772910  55.7399390  55.1838510 152.1448900  57.1241530
  53.8104010 149.2638870  60.0152530  54.3618600 149.3734210  59.2405780
  54.3247520 149.6376470  60.7307760  65.2797880 144.0180840  49.2782800
  64.9670540 144.1107670  50.1781870  66.0410350 144.5961870  49.2280230
  51.7980020 151.3840640  53.7360140  51.6777620 152.1102730  53.1241410
  51.4880910 150.6143550  53.2588050  66.4899170 148.7552340  65.2556940
  65.8743440 149.2632010  64.7272400  66.1695590 147.8550670  65.1982880
  54.2643680 144.7275710  57.1183810  53.8211830 145.5085250  56.7868330
  54.8228670 145.0505600  57.8254750  58.5513490 147.5944230  62.7219130
  58.0892860 147.8027250  63.5339070  58.1491600 146.7803580  62.4189800
  63.5518000 148.8153180  63.8515790  62.7011590 148.5158930  64.1724860
  63.3919790 149.0595190  62.9399610  60.6467710 150.3154930  65.9514580
  60.9721120 149.4818680  65.6116810  61.4348040 150.8383450  66.0992910
  57.3802500 144.3486410  51.9989640  56.7556680 144.3446280  52.7242950
  57.2932620 143.4817370  51.6025610  56.3019580 145.2723040  58.9773410
  56.5991910 146.1785870  58.8965430  56.8505140 144.7841820  58.3632980
  54.0557900 149.8509280  54.8465060  53.8298820 149.6346450  55.7511680
  53.2750430 150.2837740  54.5011030  61.2855660 149.8572650  53.4455710
  60.6864550 150.5808450  53.2619330  61.8335270 149.7949430  52.6632160
  56.4957110 150.7494860  65.5125330  56.4000710 149.8089590  65.3625730
  57.3389090 150.9709930  65.1173400  59.8920530 148.4936190  55.4758990
  60.2850100 148.8108390  54.6627680  60.2537380 147.6148070  55.5903510
  51.6267650 147.1608530  63.6659110  51.2331040 148.0083740  63.8731890
  50.9386050 146.5234900  63.8567750  58.2012700 147.2443500  66.7355850
  57.5111020 147.0515700  67.3701940  58.9445000 147.5278140  67.2680150
  48.9284700 145.0836990  57.6989190  48.6397750 145.6539850  58.4114170
  49.6730460 144.6041440  58.0620420  49.1154930 149.0257110  48.9091910
  49.0329600 149.9687870  49.0506900  48.7637990 148.8832020  48.0304260
  60.4775670 151.0841940  59.5709770  59.7456790 151.5928750  59.9199870
  60.0800010 150.2671920  59.2698550  56.9153060 147.7596140  57.9762260
  56.9189120 147.3186090  57.1266800  57.8104180 148.0813470  58.0834080
  52.7655440 147.6422630  56.9356470  52.4255490 148.1197860  57.6923520
  52.0032760 147.1887750  56.5757570  56.9773210 148.7608220  50.9669020
  57.0986030 148.7194700  51.9154840  56.5921720 149.6232370  50.8115750
  60.9401580 146.5375620  58.9832710  60.9574320 146.9884270  59.8274560
  60.6917160 145.6381260  59.1966150  55.9894710 151.0709360  50.3652320
  55.4211610 150.6227610  49.7388230  56.6983710 151.4302140  49.8317470
  64.3672330 143.9507800  64.8219090  64.6918100 143.2197460  65.3477070
  64.4028840 143.6321440  63.9200080  50.0801520 146.5641610  55.8521140
  49.7948440 146.1997280  56.6899760  50.0180380 145.8322070  55.2384280
  55.0060400 150.8606560  62.0411880  54.7017470 151.7398540  62.2662240
  55.9606860 150.9206350  62.0769320  59.7540110 145.4570870  52.5734510
  58.9404720 144.9584040  52.4979820  59.5602060 146.2969120  52.1570860
  62.4688500 149.8290520  50.8696670  63.3568120 150.1407750  50.6948010
  62.4393590 148.9562770  50.4777250  51.0624130 151.7009300  63.1883240
  50.7039070 152.3663150  63.7756580  50.7678690 150.8692850  63.5595860
  54.2637250 152.1593540  66.0722790  53.9637390 152.3050720  65.1750610
  55.0348490 151.5998830  65.9796180  64.7402770 151.1402360  50.3376530
  64.6566490 151.5716580  49.4872970  65.4596960 151.6000710  50.7703350
  49.5732180 151.7000560  49.8117840  50.4427030 151.9825360  50.0953760
  49.0822500 152.5136430  49.6966650  52.6378770 143.4311420  54.4048640
  52.5093400 143.4229320  55.3533560  51.8140790 143.7694510  54.0539650
  49.6372700 145.1902540  63.8655340  48.9231220 145.3899460  64.4707950
  50.0567740 144.4142110  64.2370140  61.1311480 147.6824850  61.6156790
  61.4992300 146.8620060  61.9436360  60.2709680 147.7426740  62.0312440
  64.4973510 146.6381790  52.4244350  63.8686670 146.7427460  51.7102580
  64.0025430 146.8578570  53.2138230  56.4657540 148.9167740  53.8402230
  55.7573690 149.3854080  54.2815840  56.7502020 148.2589750  54.4747420
  58.0913470 150.3364440  61.8394760  58.5898720 150.8110260  62.5046610
  58.2336420 149.4127960  62.0464790  60.4972970 145.6418400  55.2798020
  60.3740750 145.6604530  54.3307530  61.4457530 145.6897340  55.3996420
  54.6692560 147.2252820  51.2152940  55.5183090 147.6622970  51.1493130
  54.3023830 147.5373080  52.0425000  65.2980330 146.5532400  62.6823150
  64.7953930 147.2937800  63.0216960  66.1136990 146.9416400  62.3659940
  63.5902340 151.7965580  56.1284510  62.6492480 151.8115810  56.3032200
  63.9046410 151.0101540  56.5744810  52.2630740 150.9110250  50.3721360
  52.3434330 149.9637760  50.4838760  53.1550490 151.2417130  50.4782020
  51.8224620 150.8754760  66.5027600  51.8629960 150.5768630  67.4112830
  52.6770120 151.2762370  66.3435120  53.7630430 149.4546860  64.4702090
  53.2326890 148.9637810  63.8425430  54.4318500 149.8831060  63.9360020
  63.1330660 151.2612480  66.2382430  63.7151430 150.5064800  66.1502910
  63.3092430 151.7919920  65.4613910  54.2502730 146.4209230  64.5499380
  54.1559600 145.8029980  63.8250250  53.6700120 147.1475520  64.3229290
  57.0164170 144.9782470  61.5826770  56.5681470 145.0006730  60.7372320
  56.3829370 144.5801490  62.1797070  59.7587620 151.6052980  63.5877050
  59.8783830 151.0094120  64.3271890  60.6181620 151.6422670  63.1678350
  54.4961910 149.5483540  48.6089270  54.2950970 148.6850900  48.9702610
  54.3253960 149.4616900  47.6710870  56.5256390 148.1474330  64.8452870
  57.1156080 147.8390180  65.5330690  55.7076630 147.6754080  65.0012770
  61.3449820 147.7640140  65.0785890  60.6565340 147.1021680  65.0135880
  62.0655840 147.3178410  65.5234350  61.9750220 144.3591770  51.1376150
  62.2552510 143.5159670  51.4935570  61.2015950 144.5914880  51.6514900
  53.2944710 146.6484160  48.5967150  53.5970610 146.6551590  47.6886300
  54.0339300 146.2982020  49.0934810  56.5129640 145.5918780  49.5823350
  56.1651640 144.9142770  49.0025800  56.7142410 145.1308290  50.3966740
  49.8535280 152.1206430  55.9787720  49.1984120 151.8518070  55.3347420
  50.6913230 152.0110910  55.5289700  62.8025720 146.9147720  50.2006210
  63.2210600 146.7278700  49.3602870  62.4961780 146.0626770  50.5109140
  66.3015450 151.8271860  53.8982010  65.9259050 151.0599790  53.4663300
  65.5718570 152.2094560  54.3856940  50.8911210 152.5059000  60.5191060
  51.2584250 152.4186400  61.3987080  50.3222030 151.7425550  60.4197920
  65.6915070 150.9743380  63.5321530  65.4601160 150.7456130  62.6319480
  65.9519620 151.8942930  63.4866420  50.4427210 149.4168090  64.4249480
  49.5483260 149.3834850  64.7643190  50.9824760 149.6154880  65.1900730
  64.1303140 146.1999810  66.3101230  65.0073320 146.2083210  66.6935230
  64.1423980 145.4630650  65.6993580  49.0673360 149.3305360  51.9213050
  48.1637440 149.5935560  51.7464710  49.5513980 149.6016530  51.1413010
  65.5766410 150.0529350  57.1989250  66.1003890 149.5592000  56.5679420
  66.1625830 150.1879710  57.9436820  65.7556130 150.1369220  60.7208800
  64.8058840 150.1032760  60.8353790  65.9369140 151.0469330  60.4858570
  51.6100570 148.3870900  49.8307430  52.3192270 147.9654120  49.3454710
  50.8940510 148.4546130  49.1990780  51.2574730 144.4410230  48.8710080
  51.9802860 144.9819170  49.1891300  51.5299250 144.1673650  47.9951620
  65.0666380 149.3102700  53.1381660  65.5625500 149.0773570  53.9230540
  64.8682450 148.4714540  52.7219300  50.9466920 143.6916420  58.7732700
  51.5943110 143.1413800  58.3327860  51.3668760 143.9459570  59.5948510
  66.4953540 147.9463650  55.6719340  66.3852820 147.7919690  56.6101610
  67.2561130 147.4184590  55.4294750  64.8419260 143.8857780  62.1302340
  65.4791480 144.4991920  62.4961530  64.9894150 143.9218440  61.1851570
  67.3843810 145.7771570  48.9125480  68.3093120 145.6452750  48.7043770
  67.3619600 145.8564390  49.8661930  67.4582300 146.5482230  51.5382190
  66.6633800 146.4827350  52.0675100  67.6625580 147.4832870  51.5267540
  50.6998920 143.8472090  61.5158020  50.3513740 144.3035910  62.2816200
  50.3686620 142.9529220  61.5980450  58.2123740 145.0383970  65.0377440
  58.1512630 145.6305800  65.7872850  59.1524120 144.9309930  64.8927700
  60.8498300 144.6954030  64.6769730  61.4638710 145.0133320  64.0150810
  61.3947860 144.2102620  65.2965590  51.3719560 143.3748290  64.7908790
  51.9202550 143.1936340  64.0274900  51.4374870 142.5842400  65.3265100
  61.5906340 143.2586170  61.0039020  60.7166180 143.5921280  60.8011950
  61.4817090 142.7859350  61.8290890  62.4978320 145.4657040  62.3880740
  62.1691680 144.6508800  62.0082470  63.4460620 145.4226850  62.2646430
  59.3381160 144.1756010  59.9431930  58.5552950 144.6501510  60.2228690
  59.0444090 143.2710840  59.8345110  63.8902230 144.8779110  57.9881020
  64.3310320 144.8224210  57.1402620  63.6209820 145.7937120  58.0591200
  65.7540800 144.5094350  55.9989840  65.6929200 143.5655570  55.8520860
  66.5332830 144.6174440  56.5443300  50.6821570 144.4803490  52.4645650
  51.4400930 144.5932370  51.8909680  50.2198740 145.3172690  52.4189080
  57.2235380 146.5942760  55.4547960  56.4109890 146.2199650  55.1143840
  57.7277020 145.8387840  55.7569150  61.7260360 143.2585210  56.6931030
  62.3289730 143.8305420  57.1679550  60.9853350 143.8224650  56.4704930
  64.8694960 143.6606770  51.9671310  65.0645590 144.5590220  52.2338740
  64.0824830 143.4293850  52.4604260  53.0546720 145.0067540  51.0047620
  53.5839480 144.2197340  50.8755570  53.6875040 145.6858730  51.2383150
  55.2484560 144.7442680  54.0593010  54.6187300 144.0429990  54.2263140
  54.7089700 145.5046810  53.8426170  55.3740120 144.0226660  66.4945500
  55.0924390 144.5260260  65.7306320  55.7559820 143.2248410  66.1287630
  61.9755580 143.4380240  67.0725970  61.8621030 143.7574850  67.9677490
  62.7925320 143.8392750  66.7763250  60.8813730 151.4572710  37.4360710
  60.8007780 150.5427320  37.1652420  60.4678150 151.9539780  36.7300420
  51.4389550 148.5073430  33.9788130  50.5506250 148.8489400  33.8768010
  51.7230740 148.3073750  33.0868960  49.4022560 151.1079080  39.8627830
  49.9738670 150.3401280  39.8631470  49.4024100 151.4067840  38.9534440
  50.6447430 146.5163440  41.6496760  50.4650270 145.6189190  41.9299520
  50.2427510 147.0635310  42.3243710  59.4845930 148.7179300  39.5509070
  59.8610750 147.8451180  39.4382740  59.3865440 149.0538000  38.6599510
  53.6150940 147.0904930  35.0126510  53.7217690 147.9908660  35.3195270
  52.7043300 147.0422900  34.7221160  63.2670050 146.2129740  36.4837410
  64.0879670 145.7226310  36.5262890  63.3004130 146.8027400  37.2369250
  51.2634100 149.0123940  40.2579100  51.9444210 149.2762310  40.8766500
  50.9482150 148.1724810  40.5917110  55.4558670 150.0591300  39.3451690
  55.9636890 150.5572270  39.9856710  55.9871910 149.2826500  39.1691050
  67.5569600 148.2296490  43.0481040  66.8521770 148.6178200  42.5296150
  67.8227520 148.9246780  43.6501970  53.7394770 144.6989860  43.6115110
  53.7413210 145.2162250  42.8061010  52.9099080 144.2220040  43.5885040
  63.5031530 148.1530120  39.2564950  62.7987100 148.4415010  39.8368060
  63.8643690 148.9630230  38.8964510  53.4210100 146.4099820  41.6185560
  53.7626910 147.2541870  41.3239430  52.4825910 146.5583560  41.7350900
  66.5718450 147.5984910  39.6474160  65.6243360 147.6323890  39.7789590
  66.8968440 148.4123860  40.0323520  57.1037990 143.8982090  37.9430150
  57.4112970 143.3428980  37.2265650  56.1738690 144.0326550  37.7603140
  59.4787830 148.2347920  31.6757430  58.5391500 148.3961880  31.7609890
  59.7971090 148.9533600  31.1293420  62.9642600 149.7035760  42.5991330
  62.5513780 150.5289470  42.8531320  62.2318550 149.1180800  42.4067690
  55.0975390 152.4895660  37.4610000  54.6932390 151.7772910  36.9655900
  55.1838510 152.1448900  38.3498040  53.8104010 149.2638870  41.2409040
  54.3618600 149.3734210  40.4662290  54.3247520 149.6376470  41.9564270
  65.2797880 144.0180840  30.5039310  64.9670540 144.1107670  31.4038380
  66.0410350 144.5961870  30.4536740  51.7980020 151.3840640  34.9616650
  51.6777620 152.1102730  34.3497920  51.4880910 150.6143550  34.4844560
  66.4899170 148.7552340  46.4813450  65.8743440 149.2632010  45.9528910
  66.1695590 147.8550670  46.4239390  54.2643680 144.7275710  38.3440320
  53.8211830 145.5085250  38.0124840  54.8228670 145.0505600  39.0511260
  58.5513490 147.5944230  43.9475640  58.0892860 147.8027250  44.7595580
  58.1491600 146.7803580  43.6446310  63.5518000 148.8153180  45.0772300
  62.7011590 148.5158930  45.3981370  63.3919790 149.0595190  44.1656120
  60.6467710 150.3154930  47.1771090  60.9721120 149.4818680  46.8373320
  61.4348040 150.8383450  47.3249420  57.3802500 144.3486410  33.2246150
  56.7556680 144.3446280  33.9499460  57.2932620 143.4817370  32.8282120
  56.3019580 145.2723040  40.2029920  56.5991910 146.1785870  40.1221940
  56.8505140 144.7841820  39.5889490  54.0557900 149.8509280  36.0721570
  53.8298820 149.6346450  36.9768190  53.2750430 150.2837740  35.7267540
  61.2855660 149.8572650  34.6712220  60.6864550 150.5808450  34.4875840
  61.8335270 149.7949430  33.8888670  56.4957110 150.7494860  46.7381840
  56.4000710 149.8089590  46.5882240  57.3389090 150.9709930  46.3429910
  59.8920530 148.4936190  36.7015500  60.2850100 148.8108390  35.8884190
  60.2537380 147.6148070  36.8160020  51.6267650 147.1608530  44.8915620
  51.2331040 148.0083740  45.0988400  50.9386050 146.5234900  45.0824260
  58.2012700 147.2443500  47.9612360  57.5111020 147.0515700  48.5958450
  58.9445000 147.5278140  48.4936660  48.9284700 145.0836990  38.9245700
  48.6397750 145.6539850  39.6370680  49.6730460 144.6041440  39.2876930
  49.1154930 149.0257110  30.1348420  49.0329600 149.9687870  30.2763410
  48.7637990 148.8832020  29.2560770  60.4775670 151.0841940  40.7966280
  59.7456790 151.5928750  41.1456380  60.0800010 150.2671920  40.4955060
  56.9153060 147.7596140  39.2018770  56.9189120 147.3186090  38.3523310
  57.8104180 148.0813470  39.3090590  52.7655440 147.6422630  38.1612980
  52.4255490 148.1197860  38.9180030  52.0032760 147.1887750  37.8014080
  56.9773210 148.7608220  32.1925530  57.0986030 148.7194700  33.1411350
  56.5921720 149.6232370  32.0372260  60.9401580 146.5375620  40.2089220
  60.9574320 146.9884270  41.0531070  60.6917160 145.6381260  40.4222660
  55.9894710 151.0709360  31.5908830  55.4211610 150.6227610  30.9644740
  56.6983710 151.4302140  31.0573980  64.3672330 143.9507800  46.0475600
  64.6918100 143.2197460  46.5733580  64.4028840 143.6321440  45.1456590
  50.0801520 146.5641610  37.0777650  49.7948440 146.1997280  37.9156270
  50.0180380 145.8322070  36.4640790  55.0060400 150.8606560  43.2668390
  54.7017470 151.7398540  43.4918750  55.9606860 150.9206350  43.3025830
  59.7540110 145.4570870  33.7991020  58.9404720 144.9584040  33.7236330
  59.5602060 146.2969120  33.3827370  62.4688500 149.8290520  32.0953180
  63.3568120 150.1407750  31.9204520  62.4393590 148.9562770  31.7033760
  51.0624130 151.7009300  44.4139750  50.7039070 152.3663150  45.0013090
  50.7678690 150.8692850  44.7852370  54.2637250 152.1593540  47.2979300
  53.9637390 152.3050720  46.4007120  55.0348490 151.5998830  47.2052690
  64.7402770 151.1402360  31.5633040  64.6566490 151.5716580  30.7129480
  65.4596960 151.6000710  31.9959860  49.5732180 151.7000560  31.0374350
  50.4427030 151.9825360  31.3210270  49.0822500 152.5136430  30.9223160
  52.6378770 143.4311420  35.6305150  52.5093400 143.4229320  36.5790070
  51.8140790 143.7694510  35.2796160  49.6372700 145.1902540  45.0911850
  48.9231220 145.3899460  45.6964460  50.0567740 144.4142110  45.4626650
  61.1311480 147.6824850  42.8413300  61.4992300 146.8620060  43.1692870
  60.2709680 147.7426740  43.2568950  64.4973510 146.6381790  33.6500860
  63.8686670 146.7427460  32.9359090  64.0025430 146.8578570  34.4394740
  56.4657540 148.9167740  35.0658740  55.7573690 149.3854080  35.5072350
  56.7502020 148.2589750  35.7003930  58.0913470 150.3364440  43.0651270
  58.5898720 150.8110260  43.7303120  58.2336420 149.4127960  43.2721300
  60.4972970 145.6418400  36.5054530  60.3740750 145.6604530  35.5564040
  61.4457530 145.6897340  36.6252930  54.6692560 147.2252820  32.4409450
  55.5183090 147.6622970  32.3749640  54.3023830 147.5373080  33.2681510
  65.2980330 146.5532400  43.9079660  64.7953930 147.2937800  44.2473470
  66.1136990 146.9416400  43.5916450  63.5902340 151.7965580  37.3541020
  62.6492480 151.8115810  37.5288710  63.9046410 151.0101540  37.8001320
  52.2630740 150.9110250  31.5977870  52.3434330 149.9637760  31.7095270
  53.1550490 151.2417130  31.7038530  51.8224620 150.8754760  47.7284110
  51.8629960 150.5768630  48.6369340  52.6770120 151.2762370  47.5691630
  53.7630430 149.4546860  45.6958600  53.2326890 148.9637810  45.0681940
  54.4318500 149.8831060  45.1616530  63.1330660 151.2612480  47.4638940
  63.7151430 150.5064800  47.3759420  63.3092430 151.7919920  46.6870420
  54.2502730 146.4209230  45.7755890  54.1559600 145.8029980  45.0506760
  53.6700120 147.1475520  45.5485800  57.0164170 144.9782470  42.8083280
  56.5681470 145.0006730  41.9628830  56.3829370 144.5801490  43.4053580
  59.7587620 151.6052980  44.8133560  59.8783830 151.0094120  45.5528400
  60.6181620 151.6422670  44.3934860  54.4961910 149.5483540  29.8345780
  54.2950970 148.6850900  30.1959120  54.3253960 149.4616900  28.8967380
  56.5256390 148.1474330  46.0709380  57.1156080 147.8390180  46.7587200
  55.7076630 147.6754080  46.2269280  61.3449820 147.7640140  46.3042400
  60.6565340 147.1021680  46.2392390  62.0655840 147.3178410  46.7490860
  61.9750220 144.3591770  32.3632660  62.2552510 143.5159670  32.7192080
  61.2015950 144.5914880  32.8771410  53.2944710 146.6484160  29.8223660
  53.5970610 146.6551590  28.9142810  54.0339300 146.2982020  30.3191320
  56.5129640 145.5918780  30.8079860  56.1651640 144.9142770  30.2282310
  56.7142410 145.1308290  31.6223250  49.8535280 152.1206430  37.2044230
  49.1984120 151.8518070  36.5603930  50.6913230 152.0110910  36.7546210
  62.8025720 146.9147720  31.4262720  63.2210600 146.7278700  30.5859380
  62.4961780 146.0626770  31.7365650  66.3015450 151.8271860  35.1238520
  65.9259050 151.0599790  34.6919810  65.5718570 152.2094560  35.6113450
  50.8911210 152.5059000  41.7447570  51.2584250 152.4186400  42.6243590
  50.3222030 151.7425550  41.6454430  65.6915070 150.9743380  44.7578040
  65.4601160 150.7456130  43.8575990  65.9519620 151.8942930  44.7122930
  50.4427210 149.4168090  45.6505990  49.5483260 149.3834850  45.9899700
  50.9824760 149.6154880  46.4157240  64.1303140 146.1999810  47.5357740
  65.0073320 146.2083210  47.9191740  64.1423980 145.4630650  46.9250090
  49.0673360 149.3305360  33.1469560  48.1637440 149.5935560  32.9721220
  49.5513980 149.6016530  32.3669520  65.5766410 150.0529350  38.4245760
  66.1003890 149.5592000  37.7935930  66.1625830 150.1879710  39.1693330
  65.7556130 150.1369220  41.9465310  64.8058840 150.1032760  42.0610300
  65.9369140 151.0469330  41.7115080  51.6100570 148.3870900  31.0563940
  52.3192270 147.9654120  30.5711220  50.8940510 148.4546130  30.4247290
  51.2574730 144.4410230  30.0966590  51.9802860 144.9819170  30.4147810
  51.5299250 144.1673650  29.2208130  65.0666380 149.3102700  34.3638170
  65.5625500 149.0773570  35.1487050  64.8682450 148.4714540  33.9475810
  50.9466920 143.6916420  39.9989210  51.5943110 143.1413800  39.5584370
  51.3668760 143.9459570  40.8205020  66.4953540 147.9463650  36.8975850
  66.3852820 147.7919690  37.8358120  67.2561130 147.4184590  36.6551260
  64.8419260 143.8857780  43.3558850  65.4791480 144.4991920  43.7218040
  64.9894150 143.9218440  42.4108080  67.3843810 145.7771570  30.1381990
  68.3093120 145.6452750  29.9300280  67.3619600 145.8564390  31.0918440
  67.4582300 146.5482230  32.7638700  66.6633800 146.4827350  33.2931610
  67.6625580 147.4832870  32.7524050  50.6998920 143.8472090  42.7414530
  50.3513740 144.3035910  43.5072710  50.3686620 142.9529220  42.8236960
  58.2123740 145.0383970  46.2633950  58.1512630 145.6305800  47.0129360
  59.1524120 144.9309930  46.1184210  60.8498300 144.6954030  45.9026240
  61.4638710 145.0133320  45.2407320  61.3947860 144.2102620  46.5222100
  51.3719560 143.3748290  46.0165300  51.9202550 143.1936340  45.2531410
  51.4374870 142.5842400  46.5521610  61.5906340 143.2586170  42.2295530
  60.7166180 143.5921280  42.0268460  61.4817090 142.7859350  43.0547400
  62.4978320 145.4657040  43.6137250  62.1691680 144.6508800  43.2338980
  63.4460620 145.4226850  43.4902940  59.3381160 144.1756010  41.1688440
  58.5552950 144.6501510  41.4485200  59.0444090 143.2710840  41.0601620
  63.8902230 144.8779110  39.2137530  64.3310320 144.8224210  38.3659130
  63.6209820 145.7937120  39.2847710  65.7540800 144.5094350  37.2246350
  65.6929200 143.5655570  37.0777370  66.5332830 144.6174440  37.7699810
  50.6821570 144.4803490  33.6902160  51.4400930 144.5932370  33.1166190
  50.2198740 145.3172690  33.6445590  57.2235380 146.5942760  36.6804470
  56.4109890 146.2199650  36.3400350  57.7277020 145.8387840  36.9825660
  61.7260360 143.2585210  37.9187540  62.3289730 143.8305420  38.3936060
  60.9853350 143.8224650  37.6961440  64.8694960 143.6606770  33.1927820
  65.0645590 144.5590220  33.4595250  64.0824830 143.4293850  33.6860770
  53.0546720 145.0067540  32.2304130  53.5839480 144.2197340  32.1012080
  53.6875040 145.6858730  32.4639660  55.2484560 144.7442680  35.2849520
  54.6187300 144.0429990  35.4519650  54.7089700 145.5046810  35.0682680
  55.3740120 144.0226660  47.7202010  55.0924390 144.5260260  46.9562830
  55.7559820 143.2248410  47.3544140  61.9755580 143.4380240  48.2982480
  61.8621030 143.7574850  49.1934000  62.7925320 143.8392750  48.0019760
  60.8813730 151.4572710  18.6617220  60.8007780 150.5427320  18.3908930
  60.4678150 151.9539780  17.9556930  51.4389550 148.5073430  15.2044640
  50.5506250 148.8489400  15.1024520  51.7230740 148.3073750  14.3125470
  49.4022560 151.1079080  21.0884340  49.9738670 150.3401280  21.0887980
  49.4024100 151.4067840  20.1790950  50.6447430 146.5163440  22.8753270
  50.4650270 145.6189190  23.1556030  50.2427510 147.0635310  23.5500220
  59.4845930 148.7179300  20.7765580  59.8610750 147.8451180  20.6639250
  59.3865440 149.0538000  19.8856020  53.6150940 147.0904930  16.2383020
  53.7217690 147.9908660  16.5451780  52.7043300 147.0422900  15.9477670
  63.2670050 146.2129740  17.7093920  64.0879670 145.7226310  17.7519400
  63.3004130 146.8027400  18.4625760  51.2634100 149.0123940  21.4835610
  51.9444210 149.2762310  22.1023010  50.9482150 148.1724810  21.8173620
  55.4558670 150.0591300  20.5708200  55.9636890 150.5572270  21.2113220
  55.9871910 149.2826500  20.3947560  67.5569600 148.2296490  24.2737550
  66.8521770 148.6178200  23.7552660  67.8227520 148.9246780  24.8758480
  53.7394770 144.6989860  24.8371620  53.7413210 145.2162250  24.0317520
  52.9099080 144.2220040  24.8141550  63.5031530 148.1530120  20.4821460
  62.7987100 148.4415010  21.0624570  63.8643690 148.9630230  20.1221020
  53.4210100 146.4099820  22.8442070  53.7626910 147.2541870  22.5495940
  52.4825910 146.5583560  22.9607410  66.5718450 147.5984910  20.8730670
  65.6243360 147.6323890  21.0046100  66.8968440 148.4123860  21.2580030
  57.1037990 143.8982090  19.1686660  57.4112970 143.3428980  18.4522160
  56.1738690 144.0326550  18.9859650  59.4787830 148.2347920  12.9013940
  58.5391500 148.3961880  12.9866400  59.7971090 148.9533600  12.3549930
  62.9642600 149.7035760  23.8247840  62.5513780 150.5289470  24.0787830
  62.2318550 149.1180800  23.6324200  55.0975390 152.4895660  18.6866510
  54.6932390 151.7772910  18.1912410  55.1838510 152.1448900  19.5754550
  53.8104010 149.2638870  22.4665550  54.3618600 149.3734210  21.6918800
  54.3247520 149.6376470  23.1820780  65.2797880 144.0180840  11.7295820
  64.9670540 144.1107670  12.6294890  66.0410350 144.5961870  11.6793250
  51.7980020 151.3840640  16.1873160  51.6777620 152.1102730  15.5754430
  51.4880910 150.6143550  15.7101070  66.4899170 148.7552340  27.7069960
  65.8743440 149.2632010  27.1785420  66.1695590 147.8550670  27.6495900
  54.2643680 144.7275710  19.5696830  53.8211830 145.5085250  19.2381350
  54.8228670 145.0505600  20.2767770  58.5513490 147.5944230  25.1732150
  58.0892860 147.8027250  25.9852090  58.1491600 146.7803580  24.8702820
  63.5518000 148.8153180  26.3028810  62.7011590 148.5158930  26.6237880
  63.3919790 149.0595190  25.3912630  60.6467710 150.3154930  28.4027600
  60.9721120 149.4818680  28.0629830  61.4348040 150.8383450  28.5505930
  57.3802500 144.3486410  14.4502660  56.7556680 144.3446280  15.1755970
  57.2932620 143.4817370  14.0538630  56.3019580 145.2723040  21.4286430
  56.5991910 146.1785870  21.3478450  56.8505140 144.7841820  20.8146000
  54.0557900 149.8509280  17.2978080  53.8298820 149.6346450  18.2024700
  53.2750430 150.2837740  16.9524050  61.2855660 149.8572650  15.8968730
  60.6864550 150.5808450  15.7132350  61.8335270 149.7949430  15.1145180
  56.4957110 150.7494860  27.9638350  56.4000710 149.8089590  27.8138750
  57.3389090 150.9709930  27.5686420  59.8920530 148.4936190  17.9272010
  60.2850100 148.8108390  17.1140700  60.2537380 147.6148070  18.0416530
  51.6267650 147.1608530  26.1172130  51.2331040 148.0083740  26.3244910
  50.9386050 146.5234900  26.3080770  58.2012700 147.2443500  29.1868870
  57.5111020 147.0515700  29.8214960  58.9445000 147.5278140  29.7193170
  48.9284700 145.0836990  20.1502210  48.6397750 145.6539850  20.8627190
  49.6730460 144.6041440  20.5133440  49.1154930 149.0257110  11.3604930
  49.0329600 149.9687870  11.5019920  48.7637990 148.8832020  10.4817280
  60.4775670 151.0841940  22.0222790  59.7456790 151.5928750  22.3712890
  60.0800010 150.2671920  21.7211570  56.9153060 147.7596140  20.4275280
  56.9189120 147.3186090  19.5779820  57.8104180 148.0813470  20.5347100
  52.7655440 147.6422630  19.3869490  52.4255490 148.1197860  20.1436540
  52.0032760 147.1887750  19.0270590  56.9773210 148.7608220  13.4182040
  57.0986030 148.7194700  14.3667860  56.5921720 149.6232370  13.2628770
  60.9401580 146.5375620  21.4345730  60.9574320 146.9884270  22.2787580
  60.6917160 145.6381260  21.6479170  55.9894710 151.0709360  12.8165340
  55.4211610 150.6227610  12.1901250  56.6983710 151.4302140  12.2830490
  64.3672330 143.9507800  27.2732110  64.6918100 143.2197460  27.7990090
  64.4028840 143.6321440  26.3713100  50.0801520 146.5641610  18.3034160
  49.7948440 146.1997280  19.1412780  50.0180380 145.8322070  17.6897300
  55.0060400 150.8606560  24.4924900  54.7017470 151.7398540  24.7175260
  55.9606860 150.9206350  24.5282340  59.7540110 145.4570870  15.0247530
  58.9404720 144.9584040  14.9492840  59.5602060 146.2969120  14.6083880
  62.4688500 149.8290520  13.3209690  63.3568120 150.1407750  13.1461030
  62.4393590 148.9562770  12.9290270  51.0624130 151.7009300  25.6396260
  50.7039070 152.3663150  26.2269600  50.7678690 150.8692850  26.0108880
  54.2637250 152.1593540  28.5235810  53.9637390 152.3050720  27.6263630
  55.0348490 151.5998830  28.4309200  64.7402770 151.1402360  12.7889550
  64.6566490 151.5716580  11.9385990  65.4596960 151.6000710  13.2216370
  49.5732180 151.7000560  12.2630860  50.4427030 151.9825360  12.5466780
  49.0822500 152.5136430  12.1479670  52.6378770 143.4311420  16.8561660
  52.5093400 143.4229320  17.8046580  51.8140790 143.7694510  16.5052670
  49.6372700 145.1902540  26.3168360  48.9231220 145.3899460  26.9220970
  50.0567740 144.4142110  26.6883160  61.1311480 147.6824850  24.0669810
  61.4992300 146.8620060  24.3949380  60.2709680 147.7426740  24.4825460
  64.4973510 146.6381790  14.8757370  63.8686670 146.7427460  14.1615600
  64.0025430 146.8578570  15.6651250  56.4657540 148.9167740  16.2915250
  55.7573690 149.3854080  16.7328860  56.7502020 148.2589750  16.9260440
  58.0913470 150.3364440  24.2907780  58.5898720 150.8110260  24.9559630
  58.2336420 149.4127960  24.4977810  60.4972970 145.6418400  17.7311040
  60.3740750 145.6604530  16.7820550  61.4457530 145.6897340  17.8509440
  54.6692560 147.2252820  13.6665960  55.5183090 147.6622970  13.6006150
  54.3023830 147.5373080  14.4938020  65.2980330 146.5532400  25.1336170
  64.7953930 147.2937800  25.4729980  66.1136990 146.9416400  24.8172960
  63.5902340 151.7965580  18.5797530  62.6492480 151.8115810  18.7545220
  63.9046410 151.0101540  19.0257830  52.2630740 150.9110250  12.8234380
  52.3434330 149.9637760  12.9351780  53.1550490 151.2417130  12.9295040
  51.8224620 150.8754760  28.9540620  51.8629960 150.5768630  29.8625850
  52.6770120 151.2762370  28.7948140  53.7630430 149.4546860  26.9215110
  53.2326890 148.9637810  26.2938450  54.4318500 149.8831060  26.3873040
  63.1330660 151.2612480  28.6895450  63.7151430 150.5064800  28.6015930
  63.3092430 151.7919920  27.9126930  54.2502730 146.4209230  27.0012400
  54.1559600 145.8029980  26.2763270  53.6700120 147.1475520  26.7742310
  57.0164170 144.9782470  24.0339790  56.5681470 145.0006730  23.1885340
  56.3829370 144.5801490  24.6310090  59.7587620 151.6052980  26.0390070
  59.8783830 151.0094120  26.7784910  60.6181620 151.6422670  25.6191370
  54.4961910 149.5483540  11.0602290  54.2950970 148.6850900  11.4215630
  54.3253960 149.4616900  10.1223890  56.5256390 148.1474330  27.2965890
  57.1156080 147.8390180  27.9843710  55.7076630 147.6754080  27.4525790
  61.3449820 147.7640140  27.5298910  60.6565340 147.1021680  27.4648900
  62.0655840 147.3178410  27.9747370  61.9750220 144.3591770  13.5889170
  62.2552510 143.5159670  13.9448590  61.2015950 144.5914880  14.1027920
  53.2944710 146.6484160  11.0480170  53.5970610 146.6551590  10.1399320
  54.0339300 146.2982020  11.5447830  56.5129640 145.5918780  12.0336370
  56.1651640 144.9142770  11.4538820  56.7142410 145.1308290  12.8479760
  49.8535280 152.1206430  18.4300740  49.1984120 151.8518070  17.7860440
  50.6913230 152.0110910  17.9802720  62.8025720 146.9147720  12.6519230
  63.2210600 146.7278700  11.8115890  62.4961780 146.0626770  12.9622160
  66.3015450 151.8271860  16.3495030  65.9259050 151.0599790  15.9176320
  65.5718570 152.2094560  16.8369960  50.8911210 152.5059000  22.9704080
  51.2584250 152.4186400  23.8500100  50.3222030 151.7425550  22.8710940
  65.6915070 150.9743380  25.9834550  65.4601160 150.7456130  25.0832500
  65.9519620 151.8942930  25.9379440  50.4427210 149.4168090  26.8762500
  49.5483260 149.3834850  27.2156210  50.9824760 149.6154880  27.6413750
  64.1303140 146.1999810  28.7614250  65.0073320 146.2083210  29.1448250
  64.1423980 145.4630650  28.1506600  49.0673360 149.3305360  14.3726070
  48.1637440 149.5935560  14.1977730  49.5513980 149.6016530  13.5926030
  65.5766410 150.0529350  19.6502270  66.1003890 149.5592000  19.0192440
  66.1625830 150.1879710  20.3949840  65.7556130 150.1369220  23.1721820
  64.8058840 150.1032760  23.2866810  65.9369140 151.0469330  22.9371590
  51.6100570 148.3870900  12.2820450  52.3192270 147.9654120  11.7967730
  50.8940510 148.4546130  11.6503800  51.2574730 144.4410230  11.3223100
  51.9802860 144.9819170  11.6404320  51.5299250 144.1673650  10.4464640
  65.0666380 149.3102700  15.5894680  65.5625500 149.0773570  16.3743560
  64.8682450 148.4714540  15.1732320  50.9466920 143.6916420  21.2245720
  51.5943110 143.1413800  20.7840880  51.3668760 143.9459570  22.0461530
  66.4953540 147.9463650  18.1232360  66.3852820 147.7919690  19.0614630
  67.2561130 147.4184590  17.8807770  64.8419260 143.8857780  24.5815360
  65.4791480 144.4991920  24.9474550  64.9894150 143.9218440  23.6364590
  67.3843810 145.7771570  11.3638500  68.3093120 145.6452750  11.1556790
  67.3619600 145.8564390  12.3174950  67.4582300 146.5482230  13.9895210
  66.6633800 146.4827350  14.5188120  67.6625580 147.4832870  13.9780560
  50.6998920 143.8472090  23.9671040  50.3513740 144.3035910  24.7329220
  50.3686620 142.9529220  24.0493470  58.2123740 145.0383970  27.4890460
  58.1512630 145.6305800  28.2385870  59.1524120 144.9309930  27.3440720
  60.8498300 144.6954030  27.1282750  61.4638710 145.0133320  26.4663830
  61.3947860 144.2102620  27.7478610  51.3719560 143.3748290  27.2421810
  51.9202550 143.1936340  26.4787920  51.4374870 142.5842400  27.7778120
  61.5906340 143.2586170  23.4552040  60.7166180 143.5921280  23.2524970
  61.4817090 142.7859350  24.2803910  62.4978320 145.4657040  24.8393760
  62.1691680 144.6508800  24.4595490  63.4460620 145.4226850  24.7159450
  59.3381160 144.1756010  22.3944950  58.5552950 144.6501510  22.6741710
  59.0444090 143.2710840  22.2858130  63.8902230 144.8779110  20.4394040
  64.3310320 144.8224210  19.5915640  63.6209820 145.7937120  20.5104220
  65.7540800 144.5094350  18.4502860  65.6929200 143.5655570  18.3033880
  66.5332830 144.6174440  18.9956320  50.6821570 144.4803490  14.9158670
  51.4400930 144.5932370  14.3422700  50.2198740 145.3172690  14.8702100
  57.2235380 146.5942760  17.9060980  56.4109890 146.2199650  17.5656860
  57.7277020 145.8387840  18.2082170  61.7260360 143.2585210  19.1444050
  62.3289730 143.8305420  19.6192570  60.9853350 143.8224650  18.9217950
  64.8694960 143.6606770  14.4184330  65.0645590 144.5590220  14.6851760
  64.0824830 143.4293850  14.9117280  53.0546720 145.0067540  13.4560640
  53.5839480 144.2197340  13.3268590  53.6875040 145.6858730  13.6896170
  55.2484560 144.7442680  16.5106030  54.6187300 144.0429990  16.6776160
  54.7089700 145.5046810  16.2939190  55.3740120 144.0226660  28.9458520
  55.0924390 144.5260260  28.1819340  55.7559820 143.2248410  28.5800650
  61.9755580 143.4380240  29.5238990  61.8621030 143.7574850  30.4190510
  62.7925320 143.8392750  29.2276270  50.6447430 146.5163440   4.1009780
  50.4650270 145.6189190   4.3812540  50.2427510 147.0635310   4.7756730
  51.2634100 149.0123940   2.7092120  51.9444210 149.2762310   3.3279520
  50.9482150 148.1724810   3.0430130  55.4558670 150.0591300   1.7964710
  55.9636890 150.5572270   2.4369730  55.9871910 149.2826500   1.6204070
  67.5569600 148.2296490   5.4994060  66.8521770 148.6178200   4.9809170
  67.8227520 148.9246780   6.1014990  53.7394770 144.6989860   6.0628130
  53.7413210 145.2162250   5.2574030  52.9099080 144.2220040   6.0398060
  53.4210100 146.4099820   4.0698580  53.7626910 147.2541870   3.7752450
  52.4825910 146.5583560   4.1863920  66.5718450 147.5984910   2.0987180
  65.6243360 147.6323890   2.2302610  66.8968440 148.4123860   2.4836540
  62.9642600 149.7035760   5.0504350  62.5513780 150.5289470   5.3044340
  62.2318550 149.1180800   4.8580710  53.8104010 149.2638870   3.6922060
  54.3618600 149.3734210   2.9175310  54.3247520 149.6376470   4.4077290
  66.4899170 148.7552340   8.9326470  65.8743440 149.2632010   8.4041930
  66.1695590 147.8550670   8.8752410  58.5513490 147.5944230   6.3988660
  58.0892860 147.8027250   7.2108600  58.1491600 146.7803580   6.0959330
  63.5518000 148.8153180   7.5285320  62.7011590 148.5158930   7.8494390
  63.3919790 149.0595190   6.6169140  60.6467710 150.3154930   9.6284110
  60.9721120 149.4818680   9.2886340  61.4348040 150.8383450   9.7762440
  56.3019580 145.2723040   2.6542940  56.5991910 146.1785870   2.5734960
  56.8505140 144.7841820   2.0402510  56.4957110 150.7494860   9.1894860
  56.4000710 149.8089590   9.0395260  57.3389090 150.9709930   8.7942930
  51.6267650 147.1608530   7.3428640  51.2331040 148.0083740   7.5501420
  50.9386050 146.5234900   7.5337280  58.2012700 147.2443500  10.4125380
  57.5111020 147.0515700  11.0471470  58.9445000 147.5278140  10.9449680
  60.4775670 151.0841940   3.2479300  59.7456790 151.5928750   3.5969400
  60.0800010 150.2671920   2.9468080  60.9401580 146.5375620   2.6602240
  60.9574320 146.9884270   3.5044090  60.6917160 145.6381260   2.8735680
  64.3672330 143.9507800   8.4988620  64.6918100 143.2197460   9.0246600
  64.4028840 143.6321440   7.5969610  55.0060400 150.8606560   5.7181410
  54.7017470 151.7398540   5.9431770  55.9606860 150.9206350   5.7538850
  51.0624130 151.7009300   6.8652770  50.7039070 152.3663150   7.4526110
  50.7678690 150.8692850   7.2365390  54.2637250 152.1593540   9.7492320
  53.9637390 152.3050720   8.8520140  55.0348490 151.5998830   9.6565710
  49.6372700 145.1902540   7.5424870  48.9231220 145.3899460   8.1477480
  50.0567740 144.4142110   7.9139670  61.1311480 147.6824850   5.2926320
  61.4992300 146.8620060   5.6205890  60.2709680 147.7426740   5.7081970
  58.0913470 150.3364440   5.5164290  58.5898720 150.8110260   6.1816140
  58.2336420 149.4127960   5.7234320  65.2980330 146.5532400   6.3592680
  64.7953930 147.2937800   6.6986490  66.1136990 146.9416400   6.0429470
  51.8224620 150.8754760  10.1797130  51.8629960 150.5768630  11.0882360
  52.6770120 151.2762370  10.0204650  53.7630430 149.4546860   8.1471620
  53.2326890 148.9637810   7.5194960  54.4318500 149.8831060   7.6129550
  63.1330660 151.2612480   9.9151960  63.7151430 150.5064800   9.8272440
  63.3092430 151.7919920   9.1383440  54.2502730 146.4209230   8.2268910
  54.1559600 145.8029980   7.5019780  53.6700120 147.1475520   7.9998820
  57.0164170 144.9782470   5.2596300  56.5681470 145.0006730   4.4141850
  56.3829370 144.5801490   5.8566600  59.7587620 151.6052980   7.2646580
  59.8783830 151.0094120   8.0041420  60.6181620 151.6422670   6.8447880
  56.5256390 148.1474330   8.5222400  57.1156080 147.8390180   9.2100220
  55.7076630 147.6754080   8.6782300  61.3449820 147.7640140   8.7555420
  60.6565340 147.1021680   8.6905410  62.0655840 147.3178410   9.2003880
  50.8911210 152.5059000   4.1960590  51.2584250 152.4186400   5.0756610
  50.3222030 151.7425550   4.0967450  65.6915070 150.9743380   7.2091060
  65.4601160 150.7456130   6.3089010  65.9519620 151.8942930   7.1635950
  50.4427210 149.4168090   8.1019010  49.5483260 149.3834850   8.4412720
  50.9824760 149.6154880   8.8670260  64.1303140 146.1999810   9.9870760
  65.0073320 146.2083210  10.3704760  64.1423980 145.4630650   9.3763110
  65.7556130 150.1369220   4.3978330  64.8058840 150.1032760   4.5123320
  65.9369140 151.0469330   4.1628100  50.9466920 143.6916420   2.4502230
  51.5943110 143.1413800   2.0097390  51.3668760 143.9459570   3.2718040
  64.8419260 143.8857780   5.8071870  65.4791480 144.4991920   6.1731060
  64.9894150 143.9218440   4.8621100  50.6998920 143.8472090   5.1927550
  50.3513740 144.3035910   5.9585730  50.3686620 142.9529220   5.2749980
  58.2123740 145.0383970   8.7146970  58.1512630 145.6305800   9.4642380
  59.1524120 144.9309930   8.5697230  60.8498300 144.6954030   8.3539260
  61.4638710 145.0133320   7.6920340  61.3947860 144.2102620   8.9735120
  51.3719560 143.3748290   8.4678320  51.9202550 143.1936340   7.7044430
  51.4374870 142.5842400   9.0034630  61.5906340 143.2586170   4.6808550
  60.7166180 143.5921280   4.4781480  61.4817090 142.7859350   5.5060420
  62.4978320 145.4657040   6.0650270  62.1691680 144.6508800   5.6852000
  63.4460620 145.4226850   5.9415960  59.3381160 144.1756010   3.6201460
  58.5552950 144.6501510   3.8998220  59.0444090 143.2710840   3.5114640
  55.3740120 144.0226660  10.1715030  55.0924390 144.5260260   9.4075850
  55.7559820 143.2248410   9.8057160  61.9755580 143.4380240  10.7495500
  61.8621030 143.7574850  11.6447020  62.7925320 143.8392750  10.4532780
  60.8813730 132.6829220 150.0821650  60.8007780 131.7683830 149.8113360
  60.4678150 133.1796290 149.3761360  63.0339200 138.8668430 150.7430050
  62.5720730 138.0955670 151.0717220  63.8464750 138.8934500 151.2482500
  51.4389550 129.7329940 146.6249070  50.5506250 130.0745910 146.5228950
  51.7230740 129.5330260 145.7329900  59.2602510 141.1526440 150.3634040
  58.6413950 141.6083940 149.7928480  60.1154290 141.3077900 149.9623740
  53.6150940 128.3161440 147.6587450  53.7217690 129.2165170 147.9656210
  52.7043300 128.2679410 147.3682100  63.2670050 127.4386250 149.1298350
  64.0879670 126.9482820 149.1723830  63.3004130 128.0283910 149.8830190
  60.1265860 136.0365680 147.7565950  59.5083130 136.5015130 147.1928670
  60.6389110 136.7293160 148.1735460  49.4949060 136.7222210 145.1305580
  49.1177040 137.2109310 144.3990480  49.7522130 137.3947490 145.7612110
  57.1037990 125.1238600 150.5891090  57.4112970 124.5685490 149.8726590
  56.1738690 125.2583060 150.4064080  63.9498470 137.5622110 147.9688720
  63.8394800 136.6196440 148.0938140  63.9466720 137.9237750 148.8551480
  59.4918750 133.1887430 147.3251210  58.5648030 133.1224810 147.5539680
  59.6443570 134.1267560 147.2106450  59.4787830 129.4604430 144.3218370
  58.5391500 129.6218390 144.4070830  59.7971090 130.1790110 143.7754360
  63.5216040 134.7507730 147.8286460  62.9028460 134.4127280 147.1812760
  63.5040490 134.1067490 148.5365650  55.0975390 133.7152170 150.1070940
  54.6932390 133.0029420 149.6116840  55.1838510 133.3705410 150.9958980
  61.6980740 133.9894540 144.8359210  62.1374020 133.1516970 144.6897030
  62.4109160 134.6223940 144.9223350  59.8076120 138.9290610 148.8040450
  60.2472030 139.6714940 148.3895840  59.7463010 139.1717180 149.7279410
  65.2797880 125.2437350 143.1500250  64.9670540 125.3364180 144.0499320
  66.0410350 125.8218380 143.0997680  51.7980020 132.6097150 147.6077590
  51.6777620 133.3359240 146.9958860  51.4880910 131.8400060 147.1305500
  50.6813020 137.4812480 149.8252410  50.2741100 137.6227070 148.9706010
  51.5726030 137.1972640 149.6223620  62.4746300 141.9159730 146.1603460
  62.3147440 141.6262670 147.0585290  62.3093010 141.1399860 145.6248690
  54.9534680 141.6958260 147.9375080  54.7777160 140.7793800 147.7242880
  54.0990420 142.0545550 148.1772880  62.1772430 139.4247290 144.7201460
  61.4837590 139.4224580 144.0603740  62.9195290 139.0006610 144.2895630
  61.7422360 141.0510000 148.7949950  62.1979310 140.2699380 149.1088570
  62.0814880 141.7616820 149.3391130  54.2643680 125.9532220 150.9901260
  53.8211830 126.7341760 150.6585780  54.8228670 126.2762110 151.6972200
  57.3802500 125.5742920 145.8707090  56.7556680 125.5702790 146.5960400
  57.2932620 124.7073880 145.4743060  54.0557900 131.0765790 148.7182510
  53.8298820 130.8602960 149.6229130  53.2750430 131.5094250 148.3728480
  61.2855660 131.0829160 147.3173160  60.6864550 131.8064960 147.1336780
  61.8335270 131.0205940 146.5349610  59.8920530 129.7192700 149.3476440
  60.2850100 130.0364900 148.5345130  60.2537380 128.8404580 149.4620960
  49.1154930 130.2513620 142.7809360  49.0329600 131.1944380 142.9224350
  48.7637990 130.1088530 141.9021710  52.7655440 128.8679140 150.8073920
  52.4255490 129.3454370 151.5640970  52.0032760 128.4144260 150.4475020
  56.9773210 129.9864730 144.8386470  57.0986030 129.9451210 145.7872290
  56.5921720 130.8488880 144.6833200  55.9894710 132.2965870 144.2369770
  55.4211610 131.8484120 143.6105680  56.6983710 132.6558650 143.7034920
  50.0801520 127.7898120 149.7238590  49.7948440 127.4253790 150.5617210
  50.0180380 127.0578580 149.1101730  53.5342190 136.2924060 146.5096180
  52.7604450 135.7521680 146.3494900  54.2636820 135.7730670 146.1713940
  59.7540110 126.6827380 146.4451960  58.9404720 126.1840550 146.3697270
  59.5602060 127.5225630 146.0288310  62.4688500 131.0547030 144.7414120
  63.3568120 131.3664260 144.5665460  62.4393590 130.1819280 144.3494700
  53.5779590 135.9604440 150.1474990  54.0958260 135.1572700 150.0931880
  53.1263610 135.8983580 150.9891820  58.4649090 137.2270720 145.4202290
  58.8064790 137.9712950 144.9245610  57.6361800 137.5401840 145.7827120
  64.7402770 132.3658870 144.2093980  64.6566490 132.7973090 143.3590420
  65.4596960 132.8257220 144.6420800  65.7690020 139.2201130 146.9376110
  65.1266180 138.5656750 147.2119830  65.3820680 139.6256220 146.1616780
  61.3476500 136.5486560 150.7847800  61.7000320 135.9514690 150.1249170
  60.4638830 136.2230790 150.9556050  57.4339780 137.3084250 148.1918210
  58.1210910 137.8553460 148.5725800  56.6472200 137.8524980 148.2267820
  49.5732180 132.9257070 143.6835290  50.4427030 133.2081870 143.9671210
  49.0822500 133.7392940 143.5684100  56.7366990 134.3130280 147.8043570
  57.1929770 135.1235530 148.0303760  56.3855200 133.9953420 148.6362060
  52.6378770 124.6567930 148.2766090  52.5093400 124.6485830 149.2251010
  51.8140790 124.9951020 147.9257100  64.1587400 138.1117590 143.4752460
  63.9324980 137.3948030 144.0677100  63.7683600 137.8630030 142.6374210
  49.9403430 142.1384450 144.2496920  50.3001070 142.7373790 143.5954190
  49.7995770 142.6844340 145.0231950  63.7403650 136.0289530 145.1366620
  63.4525350 136.4902220 145.9244500  64.5355820 135.5687300 145.4050840
  55.9572050 139.5215650 145.0670590  55.9482150 140.2545340 144.4515100
  55.0370410 139.2747230 145.1597550  51.5578690 134.7430540 145.8117350
  50.9506640 135.4829440 145.8212650  52.0328040 134.8329900 144.9855550
  64.4973510 127.8638300 146.2961800  63.8686670 127.9683970 145.5820030
  64.0025430 128.0835080 147.0855680  58.9431650 139.5843890 143.7295780
  59.0443630 139.3807880 142.7997760  58.0433390 139.3302170 143.9343560
  56.4657540 130.1424250 147.7119680  55.7573690 130.6110590 148.1533290
  56.7502020 129.4846260 148.3464870  60.4972970 126.8674910 149.1515470
  60.3740750 126.8861040 148.2024980  61.4457530 126.9153850 149.2713870
  57.5849760 142.1030210 148.4243450  57.8391260 142.0651600 147.5022820
  56.6362240 141.9763540 148.4171700  54.6692560 128.4509330 145.0870390
  55.5183090 128.8879480 145.0210580  54.3023830 128.7629590 145.9142450
  63.5902340 133.0222090 150.0001960  62.6492480 133.0372320 150.1749650
  63.9046410 132.2358050 150.4462260  53.5683980 134.7041690 143.5605920
  54.3347250 134.5923050 144.1231350  53.6458670 134.0079660 142.9082690
  52.2630740 132.1366760 144.2438810  52.3434330 131.1894270 144.3556210
  53.1550490 132.4673640 144.3499470  53.0645450 142.2862150 151.3473350
  53.8007930 141.7377610 151.6181920  53.4486370 143.1518160 151.2079340
  49.9490930 138.3535720 147.2214860  49.0230710 138.5956860 147.2120270
  50.4147360 139.1809980 147.0999610  56.1747760 141.4592460 143.1698920
  56.9676370 141.7481290 142.7180710  55.6552110 141.0284630 142.4911400
  65.2277930 140.6862590 144.5935660  64.9419440 140.2727730 143.7789840
  65.0297480 141.6150300 144.4736180  56.6925160 136.6795870 143.0341270
  56.5875800 136.0648220 143.7602650  56.5249380 136.1561760 142.2504280
  59.9327890 135.7415900 143.6383260  59.3837990 136.1885200 144.2826000
  60.5547150 135.2365150 144.1620930  55.6003010 134.7006820 145.5348560
  56.0219430 134.5346690 146.3779950  55.7253850 133.8907050 145.0403700
  58.1130650 133.7244430 142.7825660  58.6336310 133.0093450 142.4166810
  58.7599050 134.3630300 143.0826170  54.4961910 130.7740050 142.4806720
  54.2950970 129.9107410 142.8420060  54.3253960 130.6873410 141.5428320
  61.9750220 125.5848280 145.0093600  62.2552510 124.7416180 145.3653020
  61.2015950 125.8171390 145.5232350  53.2944710 127.8740670 142.4684600
  53.5970610 127.8808100 141.5603750  54.0339300 127.5238530 142.9652260
  56.5129640 126.8175290 143.4540800  56.1651640 126.1399280 142.8743250
  56.7142410 126.3564800 144.2684190  58.6778680 141.8056040 145.0727400
  59.5729470 142.1441010 145.0946160  58.7096310 141.0835450 144.4451680
  52.3174840 137.1783090 143.3014400  52.7549710 137.7212760 143.9571980
  52.8022570 136.3530040 143.3110740  49.5320640 139.9672120 150.7534660
  49.8623650 139.0993180 150.5213300  49.9611640 140.1730640 151.5839620
  54.1282560 138.2981130 148.4136630  53.8278100 138.1746100 149.3140540
  54.0220050 137.4389720 148.0052360  66.8974480 138.0777530 143.1163310
  66.0667440 138.1454180 143.5870540  67.0746310 138.9681650 142.8130170
  66.3530940 134.8225010 145.6197510  67.1149850 135.3921660 145.7257200
  66.3685310 134.2552210 146.3905820  49.8535280 133.3462940 149.8505170
  49.1984120 133.0774580 149.2064870  50.6913230 133.2367420 149.4007150
  67.3590910 135.6775110 150.4639440  67.7299740 134.8942430 150.0575410
  67.9992840 136.3664210 150.2856740  66.4050110 135.1159380 142.7770030
  66.6798950 136.0238260 142.6489250  66.2160850 135.0521910 143.7132020
  62.8025720 128.1404230 144.0723660  63.2210600 127.9535210 143.2320320
  62.4961780 127.2883280 144.3826590  66.3015450 133.0528370 147.7699460
  65.9259050 132.2856300 147.3380750  65.5718570 133.4351070 148.2574390
  49.0673360 130.5561870 145.7930500  48.1637440 130.8192070 145.6182160
  49.5513980 130.8273040 145.0130460  51.6100570 129.6127410 143.7024880
  52.3192270 129.1910630 143.2172160  50.8940510 129.6802640 143.0708230
  51.2574730 125.6666740 142.7427530  51.9802860 126.2075680 143.0608750
  51.5299250 125.3930160 141.8669070  65.0666380 130.5359210 147.0099110
  65.5625500 130.3030080 147.7947990  64.8682450 129.6971050 146.5936750
  66.4953540 129.1720160 149.5436790  66.3852820 129.0176200 150.4819060
  67.2561130 128.6441100 149.3012200  67.3843810 127.0028080 142.7842930
  68.3093120 126.8709260 142.5761220  67.3619600 127.0820900 143.7379380
  67.4582300 127.7738740 145.4099640  66.6633800 127.7083860 145.9392550
  67.6625580 128.7089380 145.3984990  64.4000720 141.8130290 149.4038030
  64.9959790 141.4914860 148.7272450  64.6578870 141.3402110 150.1951300
  65.7540800 125.7350860 149.8707290  65.6929200 124.7912080 149.7238310
  66.5332830 125.8430950 150.4160750  50.0593550 141.8743220 148.8331240
  49.8915590 141.2413900 149.5313130  49.1928060 142.0802620 148.4825430
  50.6821570 125.7060000 146.3363100  51.4400930 125.8188880 145.7627130
  50.2198740 126.5429200 146.2906530  57.2235380 127.8199270 149.3265410
  56.4109890 127.4456160 148.9861290  57.7277020 127.0644350 149.6286600
  61.7260360 124.4841720 150.5648480  62.3289730 125.0561930 151.0397000
  60.9853350 125.0481160 150.3422380  64.8694960 124.8863280 145.8388760
  65.0645590 125.7846730 146.1056190  64.0824830 124.6550360 146.3321710
  51.6656250 140.5676450 146.2781380  51.1403870 140.9484480 145.5743340
  51.5900830 141.1927220 146.9991090  53.0546720 126.2324050 144.8765070
  53.5839480 125.4453850 144.7473020  53.6875040 126.9115240 145.1100600
  55.2484560 125.9699190 147.9310460  54.6187300 125.2686500 148.0980590
  54.7089700 126.7303320 147.7143620  66.4221570 142.1263990 147.5995320
  66.5973760 141.4401730 146.9556240  65.7243140 142.6511040 147.2071990
  54.2649220 142.5158830 145.1530630  54.9968040 142.2318110 144.6054520
  54.5242890 142.2772110 146.0430010  53.4264010 138.6323560 145.1576960
  52.7972890 139.1008660 145.7062790  53.5411840 137.7872780 145.5923150
  60.8813730 132.6829220 131.3078160  60.8007780 131.7683830 131.0369870
  60.4678150 133.1796290 130.6017870  59.0131770 134.4608240 133.1887430
  58.2373870 133.9808680 133.4786000  59.6644700 133.7813890 133.0143590
  53.0297600 134.7728050 134.0663190  52.1982480 134.5176760 134.4659700
  53.6378580 134.8438820 134.8021110  63.0339200 138.8668430 131.9686560
  62.5720730 138.0955670 132.2973730  63.8464750 138.8934500 132.4739010
  53.0098860 138.8068140 134.2621210  53.3126900 137.9165880 134.0831430
  53.7542450 139.3638360 134.0343460  51.4389550 129.7329940 127.8505580
  50.5506250 130.0745910 127.7485460  51.7230740 129.5330260 126.9586410
  49.4022560 132.3335590 133.7345280  49.9738670 131.5657790 133.7348920
  49.4024100 132.6324350 132.8251890  59.2602510 141.1526440 131.5890550
  58.6413950 141.6083940 131.0184990  60.1154290 141.3077900 131.1880250
  58.4540760 137.1365430 133.1957590  58.3849040 136.1955370 133.0346720
  59.2160620 137.2266840 133.7680160  50.6447430 127.7419950 135.5214210
  50.4650270 126.8445700 135.8016970  50.2427510 128.2891820 136.1961160
  59.4845930 129.9435810 133.4226520  59.8610750 129.0707690 133.3100190
  59.3865440 130.2794510 132.5316960  53.6150940 128.3161440 128.8843960
  53.7217690 129.2165170 129.1912720  52.7043300 128.2679410 128.5938610
  63.2670050 127.4386250 130.3554860  64.0879670 126.9482820 130.3980340
  63.3004130 128.0283910 131.1086700  51.2634100 130.2380450 134.1296550
  51.9444210 130.5018820 134.7483950  50.9482150 129.3981320 134.4634560
  55.4558670 131.2847810 133.2169140  55.9636890 131.7828780 133.8574160
  55.9871910 130.5083010 133.0408500  67.5569600 129.4553000 136.9198490
  66.8521770 129.8434710 136.4013600  67.8227520 130.1503290 137.5219420
  53.7394770 125.9246370 137.4832560  53.7413210 126.4418760 136.6778460
  52.9099080 125.4476550 137.4602490  60.1265860 136.0365680 128.9822460
  59.5083130 136.5015130 128.4185180  60.6389110 136.7293160 129.3991970
  54.9897620 135.5641550 135.6606060  54.6567000 136.1910470 136.3027130
  55.1664300 136.0903430 134.8807730  63.5031530 129.3786630 133.1282400
  62.7987100 129.6671520 133.7085510  63.8643690 130.1886740 132.7681960
  53.4210100 127.6356330 135.4903010  53.7626910 128.4798380 135.1956880
  52.4825910 127.7840070 135.6068350  54.2016720 137.5322350 137.4755240
  54.8190720 138.2073430 137.1939690  53.3409840 137.9410330 137.3842740
  49.4949060 136.7222210 126.3562090  49.1177040 137.2109310 125.6246990
  49.7522130 137.3947490 126.9868620  65.1194310 138.9961760 135.3909880
  64.4357830 139.6660870 135.3826550  65.6588600 139.1942410 134.6254740
  66.5718450 128.8241420 133.5191610  65.6243360 128.8580400 133.6507040
  66.8968440 129.6380370 133.9040970  57.1037990 125.1238600 131.8147600
  57.4112970 124.5685490 131.0983100  56.1738690 125.2583060 131.6320590
  62.6553050 140.8405890 134.1055060  62.6680210 140.4368180 133.2377320
  62.1028270 141.6153180 134.0016490  63.9498470 137.5622110 129.1945230
  63.8394800 136.6196440 129.3194650  63.9466720 137.9237750 130.0807990
  62.0538490 135.7435730 135.4337670  62.4707280 135.5295840 134.5991130
  62.7778310 136.0008520 136.0046290  59.4918750 133.1887430 128.5507720
  58.5648030 133.1224810 128.7796190  59.6443570 134.1267560 128.4362960
  59.4787830 129.4604430 125.5474880  58.5391500 129.6218390 125.6327340
  59.7971090 130.1790110 125.0010870  66.0000590 134.1422950 135.5253910
  65.1719220 134.2116040 135.0504040  66.5951070 134.7277260 135.0569740
  63.5216040 134.7507730 129.0542970  62.9028460 134.4127280 128.4069270
  63.5040490 134.1067490 129.7622160  62.9642600 130.9292270 136.4708780
  62.5513780 131.7545980 136.7248770  62.2318550 130.3437310 136.2785140
  55.0975390 133.7152170 131.3327450  54.6932390 133.0029420 130.8373350
  55.1838510 133.3705410 132.2215490  55.5657090 137.4019730 133.4966660
  55.2685380 136.7965200 132.8174440  56.5156910 137.4397040 133.3856020
  53.8104010 130.4895380 135.1126490  54.3618600 130.5990720 134.3379740
  54.3247520 130.8632980 135.8281720  63.6542700 140.9751600 137.1589760
  63.1773260 141.7823790 136.9662370  62.9704490 140.3229930 137.3115970
  54.6575520 137.1401420 140.1474460  53.7604050 137.3641390 140.3947860
  54.6828390 137.2636360 139.1985860  61.6980740 133.9894540 126.0615720
  62.1374020 133.1516970 125.9153540  62.4109160 134.6223940 126.1479860
  53.4846740 134.0114740 138.7231830  53.3454510 134.8837540 139.0919230
  52.6028100 133.6687550 138.5779770  59.8076120 138.9290610 130.0296960
  60.2472030 139.6714940 129.6152350  59.7463010 139.1717180 130.9535920
  55.2827090 139.9536440 140.9316980  55.2542520 140.3579390 140.0645410
  55.1192060 139.0246800 140.7688580  65.2797880 125.2437350 124.3756760
  64.9670540 125.3364180 125.2755830  66.0410350 125.8218380 124.3254190
  51.7980020 132.6097150 128.8334100  51.6777620 133.3359240 128.2215370
  51.4880910 131.8400060 128.3562010  67.2341910 140.7363540 142.2281150
  67.7101630 141.2146430 142.9070230  67.8549070 140.6681030 141.5026650
  49.4365390 135.7812290 134.6402740  49.5145810 135.9161060 133.6958460
  50.0507070 135.0728180 134.8330860  50.6813020 137.4812480 131.0508920
  50.2741100 137.6227070 130.1962520  51.5726030 137.1972640 130.8480130
  66.6375160 137.9276390 139.3881160  66.7638220 137.6888270 138.4698340
  66.6796540 137.0960930 139.8603240  60.4991900 141.6304390 137.9575970
  61.0136570 141.5412400 138.7598400  59.6560980 141.9764090 138.2503880
  62.4746300 141.9159730 127.3859970  62.3147440 141.6262670 128.2841800
  62.3093010 141.1399860 126.8505200  54.9534680 141.6958260 129.1631590
  54.7777160 140.7793800 128.9499390  54.0990420 142.0545550 129.4029390
  62.1772430 139.4247290 125.9457970  61.4837590 139.4224580 125.2860250
  62.9195290 139.0006610 125.5152140  61.7422360 141.0510000 130.0206460
  62.1979310 140.2699380 130.3345080  62.0814880 141.7616820 130.5647640
  66.4899170 129.9808850 140.3530900  65.8743440 130.4888520 139.8246360
  66.1695590 129.0807180 140.2956840  49.4924910 136.8226460 137.1797200
  49.6555950 136.3531820 136.3616570  49.9577360 136.3150020 137.8446040
  54.2643680 125.9532220 132.2157770  53.8211830 126.7341760 131.8842290
  54.8228670 126.2762110 132.9228710  58.5513490 128.8200740 137.8193090
  58.0892860 129.0283760 138.6313030  58.1491600 128.0060090 137.5163760
  63.5518000 130.0409690 138.9489750  62.7011590 129.7415440 139.2698820
  63.3919790 130.2851700 138.0373570  60.6467710 131.5411440 141.0488540
  60.9721120 130.7075190 140.7090770  61.4348040 132.0639960 141.1966870
  57.3802500 125.5742920 127.0963600  56.7556680 125.5702790 127.8216910
  57.2932620 124.7073880 126.6999570  56.3019580 126.4979550 134.0747370
  56.5991910 127.4042380 133.9939390  56.8505140 126.0098330 133.4606940
  54.0557900 131.0765790 129.9439020  53.8298820 130.8602960 130.8485640
  53.2750430 131.5094250 129.5984990  61.2855660 131.0829160 128.5429670
  60.6864550 131.8064960 128.3593290  61.8335270 131.0205940 127.7606120
  56.4957110 131.9751370 140.6099290  56.4000710 131.0346100 140.4599690
  57.3389090 132.1966440 140.2147360  59.8920530 129.7192700 130.5732950
  60.2850100 130.0364900 129.7601640  60.2537380 128.8404580 130.6877470
  51.6267650 128.3865040 138.7633070  51.2331040 129.2340250 138.9705850
  50.9386050 127.7491410 138.9541710  58.2012700 128.4700010 141.8329810
  57.5111020 128.2772210 142.4675900  58.9445000 128.7534650 142.3654110
  48.9284700 126.3093500 132.7963150  48.6397750 126.8796360 133.5088130
  49.6730460 125.8297950 133.1594380  49.1154930 130.2513620 124.0065870
  49.0329600 131.1944380 124.1480860  48.7637990 130.1088530 123.1278220
  60.4775670 132.3098450 134.6683730  59.7456790 132.8185260 135.0173830
  60.0800010 131.4928430 134.3672510  56.9153060 128.9852650 133.0736220
  56.9189120 128.5442600 132.2240760  57.8104180 129.3069980 133.1808040
  52.7655440 128.8679140 132.0330430  52.4255490 129.3454370 132.7897480
  52.0032760 128.4144260 131.6731530  56.9773210 129.9864730 126.0642980
  57.0986030 129.9451210 127.0128800  56.5921720 130.8488880 125.9089710
  60.9401580 127.7632130 134.0806670  60.9574320 128.2140780 134.9248520
  60.6917160 126.8637770 134.2940110  55.9894710 132.2965870 125.4626280
  55.4211610 131.8484120 124.8362190  56.6983710 132.6558650 124.9291430
  64.3672330 125.1764310 139.9193050  64.6918100 124.4453970 140.4451030
  64.4028840 124.8577950 139.0174040  51.0663890 136.1977890 139.3393010
  50.6818680 135.5571560 139.9375970  51.3776080 136.9014010 139.9087740
  57.2161030 133.0454430 134.8201630  57.5831160 132.5713000 135.5662970
  57.0266090 133.9196000 135.1609970  50.0801520 127.7898120 130.9495100
  49.7948440 127.4253790 131.7873720  50.0180380 127.0578580 130.3358240
  55.0060400 132.0863070 137.1385840  54.7017470 132.9655050 137.3636200
  55.9606860 132.1462860 137.1743280  53.5342190 136.2924060 127.7352690
  52.7604450 135.7521680 127.5751410  54.2636820 135.7730670 127.3970450
  64.2930170 135.2889420 133.5279080  65.0129290 135.7844710 133.1375190
  64.0911990 134.6107310 132.8832950  59.7540110 126.6827380 127.6708470
  58.9404720 126.1840550 127.5953780  59.5602060 127.5225630 127.2544820
  59.6748970 135.3598480 139.4148080  59.6086280 134.4394150 139.1605670
  59.0454110 135.4573920 140.1292720  62.4688500 131.0547030 125.9670630
  63.3568120 131.3664260 125.7921970  62.4393590 130.1819280 125.5751210
  53.5779590 135.9604440 131.3731500  54.0958260 135.1572700 131.3188390
  53.1263610 135.8983580 132.2148330  58.4649090 137.2270720 126.6458800
  58.8064790 137.9712950 126.1502120  57.6361800 137.5401840 127.0083630
  51.0624130 132.9265810 138.2857200  50.7039070 133.5919660 138.8730540
  50.7678690 132.0949360 138.6569820  54.2637250 133.3850050 141.1696750
  53.9637390 133.5307230 140.2724570  55.0348490 132.8255340 141.0770140
  59.6065700 138.1819050 139.1651880  59.6210240 137.2500010 138.9470790
  58.8990800 138.2678810 139.8041650  64.7402770 132.3658870 125.4350490
  64.6566490 132.7973090 124.5846930  65.4596960 132.8257220 125.8677310
  65.8176910 134.8226390 138.5120460  65.0925100 135.4155170 138.3149850
  66.3452370 134.8149930 137.7133830  65.7690020 139.2201130 128.1632620
  65.1266180 138.5656750 128.4376340  65.3820680 139.6256220 127.3873290
  61.3476500 136.5486560 132.0104310  61.7000320 135.9514690 131.3505680
  60.4638830 136.2230790 132.1812560  57.4339780 137.3084250 129.4174720
  58.1210910 137.8553460 129.7982310  56.6472200 137.8524980 129.4524330
  49.5732180 132.9257070 124.9091800  50.4427030 133.2081870 125.1927720
  49.0822500 133.7392940 124.7940610  56.7366990 134.3130280 129.0300080
  57.1929770 135.1235530 129.2560270  56.3855200 133.9953420 129.8618570
  59.0399600 139.8236620 136.2592380  59.6841820 140.0296000 136.9365800
  59.4029040 139.0625020 135.8063230  52.6378770 124.6567930 129.5022600
  52.5093400 124.6485830 130.4507520  51.8140790 124.9951020 129.1513610
  60.3131680 137.8268970 134.9769830  60.9553910 137.1262130 135.0902000
  60.8381030 138.6067410 134.7966720  64.1587400 138.1117590 124.7008970
  63.9324980 137.3948030 125.2933610  63.7683600 137.8630030 123.8630720
  62.0869300 138.6263870 138.1805890  62.4225540 139.2130560 138.8583810
  61.1669640 138.4956580 138.4103680  49.9403430 142.1384450 125.4753430
  50.3001070 142.7373790 124.8210700  49.7995770 142.6844340 126.2488460
  49.6372700 126.4159050 138.9629300  48.9231220 126.6155970 139.5681910
  50.0567740 125.6398620 139.3344100  63.7403650 136.0289530 126.3623130
  63.4525350 136.4902220 127.1501010  64.5355820 135.5687300 126.6307350
  49.9245290 140.4039310 139.9495830  50.0336410 139.4634050 139.8091220
  49.2725850 140.6694060 139.3009560  57.9157880 138.6755200 141.3493950
  57.5954750 137.9564440 141.8939640  57.2416240 139.3510270 141.4230010
  55.9572050 139.5215650 126.2927100  55.9482150 140.2545340 125.6771610
  55.0370410 139.2747230 126.3854060  51.5578690 134.7430540 127.0373860
  50.9506640 135.4829440 127.0469160  52.0328040 134.8329900 126.2112060
  61.1311480 128.9081360 136.7130750  61.4992300 128.0876570 137.0410320
  60.2709680 128.9683250 137.1286400  64.4973510 127.8638300 127.5218310
  63.8686670 127.9683970 126.8076540  64.0025430 128.0835080 128.3112190
  58.9431650 139.5843890 124.9552290  59.0443630 139.3807880 124.0254270
  58.0433390 139.3302170 125.1600070  56.4657540 130.1424250 128.9376190
  55.7573690 130.6110590 129.3789800  56.7502020 129.4846260 129.5721380
  58.0913470 131.5620950 136.9368720  58.5898720 132.0366770 137.6020570
  58.2336420 130.6384470 137.1438750  60.4972970 126.8674910 130.3771980
  60.3740750 126.8861040 129.4281490  61.4457530 126.9153850 130.4970380
  57.5849760 142.1030210 129.6499960  57.8391260 142.0651600 128.7279330
  56.6362240 141.9763540 129.6428210  54.6692560 128.4509330 126.3126900
  55.5183090 128.8879480 126.2467090  54.3023830 128.7629590 127.1398960
  65.2980330 127.7788910 137.7797110  64.7953930 128.5194310 138.1190920
  66.1136990 128.1672910 137.4633900  63.5902340 133.0222090 131.2258470
  62.6492480 133.0372320 131.4006160  63.9046410 132.2358050 131.6718770
  53.5683980 134.7041690 124.7862430  54.3347250 134.5923050 125.3487860
  53.6458670 134.0079660 124.1339200  52.2630740 132.1366760 125.4695320
  52.3434330 131.1894270 125.5812720  53.1550490 132.4673640 125.5755980
  65.5927920 140.1930940 132.9012730  65.7175340 141.0162110 133.3736540
  66.4593480 139.9821670 132.5536880  53.0645450 142.2862150 132.5729860
  53.8007930 141.7377610 132.8438430  53.4486370 143.1518160 132.4335850
  49.9490930 138.3535720 128.4471370  49.0230710 138.5956860 128.4376780
  50.4147360 139.1809980 128.3256120  52.0703730 141.4708220 141.7615440
  52.8716460 141.7920270 142.1750840  51.5555550 141.1103800 142.4835350
  56.1747760 141.4592460 124.3955430  56.9676370 141.7481290 123.9437220
  55.6552110 141.0284630 123.7167910  60.9068360 137.5788090 141.7090850
  60.3006520 137.6019690 140.9686600  60.6022470 136.8471130 142.2458100
  62.3368730 141.3068380 140.3200260  63.2890480 141.2226400 140.2700500
  62.1896950 141.9710090 140.9934050  65.2277930 140.6862590 125.8192170
  64.9419440 140.2727730 125.0046350  65.0297480 141.6150300 125.6992690
  49.7901540 133.9581680 140.7051490  50.2940560 133.3788960 141.2767720
  49.0508960 134.2421910 141.2427860  56.6925160 136.6795870 124.2597780
  56.5875800 136.0648220 124.9859160  56.5249380 136.1561760 123.4760790
  56.8439480 135.3652670 140.2387010  56.0785150 135.9337670 140.1541680
  57.0255440 135.0728880 139.3455240  59.9327890 135.7415900 124.8639770
  59.3837990 136.1885200 125.5082510  60.5547150 135.2365150 125.3877440
  63.9862830 137.0958000 140.7962030  64.7272300 137.4333760 140.2929490
  63.2235510 137.2650060 140.2431800  51.8224620 132.1011270 141.6001560
  51.8629960 131.8025140 142.5086790  52.6770120 132.5018880 141.4409080
  55.6003010 134.7006820 126.7605070  56.0219430 134.5346690 127.6036460
  55.7253850 133.8907050 126.2660210  53.7630430 130.6803370 139.5676050
  53.2326890 130.1894320 138.9399390  54.4318500 131.1087570 139.0333980
  58.1130650 133.7244430 124.0082170  58.6336310 133.0093450 123.6423320
  58.7599050 134.3630300 124.3082680  62.6608490 135.1472830 139.3317240
  63.0749510 135.3017910 140.1807660  61.7259490 135.2728050 139.4943020
  63.1330660 132.4868990 141.3356390  63.7151430 131.7321310 141.2476870
  63.3092430 133.0176430 140.5587870  54.2502730 127.6465740 139.6473340
  54.1559600 127.0286490 138.9224210  53.6700120 128.3732030 139.4203250
  57.0164170 126.2038980 136.6800730  56.5681470 126.2263240 135.8346280
  56.3829370 125.8058000 137.2771030  57.4223720 135.0993310 137.3013170
  57.8411830 135.9426040 137.1289410  56.5032350 135.2365350 137.0719950
  59.7587620 132.8309490 138.6851010  59.8783830 132.2350630 139.4245850
  60.6181620 132.8679180 138.2652310  62.0975520 133.3846680 137.2613520
  61.5710740 133.9089300 136.6578660  62.4406860 134.0174070 137.8923250
  54.4961910 130.7740050 123.7063230  54.2950970 129.9107410 124.0676570
  54.3253960 130.6873410 122.7684830  55.2731140 141.4046320 138.4170900
  54.7352230 142.1292380 138.0979600  55.5265100 140.9276660 137.6268240
  56.5256390 129.3730840 139.9426830  57.1156080 129.0646690 140.6304650
  55.7076630 128.9010590 140.0986730  61.3449820 128.9896650 140.1759850
  60.6565340 128.3278190 140.1109840  62.0655840 128.5434920 140.6208310
  61.9750220 125.5848280 126.2350110  62.2552510 124.7416180 126.5909530
  61.2015950 125.8171390 126.7488860  53.2944710 127.8740670 123.6941110
  53.5970610 127.8808100 122.7860260  54.0339300 127.5238530 124.1908770
  58.1293350 142.6397530 138.6757550  58.0552050 143.5432670 138.9829920
  57.2272190 142.3209430 138.6479620  56.5129640 126.8175290 124.6797310
  56.1651640 126.1399280 124.0999760  56.7142410 126.3564800 125.4940700
  58.6778680 141.8056040 126.2983910  59.5729470 142.1441010 126.3202670
  58.7096310 141.0835450 125.6708190  52.3174840 137.1783090 124.5270910
  52.7549710 137.7212760 125.1828490  52.8022570 136.3530040 124.5367250
  49.5320640 139.9672120 131.9791170  49.8623650 139.0993180 131.7469810
  49.9611640 140.1730640 132.8096130  54.1282560 138.2981130 129.6393140
  53.8278100 138.1746100 130.5397050  54.0220050 137.4389720 129.2308870
  50.0210850 140.8342710 134.7172800  49.5841840 141.0143510 135.5496950
  50.5888530 141.5917330 134.5754520  65.6573030 140.3359710 139.0050110
  65.0575020 140.3952270 138.2614030  65.7866930 139.3964690 139.1346960
  66.8974480 138.0777530 124.3419820  66.0667440 138.1454180 124.8127050
  67.0746310 138.9681650 124.0386680  66.3530940 134.8225010 126.8454020
  67.1149850 135.3921660 126.9513710  66.3685310 134.2552210 127.6162330
  49.8535280 133.3462940 131.0761680  49.1984120 133.0774580 130.4321380
  50.6913230 133.2367420 130.6263660  67.3590910 135.6775110 131.6895950
  67.7299740 134.8942430 131.2831920  67.9992840 136.3664210 131.5113250
  64.3424670 137.0611690 137.1026270  63.5284510 137.4908850 137.3652060
  64.7498870 137.6730100 136.4895320  66.4050110 135.1159380 124.0026540
  66.6798950 136.0238260 123.8745760  66.2160850 135.0521910 124.9388530
  62.8025720 128.1404230 125.2980170  63.2210600 127.9535210 124.4576830
  62.4961780 127.2883280 125.6083100  66.3015450 133.0528370 128.9955970
  65.9259050 132.2856300 128.5637260  65.5718570 133.4351070 129.4830900
  50.8911210 133.7315510 135.6165020  51.2584250 133.6442910 136.4961040
  50.3222030 132.9682060 135.5171880  65.6915070 132.1999890 138.6295490
  65.4601160 131.9712640 137.7293440  65.9519620 133.1199440 138.5840380
  50.4427210 130.6424600 139.5223440  49.5483260 130.6091360 139.8617150
  50.9824760 130.8411390 140.2874690  64.1303140 127.4256320 141.4075190
  65.0073320 127.4339720 141.7909190  64.1423980 126.6887160 140.7967540
  49.0673360 130.5561870 127.0187010  48.1637440 130.8192070 126.8438670
  49.5513980 130.8273040 126.2386970  65.5766410 131.2785860 132.2963210
  66.1003890 130.7848510 131.6653380  66.1625830 131.4136220 133.0410780
  65.7556130 131.3625730 135.8182760  64.8058840 131.3289270 135.9327750
  65.9369140 132.2725840 135.5832530  51.6100570 129.6127410 124.9281390
  52.3192270 129.1910630 124.4428670  50.8940510 129.6802640 124.2964740
  51.2574730 125.6666740 123.9684040  51.9802860 126.2075680 124.2865260
  51.5299250 125.3930160 123.0925580  65.0666380 130.5359210 128.2355620
  65.5625500 130.3030080 129.0204500  64.8682450 129.6971050 127.8193260
  50.9466920 124.9172930 133.8706660  51.5943110 124.3670310 133.4301820
  51.3668760 125.1716080 134.6922470  66.4953540 129.1720160 130.7693300
  66.3852820 129.0176200 131.7075570  67.2561130 128.6441100 130.5268710
  64.8419260 125.1114290 137.2276300  65.4791480 125.7248430 137.5935490
  64.9894150 125.1474950 136.2825530  67.3843810 127.0028080 124.0099440
  68.3093120 126.8709260 123.8017730  67.3619600 127.0820900 124.9635890
  67.4582300 127.7738740 126.6356150  66.6633800 127.7083860 127.1649060
  67.6625580 128.7089380 126.6241500  64.4000720 141.8130290 130.6294540
  64.9959790 141.4914860 129.9528960  64.6578870 141.3402110 131.4207810
  50.6998920 125.0728600 136.6131980  50.3513740 125.5292420 137.3790160
  50.3686620 124.1785730 136.6954410  52.3063290 138.2448200 140.7785170
  52.2632920 137.8741110 141.6599630  52.4374300 139.1825770 140.9186990
  56.0069320 139.8007790 136.3794890  55.7660680 140.0682350 135.4925410
  56.9471960 139.9713520 136.4345750  58.2123740 126.2640480 140.1351400
  58.1512630 126.8562310 140.8846810  59.1524120 126.1566440 139.9901660
  60.8498300 125.9210540 139.7743690  61.4638710 126.2389830 139.1124770
  61.3947860 125.4359130 140.3939550  67.2673480 141.8202170 137.1805530
  66.7731760 142.2171040 136.4632660  66.6586770 141.1951380 137.5742810
  51.3719560 124.6004800 139.8882750  51.9202550 124.4192850 139.1248860
  51.4374870 123.8098910 140.4239060  52.1451320 141.1910450 137.8982950
  51.5511640 141.0595150 138.6372990  52.1375160 140.3548590 137.4325050
  61.5906340 124.4842680 136.1012980  60.7166180 124.8177790 135.8985910
  61.4817090 124.0115860 136.9264850  62.4978320 126.6913550 137.4854700
  62.1691680 125.8765310 137.1056430  63.4460620 126.6483360 137.3620390
  64.9512930 142.4625590 134.4592270  64.4915900 143.2141400 134.0850290
  64.3225390 141.7432060 134.4007070  51.7763550 138.5568830 136.8490990
  51.0497610 137.9374120 136.7816940  51.8372700 138.9509440 135.9789070
  55.3808650 140.7713830 133.6340400  55.8973670 140.1601190 133.1088660
  56.0306030 141.2742610 134.1251410  58.1204150 141.6622320 134.4609380
  58.4081960 141.4076620 133.5842390  58.6327370 141.1099680 135.0514950
  59.3381160 125.4012520 135.0405890  58.5552950 125.8758020 135.3202650
  59.0444090 124.4967350 134.9319070  63.8902230 126.1035620 133.0854980
  64.3310320 126.0480720 132.2376580  63.6209820 127.0193630 133.1565160
  65.7540800 125.7350860 131.0963800  65.6929200 124.7912080 130.9494820
  66.5332830 125.8430950 131.6417260  50.0593550 141.8743220 130.0587750
  49.8915590 141.2413900 130.7569640  49.1928060 142.0802620 129.7081940
  50.6821570 125.7060000 127.5619610  51.4400930 125.8188880 126.9883640
  50.2198740 126.5429200 127.5163040  57.2235380 127.8199270 130.5521920
  56.4109890 127.4456160 130.2117800  57.7277020 127.0644350 130.8543110
  61.7260360 124.4841720 131.7904990  62.3289730 125.0561930 132.2653510
  60.9853350 125.0481160 131.5678890  64.8694960 124.8863280 127.0645270
  65.0645590 125.7846730 127.3312700  64.0824830 124.6550360 127.5578220
  51.6656250 140.5676450 127.5037890  51.1403870 140.9484480 126.7999850
  51.5900830 141.1927220 128.2247600  53.0546720 126.2324050 126.1021580
  53.5839480 125.4453850 125.9729530  53.6875040 126.9115240 126.3357110
  55.2484560 125.9699190 129.1566970  54.6187300 125.2686500 129.3237100
  54.7089700 126.7303320 128.9400130  58.1876510 142.5838420 141.8277580
  59.1143820 142.3482690 141.8713540  58.1726940 143.4110420 141.3463610
  66.4221570 142.1263990 128.8251830  66.5973760 141.4401730 128.1812750
  65.7243140 142.6511040 128.4328500  55.3740120 125.2483170 141.5919460
  55.0924390 125.7516770 140.8280280  55.7559820 124.4504920 141.2261590
  54.2649220 142.5158830 126.3787140  54.9968040 142.2318110 125.8311030
  54.5242890 142.2772110 127.2686520  53.4264010 138.6323560 126.3833470
  52.7972890 139.1008660 126.9319300  53.5411840 137.7872780 126.8179660
  61.9755580 124.6636750 142.1699930  61.8621030 124.9831360 143.0651450
  62.7925320 125.0649260 141.8737210  64.7554070 141.8108280 141.6518620
  65.5479390 141.3157510 141.4444580  65.0487220 142.4898420 142.2594230
  60.8813730 132.6829220 112.5334670  60.8007780 131.7683830 112.2626380
  60.4678150 133.1796290 111.8274380  59.0131770 134.4608240 114.4143940
  58.2373870 133.9808680 114.7042510  59.6644700 133.7813890 114.2400100
  53.0297600 134.7728050 115.2919700  52.1982480 134.5176760 115.6916210
  53.6378580 134.8438820 116.0277620  63.0339200 138.8668430 113.1943070
  62.5720730 138.0955670 113.5230240  63.8464750 138.8934500 113.6995520
  53.0098860 138.8068140 115.4877720  53.3126900 137.9165880 115.3087940
  53.7542450 139.3638360 115.2599970  51.4389550 129.7329940 109.0762090
  50.5506250 130.0745910 108.9741970  51.7230740 129.5330260 108.1842920
  49.4022560 132.3335590 114.9601790  49.9738670 131.5657790 114.9605430
  49.4024100 132.6324350 114.0508400  59.2602510 141.1526440 112.8147060
  58.6413950 141.6083940 112.2441500  60.1154290 141.3077900 112.4136760
  58.4540760 137.1365430 114.4214100  58.3849040 136.1955370 114.2603230
  59.2160620 137.2266840 114.9936670  50.6447430 127.7419950 116.7470720
  50.4650270 126.8445700 117.0273480  50.2427510 128.2891820 117.4217670
  59.4845930 129.9435810 114.6483030  59.8610750 129.0707690 114.5356700
  59.3865440 130.2794510 113.7573470  53.6150940 128.3161440 110.1100470
  53.7217690 129.2165170 110.4169230  52.7043300 128.2679410 109.8195120
  63.2670050 127.4386250 111.5811370  64.0879670 126.9482820 111.6236850
  63.3004130 128.0283910 112.3343210  51.2634100 130.2380450 115.3553060
  51.9444210 130.5018820 115.9740460  50.9482150 129.3981320 115.6891070
  55.4558670 131.2847810 114.4425650  55.9636890 131.7828780 115.0830670
  55.9871910 130.5083010 114.2665010  67.5569600 129.4553000 118.1455000
  66.8521770 129.8434710 117.6270110  67.8227520 130.1503290 118.7475930
  53.7394770 125.9246370 118.7089070  53.7413210 126.4418760 117.9034970
  52.9099080 125.4476550 118.6859000  60.1265860 136.0365680 110.2078970
  59.5083130 136.5015130 109.6441690  60.6389110 136.7293160 110.6248480
  54.9897620 135.5641550 116.8862570  54.6567000 136.1910470 117.5283640
  55.1664300 136.0903430 116.1064240  63.5031530 129.3786630 114.3538910
  62.7987100 129.6671520 114.9342020  63.8643690 130.1886740 113.9938470
  53.4210100 127.6356330 116.7159520  53.7626910 128.4798380 116.4213390
  52.4825910 127.7840070 116.8324860  54.2016720 137.5322350 118.7011750
  54.8190720 138.2073430 118.4196200  53.3409840 137.9410330 118.6099250
  49.4949060 136.7222210 107.5818600  49.1177040 137.2109310 106.8503500
  49.7522130 137.3947490 108.2125130  65.1194310 138.9961760 116.6166390
  64.4357830 139.6660870 116.6083060  65.6588600 139.1942410 115.8511250
  66.5718450 128.8241420 114.7448120  65.6243360 128.8580400 114.8763550
  66.8968440 129.6380370 115.1297480  62.6553050 140.8405890 115.3311570
  62.6680210 140.4368180 114.4633830  62.1028270 141.6153180 115.2273000
  63.9498470 137.5622110 110.4201740  63.8394800 136.6196440 110.5451160
  63.9466720 137.9237750 111.3064500  62.0538490 135.7435730 116.6594180
  62.4707280 135.5295840 115.8247640  62.7778310 136.0008520 117.2302800
  59.4918750 133.1887430 109.7764230  58.5648030 133.1224810 110.0052700
  59.6443570 134.1267560 109.6619470  66.0000590 134.1422950 116.7510420
  65.1719220 134.2116040 116.2760550  66.5951070 134.7277260 116.2826250
  63.5216040 134.7507730 110.2799480  62.9028460 134.4127280 109.6325780
  63.5040490 134.1067490 110.9878670  62.9642600 130.9292270 117.6965290
  62.5513780 131.7545980 117.9505280  62.2318550 130.3437310 117.5041650
  55.0975390 133.7152170 112.5583960  54.6932390 133.0029420 112.0629860
  55.1838510 133.3705410 113.4472000  55.5657090 137.4019730 114.7223170
  55.2685380 136.7965200 114.0430950  56.5156910 137.4397040 114.6112530
  53.8104010 130.4895380 116.3383000  54.3618600 130.5990720 115.5636250
  54.3247520 130.8632980 117.0538230  63.6542700 140.9751600 118.3846270
  63.1773260 141.7823790 118.1918880  62.9704490 140.3229930 118.5372480
  54.6575520 137.1401420 121.3730970  53.7604050 137.3641390 121.6204370
  54.6828390 137.2636360 120.4242370  53.4846740 134.0114740 119.9488340
  53.3454510 134.8837540 120.3175740  52.6028100 133.6687550 119.8036280
  59.8076120 138.9290610 111.2553470  60.2472030 139.6714940 110.8408860
  59.7463010 139.1717180 112.1792430  55.2827090 139.9536440 122.1573490
  55.2542520 140.3579390 121.2901920  55.1192060 139.0246800 121.9945090
  65.2797880 125.2437350 105.6013270  64.9670540 125.3364180 106.5012340
  66.0410350 125.8218380 105.5510700  51.7980020 132.6097150 110.0590610
  51.6777620 133.3359240 109.4471880  51.4880910 131.8400060 109.5818520
  67.2341910 140.7363540 123.4537660  67.7101630 141.2146430 124.1326740
  67.8549070 140.6681030 122.7283160  49.4365390 135.7812290 115.8659250
  49.5145810 135.9161060 114.9214970  50.0507070 135.0728180 116.0587370
  50.6813020 137.4812480 112.2765430  50.2741100 137.6227070 111.4219030
  51.5726030 137.1972640 112.0736640  66.6375160 137.9276390 120.6137670
  66.7638220 137.6888270 119.6954850  66.6796540 137.0960930 121.0859750
  60.4991900 141.6304390 119.1832480  61.0136570 141.5412400 119.9854910
  59.6560980 141.9764090 119.4760390  62.4746300 141.9159730 108.6116480
  62.3147440 141.6262670 109.5098310  62.3093010 141.1399860 108.0761710
  54.9534680 141.6958260 110.3888100  54.7777160 140.7793800 110.1755900
  54.0990420 142.0545550 110.6285900  62.1772430 139.4247290 107.1714480
  61.4837590 139.4224580 106.5116760  62.9195290 139.0006610 106.7408650
  61.7422360 141.0510000 111.2462970  62.1979310 140.2699380 111.5601590
  62.0814880 141.7616820 111.7904150  66.4899170 129.9808850 121.5787410
  65.8743440 130.4888520 121.0502870  66.1695590 129.0807180 121.5213350
  49.4924910 136.8226460 118.4053710  49.6555950 136.3531820 117.5873080
  49.9577360 136.3150020 119.0702550  54.2643680 125.9532220 113.4414280
  53.8211830 126.7341760 113.1098800  54.8228670 126.2762110 114.1485220
  58.5513490 128.8200740 119.0449600  58.0892860 129.0283760 119.8569540
  58.1491600 128.0060090 118.7420270  63.5518000 130.0409690 120.1746260
  62.7011590 129.7415440 120.4955330  63.3919790 130.2851700 119.2630080
  60.6467710 131.5411440 122.2745050  60.9721120 130.7075190 121.9347280
  61.4348040 132.0639960 122.4223380  56.3019580 126.4979550 115.3003880
  56.5991910 127.4042380 115.2195900  56.8505140 126.0098330 114.6863450
  54.0557900 131.0765790 111.1695530  53.8298820 130.8602960 112.0742150
  53.2750430 131.5094250 110.8241500  56.4957110 131.9751370 121.8355800
  56.4000710 131.0346100 121.6856200  57.3389090 132.1966440 121.4403870
  59.8920530 129.7192700 111.7989460  60.2850100 130.0364900 110.9858150
  60.2537380 128.8404580 111.9133980  51.6267650 128.3865040 119.9889580
  51.2331040 129.2340250 120.1962360  50.9386050 127.7491410 120.1798220
  58.2012700 128.4700010 123.0586320  57.5111020 128.2772210 123.6932410
  58.9445000 128.7534650 123.5910620  48.9284700 126.3093500 114.0219660
  48.6397750 126.8796360 114.7344640  49.6730460 125.8297950 114.3850890
  49.1154930 130.2513620 105.2322380  49.0329600 131.1944380 105.3737370
  48.7637990 130.1088530 104.3534730  60.4775670 132.3098450 115.8940240
  59.7456790 132.8185260 116.2430340  60.0800010 131.4928430 115.5929020
  56.9153060 128.9852650 114.2992730  56.9189120 128.5442600 113.4497270
  57.8104180 129.3069980 114.4064550  52.7655440 128.8679140 113.2586940
  52.4255490 129.3454370 114.0153990  52.0032760 128.4144260 112.8988040
  56.9773210 129.9864730 107.2899490  57.0986030 129.9451210 108.2385310
  56.5921720 130.8488880 107.1346220  60.9401580 127.7632130 115.3063180
  60.9574320 128.2140780 116.1505030  60.6917160 126.8637770 115.5196620
  55.9894710 132.2965870 106.6882790  55.4211610 131.8484120 106.0618700
  56.6983710 132.6558650 106.1547940  64.3672330 125.1764310 121.1449560
  64.6918100 124.4453970 121.6707540  64.4028840 124.8577950 120.2430550
  51.0663890 136.1977890 120.5649520  50.6818680 135.5571560 121.1632480
  51.3776080 136.9014010 121.1344250  57.2161030 133.0454430 116.0458140
  57.5831160 132.5713000 116.7919480  57.0266090 133.9196000 116.3866480
  50.0801520 127.7898120 112.1751610  49.7948440 127.4253790 113.0130230
  50.0180380 127.0578580 111.5614750  55.0060400 132.0863070 118.3642350
  54.7017470 132.9655050 118.5892710  55.9606860 132.1462860 118.3999790
  53.5342190 136.2924060 108.9609200  52.7604450 135.7521680 108.8007920
  54.2636820 135.7730670 108.6226960  64.2930170 135.2889420 114.7535590
  65.0129290 135.7844710 114.3631700  64.0911990 134.6107310 114.1089460
  59.6748970 135.3598480 120.6404590  59.6086280 134.4394150 120.3862180
  59.0454110 135.4573920 121.3549230  53.5779590 135.9604440 112.5988010
  54.0958260 135.1572700 112.5444900  53.1263610 135.8983580 113.4404840
  58.4649090 137.2270720 107.8715310  58.8064790 137.9712950 107.3758630
  57.6361800 137.5401840 108.2340140  51.0624130 132.9265810 119.5113710
  50.7039070 133.5919660 120.0987050  50.7678690 132.0949360 119.8826330
  54.2637250 133.3850050 122.3953260  53.9637390 133.5307230 121.4981080
  55.0348490 132.8255340 122.3026650  59.6065700 138.1819050 120.3908390
  59.6210240 137.2500010 120.1727300  58.8990800 138.2678810 121.0298160
  65.8176910 134.8226390 119.7376970  65.0925100 135.4155170 119.5406360
  66.3452370 134.8149930 118.9390340  65.7690020 139.2201130 109.3889130
  65.1266180 138.5656750 109.6632850  65.3820680 139.6256220 108.6129800
  61.3476500 136.5486560 113.2360820  61.7000320 135.9514690 112.5762190
  60.4638830 136.2230790 113.4069070  57.4339780 137.3084250 110.6431230
  58.1210910 137.8553460 111.0238820  56.6472200 137.8524980 110.6780840
  49.5732180 132.9257070 106.1348310  50.4427030 133.2081870 106.4184230
  49.0822500 133.7392940 106.0197120  56.7366990 134.3130280 110.2556590
  57.1929770 135.1235530 110.4816780  56.3855200 133.9953420 111.0875080
  59.0399600 139.8236620 117.4848890  59.6841820 140.0296000 118.1622310
  59.4029040 139.0625020 117.0319740  52.6378770 124.6567930 110.7279110
  52.5093400 124.6485830 111.6764030  51.8140790 124.9951020 110.3770120
  60.3131680 137.8268970 116.2026340  60.9553910 137.1262130 116.3158510
  60.8381030 138.6067410 116.0223230  64.1587400 138.1117590 105.9265480
  63.9324980 137.3948030 106.5190120  63.7683600 137.8630030 105.0887230
  62.0869300 138.6263870 119.4062400  62.4225540 139.2130560 120.0840320
  61.1669640 138.4956580 119.6360190  49.9403430 142.1384450 106.7009940
  50.3001070 142.7373790 106.0467210  49.7995770 142.6844340 107.4744970
  49.6372700 126.4159050 120.1885810  48.9231220 126.6155970 120.7938420
  50.0567740 125.6398620 120.5600610  63.7403650 136.0289530 107.5879640
  63.4525350 136.4902220 108.3757520  64.5355820 135.5687300 107.8563860
  49.9245290 140.4039310 121.1752340  50.0336410 139.4634050 121.0347730
  49.2725850 140.6694060 120.5266070  57.9157880 138.6755200 122.5750460
  57.5954750 137.9564440 123.1196150  57.2416240 139.3510270 122.6486520
  55.9572050 139.5215650 107.5183610  55.9482150 140.2545340 106.9028120
  55.0370410 139.2747230 107.6110570  51.5578690 134.7430540 108.2630370
  50.9506640 135.4829440 108.2725670  52.0328040 134.8329900 107.4368570
  61.1311480 128.9081360 117.9387260  61.4992300 128.0876570 118.2666830
  60.2709680 128.9683250 118.3542910  58.9431650 139.5843890 106.1808800
  59.0443630 139.3807880 105.2510780  58.0433390 139.3302170 106.3856580
  56.4657540 130.1424250 110.1632700  55.7573690 130.6110590 110.6046310
  56.7502020 129.4846260 110.7977890  58.0913470 131.5620950 118.1625230
  58.5898720 132.0366770 118.8277080  58.2336420 130.6384470 118.3695260
  57.5849760 142.1030210 110.8756470  57.8391260 142.0651600 109.9535840
  56.6362240 141.9763540 110.8684720  54.6692560 128.4509330 107.5383410
  55.5183090 128.8879480 107.4723600  54.3023830 128.7629590 108.3655470
  65.2980330 127.7788910 119.0053620  64.7953930 128.5194310 119.3447430
  66.1136990 128.1672910 118.6890410  63.5902340 133.0222090 112.4514980
  62.6492480 133.0372320 112.6262670  63.9046410 132.2358050 112.8975280
  53.5683980 134.7041690 106.0118940  54.3347250 134.5923050 106.5744370
  53.6458670 134.0079660 105.3595710  52.2630740 132.1366760 106.6951830
  52.3434330 131.1894270 106.8069230  53.1550490 132.4673640 106.8012490
  65.5927920 140.1930940 114.1269240  65.7175340 141.0162110 114.5993050
  66.4593480 139.9821670 113.7793390  53.0645450 142.2862150 113.7986370
  53.8007930 141.7377610 114.0694940  53.4486370 143.1518160 113.6592360
  49.9490930 138.3535720 109.6727880  49.0230710 138.5956860 109.6633290
  50.4147360 139.1809980 109.5512630  52.0703730 141.4708220 122.9871950
  52.8716460 141.7920270 123.4007350  51.5555550 141.1103800 123.7091860
  56.1747760 141.4592460 105.6211940  56.9676370 141.7481290 105.1693730
  55.6552110 141.0284630 104.9424420  60.9068360 137.5788090 122.9347360
  60.3006520 137.6019690 122.1943110  60.6022470 136.8471130 123.4714610
  62.3368730 141.3068380 121.5456770  63.2890480 141.2226400 121.4957010
  62.1896950 141.9710090 122.2190560  65.2277930 140.6862590 107.0448680
  64.9419440 140.2727730 106.2302860  65.0297480 141.6150300 106.9249200
  49.7901540 133.9581680 121.9308000  50.2940560 133.3788960 122.5024230
  49.0508960 134.2421910 122.4684370  56.6925160 136.6795870 105.4854290
  56.5875800 136.0648220 106.2115670  56.5249380 136.1561760 104.7017300
  56.8439480 135.3652670 121.4643520  56.0785150 135.9337670 121.3798190
  57.0255440 135.0728880 120.5711750  63.9862830 137.0958000 122.0218540
  64.7272300 137.4333760 121.5186000  63.2235510 137.2650060 121.4688310
  51.8224620 132.1011270 122.8258070  51.8629960 131.8025140 123.7343300
  52.6770120 132.5018880 122.6665590  55.6003010 134.7006820 107.9861580
  56.0219430 134.5346690 108.8292970  55.7253850 133.8907050 107.4916720
  53.7630430 130.6803370 120.7932560  53.2326890 130.1894320 120.1655900
  54.4318500 131.1087570 120.2590490  58.1130650 133.7244430 105.2338680
  58.6336310 133.0093450 104.8679830  58.7599050 134.3630300 105.5339190
  62.6608490 135.1472830 120.5573750  63.0749510 135.3017910 121.4064170
  61.7259490 135.2728050 120.7199530  63.1330660 132.4868990 122.5612900
  63.7151430 131.7321310 122.4733380  63.3092430 133.0176430 121.7844380
  54.2502730 127.6465740 120.8729850  54.1559600 127.0286490 120.1480720
  53.6700120 128.3732030 120.6459760  57.0164170 126.2038980 117.9057240
  56.5681470 126.2263240 117.0602790  56.3829370 125.8058000 118.5027540
  57.4223720 135.0993310 118.5269680  57.8411830 135.9426040 118.3545920
  56.5032350 135.2365350 118.2976460  59.7587620 132.8309490 119.9107520
  59.8783830 132.2350630 120.6502360  60.6181620 132.8679180 119.4908820
  62.0975520 133.3846680 118.4870030  61.5710740 133.9089300 117.8835170
  62.4406860 134.0174070 119.1179760  54.4961910 130.7740050 104.9319740
  54.2950970 129.9107410 105.2933080  54.3253960 130.6873410 103.9941340
  55.2731140 141.4046320 119.6427410  54.7352230 142.1292380 119.3236110
  55.5265100 140.9276660 118.8524750  56.5256390 129.3730840 121.1683340
  57.1156080 129.0646690 121.8561160  55.7076630 128.9010590 121.3243240
  61.3449820 128.9896650 121.4016360  60.6565340 128.3278190 121.3366350
  62.0655840 128.5434920 121.8464820  53.2944710 127.8740670 104.9197620
  53.5970610 127.8808100 104.0116770  54.0339300 127.5238530 105.4165280
  58.1293350 142.6397530 119.9014060  58.0552050 143.5432670 120.2086430
  57.2272190 142.3209430 119.8736130  56.5129640 126.8175290 105.9053820
  56.1651640 126.1399280 105.3256270  56.7142410 126.3564800 106.7197210
  58.6778680 141.8056040 107.5240420  59.5729470 142.1441010 107.5459180
  58.7096310 141.0835450 106.8964700  52.3174840 137.1783090 105.7527420
  52.7549710 137.7212760 106.4085000  52.8022570 136.3530040 105.7623760
  49.5320640 139.9672120 113.2047680  49.8623650 139.0993180 112.9726320
  49.9611640 140.1730640 114.0352640  54.1282560 138.2981130 110.8649650
  53.8278100 138.1746100 111.7653560  54.0220050 137.4389720 110.4565380
  50.0210850 140.8342710 115.9429310  49.5841840 141.0143510 116.7753460
  50.5888530 141.5917330 115.8011030  65.6573030 140.3359710 120.2306620
  65.0575020 140.3952270 119.4870540  65.7866930 139.3964690 120.3603470
  66.8974480 138.0777530 105.5676330  66.0667440 138.1454180 106.0383560
  67.0746310 138.9681650 105.2643190  66.3530940 134.8225010 108.0710530
  67.1149850 135.3921660 108.1770220  66.3685310 134.2552210 108.8418840
  49.8535280 133.3462940 112.3018190  49.1984120 133.0774580 111.6577890
  50.6913230 133.2367420 111.8520170  67.3590910 135.6775110 112.9152460
  67.7299740 134.8942430 112.5088430  67.9992840 136.3664210 112.7369760
  64.3424670 137.0611690 118.3282780  63.5284510 137.4908850 118.5908570
  64.7498870 137.6730100 117.7151830  66.4050110 135.1159380 105.2283050
  66.6798950 136.0238260 105.1002270  66.2160850 135.0521910 106.1645040
  66.3015450 133.0528370 110.2212480  65.9259050 132.2856300 109.7893770
  65.5718570 133.4351070 110.7087410  50.8911210 133.7315510 116.8421530
  51.2584250 133.6442910 117.7217550  50.3222030 132.9682060 116.7428390
  65.6915070 132.1999890 119.8552000  65.4601160 131.9712640 118.9549950
  65.9519620 133.1199440 119.8096890  50.4427210 130.6424600 120.7479950
  49.5483260 130.6091360 121.0873660  50.9824760 130.8411390 121.5131200
  64.1303140 127.4256320 122.6331700  65.0073320 127.4339720 123.0165700
  64.1423980 126.6887160 122.0224050  49.0673360 130.5561870 108.2443520
  48.1637440 130.8192070 108.0695180  49.5513980 130.8273040 107.4643480
  65.5766410 131.2785860 113.5219720  66.1003890 130.7848510 112.8909890
  66.1625830 131.4136220 114.2667290  65.7556130 131.3625730 117.0439270
  64.8058840 131.3289270 117.1584260  65.9369140 132.2725840 116.8089040
  51.6100570 129.6127410 106.1537900  52.3192270 129.1910630 105.6685180
  50.8940510 129.6802640 105.5221250  51.2574730 125.6666740 105.1940550
  51.9802860 126.2075680 105.5121770  51.5299250 125.3930160 104.3182090
  50.9466920 124.9172930 115.0963170  51.5943110 124.3670310 114.6558330
  51.3668760 125.1716080 115.9178980  66.4953540 129.1720160 111.9949810
  66.3852820 129.0176200 112.9332080  67.2561130 128.6441100 111.7525220
  64.8419260 125.1114290 118.4532810  65.4791480 125.7248430 118.8192000
  64.9894150 125.1474950 117.5082040  67.3843810 127.0028080 105.2355950
  68.3093120 126.8709260 105.0274240  67.3619600 127.0820900 106.1892400
  67.4582300 127.7738740 107.8612660  66.6633800 127.7083860 108.3905570
  67.6625580 128.7089380 107.8498010  64.4000720 141.8130290 111.8551050
  64.9959790 141.4914860 111.1785470  64.6578870 141.3402110 112.6464320
  50.6998920 125.0728600 117.8388490  50.3513740 125.5292420 118.6046670
  50.3686620 124.1785730 117.9210920  52.3063290 138.2448200 122.0041680
  52.2632920 137.8741110 122.8856140  52.4374300 139.1825770 122.1443500
  56.0069320 139.8007790 117.6051400  55.7660680 140.0682350 116.7181920
  56.9471960 139.9713520 117.6602260  58.2123740 126.2640480 121.3607910
  58.1512630 126.8562310 122.1103320  59.1524120 126.1566440 121.2158170
  60.8498300 125.9210540 121.0000200  61.4638710 126.2389830 120.3381280
  61.3947860 125.4359130 121.6196060  67.2673480 141.8202170 118.4062040
  66.7731760 142.2171040 117.6889170  66.6586770 141.1951380 118.7999320
  51.3719560 124.6004800 121.1139260  51.9202550 124.4192850 120.3505370
  51.4374870 123.8098910 121.6495570  52.1451320 141.1910450 119.1239460
  51.5511640 141.0595150 119.8629500  52.1375160 140.3548590 118.6581560
  61.5906340 124.4842680 117.3269490  60.7166180 124.8177790 117.1242420
  61.4817090 124.0115860 118.1521360  62.4978320 126.6913550 118.7111210
  62.1691680 125.8765310 118.3312940  63.4460620 126.6483360 118.5876900
  64.9512930 142.4625590 115.6848780  64.4915900 143.2141400 115.3106800
  64.3225390 141.7432060 115.6263580  51.7763550 138.5568830 118.0747500
  51.0497610 137.9374120 118.0073450  51.8372700 138.9509440 117.2045580
  55.3808650 140.7713830 114.8596910  55.8973670 140.1601190 114.3345170
  56.0306030 141.2742610 115.3507920  58.1204150 141.6622320 115.6865890
  58.4081960 141.4076620 114.8098900  58.6327370 141.1099680 116.2771460
  59.3381160 125.4012520 116.2662400  58.5552950 125.8758020 116.5459160
  59.0444090 124.4967350 116.1575580  65.7540800 125.7350860 112.3220310
  65.6929200 124.7912080 112.1751330  66.5332830 125.8430950 112.8673770
  50.0593550 141.8743220 111.2844260  49.8915590 141.2413900 111.9826150
  49.1928060 142.0802620 110.9338450  50.6821570 125.7060000 108.7876120
  51.4400930 125.8188880 108.2140150  50.2198740 126.5429200 108.7419550
  57.2235380 127.8199270 111.7778430  56.4109890 127.4456160 111.4374310
  57.7277020 127.0644350 112.0799620  51.6656250 140.5676450 108.7294400
  51.1403870 140.9484480 108.0256360  51.5900830 141.1927220 109.4504110
  53.0546720 126.2324050 107.3278090  53.5839480 125.4453850 107.1986040
  53.6875040 126.9115240 107.5613620  55.2484560 125.9699190 110.3823480
  54.6187300 125.2686500 110.5493610  54.7089700 126.7303320 110.1656640
  58.1876510 142.5838420 123.0534090  59.1143820 142.3482690 123.0970050
  58.1726940 143.4110420 122.5720120  66.4221570 142.1263990 110.0508340
  66.5973760 141.4401730 109.4069260  65.7243140 142.6511040 109.6585010
  55.3740120 125.2483170 122.8175970  55.0924390 125.7516770 122.0536790
  55.7559820 124.4504920 122.4518100  54.2649220 142.5158830 107.6043650
  54.9968040 142.2318110 107.0567540  54.5242890 142.2772110 108.4943030
  53.4264010 138.6323560 107.6089980  52.7972890 139.1008660 108.1575810
  53.5411840 137.7872780 108.0436170  61.9755580 124.6636750 123.3956440
  61.8621030 124.9831360 124.2907960  62.7925320 125.0649260 123.0993720
  64.7554070 141.8108280 122.8775130  65.5479390 141.3157510 122.6701090
  65.0487220 142.4898420 123.4850740  53.0297600 134.7728050  96.5176210
  52.1982480 134.5176760  96.9172720  53.6378580 134.8438820  97.2534130
  63.0339200 138.8668430  94.4199580  62.5720730 138.0955670  94.7486750
  63.8464750 138.8934500  94.9252030  53.0098860 138.8068140  96.7134230
  53.3126900 137.9165880  96.5344450  53.7542450 139.3638360  96.4856480
  51.4389550 129.7329940  90.3018600  50.5506250 130.0745910  90.1998480
  51.7230740 129.5330260  89.4099430  49.4022560 132.3335590  96.1858300
  49.9738670 131.5657790  96.1861940  49.4024100 132.6324350  95.2764910
  59.2602510 141.1526440  94.0403570  58.6413950 141.6083940  93.4698010
  60.1154290 141.3077900  93.6393270  50.6447430 127.7419950  97.9727230
  50.4650270 126.8445700  98.2529990  50.2427510 128.2891820  98.6474180
  59.4845930 129.9435810  95.8739540  59.8610750 129.0707690  95.7613210
  59.3865440 130.2794510  94.9829980  53.6150940 128.3161440  91.3356980
  53.7217690 129.2165170  91.6425740  52.7043300 128.2679410  91.0451630
  51.2634100 130.2380450  96.5809570  51.9444210 130.5018820  97.1996970
  50.9482150 129.3981320  96.9147580  55.4558670 131.2847810  95.6682160
  55.9636890 131.7828780  96.3087180  55.9871910 130.5083010  95.4921520
  67.5569600 129.4553000  99.3711510  66.8521770 129.8434710  98.8526620
  67.8227520 130.1503290  99.9732440  53.7394770 125.9246370  99.9345580
  53.7413210 126.4418760  99.1291480  52.9099080 125.4476550  99.9115510
  54.9897620 135.5641550  98.1119080  54.6567000 136.1910470  98.7540150
  55.1664300 136.0903430  97.3320750  63.5031530 129.3786630  95.5795420
  62.7987100 129.6671520  96.1598530  63.8643690 130.1886740  95.2194980
  53.4210100 127.6356330  97.9416030  53.7626910 128.4798380  97.6469900
  52.4825910 127.7840070  98.0581370  54.2016720 137.5322350  99.9268260
  54.8190720 138.2073430  99.6452710  53.3409840 137.9410330  99.8355760
  49.4949060 136.7222210  88.8075110  49.1177040 137.2109310  88.0760010
  49.7522130 137.3947490  89.4381640  65.1194310 138.9961760  97.8422900
  64.4357830 139.6660870  97.8339570  65.6588600 139.1942410  97.0767760
  66.5718450 128.8241420  95.9704630  65.6243360 128.8580400  96.1020060
  66.8968440 129.6380370  96.3553990  57.1037990 125.1238600  94.2660620
  57.4112970 124.5685490  93.5496120  56.1738690 125.2583060  94.0833610
  62.6553050 140.8405890  96.5568080  62.6680210 140.4368180  95.6890340
  62.1028270 141.6153180  96.4529510  63.9498470 137.5622110  91.6458250
  63.8394800 136.6196440  91.7707670  63.9466720 137.9237750  92.5321010
  62.0538490 135.7435730  97.8850690  62.4707280 135.5295840  97.0504150
  62.7778310 136.0008520  98.4559310  66.0000590 134.1422950  97.9766930
  65.1719220 134.2116040  97.5017060  66.5951070 134.7277260  97.5082760
  63.5216040 134.7507730  91.5055990  62.9028460 134.4127280  90.8582290
  63.5040490 134.1067490  92.2135180  55.5657090 137.4019730  95.9479680
  55.2685380 136.7965200  95.2687460  56.5156910 137.4397040  95.8369040
  53.8104010 130.4895380  97.5639510  54.3618600 130.5990720  96.7892760
  54.3247520 130.8632980  98.2794740  63.6542700 140.9751600  99.6102780
  63.1773260 141.7823790  99.4175390  62.9704490 140.3229930  99.7628990
  54.6575520 137.1401420 102.5987480  53.7604050 137.3641390 102.8460880
  54.6828390 137.2636360 101.6498880  53.4846740 134.0114740 101.1744850
  53.3454510 134.8837540 101.5432250  52.6028100 133.6687550 101.0292790
  55.2827090 139.9536440 103.3830000  55.2542520 140.3579390 102.5158430
  55.1192060 139.0246800 103.2201600  65.2797880 125.2437350  86.8269780
  64.9670540 125.3364180  87.7268850  66.0410350 125.8218380  86.7767210
  51.7980020 132.6097150  91.2847120  51.6777620 133.3359240  90.6728390
  51.4880910 131.8400060  90.8075030  67.2341910 140.7363540 104.6794170
  67.7101630 141.2146430 105.3583250  67.8549070 140.6681030 103.9539670
  49.4365390 135.7812290  97.0915760  49.5145810 135.9161060  96.1471480
  50.0507070 135.0728180  97.2843880  50.6813020 137.4812480  93.5021940
  50.2741100 137.6227070  92.6475540  51.5726030 137.1972640  93.2993150
  66.6375160 137.9276390 101.8394180  66.7638220 137.6888270 100.9211360
  66.6796540 137.0960930 102.3116260  60.4991900 141.6304390 100.4088990
  61.0136570 141.5412400 101.2111420  59.6560980 141.9764090 100.7016900
  62.4746300 141.9159730  89.8372990  62.3147440 141.6262670  90.7354820
  62.3093010 141.1399860  89.3018220  54.9534680 141.6958260  91.6144610
  54.7777160 140.7793800  91.4012410  54.0990420 142.0545550  91.8542410
  62.1772430 139.4247290  88.3970990  61.4837590 139.4224580  87.7373270
  62.9195290 139.0006610  87.9665160  61.7422360 141.0510000  92.4719480
  62.1979310 140.2699380  92.7858100  62.0814880 141.7616820  93.0160660
  49.4924910 136.8226460  99.6310220  49.6555950 136.3531820  98.8129590
  49.9577360 136.3150020 100.2959060  54.2643680 125.9532220  94.6670790
  53.8211830 126.7341760  94.3355310  54.8228670 126.2762110  95.3741730
  56.3019580 126.4979550  96.5260390  56.5991910 127.4042380  96.4452410
  56.8505140 126.0098330  95.9119960  54.0557900 131.0765790  92.3952040
  53.8298820 130.8602960  93.2998660  53.2750430 131.5094250  92.0498010
  61.2855660 131.0829160  90.9942690  60.6864550 131.8064960  90.8106310
  61.8335270 131.0205940  90.2119140  59.8920530 129.7192700  93.0245970
  60.2850100 130.0364900  92.2114660  60.2537380 128.8404580  93.1390490
  51.6267650 128.3865040 101.2146090  51.2331040 129.2340250 101.4218870
  50.9386050 127.7491410 101.4054730  48.9284700 126.3093500  95.2476170
  48.6397750 126.8796360  95.9601150  49.6730460 125.8297950  95.6107400
  60.4775670 132.3098450  97.1196750  59.7456790 132.8185260  97.4686850
  60.0800010 131.4928430  96.8185530  56.9153060 128.9852650  95.5249240
  56.9189120 128.5442600  94.6753780  57.8104180 129.3069980  95.6321060
  52.7655440 128.8679140  94.4843450  52.4255490 129.3454370  95.2410500
  52.0032760 128.4144260  94.1244550  56.9773210 129.9864730  88.5156000
  57.0986030 129.9451210  89.4641820  56.5921720 130.8488880  88.3602730
  60.9401580 127.7632130  96.5319690  60.9574320 128.2140780  97.3761540
  60.6917160 126.8637770  96.7453130  64.3672330 125.1764310 102.3706070
  64.6918100 124.4453970 102.8964050  64.4028840 124.8577950 101.4687060
  51.0663890 136.1977890 101.7906030  50.6818680 135.5571560 102.3888990
  51.3776080 136.9014010 102.3600760  57.2161030 133.0454430  97.2714650
  57.5831160 132.5713000  98.0175990  57.0266090 133.9196000  97.6122990
  50.0801520 127.7898120  93.4008120  49.7948440 127.4253790  94.2386740
  50.0180380 127.0578580  92.7871260  55.0060400 132.0863070  99.5898860
  54.7017470 132.9655050  99.8149220  55.9606860 132.1462860  99.6256300
  53.5342190 136.2924060  90.1865710  52.7604450 135.7521680  90.0264430
  54.2636820 135.7730670  89.8483470  64.2930170 135.2889420  95.9792100
  65.0129290 135.7844710  95.5888210  64.0911990 134.6107310  95.3345970
  59.6748970 135.3598480 101.8661100  59.6086280 134.4394150 101.6118690
  59.0454110 135.4573920 102.5805740  62.4688500 131.0547030  88.4183650
  63.3568120 131.3664260  88.2434990  62.4393590 130.1819280  88.0264230
  53.5779590 135.9604440  93.8244520  54.0958260 135.1572700  93.7701410
  53.1263610 135.8983580  94.6661350  51.0624130 132.9265810 100.7370220
  50.7039070 133.5919660 101.3243560  50.7678690 132.0949360 101.1082840
  54.2637250 133.3850050 103.6209770  53.9637390 133.5307230 102.7237590
  55.0348490 132.8255340 103.5283160  59.6065700 138.1819050 101.6164900
  59.6210240 137.2500010 101.3983810  58.8990800 138.2678810 102.2554670
  64.7402770 132.3658870  87.8863510  64.6566490 132.7973090  87.0359950
  65.4596960 132.8257220  88.3190330  65.8176910 134.8226390 100.9633480
  65.0925100 135.4155170 100.7662870  66.3452370 134.8149930 100.1646850
  65.7690020 139.2201130  90.6145640  65.1266180 138.5656750  90.8889360
  65.3820680 139.6256220  89.8386310  59.0399600 139.8236620  98.7105400
  59.6841820 140.0296000  99.3878820  59.4029040 139.0625020  98.2576250
  52.6378770 124.6567930  91.9535620  52.5093400 124.6485830  92.9020540
  51.8140790 124.9951020  91.6026630  60.3131680 137.8268970  97.4282850
  60.9553910 137.1262130  97.5415020  60.8381030 138.6067410  97.2479740
  64.1587400 138.1117590  87.1521990  63.9324980 137.3948030  87.7446630
  63.7683600 137.8630030  86.3143740  62.0869300 138.6263870 100.6318910
  62.4225540 139.2130560 101.3096830  61.1669640 138.4956580 100.8616700
  49.9403430 142.1384450  87.9266450  50.3001070 142.7373790  87.2723720
  49.7995770 142.6844340  88.7001480  49.6372700 126.4159050 101.4142320
  48.9231220 126.6155970 102.0194930  50.0567740 125.6398620 101.7857120
  63.7403650 136.0289530  88.8136150  63.4525350 136.4902220  89.6014030
  64.5355820 135.5687300  89.0820370  49.9245290 140.4039310 102.4008850
  50.0336410 139.4634050 102.2604240  49.2725850 140.6694060 101.7522580
  57.9157880 138.6755200 103.8006970  57.5954750 137.9564440 104.3452660
  57.2416240 139.3510270 103.8743030  55.9572050 139.5215650  88.7440120
  55.9482150 140.2545340  88.1284630  55.0370410 139.2747230  88.8367080
  51.5578690 134.7430540  89.4886880  50.9506640 135.4829440  89.4982180
  52.0328040 134.8329900  88.6625080  58.9431650 139.5843890  87.4065310
  59.0443630 139.3807880  86.4767290  58.0433390 139.3302170  87.6113090
  56.4657540 130.1424250  91.3889210  55.7573690 130.6110590  91.8302820
  56.7502020 129.4846260  92.0234400  57.5849760 142.1030210  92.1012980
  57.8391260 142.0651600  91.1792350  56.6362240 141.9763540  92.0941230
  54.6692560 128.4509330  88.7639920  55.5183090 128.8879480  88.6980110
  54.3023830 128.7629590  89.5911980  63.5902340 133.0222090  93.6771490
  62.6492480 133.0372320  93.8519180  63.9046410 132.2358050  94.1231790
  53.5683980 134.7041690  87.2375450  54.3347250 134.5923050  87.8000880
  53.6458670 134.0079660  86.5852220  52.2630740 132.1366760  87.9208340
  52.3434330 131.1894270  88.0325740  53.1550490 132.4673640  88.0269000
  65.5927920 140.1930940  95.3525750  65.7175340 141.0162110  95.8249560
  66.4593480 139.9821670  95.0049900  53.0645450 142.2862150  95.0242880
  53.8007930 141.7377610  95.2951450  53.4486370 143.1518160  94.8848870
  49.9490930 138.3535720  90.8984390  49.0230710 138.5956860  90.8889800
  50.4147360 139.1809980  90.7769140  52.0703730 141.4708220 104.2128460
  52.8716460 141.7920270 104.6263860  51.5555550 141.1103800 104.9348370
  56.1747760 141.4592460  86.8468450  56.9676370 141.7481290  86.3950240
  55.6552110 141.0284630  86.1680930  60.9068360 137.5788090 104.1603870
  60.3006520 137.6019690 103.4199620  60.6022470 136.8471130 104.6971120
  62.3368730 141.3068380 102.7713280  63.2890480 141.2226400 102.7213520
  62.1896950 141.9710090 103.4447070  65.2277930 140.6862590  88.2705190
  64.9419440 140.2727730  87.4559370  65.0297480 141.6150300  88.1505710
  49.7901540 133.9581680 103.1564510  50.2940560 133.3788960 103.7280740
  49.0508960 134.2421910 103.6940880  56.8439480 135.3652670 102.6900030
  56.0785150 135.9337670 102.6054700  57.0255440 135.0728880 101.7968260
  63.9862830 137.0958000 103.2475050  64.7272300 137.4333760 102.7442510
  63.2235510 137.2650060 102.6944820  51.8224620 132.1011270 104.0514580
  51.8629960 131.8025140 104.9599810  52.6770120 132.5018880 103.8922100
  53.7630430 130.6803370 102.0189070  53.2326890 130.1894320 101.3912410
  54.4318500 131.1087570 101.4847000  54.2502730 127.6465740 102.0986360
  54.1559600 127.0286490 101.3737230  53.6700120 128.3732030 101.8716270
  57.0164170 126.2038980  99.1313750  56.5681470 126.2263240  98.2859300
  56.3829370 125.8058000  99.7284050  57.4223720 135.0993310  99.7526190
  57.8411830 135.9426040  99.5802430  56.5032350 135.2365350  99.5232970
  55.2731140 141.4046320 100.8683920  54.7352230 142.1292380 100.5492620
  55.5265100 140.9276660 100.0781260  58.1293350 142.6397530 101.1270570
  58.0552050 143.5432670 101.4342940  57.2272190 142.3209430 101.0992640
  56.5129640 126.8175290  87.1310330  56.1651640 126.1399280  86.5512780
  56.7142410 126.3564800  87.9453720  58.6778680 141.8056040  88.7496930
  59.5729470 142.1441010  88.7715690  58.7096310 141.0835450  88.1221210
  52.3174840 137.1783090  86.9783930  52.7549710 137.7212760  87.6341510
  52.8022570 136.3530040  86.9880270  49.5320640 139.9672120  94.4304190
  49.8623650 139.0993180  94.1982830  49.9611640 140.1730640  95.2609150
  54.1282560 138.2981130  92.0906160  53.8278100 138.1746100  92.9910070
  54.0220050 137.4389720  91.6821890  50.0210850 140.8342710  97.1685820
  49.5841840 141.0143510  98.0009970  50.5888530 141.5917330  97.0267540
  65.6573030 140.3359710 101.4563130  65.0575020 140.3952270 100.7127050
  65.7866930 139.3964690 101.5859980  66.8974480 138.0777530  86.7932840
  66.0667440 138.1454180  87.2640070  67.0746310 138.9681650  86.4899700
  66.3530940 134.8225010  89.2967040  67.1149850 135.3921660  89.4026730
  66.3685310 134.2552210  90.0675350  49.8535280 133.3462940  93.5274700
  49.1984120 133.0774580  92.8834400  50.6913230 133.2367420  93.0776680
  67.3590910 135.6775110  94.1408970  67.7299740 134.8942430  93.7344940
  67.9992840 136.3664210  93.9626270  64.3424670 137.0611690  99.5539290
  63.5284510 137.4908850  99.8165080  64.7498870 137.6730100  98.9408340
  66.4050110 135.1159380  86.4539560  66.6798950 136.0238260  86.3258780
  66.2160850 135.0521910  87.3901550  62.8025720 128.1404230  87.7493190
  63.2210600 127.9535210  86.9089850  62.4961780 127.2883280  88.0596120
  66.3015450 133.0528370  91.4468990  65.9259050 132.2856300  91.0150280
  65.5718570 133.4351070  91.9343920  50.8911210 133.7315510  98.0678040
  51.2584250 133.6442910  98.9474060  50.3222030 132.9682060  97.9684900
  50.4427210 130.6424600 101.9736460  49.5483260 130.6091360 102.3130170
  50.9824760 130.8411390 102.7387710  65.5766410 131.2785860  94.7476230
  66.1003890 130.7848510  94.1166400  66.1625830 131.4136220  95.4923800
  65.7556130 131.3625730  98.2695780  64.8058840 131.3289270  98.3840770
  65.9369140 132.2725840  98.0345550  66.4953540 129.1720160  93.2206320
  66.3852820 129.0176200  94.1588590  67.2561130 128.6441100  92.9781730
  64.8419260 125.1114290  99.6789320  65.4791480 125.7248430 100.0448510
  64.9894150 125.1474950  98.7338550  64.4000720 141.8130290  93.0807560
  64.9959790 141.4914860  92.4041980  64.6578870 141.3402110  93.8720830
  52.3063290 138.2448200 103.2298190  52.2632920 137.8741110 104.1112650
  52.4374300 139.1825770 103.3700010  56.0069320 139.8007790  98.8307910
  55.7660680 140.0682350  97.9438430  56.9471960 139.9713520  98.8858770
  58.2123740 126.2640480 102.5864420  58.1512630 126.8562310 103.3359830
  59.1524120 126.1566440 102.4414680  60.8498300 125.9210540 102.2256710
  61.4638710 126.2389830 101.5637790  61.3947860 125.4359130 102.8452570
  67.2673480 141.8202170  99.6318550  66.7731760 142.2171040  98.9145680
  66.6586770 141.1951380 100.0255830  51.3719560 124.6004800 102.3395770
  51.9202550 124.4192850 101.5761880  51.4374870 123.8098910 102.8752080
  52.1451320 141.1910450 100.3495970  51.5511640 141.0595150 101.0886010
  52.1375160 140.3548590  99.8838070  61.5906340 124.4842680  98.5526000
  60.7166180 124.8177790  98.3498930  61.4817090 124.0115860  99.3777870
  62.4978320 126.6913550  99.9367720  62.1691680 125.8765310  99.5569450
  63.4460620 126.6483360  99.8133410  64.9512930 142.4625590  96.9105290
  64.4915900 143.2141400  96.5363310  64.3225390 141.7432060  96.8520090
  51.7763550 138.5568830  99.3004010  51.0497610 137.9374120  99.2329960
  51.8372700 138.9509440  98.4302090  55.3808650 140.7713830  96.0853420
  55.8973670 140.1601190  95.5601680  56.0306030 141.2742610  96.5764430
  58.1204150 141.6622320  96.9122400  58.4081960 141.4076620  96.0355410
  58.6327370 141.1099680  97.5027970  59.3381160 125.4012520  97.4918910
  58.5552950 125.8758020  97.7715670  59.0444090 124.4967350  97.3832090
  50.0593550 141.8743220  92.5100770  49.8915590 141.2413900  93.2082660
  49.1928060 142.0802620  92.1594960  50.6821570 125.7060000  90.0132630
  51.4400930 125.8188880  89.4396660  50.2198740 126.5429200  89.9676060
  57.2235380 127.8199270  93.0034940  56.4109890 127.4456160  92.6630820
  57.7277020 127.0644350  93.3056130  51.6656250 140.5676450  89.9550910
  51.1403870 140.9484480  89.2512870  51.5900830 141.1927220  90.6760620
  53.0546720 126.2324050  88.5534600  53.5839480 125.4453850  88.4242550
  53.6875040 126.9115240  88.7870130  55.2484560 125.9699190  91.6079990
  54.6187300 125.2686500  91.7750120  54.7089700 126.7303320  91.3913150
  58.1876510 142.5838420 104.2790600  59.1143820 142.3482690 104.3226560
  58.1726940 143.4110420 103.7976630  66.4221570 142.1263990  91.2764850
  66.5973760 141.4401730  90.6325770  65.7243140 142.6511040  90.8841520
  55.3740120 125.2483170 104.0432480  55.0924390 125.7516770 103.2793300
  55.7559820 124.4504920 103.6774610  54.2649220 142.5158830  88.8300160
  54.9968040 142.2318110  88.2824050  54.5242890 142.2772110  89.7199540
  53.4264010 138.6323560  88.8346490  52.7972890 139.1008660  89.3832320
  53.5411840 137.7872780  89.2692680  61.9755580 124.6636750 104.6212950
  61.8621030 124.9831360 105.5164470  62.7925320 125.0649260 104.3250230
  64.7554070 141.8108280 104.1031640  65.5479390 141.3157510 103.8957600
  65.0487220 142.4898420 104.7107250  60.8813730 132.6829220  74.9847690
  60.8007780 131.7683830  74.7139400  60.4678150 133.1796290  74.2787400
  59.0131770 134.4608240  76.8656960  58.2373870 133.9808680  77.1555530
  59.6644700 133.7813890  76.6913120  53.0297600 134.7728050  77.7432720
  52.1982480 134.5176760  78.1429230  53.6378580 134.8438820  78.4790640
  63.0339200 138.8668430  75.6456090  62.5720730 138.0955670  75.9743260
  63.8464750 138.8934500  76.1508540  53.0098860 138.8068140  77.9390740
  53.3126900 137.9165880  77.7600960  53.7542450 139.3638360  77.7112990
  49.4022560 132.3335590  77.4114810  49.9738670 131.5657790  77.4118450
  49.4024100 132.6324350  76.5021420  59.2602510 141.1526440  75.2660080
  58.6413950 141.6083940  74.6954520  60.1154290 141.3077900  74.8649780
  58.4540760 137.1365430  76.8727120  58.3849040 136.1955370  76.7116250
  59.2160620 137.2266840  77.4449690  59.4845930 129.9435810  77.0996050
  59.8610750 129.0707690  76.9869720  59.3865440 130.2794510  76.2086490
  67.5569600 129.4553000  80.5968020  66.8521770 129.8434710  80.0783130
  67.8227520 130.1503290  81.1988950  60.1265860 136.0365680  72.6591990
  59.5083130 136.5015130  72.0954710  60.6389110 136.7293160  73.0761500
  54.9897620 135.5641550  79.3375590  54.6567000 136.1910470  79.9796660
  55.1664300 136.0903430  78.5577260  54.2016720 137.5322350  81.1524770
  54.8190720 138.2073430  80.8709220  53.3409840 137.9410330  81.0612270
  49.4949060 136.7222210  70.0331620  49.1177040 137.2109310  69.3016520
  49.7522130 137.3947490  70.6638150  66.5718450 128.8241420  77.1961140
  65.6243360 128.8580400  77.3276570  66.8968440 129.6380370  77.5810500
  62.6553050 140.8405890  77.7824590  62.6680210 140.4368180  76.9146850
  62.1028270 141.6153180  77.6786020  63.9498470 137.5622110  72.8714760
  63.8394800 136.6196440  72.9964180  63.9466720 137.9237750  73.7577520
  59.4918750 133.1887430  72.2277250  58.5648030 133.1224810  72.4565720
  59.6443570 134.1267560  72.1132490  59.4787830 129.4604430  69.2244410
  58.5391500 129.6218390  69.3096870  59.7971090 130.1790110  68.6780400
  63.5216040 134.7507730  72.7312500  62.9028460 134.4127280  72.0838800
  63.5040490 134.1067490  73.4391690  62.9642600 130.9292270  80.1478310
  62.5513780 131.7545980  80.4018300  62.2318550 130.3437310  79.9554670
  55.5657090 137.4019730  77.1736190  55.2685380 136.7965200  76.4943970
  56.5156910 137.4397040  77.0625550  54.6575520 137.1401420  83.8243990
  53.7604050 137.3641390  84.0717390  54.6828390 137.2636360  82.8755390
  61.6980740 133.9894540  69.7385250  62.1374020 133.1516970  69.5923070
  62.4109160 134.6223940  69.8249390  53.4846740 134.0114740  82.4001360
  53.3454510 134.8837540  82.7688760  52.6028100 133.6687550  82.2549300
  59.8076120 138.9290610  73.7066490  60.2472030 139.6714940  73.2921880
  59.7463010 139.1717180  74.6305450  55.2827090 139.9536440  84.6086510
  55.2542520 140.3579390  83.7414940  55.1192060 139.0246800  84.4458110
  67.2341910 140.7363540  85.9050680  67.7101630 141.2146430  86.5839760
  67.8549070 140.6681030  85.1796180  49.4365390 135.7812290  78.3172270
  49.5145810 135.9161060  77.3727990  50.0507070 135.0728180  78.5100390
  50.6813020 137.4812480  74.7278450  50.2741100 137.6227070  73.8732050
  51.5726030 137.1972640  74.5249660  60.4991900 141.6304390  81.6345500
  61.0136570 141.5412400  82.4367930  59.6560980 141.9764090  81.9273410
  62.4746300 141.9159730  71.0629500  62.3147440 141.6262670  71.9611330
  62.3093010 141.1399860  70.5274730  54.9534680 141.6958260  72.8401120
  54.7777160 140.7793800  72.6268920  54.0990420 142.0545550  73.0798920
  62.1772430 139.4247290  69.6227500  61.4837590 139.4224580  68.9629780
  62.9195290 139.0006610  69.1921670  61.7422360 141.0510000  73.6975990
  62.1979310 140.2699380  74.0114610  62.0814880 141.7616820  74.2417170
  66.4899170 129.9808850  84.0300430  65.8743440 130.4888520  83.5015890
  66.1695590 129.0807180  83.9726370  49.4924910 136.8226460  80.8566730
  49.6555950 136.3531820  80.0386100  49.9577360 136.3150020  81.5215570
  63.5518000 130.0409690  82.6259280  62.7011590 129.7415440  82.9468350
  63.3919790 130.2851700  81.7143100  48.9284700 126.3093500  76.4732680
  48.6397750 126.8796360  77.1857660  49.6730460 125.8297950  76.8363910
  60.4775670 132.3098450  78.3453260  59.7456790 132.8185260  78.6943360
  60.0800010 131.4928430  78.0442040  56.9153060 128.9852650  76.7505750
  56.9189120 128.5442600  75.9010290  57.8104180 129.3069980  76.8577570
  60.9401580 127.7632130  77.7576200  60.9574320 128.2140780  78.6018050
  60.6917160 126.8637770  77.9709640  64.3672330 125.1764310  83.5962580
  64.6918100 124.4453970  84.1220560  64.4028840 124.8577950  82.6943570
  51.0663890 136.1977890  83.0162540  50.6818680 135.5571560  83.6145500
  51.3776080 136.9014010  83.5857270  57.2161030 133.0454430  78.4971160
  57.5831160 132.5713000  79.2432500  57.0266090 133.9196000  78.8379500
  53.5342190 136.2924060  71.4122220  52.7604450 135.7521680  71.2520940
  54.2636820 135.7730670  71.0739980  59.6748970 135.3598480  83.0917610
  59.6086280 134.4394150  82.8375200  59.0454110 135.4573920  83.8062250
  62.4688500 131.0547030  69.6440160  63.3568120 131.3664260  69.4691500
  62.4393590 130.1819280  69.2520740  53.5779590 135.9604440  75.0501030
  54.0958260 135.1572700  74.9957920  53.1263610 135.8983580  75.8917860
  58.4649090 137.2270720  70.3228330  58.8064790 137.9712950  69.8271650
  57.6361800 137.5401840  70.6853160  51.0624130 132.9265810  81.9626730
  50.7039070 133.5919660  82.5500070  50.7678690 132.0949360  82.3339350
  59.6065700 138.1819050  82.8421410  59.6210240 137.2500010  82.6240320
  58.8990800 138.2678810  83.4811180  64.7402770 132.3658870  69.1120020
  64.6566490 132.7973090  68.2616460  65.4596960 132.8257220  69.5446840
  65.7690020 139.2201130  71.8402150  65.1266180 138.5656750  72.1145870
  65.3820680 139.6256220  71.0642820  57.4339780 137.3084250  73.0944250
  58.1210910 137.8553460  73.4751840  56.6472200 137.8524980  73.1293860
  59.0399600 139.8236620  79.9361910  59.6841820 140.0296000  80.6135330
  59.4029040 139.0625020  79.4832760  64.1587400 138.1117590  68.3778500
  63.9324980 137.3948030  68.9703140  63.7683600 137.8630030  67.5400250
  49.9403430 142.1384450  69.1522960  50.3001070 142.7373790  68.4980230
  49.7995770 142.6844340  69.9257990  63.7403650 136.0289530  70.0392660
  63.4525350 136.4902220  70.8270540  64.5355820 135.5687300  70.3076880
  49.9245290 140.4039310  83.6265360  50.0336410 139.4634050  83.4860750
  49.2725850 140.6694060  82.9779090  57.9157880 138.6755200  85.0263480
  57.5954750 137.9564440  85.5709170  57.2416240 139.3510270  85.0999540
  55.9572050 139.5215650  69.9696630  55.9482150 140.2545340  69.3541140
  55.0370410 139.2747230  70.0623590  51.5578690 134.7430540  70.7143390
  50.9506640 135.4829440  70.7238690  52.0328040 134.8329900  69.8881590
  61.1311480 128.9081360  80.3900280  61.4992300 128.0876570  80.7179850
  60.2709680 128.9683250  80.8055930  58.9431650 139.5843890  68.6321820
  59.0443630 139.3807880  67.7023800  58.0433390 139.3302170  68.8369600
  57.5849760 142.1030210  73.3269490  57.8391260 142.0651600  72.4048860
  56.6362240 141.9763540  73.3197740  65.2980330 127.7788910  81.4566640
  64.7953930 128.5194310  81.7960450  66.1136990 128.1672910  81.1403430
  53.5683980 134.7041690  68.4631960  54.3347250 134.5923050  69.0257390
  53.6458670 134.0079660  67.8108730  65.5927920 140.1930940  76.5782260
  65.7175340 141.0162110  77.0506070  66.4593480 139.9821670  76.2306410
  53.0645450 142.2862150  76.2499390  53.8007930 141.7377610  76.5207960
  53.4486370 143.1518160  76.1105380  49.9490930 138.3535720  72.1240900
  49.0230710 138.5956860  72.1146310  50.4147360 139.1809980  72.0025650
  52.0703730 141.4708220  85.4384970  52.8716460 141.7920270  85.8520370
  51.5555550 141.1103800  86.1604880  56.1747760 141.4592460  68.0724960
  56.9676370 141.7481290  67.6206750  55.6552110 141.0284630  67.3937440
  60.9068360 137.5788090  85.3860380  60.3006520 137.6019690  84.6456130
  60.6022470 136.8471130  85.9227630  62.3368730 141.3068380  83.9969790
  63.2890480 141.2226400  83.9470030  62.1896950 141.9710090  84.6703580
  65.2277930 140.6862590  69.4961700  64.9419440 140.2727730  68.6815880
  65.0297480 141.6150300  69.3762220  49.7901540 133.9581680  84.3821020
  50.2940560 133.3788960  84.9537250  49.0508960 134.2421910  84.9197390
  56.6925160 136.6795870  67.9367310  56.5875800 136.0648220  68.6628690
  56.5249380 136.1561760  67.1530320  59.9327890 135.7415900  68.5409300
  59.3837990 136.1885200  69.1852040  60.5547150 135.2365150  69.0646970
  63.9862830 137.0958000  84.4731560  64.7272300 137.4333760  83.9699020
  63.2235510 137.2650060  83.9201330  55.6003010 134.7006820  70.4374600
  56.0219430 134.5346690  71.2805990  55.7253850 133.8907050  69.9429740
  58.1130650 133.7244430  67.6851700  58.6336310 133.0093450  67.3192850
  58.7599050 134.3630300  67.9852210  62.6608490 135.1472830  83.0086770
  63.0749510 135.3017910  83.8577190  61.7259490 135.2728050  83.1712550
  63.1330660 132.4868990  85.0125920  63.7151430 131.7321310  84.9246400
  63.3092430 133.0176430  84.2357400  57.4223720 135.0993310  80.9782700
  57.8411830 135.9426040  80.8058940  56.5032350 135.2365350  80.7489480
  55.2731140 141.4046320  82.0940430  54.7352230 142.1292380  81.7749130
  55.5265100 140.9276660  81.3037770  58.1293350 142.6397530  82.3527080
  58.0552050 143.5432670  82.6599450  57.2272190 142.3209430  82.3249150
  58.6778680 141.8056040  69.9753440  59.5729470 142.1441010  69.9972200
  58.7096310 141.0835450  69.3477720  52.3174840 137.1783090  68.2040440
  52.7549710 137.7212760  68.8598020  52.8022570 136.3530040  68.2136780
  49.5320640 139.9672120  75.6560700  49.8623650 139.0993180  75.4239340
  49.9611640 140.1730640  76.4865660  54.1282560 138.2981130  73.3162670
  53.8278100 138.1746100  74.2166580  54.0220050 137.4389720  72.9078400
  50.0210850 140.8342710  78.3942330  49.5841840 141.0143510  79.2266480
  50.5888530 141.5917330  78.2524050  66.8974480 138.0777530  68.0189350
  66.0667440 138.1454180  68.4896580  67.0746310 138.9681650  67.7156210
  66.3530940 134.8225010  70.5223550  67.1149850 135.3921660  70.6283240
  66.3685310 134.2552210  71.2931860  49.8535280 133.3462940  74.7531210
  49.1984120 133.0774580  74.1090910  50.6913230 133.2367420  74.3033190
  66.4050110 135.1159380  67.6796070  66.6798950 136.0238260  67.5515290
  66.2160850 135.0521910  68.6158060  50.8911210 133.7315510  79.2934550
  51.2584250 133.6442910  80.1730570  50.3222030 132.9682060  79.1941410
  65.6915070 132.1999890  82.3065020  65.4601160 131.9712640  81.4062970
  65.9519620 133.1199440  82.2609910  64.1303140 127.4256320  85.0844720
  65.0073320 127.4339720  85.4678720  64.1423980 126.6887160  84.4737070
  65.7556130 131.3625730  79.4952290  64.8058840 131.3289270  79.6097280
  65.9369140 132.2725840  79.2602060  51.2574730 125.6666740  67.6453570
  51.9802860 126.2075680  67.9634790  51.5299250 125.3930160  66.7695110
  50.9466920 124.9172930  77.5476190  51.5943110 124.3670310  77.1071350
  51.3668760 125.1716080  78.3692000  64.8419260 125.1114290  80.9045830
  65.4791480 125.7248430  81.2705020  64.9894150 125.1474950  79.9595060
  67.3843810 127.0028080  67.6868970  68.3093120 126.8709260  67.4787260
  67.3619600 127.0820900  68.6405420  64.4000720 141.8130290  74.3064070
  64.9959790 141.4914860  73.6298490  64.6578870 141.3402110  75.0977340
  52.3063290 138.2448200  84.4554700  52.2632920 137.8741110  85.3369160
  52.4374300 139.1825770  84.5956520  56.0069320 139.8007790  80.0564420
  55.7660680 140.0682350  79.1694940  56.9471960 139.9713520  80.1115280
  67.2673480 141.8202170  80.8575060  66.7731760 142.2171040  80.1402190
  66.6586770 141.1951380  81.2512340  52.1451320 141.1910450  81.5752480
  51.5511640 141.0595150  82.3142520  52.1375160 140.3548590  81.1094580
  62.4978320 126.6913550  81.1624230  62.1691680 125.8765310  80.7825960
  63.4460620 126.6483360  81.0389920  64.9512930 142.4625590  78.1361800
  64.4915900 143.2141400  77.7619820  64.3225390 141.7432060  78.0776600
  51.7763550 138.5568830  80.5260520  51.0497610 137.9374120  80.4586470
  51.8372700 138.9509440  79.6558600  55.3808650 140.7713830  77.3109930
  55.8973670 140.1601190  76.7858190  56.0306030 141.2742610  77.8020940
  58.1204150 141.6622320  78.1378910  58.4081960 141.4076620  77.2611920
  58.6327370 141.1099680  78.7284480  63.8902230 126.1035620  76.7624510
  64.3310320 126.0480720  75.9146110  63.6209820 127.0193630  76.8334690
  50.0593550 141.8743220  73.7357280  49.8915590 141.2413900  74.4339170
  49.1928060 142.0802620  73.3851470  51.6656250 140.5676450  71.1807420
  51.1403870 140.9484480  70.4769380  51.5900830 141.1927220  71.9017130
  58.1876510 142.5838420  85.5047110  59.1143820 142.3482690  85.5483070
  58.1726940 143.4110420  85.0233140  66.4221570 142.1263990  72.5021360
  66.5973760 141.4401730  71.8582280  65.7243140 142.6511040  72.1098030
  54.2649220 142.5158830  70.0556670  54.9968040 142.2318110  69.5080560
  54.5242890 142.2772110  70.9456050  53.4264010 138.6323560  70.0603000
  52.7972890 139.1008660  70.6088830  53.5411840 137.7872780  70.4949190
  61.9755580 124.6636750  85.8469460  61.8621030 124.9831360  86.7420980
  62.7925320 125.0649260  85.5506740  64.7554070 141.8108280  85.3288150
  65.5479390 141.3157510  85.1214110  65.0487220 142.4898420  85.9363760
  59.0131770 134.4608240  58.0913470  58.2373870 133.9808680  58.3812040
  59.6644700 133.7813890  57.9169630  53.0297600 134.7728050  58.9689230
  52.1982480 134.5176760  59.3685740  53.6378580 134.8438820  59.7047150
  63.0339200 138.8668430  56.8712600  62.5720730 138.0955670  57.1999770
  63.8464750 138.8934500  57.3765050  53.0098860 138.8068140  59.1647250
  53.3126900 137.9165880  58.9857470  53.7542450 139.3638360  58.9369500
  51.4389550 129.7329940  52.7531620  50.5506250 130.0745910  52.6511500
  51.7230740 129.5330260  51.8612450  49.4022560 132.3335590  58.6371320
  49.9738670 131.5657790  58.6374960  49.4024100 132.6324350  57.7277930
  59.2602510 141.1526440  56.4916590  58.6413950 141.6083940  55.9211030
  60.1154290 141.3077900  56.0906290  58.4540760 137.1365430  58.0983630
  58.3849040 136.1955370  57.9372760  59.2160620 137.2266840  58.6706200
  50.6447430 127.7419950  60.4240250  50.4650270 126.8445700  60.7043010
  50.2427510 128.2891820  61.0987200  59.4845930 129.9435810  58.3252560
  59.8610750 129.0707690  58.2126230  59.3865440 130.2794510  57.4343000
  53.6150940 128.3161440  53.7870000  53.7217690 129.2165170  54.0938760
  52.7043300 128.2679410  53.4964650  63.2670050 127.4386250  55.2580900
  64.0879670 126.9482820  55.3006380  63.3004130 128.0283910  56.0112740
  51.2634100 130.2380450  59.0322590  51.9444210 130.5018820  59.6509990
  50.9482150 129.3981320  59.3660600  55.4558670 131.2847810  58.1195180
  55.9636890 131.7828780  58.7600200  55.9871910 130.5083010  57.9434540
  53.7394770 125.9246370  62.3858600  53.7413210 126.4418760  61.5804500
  52.9099080 125.4476550  62.3628530  60.1265860 136.0365680  53.8848500
  59.5083130 136.5015130  53.3211220  60.6389110 136.7293160  54.3018010
  54.9897620 135.5641550  60.5632100  54.6567000 136.1910470  61.2053170
  55.1664300 136.0903430  59.7833770  53.4210100 127.6356330  60.3929050
  53.7626910 128.4798380  60.0982920  52.4825910 127.7840070  60.5094390
  54.2016720 137.5322350  62.3781280  54.8190720 138.2073430  62.0965730
  53.3409840 137.9410330  62.2868780  49.4949060 136.7222210  51.2588130
  49.1177040 137.2109310  50.5273030  49.7522130 137.3947490  51.8894660
  65.1194310 138.9961760  60.2935920  64.4357830 139.6660870  60.2852590
  65.6588600 139.1942410  59.5280780  62.6553050 140.8405890  59.0081100
  62.6680210 140.4368180  58.1403360  62.1028270 141.6153180  58.9042530
  63.9498470 137.5622110  54.0971270  63.8394800 136.6196440  54.2220690
  63.9466720 137.9237750  54.9834030  62.0538490 135.7435730  60.3363710
  62.4707280 135.5295840  59.5017170  62.7778310 136.0008520  60.9072330
  59.4918750 133.1887430  53.4533760  58.5648030 133.1224810  53.6822230
  59.6443570 134.1267560  53.3389000  63.5216040 134.7507730  53.9569010
  62.9028460 134.4127280  53.3095310  63.5040490 134.1067490  54.6648200
  55.0975390 133.7152170  56.2353490  54.6932390 133.0029420  55.7399390
  55.1838510 133.3705410  57.1241530  55.5657090 137.4019730  58.3992700
  55.2685380 136.7965200  57.7200480  56.5156910 137.4397040  58.2882060
  53.8104010 130.4895380  60.0152530  54.3618600 130.5990720  59.2405780
  54.3247520 130.8632980  60.7307760  63.6542700 140.9751600  62.0615800
  63.1773260 141.7823790  61.8688410  62.9704490 140.3229930  62.2142010
  54.6575520 137.1401420  65.0500500  53.7604050 137.3641390  65.2973900
  54.6828390 137.2636360  64.1011900  53.4846740 134.0114740  63.6257870
  53.3454510 134.8837540  63.9945270  52.6028100 133.6687550  63.4805810
  59.8076120 138.9290610  54.9323000  60.2472030 139.6714940  54.5178390
  59.7463010 139.1717180  55.8561960  55.2827090 139.9536440  65.8343020
  55.2542520 140.3579390  64.9671450  55.1192060 139.0246800  65.6714620
  65.2797880 125.2437350  49.2782800  64.9670540 125.3364180  50.1781870
  66.0410350 125.8218380  49.2280230  51.7980020 132.6097150  53.7360140
  51.6777620 133.3359240  53.1241410  51.4880910 131.8400060  53.2588050
  67.2341910 140.7363540  67.1307190  67.7101630 141.2146430  67.8096270
  67.8549070 140.6681030  66.4052690  49.4365390 135.7812290  59.5428780
  49.5145810 135.9161060  58.5984500  50.0507070 135.0728180  59.7356900
  50.6813020 137.4812480  55.9534960  50.2741100 137.6227070  55.0988560
  51.5726030 137.1972640  55.7506170  66.6375160 137.9276390  64.2907200
  66.7638220 137.6888270  63.3724380  66.6796540 137.0960930  64.7629280
  60.4991900 141.6304390  62.8602010  61.0136570 141.5412400  63.6624440
  59.6560980 141.9764090  63.1529920  62.4746300 141.9159730  52.2886010
  62.3147440 141.6262670  53.1867840  62.3093010 141.1399860  51.7531240
  54.9534680 141.6958260  54.0657630  54.7777160 140.7793800  53.8525430
  54.0990420 142.0545550  54.3055430  62.1772430 139.4247290  50.8484010
  61.4837590 139.4224580  50.1886290  62.9195290 139.0006610  50.4178180
  61.7422360 141.0510000  54.9232500  62.1979310 140.2699380  55.2371120
  62.0814880 141.7616820  55.4673680  66.4899170 129.9808850  65.2556940
  65.8743440 130.4888520  64.7272400  66.1695590 129.0807180  65.1982880
  49.4924910 136.8226460  62.0823240  49.6555950 136.3531820  61.2642610
  49.9577360 136.3150020  62.7472080  54.2643680 125.9532220  57.1183810
  53.8211830 126.7341760  56.7868330  54.8228670 126.2762110  57.8254750
  58.5513490 128.8200740  62.7219130  58.0892860 129.0283760  63.5339070
  58.1491600 128.0060090  62.4189800  63.5518000 130.0409690  63.8515790
  62.7011590 129.7415440  64.1724860  63.3919790 130.2851700  62.9399610
  60.6467710 131.5411440  65.9514580  60.9721120 130.7075190  65.6116810
  61.4348040 132.0639960  66.0992910  56.3019580 126.4979550  58.9773410
  56.5991910 127.4042380  58.8965430  56.8505140 126.0098330  58.3632980
  54.0557900 131.0765790  54.8465060  53.8298820 130.8602960  55.7511680
  53.2750430 131.5094250  54.5011030  56.4957110 131.9751370  65.5125330
  56.4000710 131.0346100  65.3625730  57.3389090 132.1966440  65.1173400
  59.8920530 129.7192700  55.4758990  60.2850100 130.0364900  54.6627680
  60.2537380 128.8404580  55.5903510  51.6267650 128.3865040  63.6659110
  51.2331040 129.2340250  63.8731890  50.9386050 127.7491410  63.8567750
  58.2012700 128.4700010  66.7355850  57.5111020 128.2772210  67.3701940
  58.9445000 128.7534650  67.2680150  48.9284700 126.3093500  57.6989190
  48.6397750 126.8796360  58.4114170  49.6730460 125.8297950  58.0620420
  49.1154930 130.2513620  48.9091910  49.0329600 131.1944380  49.0506900
  48.7637990 130.1088530  48.0304260  56.9153060 128.9852650  57.9762260
  56.9189120 128.5442600  57.1266800  57.8104180 129.3069980  58.0834080
  52.7655440 128.8679140  56.9356470  52.4255490 129.3454370  57.6923520
  52.0032760 128.4144260  56.5757570  56.9773210 129.9864730  50.9669020
  57.0986030 129.9451210  51.9154840  56.5921720 130.8488880  50.8115750
  60.9401580 127.7632130  58.9832710  60.9574320 128.2140780  59.8274560
  60.6917160 126.8637770  59.1966150  55.9894710 132.2965870  50.3652320
  55.4211610 131.8484120  49.7388230  56.6983710 132.6558650  49.8317470
  51.0663890 136.1977890  64.2419050  50.6818680 135.5571560  64.8402010
  51.3776080 136.9014010  64.8113780  57.2161030 133.0454430  59.7227670
  57.5831160 132.5713000  60.4689010  57.0266090 133.9196000  60.0636010
  50.0801520 127.7898120  55.8521140  49.7948440 127.4253790  56.6899760
  50.0180380 127.0578580  55.2384280  55.0060400 132.0863070  62.0411880
  54.7017470 132.9655050  62.2662240  55.9606860 132.1462860  62.0769320
  53.5342190 136.2924060  52.6378730  52.7604450 135.7521680  52.4777450
  54.2636820 135.7730670  52.2996490  64.2930170 135.2889420  58.4305120
  65.0129290 135.7844710  58.0401230  64.0911990 134.6107310  57.7858990
  59.6748970 135.3598480  64.3174120  59.6086280 134.4394150  64.0631710
  59.0454110 135.4573920  65.0318760  53.5779590 135.9604440  56.2757540
  54.0958260 135.1572700  56.2214430  53.1263610 135.8983580  57.1174370
  58.4649090 137.2270720  51.5484840  58.8064790 137.9712950  51.0528160
  57.6361800 137.5401840  51.9109670  51.0624130 132.9265810  63.1883240
  50.7039070 133.5919660  63.7756580  50.7678690 132.0949360  63.5595860
  54.2637250 133.3850050  66.0722790  53.9637390 133.5307230  65.1750610
  55.0348490 132.8255340  65.9796180  59.6065700 138.1819050  64.0677920
  59.6210240 137.2500010  63.8496830  58.8990800 138.2678810  64.7067690
  65.8176910 134.8226390  63.4146500  65.0925100 135.4155170  63.2175890
  66.3452370 134.8149930  62.6159870  65.7690020 139.2201130  53.0658660
  65.1266180 138.5656750  53.3402380  65.3820680 139.6256220  52.2899330
  61.3476500 136.5486560  56.9130350  61.7000320 135.9514690  56.2531720
  60.4638830 136.2230790  57.0838600  57.4339780 137.3084250  54.3200760
  58.1210910 137.8553460  54.7008350  56.6472200 137.8524980  54.3550370
  49.5732180 132.9257070  49.8117840  50.4427030 133.2081870  50.0953760
  49.0822500 133.7392940  49.6966650  56.7366990 134.3130280  53.9326120
  57.1929770 135.1235530  54.1586310  56.3855200 133.9953420  54.7644610
  59.0399600 139.8236620  61.1618420  59.6841820 140.0296000  61.8391840
  59.4029040 139.0625020  60.7089270  52.6378770 124.6567930  54.4048640
  52.5093400 124.6485830  55.3533560  51.8140790 124.9951020  54.0539650
  60.3131680 137.8268970  59.8795870  60.9553910 137.1262130  59.9928040
  60.8381030 138.6067410  59.6992760  64.1587400 138.1117590  49.6035010
  63.9324980 137.3948030  50.1959650  63.7683600 137.8630030  48.7656760
  62.0869300 138.6263870  63.0831930  62.4225540 139.2130560  63.7609850
  61.1669640 138.4956580  63.3129720  49.9403430 142.1384450  50.3779470
  50.3001070 142.7373790  49.7236740  49.7995770 142.6844340  51.1514500
  49.6372700 126.4159050  63.8655340  48.9231220 126.6155970  64.4707950
  50.0567740 125.6398620  64.2370140  63.7403650 136.0289530  51.2649170
  63.4525350 136.4902220  52.0527050  64.5355820 135.5687300  51.5333390
  49.9245290 140.4039310  64.8521870  50.0336410 139.4634050  64.7117260
  49.2725850 140.6694060  64.2035600  57.9157880 138.6755200  66.2519990
  57.5954750 137.9564440  66.7965680  57.2416240 139.3510270  66.3256050
  55.9572050 139.5215650  51.1953140  55.9482150 140.2545340  50.5797650
  55.0370410 139.2747230  51.2880100  51.5578690 134.7430540  51.9399900
  50.9506640 135.4829440  51.9495200  52.0328040 134.8329900  51.1138100
  61.1311480 128.9081360  61.6156790  61.4992300 128.0876570  61.9436360
  60.2709680 128.9683250  62.0312440  64.4973510 127.8638300  52.4244350
  63.8686670 127.9683970  51.7102580  64.0025430 128.0835080  53.2138230
  58.9431650 139.5843890  49.8578330  59.0443630 139.3807880  48.9280310
  58.0433390 139.3302170  50.0626110  56.4657540 130.1424250  53.8402230
  55.7573690 130.6110590  54.2815840  56.7502020 129.4846260  54.4747420
  58.0913470 131.5620950  61.8394760  58.5898720 132.0366770  62.5046610
  58.2336420 130.6384470  62.0464790  57.5849760 142.1030210  54.5526000
  57.8391260 142.0651600  53.6305370  56.6362240 141.9763540  54.5454250
  54.6692560 128.4509330  51.2152940  55.5183090 128.8879480  51.1493130
  54.3023830 128.7629590  52.0425000  65.2980330 127.7788910  62.6823150
  64.7953930 128.5194310  63.0216960  66.1136990 128.1672910  62.3659940
  53.5683980 134.7041690  49.6888470  54.3347250 134.5923050  50.2513900
  53.6458670 134.0079660  49.0365240  52.2630740 132.1366760  50.3721360
  52.3434330 131.1894270  50.4838760  53.1550490 132.4673640  50.4782020
  65.5927920 140.1930940  57.8038770  65.7175340 141.0162110  58.2762580
  66.4593480 139.9821670  57.4562920  53.0645450 142.2862150  57.4755900
  53.8007930 141.7377610  57.7464470  53.4486370 143.1518160  57.3361890
  49.9490930 138.3535720  53.3497410  49.0230710 138.5956860  53.3402820
  50.4147360 139.1809980  53.2282160  52.0703730 141.4708220  66.6641480
  52.8716460 141.7920270  67.0776880  51.5555550 141.1103800  67.3861390
  56.1747760 141.4592460  49.2981470  56.9676370 141.7481290  48.8463260
  55.6552110 141.0284630  48.6193950  60.9068360 137.5788090  66.6116890
  60.3006520 137.6019690  65.8712640  60.6022470 136.8471130  67.1484140
  62.3368730 141.3068380  65.2226300  63.2890480 141.2226400  65.1726540
  62.1896950 141.9710090  65.8960090  65.2277930 140.6862590  50.7218210
  64.9419440 140.2727730  49.9072390  65.0297480 141.6150300  50.6018730
  49.7901540 133.9581680  65.6077530  50.2940560 133.3788960  66.1793760
  49.0508960 134.2421910  66.1453900  56.6925160 136.6795870  49.1623820
  56.5875800 136.0648220  49.8885200  56.5249380 136.1561760  48.3786830
  56.8439480 135.3652670  65.1413050  56.0785150 135.9337670  65.0567720
  57.0255440 135.0728880  64.2481280  59.9327890 135.7415900  49.7665810
  59.3837990 136.1885200  50.4108550  60.5547150 135.2365150  50.2903480
  63.9862830 137.0958000  65.6988070  64.7272300 137.4333760  65.1955530
  63.2235510 137.2650060  65.1457840  55.6003010 134.7006820  51.6631110
  56.0219430 134.5346690  52.5062500  55.7253850 133.8907050  51.1686250
  53.7630430 130.6803370  64.4702090  53.2326890 130.1894320  63.8425430
  54.4318500 131.1087570  63.9360020  58.1130650 133.7244430  48.9108210
  58.6336310 133.0093450  48.5449360  58.7599050 134.3630300  49.2108720
  62.6608490 135.1472830  64.2343280  63.0749510 135.3017910  65.0833700
  61.7259490 135.2728050  64.3969060  63.1330660 132.4868990  66.2382430
  63.7151430 131.7321310  66.1502910  63.3092430 133.0176430  65.4613910
  54.2502730 127.6465740  64.5499380  54.1559600 127.0286490  63.8250250
  53.6700120 128.3732030  64.3229290  57.0164170 126.2038980  61.5826770
  56.5681470 126.2263240  60.7372320  56.3829370 125.8058000  62.1797070
  57.4223720 135.0993310  62.2039210  57.8411830 135.9426040  62.0315450
  56.5032350 135.2365350  61.9745990  59.7587620 132.8309490  63.5877050
  59.8783830 132.2350630  64.3271890  60.6181620 132.8679180  63.1678350
  62.0975520 133.3846680  62.1639560  61.5710740 133.9089300  61.5604700
  62.4406860 134.0174070  62.7949290  54.4961910 130.7740050  48.6089270
  54.2950970 129.9107410  48.9702610  54.3253960 130.6873410  47.6710870
  55.2731140 141.4046320  63.3196940  54.7352230 142.1292380  63.0005640
  55.5265100 140.9276660  62.5294280  56.5256390 129.3730840  64.8452870
  57.1156080 129.0646690  65.5330690  55.7076630 128.9010590  65.0012770
  61.3449820 128.9896650  65.0785890  60.6565340 128.3278190  65.0135880
  62.0655840 128.5434920  65.5234350  53.2944710 127.8740670  48.5967150
  53.5970610 127.8808100  47.6886300  54.0339300 127.5238530  49.0934810
  58.1293350 142.6397530  63.5783590  58.0552050 143.5432670  63.8855960
  57.2272190 142.3209430  63.5505660  58.6778680 141.8056040  51.2009950
  59.5729470 142.1441010  51.2228710  58.7096310 141.0835450  50.5734230
  52.3174840 137.1783090  49.4296950  52.7549710 137.7212760  50.0854530
  52.8022570 136.3530040  49.4393290  49.5320640 139.9672120  56.8817210
  49.8623650 139.0993180  56.6495850  49.9611640 140.1730640  57.7122170
  54.1282560 138.2981130  54.5419180  53.8278100 138.1746100  55.4423090
  54.0220050 137.4389720  54.1334910  50.0210850 140.8342710  59.6198840
  49.5841840 141.0143510  60.4522990  50.5888530 141.5917330  59.4780560
  65.6573030 140.3359710  63.9076150  65.0575020 140.3952270  63.1640070
  65.7866930 139.3964690  64.0373000  66.8974480 138.0777530  49.2445860
  66.0667440 138.1454180  49.7153090  67.0746310 138.9681650  48.9412720
  66.3530940 134.8225010  51.7480060  67.1149850 135.3921660  51.8539750
  66.3685310 134.2552210  52.5188370  49.8535280 133.3462940  55.9787720
  49.1984120 133.0774580  55.3347420  50.6913230 133.2367420  55.5289700
  67.3590910 135.6775110  56.5921990  67.7299740 134.8942430  56.1857960
  67.9992840 136.3664210  56.4139290  64.3424670 137.0611690  62.0052310
  63.5284510 137.4908850  62.2678100  64.7498870 137.6730100  61.3921360
  66.4050110 135.1159380  48.9052580  66.6798950 136.0238260  48.7771800
  66.2160850 135.0521910  49.8414570  50.8911210 133.7315510  60.5191060
  51.2584250 133.6442910  61.3987080  50.3222030 132.9682060  60.4197920
  50.4427210 130.6424600  64.4249480  49.5483260 130.6091360  64.7643190
  50.9824760 130.8411390  65.1900730  64.1303140 127.4256320  66.3101230
  65.0073320 127.4339720  66.6935230  64.1423980 126.6887160  65.6993580
  49.0673360 130.5561870  51.9213050  48.1637440 130.8192070  51.7464710
  49.5513980 130.8273040  51.1413010  51.6100570 129.6127410  49.8307430
  52.3192270 129.1910630  49.3454710  50.8940510 129.6802640  49.1990780
  51.2574730 125.6666740  48.8710080  51.9802860 126.2075680  49.1891300
  51.5299250 125.3930160  47.9951620  50.9466920 124.9172930  58.7732700
  51.5943110 124.3670310  58.3327860  51.3668760 125.1716080  59.5948510
  67.3843810 127.0028080  48.9125480  68.3093120 126.8709260  48.7043770
  67.3619600 127.0820900  49.8661930  67.4582300 127.7738740  51.5382190
  66.6633800 127.7083860  52.0675100  67.6625580 128.7089380  51.5267540
  64.4000720 141.8130290  55.5320580  64.9959790 141.4914860  54.8555000
  64.6578870 141.3402110  56.3233850  50.6998920 125.0728600  61.5158020
  50.3513740 125.5292420  62.2816200  50.3686620 124.1785730  61.5980450
  52.3063290 138.2448200  65.6811210  52.2632920 137.8741110  66.5625670
  52.4374300 139.1825770  65.8213030  56.0069320 139.8007790  61.2820930
  55.7660680 140.0682350  60.3951450  56.9471960 139.9713520  61.3371790
  58.2123740 126.2640480  65.0377440  58.1512630 126.8562310  65.7872850
  59.1524120 126.1566440  64.8927700  67.2673480 141.8202170  62.0831570
  66.7731760 142.2171040  61.3658700  66.6586770 141.1951380  62.4768850
  51.3719560 124.6004800  64.7908790  51.9202550 124.4192850  64.0274900
  51.4374870 123.8098910  65.3265100  52.1451320 141.1910450  62.8008990
  51.5511640 141.0595150  63.5399030  52.1375160 140.3548590  62.3351090
  64.9512930 142.4625590  59.3618310  64.4915900 143.2141400  58.9876330
  64.3225390 141.7432060  59.3033110  51.7763550 138.5568830  61.7517030
  51.0497610 137.9374120  61.6842980  51.8372700 138.9509440  60.8815110
  55.3808650 140.7713830  58.5366440  55.8973670 140.1601190  58.0114700
  56.0306030 141.2742610  59.0277450  58.1204150 141.6622320  59.3635420
  58.4081960 141.4076620  58.4868430  58.6327370 141.1099680  59.9540990
  65.7540800 125.7350860  55.9989840  65.6929200 124.7912080  55.8520860
  66.5332830 125.8430950  56.5443300  50.0593550 141.8743220  54.9613790
  49.8915590 141.2413900  55.6595680  49.1928060 142.0802620  54.6107980
  50.6821570 125.7060000  52.4645650  51.4400930 125.8188880  51.8909680
  50.2198740 126.5429200  52.4189080  64.8694960 124.8863280  51.9671310
  65.0645590 125.7846730  52.2338740  64.0824830 124.6550360  52.4604260
  51.6656250 140.5676450  52.4063930  51.1403870 140.9484480  51.7025890
  51.5900830 141.1927220  53.1273640  53.0546720 126.2324050  51.0047620
  53.5839480 125.4453850  50.8755570  53.6875040 126.9115240  51.2383150
  58.1876510 142.5838420  66.7303620  59.1143820 142.3482690  66.7739580
  58.1726940 143.4110420  66.2489650  66.4221570 142.1263990  53.7277870
  66.5973760 141.4401730  53.0838790  65.7243140 142.6511040  53.3354540
  55.3740120 125.2483170  66.4945500  55.0924390 125.7516770  65.7306320
  55.7559820 124.4504920  66.1287630  54.2649220 142.5158830  51.2813180
  54.9968040 142.2318110  50.7337070  54.5242890 142.2772110  52.1712560
  53.4264010 138.6323560  51.2859510  52.7972890 139.1008660  51.8345340
  53.5411840 137.7872780  51.7205700  61.9755580 124.6636750  67.0725970
  61.8621030 124.9831360  67.9677490  62.7925320 125.0649260  66.7763250
  64.7554070 141.8108280  66.5544660  65.5479390 141.3157510  66.3470620
  65.0487220 142.4898420  67.1620270  60.8813730 132.6829220  37.4360710
  60.8007780 131.7683830  37.1652420  60.4678150 133.1796290  36.7300420
  59.0131770 134.4608240  39.3169980  58.2373870 133.9808680  39.6068550
  59.6644700 133.7813890  39.1426140  53.0297600 134.7728050  40.1945740
  52.1982480 134.5176760  40.5942250  53.6378580 134.8438820  40.9303660
  63.0339200 138.8668430  38.0969110  62.5720730 138.0955670  38.4256280
  63.8464750 138.8934500  38.6021560  53.0098860 138.8068140  40.3903760
  53.3126900 137.9165880  40.2113980  53.7542450 139.3638360  40.1626010
  51.4389550 129.7329940  33.9788130  50.5506250 130.0745910  33.8768010
  51.7230740 129.5330260  33.0868960  49.4022560 132.3335590  39.8627830
  49.9738670 131.5657790  39.8631470  49.4024100 132.6324350  38.9534440
  59.2602510 141.1526440  37.7173100  58.6413950 141.6083940  37.1467540
  60.1154290 141.3077900  37.3162800  58.4540760 137.1365430  39.3240140
  58.3849040 136.1955370  39.1629270  59.2160620 137.2266840  39.8962710
  50.6447430 127.7419950  41.6496760  50.4650270 126.8445700  41.9299520
  50.2427510 128.2891820  42.3243710  59.4845930 129.9435810  39.5509070
  59.8610750 129.0707690  39.4382740  59.3865440 130.2794510  38.6599510
  53.6150940 128.3161440  35.0126510  53.7217690 129.2165170  35.3195270
  52.7043300 128.2679410  34.7221160  63.2670050 127.4386250  36.4837410
  64.0879670 126.9482820  36.5262890  63.3004130 128.0283910  37.2369250
  51.2634100 130.2380450  40.2579100  51.9444210 130.5018820  40.8766500
  50.9482150 129.3981320  40.5917110  55.4558670 131.2847810  39.3451690
  55.9636890 131.7828780  39.9856710  55.9871910 130.5083010  39.1691050
  67.5569600 129.4553000  43.0481040  66.8521770 129.8434710  42.5296150
  67.8227520 130.1503290  43.6501970  53.7394770 125.9246370  43.6115110
  53.7413210 126.4418760  42.8061010  52.9099080 125.4476550  43.5885040
  60.1265860 136.0365680  35.1105010  59.5083130 136.5015130  34.5467730
  60.6389110 136.7293160  35.5274520  54.9897620 135.5641550  41.7888610
  54.6567000 136.1910470  42.4309680  55.1664300 136.0903430  41.0090280
  63.5031530 129.3786630  39.2564950  62.7987100 129.6671520  39.8368060
  63.8643690 130.1886740  38.8964510  53.4210100 127.6356330  41.6185560
  53.7626910 128.4798380  41.3239430  52.4825910 127.7840070  41.7350900
  54.2016720 137.5322350  43.6037790  54.8190720 138.2073430  43.3222240
  53.3409840 137.9410330  43.5125290  49.4949060 136.7222210  32.4844640
  49.1177040 137.2109310  31.7529540  49.7522130 137.3947490  33.1151170
  65.1194310 138.9961760  41.5192430  64.4357830 139.6660870  41.5109100
  65.6588600 139.1942410  40.7537290  66.5718450 128.8241420  39.6474160
  65.6243360 128.8580400  39.7789590  66.8968440 129.6380370  40.0323520
  57.1037990 125.1238600  37.9430150  57.4112970 124.5685490  37.2265650
  56.1738690 125.2583060  37.7603140  62.6553050 140.8405890  40.2337610
  62.6680210 140.4368180  39.3659870  62.1028270 141.6153180  40.1299040
  63.9498470 137.5622110  35.3227780  63.8394800 136.6196440  35.4477200
  63.9466720 137.9237750  36.2090540  62.0538490 135.7435730  41.5620220
  62.4707280 135.5295840  40.7273680  62.7778310 136.0008520  42.1328840
  59.4918750 133.1887430  34.6790270  58.5648030 133.1224810  34.9078740
  59.6443570 134.1267560  34.5645510  59.4787830 129.4604430  31.6757430
  58.5391500 129.6218390  31.7609890  59.7971090 130.1790110  31.1293420
  66.0000590 134.1422950  41.6536460  65.1719220 134.2116040  41.1786590
  66.5951070 134.7277260  41.1852290  63.5216040 134.7507730  35.1825520
  62.9028460 134.4127280  34.5351820  63.5040490 134.1067490  35.8904710
  62.9642600 130.9292270  42.5991330  62.5513780 131.7545980  42.8531320
  62.2318550 130.3437310  42.4067690  55.0975390 133.7152170  37.4610000
  54.6932390 133.0029420  36.9655900  55.1838510 133.3705410  38.3498040
  55.5657090 137.4019730  39.6249210  55.2685380 136.7965200  38.9456990
  56.5156910 137.4397040  39.5138570  53.8104010 130.4895380  41.2409040
  54.3618600 130.5990720  40.4662290  54.3247520 130.8632980  41.9564270
  63.6542700 140.9751600  43.2872310  63.1773260 141.7823790  43.0944920
  62.9704490 140.3229930  43.4398520  54.6575520 137.1401420  46.2757010
  53.7604050 137.3641390  46.5230410  54.6828390 137.2636360  45.3268410
  61.6980740 133.9894540  32.1898270  62.1374020 133.1516970  32.0436090
  62.4109160 134.6223940  32.2762410  53.4846740 134.0114740  44.8514380
  53.3454510 134.8837540  45.2201780  52.6028100 133.6687550  44.7062320
  59.8076120 138.9290610  36.1579510  60.2472030 139.6714940  35.7434900
  59.7463010 139.1717180  37.0818470  55.2827090 139.9536440  47.0599530
  55.2542520 140.3579390  46.1927960  55.1192060 139.0246800  46.8971130
  65.2797880 125.2437350  30.5039310  64.9670540 125.3364180  31.4038380
  66.0410350 125.8218380  30.4536740  51.7980020 132.6097150  34.9616650
  51.6777620 133.3359240  34.3497920  51.4880910 131.8400060  34.4844560
  67.2341910 140.7363540  48.3563700  67.7101630 141.2146430  49.0352780
  67.8549070 140.6681030  47.6309200  49.4365390 135.7812290  40.7685290
  49.5145810 135.9161060  39.8241010  50.0507070 135.0728180  40.9613410
  50.6813020 137.4812480  37.1791470  50.2741100 137.6227070  36.3245070
  51.5726030 137.1972640  36.9762680  66.6375160 137.9276390  45.5163710
  66.7638220 137.6888270  44.5980890  66.6796540 137.0960930  45.9885790
  60.4991900 141.6304390  44.0858520  61.0136570 141.5412400  44.8880950
  59.6560980 141.9764090  44.3786430  62.4746300 141.9159730  33.5142520
  62.3147440 141.6262670  34.4124350  62.3093010 141.1399860  32.9787750
  54.9534680 141.6958260  35.2914140  54.7777160 140.7793800  35.0781940
  54.0990420 142.0545550  35.5311940  62.1772430 139.4247290  32.0740520
  61.4837590 139.4224580  31.4142800  62.9195290 139.0006610  31.6434690
  61.7422360 141.0510000  36.1489010  62.1979310 140.2699380  36.4627630
  62.0814880 141.7616820  36.6930190  66.4899170 129.9808850  46.4813450
  65.8743440 130.4888520  45.9528910  66.1695590 129.0807180  46.4239390
  49.4924910 136.8226460  43.3079750  49.6555950 136.3531820  42.4899120
  49.9577360 136.3150020  43.9728590  54.2643680 125.9532220  38.3440320
  53.8211830 126.7341760  38.0124840  54.8228670 126.2762110  39.0511260
  58.5513490 128.8200740  43.9475640  58.0892860 129.0283760  44.7595580
  58.1491600 128.0060090  43.6446310  57.3802500 125.5742920  33.2246150
  56.7556680 125.5702790  33.9499460  57.2932620 124.7073880  32.8282120
  56.3019580 126.4979550  40.2029920  56.5991910 127.4042380  40.1221940
  56.8505140 126.0098330  39.5889490  54.0557900 131.0765790  36.0721570
  53.8298820 130.8602960  36.9768190  53.2750430 131.5094250  35.7267540
  61.2855660 131.0829160  34.6712220  60.6864550 131.8064960  34.4875840
  61.8335270 131.0205940  33.8888670  56.4957110 131.9751370  46.7381840
  56.4000710 131.0346100  46.5882240  57.3389090 132.1966440  46.3429910
  59.8920530 129.7192700  36.7015500  60.2850100 130.0364900  35.8884190
  60.2537380 128.8404580  36.8160020  51.6267650 128.3865040  44.8915620
  51.2331040 129.2340250  45.0988400  50.9386050 127.7491410  45.0824260
  48.9284700 126.3093500  38.9245700  48.6397750 126.8796360  39.6370680
  49.6730460 125.8297950  39.2876930  49.1154930 130.2513620  30.1348420
  49.0329600 131.1944380  30.2763410  48.7637990 130.1088530  29.2560770
  60.4775670 132.3098450  40.7966280  59.7456790 132.8185260  41.1456380
  60.0800010 131.4928430  40.4955060  56.9153060 128.9852650  39.2018770
  56.9189120 128.5442600  38.3523310  57.8104180 129.3069980  39.3090590
  52.7655440 128.8679140  38.1612980  52.4255490 129.3454370  38.9180030
  52.0032760 128.4144260  37.8014080  56.9773210 129.9864730  32.1925530
  57.0986030 129.9451210  33.1411350  56.5921720 130.8488880  32.0372260
  60.9401580 127.7632130  40.2089220  60.9574320 128.2140780  41.0531070
  60.6917160 126.8637770  40.4222660  55.9894710 132.2965870  31.5908830
  55.4211610 131.8484120  30.9644740  56.6983710 132.6558650  31.0573980
  64.3672330 125.1764310  46.0475600  64.6918100 124.4453970  46.5733580
  64.4028840 124.8577950  45.1456590  51.0663890 136.1977890  45.4675560
  50.6818680 135.5571560  46.0658520  51.3776080 136.9014010  46.0370290
  57.2161030 133.0454430  40.9484180  57.5831160 132.5713000  41.6945520
  57.0266090 133.9196000  41.2892520  50.0801520 127.7898120  37.0777650
  49.7948440 127.4253790  37.9156270  50.0180380 127.0578580  36.4640790
  55.0060400 132.0863070  43.2668390  54.7017470 132.9655050  43.4918750
  55.9606860 132.1462860  43.3025830  53.5342190 136.2924060  33.8635240
  52.7604450 135.7521680  33.7033960  54.2636820 135.7730670  33.5253000
  64.2930170 135.2889420  39.6561630  65.0129290 135.7844710  39.2657740
  64.0911990 134.6107310  39.0115500  59.7540110 126.6827380  33.7991020
  58.9404720 126.1840550  33.7236330  59.5602060 127.5225630  33.3827370
  59.6748970 135.3598480  45.5430630  59.6086280 134.4394150  45.2888220
  59.0454110 135.4573920  46.2575270  62.4688500 131.0547030  32.0953180
  63.3568120 131.3664260  31.9204520  62.4393590 130.1819280  31.7033760
  53.5779590 135.9604440  37.5014050  54.0958260 135.1572700  37.4470940
  53.1263610 135.8983580  38.3430880  58.4649090 137.2270720  32.7741350
  58.8064790 137.9712950  32.2784670  57.6361800 137.5401840  33.1366180
  51.0624130 132.9265810  44.4139750  50.7039070 133.5919660  45.0013090
  50.7678690 132.0949360  44.7852370  54.2637250 133.3850050  47.2979300
  53.9637390 133.5307230  46.4007120  55.0348490 132.8255340  47.2052690
  59.6065700 138.1819050  45.2934430  59.6210240 137.2500010  45.0753340
  58.8990800 138.2678810  45.9324200  64.7402770 132.3658870  31.5633040
  64.6566490 132.7973090  30.7129480  65.4596960 132.8257220  31.9959860
  65.8176910 134.8226390  44.6403010  65.0925100 135.4155170  44.4432400
  66.3452370 134.8149930  43.8416380  65.7690020 139.2201130  34.2915170
  65.1266180 138.5656750  34.5658890  65.3820680 139.6256220  33.5155840
  61.3476500 136.5486560  38.1386860  61.7000320 135.9514690  37.4788230
  60.4638830 136.2230790  38.3095110  57.4339780 137.3084250  35.5457270
  58.1210910 137.8553460  35.9264860  56.6472200 137.8524980  35.5806880
  49.5732180 132.9257070  31.0374350  50.4427030 133.2081870  31.3210270
  49.0822500 133.7392940  30.9223160  56.7366990 134.3130280  35.1582630
  57.1929770 135.1235530  35.3842820  56.3855200 133.9953420  35.9901120
  59.0399600 139.8236620  42.3874930  59.6841820 140.0296000  43.0648350
  59.4029040 139.0625020  41.9345780  52.6378770 124.6567930  35.6305150
  52.5093400 124.6485830  36.5790070  51.8140790 124.9951020  35.2796160
  60.3131680 137.8268970  41.1052380  60.9553910 137.1262130  41.2184550
  60.8381030 138.6067410  40.9249270  64.1587400 138.1117590  30.8291520
  63.9324980 137.3948030  31.4216160  63.7683600 137.8630030  29.9913270
  62.0869300 138.6263870  44.3088440  62.4225540 139.2130560  44.9866360
  61.1669640 138.4956580  44.5386230  49.9403430 142.1384450  31.6035980
  50.3001070 142.7373790  30.9493250  49.7995770 142.6844340  32.3771010
  49.6372700 126.4159050  45.0911850  48.9231220 126.6155970  45.6964460
  50.0567740 125.6398620  45.4626650  63.7403650 136.0289530  32.4905680
  63.4525350 136.4902220  33.2783560  64.5355820 135.5687300  32.7589900
  49.9245290 140.4039310  46.0778380  50.0336410 139.4634050  45.9373770
  49.2725850 140.6694060  45.4292110  57.9157880 138.6755200  47.4776500
  57.5954750 137.9564440  48.0222190  57.2416240 139.3510270  47.5512560
  55.9572050 139.5215650  32.4209650  55.9482150 140.2545340  31.8054160
  55.0370410 139.2747230  32.5136610  51.5578690 134.7430540  33.1656410
  50.9506640 135.4829440  33.1751710  52.0328040 134.8329900  32.3394610
  61.1311480 128.9081360  42.8413300  61.4992300 128.0876570  43.1692870
  60.2709680 128.9683250  43.2568950  64.4973510 127.8638300  33.6500860
  63.8686670 127.9683970  32.9359090  64.0025430 128.0835080  34.4394740
  58.9431650 139.5843890  31.0834840  59.0443630 139.3807880  30.1536820
  58.0433390 139.3302170  31.2882620  56.4657540 130.1424250  35.0658740
  55.7573690 130.6110590  35.5072350  56.7502020 129.4846260  35.7003930
  58.0913470 131.5620950  43.0651270  58.5898720 132.0366770  43.7303120
  58.2336420 130.6384470  43.2721300  60.4972970 126.8674910  36.5054530
  60.3740750 126.8861040  35.5564040  61.4457530 126.9153850  36.6252930
  57.5849760 142.1030210  35.7782510  57.8391260 142.0651600  34.8561880
  56.6362240 141.9763540  35.7710760  54.6692560 128.4509330  32.4409450
  55.5183090 128.8879480  32.3749640  54.3023830 128.7629590  33.2681510
  65.2980330 127.7788910  43.9079660  64.7953930 128.5194310  44.2473470
  66.1136990 128.1672910  43.5916450  63.5902340 133.0222090  37.3541020
  62.6492480 133.0372320  37.5288710  63.9046410 132.2358050  37.8001320
  53.5683980 134.7041690  30.9144980  54.3347250 134.5923050  31.4770410
  53.6458670 134.0079660  30.2621750  52.2630740 132.1366760  31.5977870
  52.3434330 131.1894270  31.7095270  53.1550490 132.4673640  31.7038530
  65.5927920 140.1930940  39.0295280  65.7175340 141.0162110  39.5019090
  66.4593480 139.9821670  38.6819430  53.0645450 142.2862150  38.7012410
  53.8007930 141.7377610  38.9720980  53.4486370 143.1518160  38.5618400
  49.9490930 138.3535720  34.5753920  49.0230710 138.5956860  34.5659330
  50.4147360 139.1809980  34.4538670  52.0703730 141.4708220  47.8897990
  52.8716460 141.7920270  48.3033390  51.5555550 141.1103800  48.6117900
  56.1747760 141.4592460  30.5237980  56.9676370 141.7481290  30.0719770
  55.6552110 141.0284630  29.8450460  60.9068360 137.5788090  47.8373400
  60.3006520 137.6019690  47.0969150  60.6022470 136.8471130  48.3740650
  62.3368730 141.3068380  46.4482810  63.2890480 141.2226400  46.3983050
  62.1896950 141.9710090  47.1216600  65.2277930 140.6862590  31.9474720
  64.9419440 140.2727730  31.1328900  65.0297480 141.6150300  31.8275240
  49.7901540 133.9581680  46.8334040  50.2940560 133.3788960  47.4050270
  49.0508960 134.2421910  47.3710410  56.6925160 136.6795870  30.3880330
  56.5875800 136.0648220  31.1141710  56.5249380 136.1561760  29.6043340
  56.8439480 135.3652670  46.3669560  56.0785150 135.9337670  46.2824230
  57.0255440 135.0728880  45.4737790  59.9327890 135.7415900  30.9922320
  59.3837990 136.1885200  31.6365060  60.5547150 135.2365150  31.5159990
  63.9862830 137.0958000  46.9244580  64.7272300 137.4333760  46.4212040
  63.2235510 137.2650060  46.3714350  51.8224620 132.1011270  47.7284110
  51.8629960 131.8025140  48.6369340  52.6770120 132.5018880  47.5691630
  55.6003010 134.7006820  32.8887620  56.0219430 134.5346690  33.7319010
  55.7253850 133.8907050  32.3942760  53.7630430 130.6803370  45.6958600
  53.2326890 130.1894320  45.0681940  54.4318500 131.1087570  45.1616530
  58.1130650 133.7244430  30.1364720  58.6336310 133.0093450  29.7705870
  58.7599050 134.3630300  30.4365230  62.6608490 135.1472830  45.4599790
  63.0749510 135.3017910  46.3090210  61.7259490 135.2728050  45.6225570
  54.2502730 127.6465740  45.7755890  54.1559600 127.0286490  45.0506760
  53.6700120 128.3732030  45.5485800  57.0164170 126.2038980  42.8083280
  56.5681470 126.2263240  41.9628830  56.3829370 125.8058000  43.4053580
  57.4223720 135.0993310  43.4295720  57.8411830 135.9426040  43.2571960
  56.5032350 135.2365350  43.2002500  59.7587620 132.8309490  44.8133560
  59.8783830 132.2350630  45.5528400  60.6181620 132.8679180  44.3934860
  62.0975520 133.3846680  43.3896070  61.5710740 133.9089300  42.7861210
  62.4406860 134.0174070  44.0205800  54.4961910 130.7740050  29.8345780
  54.2950970 129.9107410  30.1959120  54.3253960 130.6873410  28.8967380
  55.2731140 141.4046320  44.5453450  54.7352230 142.1292380  44.2262150
  55.5265100 140.9276660  43.7550790  56.5256390 129.3730840  46.0709380
  57.1156080 129.0646690  46.7587200  55.7076630 128.9010590  46.2269280
  61.9750220 125.5848280  32.3632660  62.2552510 124.7416180  32.7192080
  61.2015950 125.8171390  32.8771410  53.2944710 127.8740670  29.8223660
  53.5970610 127.8808100  28.9142810  54.0339300 127.5238530  30.3191320
  58.1293350 142.6397530  44.8040100  58.0552050 143.5432670  45.1112470
  57.2272190 142.3209430  44.7762170  56.5129640 126.8175290  30.8079860
  56.1651640 126.1399280  30.2282310  56.7142410 126.3564800  31.6223250
  58.6778680 141.8056040  32.4266460  59.5729470 142.1441010  32.4485220
  58.7096310 141.0835450  31.7990740  52.3174840 137.1783090  30.6553460
  52.7549710 137.7212760  31.3111040  52.8022570 136.3530040  30.6649800
  49.5320640 139.9672120  38.1073720  49.8623650 139.0993180  37.8752360
  49.9611640 140.1730640  38.9378680  54.1282560 138.2981130  35.7675690
  53.8278100 138.1746100  36.6679600  54.0220050 137.4389720  35.3591420
  50.0210850 140.8342710  40.8455350  49.5841840 141.0143510  41.6779500
  50.5888530 141.5917330  40.7037070  65.6573030 140.3359710  45.1332660
  65.0575020 140.3952270  44.3896580  65.7866930 139.3964690  45.2629510
  66.8974480 138.0777530  30.4702370  66.0667440 138.1454180  30.9409600
  67.0746310 138.9681650  30.1669230  66.3530940 134.8225010  32.9736570
  67.1149850 135.3921660  33.0796260  66.3685310 134.2552210  33.7444880
  49.8535280 133.3462940  37.2044230  49.1984120 133.0774580  36.5603930
  50.6913230 133.2367420  36.7546210  67.3590910 135.6775110  37.8178500
  67.7299740 134.8942430  37.4114470  67.9992840 136.3664210  37.6395800
  64.3424670 137.0611690  43.2308820  63.5284510 137.4908850  43.4934610
  64.7498870 137.6730100  42.6177870  66.4050110 135.1159380  30.1309090
  66.6798950 136.0238260  30.0028310  66.2160850 135.0521910  31.0671080
  62.8025720 128.1404230  31.4262720  63.2210600 127.9535210  30.5859380
  62.4961780 127.2883280  31.7365650  66.3015450 133.0528370  35.1238520
  65.9259050 132.2856300  34.6919810  65.5718570 133.4351070  35.6113450
  50.8911210 133.7315510  41.7447570  51.2584250 133.6442910  42.6243590
  50.3222030 132.9682060  41.6454430  65.6915070 132.1999890  44.7578040
  65.4601160 131.9712640  43.8575990  65.9519620 133.1199440  44.7122930
  50.4427210 130.6424600  45.6505990  49.5483260 130.6091360  45.9899700
  50.9824760 130.8411390  46.4157240  49.0673360 130.5561870  33.1469560
  48.1637440 130.8192070  32.9721220  49.5513980 130.8273040  32.3669520
  65.5766410 131.2785860  38.4245760  66.1003890 130.7848510  37.7935930
  66.1625830 131.4136220  39.1693330  65.7556130 131.3625730  41.9465310
  64.8058840 131.3289270  42.0610300  65.9369140 132.2725840  41.7115080
  51.6100570 129.6127410  31.0563940  52.3192270 129.1910630  30.5711220
  50.8940510 129.6802640  30.4247290  51.2574730 125.6666740  30.0966590
  51.9802860 126.2075680  30.4147810  51.5299250 125.3930160  29.2208130
  65.0666380 130.5359210  34.3638170  65.5625500 130.3030080  35.1487050
  64.8682450 129.6971050  33.9475810  50.9466920 124.9172930  39.9989210
  51.5943110 124.3670310  39.5584370  51.3668760 125.1716080  40.8205020
  66.4953540 129.1720160  36.8975850  66.3852820 129.0176200  37.8358120
  67.2561130 128.6441100  36.6551260  64.8419260 125.1114290  43.3558850
  65.4791480 125.7248430  43.7218040  64.9894150 125.1474950  42.4108080
  67.3843810 127.0028080  30.1381990  68.3093120 126.8709260  29.9300280
  67.3619600 127.0820900  31.0918440  67.4582300 127.7738740  32.7638700
  66.6633800 127.7083860  33.2931610  67.6625580 128.7089380  32.7524050
  64.4000720 141.8130290  36.7577090  64.9959790 141.4914860  36.0811510
  64.6578870 141.3402110  37.5490360  50.6998920 125.0728600  42.7414530
  50.3513740 125.5292420  43.5072710  50.3686620 124.1785730  42.8236960
  52.3063290 138.2448200  46.9067720  52.2632920 137.8741110  47.7882180
  52.4374300 139.1825770  47.0469540  56.0069320 139.8007790  42.5077440
  55.7660680 140.0682350  41.6207960  56.9471960 139.9713520  42.5628300
  58.2123740 126.2640480  46.2633950  58.1512630 126.8562310  47.0129360
  59.1524120 126.1566440  46.1184210  67.2673480 141.8202170  43.3088080
  66.7731760 142.2171040  42.5915210  66.6586770 141.1951380  43.7025360
  51.3719560 124.6004800  46.0165300  51.9202550 124.4192850  45.2531410
  51.4374870 123.8098910  46.5521610  52.1451320 141.1910450  44.0265500
  51.5511640 141.0595150  44.7655540  52.1375160 140.3548590  43.5607600
  61.5906340 124.4842680  42.2295530  60.7166180 124.8177790  42.0268460
  61.4817090 124.0115860  43.0547400  62.4978320 126.6913550  43.6137250
  62.1691680 125.8765310  43.2338980  63.4460620 126.6483360  43.4902940
  64.9512930 142.4625590  40.5874820  64.4915900 143.2141400  40.2132840
  64.3225390 141.7432060  40.5289620  51.7763550 138.5568830  42.9773540
  51.0497610 137.9374120  42.9099490  51.8372700 138.9509440  42.1071620
  55.3808650 140.7713830  39.7622950  55.8973670 140.1601190  39.2371210
  56.0306030 141.2742610  40.2533960  58.1204150 141.6622320  40.5891930
  58.4081960 141.4076620  39.7124940  58.6327370 141.1099680  41.1797500
  59.3381160 125.4012520  41.1688440  58.5552950 125.8758020  41.4485200
  59.0444090 124.4967350  41.0601620  63.8902230 126.1035620  39.2137530
  64.3310320 126.0480720  38.3659130  63.6209820 127.0193630  39.2847710
  65.7540800 125.7350860  37.2246350  65.6929200 124.7912080  37.0777370
  66.5332830 125.8430950  37.7699810  50.0593550 141.8743220  36.1870300
  49.8915590 141.2413900  36.8852190  49.1928060 142.0802620  35.8364490
  50.6821570 125.7060000  33.6902160  51.4400930 125.8188880  33.1166190
  50.2198740 126.5429200  33.6445590  57.2235380 127.8199270  36.6804470
  56.4109890 127.4456160  36.3400350  57.7277020 127.0644350  36.9825660
  61.7260360 124.4841720  37.9187540  62.3289730 125.0561930  38.3936060
  60.9853350 125.0481160  37.6961440  64.8694960 124.8863280  33.1927820
  65.0645590 125.7846730  33.4595250  64.0824830 124.6550360  33.6860770
  51.6656250 140.5676450  33.6320440  51.1403870 140.9484480  32.9282400
  51.5900830 141.1927220  34.3530150  53.0546720 126.2324050  32.2304130
  53.5839480 125.4453850  32.1012080  53.6875040 126.9115240  32.4639660
  55.2484560 125.9699190  35.2849520  54.6187300 125.2686500  35.4519650
  54.7089700 126.7303320  35.0682680  58.1876510 142.5838420  47.9560130
  59.1143820 142.3482690  47.9996090  58.1726940 143.4110420  47.4746160
  66.4221570 142.1263990  34.9534380  66.5973760 141.4401730  34.3095300
  65.7243140 142.6511040  34.5611050  55.3740120 125.2483170  47.7202010
  55.0924390 125.7516770  46.9562830  55.7559820 124.4504920  47.3544140
  54.2649220 142.5158830  32.5069690  54.9968040 142.2318110  31.9593580
  54.5242890 142.2772110  33.3969070  53.4264010 138.6323560  32.5116020
  52.7972890 139.1008660  33.0601850  53.5411840 137.7872780  32.9462210
  61.9755580 124.6636750  48.2982480  61.8621030 124.9831360  49.1934000
  62.7925320 125.0649260  48.0019760  64.7554070 141.8108280  47.7801170
  65.5479390 141.3157510  47.5727130  65.0487220 142.4898420  48.3876780
  60.8813730 132.6829220  18.6617220  60.8007780 131.7683830  18.3908930
  60.4678150 133.1796290  17.9556930  59.0131770 134.4608240  20.5426490
  58.2373870 133.9808680  20.8325060  59.6644700 133.7813890  20.3682650
  53.0297600 134.7728050  21.4202250  52.1982480 134.5176760  21.8198760
  53.6378580 134.8438820  22.1560170  63.0339200 138.8668430  19.3225620
  62.5720730 138.0955670  19.6512790  63.8464750 138.8934500  19.8278070
  53.0098860 138.8068140  21.6160270  53.3126900 137.9165880  21.4370490
  53.7542450 139.3638360  21.3882520  51.4389550 129.7329940  15.2044640
  50.5506250 130.0745910  15.1024520  51.7230740 129.5330260  14.3125470
  49.4022560 132.3335590  21.0884340  49.9738670 131.5657790  21.0887980
  49.4024100 132.6324350  20.1790950  59.2602510 141.1526440  18.9429610
  58.6413950 141.6083940  18.3724050  60.1154290 141.3077900  18.5419310
  58.4540760 137.1365430  20.5496650  58.3849040 136.1955370  20.3885780
  59.2160620 137.2266840  21.1219220  50.6447430 127.7419950  22.8753270
  50.4650270 126.8445700  23.1556030  50.2427510 128.2891820  23.5500220
  59.4845930 129.9435810  20.7765580  59.8610750 129.0707690  20.6639250
  59.3865440 130.2794510  19.8856020  53.6150940 128.3161440  16.2383020
  53.7217690 129.2165170  16.5451780  52.7043300 128.2679410  15.9477670
  63.2670050 127.4386250  17.7093920  64.0879670 126.9482820  17.7519400
  63.3004130 128.0283910  18.4625760  51.2634100 130.2380450  21.4835610
  51.9444210 130.5018820  22.1023010  50.9482150 129.3981320  21.8173620
  55.4558670 131.2847810  20.5708200  55.9636890 131.7828780  21.2113220
  55.9871910 130.5083010  20.3947560  67.5569600 129.4553000  24.2737550
  66.8521770 129.8434710  23.7552660  67.8227520 130.1503290  24.8758480
  53.7394770 125.9246370  24.8371620  53.7413210 126.4418760  24.0317520
  52.9099080 125.4476550  24.8141550  60.1265860 136.0365680  16.3361520
  59.5083130 136.5015130  15.7724240  60.6389110 136.7293160  16.7531030
  54.9897620 135.5641550  23.0145120  54.6567000 136.1910470  23.6566190
  55.1664300 136.0903430  22.2346790  63.5031530 129.3786630  20.4821460
  62.7987100 129.6671520  21.0624570  63.8643690 130.1886740  20.1221020
  53.4210100 127.6356330  22.8442070  53.7626910 128.4798380  22.5495940
  52.4825910 127.7840070  22.9607410  54.2016720 137.5322350  24.8294300
  54.8190720 138.2073430  24.5478750  53.3409840 137.9410330  24.7381800
  49.4949060 136.7222210  13.7101150  49.1177040 137.2109310  12.9786050
  49.7522130 137.3947490  14.3407680  65.1194310 138.9961760  22.7448940
  64.4357830 139.6660870  22.7365610  65.6588600 139.1942410  21.9793800
  66.5718450 128.8241420  20.8730670  65.6243360 128.8580400  21.0046100
  66.8968440 129.6380370  21.2580030  57.1037990 125.1238600  19.1686660
  57.4112970 124.5685490  18.4522160  56.1738690 125.2583060  18.9859650
  62.6553050 140.8405890  21.4594120  62.6680210 140.4368180  20.5916380
  62.1028270 141.6153180  21.3555550  63.9498470 137.5622110  16.5484290
  63.8394800 136.6196440  16.6733710  63.9466720 137.9237750  17.4347050
  62.0538490 135.7435730  22.7876730  62.4707280 135.5295840  21.9530190
  62.7778310 136.0008520  23.3585350  59.4918750 133.1887430  15.9046780
  58.5648030 133.1224810  16.1335250  59.6443570 134.1267560  15.7902020
  59.4787830 129.4604430  12.9013940  58.5391500 129.6218390  12.9866400
  59.7971090 130.1790110  12.3549930  66.0000590 134.1422950  22.8792970
  65.1719220 134.2116040  22.4043100  66.5951070 134.7277260  22.4108800
  63.5216040 134.7507730  16.4082030  62.9028460 134.4127280  15.7608330
  63.5040490 134.1067490  17.1161220  62.9642600 130.9292270  23.8247840
  62.5513780 131.7545980  24.0787830  62.2318550 130.3437310  23.6324200
  55.0975390 133.7152170  18.6866510  54.6932390 133.0029420  18.1912410
  55.1838510 133.3705410  19.5754550  55.5657090 137.4019730  20.8505720
  55.2685380 136.7965200  20.1713500  56.5156910 137.4397040  20.7395080
  53.8104010 130.4895380  22.4665550  54.3618600 130.5990720  21.6918800
  54.3247520 130.8632980  23.1820780  63.6542700 140.9751600  24.5128820
  63.1773260 141.7823790  24.3201430  62.9704490 140.3229930  24.6655030
  54.6575520 137.1401420  27.5013520  53.7604050 137.3641390  27.7486920
  54.6828390 137.2636360  26.5524920  61.6980740 133.9894540  13.4154780
  62.1374020 133.1516970  13.2692600  62.4109160 134.6223940  13.5018920
  53.4846740 134.0114740  26.0770890  53.3454510 134.8837540  26.4458290
  52.6028100 133.6687550  25.9318830  59.8076120 138.9290610  17.3836020
  60.2472030 139.6714940  16.9691410  59.7463010 139.1717180  18.3074980
  55.2827090 139.9536440  28.2856040  55.2542520 140.3579390  27.4184470
  55.1192060 139.0246800  28.1227640  65.2797880 125.2437350  11.7295820
  64.9670540 125.3364180  12.6294890  66.0410350 125.8218380  11.6793250
  51.7980020 132.6097150  16.1873160  51.6777620 133.3359240  15.5754430
  51.4880910 131.8400060  15.7101070  67.2341910 140.7363540  29.5820210
  67.7101630 141.2146430  30.2609290  67.8549070 140.6681030  28.8565710
  49.4365390 135.7812290  21.9941800  49.5145810 135.9161060  21.0497520
  50.0507070 135.0728180  22.1869920  50.6813020 137.4812480  18.4047980
  50.2741100 137.6227070  17.5501580  51.5726030 137.1972640  18.2019190
  66.6375160 137.9276390  26.7420220  66.7638220 137.6888270  25.8237400
  66.6796540 137.0960930  27.2142300  60.4991900 141.6304390  25.3115030
  61.0136570 141.5412400  26.1137460  59.6560980 141.9764090  25.6042940
  62.4746300 141.9159730  14.7399030  62.3147440 141.6262670  15.6380860
  62.3093010 141.1399860  14.2044260  54.9534680 141.6958260  16.5170650
  54.7777160 140.7793800  16.3038450  54.0990420 142.0545550  16.7568450
  62.1772430 139.4247290  13.2997030  61.4837590 139.4224580  12.6399310
  62.9195290 139.0006610  12.8691200  61.7422360 141.0510000  17.3745520
  62.1979310 140.2699380  17.6884140  62.0814880 141.7616820  17.9186700
  66.4899170 129.9808850  27.7069960  65.8743440 130.4888520  27.1785420
  66.1695590 129.0807180  27.6495900  49.4924910 136.8226460  24.5336260
  49.6555950 136.3531820  23.7155630  49.9577360 136.3150020  25.1985100
  54.2643680 125.9532220  19.5696830  53.8211830 126.7341760  19.2381350
  54.8228670 126.2762110  20.2767770  58.5513490 128.8200740  25.1732150
  58.0892860 129.0283760  25.9852090  58.1491600 128.0060090  24.8702820
  63.5518000 130.0409690  26.3028810  62.7011590 129.7415440  26.6237880
  63.3919790 130.2851700  25.3912630  60.6467710 131.5411440  28.4027600
  60.9721120 130.7075190  28.0629830  61.4348040 132.0639960  28.5505930
  57.3802500 125.5742920  14.4502660  56.7556680 125.5702790  15.1755970
  57.2932620 124.7073880  14.0538630  56.3019580 126.4979550  21.4286430
  56.5991910 127.4042380  21.3478450  56.8505140 126.0098330  20.8146000
  54.0557900 131.0765790  17.2978080  53.8298820 130.8602960  18.2024700
  53.2750430 131.5094250  16.9524050  61.2855660 131.0829160  15.8968730
  60.6864550 131.8064960  15.7132350  61.8335270 131.0205940  15.1145180
  56.4957110 131.9751370  27.9638350  56.4000710 131.0346100  27.8138750
  57.3389090 132.1966440  27.5686420  59.8920530 129.7192700  17.9272010
  60.2850100 130.0364900  17.1140700  60.2537380 128.8404580  18.0416530
  51.6267650 128.3865040  26.1172130  51.2331040 129.2340250  26.3244910
  50.9386050 127.7491410  26.3080770  58.2012700 128.4700010  29.1868870
  57.5111020 128.2772210  29.8214960  58.9445000 128.7534650  29.7193170
  48.9284700 126.3093500  20.1502210  48.6397750 126.8796360  20.8627190
  49.6730460 125.8297950  20.5133440  49.1154930 130.2513620  11.3604930
  49.0329600 131.1944380  11.5019920  48.7637990 130.1088530  10.4817280
  60.4775670 132.3098450  22.0222790  59.7456790 132.8185260  22.3712890
  60.0800010 131.4928430  21.7211570  56.9153060 128.9852650  20.4275280
  56.9189120 128.5442600  19.5779820  57.8104180 129.3069980  20.5347100
  52.7655440 128.8679140  19.3869490  52.4255490 129.3454370  20.1436540
  52.0032760 128.4144260  19.0270590  56.9773210 129.9864730  13.4182040
  57.0986030 129.9451210  14.3667860  56.5921720 130.8488880  13.2628770
  60.9401580 127.7632130  21.4345730  60.9574320 128.2140780  22.2787580
  60.6917160 126.8637770  21.6479170  55.9894710 132.2965870  12.8165340
  55.4211610 131.8484120  12.1901250  56.6983710 132.6558650  12.2830490
  64.3672330 125.1764310  27.2732110  64.6918100 124.4453970  27.7990090
  64.4028840 124.8577950  26.3713100  51.0663890 136.1977890  26.6932070
  50.6818680 135.5571560  27.2915030  51.3776080 136.9014010  27.2626800
  57.2161030 133.0454430  22.1740690  57.5831160 132.5713000  22.9202030
  57.0266090 133.9196000  22.5149030  50.0801520 127.7898120  18.3034160
  49.7948440 127.4253790  19.1412780  50.0180380 127.0578580  17.6897300
  55.0060400 132.0863070  24.4924900  54.7017470 132.9655050  24.7175260
  55.9606860 132.1462860  24.5282340  53.5342190 136.2924060  15.0891750
  52.7604450 135.7521680  14.9290470  54.2636820 135.7730670  14.7509510
  64.2930170 135.2889420  20.8818140  65.0129290 135.7844710  20.4914250
  64.0911990 134.6107310  20.2372010  59.7540110 126.6827380  15.0247530
  58.9404720 126.1840550  14.9492840  59.5602060 127.5225630  14.6083880
  59.6748970 135.3598480  26.7687140  59.6086280 134.4394150  26.5144730
  59.0454110 135.4573920  27.4831780  62.4688500 131.0547030  13.3209690
  63.3568120 131.3664260  13.1461030  62.4393590 130.1819280  12.9290270
  53.5779590 135.9604440  18.7270560  54.0958260 135.1572700  18.6727450
  53.1263610 135.8983580  19.5687390  58.4649090 137.2270720  13.9997860
  58.8064790 137.9712950  13.5041180  57.6361800 137.5401840  14.3622690
  51.0624130 132.9265810  25.6396260  50.7039070 133.5919660  26.2269600
  50.7678690 132.0949360  26.0108880  54.2637250 133.3850050  28.5235810
  53.9637390 133.5307230  27.6263630  55.0348490 132.8255340  28.4309200
  59.6065700 138.1819050  26.5190940  59.6210240 137.2500010  26.3009850
  58.8990800 138.2678810  27.1580710  64.7402770 132.3658870  12.7889550
  64.6566490 132.7973090  11.9385990  65.4596960 132.8257220  13.2216370
  65.8176910 134.8226390  25.8659520  65.0925100 135.4155170  25.6688910
  66.3452370 134.8149930  25.0672890  65.7690020 139.2201130  15.5171680
  65.1266180 138.5656750  15.7915400  65.3820680 139.6256220  14.7412350
  61.3476500 136.5486560  19.3643370  61.7000320 135.9514690  18.7044740
  60.4638830 136.2230790  19.5351620  57.4339780 137.3084250  16.7713780
  58.1210910 137.8553460  17.1521370  56.6472200 137.8524980  16.8063390
  49.5732180 132.9257070  12.2630860  50.4427030 133.2081870  12.5466780
  49.0822500 133.7392940  12.1479670  56.7366990 134.3130280  16.3839140
  57.1929770 135.1235530  16.6099330  56.3855200 133.9953420  17.2157630
  59.0399600 139.8236620  23.6131440  59.6841820 140.0296000  24.2904860
  59.4029040 139.0625020  23.1602290  52.6378770 124.6567930  16.8561660
  52.5093400 124.6485830  17.8046580  51.8140790 124.9951020  16.5052670
  60.3131680 137.8268970  22.3308890  60.9553910 137.1262130  22.4441060
  60.8381030 138.6067410  22.1505780  64.1587400 138.1117590  12.0548030
  63.9324980 137.3948030  12.6472670  63.7683600 137.8630030  11.2169780
  62.0869300 138.6263870  25.5344950  62.4225540 139.2130560  26.2122870
  61.1669640 138.4956580  25.7642740  49.9403430 142.1384450  12.8292490
  50.3001070 142.7373790  12.1749760  49.7995770 142.6844340  13.6027520
  49.6372700 126.4159050  26.3168360  48.9231220 126.6155970  26.9220970
  50.0567740 125.6398620  26.6883160  63.7403650 136.0289530  13.7162190
  63.4525350 136.4902220  14.5040070  64.5355820 135.5687300  13.9846410
  49.9245290 140.4039310  27.3034890  50.0336410 139.4634050  27.1630280
  49.2725850 140.6694060  26.6548620  57.9157880 138.6755200  28.7033010
  57.5954750 137.9564440  29.2478700  57.2416240 139.3510270  28.7769070
  55.9572050 139.5215650  13.6466160  55.9482150 140.2545340  13.0310670
  55.0370410 139.2747230  13.7393120  51.5578690 134.7430540  14.3912920
  50.9506640 135.4829440  14.4008220  52.0328040 134.8329900  13.5651120
  61.1311480 128.9081360  24.0669810  61.4992300 128.0876570  24.3949380
  60.2709680 128.9683250  24.4825460  64.4973510 127.8638300  14.8757370
  63.8686670 127.9683970  14.1615600  64.0025430 128.0835080  15.6651250
  58.9431650 139.5843890  12.3091350  59.0443630 139.3807880  11.3793330
  58.0433390 139.3302170  12.5139130  56.4657540 130.1424250  16.2915250
  55.7573690 130.6110590  16.7328860  56.7502020 129.4846260  16.9260440
  58.0913470 131.5620950  24.2907780  58.5898720 132.0366770  24.9559630
  58.2336420 130.6384470  24.4977810  60.4972970 126.8674910  17.7311040
  60.3740750 126.8861040  16.7820550  61.4457530 126.9153850  17.8509440
  57.5849760 142.1030210  17.0039020  57.8391260 142.0651600  16.0818390
  56.6362240 141.9763540  16.9967270  54.6692560 128.4509330  13.6665960
  55.5183090 128.8879480  13.6006150  54.3023830 128.7629590  14.4938020
  65.2980330 127.7788910  25.1336170  64.7953930 128.5194310  25.4729980
  66.1136990 128.1672910  24.8172960  63.5902340 133.0222090  18.5797530
  62.6492480 133.0372320  18.7545220  63.9046410 132.2358050  19.0257830
  53.5683980 134.7041690  12.1401490  54.3347250 134.5923050  12.7026920
  53.6458670 134.0079660  11.4878260  52.2630740 132.1366760  12.8234380
  52.3434330 131.1894270  12.9351780  53.1550490 132.4673640  12.9295040
  65.5927920 140.1930940  20.2551790  65.7175340 141.0162110  20.7275600
  66.4593480 139.9821670  19.9075940  53.0645450 142.2862150  19.9268920
  53.8007930 141.7377610  20.1977490  53.4486370 143.1518160  19.7874910
  49.9490930 138.3535720  15.8010430  49.0230710 138.5956860  15.7915840
  50.4147360 139.1809980  15.6795180  52.0703730 141.4708220  29.1154500
  52.8716460 141.7920270  29.5289900  51.5555550 141.1103800  29.8374410
  56.1747760 141.4592460  11.7494490  56.9676370 141.7481290  11.2976280
  55.6552110 141.0284630  11.0706970  60.9068360 137.5788090  29.0629910
  60.3006520 137.6019690  28.3225660  60.6022470 136.8471130  29.5997160
  62.3368730 141.3068380  27.6739320  63.2890480 141.2226400  27.6239560
  62.1896950 141.9710090  28.3473110  65.2277930 140.6862590  13.1731230
  64.9419440 140.2727730  12.3585410  65.0297480 141.6150300  13.0531750
  49.7901540 133.9581680  28.0590550  50.2940560 133.3788960  28.6306780
  49.0508960 134.2421910  28.5966920  56.6925160 136.6795870  11.6136840
  56.5875800 136.0648220  12.3398220  56.5249380 136.1561760  10.8299850
  56.8439480 135.3652670  27.5926070  56.0785150 135.9337670  27.5080740
  57.0255440 135.0728880  26.6994300  59.9327890 135.7415900  12.2178830
  59.3837990 136.1885200  12.8621570  60.5547150 135.2365150  12.7416500
  63.9862830 137.0958000  28.1501090  64.7272300 137.4333760  27.6468550
  63.2235510 137.2650060  27.5970860  51.8224620 132.1011270  28.9540620
  51.8629960 131.8025140  29.8625850  52.6770120 132.5018880  28.7948140
  55.6003010 134.7006820  14.1144130  56.0219430 134.5346690  14.9575520
  55.7253850 133.8907050  13.6199270  53.7630430 130.6803370  26.9215110
  53.2326890 130.1894320  26.2938450  54.4318500 131.1087570  26.3873040
  58.1130650 133.7244430  11.3621230  58.6336310 133.0093450  10.9962380
  58.7599050 134.3630300  11.6621740  62.6608490 135.1472830  26.6856300
  63.0749510 135.3017910  27.5346720  61.7259490 135.2728050  26.8482080
  63.1330660 132.4868990  28.6895450  63.7151430 131.7321310  28.6015930
  63.3092430 133.0176430  27.9126930  54.2502730 127.6465740  27.0012400
  54.1559600 127.0286490  26.2763270  53.6700120 128.3732030  26.7742310
  57.0164170 126.2038980  24.0339790  56.5681470 126.2263240  23.1885340
  56.3829370 125.8058000  24.6310090  57.4223720 135.0993310  24.6552230
  57.8411830 135.9426040  24.4828470  56.5032350 135.2365350  24.4259010
  59.7587620 132.8309490  26.0390070  59.8783830 132.2350630  26.7784910
  60.6181620 132.8679180  25.6191370  62.0975520 133.3846680  24.6152580
  61.5710740 133.9089300  24.0117720  62.4406860 134.0174070  25.2462310
  54.4961910 130.7740050  11.0602290  54.2950970 129.9107410  11.4215630
  54.3253960 130.6873410  10.1223890  55.2731140 141.4046320  25.7709960
  54.7352230 142.1292380  25.4518660  55.5265100 140.9276660  24.9807300
  56.5256390 129.3730840  27.2965890  57.1156080 129.0646690  27.9843710
  55.7076630 128.9010590  27.4525790  61.3449820 128.9896650  27.5298910
  60.6565340 128.3278190  27.4648900  62.0655840 128.5434920  27.9747370
  61.9750220 125.5848280  13.5889170  62.2552510 124.7416180  13.9448590
  61.2015950 125.8171390  14.1027920  53.2944710 127.8740670  11.0480170
  53.5970610 127.8808100  10.1399320  54.0339300 127.5238530  11.5447830
  58.1293350 142.6397530  26.0296610  58.0552050 143.5432670  26.3368980
  57.2272190 142.3209430  26.0018680  56.5129640 126.8175290  12.0336370
  56.1651640 126.1399280  11.4538820  56.7142410 126.3564800  12.8479760
  58.6778680 141.8056040  13.6522970  59.5729470 142.1441010  13.6741730
  58.7096310 141.0835450  13.0247250  52.3174840 137.1783090  11.8809970
  52.7549710 137.7212760  12.5367550  52.8022570 136.3530040  11.8906310
  49.5320640 139.9672120  19.3330230  49.8623650 139.0993180  19.1008870
  49.9611640 140.1730640  20.1635190  54.1282560 138.2981130  16.9932200
  53.8278100 138.1746100  17.8936110  54.0220050 137.4389720  16.5847930
  50.0210850 140.8342710  22.0711860  49.5841840 141.0143510  22.9036010
  50.5888530 141.5917330  21.9293580  65.6573030 140.3359710  26.3589170
  65.0575020 140.3952270  25.6153090  65.7866930 139.3964690  26.4886020
  66.8974480 138.0777530  11.6958880  66.0667440 138.1454180  12.1666110
  67.0746310 138.9681650  11.3925740  66.3530940 134.8225010  14.1993080
  67.1149850 135.3921660  14.3052770  66.3685310 134.2552210  14.9701390
  49.8535280 133.3462940  18.4300740  49.1984120 133.0774580  17.7860440
  50.6913230 133.2367420  17.9802720  67.3590910 135.6775110  19.0435010
  67.7299740 134.8942430  18.6370980  67.9992840 136.3664210  18.8652310
  64.3424670 137.0611690  24.4565330  63.5284510 137.4908850  24.7191120
  64.7498870 137.6730100  23.8434380  66.4050110 135.1159380  11.3565600
  66.6798950 136.0238260  11.2284820  66.2160850 135.0521910  12.2927590
  62.8025720 128.1404230  12.6519230  63.2210600 127.9535210  11.8115890
  62.4961780 127.2883280  12.9622160  66.3015450 133.0528370  16.3495030
  65.9259050 132.2856300  15.9176320  65.5718570 133.4351070  16.8369960
  50.8911210 133.7315510  22.9704080  51.2584250 133.6442910  23.8500100
  50.3222030 132.9682060  22.8710940  65.6915070 132.1999890  25.9834550
  65.4601160 131.9712640  25.0832500  65.9519620 133.1199440  25.9379440
  50.4427210 130.6424600  26.8762500  49.5483260 130.6091360  27.2156210
  50.9824760 130.8411390  27.6413750  64.1303140 127.4256320  28.7614250
  65.0073320 127.4339720  29.1448250  64.1423980 126.6887160  28.1506600
  49.0673360 130.5561870  14.3726070  48.1637440 130.8192070  14.1977730
  49.5513980 130.8273040  13.5926030  65.5766410 131.2785860  19.6502270
  66.1003890 130.7848510  19.0192440  66.1625830 131.4136220  20.3949840
  65.7556130 131.3625730  23.1721820  64.8058840 131.3289270  23.2866810
  65.9369140 132.2725840  22.9371590  51.6100570 129.6127410  12.2820450
  52.3192270 129.1910630  11.7967730  50.8940510 129.6802640  11.6503800
  51.2574730 125.6666740  11.3223100  51.9802860 126.2075680  11.6404320
  51.5299250 125.3930160  10.4464640  65.0666380 130.5359210  15.5894680
  65.5625500 130.3030080  16.3743560  64.8682450 129.6971050  15.1732320
  50.9466920 124.9172930  21.2245720  51.5943110 124.3670310  20.7840880
  51.3668760 125.1716080  22.0461530  66.4953540 129.1720160  18.1232360
  66.3852820 129.0176200  19.0614630  67.2561130 128.6441100  17.8807770
  64.8419260 125.1114290  24.5815360  65.4791480 125.7248430  24.9474550
  64.9894150 125.1474950  23.6364590  67.3843810 127.0028080  11.3638500
  68.3093120 126.8709260  11.1556790  67.3619600 127.0820900  12.3174950
  67.4582300 127.7738740  13.9895210  66.6633800 127.7083860  14.5188120
  67.6625580 128.7089380  13.9780560  64.4000720 141.8130290  17.9833600
  64.9959790 141.4914860  17.3068020  64.6578870 141.3402110  18.7746870
  50.6998920 125.0728600  23.9671040  50.3513740 125.5292420  24.7329220
  50.3686620 124.1785730  24.0493470  52.3063290 138.2448200  28.1324230
  52.2632920 137.8741110  29.0138690  52.4374300 139.1825770  28.2726050
  56.0069320 139.8007790  23.7333950  55.7660680 140.0682350  22.8464470
  56.9471960 139.9713520  23.7884810  58.2123740 126.2640480  27.4890460
  58.1512630 126.8562310  28.2385870  59.1524120 126.1566440  27.3440720
  60.8498300 125.9210540  27.1282750  61.4638710 126.2389830  26.4663830
  61.3947860 125.4359130  27.7478610  67.2673480 141.8202170  24.5344590
  66.7731760 142.2171040  23.8171720  66.6586770 141.1951380  24.9281870
  51.3719560 124.6004800  27.2421810  51.9202550 124.4192850  26.4787920
  51.4374870 123.8098910  27.7778120  52.1451320 141.1910450  25.2522010
  51.5511640 141.0595150  25.9912050  52.1375160 140.3548590  24.7864110
  61.5906340 124.4842680  23.4552040  60.7166180 124.8177790  23.2524970
  61.4817090 124.0115860  24.2803910  62.4978320 126.6913550  24.8393760
  62.1691680 125.8765310  24.4595490  63.4460620 126.6483360  24.7159450
  64.9512930 142.4625590  21.8131330  64.4915900 143.2141400  21.4389350
  64.3225390 141.7432060  21.7546130  51.7763550 138.5568830  24.2030050
  51.0497610 137.9374120  24.1356000  51.8372700 138.9509440  23.3328130
  55.3808650 140.7713830  20.9879460  55.8973670 140.1601190  20.4627720
  56.0306030 141.2742610  21.4790470  58.1204150 141.6622320  21.8148440
  58.4081960 141.4076620  20.9381450  58.6327370 141.1099680  22.4054010
  59.3381160 125.4012520  22.3944950  58.5552950 125.8758020  22.6741710
  59.0444090 124.4967350  22.2858130  63.8902230 126.1035620  20.4394040
  64.3310320 126.0480720  19.5915640  63.6209820 127.0193630  20.5104220
  65.7540800 125.7350860  18.4502860  65.6929200 124.7912080  18.3033880
  66.5332830 125.8430950  18.9956320  50.0593550 141.8743220  17.4126810
  49.8915590 141.2413900  18.1108700  49.1928060 142.0802620  17.0621000
  50.6821570 125.7060000  14.9158670  51.4400930 125.8188880  14.3422700
  50.2198740 126.5429200  14.8702100  57.2235380 127.8199270  17.9060980
  56.4109890 127.4456160  17.5656860  57.7277020 127.0644350  18.2082170
  61.7260360 124.4841720  19.1444050  62.3289730 125.0561930  19.6192570
  60.9853350 125.0481160  18.9217950  64.8694960 124.8863280  14.4184330
  65.0645590 125.7846730  14.6851760  64.0824830 124.6550360  14.9117280
  51.6656250 140.5676450  14.8576950  51.1403870 140.9484480  14.1538910
  51.5900830 141.1927220  15.5786660  53.0546720 126.2324050  13.4560640
  53.5839480 125.4453850  13.3268590  53.6875040 126.9115240  13.6896170
  55.2484560 125.9699190  16.5106030  54.6187300 125.2686500  16.6776160
  54.7089700 126.7303320  16.2939190  58.1876510 142.5838420  29.1816640
  59.1143820 142.3482690  29.2252600  58.1726940 143.4110420  28.7002670
  66.4221570 142.1263990  16.1790890  66.5973760 141.4401730  15.5351810
  65.7243140 142.6511040  15.7867560  55.3740120 125.2483170  28.9458520
  55.0924390 125.7516770  28.1819340  55.7559820 124.4504920  28.5800650
  54.2649220 142.5158830  13.7326200  54.9968040 142.2318110  13.1850090
  54.5242890 142.2772110  14.6225580  53.4264010 138.6323560  13.7372530
  52.7972890 139.1008660  14.2858360  53.5411840 137.7872780  14.1718720
  61.9755580 124.6636750  29.5238990  61.8621030 124.9831360  30.4190510
  62.7925320 125.0649260  29.2276270  64.7554070 141.8108280  29.0057680
  65.5479390 141.3157510  28.7983640  65.0487220 142.4898420  29.6133290
  59.0131770 134.4608240   1.7683000  58.2373870 133.9808680   2.0581570
  59.6644700 133.7813890   1.5939160  53.0297600 134.7728050   2.6458760
  52.1982480 134.5176760   3.0455270  53.6378580 134.8438820   3.3816680
  53.0098860 138.8068140   2.8416780  53.3126900 137.9165880   2.6627000
  53.7542450 139.3638360   2.6139030  58.4540760 137.1365430   1.7753160
  58.3849040 136.1955370   1.6142290  59.2160620 137.2266840   2.3475730
  50.6447430 127.7419950   4.1009780  50.4650270 126.8445700   4.3812540
  50.2427510 128.2891820   4.7756730  51.2634100 130.2380450   2.7092120
  51.9444210 130.5018820   3.3279520  50.9482150 129.3981320   3.0430130
  55.4558670 131.2847810   1.7964710  55.9636890 131.7828780   2.4369730
  55.9871910 130.5083010   1.6204070  67.5569600 129.4553000   5.4994060
  66.8521770 129.8434710   4.9809170  67.8227520 130.1503290   6.1014990
  53.7394770 125.9246370   6.0628130  53.7413210 126.4418760   5.2574030
  52.9099080 125.4476550   6.0398060  54.9897620 135.5641550   4.2401630
  54.6567000 136.1910470   4.8822700  55.1664300 136.0903430   3.4603300
  53.4210100 127.6356330   4.0698580  53.7626910 128.4798380   3.7752450
  52.4825910 127.7840070   4.1863920  54.2016720 137.5322350   6.0550810
  54.8190720 138.2073430   5.7735260  53.3409840 137.9410330   5.9638310
  65.1194310 138.9961760   3.9705450  64.4357830 139.6660870   3.9622120
  65.6588600 139.1942410   3.2050310  66.5718450 128.8241420   2.0987180
  65.6243360 128.8580400   2.2302610  66.8968440 129.6380370   2.4836540
  62.6553050 140.8405890   2.6850630  62.6680210 140.4368180   1.8172890
  62.1028270 141.6153180   2.5812060  62.0538490 135.7435730   4.0133240
  62.4707280 135.5295840   3.1786700  62.7778310 136.0008520   4.5841860
  66.0000590 134.1422950   4.1049480  65.1719220 134.2116040   3.6299610
  66.5951070 134.7277260   3.6365310  62.9642600 130.9292270   5.0504350
  62.5513780 131.7545980   5.3044340  62.2318550 130.3437310   4.8580710
  53.8104010 130.4895380   3.6922060  54.3618600 130.5990720   2.9175310
  54.3247520 130.8632980   4.4077290  63.6542700 140.9751600   5.7385330
  63.1773260 141.7823790   5.5457940  62.9704490 140.3229930   5.8911540
  54.6575520 137.1401420   8.7270030  53.7604050 137.3641390   8.9743430
  54.6828390 137.2636360   7.7781430  53.4846740 134.0114740   7.3027400
  53.3454510 134.8837540   7.6714800  52.6028100 133.6687550   7.1575340
  55.2827090 139.9536440   9.5112550  55.2542520 140.3579390   8.6440980
  55.1192060 139.0246800   9.3484150  67.2341910 140.7363540  10.8076720
  67.7101630 141.2146430  11.4865800  67.8549070 140.6681030  10.0822220
  49.4365390 135.7812290   3.2198310  49.5145810 135.9161060   2.2754030
  50.0507070 135.0728180   3.4126430  66.6375160 137.9276390   7.9676730
  66.7638220 137.6888270   7.0493910  66.6796540 137.0960930   8.4398810
  60.4991900 141.6304390   6.5371540  61.0136570 141.5412400   7.3393970
  59.6560980 141.9764090   6.8299450  66.4899170 129.9808850   8.9326470
  65.8743440 130.4888520   8.4041930  66.1695590 129.0807180   8.8752410
  49.4924910 136.8226460   5.7592770  49.6555950 136.3531820   4.9412140
  49.9577360 136.3150020   6.4241610  58.5513490 128.8200740   6.3988660
  58.0892860 129.0283760   7.2108600  58.1491600 128.0060090   6.0959330
  63.5518000 130.0409690   7.5285320  62.7011590 129.7415440   7.8494390
  63.3919790 130.2851700   6.6169140  60.6467710 131.5411440   9.6284110
  60.9721120 130.7075190   9.2886340  61.4348040 132.0639960   9.7762440
  56.3019580 126.4979550   2.6542940  56.5991910 127.4042380   2.5734960
  56.8505140 126.0098330   2.0402510  56.4957110 131.9751370   9.1894860
  56.4000710 131.0346100   9.0395260  57.3389090 132.1966440   8.7942930
  51.6267650 128.3865040   7.3428640  51.2331040 129.2340250   7.5501420
  50.9386050 127.7491410   7.5337280  58.2012700 128.4700010  10.4125380
  57.5111020 128.2772210  11.0471470  58.9445000 128.7534650  10.9449680
  60.4775670 132.3098450   3.2479300  59.7456790 132.8185260   3.5969400
  60.0800010 131.4928430   2.9468080  60.9401580 127.7632130   2.6602240
  60.9574320 128.2140780   3.5044090  60.6917160 126.8637770   2.8735680
  64.3672330 125.1764310   8.4988620  64.6918100 124.4453970   9.0246600
  64.4028840 124.8577950   7.5969610  51.0663890 136.1977890   7.9188580
  50.6818680 135.5571560   8.5171540  51.3776080 136.9014010   8.4883310
  57.2161030 133.0454430   3.3997200  57.5831160 132.5713000   4.1458540
  57.0266090 133.9196000   3.7405540  55.0060400 132.0863070   5.7181410
  54.7017470 132.9655050   5.9431770  55.9606860 132.1462860   5.7538850
  64.2930170 135.2889420   2.1074650  65.0129290 135.7844710   1.7170760
  64.0911990 134.6107310   1.4628520  59.6748970 135.3598480   7.9943650
  59.6086280 134.4394150   7.7401240  59.0454110 135.4573920   8.7088290
  51.0624130 132.9265810   6.8652770  50.7039070 133.5919660   7.4526110
  50.7678690 132.0949360   7.2365390  54.2637250 133.3850050   9.7492320
  53.9637390 133.5307230   8.8520140  55.0348490 132.8255340   9.6565710
  59.6065700 138.1819050   7.7447450  59.6210240 137.2500010   7.5266360
  58.8990800 138.2678810   8.3837220  65.8176910 134.8226390   7.0916030
  65.0925100 135.4155170   6.8945420  66.3452370 134.8149930   6.2929400
  59.0399600 139.8236620   4.8387950  59.6841820 140.0296000   5.5161370
  59.4029040 139.0625020   4.3858800  60.3131680 137.8268970   3.5565400
  60.9553910 137.1262130   3.6697570  60.8381030 138.6067410   3.3762290
  62.0869300 138.6263870   6.7601460  62.4225540 139.2130560   7.4379380
  61.1669640 138.4956580   6.9899250  49.6372700 126.4159050   7.5424870
  48.9231220 126.6155970   8.1477480  50.0567740 125.6398620   7.9139670
  49.9245290 140.4039310   8.5291400  50.0336410 139.4634050   8.3886790
  49.2725850 140.6694060   7.8805130  57.9157880 138.6755200   9.9289520
  57.5954750 137.9564440  10.4735210  57.2416240 139.3510270  10.0025580
  61.1311480 128.9081360   5.2926320  61.4992300 128.0876570   5.6205890
  60.2709680 128.9683250   5.7081970  58.0913470 131.5620950   5.5164290
  58.5898720 132.0366770   6.1816140  58.2336420 130.6384470   5.7234320
  65.2980330 127.7788910   6.3592680  64.7953930 128.5194310   6.6986490
  66.1136990 128.1672910   6.0429470  52.0703730 141.4708220  10.3411010
  52.8716460 141.7920270  10.7546410  51.5555550 141.1103800  11.0630920
  60.9068360 137.5788090  10.2886420  60.3006520 137.6019690   9.5482170
  60.6022470 136.8471130  10.8253670  62.3368730 141.3068380   8.8995830
  63.2890480 141.2226400   8.8496070  62.1896950 141.9710090   9.5729620
  49.7901540 133.9581680   9.2847060  50.2940560 133.3788960   9.8563290
  49.0508960 134.2421910   9.8223430  56.8439480 135.3652670   8.8182580
  56.0785150 135.9337670   8.7337250  57.0255440 135.0728880   7.9250810
  63.9862830 137.0958000   9.3757600  64.7272300 137.4333760   8.8725060
  63.2235510 137.2650060   8.8227370  51.8224620 132.1011270  10.1797130
  51.8629960 131.8025140  11.0882360  52.6770120 132.5018880  10.0204650
  53.7630430 130.6803370   8.1471620  53.2326890 130.1894320   7.5194960
  54.4318500 131.1087570   7.6129550  62.6608490 135.1472830   7.9112810
  63.0749510 135.3017910   8.7603230  61.7259490 135.2728050   8.0738590
  63.1330660 132.4868990   9.9151960  63.7151430 131.7321310   9.8272440
  63.3092430 133.0176430   9.1383440  54.2502730 127.6465740   8.2268910
  54.1559600 127.0286490   7.5019780  53.6700120 128.3732030   7.9998820
  57.0164170 126.2038980   5.2596300  56.5681470 126.2263240   4.4141850
  56.3829370 125.8058000   5.8566600  57.4223720 135.0993310   5.8808740
  57.8411830 135.9426040   5.7084980  56.5032350 135.2365350   5.6515520
  59.7587620 132.8309490   7.2646580  59.8783830 132.2350630   8.0041420
  60.6181620 132.8679180   6.8447880  62.0975520 133.3846680   5.8409090
  61.5710740 133.9089300   5.2374230  62.4406860 134.0174070   6.4718820
  55.2731140 141.4046320   6.9966470  54.7352230 142.1292380   6.6775170
  55.5265100 140.9276660   6.2063810  56.5256390 129.3730840   8.5222400
  57.1156080 129.0646690   9.2100220  55.7076630 128.9010590   8.6782300
  61.3449820 128.9896650   8.7555420  60.6565340 128.3278190   8.6905410
  62.0655840 128.5434920   9.2003880  58.1293350 142.6397530   7.2553120
  58.0552050 143.5432670   7.5625490  57.2272190 142.3209430   7.2275190
  50.0210850 140.8342710   3.2968370  49.5841840 141.0143510   4.1292520
  50.5888530 141.5917330   3.1550090  65.6573030 140.3359710   7.5845680
  65.0575020 140.3952270   6.8409600  65.7866930 139.3964690   7.7142530
  64.3424670 137.0611690   5.6821840  63.5284510 137.4908850   5.9447630
  64.7498870 137.6730100   5.0690890  50.8911210 133.7315510   4.1960590
  51.2584250 133.6442910   5.0756610  50.3222030 132.9682060   4.0967450
  65.6915070 132.1999890   7.2091060  65.4601160 131.9712640   6.3089010
  65.9519620 133.1199440   7.1635950  50.4427210 130.6424600   8.1019010
  49.5483260 130.6091360   8.4412720  50.9824760 130.8411390   8.8670260
  64.1303140 127.4256320   9.9870760  65.0073320 127.4339720  10.3704760
  64.1423980 126.6887160   9.3763110  65.7556130 131.3625730   4.3978330
  64.8058840 131.3289270   4.5123320  65.9369140 132.2725840   4.1628100
  50.9466920 124.9172930   2.4502230  51.5943110 124.3670310   2.0097390
  51.3668760 125.1716080   3.2718040  64.8419260 125.1114290   5.8071870
  65.4791480 125.7248430   6.1731060  64.9894150 125.1474950   4.8621100
  50.6998920 125.0728600   5.1927550  50.3513740 125.5292420   5.9585730
  50.3686620 124.1785730   5.2749980  52.3063290 138.2448200   9.3580740
  52.2632920 137.8741110  10.2395200  52.4374300 139.1825770   9.4982560
  56.0069320 139.8007790   4.9590460  55.7660680 140.0682350   4.0720980
  56.9471960 139.9713520   5.0141320  58.2123740 126.2640480   8.7146970
  58.1512630 126.8562310   9.4642380  59.1524120 126.1566440   8.5697230
  60.8498300 125.9210540   8.3539260  61.4638710 126.2389830   7.6920340
  61.3947860 125.4359130   8.9735120  67.2673480 141.8202170   5.7601100
  66.7731760 142.2171040   5.0428230  66.6586770 141.1951380   6.1538380
  51.3719560 124.6004800   8.4678320  51.9202550 124.4192850   7.7044430
  51.4374870 123.8098910   9.0034630  52.1451320 141.1910450   6.4778520
  51.5511640 141.0595150   7.2168560  52.1375160 140.3548590   6.0120620
  61.5906340 124.4842680   4.6808550  60.7166180 124.8177790   4.4781480
  61.4817090 124.0115860   5.5060420  62.4978320 126.6913550   6.0650270
  62.1691680 125.8765310   5.6852000  63.4460620 126.6483360   5.9415960
  64.9512930 142.4625590   3.0387840  64.4915900 143.2141400   2.6645860
  64.3225390 141.7432060   2.9802640  51.7763550 138.5568830   5.4286560
  51.0497610 137.9374120   5.3612510  51.8372700 138.9509440   4.5584640
  55.3808650 140.7713830   2.2135970  55.8973670 140.1601190   1.6884230
  56.0306030 141.2742610   2.7046980  58.1204150 141.6622320   3.0404950
  58.4081960 141.4076620   2.1637960  58.6327370 141.1099680   3.6310520
  59.3381160 125.4012520   3.6201460  58.5552950 125.8758020   3.8998220
  59.0444090 124.4967350   3.5114640  58.1876510 142.5838420  10.4073150
  59.1143820 142.3482690  10.4509110  58.1726940 143.4110420   9.9259180
  55.3740120 125.2483170  10.1715030  55.0924390 125.7516770   9.4075850
  55.7559820 124.4504920   9.8057160  61.9755580 124.6636750  10.7495500
  61.8621030 124.9831360  11.6447020  62.7925320 125.0649260  10.4532780
  64.7554070 141.8108280  10.2314190  65.5479390 141.3157510  10.0240150
  65.0487220 142.4898420  10.8389800  60.8813730 113.9085730 150.0821650
  60.8007780 112.9940340 149.8113360  60.4678150 114.4052800 149.3761360
  63.0339200 120.0924940 150.7430050  62.5720730 119.3212180 151.0717220
  63.8464750 120.1191010 151.2482500  51.4389550 110.9586450 146.6249070
  50.5506250 111.3002420 146.5228950  51.7230740 110.7586770 145.7329900
  59.2602510 122.3782950 150.3634040  58.6413950 122.8340450 149.7928480
  60.1154290 122.5334410 149.9623740  53.6150940 109.5417950 147.6587450
  53.7217690 110.4421680 147.9656210  52.7043300 109.4935920 147.3682100
  63.2670050 108.6642760 149.1298350  64.0879670 108.1739330 149.1723830
  63.3004130 109.2540420 149.8830190  60.1265860 117.2622190 147.7565950
  59.5083130 117.7271640 147.1928670  60.6389110 117.9549670 148.1735460
  49.4949060 117.9478720 145.1305580  49.1177040 118.4365820 144.3990480
  49.7522130 118.6204000 145.7612110  57.1037990 106.3495110 150.5891090
  57.4112970 105.7942000 149.8726590  56.1738690 106.4839570 150.4064080
  63.9498470 118.7878620 147.9688720  63.8394800 117.8452950 148.0938140
  63.9466720 119.1494260 148.8551480  59.4918750 114.4143940 147.3251210
  58.5648030 114.3481320 147.5539680  59.6443570 115.3524070 147.2106450
  59.4787830 110.6860940 144.3218370  58.5391500 110.8474900 144.4070830
  59.7971090 111.4046620 143.7754360  63.5216040 115.9764240 147.8286460
  62.9028460 115.6383790 147.1812760  63.5040490 115.3324000 148.5365650
  55.0975390 114.9408680 150.1070940  54.6932390 114.2285930 149.6116840
  55.1838510 114.5961920 150.9958980  61.6980740 115.2151050 144.8359210
  62.1374020 114.3773480 144.6897030  62.4109160 115.8480450 144.9223350
  59.8076120 120.1547120 148.8040450  60.2472030 120.8971450 148.3895840
  59.7463010 120.3973690 149.7279410  65.2797880 106.4693860 143.1500250
  64.9670540 106.5620690 144.0499320  66.0410350 107.0474890 143.0997680
  51.7980020 113.8353660 147.6077590  51.6777620 114.5615750 146.9958860
  51.4880910 113.0656570 147.1305500  50.6813020 118.7068990 149.8252410
  50.2741100 118.8483580 148.9706010  51.5726030 118.4229150 149.6223620
  62.4746300 123.1416240 146.1603460  62.3147440 122.8519180 147.0585290
  62.3093010 122.3656370 145.6248690  54.9534680 122.9214770 147.9375080
  54.7777160 122.0050310 147.7242880  54.0990420 123.2802060 148.1772880
  62.1772430 120.6503800 144.7201460  61.4837590 120.6481090 144.0603740
  62.9195290 120.2263120 144.2895630  61.7422360 122.2766510 148.7949950
  62.1979310 121.4955890 149.1088570  62.0814880 122.9873330 149.3391130
  54.2643680 107.1788730 150.9901260  53.8211830 107.9598270 150.6585780
  54.8228670 107.5018620 151.6972200  57.3802500 106.7999430 145.8707090
  56.7556680 106.7959300 146.5960400  57.2932620 105.9330390 145.4743060
  54.0557900 112.3022300 148.7182510  53.8298820 112.0859470 149.6229130
  53.2750430 112.7350760 148.3728480  61.2855660 112.3085670 147.3173160
  60.6864550 113.0321470 147.1336780  61.8335270 112.2462450 146.5349610
  59.8920530 110.9449210 149.3476440  60.2850100 111.2621410 148.5345130
  60.2537380 110.0661090 149.4620960  49.1154930 111.4770130 142.7809360
  49.0329600 112.4200890 142.9224350  48.7637990 111.3345040 141.9021710
  52.7655440 110.0935650 150.8073920  52.4255490 110.5710880 151.5640970
  52.0032760 109.6400770 150.4475020  56.9773210 111.2121240 144.8386470
  57.0986030 111.1707720 145.7872290  56.5921720 112.0745390 144.6833200
  55.9894710 113.5222380 144.2369770  55.4211610 113.0740630 143.6105680
  56.6983710 113.8815160 143.7034920  50.0801520 109.0154630 149.7238590
  49.7948440 108.6510300 150.5617210  50.0180380 108.2835090 149.1101730
  53.5342190 117.5180570 146.5096180  52.7604450 116.9778190 146.3494900
  54.2636820 116.9987180 146.1713940  59.7540110 107.9083890 146.4451960
  58.9404720 107.4097060 146.3697270  59.5602060 108.7482140 146.0288310
  62.4688500 112.2803540 144.7414120  63.3568120 112.5920770 144.5665460
  62.4393590 111.4075790 144.3494700  53.5779590 117.1860950 150.1474990
  54.0958260 116.3829210 150.0931880  53.1263610 117.1240090 150.9891820
  58.4649090 118.4527230 145.4202290  58.8064790 119.1969460 144.9245610
  57.6361800 118.7658350 145.7827120  64.7402770 113.5915380 144.2093980
  64.6566490 114.0229600 143.3590420  65.4596960 114.0513730 144.6420800
  65.7690020 120.4457640 146.9376110  65.1266180 119.7913260 147.2119830
  65.3820680 120.8512730 146.1616780  61.3476500 117.7743070 150.7847800
  61.7000320 117.1771200 150.1249170  60.4638830 117.4487300 150.9556050
  57.4339780 118.5340760 148.1918210  58.1210910 119.0809970 148.5725800
  56.6472200 119.0781490 148.2267820  49.5732180 114.1513580 143.6835290
  50.4427030 114.4338380 143.9671210  49.0822500 114.9649450 143.5684100
  56.7366990 115.5386790 147.8043570  57.1929770 116.3492040 148.0303760
  56.3855200 115.2209930 148.6362060  52.6378770 105.8824440 148.2766090
  52.5093400 105.8742340 149.2251010  51.8140790 106.2207530 147.9257100
  64.1587400 119.3374100 143.4752460  63.9324980 118.6204540 144.0677100
  63.7683600 119.0886540 142.6374210  49.9403430 123.3640960 144.2496920
  50.3001070 123.9630300 143.5954190  49.7995770 123.9100850 145.0231950
  63.7403650 117.2546040 145.1366620  63.4525350 117.7158730 145.9244500
  64.5355820 116.7943810 145.4050840  55.9572050 120.7472160 145.0670590
  55.9482150 121.4801850 144.4515100  55.0370410 120.5003740 145.1597550
  51.5578690 115.9687050 145.8117350  50.9506640 116.7085950 145.8212650
  52.0328040 116.0586410 144.9855550  64.4973510 109.0894810 146.2961800
  63.8686670 109.1940480 145.5820030  64.0025430 109.3091590 147.0855680
  58.9431650 120.8100400 143.7295780  59.0443630 120.6064390 142.7997760
  58.0433390 120.5558680 143.9343560  56.4657540 111.3680760 147.7119680
  55.7573690 111.8367100 148.1533290  56.7502020 110.7102770 148.3464870
  60.4972970 108.0931420 149.1515470  60.3740750 108.1117550 148.2024980
  61.4457530 108.1410360 149.2713870  57.5849760 123.3286720 148.4243450
  57.8391260 123.2908110 147.5022820  56.6362240 123.2020050 148.4171700
  54.6692560 109.6765840 145.0870390  55.5183090 110.1135990 145.0210580
  54.3023830 109.9886100 145.9142450  63.5902340 114.2478600 150.0001960
  62.6492480 114.2628830 150.1749650  63.9046410 113.4614560 150.4462260
  53.5683980 115.9298200 143.5605920  54.3347250 115.8179560 144.1231350
  53.6458670 115.2336170 142.9082690  52.2630740 113.3623270 144.2438810
  52.3434330 112.4150780 144.3556210  53.1550490 113.6930150 144.3499470
  53.0645450 123.5118660 151.3473350  53.8007930 122.9634120 151.6181920
  53.4486370 124.3774670 151.2079340  49.9490930 119.5792230 147.2214860
  49.0230710 119.8213370 147.2120270  50.4147360 120.4066490 147.0999610
  56.1747760 122.6848970 143.1698920  56.9676370 122.9737800 142.7180710
  55.6552110 122.2541140 142.4911400  65.2277930 121.9119100 144.5935660
  64.9419440 121.4984240 143.7789840  65.0297480 122.8406810 144.4736180
  56.6925160 117.9052380 143.0341270  56.5875800 117.2904730 143.7602650
  56.5249380 117.3818270 142.2504280  59.9327890 116.9672410 143.6383260
  59.3837990 117.4141710 144.2826000  60.5547150 116.4621660 144.1620930
  55.6003010 115.9263330 145.5348560  56.0219430 115.7603200 146.3779950
  55.7253850 115.1163560 145.0403700  58.1130650 114.9500940 142.7825660
  58.6336310 114.2349960 142.4166810  58.7599050 115.5886810 143.0826170
  54.4961910 111.9996560 142.4806720  54.2950970 111.1363920 142.8420060
  54.3253960 111.9129920 141.5428320  61.9750220 106.8104790 145.0093600
  62.2552510 105.9672690 145.3653020  61.2015950 107.0427900 145.5232350
  53.2944710 109.0997180 142.4684600  53.5970610 109.1064610 141.5603750
  54.0339300 108.7495040 142.9652260  56.5129640 108.0431800 143.4540800
  56.1651640 107.3655790 142.8743250  56.7142410 107.5821310 144.2684190
  58.6778680 123.0312550 145.0727400  59.5729470 123.3697520 145.0946160
  58.7096310 122.3091960 144.4451680  52.3174840 118.4039600 143.3014400
  52.7549710 118.9469270 143.9571980  52.8022570 117.5786550 143.3110740
  49.5320640 121.1928630 150.7534660  49.8623650 120.3249690 150.5213300
  49.9611640 121.3987150 151.5839620  54.1282560 119.5237640 148.4136630
  53.8278100 119.4002610 149.3140540  54.0220050 118.6646230 148.0052360
  66.8974480 119.3034040 143.1163310  66.0667440 119.3710690 143.5870540
  67.0746310 120.1938160 142.8130170  66.3530940 116.0481520 145.6197510
  67.1149850 116.6178170 145.7257200  66.3685310 115.4808720 146.3905820
  49.8535280 114.5719450 149.8505170  49.1984120 114.3031090 149.2064870
  50.6913230 114.4623930 149.4007150  67.3590910 116.9031620 150.4639440
  67.7299740 116.1198940 150.0575410  67.9992840 117.5920720 150.2856740
  66.4050110 116.3415890 142.7770030  66.6798950 117.2494770 142.6489250
  66.2160850 116.2778420 143.7132020  62.8025720 109.3660740 144.0723660
  63.2210600 109.1791720 143.2320320  62.4961780 108.5139790 144.3826590
  66.3015450 114.2784880 147.7699460  65.9259050 113.5112810 147.3380750
  65.5718570 114.6607580 148.2574390  49.0673360 111.7818380 145.7930500
  48.1637440 112.0448580 145.6182160  49.5513980 112.0529550 145.0130460
  51.6100570 110.8383920 143.7024880  52.3192270 110.4167140 143.2172160
  50.8940510 110.9059150 143.0708230  51.2574730 106.8923250 142.7427530
  51.9802860 107.4332190 143.0608750  51.5299250 106.6186670 141.8669070
  65.0666380 111.7615720 147.0099110  65.5625500 111.5286590 147.7947990
  64.8682450 110.9227560 146.5936750  66.4953540 110.3976670 149.5436790
  66.3852820 110.2432710 150.4819060  67.2561130 109.8697610 149.3012200
  67.3843810 108.2284590 142.7842930  68.3093120 108.0965770 142.5761220
  67.3619600 108.3077410 143.7379380  67.4582300 108.9995250 145.4099640
  66.6633800 108.9340370 145.9392550  67.6625580 109.9345890 145.3984990
  64.4000720 123.0386800 149.4038030  64.9959790 122.7171370 148.7272450
  64.6578870 122.5658620 150.1951300  65.7540800 106.9607370 149.8707290
  65.6929200 106.0168590 149.7238310  66.5332830 107.0687460 150.4160750
  50.0593550 123.0999730 148.8331240  49.8915590 122.4670410 149.5313130
  49.1928060 123.3059130 148.4825430  50.6821570 106.9316510 146.3363100
  51.4400930 107.0445390 145.7627130  50.2198740 107.7685710 146.2906530
  57.2235380 109.0455780 149.3265410  56.4109890 108.6712670 148.9861290
  57.7277020 108.2900860 149.6286600  61.7260360 105.7098230 150.5648480
  62.3289730 106.2818440 151.0397000  60.9853350 106.2737670 150.3422380
  64.8694960 106.1119790 145.8388760  65.0645590 107.0103240 146.1056190
  64.0824830 105.8806870 146.3321710  51.6656250 121.7932960 146.2781380
  51.1403870 122.1740990 145.5743340  51.5900830 122.4183730 146.9991090
  53.0546720 107.4580560 144.8765070  53.5839480 106.6710360 144.7473020
  53.6875040 108.1371750 145.1100600  55.2484560 107.1955700 147.9310460
  54.6187300 106.4943010 148.0980590  54.7089700 107.9559830 147.7143620
  66.4221570 123.3520500 147.5995320  66.5973760 122.6658240 146.9556240
  65.7243140 123.8767550 147.2071990  54.2649220 123.7415340 145.1530630
  54.9968040 123.4574620 144.6054520  54.5242890 123.5028620 146.0430010
  53.4264010 119.8580070 145.1576960  52.7972890 120.3265170 145.7062790
  53.5411840 119.0129290 145.5923150  60.8813730 113.9085730 131.3078160
  60.8007780 112.9940340 131.0369870  60.4678150 114.4052800 130.6017870
  59.0131770 115.6864750 133.1887430  58.2373870 115.2065190 133.4786000
  59.6644700 115.0070400 133.0143590  53.0297600 115.9984560 134.0663190
  52.1982480 115.7433270 134.4659700  53.6378580 116.0695330 134.8021110
  63.0339200 120.0924940 131.9686560  62.5720730 119.3212180 132.2973730
  63.8464750 120.1191010 132.4739010  53.0098860 120.0324650 134.2621210
  53.3126900 119.1422390 134.0831430  53.7542450 120.5894870 134.0343460
  51.4389550 110.9586450 127.8505580  50.5506250 111.3002420 127.7485460
  51.7230740 110.7586770 126.9586410  49.4022560 113.5592100 133.7345280
  49.9738670 112.7914300 133.7348920  49.4024100 113.8580860 132.8251890
  59.2602510 122.3782950 131.5890550  58.6413950 122.8340450 131.0184990
  60.1154290 122.5334410 131.1880250  58.4540760 118.3621940 133.1957590
  58.3849040 117.4211880 133.0346720  59.2160620 118.4523350 133.7680160
  50.6447430 108.9676460 135.5214210  50.4650270 108.0702210 135.8016970
  50.2427510 109.5148330 136.1961160  59.4845930 111.1692320 133.4226520
  59.8610750 110.2964200 133.3100190  59.3865440 111.5051020 132.5316960
  53.6150940 109.5417950 128.8843960  53.7217690 110.4421680 129.1912720
  52.7043300 109.4935920 128.5938610  63.2670050 108.6642760 130.3554860
  64.0879670 108.1739330 130.3980340  63.3004130 109.2540420 131.1086700
  51.2634100 111.4636960 134.1296550  51.9444210 111.7275330 134.7483950
  50.9482150 110.6237830 134.4634560  55.4558670 112.5104320 133.2169140
  55.9636890 113.0085290 133.8574160  55.9871910 111.7339520 133.0408500
  67.5569600 110.6809510 136.9198490  66.8521770 111.0691220 136.4013600
  67.8227520 111.3759800 137.5219420  53.7394770 107.1502880 137.4832560
  53.7413210 107.6675270 136.6778460  52.9099080 106.6733060 137.4602490
  60.1265860 117.2622190 128.9822460  59.5083130 117.7271640 128.4185180
  60.6389110 117.9549670 129.3991970  54.9897620 116.7898060 135.6606060
  54.6567000 117.4166980 136.3027130  55.1664300 117.3159940 134.8807730
  63.5031530 110.6043140 133.1282400  62.7987100 110.8928030 133.7085510
  63.8643690 111.4143250 132.7681960  53.4210100 108.8612840 135.4903010
  53.7626910 109.7054890 135.1956880  52.4825910 109.0096580 135.6068350
  54.2016720 118.7578860 137.4755240  54.8190720 119.4329940 137.1939690
  53.3409840 119.1666840 137.3842740  49.4949060 117.9478720 126.3562090
  49.1177040 118.4365820 125.6246990  49.7522130 118.6204000 126.9868620
  65.1194310 120.2218270 135.3909880  64.4357830 120.8917380 135.3826550
  65.6588600 120.4198920 134.6254740  66.5718450 110.0497930 133.5191610
  65.6243360 110.0836910 133.6507040  66.8968440 110.8636880 133.9040970
  57.1037990 106.3495110 131.8147600  57.4112970 105.7942000 131.0983100
  56.1738690 106.4839570 131.6320590  62.6553050 122.0662400 134.1055060
  62.6680210 121.6624690 133.2377320  62.1028270 122.8409690 134.0016490
  63.9498470 118.7878620 129.1945230  63.8394800 117.8452950 129.3194650
  63.9466720 119.1494260 130.0807990  62.0538490 116.9692240 135.4337670
  62.4707280 116.7552350 134.5991130  62.7778310 117.2265030 136.0046290
  66.0000590 115.3679460 135.5253910  65.1719220 115.4372550 135.0504040
  66.5951070 115.9533770 135.0569740  63.5216040 115.9764240 129.0542970
  62.9028460 115.6383790 128.4069270  63.5040490 115.3324000 129.7622160
  62.9642600 112.1548780 136.4708780  62.5513780 112.9802490 136.7248770
  62.2318550 111.5693820 136.2785140  55.0975390 114.9408680 131.3327450
  54.6932390 114.2285930 130.8373350  55.1838510 114.5961920 132.2215490
  55.5657090 118.6276240 133.4966660  55.2685380 118.0221710 132.8174440
  56.5156910 118.6653550 133.3856020  53.8104010 111.7151890 135.1126490
  54.3618600 111.8247230 134.3379740  54.3247520 112.0889490 135.8281720
  63.6542700 122.2008110 137.1589760  63.1773260 123.0080300 136.9662370
  62.9704490 121.5486440 137.3115970  54.6575520 118.3657930 140.1474460
  53.7604050 118.5897900 140.3947860  54.6828390 118.4892870 139.1985860
  53.4846740 115.2371250 138.7231830  53.3454510 116.1094050 139.0919230
  52.6028100 114.8944060 138.5779770  59.8076120 120.1547120 130.0296960
  60.2472030 120.8971450 129.6152350  59.7463010 120.3973690 130.9535920
  55.2827090 121.1792950 140.9316980  55.2542520 121.5835900 140.0645410
  55.1192060 120.2503310 140.7688580  65.2797880 106.4693860 124.3756760
  64.9670540 106.5620690 125.2755830  66.0410350 107.0474890 124.3254190
  51.7980020 113.8353660 128.8334100  51.6777620 114.5615750 128.2215370
  51.4880910 113.0656570 128.3562010  67.2341910 121.9620050 142.2281150
  67.7101630 122.4402940 142.9070230  67.8549070 121.8937540 141.5026650
  49.4365390 117.0068800 134.6402740  49.5145810 117.1417570 133.6958460
  50.0507070 116.2984690 134.8330860  50.6813020 118.7068990 131.0508920
  50.2741100 118.8483580 130.1962520  51.5726030 118.4229150 130.8480130
  66.6375160 119.1532900 139.3881160  66.7638220 118.9144780 138.4698340
  66.6796540 118.3217440 139.8603240  60.4991900 122.8560900 137.9575970
  61.0136570 122.7668910 138.7598400  59.6560980 123.2020600 138.2503880
  62.4746300 123.1416240 127.3859970  62.3147440 122.8519180 128.2841800
  62.3093010 122.3656370 126.8505200  54.9534680 122.9214770 129.1631590
  54.7777160 122.0050310 128.9499390  54.0990420 123.2802060 129.4029390
  62.1772430 120.6503800 125.9457970  61.4837590 120.6481090 125.2860250
  62.9195290 120.2263120 125.5152140  61.7422360 122.2766510 130.0206460
  62.1979310 121.4955890 130.3345080  62.0814880 122.9873330 130.5647640
  66.4899170 111.2065360 140.3530900  65.8743440 111.7145030 139.8246360
  66.1695590 110.3063690 140.2956840  49.4924910 118.0482970 137.1797200
  49.6555950 117.5788330 136.3616570  49.9577360 117.5406530 137.8446040
  54.2643680 107.1788730 132.2157770  53.8211830 107.9598270 131.8842290
  54.8228670 107.5018620 132.9228710  58.5513490 110.0457250 137.8193090
  58.0892860 110.2540270 138.6313030  58.1491600 109.2316600 137.5163760
  63.5518000 111.2666200 138.9489750  62.7011590 110.9671950 139.2698820
  63.3919790 111.5108210 138.0373570  60.6467710 112.7667950 141.0488540
  60.9721120 111.9331700 140.7090770  61.4348040 113.2896470 141.1966870
  57.3802500 106.7999430 127.0963600  56.7556680 106.7959300 127.8216910
  57.2932620 105.9330390 126.6999570  56.3019580 107.7236060 134.0747370
  56.5991910 108.6298890 133.9939390  56.8505140 107.2354840 133.4606940
  56.4957110 113.2007880 140.6099290  56.4000710 112.2602610 140.4599690
  57.3389090 113.4222950 140.2147360  59.8920530 110.9449210 130.5732950
  60.2850100 111.2621410 129.7601640  60.2537380 110.0661090 130.6877470
  51.6267650 109.6121550 138.7633070  51.2331040 110.4596760 138.9705850
  50.9386050 108.9747920 138.9541710  58.2012700 109.6956520 141.8329810
  57.5111020 109.5028720 142.4675900  58.9445000 109.9791160 142.3654110
  48.9284700 107.5350010 132.7963150  48.6397750 108.1052870 133.5088130
  49.6730460 107.0554460 133.1594380  49.1154930 111.4770130 124.0065870
  49.0329600 112.4200890 124.1480860  48.7637990 111.3345040 123.1278220
  60.4775670 113.5354960 134.6683730  59.7456790 114.0441770 135.0173830
  60.0800010 112.7184940 134.3672510  56.9153060 110.2109160 133.0736220
  56.9189120 109.7699110 132.2240760  57.8104180 110.5326490 133.1808040
  52.7655440 110.0935650 132.0330430  52.4255490 110.5710880 132.7897480
  52.0032760 109.6400770 131.6731530  60.9401580 108.9888640 134.0806670
  60.9574320 109.4397290 134.9248520  60.6917160 108.0894280 134.2940110
  64.3672330 106.4020820 139.9193050  64.6918100 105.6710480 140.4451030
  64.4028840 106.0834460 139.0174040  51.0663890 117.4234400 139.3393010
  50.6818680 116.7828070 139.9375970  51.3776080 118.1270520 139.9087740
  57.2161030 114.2710940 134.8201630  57.5831160 113.7969510 135.5662970
  57.0266090 115.1452510 135.1609970  50.0801520 109.0154630 130.9495100
  49.7948440 108.6510300 131.7873720  50.0180380 108.2835090 130.3358240
  55.0060400 113.3119580 137.1385840  54.7017470 114.1911560 137.3636200
  55.9606860 113.3719370 137.1743280  53.5342190 117.5180570 127.7352690
  52.7604450 116.9778190 127.5751410  54.2636820 116.9987180 127.3970450
  64.2930170 116.5145930 133.5279080  65.0129290 117.0101220 133.1375190
  64.0911990 115.8363820 132.8832950  59.7540110 107.9083890 127.6708470
  58.9404720 107.4097060 127.5953780  59.5602060 108.7482140 127.2544820
  59.6748970 116.5854990 139.4148080  59.6086280 115.6650660 139.1605670
  59.0454110 116.6830430 140.1292720  53.5779590 117.1860950 131.3731500
  54.0958260 116.3829210 131.3188390  53.1263610 117.1240090 132.2148330
  58.4649090 118.4527230 126.6458800  58.8064790 119.1969460 126.1502120
  57.6361800 118.7658350 127.0083630  51.0624130 114.1522320 138.2857200
  50.7039070 114.8176170 138.8730540  50.7678690 113.3205870 138.6569820
  54.2637250 114.6106560 141.1696750  53.9637390 114.7563740 140.2724570
  55.0348490 114.0511850 141.0770140  59.6065700 119.4075560 139.1651880
  59.6210240 118.4756520 138.9470790  58.8990800 119.4935320 139.8041650
  65.8176910 116.0482900 138.5120460  65.0925100 116.6411680 138.3149850
  66.3452370 116.0406440 137.7133830  65.7690020 120.4457640 128.1632620
  65.1266180 119.7913260 128.4376340  65.3820680 120.8512730 127.3873290
  61.3476500 117.7743070 132.0104310  61.7000320 117.1771200 131.3505680
  60.4638830 117.4487300 132.1812560  57.4339780 118.5340760 129.4174720
  58.1210910 119.0809970 129.7982310  56.6472200 119.0781490 129.4524330
  49.5732180 114.1513580 124.9091800  50.4427030 114.4338380 125.1927720
  49.0822500 114.9649450 124.7940610  59.0399600 121.0493130 136.2592380
  59.6841820 121.2552510 136.9365800  59.4029040 120.2881530 135.8063230
  52.6378770 105.8824440 129.5022600  52.5093400 105.8742340 130.4507520
  51.8140790 106.2207530 129.1513610  60.3131680 119.0525480 134.9769830
  60.9553910 118.3518640 135.0902000  60.8381030 119.8323920 134.7966720
  62.0869300 119.8520380 138.1805890  62.4225540 120.4387070 138.8583810
  61.1669640 119.7213090 138.4103680  49.9403430 123.3640960 125.4753430
  50.3001070 123.9630300 124.8210700  49.7995770 123.9100850 126.2488460
  49.6372700 107.6415560 138.9629300  48.9231220 107.8412480 139.5681910
  50.0567740 106.8655130 139.3344100  49.9245290 121.6295820 139.9495830
  50.0336410 120.6890560 139.8091220  49.2725850 121.8950570 139.3009560
  57.9157880 119.9011710 141.3493950  57.5954750 119.1820950 141.8939640
  57.2416240 120.5766780 141.4230010  55.9572050 120.7472160 126.2927100
  55.9482150 121.4801850 125.6771610  55.0370410 120.5003740 126.3854060
  51.5578690 115.9687050 127.0373860  50.9506640 116.7085950 127.0469160
  52.0328040 116.0586410 126.2112060  61.1311480 110.1337870 136.7130750
  61.4992300 109.3133080 137.0410320  60.2709680 110.1939760 137.1286400
  64.4973510 109.0894810 127.5218310  63.8686670 109.1940480 126.8076540
  64.0025430 109.3091590 128.3112190  58.9431650 120.8100400 124.9552290
  59.0443630 120.6064390 124.0254270  58.0433390 120.5558680 125.1600070
  58.0913470 112.7877460 136.9368720  58.5898720 113.2623280 137.6020570
  58.2336420 111.8640980 137.1438750  60.4972970 108.0931420 130.3771980
  60.3740750 108.1117550 129.4281490  61.4457530 108.1410360 130.4970380
  57.5849760 123.3286720 129.6499960  57.8391260 123.2908110 128.7279330
  56.6362240 123.2020050 129.6428210  54.6692560 109.6765840 126.3126900
  55.5183090 110.1135990 126.2467090  54.3023830 109.9886100 127.1398960
  65.2980330 109.0045420 137.7797110  64.7953930 109.7450820 138.1190920
  66.1136990 109.3929420 137.4633900  52.2630740 113.3623270 125.4695320
  52.3434330 112.4150780 125.5812720  53.1550490 113.6930150 125.5755980
  65.5927920 121.4187450 132.9012730  65.7175340 122.2418620 133.3736540
  66.4593480 121.2078180 132.5536880  53.0645450 123.5118660 132.5729860
  53.8007930 122.9634120 132.8438430  53.4486370 124.3774670 132.4335850
  49.9490930 119.5792230 128.4471370  49.0230710 119.8213370 128.4376780
  50.4147360 120.4066490 128.3256120  52.0703730 122.6964730 141.7615440
  52.8716460 123.0176780 142.1750840  51.5555550 122.3360310 142.4835350
  56.1747760 122.6848970 124.3955430  56.9676370 122.9737800 123.9437220
  55.6552110 122.2541140 123.7167910  60.9068360 118.8044600 141.7090850
  60.3006520 118.8276200 140.9686600  60.6022470 118.0727640 142.2458100
  62.3368730 122.5324890 140.3200260  63.2890480 122.4482910 140.2700500
  62.1896950 123.1966600 140.9934050  49.7901540 115.1838190 140.7051490
  50.2940560 114.6045470 141.2767720  49.0508960 115.4678420 141.2427860
  56.6925160 117.9052380 124.2597780  56.5875800 117.2904730 124.9859160
  56.5249380 117.3818270 123.4760790  56.8439480 116.5909180 140.2387010
  56.0785150 117.1594180 140.1541680  57.0255440 116.2985390 139.3455240
  63.9862830 118.3214510 140.7962030  64.7272300 118.6590270 140.2929490
  63.2235510 118.4906570 140.2431800  51.8224620 113.3267780 141.6001560
  51.8629960 113.0281650 142.5086790  52.6770120 113.7275390 141.4409080
  53.7630430 111.9059880 139.5676050  53.2326890 111.4150830 138.9399390
  54.4318500 112.3344080 139.0333980  62.6608490 116.3729340 139.3317240
  63.0749510 116.5274420 140.1807660  61.7259490 116.4984560 139.4943020
  63.1330660 113.7125500 141.3356390  63.7151430 112.9577820 141.2476870
  63.3092430 114.2432940 140.5587870  54.2502730 108.8722250 139.6473340
  54.1559600 108.2543000 138.9224210  53.6700120 109.5988540 139.4203250
  57.0164170 107.4295490 136.6800730  56.5681470 107.4519750 135.8346280
  56.3829370 107.0314510 137.2771030  57.4223720 116.3249820 137.3013170
  57.8411830 117.1682550 137.1289410  56.5032350 116.4621860 137.0719950
  59.7587620 114.0566000 138.6851010  59.8783830 113.4607140 139.4245850
  60.6181620 114.0935690 138.2652310  62.0975520 114.6103190 137.2613520
  61.5710740 115.1345810 136.6578660  62.4406860 115.2430580 137.8923250
  55.2731140 122.6302830 138.4170900  54.7352230 123.3548890 138.0979600
  55.5265100 122.1533170 137.6268240  56.5256390 110.5987350 139.9426830
  57.1156080 110.2903200 140.6304650  55.7076630 110.1267100 140.0986730
  61.3449820 110.2153160 140.1759850  60.6565340 109.5534700 140.1109840
  62.0655840 109.7691430 140.6208310  61.9750220 106.8104790 126.2350110
  62.2552510 105.9672690 126.5909530  61.2015950 107.0427900 126.7488860
  53.2944710 109.0997180 123.6941110  53.5970610 109.1064610 122.7860260
  54.0339300 108.7495040 124.1908770  58.1293350 123.8654040 138.6757550
  58.0552050 124.7689180 138.9829920  57.2272190 123.5465940 138.6479620
  56.5129640 108.0431800 124.6797310  56.1651640 107.3655790 124.0999760
  56.7142410 107.5821310 125.4940700  58.6778680 123.0312550 126.2983910
  59.5729470 123.3697520 126.3202670  58.7096310 122.3091960 125.6708190
  52.3174840 118.4039600 124.5270910  52.7549710 118.9469270 125.1828490
  52.8022570 117.5786550 124.5367250  49.5320640 121.1928630 131.9791170
  49.8623650 120.3249690 131.7469810  49.9611640 121.3987150 132.8096130
  54.1282560 119.5237640 129.6393140  53.8278100 119.4002610 130.5397050
  54.0220050 118.6646230 129.2308870  50.0210850 122.0599220 134.7172800
  49.5841840 122.2400020 135.5496950  50.5888530 122.8173840 134.5754520
  65.6573030 121.5616220 139.0050110  65.0575020 121.6208780 138.2614030
  65.7866930 120.6221200 139.1346960  49.8535280 114.5719450 131.0761680
  49.1984120 114.3031090 130.4321380  50.6913230 114.4623930 130.6263660
  67.3590910 116.9031620 131.6895950  67.7299740 116.1198940 131.2831920
  67.9992840 117.5920720 131.5113250  64.3424670 118.2868200 137.1026270
  63.5284510 118.7165360 137.3652060  64.7498870 118.8986610 136.4895320
  62.8025720 109.3660740 125.2980170  63.2210600 109.1791720 124.4576830
  62.4961780 108.5139790 125.6083100  50.8911210 114.9572020 135.6165020
  51.2584250 114.8699420 136.4961040  50.3222030 114.1938570 135.5171880
  65.6915070 113.4256400 138.6295490  65.4601160 113.1969150 137.7293440
  65.9519620 114.3455950 138.5840380  50.4427210 111.8681110 139.5223440
  49.5483260 111.8347870 139.8617150  50.9824760 112.0667900 140.2874690
  64.1303140 108.6512830 141.4075190  65.0073320 108.6596230 141.7909190
  64.1423980 107.9143670 140.7967540  49.0673360 111.7818380 127.0187010
  48.1637440 112.0448580 126.8438670  49.5513980 112.0529550 126.2386970
  65.7556130 112.5882240 135.8182760  64.8058840 112.5545780 135.9327750
  65.9369140 113.4982350 135.5832530  51.6100570 110.8383920 124.9281390
  52.3192270 110.4167140 124.4428670  50.8940510 110.9059150 124.2964740
  51.2574730 106.8923250 123.9684040  51.9802860 107.4332190 124.2865260
  51.5299250 106.6186670 123.0925580  50.9466920 106.1429440 133.8706660
  51.5943110 105.5926820 133.4301820  51.3668760 106.3972590 134.6922470
  64.8419260 106.3370800 137.2276300  65.4791480 106.9504940 137.5935490
  64.9894150 106.3731460 136.2825530  67.3843810 108.2284590 124.0099440
  68.3093120 108.0965770 123.8017730  67.3619600 108.3077410 124.9635890
  64.4000720 123.0386800 130.6294540  64.9959790 122.7171370 129.9528960
  64.6578870 122.5658620 131.4207810  50.6998920 106.2985110 136.6131980
  50.3513740 106.7548930 137.3790160  50.3686620 105.4042240 136.6954410
  52.3063290 119.4704710 140.7785170  52.2632920 119.0997620 141.6599630
  52.4374300 120.4082280 140.9186990  56.0069320 121.0264300 136.3794890
  55.7660680 121.2938860 135.4925410  56.9471960 121.1970030 136.4345750
  58.2123740 107.4896990 140.1351400  58.1512630 108.0818820 140.8846810
  59.1524120 107.3822950 139.9901660  60.8498300 107.1467050 139.7743690
  61.4638710 107.4646340 139.1124770  61.3947860 106.6615640 140.3939550
  67.2673480 123.0458680 137.1805530  66.7731760 123.4427550 136.4632660
  66.6586770 122.4207890 137.5742810  51.3719560 105.8261310 139.8882750
  51.9202550 105.6449360 139.1248860  51.4374870 105.0355420 140.4239060
  52.1451320 122.4166960 137.8982950  51.5511640 122.2851660 138.6372990
  52.1375160 121.5805100 137.4325050  61.5906340 105.7099190 136.1012980
  60.7166180 106.0434300 135.8985910  61.4817090 105.2372370 136.9264850
  62.4978320 107.9170060 137.4854700  62.1691680 107.1021820 137.1056430
  63.4460620 107.8739870 137.3620390  64.9512930 123.6882100 134.4592270
  64.4915900 124.4397910 134.0850290  64.3225390 122.9688570 134.4007070
  51.7763550 119.7825340 136.8490990  51.0497610 119.1630630 136.7816940
  51.8372700 120.1765950 135.9789070  55.3808650 121.9970340 133.6340400
  55.8973670 121.3857700 133.1088660  56.0306030 122.4999120 134.1251410
  58.1204150 122.8878830 134.4609380  58.4081960 122.6333130 133.5842390
  58.6327370 122.3356190 135.0514950  59.3381160 106.6269030 135.0405890
  58.5552950 107.1014530 135.3202650  59.0444090 105.7223860 134.9319070
  63.8902230 107.3292130 133.0854980  64.3310320 107.2737230 132.2376580
  63.6209820 108.2450140 133.1565160  65.7540800 106.9607370 131.0963800
  65.6929200 106.0168590 130.9494820  66.5332830 107.0687460 131.6417260
  50.0593550 123.0999730 130.0587750  49.8915590 122.4670410 130.7569640
  49.1928060 123.3059130 129.7081940  50.6821570 106.9316510 127.5619610
  51.4400930 107.0445390 126.9883640  50.2198740 107.7685710 127.5163040
  57.2235380 109.0455780 130.5521920  56.4109890 108.6712670 130.2117800
  57.7277020 108.2900860 130.8543110  61.7260360 105.7098230 131.7904990
  62.3289730 106.2818440 132.2653510  60.9853350 106.2737670 131.5678890
  64.8694960 106.1119790 127.0645270  65.0645590 107.0103240 127.3312700
  64.0824830 105.8806870 127.5578220  51.6656250 121.7932960 127.5037890
  51.1403870 122.1740990 126.7999850  51.5900830 122.4183730 128.2247600
  53.0546720 107.4580560 126.1021580  53.5839480 106.6710360 125.9729530
  53.6875040 108.1371750 126.3357110  55.2484560 107.1955700 129.1566970
  54.6187300 106.4943010 129.3237100  54.7089700 107.9559830 128.9400130
  58.1876510 123.8094930 141.8277580  59.1143820 123.5739200 141.8713540
  58.1726940 124.6366930 141.3463610  66.4221570 123.3520500 128.8251830
  66.5973760 122.6658240 128.1812750  65.7243140 123.8767550 128.4328500
  55.3740120 106.4739680 141.5919460  55.0924390 106.9773280 140.8280280
  55.7559820 105.6761430 141.2261590  54.2649220 123.7415340 126.3787140
  54.9968040 123.4574620 125.8311030  54.5242890 123.5028620 127.2686520
  53.4264010 119.8580070 126.3833470  52.7972890 120.3265170 126.9319300
  53.5411840 119.0129290 126.8179660  61.9755580 105.8893260 142.1699930
  61.8621030 106.2087870 143.0651450  62.7925320 106.2905770 141.8737210
  64.7554070 123.0364790 141.6518620  65.5479390 122.5414020 141.4444580
  65.0487220 123.7154930 142.2594230  60.8813730 113.9085730 112.5334670
  60.8007780 112.9940340 112.2626380  60.4678150 114.4052800 111.8274380
  59.0131770 115.6864750 114.4143940  58.2373870 115.2065190 114.7042510
  59.6644700 115.0070400 114.2400100  53.0297600 115.9984560 115.2919700
  52.1982480 115.7433270 115.6916210  53.6378580 116.0695330 116.0277620
  53.0098860 120.0324650 115.4877720  53.3126900 119.1422390 115.3087940
  53.7542450 120.5894870 115.2599970  59.4845930 111.1692320 114.6483030
  59.8610750 110.2964200 114.5356700  59.3865440 111.5051020 113.7573470
  63.2670050 108.6642760 111.5811370  64.0879670 108.1739330 111.6236850
  63.3004130 109.2540420 112.3343210  67.5569600 110.6809510 118.1455000
  66.8521770 111.0691220 117.6270110  67.8227520 111.3759800 118.7475930
  53.7394770 107.1502880 118.7089070  53.7413210 107.6675270 117.9034970
  52.9099080 106.6733060 118.6859000  60.1265860 117.2622190 110.2078970
  59.5083130 117.7271640 109.6441690  60.6389110 117.9549670 110.6248480
  54.9897620 116.7898060 116.8862570  54.6567000 117.4166980 117.5283640
  55.1664300 117.3159940 116.1064240  63.5031530 110.6043140 114.3538910
  62.7987100 110.8928030 114.9342020  63.8643690 111.4143250 113.9938470
  54.2016720 118.7578860 118.7011750  54.8190720 119.4329940 118.4196200
  53.3409840 119.1666840 118.6099250  49.4949060 117.9478720 107.5818600
  49.1177040 118.4365820 106.8503500  49.7522130 118.6204000 108.2125130
  65.1194310 120.2218270 116.6166390  64.4357830 120.8917380 116.6083060
  65.6588600 120.4198920 115.8511250  66.5718450 110.0497930 114.7448120
  65.6243360 110.0836910 114.8763550  66.8968440 110.8636880 115.1297480
  57.1037990 106.3495110 113.0404110  57.4112970 105.7942000 112.3239610
  56.1738690 106.4839570 112.8577100  62.0538490 116.9692240 116.6594180
  62.4707280 116.7552350 115.8247640  62.7778310 117.2265030 117.2302800
  59.4918750 114.4143940 109.7764230  58.5648030 114.3481320 110.0052700
  59.6443570 115.3524070 109.6619470  59.4787830 110.6860940 106.7731390
  58.5391500 110.8474900 106.8583850  59.7971090 111.4046620 106.2267380
  66.0000590 115.3679460 116.7510420  65.1719220 115.4372550 116.2760550
  66.5951070 115.9533770 116.2826250  63.5216040 115.9764240 110.2799480
  62.9028460 115.6383790 109.6325780  63.5040490 115.3324000 110.9878670
  62.9642600 112.1548780 117.6965290  62.5513780 112.9802490 117.9505280
  62.2318550 111.5693820 117.5041650  55.5657090 118.6276240 114.7223170
  55.2685380 118.0221710 114.0430950  56.5156910 118.6653550 114.6112530
  63.6542700 122.2008110 118.3846270  63.1773260 123.0080300 118.1918880
  62.9704490 121.5486440 118.5372480  54.6575520 118.3657930 121.3730970
  53.7604050 118.5897900 121.6204370  54.6828390 118.4892870 120.4242370
  61.6980740 115.2151050 107.2872230  62.1374020 114.3773480 107.1410050
  62.4109160 115.8480450 107.3736370  53.4846740 115.2371250 119.9488340
  53.3454510 116.1094050 120.3175740  52.6028100 114.8944060 119.8036280
  55.2827090 121.1792950 122.1573490  55.2542520 121.5835900 121.2901920
  55.1192060 120.2503310 121.9945090  60.4991900 122.8560900 119.1832480
  61.0136570 122.7668910 119.9854910  59.6560980 123.2020600 119.4760390
  54.9534680 122.9214770 110.3888100  54.7777160 122.0050310 110.1755900
  54.0990420 123.2802060 110.6285900  66.4899170 111.2065360 121.5787410
  65.8743440 111.7145030 121.0502870  66.1695590 110.3063690 121.5213350
  49.4924910 118.0482970 118.4053710  49.6555950 117.5788330 117.5873080
  49.9577360 117.5406530 119.0702550  54.2643680 107.1788730 113.4414280
  53.8211830 107.9598270 113.1098800  54.8228670 107.5018620 114.1485220
  58.5513490 110.0457250 119.0449600  58.0892860 110.2540270 119.8569540
  58.1491600 109.2316600 118.7420270  63.5518000 111.2666200 120.1746260
  62.7011590 110.9671950 120.4955330  63.3919790 111.5108210 119.2630080
  57.3802500 106.7999430 108.3220110  56.7556680 106.7959300 109.0473420
  57.2932620 105.9330390 107.9256080  56.3019580 107.7236060 115.3003880
  56.5991910 108.6298890 115.2195900  56.8505140 107.2354840 114.6863450
  61.2855660 112.3085670 109.7686180  60.6864550 113.0321470 109.5849800
  61.8335270 112.2462450 108.9862630  59.8920530 110.9449210 111.7989460
  60.2850100 111.2621410 110.9858150  60.2537380 110.0661090 111.9133980
  51.6267650 109.6121550 119.9889580  51.2331040 110.4596760 120.1962360
  50.9386050 108.9747920 120.1798220  49.1154930 111.4770130 105.2322380
  49.0329600 112.4200890 105.3737370  48.7637990 111.3345040 104.3534730
  60.4775670 113.5354960 115.8940240  59.7456790 114.0441770 116.2430340
  60.0800010 112.7184940 115.5929020  60.9401580 108.9888640 115.3063180
  60.9574320 109.4397290 116.1505030  60.6917160 108.0894280 115.5196620
  64.3672330 106.4020820 121.1449560  64.6918100 105.6710480 121.6707540
  64.4028840 106.0834460 120.2430550  51.0663890 117.4234400 120.5649520
  50.6818680 116.7828070 121.1632480  51.3776080 118.1270520 121.1344250
  53.5342190 117.5180570 108.9609200  52.7604450 116.9778190 108.8007920
  54.2636820 116.9987180 108.6226960  64.2930170 116.5145930 114.7535590
  65.0129290 117.0101220 114.3631700  64.0911990 115.8363820 114.1089460
  59.7540110 107.9083890 108.8964980  58.9404720 107.4097060 108.8210290
  59.5602060 108.7482140 108.4801330  62.4688500 112.2803540 107.1927140
  63.3568120 112.5920770 107.0178480  62.4393590 111.4075790 106.8007720
  53.5779590 117.1860950 112.5988010  54.0958260 116.3829210 112.5444900
  53.1263610 117.1240090 113.4404840  51.0624130 114.1522320 119.5113710
  50.7039070 114.8176170 120.0987050  50.7678690 113.3205870 119.8826330
  54.2637250 114.6106560 122.3953260  53.9637390 114.7563740 121.4981080
  55.0348490 114.0511850 122.3026650  64.7402770 113.5915380 106.6607000
  64.6566490 114.0229600 105.8103440  65.4596960 114.0513730 107.0933820
  61.3476500 117.7743070 113.2360820  61.7000320 117.1771200 112.5762190
  60.4638830 117.4487300 113.4069070  49.5732180 114.1513580 106.1348310
  50.4427030 114.4338380 106.4184230  49.0822500 114.9649450 106.0197120
  56.7366990 115.5386790 110.2556590  57.1929770 116.3492040 110.4816780
  56.3855200 115.2209930 111.0875080  59.0399600 121.0493130 117.4848890
  59.6841820 121.2552510 118.1622310  59.4029040 120.2881530 117.0319740
  52.6378770 105.8824440 110.7279110  52.5093400 105.8742340 111.6764030
  51.8140790 106.2207530 110.3770120  60.3131680 119.0525480 116.2026340
  60.9553910 118.3518640 116.3158510  60.8381030 119.8323920 116.0223230
  62.0869300 119.8520380 119.4062400  62.4225540 120.4387070 120.0840320
  61.1669640 119.7213090 119.6360190  49.9403430 123.3640960 106.7009940
  50.3001070 123.9630300 106.0467210  49.7995770 123.9100850 107.4744970
  49.6372700 107.6415560 120.1885810  48.9231220 107.8412480 120.7938420
  50.0567740 106.8655130 120.5600610  49.9245290 121.6295820 121.1752340
  50.0336410 120.6890560 121.0347730  49.2725850 121.8950570 120.5266070
  55.9572050 120.7472160 107.5183610  55.9482150 121.4801850 106.9028120
  55.0370410 120.5003740 107.6110570  51.5578690 115.9687050 108.2630370
  50.9506640 116.7085950 108.2725670  52.0328040 116.0586410 107.4368570
  61.1311480 110.1337870 117.9387260  61.4992300 109.3133080 118.2666830
  60.2709680 110.1939760 118.3542910  64.4973510 109.0894810 108.7474820
  63.8686670 109.1940480 108.0333050  64.0025430 109.3091590 109.5368700
  60.4972970 108.0931420 111.6028490  60.3740750 108.1117550 110.6538000
  61.4457530 108.1410360 111.7226890  65.2980330 109.0045420 119.0053620
  64.7953930 109.7450820 119.3447430  66.1136990 109.3929420 118.6890410
  63.5902340 114.2478600 112.4514980  62.6492480 114.2628830 112.6262670
  63.9046410 113.4614560 112.8975280  53.5683980 115.9298200 106.0118940
  54.3347250 115.8179560 106.5744370  53.6458670 115.2336170 105.3595710
  52.2630740 113.3623270 106.6951830  52.3434330 112.4150780 106.8069230
  53.1550490 113.6930150 106.8012490  65.5927920 121.4187450 114.1269240
  65.7175340 122.2418620 114.5993050  66.4593480 121.2078180 113.7793390
  53.0645450 123.5118660 113.7986370  53.8007930 122.9634120 114.0694940
  53.4486370 124.3774670 113.6592360  52.0703730 122.6964730 122.9871950
  52.8716460 123.0176780 123.4007350  51.5555550 122.3360310 123.7091860
  56.1747760 122.6848970 105.6211940  56.9676370 122.9737800 105.1693730
  55.6552110 122.2541140 104.9424420  62.3368730 122.5324890 121.5456770
  63.2890480 122.4482910 121.4957010  62.1896950 123.1966600 122.2190560
  49.7901540 115.1838190 121.9308000  50.2940560 114.6045470 122.5024230
  49.0508960 115.4678420 122.4684370  56.6925160 117.9052380 105.4854290
  56.5875800 117.2904730 106.2115670  56.5249380 117.3818270 104.7017300
  51.8224620 113.3267780 122.8258070  51.8629960 113.0281650 123.7343300
  52.6770120 113.7275390 122.6665590  55.6003010 115.9263330 107.9861580
  56.0219430 115.7603200 108.8292970  55.7253850 115.1163560 107.4916720
  53.7630430 111.9059880 120.7932560  53.2326890 111.4150830 120.1655900
  54.4318500 112.3344080 120.2590490  58.1130650 114.9500940 105.2338680
  58.6336310 114.2349960 104.8679830  58.7599050 115.5886810 105.5339190
  54.2502730 108.8722250 120.8729850  54.1559600 108.2543000 120.1480720
  53.6700120 109.5988540 120.6459760  57.0164170 107.4295490 117.9057240
  56.5681470 107.4519750 117.0602790  56.3829370 107.0314510 118.5027540
  57.4223720 116.3249820 118.5269680  57.8411830 117.1682550 118.3545920
  56.5032350 116.4621860 118.2976460  62.0975520 114.6103190 118.4870030
  61.5710740 115.1345810 117.8835170  62.4406860 115.2430580 119.1179760
  55.2731140 122.6302830 119.6427410  54.7352230 123.3548890 119.3236110
  55.5265100 122.1533170 118.8524750  56.5256390 110.5987350 121.1683340
  57.1156080 110.2903200 121.8561160  55.7076630 110.1267100 121.3243240
  61.9750220 106.8104790 107.4606620  62.2552510 105.9672690 107.8166040
  61.2015950 107.0427900 107.9745370  58.1293350 123.8654040 119.9014060
  58.0552050 124.7689180 120.2086430  57.2272190 123.5465940 119.8736130
  52.3174840 118.4039600 105.7527420  52.7549710 118.9469270 106.4085000
  52.8022570 117.5786550 105.7623760  54.1282560 119.5237640 110.8649650
  53.8278100 119.4002610 111.7653560  54.0220050 118.6646230 110.4565380
  64.3424670 118.2868200 118.3282780  63.5284510 118.7165360 118.5908570
  64.7498870 118.8986610 117.7151830  62.8025720 109.3660740 106.5236680
  63.2210600 109.1791720 105.6833340  62.4961780 108.5139790 106.8339610
  66.3015450 114.2784880 110.2212480  65.9259050 113.5112810 109.7893770
  65.5718570 114.6607580 110.7087410  50.4427210 111.8681110 120.7479950
  49.5483260 111.8347870 121.0873660  50.9824760 112.0667900 121.5131200
  64.1303140 108.6512830 122.6331700  65.0073320 108.6596230 123.0165700
  64.1423980 107.9143670 122.0224050  65.5766410 112.5042370 113.5219720
  66.1003890 112.0105020 112.8909890  66.1625830 112.6392730 114.2667290
  65.7556130 112.5882240 117.0439270  64.8058840 112.5545780 117.1584260
  65.9369140 113.4982350 116.8089040  65.0666380 111.7615720 109.4612130
  65.5625500 111.5286590 110.2461010  64.8682450 110.9227560 109.0449770
  66.4953540 110.3976670 111.9949810  66.3852820 110.2432710 112.9332080
  67.2561130 109.8697610 111.7525220  67.4582300 108.9995250 107.8612660
  66.6633800 108.9340370 108.3905570  67.6625580 109.9345890 107.8498010
  50.6998920 106.2985110 117.8388490  50.3513740 106.7548930 118.6046670
  50.3686620 105.4042240 117.9210920  52.3063290 119.4704710 122.0041680
  52.2632920 119.0997620 122.8856140  52.4374300 120.4082280 122.1443500
  56.0069320 121.0264300 117.6051400  55.7660680 121.2938860 116.7181920
  56.9471960 121.1970030 117.6602260  58.2123740 107.4896990 121.3607910
  58.1512630 108.0818820 122.1103320  59.1524120 107.3822950 121.2158170
  60.8498300 107.1467050 121.0000200  61.4638710 107.4646340 120.3381280
  61.3947860 106.6615640 121.6196060  67.2673480 123.0458680 118.4062040
  66.7731760 123.4427550 117.6889170  66.6586770 122.4207890 118.7999320
  51.3719560 105.8261310 121.1139260  51.9202550 105.6449360 120.3505370
  51.4374870 105.0355420 121.6495570  52.1451320 122.4166960 119.1239460
  51.5511640 122.2851660 119.8629500  52.1375160 121.5805100 118.6581560
  61.5906340 105.7099190 117.3269490  60.7166180 106.0434300 117.1242420
  61.4817090 105.2372370 118.1521360  62.4978320 107.9170060 118.7111210
  62.1691680 107.1021820 118.3312940  63.4460620 107.8739870 118.5876900
  64.9512930 123.6882100 115.6848780  64.4915900 124.4397910 115.3106800
  64.3225390 122.9688570 115.6263580  51.7763550 119.7825340 118.0747500
  51.0497610 119.1630630 118.0073450  51.8372700 120.1765950 117.2045580
  55.3808650 121.9970340 114.8596910  55.8973670 121.3857700 114.3345170
  56.0306030 122.4999120 115.3507920  59.3381160 106.6269030 116.2662400
  58.5552950 107.1014530 116.5459160  59.0444090 105.7223860 116.1575580
  63.8902230 107.3292130 114.3111490  64.3310320 107.2737230 113.4633090
  63.6209820 108.2450140 114.3821670  65.7540800 106.9607370 112.3220310
  65.6929200 106.0168590 112.1751330  66.5332830 107.0687460 112.8673770
  57.2235380 109.0455780 111.7778430  56.4109890 108.6712670 111.4374310
  57.7277020 108.2900860 112.0799620  61.7260360 105.7098230 113.0161500
  62.3289730 106.2818440 113.4910020  60.9853350 106.2737670 112.7935400
  51.6656250 121.7932960 108.7294400  51.1403870 122.1740990 108.0256360
  51.5900830 122.4183730 109.4504110  55.2484560 107.1955700 110.3823480
  54.6187300 106.4943010 110.5493610  54.7089700 107.9559830 110.1656640
  58.1876510 123.8094930 123.0534090  59.1143820 123.5739200 123.0970050
  58.1726940 124.6366930 122.5720120  66.4221570 123.3520500 110.0508340
  66.5973760 122.6658240 109.4069260  65.7243140 123.8767550 109.6585010
  55.3740120 106.4739680 122.8175970  55.0924390 106.9773280 122.0536790
  55.7559820 105.6761430 122.4518100  54.2649220 123.7415340 107.6043650
  54.9968040 123.4574620 107.0567540  54.5242890 123.5028620 108.4943030
  53.4264010 119.8580070 107.6089980  52.7972890 120.3265170 108.1575810
  53.5411840 119.0129290 108.0436170  61.9755580 105.8893260 123.3956440
  61.8621030 106.2087870 124.2907960  62.7925320 106.2905770 123.0993720
  60.8813730 113.9085730  93.7591180  60.8007780 112.9940340  93.4882890
  60.4678150 114.4052800  93.0530890  59.0131770 115.6864750  95.6400450
  58.2373870 115.2065190  95.9299020  59.6644700 115.0070400  95.4656610
  59.2602510 122.3782950  94.0403570  58.6413950 122.8340450  93.4698010
  60.1154290 122.5334410  93.6393270  58.4540760 118.3621940  95.6470610
  58.3849040 117.4211880  95.4859740  59.2160620 118.4523350  96.2193180
  59.4845930 111.1692320  95.8739540  59.8610750 110.2964200  95.7613210
  59.3865440 111.5051020  94.9829980  63.2670050 108.6642760  92.8067880
  64.0879670 108.1739330  92.8493360  63.3004130 109.2540420  93.5599720
  67.5569600 110.6809510  99.3711510  66.8521770 111.0691220  98.8526620
  67.8227520 111.3759800  99.9732440  53.7394770 107.1502880  99.9345580
  53.7413210 107.6675270  99.1291480  52.9099080 106.6733060  99.9115510
  60.1265860 117.2622190  91.4335480  59.5083130 117.7271640  90.8698200
  60.6389110 117.9549670  91.8504990  63.5031530 110.6043140  95.5795420
  62.7987100 110.8928030  96.1598530  63.8643690 111.4143250  95.2194980
  53.4210100 108.8612840  97.9416030  53.7626910 109.7054890  97.6469900
  52.4825910 109.0096580  98.0581370  54.2016720 118.7578860  99.9268260
  54.8190720 119.4329940  99.6452710  53.3409840 119.1666840  99.8355760
  65.1194310 120.2218270  97.8422900  64.4357830 120.8917380  97.8339570
  65.6588600 120.4198920  97.0767760  66.5718450 110.0497930  95.9704630
  65.6243360 110.0836910  96.1020060  66.8968440 110.8636880  96.3553990
  57.1037990 106.3495110  94.2660620  57.4112970 105.7942000  93.5496120
  56.1738690 106.4839570  94.0833610  62.6553050 122.0662400  96.5568080
  62.6680210 121.6624690  95.6890340  62.1028270 122.8409690  96.4529510
  62.0538490 116.9692240  97.8850690  62.4707280 116.7552350  97.0504150
  62.7778310 117.2265030  98.4559310  66.0000590 115.3679460  97.9766930
  65.1719220 115.4372550  97.5017060  66.5951070 115.9533770  97.5082760
  63.5216040 115.9764240  91.5055990  62.9028460 115.6383790  90.8582290
  63.5040490 115.3324000  92.2135180  62.9642600 112.1548780  98.9221800
  62.5513780 112.9802490  99.1761790  62.2318550 111.5693820  98.7298160
  55.0975390 114.9408680  93.7840470  54.6932390 114.2285930  93.2886370
  55.1838510 114.5961920  94.6728510  53.8104010 111.7151890  97.5639510
  54.3618600 111.8247230  96.7892760  54.3247520 112.0889490  98.2794740
  63.6542700 122.2008110  99.6102780  63.1773260 123.0080300  99.4175390
  62.9704490 121.5486440  99.7628990  54.6575520 118.3657930 102.5987480
  53.7604050 118.5897900 102.8460880  54.6828390 118.4892870 101.6498880
  61.6980740 115.2151050  88.5128740  62.1374020 114.3773480  88.3666560
  62.4109160 115.8480450  88.5992880  53.4846740 115.2371250 101.1744850
  53.3454510 116.1094050 101.5432250  52.6028100 114.8944060 101.0292790
  55.2827090 121.1792950 103.3830000  55.2542520 121.5835900 102.5158430
  55.1192060 120.2503310 103.2201600  66.6375160 119.1532900 101.8394180
  66.7638220 118.9144780 100.9211360  66.6796540 118.3217440 102.3116260
  60.4991900 122.8560900 100.4088990  61.0136570 122.7668910 101.2111420
  59.6560980 123.2020600 100.7016900  62.1772430 120.6503800  88.3970990
  61.4837590 120.6481090  87.7373270  62.9195290 120.2263120  87.9665160
  66.4899170 111.2065360 102.8043920  65.8743440 111.7145030 102.2759380
  66.1695590 110.3063690 102.7469860  58.5513490 110.0457250 100.2706110
  58.0892860 110.2540270 101.0826050  58.1491600 109.2316600  99.9676780
  63.5518000 111.2666200 101.4002770  62.7011590 110.9671950 101.7211840
  63.3919790 111.5108210 100.4886590  60.6467710 112.7667950 103.5001560
  60.9721120 111.9331700 103.1603790  61.4348040 113.2896470 103.6479890
  56.3019580 107.7236060  96.5260390  56.5991910 108.6298890  96.4452410
  56.8505140 107.2354840  95.9119960  61.2855660 112.3085670  90.9942690
  60.6864550 113.0321470  90.8106310  61.8335270 112.2462450  90.2119140
  56.4957110 113.2007880 103.0612310  56.4000710 112.2602610 102.9112710
  57.3389090 113.4222950 102.6660380  59.8920530 110.9449210  93.0245970
  60.2850100 111.2621410  92.2114660  60.2537380 110.0661090  93.1390490
  60.4775670 113.5354960  97.1196750  59.7456790 114.0441770  97.4686850
  60.0800010 112.7184940  96.8185530  56.9153060 110.2109160  95.5249240
  56.9189120 109.7699110  94.6753780  57.8104180 110.5326490  95.6321060
  60.9401580 108.9888640  96.5319690  60.9574320 109.4397290  97.3761540
  60.6917160 108.0894280  96.7453130  51.0663890 117.4234400 101.7906030
  50.6818680 116.7828070 102.3888990  51.3776080 118.1270520 102.3600760
  57.2161030 114.2710940  97.2714650  57.5831160 113.7969510  98.0175990
  57.0266090 115.1452510  97.6122990  55.0060400 113.3119580  99.5898860
  54.7017470 114.1911560  99.8149220  55.9606860 113.3719370  99.6256300
  64.2930170 116.5145930  95.9792100  65.0129290 117.0101220  95.5888210
  64.0911990 115.8363820  95.3345970  59.6748970 116.5854990 101.8661100
  59.6086280 115.6650660 101.6118690  59.0454110 116.6830430 102.5805740
  62.4688500 112.2803540  88.4183650  63.3568120 112.5920770  88.2434990
  62.4393590 111.4075790  88.0264230  58.4649090 118.4527230  89.0971820
  58.8064790 119.1969460  88.6015140  57.6361800 118.7658350  89.4596650
  51.0624130 114.1522320 100.7370220  50.7039070 114.8176170 101.3243560
  50.7678690 113.3205870 101.1082840  54.2637250 114.6106560 103.6209770
  53.9637390 114.7563740 102.7237590  55.0348490 114.0511850 103.5283160
  59.6065700 119.4075560 101.6164900  59.6210240 118.4756520 101.3983810
  58.8990800 119.4935320 102.2554670  64.7402770 113.5915380  87.8863510
  64.6566490 114.0229600  87.0359950  65.4596960 114.0513730  88.3190330
  65.8176910 116.0482900 100.9633480  65.0925100 116.6411680 100.7662870
  66.3452370 116.0406440 100.1646850  61.3476500 117.7743070  94.4617330
  61.7000320 117.1771200  93.8018700  60.4638830 117.4487300  94.6325580
  57.4339780 118.5340760  91.8687740  58.1210910 119.0809970  92.2495330
  56.6472200 119.0781490  91.9037350  59.0399600 121.0493130  98.7105400
  59.6841820 121.2552510  99.3878820  59.4029040 120.2881530  98.2576250
  52.6378770 105.8824440  91.9535620  52.5093400 105.8742340  92.9020540
  51.8140790 106.2207530  91.6026630  60.3131680 119.0525480  97.4282850
  60.9553910 118.3518640  97.5415020  60.8381030 119.8323920  97.2479740
  64.1587400 119.3374100  87.1521990  63.9324980 118.6204540  87.7446630
  63.7683600 119.0886540  86.3143740  62.0869300 119.8520380 100.6318910
  62.4225540 120.4387070 101.3096830  61.1669640 119.7213090 100.8616700
  63.7403650 117.2546040  88.8136150  63.4525350 117.7158730  89.6014030
  64.5355820 116.7943810  89.0820370  57.9157880 119.9011710 103.8006970
  57.5954750 119.1820950 104.3452660  57.2416240 120.5766780 103.8743030
  61.1311480 110.1337870  99.1643770  61.4992300 109.3133080  99.4923340
  60.2709680 110.1939760  99.5799420  64.4973510 109.0894810  89.9731330
  63.8686670 109.1940480  89.2589560  64.0025430 109.3091590  90.7625210
  58.9431650 120.8100400  87.4065310  59.0443630 120.6064390  86.4767290
  58.0433390 120.5558680  87.6113090  58.0913470 112.7877460  99.3881740
  58.5898720 113.2623280 100.0533590  58.2336420 111.8640980  99.5951770
  60.4972970 108.0931420  92.8285000  60.3740750 108.1117550  91.8794510
  61.4457530 108.1410360  92.9483400  57.5849760 123.3286720  92.1012980
  57.8391260 123.2908110  91.1792350  56.6362240 123.2020050  92.0941230
  63.5902340 114.2478600  93.6771490  62.6492480 114.2628830  93.8519180
  63.9046410 113.4614560  94.1231790  52.0703730 122.6964730 104.2128460
  52.8716460 123.0176780 104.6263860  51.5555550 122.3360310 104.9348370
  62.3368730 122.5324890 102.7713280  63.2890480 122.4482910 102.7213520
  62.1896950 123.1966600 103.4447070  65.2277930 121.9119100  88.2705190
  64.9419440 121.4984240  87.4559370  65.0297480 122.8406810  88.1505710
  49.7901540 115.1838190 103.1564510  50.2940560 114.6045470 103.7280740
  49.0508960 115.4678420 103.6940880  56.8439480 116.5909180 102.6900030
  56.0785150 117.1594180 102.6054700  57.0255440 116.2985390 101.7968260
  59.9327890 116.9672410  87.3152790  59.3837990 117.4141710  87.9595530
  60.5547150 116.4621660  87.8390460  63.9862830 118.3214510 103.2475050
  64.7272300 118.6590270 102.7442510  63.2235510 118.4906570 102.6944820
  51.8224620 113.3267780 104.0514580  51.8629960 113.0281650 104.9599810
  52.6770120 113.7275390 103.8922100  53.7630430 111.9059880 102.0189070
  53.2326890 111.4150830 101.3912410  54.4318500 112.3344080 101.4847000
  62.6608490 116.3729340 101.7830260  63.0749510 116.5274420 102.6320680
  61.7259490 116.4984560 101.9456040  63.1330660 113.7125500 103.7869410
  63.7151430 112.9577820 103.6989890  63.3092430 114.2432940 103.0100890
  54.2502730 108.8722250 102.0986360  54.1559600 108.2543000 101.3737230
  53.6700120 109.5988540 101.8716270  57.0164170 107.4295490  99.1313750
  56.5681470 107.4519750  98.2859300  56.3829370 107.0314510  99.7284050
  57.4223720 116.3249820  99.7526190  57.8411830 117.1682550  99.5802430
  56.5032350 116.4621860  99.5232970  59.7587620 114.0566000 101.1364030
  59.8783830 113.4607140 101.8758870  60.6181620 114.0935690 100.7165330
  62.0975520 114.6103190  99.7126540  61.5710740 115.1345810  99.1091680
  62.4406860 115.2430580 100.3436270  55.2731140 122.6302830 100.8683920
  54.7352230 123.3548890 100.5492620  55.5265100 122.1533170 100.0781260
  56.5256390 110.5987350 102.3939850  57.1156080 110.2903200 103.0817670
  55.7076630 110.1267100 102.5499750  61.3449820 110.2153160 102.6272870
  60.6565340 109.5534700 102.5622860  62.0655840 109.7691430 103.0721330
  61.9750220 106.8104790  88.6863130  62.2552510 105.9672690  89.0422550
  61.2015950 107.0427900  89.2001880  58.1293350 123.8654040 101.1270570
  58.0552050 124.7689180 101.4342940  57.2272190 123.5465940 101.0992640
  65.6573030 121.5616220 101.4563130  65.0575020 121.6208780 100.7127050
  65.7866930 120.6221200 101.5859980  66.8974480 119.3034040  86.7932840
  66.0667440 119.3710690  87.2640070  67.0746310 120.1938160  86.4899700
  66.3530940 116.0481520  89.2967040  67.1149850 116.6178170  89.4026730
  66.3685310 115.4808720  90.0675350  67.3590910 116.9031620  94.1408970
  67.7299740 116.1198940  93.7344940  67.9992840 117.5920720  93.9626270
  64.3424670 118.2868200  99.5539290  63.5284510 118.7165360  99.8165080
  64.7498870 118.8986610  98.9408340  66.4050110 116.3415890  86.4539560
  66.6798950 117.2494770  86.3258780  66.2160850 116.2778420  87.3901550
  62.8025720 109.3660740  87.7493190  63.2210600 109.1791720  86.9089850
  62.4961780 108.5139790  88.0596120  66.3015450 114.2784880  91.4468990
  65.9259050 113.5112810  91.0150280  65.5718570 114.6607580  91.9343920
  65.6915070 113.4256400 101.0808510  65.4601160 113.1969150 100.1806460
  65.9519620 114.3455950 101.0353400  50.4427210 111.8681110 101.9736460
  49.5483260 111.8347870 102.3130170  50.9824760 112.0667900 102.7387710
  49.0673360 111.7818380  89.4700030  48.1637440 112.0448580  89.2951690
  49.5513980 112.0529550  88.6899990  65.5766410 112.5042370  94.7476230
  66.1003890 112.0105020  94.1166400  66.1625830 112.6392730  95.4923800
  65.7556130 112.5882240  98.2695780  64.8058840 112.5545780  98.3840770
  65.9369140 113.4982350  98.0345550  65.0666380 111.7615720  90.6868640
  65.5625500 111.5286590  91.4717520  64.8682450 110.9227560  90.2706280
  50.6998920 106.2985110  99.0645000  50.3513740 106.7548930  99.8303180
  50.3686620 105.4042240  99.1467430  52.3063290 119.4704710 103.2298190
  52.2632920 119.0997620 104.1112650  52.4374300 120.4082280 103.3700010
  56.0069320 121.0264300  98.8307910  55.7660680 121.2938860  97.9438430
  56.9471960 121.1970030  98.8858770  58.2123740 107.4896990 102.5864420
  58.1512630 108.0818820 103.3359830  59.1524120 107.3822950 102.4414680
  67.2673480 123.0458680  99.6318550  66.7731760 123.4427550  98.9145680
  66.6586770 122.4207890 100.0255830  64.9512930 123.6882100  96.9105290
  64.4915900 124.4397910  96.5363310  64.3225390 122.9688570  96.8520090
  55.3808650 121.9970340  96.0853420  55.8973670 121.3857700  95.5601680
  56.0306030 122.4999120  96.5764430  58.1204150 122.8878830  96.9122400
  58.4081960 122.6333130  96.0355410  58.6327370 122.3356190  97.5027970
  50.0593550 123.0999730  92.5100770  49.8915590 122.4670410  93.2082660
  49.1928060 123.3059130  92.1594960  57.2235380 109.0455780  93.0034940
  56.4109890 108.6712670  92.6630820  57.7277020 108.2900860  93.3056130
  58.1876510 123.8094930 104.2790600  59.1143820 123.5739200 104.3226560
  58.1726940 124.6366930 103.7976630  64.7554070 123.0364790 104.1031640
  65.5479390 122.5414020 103.8957600  65.0487220 123.7154930 104.7107250
  59.0131770 115.6864750  76.8656960  58.2373870 115.2065190  77.1555530
  59.6644700 115.0070400  76.6913120  51.4389550 110.9586450  71.5275110
  50.5506250 111.3002420  71.4254990  51.7230740 110.7586770  70.6355940
  58.4540760 118.3621940  76.8727120  58.3849040 117.4211880  76.7116250
  59.2160620 118.4523350  77.4449690  59.4845930 111.1692320  77.0996050
  59.8610750 110.2964200  76.9869720  59.3865440 111.5051020  76.2086490
  53.6150940 109.5417950  72.5613490  53.7217690 110.4421680  72.8682250
  52.7043300 109.4935920  72.2708140  55.4558670 112.5104320  76.8938670
  55.9636890 113.0085290  77.5343690  55.9871910 111.7339520  76.7178030
  54.9897620 116.7898060  79.3375590  54.6567000 117.4166980  79.9796660
  55.1664300 117.3159940  78.5577260  54.2016720 118.7578860  81.1524770
  54.8190720 119.4329940  80.8709220  53.3409840 119.1666840  81.0612270
  65.1194310 120.2218270  79.0679410  64.4357830 120.8917380  79.0596080
  65.6588600 120.4198920  78.3024270  57.1037990 106.3495110  75.4917130
  57.4112970 105.7942000  74.7752630  56.1738690 106.4839570  75.3090120
  55.5657090 118.6276240  77.1736190  55.2685380 118.0221710  76.4943970
  56.5156910 118.6653550  77.0625550  63.6542700 122.2008110  80.8359290
  63.1773260 123.0080300  80.6431900  62.9704490 121.5486440  80.9885500
  59.8076120 120.1547120  73.7066490  60.2472030 120.8971450  73.2921880
  59.7463010 120.3973690  74.6305450  65.2797880 106.4693860  68.0526290
  64.9670540 106.5620690  68.9525360  66.0410350 107.0474890  68.0023720
  67.2341910 121.9620050  85.9050680  67.7101630 122.4402940  86.5839760
  67.8549070 121.8937540  85.1796180  66.6375160 119.1532900  83.0650690
  66.7638220 118.9144780  82.1467870  66.6796540 118.3217440  83.5372770
  54.2643680 107.1788730  75.8927300  53.8211830 107.9598270  75.5611820
  54.8228670 107.5018620  76.5998240  58.5513490 110.0457250  81.4962620
  58.0892860 110.2540270  82.3082560  58.1491600 109.2316600  81.1933290
  60.6467710 112.7667950  84.7258070  60.9721120 111.9331700  84.3860300
  61.4348040 113.2896470  84.8736400  57.3802500 106.7999430  70.7733130
  56.7556680 106.7959300  71.4986440  57.2932620 105.9330390  70.3769100
  56.3019580 107.7236060  77.7516900  56.5991910 108.6298890  77.6708920
  56.8505140 107.2354840  77.1376470  59.8920530 110.9449210  74.2502480
  60.2850100 111.2621410  73.4371170  60.2537380 110.0661090  74.3647000
  58.2012700 109.6956520  85.5099340  57.5111020 109.5028720  86.1445430
  58.9445000 109.9791160  86.0423640  48.9284700 107.5350010  76.4732680
  48.6397750 108.1052870  77.1857660  49.6730460 107.0554460  76.8363910
  49.1154930 111.4770130  67.6835400  49.0329600 112.4200890  67.8250390
  48.7637990 111.3345040  66.8047750  60.4775670 113.5354960  78.3453260
  59.7456790 114.0441770  78.6943360  60.0800010 112.7184940  78.0442040
  56.9153060 110.2109160  76.7505750  56.9189120 109.7699110  75.9010290
  57.8104180 110.5326490  76.8577570  60.9401580 108.9888640  77.7576200
  60.9574320 109.4397290  78.6018050  60.6917160 108.0894280  77.9709640
  64.3672330 106.4020820  83.5962580  64.6918100 105.6710480  84.1220560
  64.4028840 106.0834460  82.6943570  57.2161030 114.2710940  78.4971160
  57.5831160 113.7969510  79.2432500  57.0266090 115.1452510  78.8379500
  50.0801520 109.0154630  74.6264630  49.7948440 108.6510300  75.4643250
  50.0180380 108.2835090  74.0127770  59.7540110 107.9083890  71.3478000
  58.9404720 107.4097060  71.2723310  59.5602060 108.7482140  70.9314350
  59.6748970 116.5854990  83.0917610  59.6086280 115.6650660  82.8375200
  59.0454110 116.6830430  83.8062250  61.3476500 117.7743070  75.6873840
  61.7000320 117.1771200  75.0275210  60.4638830 117.4487300  75.8582090
  52.6378770 105.8824440  73.1792130  52.5093400 105.8742340  74.1277050
  51.8140790 106.2207530  72.8283140  49.9403430 123.3640960  69.1522960
  50.3001070 123.9630300  68.4980230  49.7995770 123.9100850  69.9257990
  57.9157880 119.9011710  85.0263480  57.5954750 119.1820950  85.5709170
  57.2416240 120.5766780  85.0999540  61.1311480 110.1337870  80.3900280
  61.4992300 109.3133080  80.7179850  60.2709680 110.1939760  80.8055930
  58.9431650 120.8100400  68.6321820  59.0443630 120.6064390  67.7023800
  58.0433390 120.5558680  68.8369600  58.0913470 112.7877460  80.6138250
  58.5898720 113.2623280  81.2790100  58.2336420 111.8640980  80.8208280
  60.4972970 108.0931420  74.0541510  60.3740750 108.1117550  73.1051020
  61.4457530 108.1410360  74.1739910  54.6692560 109.6765840  69.9896430
  55.5183090 110.1135990  69.9236620  54.3023830 109.9886100  70.8168490
  65.5927920 121.4187450  76.5782260  65.7175340 122.2418620  77.0506070
  66.4593480 121.2078180  76.2306410  56.1747760 122.6848970  68.0724960
  56.9676370 122.9737800  67.6206750  55.6552110 122.2541140  67.3937440
  60.9068360 118.8044600  85.3860380  60.3006520 118.8276200  84.6456130
  60.6022470 118.0727640  85.9227630  62.3368730 122.5324890  83.9969790
  63.2890480 122.4482910  83.9470030  62.1896950 123.1966600  84.6703580
  63.9862830 118.3214510  84.4731560  64.7272300 118.6590270  83.9699020
  63.2235510 118.4906570  83.9201330  62.6608490 116.3729340  83.0086770
  63.0749510 116.5274420  83.8577190  61.7259490 116.4984560  83.1712550
  63.1330660 113.7125500  85.0125920  63.7151430 112.9577820  84.9246400
  63.3092430 114.2432940  84.2357400  57.0164170 107.4295490  80.3570260
  56.5681470 107.4519750  79.5115810  56.3829370 107.0314510  80.9540560
  57.4223720 116.3249820  80.9782700  57.8411830 117.1682550  80.8058940
  56.5032350 116.4621860  80.7489480  59.7587620 114.0566000  82.3620540
  59.8783830 113.4607140  83.1015380  60.6181620 114.0935690  81.9421840
  61.3449820 110.2153160  83.8529380  60.6565340 109.5534700  83.7879370
  62.0655840 109.7691430  84.2977840  61.9750220 106.8104790  69.9119640
  62.2552510 105.9672690  70.2679060  61.2015950 107.0427900  70.4258390
  53.2944710 109.0997180  67.3710640  53.5970610 109.1064610  66.4629790
  54.0339300 108.7495040  67.8678300  56.5129640 108.0431800  68.3566840
  56.1651640 107.3655790  67.7769290  56.7142410 107.5821310  69.1710230
  65.6573030 121.5616220  82.6819640  65.0575020 121.6208780  81.9383560
  65.7866930 120.6221200  82.8116490  67.3590910 116.9031620  75.3665480
  67.7299740 116.1198940  74.9601450  67.9992840 117.5920720  75.1882780
  64.3424670 118.2868200  80.7795800  63.5284510 118.7165360  81.0421590
  64.7498870 118.8986610  80.1664850  64.1303140 108.6512830  85.0844720
  65.0073320 108.6596230  85.4678720  64.1423980 107.9143670  84.4737070
  49.0673360 111.7818380  70.6956540  48.1637440 112.0448580  70.5208200
  49.5513980 112.0529550  69.9156500  51.6100570 110.8383920  68.6050920
  52.3192270 110.4167140  68.1198200  50.8940510 110.9059150  67.9734270
  51.2574730 106.8923250  67.6453570  51.9802860 107.4332190  67.9634790
  51.5299250 106.6186670  66.7695110  64.8419260 106.3370800  80.9045830
  65.4791480 106.9504940  81.2705020  64.9894150 106.3731460  79.9595060
  67.3843810 108.2284590  67.6868970  68.3093120 108.0965770  67.4787260
  67.3619600 108.3077410  68.6405420  67.4582300 108.9995250  70.3125680
  66.6633800 108.9340370  70.8418590  67.6625580 109.9345890  70.3011030
  64.4000720 123.0386800  74.3064070  64.9959790 122.7171370  73.6298490
  64.6578870 122.5658620  75.0977340  58.2123740 107.4896990  83.8120930
  58.1512630 108.0818820  84.5616340  59.1524120 107.3822950  83.6671190
  60.8498300 107.1467050  83.4513220  61.4638710 107.4646340  82.7894300
  61.3947860 106.6615640  84.0709080  67.2673480 123.0458680  80.8575060
  66.7731760 123.4427550  80.1402190  66.6586770 122.4207890  81.2512340
  52.1451320 122.4166960  81.5752480  51.5511640 122.2851660  82.3142520
  52.1375160 121.5805100  81.1094580  61.5906340 105.7099190  79.7782510
  60.7166180 106.0434300  79.5755440  61.4817090 105.2372370  80.6034380
  62.4978320 107.9170060  81.1624230  62.1691680 107.1021820  80.7825960
  63.4460620 107.8739870  81.0389920  64.9512930 123.6882100  78.1361800
  64.4915900 124.4397910  77.7619820  64.3225390 122.9688570  78.0776600
  59.3381160 106.6269030  78.7175420  58.5552950 107.1014530  78.9972180
  59.0444090 105.7223860  78.6088600  63.8902230 107.3292130  76.7624510
  64.3310320 107.2737230  75.9146110  63.6209820 108.2450140  76.8334690
  65.7540800 106.9607370  74.7733330  65.6929200 106.0168590  74.6264350
  66.5332830 107.0687460  75.3186790  50.0593550 123.0999730  73.7357280
  49.8915590 122.4670410  74.4339170  49.1928060 123.3059130  73.3851470
  50.6821570 106.9316510  71.2389140  51.4400930 107.0445390  70.6653170
  50.2198740 107.7685710  71.1932570  57.2235380 109.0455780  74.2291450
  56.4109890 108.6712670  73.8887330  57.7277020 108.2900860  74.5312640
  61.7260360 105.7098230  75.4674520  62.3289730 106.2818440  75.9423040
  60.9853350 106.2737670  75.2448420  64.8694960 106.1119790  70.7414800
  65.0645590 107.0103240  71.0082230  64.0824830 105.8806870  71.2347750
  53.0546720 107.4580560  69.7791110  53.5839480 106.6710360  69.6499060
  53.6875040 108.1371750  70.0126640  55.2484560 107.1955700  72.8336500
  54.6187300 106.4943010  73.0006630  54.7089700 107.9559830  72.6169660
  58.1876510 123.8094930  85.5047110  59.1143820 123.5739200  85.5483070
  58.1726940 124.6366930  85.0233140  61.9755580 105.8893260  85.8469460
  61.8621030 106.2087870  86.7420980  62.7925320 106.2905770  85.5506740
  64.7554070 123.0364790  85.3288150  65.5479390 122.5414020  85.1214110
  65.0487220 123.7154930  85.9363760  60.8813730 113.9085730  56.2104200
  60.8007780 112.9940340  55.9395910  60.4678150 114.4052800  55.5043910
  59.0131770 115.6864750  58.0913470  58.2373870 115.2065190  58.3812040
  59.6644700 115.0070400  57.9169630  53.0297600 115.9984560  58.9689230
  52.1982480 115.7433270  59.3685740  53.6378580 116.0695330  59.7047150
  63.0339200 120.0924940  56.8712600  62.5720730 119.3212180  57.1999770
  63.8464750 120.1191010  57.3765050  53.0098860 120.0324650  59.1647250
  53.3126900 119.1422390  58.9857470  53.7542450 120.5894870  58.9369500
  51.4389550 110.9586450  52.7531620  50.5506250 111.3002420  52.6511500
  51.7230740 110.7586770  51.8612450  49.4022560 113.5592100  58.6371320
  49.9738670 112.7914300  58.6374960  49.4024100 113.8580860  57.7277930
  58.4540760 118.3621940  58.0983630  58.3849040 117.4211880  57.9372760
  59.2160620 118.4523350  58.6706200  59.4845930 111.1692320  58.3252560
  59.8610750 110.2964200  58.2126230  59.3865440 111.5051020  57.4343000
  53.6150940 109.5417950  53.7870000  53.7217690 110.4421680  54.0938760
  52.7043300 109.4935920  53.4964650  63.2670050 108.6642760  55.2580900
  64.0879670 108.1739330  55.3006380  63.3004130 109.2540420  56.0112740
  51.2634100 111.4636960  59.0322590  51.9444210 111.7275330  59.6509990
  50.9482150 110.6237830  59.3660600  55.4558670 112.5104320  58.1195180
  55.9636890 113.0085290  58.7600200  55.9871910 111.7339520  57.9434540
  67.5569600 110.6809510  61.8224530  66.8521770 111.0691220  61.3039640
  67.8227520 111.3759800  62.4245460  54.9897620 116.7898060  60.5632100
  54.6567000 117.4166980  61.2053170  55.1664300 117.3159940  59.7833770
  63.5031530 110.6043140  58.0308440  62.7987100 110.8928030  58.6111550
  63.8643690 111.4143250  57.6708000  54.2016720 118.7578860  62.3781280
  54.8190720 119.4329940  62.0965730  53.3409840 119.1666840  62.2868780
  65.1194310 120.2218270  60.2935920  64.4357830 120.8917380  60.2852590
  65.6588600 120.4198920  59.5280780  66.5718450 110.0497930  58.4217650
  65.6243360 110.0836910  58.5533080  66.8968440 110.8636880  58.8067010
  57.1037990 106.3495110  56.7173640  57.4112970 105.7942000  56.0009140
  56.1738690 106.4839570  56.5346630  62.0538490 116.9692240  60.3363710
  62.4707280 116.7552350  59.5017170  62.7778310 117.2265030  60.9072330
  59.4918750 114.4143940  53.4533760  58.5648030 114.3481320  53.6822230
  59.6443570 115.3524070  53.3389000  59.4787830 110.6860940  50.4500920
  58.5391500 110.8474900  50.5353380  59.7971090 111.4046620  49.9036910
  66.0000590 115.3679460  60.4279950  65.1719220 115.4372550  59.9530080
  66.5951070 115.9533770  59.9595780  63.5216040 115.9764240  53.9569010
  62.9028460 115.6383790  53.3095310  63.5040490 115.3324000  54.6648200
  62.9642600 112.1548780  61.3734820  62.5513780 112.9802490  61.6274810
  62.2318550 111.5693820  61.1811180  55.0975390 114.9408680  56.2353490
  54.6932390 114.2285930  55.7399390  55.1838510 114.5961920  57.1241530
  55.5657090 118.6276240  58.3992700  55.2685380 118.0221710  57.7200480
  56.5156910 118.6653550  58.2882060  53.8104010 111.7151890  60.0152530
  54.3618600 111.8247230  59.2405780  54.3247520 112.0889490  60.7307760
  61.6980740 115.2151050  50.9641760  62.1374020 114.3773480  50.8179580
  62.4109160 115.8480450  51.0505900  55.2827090 121.1792950  65.8343020
  55.2542520 121.5835900  64.9671450  55.1192060 120.2503310  65.6714620
  65.2797880 106.4693860  49.2782800  64.9670540 106.5620690  50.1781870
  66.0410350 107.0474890  49.2280230  51.7980020 113.8353660  53.7360140
  51.6777620 114.5615750  53.1241410  51.4880910 113.0656570  53.2588050
  67.2341910 121.9620050  67.1307190  67.7101630 122.4402940  67.8096270
  67.8549070 121.8937540  66.4052690  49.4365390 117.0068800  59.5428780
  49.5145810 117.1417570  58.5984500  50.0507070 116.2984690  59.7356900
  50.6813020 118.7068990  55.9534960  50.2741100 118.8483580  55.0988560
  51.5726030 118.4229150  55.7506170  66.6375160 119.1532900  64.2907200
  66.7638220 118.9144780  63.3724380  66.6796540 118.3217440  64.7629280
  66.4899170 111.2065360  65.2556940  65.8743440 111.7145030  64.7272400
  66.1695590 110.3063690  65.1982880  54.2643680 107.1788730  57.1183810
  53.8211830 107.9598270  56.7868330  54.8228670 107.5018620  57.8254750
  54.0557900 112.3022300  54.8465060  53.8298820 112.0859470  55.7511680
  53.2750430 112.7350760  54.5011030  61.2855660 112.3085670  53.4455710
  60.6864550 113.0321470  53.2619330  61.8335270 112.2462450  52.6632160
  56.4957110 113.2007880  65.5125330  56.4000710 112.2602610  65.3625730
  57.3389090 113.4222950  65.1173400  59.8920530 110.9449210  55.4758990
  60.2850100 111.2621410  54.6627680  60.2537380 110.0661090  55.5903510
  58.2012700 109.6956520  66.7355850  57.5111020 109.5028720  67.3701940
  58.9445000 109.9791160  67.2680150  49.1154930 111.4770130  48.9091910
  49.0329600 112.4200890  49.0506900  48.7637990 111.3345040  48.0304260
  60.4775670 113.5354960  59.5709770  59.7456790 114.0441770  59.9199870
  60.0800010 112.7184940  59.2698550  56.9153060 110.2109160  57.9762260
  56.9189120 109.7699110  57.1266800  57.8104180 110.5326490  58.0834080
  52.7655440 110.0935650  56.9356470  52.4255490 110.5710880  57.6923520
  52.0032760 109.6400770  56.5757570  56.9773210 111.2121240  50.9669020
  57.0986030 111.1707720  51.9154840  56.5921720 112.0745390  50.8115750
  60.9401580 108.9888640  58.9832710  60.9574320 109.4397290  59.8274560
  60.6917160 108.0894280  59.1966150  55.9894710 113.5222380  50.3652320
  55.4211610 113.0740630  49.7388230  56.6983710 113.8815160  49.8317470
  64.3672330 106.4020820  64.8219090  64.6918100 105.6710480  65.3477070
  64.4028840 106.0834460  63.9200080  57.2161030 114.2710940  59.7227670
  57.5831160 113.7969510  60.4689010  57.0266090 115.1452510  60.0636010
  55.0060400 113.3119580  62.0411880  54.7017470 114.1911560  62.2662240
  55.9606860 113.3719370  62.0769320  64.2930170 116.5145930  58.4305120
  65.0129290 117.0101220  58.0401230  64.0911990 115.8363820  57.7858990
  59.7540110 107.9083890  52.5734510  58.9404720 107.4097060  52.4979820
  59.5602060 108.7482140  52.1570860  59.6748970 116.5854990  64.3174120
  59.6086280 115.6650660  64.0631710  59.0454110 116.6830430  65.0318760
  62.4688500 112.2803540  50.8696670  63.3568120 112.5920770  50.6948010
  62.4393590 111.4075790  50.4777250  53.5779590 117.1860950  56.2757540
  54.0958260 116.3829210  56.2214430  53.1263610 117.1240090  57.1174370
  59.6065700 119.4075560  64.0677920  59.6210240 118.4756520  63.8496830
  58.8990800 119.4935320  64.7067690  64.7402770 113.5915380  50.3376530
  64.6566490 114.0229600  49.4872970  65.4596960 114.0513730  50.7703350
  65.8176910 116.0482900  63.4146500  65.0925100 116.6411680  63.2175890
  66.3452370 116.0406440  62.6159870  65.7690020 120.4457640  53.0658660
  65.1266180 119.7913260  53.3402380  65.3820680 120.8512730  52.2899330
  61.3476500 117.7743070  56.9130350  61.7000320 117.1771200  56.2531720
  60.4638830 117.4487300  57.0838600  57.4339780 118.5340760  54.3200760
  58.1210910 119.0809970  54.7008350  56.6472200 119.0781490  54.3550370
  49.5732180 114.1513580  49.8117840  50.4427030 114.4338380  50.0953760
  49.0822500 114.9649450  49.6966650  56.7366990 115.5386790  53.9326120
  57.1929770 116.3492040  54.1586310  56.3855200 115.2209930  54.7644610
  60.3131680 119.0525480  59.8795870  60.9553910 118.3518640  59.9928040
  60.8381030 119.8323920  59.6992760  62.0869300 119.8520380  63.0831930
  62.4225540 120.4387070  63.7609850  61.1669640 119.7213090  63.3129720
  49.9245290 121.6295820  64.8521870  50.0336410 120.6890560  64.7117260
  49.2725850 121.8950570  64.2035600  57.9157880 119.9011710  66.2519990
  57.5954750 119.1820950  66.7965680  57.2416240 120.5766780  66.3256050
  61.1311480 110.1337870  61.6156790  61.4992300 109.3133080  61.9436360
  60.2709680 110.1939760  62.0312440  64.4973510 109.0894810  52.4244350
  63.8686670 109.1940480  51.7102580  64.0025430 109.3091590  53.2138230
  56.4657540 111.3680760  53.8402230  55.7573690 111.8367100  54.2815840
  56.7502020 110.7102770  54.4747420  58.0913470 112.7877460  61.8394760
  58.5898720 113.2623280  62.5046610  58.2336420 111.8640980  62.0464790
  60.4972970 108.0931420  55.2798020  60.3740750 108.1117550  54.3307530
  61.4457530 108.1410360  55.3996420  54.6692560 109.6765840  51.2152940
  55.5183090 110.1135990  51.1493130  54.3023830 109.9886100  52.0425000
  65.2980330 109.0045420  62.6823150  64.7953930 109.7450820  63.0216960
  66.1136990 109.3929420  62.3659940  63.5902340 114.2478600  56.1284510
  62.6492480 114.2628830  56.3032200  63.9046410 113.4614560  56.5744810
  53.5683980 115.9298200  49.6888470  54.3347250 115.8179560  50.2513900
  53.6458670 115.2336170  49.0365240  52.2630740 113.3623270  50.3721360
  52.3434330 112.4150780  50.4838760  53.1550490 113.6930150  50.4782020
  53.0645450 123.5118660  57.4755900  53.8007930 122.9634120  57.7464470
  53.4486370 124.3774670  57.3361890  52.0703730 122.6964730  66.6641480
  52.8716460 123.0176780  67.0776880  51.5555550 122.3360310  67.3861390
  62.3368730 122.5324890  65.2226300  63.2890480 122.4482910  65.1726540
  62.1896950 123.1966600  65.8960090  65.2277930 121.9119100  50.7218210
  64.9419440 121.4984240  49.9072390  65.0297480 122.8406810  50.6018730
  56.6925160 117.9052380  49.1623820  56.5875800 117.2904730  49.8885200
  56.5249380 117.3818270  48.3786830  56.8439480 116.5909180  65.1413050
  56.0785150 117.1594180  65.0567720  57.0255440 116.2985390  64.2481280
  55.6003010 115.9263330  51.6631110  56.0219430 115.7603200  52.5062500
  55.7253850 115.1163560  51.1686250  53.7630430 111.9059880  64.4702090
  53.2326890 111.4150830  63.8425430  54.4318500 112.3344080  63.9360020
  58.1130650 114.9500940  48.9108210  58.6336310 114.2349960  48.5449360
  58.7599050 115.5886810  49.2108720  57.4223720 116.3249820  62.2039210
  57.8411830 117.1682550  62.0315450  56.5032350 116.4621860  61.9745990
  59.7587620 114.0566000  63.5877050  59.8783830 113.4607140  64.3271890
  60.6181620 114.0935690  63.1678350  62.0975520 114.6103190  62.1639560
  61.5710740 115.1345810  61.5604700  62.4406860 115.2430580  62.7949290
  54.4961910 111.9996560  48.6089270  54.2950970 111.1363920  48.9702610
  54.3253960 111.9129920  47.6710870  55.2731140 122.6302830  63.3196940
  54.7352230 123.3548890  63.0005640  55.5265100 122.1533170  62.5294280
  56.5256390 110.5987350  64.8452870  57.1156080 110.2903200  65.5330690
  55.7076630 110.1267100  65.0012770  61.9750220 106.8104790  51.1376150
  62.2552510 105.9672690  51.4935570  61.2015950 107.0427900  51.6514900
  53.2944710 109.0997180  48.5967150  53.5970610 109.1064610  47.6886300
  54.0339300 108.7495040  49.0934810  56.5129640 108.0431800  49.5823350
  56.1651640 107.3655790  49.0025800  56.7142410 107.5821310  50.3966740
  49.5320640 121.1928630  56.8817210  49.8623650 120.3249690  56.6495850
  49.9611640 121.3987150  57.7122170  54.1282560 119.5237640  54.5419180
  53.8278100 119.4002610  55.4423090  54.0220050 118.6646230  54.1334910
  50.0210850 122.0599220  59.6198840  49.5841840 122.2400020  60.4522990
  50.5888530 122.8173840  59.4780560  65.6573030 121.5616220  63.9076150
  65.0575020 121.6208780  63.1640070  65.7866930 120.6221200  64.0373000
  66.8974480 119.3034040  49.2445860  66.0667440 119.3710690  49.7153090
  67.0746310 120.1938160  48.9412720  66.3530940 116.0481520  51.7480060
  67.1149850 116.6178170  51.8539750  66.3685310 115.4808720  52.5188370
  49.8535280 114.5719450  55.9787720  49.1984120 114.3031090  55.3347420
  50.6913230 114.4623930  55.5289700  67.3590910 116.9031620  56.5921990
  67.7299740 116.1198940  56.1857960  67.9992840 117.5920720  56.4139290
  64.3424670 118.2868200  62.0052310  63.5284510 118.7165360  62.2678100
  64.7498870 118.8986610  61.3921360  66.4050110 116.3415890  48.9052580
  66.6798950 117.2494770  48.7771800  66.2160850 116.2778420  49.8414570
  62.8025720 109.3660740  50.2006210  63.2210600 109.1791720  49.3602870
  62.4961780 108.5139790  50.5109140  66.3015450 114.2784880  53.8982010
  65.9259050 113.5112810  53.4663300  65.5718570 114.6607580  54.3856940
  65.6915070 113.4256400  63.5321530  65.4601160 113.1969150  62.6319480
  65.9519620 114.3455950  63.4866420  49.0673360 111.7818380  51.9213050
  48.1637440 112.0448580  51.7464710  49.5513980 112.0529550  51.1413010
  65.5766410 112.5042370  57.1989250  66.1003890 112.0105020  56.5679420
  66.1625830 112.6392730  57.9436820  65.7556130 112.5882240  60.7208800
  64.8058840 112.5545780  60.8353790  65.9369140 113.4982350  60.4858570
  51.6100570 110.8383920  49.8307430  52.3192270 110.4167140  49.3454710
  50.8940510 110.9059150  49.1990780  51.2574730 106.8923250  48.8710080
  51.9802860 107.4332190  49.1891300  51.5299250 106.6186670  47.9951620
  65.0666380 111.7615720  53.1381660  65.5625500 111.5286590  53.9230540
  64.8682450 110.9227560  52.7219300  66.4953540 110.3976670  55.6719340
  66.3852820 110.2432710  56.6101610  67.2561130 109.8697610  55.4294750
  64.8419260 106.3370800  62.1302340  65.4791480 106.9504940  62.4961530
  64.9894150 106.3731460  61.1851570  67.3843810 108.2284590  48.9125480
  68.3093120 108.0965770  48.7043770  67.3619600 108.3077410  49.8661930
  67.4582300 108.9995250  51.5382190  66.6633800 108.9340370  52.0675100
  67.6625580 109.9345890  51.5267540  64.4000720 123.0386800  55.5320580
  64.9959790 122.7171370  54.8555000  64.6578870 122.5658620  56.3233850
  56.0069320 121.0264300  61.2820930  55.7660680 121.2938860  60.3951450
  56.9471960 121.1970030  61.3371790  67.2673480 123.0458680  62.0831570
  66.7731760 123.4427550  61.3658700  66.6586770 122.4207890  62.4768850
  51.3719560 105.8261310  64.7908790  51.9202550 105.6449360  64.0274900
  51.4374870 105.0355420  65.3265100  52.1451320 122.4166960  62.8008990
  51.5511640 122.2851660  63.5399030  52.1375160 121.5805100  62.3351090
  61.5906340 105.7099190  61.0039020  60.7166180 106.0434300  60.8011950
  61.4817090 105.2372370  61.8290890  62.4978320 107.9170060  62.3880740
  62.1691680 107.1021820  62.0082470  63.4460620 107.8739870  62.2646430
  51.7763550 119.7825340  61.7517030  51.0497610 119.1630630  61.6842980
  51.8372700 120.1765950  60.8815110  55.3808650 121.9970340  58.5366440
  55.8973670 121.3857700  58.0114700  56.0306030 122.4999120  59.0277450
  59.3381160 106.6269030  59.9431930  58.5552950 107.1014530  60.2228690
  59.0444090 105.7223860  59.8345110  63.8902230 107.3292130  57.9881020
  64.3310320 107.2737230  57.1402620  63.6209820 108.2450140  58.0591200
  65.7540800 106.9607370  55.9989840  65.6929200 106.0168590  55.8520860
  66.5332830 107.0687460  56.5443300  50.0593550 123.0999730  54.9613790
  49.8915590 122.4670410  55.6595680  49.1928060 123.3059130  54.6107980
  57.2235380 109.0455780  55.4547960  56.4109890 108.6712670  55.1143840
  57.7277020 108.2900860  55.7569150  61.7260360 105.7098230  56.6931030
  62.3289730 106.2818440  57.1679550  60.9853350 106.2737670  56.4704930
  64.8694960 106.1119790  51.9671310  65.0645590 107.0103240  52.2338740
  64.0824830 105.8806870  52.4604260  58.1876510 123.8094930  66.7303620
  59.1143820 123.5739200  66.7739580  58.1726940 124.6366930  66.2489650
  66.4221570 123.3520500  53.7277870  66.5973760 122.6658240  53.0838790
  65.7243140 123.8767550  53.3354540  61.9755580 105.8893260  67.0725970
  61.8621030 106.2087870  67.9677490  62.7925320 106.2905770  66.7763250
  64.7554070 123.0364790  66.5544660  65.5479390 122.5414020  66.3470620
  65.0487220 123.7154930  67.1620270  51.4389550 110.9586450  33.9788130
  50.5506250 111.3002420  33.8768010  51.7230740 110.7586770  33.0868960
  59.2602510 122.3782950  37.7173100  58.6413950 122.8340450  37.1467540
  60.1154290 122.5334410  37.3162800  53.6150940 109.5417950  35.0126510
  53.7217690 110.4421680  35.3195270  52.7043300 109.4935920  34.7221160
  67.5569600 110.6809510  43.0481040  66.8521770 111.0691220  42.5296150
  67.8227520 111.3759800  43.6501970  53.7394770 107.1502880  43.6115110
  53.7413210 107.6675270  42.8061010  52.9099080 106.6733060  43.5885040
  49.4949060 117.9478720  32.4844640  49.1177040 118.4365820  31.7529540
  49.7522130 118.6204000  33.1151170  66.5718450 110.0497930  39.6474160
  65.6243360 110.0836910  39.7789590  66.8968440 110.8636880  40.0323520
  57.1037990 106.3495110  37.9430150  57.4112970 105.7942000  37.2265650
  56.1738690 106.4839570  37.7603140  63.9498470 118.7878620  35.3227780
  63.8394800 117.8452950  35.4477200  63.9466720 119.1494260  36.2090540
  66.0000590 115.3679460  41.6536460  65.1719220 115.4372550  41.1786590
  66.5951070 115.9533770  41.1852290  63.5216040 115.9764240  35.1825520
  62.9028460 115.6383790  34.5351820  63.5040490 115.3324000  35.8904710
  62.9642600 112.1548780  42.5991330  62.5513780 112.9802490  42.8531320
  62.2318550 111.5693820  42.4067690  59.8076120 120.1547120  36.1579510
  60.2472030 120.8971450  35.7434900  59.7463010 120.3973690  37.0818470
  65.2797880 106.4693860  30.5039310  64.9670540 106.5620690  31.4038380
  66.0410350 107.0474890  30.4536740  51.7980020 113.8353660  34.9616650
  51.6777620 114.5615750  34.3497920  51.4880910 113.0656570  34.4844560
  67.2341910 121.9620050  48.3563700  67.7101630 122.4402940  49.0352780
  67.8549070 121.8937540  47.6309200  50.6813020 118.7068990  37.1791470
  50.2741100 118.8483580  36.3245070  51.5726030 118.4229150  36.9762680
  66.6375160 119.1532900  45.5163710  66.7638220 118.9144780  44.5980890
  66.6796540 118.3217440  45.9885790  62.4746300 123.1416240  33.5142520
  62.3147440 122.8519180  34.4124350  62.3093010 122.3656370  32.9787750
  54.9534680 122.9214770  35.2914140  54.7777160 122.0050310  35.0781940
  54.0990420 123.2802060  35.5311940  62.1772430 120.6503800  32.0740520
  61.4837590 120.6481090  31.4142800  62.9195290 120.2263120  31.6434690
  61.7422360 122.2766510  36.1489010  62.1979310 121.4955890  36.4627630
  62.0814880 122.9873330  36.6930190  66.4899170 111.2065360  46.4813450
  65.8743440 111.7145030  45.9528910  66.1695590 110.3063690  46.4239390
  54.2643680 107.1788730  38.3440320  53.8211830 107.9598270  38.0124840
  54.8228670 107.5018620  39.0511260  58.5513490 110.0457250  43.9475640
  58.0892860 110.2540270  44.7595580  58.1491600 109.2316600  43.6446310
  63.5518000 111.2666200  45.0772300  62.7011590 110.9671950  45.3981370
  63.3919790 111.5108210  44.1656120  60.6467710 112.7667950  47.1771090
  60.9721120 111.9331700  46.8373320  61.4348040 113.2896470  47.3249420
  56.3019580 107.7236060  40.2029920  56.5991910 108.6298890  40.1221940
  56.8505140 107.2354840  39.5889490  54.0557900 112.3022300  36.0721570
  53.8298820 112.0859470  36.9768190  53.2750430 112.7350760  35.7267540
  56.4957110 113.2007880  46.7381840  56.4000710 112.2602610  46.5882240
  57.3389090 113.4222950  46.3429910  58.2012700 109.6956520  47.9612360
  57.5111020 109.5028720  48.5958450  58.9445000 109.9791160  48.4936660
  48.9284700 107.5350010  38.9245700  48.6397750 108.1052870  39.6370680
  49.6730460 107.0554460  39.2876930  49.1154930 111.4770130  30.1348420
  49.0329600 112.4200890  30.2763410  48.7637990 111.3345040  29.2560770
  56.9153060 110.2109160  39.2018770  56.9189120 109.7699110  38.3523310
  57.8104180 110.5326490  39.3090590  60.9401580 108.9888640  40.2089220
  60.9574320 109.4397290  41.0531070  60.6917160 108.0894280  40.4222660
  55.9894710 113.5222380  31.5908830  55.4211610 113.0740630  30.9644740
  56.6983710 113.8815160  31.0573980  64.3672330 106.4020820  46.0475600
  64.6918100 105.6710480  46.5733580  64.4028840 106.0834460  45.1456590
  50.0801520 109.0154630  37.0777650  49.7948440 108.6510300  37.9156270
  50.0180380 108.2835090  36.4640790  53.5342190 117.5180570  33.8635240
  52.7604450 116.9778190  33.7033960  54.2636820 116.9987180  33.5253000
  59.6748970 116.5854990  45.5430630  59.6086280 115.6650660  45.2888220
  59.0454110 116.6830430  46.2575270  53.5779590 117.1860950  37.5014050
  54.0958260 116.3829210  37.4470940  53.1263610 117.1240090  38.3430880
  58.4649090 118.4527230  32.7741350  58.8064790 119.1969460  32.2784670
  57.6361800 118.7658350  33.1366180  65.8176910 116.0482900  44.6403010
  65.0925100 116.6411680  44.4432400  66.3452370 116.0406440  43.8416380
  65.7690020 120.4457640  34.2915170  65.1266180 119.7913260  34.5658890
  65.3820680 120.8512730  33.5155840  57.4339780 118.5340760  35.5457270
  58.1210910 119.0809970  35.9264860  56.6472200 119.0781490  35.5806880
  49.5732180 114.1513580  31.0374350  50.4427030 114.4338380  31.3210270
  49.0822500 114.9649450  30.9223160  56.7366990 115.5386790  35.1582630
  57.1929770 116.3492040  35.3842820  56.3855200 115.2209930  35.9901120
  52.6378770 105.8824440  35.6305150  52.5093400 105.8742340  36.5790070
  51.8140790 106.2207530  35.2796160  64.1587400 119.3374100  30.8291520
  63.9324980 118.6204540  31.4216160  63.7683600 119.0886540  29.9913270
  49.9403430 123.3640960  31.6035980  50.3001070 123.9630300  30.9493250
  49.7995770 123.9100850  32.3771010  63.7403650 117.2546040  32.4905680
  63.4525350 117.7158730  33.2783560  64.5355820 116.7943810  32.7589900
  55.9572050 120.7472160  32.4209650  55.9482150 121.4801850  31.8054160
  55.0370410 120.5003740  32.5136610  51.5578690 115.9687050  33.1656410
  50.9506640 116.7085950  33.1751710  52.0328040 116.0586410  32.3394610
  61.1311480 110.1337870  42.8413300  61.4992300 109.3133080  43.1692870
  60.2709680 110.1939760  43.2568950  64.4973510 109.0894810  33.6500860
  63.8686670 109.1940480  32.9359090  64.0025430 109.3091590  34.4394740
  58.9431650 120.8100400  31.0834840  59.0443630 120.6064390  30.1536820
  58.0433390 120.5558680  31.2882620  58.0913470 112.7877460  43.0651270
  58.5898720 113.2623280  43.7303120  58.2336420 111.8640980  43.2721300
  57.5849760 123.3286720  35.7782510  57.8391260 123.2908110  34.8561880
  56.6362240 123.2020050  35.7710760  65.2980330 109.0045420  43.9079660
  64.7953930 109.7450820  44.2473470  66.1136990 109.3929420  43.5916450
  53.5683980 115.9298200  30.9144980  54.3347250 115.8179560  31.4770410
  53.6458670 115.2336170  30.2621750  52.2630740 113.3623270  31.5977870
  52.3434330 112.4150780  31.7095270  53.1550490 113.6930150  31.7038530
  65.5927920 121.4187450  39.0295280  65.7175340 122.2418620  39.5019090
  66.4593480 121.2078180  38.6819430  53.0645450 123.5118660  38.7012410
  53.8007930 122.9634120  38.9720980  53.4486370 124.3774670  38.5618400
  49.9490930 119.5792230  34.5753920  49.0230710 119.8213370  34.5659330
  50.4147360 120.4066490  34.4538670  56.1747760 122.6848970  30.5237980
  56.9676370 122.9737800  30.0719770  55.6552110 122.2541140  29.8450460
  65.2277930 121.9119100  31.9474720  64.9419440 121.4984240  31.1328900
  65.0297480 122.8406810  31.8275240  49.7901540 115.1838190  46.8334040
  50.2940560 114.6045470  47.4050270  49.0508960 115.4678420  47.3710410
  56.6925160 117.9052380  30.3880330  56.5875800 117.2904730  31.1141710
  56.5249380 117.3818270  29.6043340  55.6003010 115.9263330  32.8887620
  56.0219430 115.7603200  33.7319010  55.7253850 115.1163560  32.3942760
  62.6608490 116.3729340  45.4599790  63.0749510 116.5274420  46.3090210
  61.7259490 116.4984560  45.6225570  63.1330660 113.7125500  47.4638940
  63.7151430 112.9577820  47.3759420  63.3092430 114.2432940  46.6870420
  57.0164170 107.4295490  42.8083280  56.5681470 107.4519750  41.9628830
  56.3829370 107.0314510  43.4053580  59.7587620 114.0566000  44.8133560
  59.8783830 113.4607140  45.5528400  60.6181620 114.0935690  44.3934860
  62.0975520 114.6103190  43.3896070  61.5710740 115.1345810  42.7861210
  62.4406860 115.2430580  44.0205800  54.4961910 111.9996560  29.8345780
  54.2950970 111.1363920  30.1959120  54.3253960 111.9129920  28.8967380
  55.2731140 122.6302830  44.5453450  54.7352230 123.3548890  44.2262150
  55.5265100 122.1533170  43.7550790  56.5256390 110.5987350  46.0709380
  57.1156080 110.2903200  46.7587200  55.7076630 110.1267100  46.2269280
  61.3449820 110.2153160  46.3042400  60.6565340 109.5534700  46.2392390
  62.0655840 109.7691430  46.7490860  61.9750220 106.8104790  32.3632660
  62.2552510 105.9672690  32.7192080  61.2015950 107.0427900  32.8771410
  53.2944710 109.0997180  29.8223660  53.5970610 109.1064610  28.9142810
  54.0339300 108.7495040  30.3191320  58.1293350 123.8654040  44.8040100
  58.0552050 124.7689180  45.1112470  57.2272190 123.5465940  44.7762170
  56.5129640 108.0431800  30.8079860  56.1651640 107.3655790  30.2282310
  56.7142410 107.5821310  31.6223250  58.6778680 123.0312550  32.4266460
  59.5729470 123.3697520  32.4485220  58.7096310 122.3091960  31.7990740
  52.3174840 118.4039600  30.6553460  52.7549710 118.9469270  31.3111040
  52.8022570 117.5786550  30.6649800  49.5320640 121.1928630  38.1073720
  49.8623650 120.3249690  37.8752360  49.9611640 121.3987150  38.9378680
  54.1282560 119.5237640  35.7675690  53.8278100 119.4002610  36.6679600
  54.0220050 118.6646230  35.3591420  50.0210850 122.0599220  40.8455350
  49.5841840 122.2400020  41.6779500  50.5888530 122.8173840  40.7037070
  65.6573030 121.5616220  45.1332660  65.0575020 121.6208780  44.3896580
  65.7866930 120.6221200  45.2629510  66.8974480 119.3034040  30.4702370
  66.0667440 119.3710690  30.9409600  67.0746310 120.1938160  30.1669230
  66.3530940 116.0481520  32.9736570  67.1149850 116.6178170  33.0796260
  66.3685310 115.4808720  33.7444880  49.8535280 114.5719450  37.2044230
  49.1984120 114.3031090  36.5603930  50.6913230 114.4623930  36.7546210
  67.3590910 116.9031620  37.8178500  67.7299740 116.1198940  37.4114470
  67.9992840 117.5920720  37.6395800  66.4050110 116.3415890  30.1309090
  66.6798950 117.2494770  30.0028310  66.2160850 116.2778420  31.0671080
  66.3015450 114.2784880  35.1238520  65.9259050 113.5112810  34.6919810
  65.5718570 114.6607580  35.6113450  65.6915070 113.4256400  44.7578040
  65.4601160 113.1969150  43.8575990  65.9519620 114.3455950  44.7122930
  64.1303140 108.6512830  47.5357740  65.0073320 108.6596230  47.9191740
  64.1423980 107.9143670  46.9250090  49.0673360 111.7818380  33.1469560
  48.1637440 112.0448580  32.9721220  49.5513980 112.0529550  32.3669520
  65.5766410 112.5042370  38.4245760  66.1003890 112.0105020  37.7935930
  66.1625830 112.6392730  39.1693330  65.7556130 112.5882240  41.9465310
  64.8058840 112.5545780  42.0610300  65.9369140 113.4982350  41.7115080
  51.6100570 110.8383920  31.0563940  52.3192270 110.4167140  30.5711220
  50.8940510 110.9059150  30.4247290  51.2574730 106.8923250  30.0966590
  51.9802860 107.4332190  30.4147810  51.5299250 106.6186670  29.2208130
  65.0666380 111.7615720  34.3638170  65.5625500 111.5286590  35.1487050
  64.8682450 110.9227560  33.9475810  50.9466920 106.1429440  39.9989210
  51.5943110 105.5926820  39.5584370  51.3668760 106.3972590  40.8205020
  66.4953540 110.3976670  36.8975850  66.3852820 110.2432710  37.8358120
  67.2561130 109.8697610  36.6551260  64.8419260 106.3370800  43.3558850
  65.4791480 106.9504940  43.7218040  64.9894150 106.3731460  42.4108080
  67.3843810 108.2284590  30.1381990  68.3093120 108.0965770  29.9300280
  67.3619600 108.3077410  31.0918440  67.4582300 108.9995250  32.7638700
  66.6633800 108.9340370  33.2931610  67.6625580 109.9345890  32.7524050
  64.4000720 123.0386800  36.7577090  64.9959790 122.7171370  36.0811510
  64.6578870 122.5658620  37.5490360  58.2123740 107.4896990  46.2633950
  58.1512630 108.0818820  47.0129360  59.1524120 107.3822950  46.1184210
  60.8498300 107.1467050  45.9026240  61.4638710 107.4646340  45.2407320
  61.3947860 106.6615640  46.5222100  67.2673480 123.0458680  43.3088080
  66.7731760 123.4427550  42.5915210  66.6586770 122.4207890  43.7025360
  51.3719560 105.8261310  46.0165300  51.9202550 105.6449360  45.2531410
  51.4374870 105.0355420  46.5521610  52.1451320 122.4166960  44.0265500
  51.5511640 122.2851660  44.7655540  52.1375160 121.5805100  43.5607600
  61.5906340 105.7099190  42.2295530  60.7166180 106.0434300  42.0268460
  61.4817090 105.2372370  43.0547400  62.4978320 107.9170060  43.6137250
  62.1691680 107.1021820  43.2338980  63.4460620 107.8739870  43.4902940
  64.9512930 123.6882100  40.5874820  64.4915900 124.4397910  40.2132840
  64.3225390 122.9688570  40.5289620  55.3808650 121.9970340  39.7622950
  55.8973670 121.3857700  39.2371210  56.0306030 122.4999120  40.2533960
  58.1204150 122.8878830  40.5891930  58.4081960 122.6333130  39.7124940
  58.6327370 122.3356190  41.1797500  59.3381160 106.6269030  41.1688440
  58.5552950 107.1014530  41.4485200  59.0444090 105.7223860  41.0601620
  63.8902230 107.3292130  39.2137530  64.3310320 107.2737230  38.3659130
  63.6209820 108.2450140  39.2847710  65.7540800 106.9607370  37.2246350
  65.6929200 106.0168590  37.0777370  66.5332830 107.0687460  37.7699810
  50.0593550 123.0999730  36.1870300  49.8915590 122.4670410  36.8852190
  49.1928060 123.3059130  35.8364490  50.6821570 106.9316510  33.6902160
  51.4400930 107.0445390  33.1166190  50.2198740 107.7685710  33.6445590
  61.7260360 105.7098230  37.9187540  62.3289730 106.2818440  38.3936060
  60.9853350 106.2737670  37.6961440  64.8694960 106.1119790  33.1927820
  65.0645590 107.0103240  33.4595250  64.0824830 105.8806870  33.6860770
  51.6656250 121.7932960  33.6320440  51.1403870 122.1740990  32.9282400
  51.5900830 122.4183730  34.3530150  53.0546720 107.4580560  32.2304130
  53.5839480 106.6710360  32.1012080  53.6875040 108.1371750  32.4639660
  55.2484560 107.1955700  35.2849520  54.6187300 106.4943010  35.4519650
  54.7089700 107.9559830  35.0682680  66.4221570 123.3520500  34.9534380
  66.5973760 122.6658240  34.3095300  65.7243140 123.8767550  34.5611050
  54.2649220 123.7415340  32.5069690  54.9968040 123.4574620  31.9593580
  54.5242890 123.5028620  33.3969070  53.4264010 119.8580070  32.5116020
  52.7972890 120.3265170  33.0601850  53.5411840 119.0129290  32.9462210
  61.9755580 105.8893260  48.2982480  61.8621030 106.2087870  49.1934000
  62.7925320 106.2905770  48.0019760  64.7554070 123.0364790  47.7801170
  65.5479390 122.5414020  47.5727130  65.0487220 123.7154930  48.3876780
  60.8813730 113.9085730  18.6617220  60.8007780 112.9940340  18.3908930
  60.4678150 114.4052800  17.9556930  59.0131770 115.6864750  20.5426490
  58.2373870 115.2065190  20.8325060  59.6644700 115.0070400  20.3682650
  53.0297600 115.9984560  21.4202250  52.1982480 115.7433270  21.8198760
  53.6378580 116.0695330  22.1560170  63.0339200 120.0924940  19.3225620
  62.5720730 119.3212180  19.6512790  63.8464750 120.1191010  19.8278070
  53.0098860 120.0324650  21.6160270  53.3126900 119.1422390  21.4370490
  53.7542450 120.5894870  21.3882520  51.4389550 110.9586450  15.2044640
  50.5506250 111.3002420  15.1024520  51.7230740 110.7586770  14.3125470
  49.4022560 113.5592100  21.0884340  49.9738670 112.7914300  21.0887980
  49.4024100 113.8580860  20.1790950  59.2602510 122.3782950  18.9429610
  58.6413950 122.8340450  18.3724050  60.1154290 122.5334410  18.5419310
  58.4540760 118.3621940  20.5496650  58.3849040 117.4211880  20.3885780
  59.2160620 118.4523350  21.1219220  50.6447430 108.9676460  22.8753270
  50.4650270 108.0702210  23.1556030  50.2427510 109.5148330  23.5500220
  59.4845930 111.1692320  20.7765580  59.8610750 110.2964200  20.6639250
  59.3865440 111.5051020  19.8856020  53.6150940 109.5417950  16.2383020
  53.7217690 110.4421680  16.5451780  52.7043300 109.4935920  15.9477670
  63.2670050 108.6642760  17.7093920  64.0879670 108.1739330  17.7519400
  63.3004130 109.2540420  18.4625760  51.2634100 111.4636960  21.4835610
  51.9444210 111.7275330  22.1023010  50.9482150 110.6237830  21.8173620
  55.4558670 112.5104320  20.5708200  55.9636890 113.0085290  21.2113220
  55.9871910 111.7339520  20.3947560  67.5569600 110.6809510  24.2737550
  66.8521770 111.0691220  23.7552660  67.8227520 111.3759800  24.8758480
  53.7394770 107.1502880  24.8371620  53.7413210 107.6675270  24.0317520
  52.9099080 106.6733060  24.8141550  60.1265860 117.2622190  16.3361520
  59.5083130 117.7271640  15.7724240  60.6389110 117.9549670  16.7531030
  54.9897620 116.7898060  23.0145120  54.6567000 117.4166980  23.6566190
  55.1664300 117.3159940  22.2346790  53.4210100 108.8612840  22.8442070
  53.7626910 109.7054890  22.5495940  52.4825910 109.0096580  22.9607410
  54.2016720 118.7578860  24.8294300  54.8190720 119.4329940  24.5478750
  53.3409840 119.1666840  24.7381800  49.4949060 117.9478720  13.7101150
  49.1177040 118.4365820  12.9786050  49.7522130 118.6204000  14.3407680
  65.1194310 120.2218270  22.7448940  64.4357830 120.8917380  22.7365610
  65.6588600 120.4198920  21.9793800  66.5718450 110.0497930  20.8730670
  65.6243360 110.0836910  21.0046100  66.8968440 110.8636880  21.2580030
  57.1037990 106.3495110  19.1686660  57.4112970 105.7942000  18.4522160
  56.1738690 106.4839570  18.9859650  62.6553050 122.0662400  21.4594120
  62.6680210 121.6624690  20.5916380  62.1028270 122.8409690  21.3555550
  63.9498470 118.7878620  16.5484290  63.8394800 117.8452950  16.6733710
  63.9466720 119.1494260  17.4347050  62.0538490 116.9692240  22.7876730
  62.4707280 116.7552350  21.9530190  62.7778310 117.2265030  23.3585350
  59.4918750 114.4143940  15.9046780  58.5648030 114.3481320  16.1335250
  59.6443570 115.3524070  15.7902020  59.4787830 110.6860940  12.9013940
  58.5391500 110.8474900  12.9866400  59.7971090 111.4046620  12.3549930
  66.0000590 115.3679460  22.8792970  65.1719220 115.4372550  22.4043100
  66.5951070 115.9533770  22.4108800  63.5216040 115.9764240  16.4082030
  62.9028460 115.6383790  15.7608330  63.5040490 115.3324000  17.1161220
  55.0975390 114.9408680  18.6866510  54.6932390 114.2285930  18.1912410
  55.1838510 114.5961920  19.5754550  55.5657090 118.6276240  20.8505720
  55.2685380 118.0221710  20.1713500  56.5156910 118.6653550  20.7395080
  53.8104010 111.7151890  22.4665550  54.3618600 111.8247230  21.6918800
  54.3247520 112.0889490  23.1820780  63.6542700 122.2008110  24.5128820
  63.1773260 123.0080300  24.3201430  62.9704490 121.5486440  24.6655030
  54.6575520 118.3657930  27.5013520  53.7604050 118.5897900  27.7486920
  54.6828390 118.4892870  26.5524920  61.6980740 115.2151050  13.4154780
  62.1374020 114.3773480  13.2692600  62.4109160 115.8480450  13.5018920
  53.4846740 115.2371250  26.0770890  53.3454510 116.1094050  26.4458290
  52.6028100 114.8944060  25.9318830  59.8076120 120.1547120  17.3836020
  60.2472030 120.8971450  16.9691410  59.7463010 120.3973690  18.3074980
  55.2827090 121.1792950  28.2856040  55.2542520 121.5835900  27.4184470
  55.1192060 120.2503310  28.1227640  65.2797880 106.4693860  11.7295820
  64.9670540 106.5620690  12.6294890  66.0410350 107.0474890  11.6793250
  51.7980020 113.8353660  16.1873160  51.6777620 114.5615750  15.5754430
  51.4880910 113.0656570  15.7101070  67.2341910 121.9620050  29.5820210
  67.7101630 122.4402940  30.2609290  67.8549070 121.8937540  28.8565710
  49.4365390 117.0068800  21.9941800  49.5145810 117.1417570  21.0497520
  50.0507070 116.2984690  22.1869920  50.6813020 118.7068990  18.4047980
  50.2741100 118.8483580  17.5501580  51.5726030 118.4229150  18.2019190
  66.6375160 119.1532900  26.7420220  66.7638220 118.9144780  25.8237400
  66.6796540 118.3217440  27.2142300  60.4991900 122.8560900  25.3115030
  61.0136570 122.7668910  26.1137460  59.6560980 123.2020600  25.6042940
  62.4746300 123.1416240  14.7399030  62.3147440 122.8519180  15.6380860
  62.3093010 122.3656370  14.2044260  54.9534680 122.9214770  16.5170650
  54.7777160 122.0050310  16.3038450  54.0990420 123.2802060  16.7568450
  62.1772430 120.6503800  13.2997030  61.4837590 120.6481090  12.6399310
  62.9195290 120.2263120  12.8691200  61.7422360 122.2766510  17.3745520
  62.1979310 121.4955890  17.6884140  62.0814880 122.9873330  17.9186700
  66.4899170 111.2065360  27.7069960  65.8743440 111.7145030  27.1785420
  66.1695590 110.3063690  27.6495900  49.4924910 118.0482970  24.5336260
  49.6555950 117.5788330  23.7155630  49.9577360 117.5406530  25.1985100
  54.2643680 107.1788730  19.5696830  53.8211830 107.9598270  19.2381350
  54.8228670 107.5018620  20.2767770  57.3802500 106.7999430  14.4502660
  56.7556680 106.7959300  15.1755970  57.2932620 105.9330390  14.0538630
  56.3019580 107.7236060  21.4286430  56.5991910 108.6298890  21.3478450
  56.8505140 107.2354840  20.8146000  54.0557900 112.3022300  17.2978080
  53.8298820 112.0859470  18.2024700  53.2750430 112.7350760  16.9524050
  61.2855660 112.3085670  15.8968730  60.6864550 113.0321470  15.7132350
  61.8335270 112.2462450  15.1145180  59.8920530 110.9449210  17.9272010
  60.2850100 111.2621410  17.1140700  60.2537380 110.0661090  18.0416530
  51.6267650 109.6121550  26.1172130  51.2331040 110.4596760  26.3244910
  50.9386050 108.9747920  26.3080770  48.9284700 107.5350010  20.1502210
  48.6397750 108.1052870  20.8627190  49.6730460 107.0554460  20.5133440
  49.1154930 111.4770130  11.3604930  49.0329600 112.4200890  11.5019920
  48.7637990 111.3345040  10.4817280  56.9153060 110.2109160  20.4275280
  56.9189120 109.7699110  19.5779820  57.8104180 110.5326490  20.5347100
  52.7655440 110.0935650  19.3869490  52.4255490 110.5710880  20.1436540
  52.0032760 109.6400770  19.0270590  56.9773210 111.2121240  13.4182040
  57.0986030 111.1707720  14.3667860  56.5921720 112.0745390  13.2628770
  55.9894710 113.5222380  12.8165340  55.4211610 113.0740630  12.1901250
  56.6983710 113.8815160  12.2830490  51.0663890 117.4234400  26.6932070
  50.6818680 116.7828070  27.2915030  51.3776080 118.1270520  27.2626800
  57.2161030 114.2710940  22.1740690  57.5831160 113.7969510  22.9202030
  57.0266090 115.1452510  22.5149030  50.0801520 109.0154630  18.3034160
  49.7948440 108.6510300  19.1412780  50.0180380 108.2835090  17.6897300
  55.0060400 113.3119580  24.4924900  54.7017470 114.1911560  24.7175260
  55.9606860 113.3719370  24.5282340  53.5342190 117.5180570  15.0891750
  52.7604450 116.9778190  14.9290470  54.2636820 116.9987180  14.7509510
  64.2930170 116.5145930  20.8818140  65.0129290 117.0101220  20.4914250
  64.0911990 115.8363820  20.2372010  59.7540110 107.9083890  15.0247530
  58.9404720 107.4097060  14.9492840  59.5602060 108.7482140  14.6083880
  59.6748970 116.5854990  26.7687140  59.6086280 115.6650660  26.5144730
  59.0454110 116.6830430  27.4831780  62.4688500 112.2803540  13.3209690
  63.3568120 112.5920770  13.1461030  62.4393590 111.4075790  12.9290270
  53.5779590 117.1860950  18.7270560  54.0958260 116.3829210  18.6727450
  53.1263610 117.1240090  19.5687390  58.4649090 118.4527230  13.9997860
  58.8064790 119.1969460  13.5041180  57.6361800 118.7658350  14.3622690
  51.0624130 114.1522320  25.6396260  50.7039070 114.8176170  26.2269600
  50.7678690 113.3205870  26.0108880  54.2637250 114.6106560  28.5235810
  53.9637390 114.7563740  27.6263630  55.0348490 114.0511850  28.4309200
  59.6065700 119.4075560  26.5190940  59.6210240 118.4756520  26.3009850
  58.8990800 119.4935320  27.1580710  64.7402770 113.5915380  12.7889550
  64.6566490 114.0229600  11.9385990  65.4596960 114.0513730  13.2216370
  65.8176910 116.0482900  25.8659520  65.0925100 116.6411680  25.6688910
  66.3452370 116.0406440  25.0672890  65.7690020 120.4457640  15.5171680
  65.1266180 119.7913260  15.7915400  65.3820680 120.8512730  14.7412350
  61.3476500 117.7743070  19.3643370  61.7000320 117.1771200  18.7044740
  60.4638830 117.4487300  19.5351620  57.4339780 118.5340760  16.7713780
  58.1210910 119.0809970  17.1521370  56.6472200 119.0781490  16.8063390
  49.5732180 114.1513580  12.2630860  50.4427030 114.4338380  12.5466780
  49.0822500 114.9649450  12.1479670  56.7366990 115.5386790  16.3839140
  57.1929770 116.3492040  16.6099330  56.3855200 115.2209930  17.2157630
  59.0399600 121.0493130  23.6131440  59.6841820 121.2552510  24.2904860
  59.4029040 120.2881530  23.1602290  52.6378770 105.8824440  16.8561660
  52.5093400 105.8742340  17.8046580  51.8140790 106.2207530  16.5052670
  60.3131680 119.0525480  22.3308890  60.9553910 118.3518640  22.4441060
  60.8381030 119.8323920  22.1505780  64.1587400 119.3374100  12.0548030
  63.9324980 118.6204540  12.6472670  63.7683600 119.0886540  11.2169780
  62.0869300 119.8520380  25.5344950  62.4225540 120.4387070  26.2122870
  61.1669640 119.7213090  25.7642740  49.9403430 123.3640960  12.8292490
  50.3001070 123.9630300  12.1749760  49.7995770 123.9100850  13.6027520
  49.6372700 107.6415560  26.3168360  48.9231220 107.8412480  26.9220970
  50.0567740 106.8655130  26.6883160  63.7403650 117.2546040  13.7162190
  63.4525350 117.7158730  14.5040070  64.5355820 116.7943810  13.9846410
  49.9245290 121.6295820  27.3034890  50.0336410 120.6890560  27.1630280
  49.2725850 121.8950570  26.6548620  57.9157880 119.9011710  28.7033010
  57.5954750 119.1820950  29.2478700  57.2416240 120.5766780  28.7769070
  55.9572050 120.7472160  13.6466160  55.9482150 121.4801850  13.0310670
  55.0370410 120.5003740  13.7393120  51.5578690 115.9687050  14.3912920
  50.9506640 116.7085950  14.4008220  52.0328040 116.0586410  13.5651120
  64.4973510 109.0894810  14.8757370  63.8686670 109.1940480  14.1615600
  64.0025430 109.3091590  15.6651250  58.9431650 120.8100400  12.3091350
  59.0443630 120.6064390  11.3793330  58.0433390 120.5558680  12.5139130
  56.4657540 111.3680760  16.2915250  55.7573690 111.8367100  16.7328860
  56.7502020 110.7102770  16.9260440  60.4972970 108.0931420  17.7311040
  60.3740750 108.1117550  16.7820550  61.4457530 108.1410360  17.8509440
  57.5849760 123.3286720  17.0039020  57.8391260 123.2908110  16.0818390
  56.6362240 123.2020050  16.9967270  54.6692560 109.6765840  13.6665960
  55.5183090 110.1135990  13.6006150  54.3023830 109.9886100  14.4938020
  63.5902340 114.2478600  18.5797530  62.6492480 114.2628830  18.7545220
  63.9046410 113.4614560  19.0257830  53.5683980 115.9298200  12.1401490
  54.3347250 115.8179560  12.7026920  53.6458670 115.2336170  11.4878260
  52.2630740 113.3623270  12.8234380  52.3434330 112.4150780  12.9351780
  53.1550490 113.6930150  12.9295040  65.5927920 121.4187450  20.2551790
  65.7175340 122.2418620  20.7275600  66.4593480 121.2078180  19.9075940
  53.0645450 123.5118660  19.9268920  53.8007930 122.9634120  20.1977490
  53.4486370 124.3774670  19.7874910  49.9490930 119.5792230  15.8010430
  49.0230710 119.8213370  15.7915840  50.4147360 120.4066490  15.6795180
  52.0703730 122.6964730  29.1154500  52.8716460 123.0176780  29.5289900
  51.5555550 122.3360310  29.8374410  56.1747760 122.6848970  11.7494490
  56.9676370 122.9737800  11.2976280  55.6552110 122.2541140  11.0706970
  60.9068360 118.8044600  29.0629910  60.3006520 118.8276200  28.3225660
  60.6022470 118.0727640  29.5997160  62.3368730 122.5324890  27.6739320
  63.2890480 122.4482910  27.6239560  62.1896950 123.1966600  28.3473110
  65.2277930 121.9119100  13.1731230  64.9419440 121.4984240  12.3585410
  65.0297480 122.8406810  13.0531750  49.7901540 115.1838190  28.0590550
  50.2940560 114.6045470  28.6306780  49.0508960 115.4678420  28.5966920
  56.6925160 117.9052380  11.6136840  56.5875800 117.2904730  12.3398220
  56.5249380 117.3818270  10.8299850  56.8439480 116.5909180  27.5926070
  56.0785150 117.1594180  27.5080740  57.0255440 116.2985390  26.6994300
  59.9327890 116.9672410  12.2178830  59.3837990 117.4141710  12.8621570
  60.5547150 116.4621660  12.7416500  63.9862830 118.3214510  28.1501090
  64.7272300 118.6590270  27.6468550  63.2235510 118.4906570  27.5970860
  51.8224620 113.3267780  28.9540620  51.8629960 113.0281650  29.8625850
  52.6770120 113.7275390  28.7948140  55.6003010 115.9263330  14.1144130
  56.0219430 115.7603200  14.9575520  55.7253850 115.1163560  13.6199270
  53.7630430 111.9059880  26.9215110  53.2326890 111.4150830  26.2938450
  54.4318500 112.3344080  26.3873040  58.1130650 114.9500940  11.3621230
  58.6336310 114.2349960  10.9962380  58.7599050 115.5886810  11.6621740
  62.6608490 116.3729340  26.6856300  63.0749510 116.5274420  27.5346720
  61.7259490 116.4984560  26.8482080  54.2502730 108.8722250  27.0012400
  54.1559600 108.2543000  26.2763270  53.6700120 109.5988540  26.7742310
  57.4223720 116.3249820  24.6552230  57.8411830 117.1682550  24.4828470
  56.5032350 116.4621860  24.4259010  62.0975520 114.6103190  24.6152580
  61.5710740 115.1345810  24.0117720  62.4406860 115.2430580  25.2462310
  54.4961910 111.9996560  11.0602290  54.2950970 111.1363920  11.4215630
  54.3253960 111.9129920  10.1223890  55.2731140 122.6302830  25.7709960
  54.7352230 123.3548890  25.4518660  55.5265100 122.1533170  24.9807300
  61.9750220 106.8104790  13.5889170  62.2552510 105.9672690  13.9448590
  61.2015950 107.0427900  14.1027920  53.2944710 109.0997180  11.0480170
  53.5970610 109.1064610  10.1399320  54.0339300 108.7495040  11.5447830
  58.1293350 123.8654040  26.0296610  58.0552050 124.7689180  26.3368980
  57.2272190 123.5465940  26.0018680  56.5129640 108.0431800  12.0336370
  56.1651640 107.3655790  11.4538820  56.7142410 107.5821310  12.8479760
  58.6778680 123.0312550  13.6522970  59.5729470 123.3697520  13.6741730
  58.7096310 122.3091960  13.0247250  52.3174840 118.4039600  11.8809970
  52.7549710 118.9469270  12.5367550  52.8022570 117.5786550  11.8906310
  49.5320640 121.1928630  19.3330230  49.8623650 120.3249690  19.1008870
  49.9611640 121.3987150  20.1635190  54.1282560 119.5237640  16.9932200
  53.8278100 119.4002610  17.8936110  54.0220050 118.6646230  16.5847930
  50.0210850 122.0599220  22.0711860  49.5841840 122.2400020  22.9036010
  50.5888530 122.8173840  21.9293580  65.6573030 121.5616220  26.3589170
  65.0575020 121.6208780  25.6153090  65.7866930 120.6221200  26.4886020
  66.8974480 119.3034040  11.6958880  66.0667440 119.3710690  12.1666110
  67.0746310 120.1938160  11.3925740  66.3530940 116.0481520  14.1993080
  67.1149850 116.6178170  14.3052770  66.3685310 115.4808720  14.9701390
  49.8535280 114.5719450  18.4300740  49.1984120 114.3031090  17.7860440
  50.6913230 114.4623930  17.9802720  67.3590910 116.9031620  19.0435010
  67.7299740 116.1198940  18.6370980  67.9992840 117.5920720  18.8652310
  64.3424670 118.2868200  24.4565330  63.5284510 118.7165360  24.7191120
  64.7498870 118.8986610  23.8434380  66.4050110 116.3415890  11.3565600
  66.6798950 117.2494770  11.2284820  66.2160850 116.2778420  12.2927590
  62.8025720 109.3660740  12.6519230  63.2210600 109.1791720  11.8115890
  62.4961780 108.5139790  12.9622160  66.3015450 114.2784880  16.3495030
  65.9259050 113.5112810  15.9176320  65.5718570 114.6607580  16.8369960
  50.8911210 114.9572020  22.9704080  51.2584250 114.8699420  23.8500100
  50.3222030 114.1938570  22.8710940  65.6915070 113.4256400  25.9834550
  65.4601160 113.1969150  25.0832500  65.9519620 114.3455950  25.9379440
  50.4427210 111.8681110  26.8762500  49.5483260 111.8347870  27.2156210
  50.9824760 112.0667900  27.6413750  49.0673360 111.7818380  14.3726070
  48.1637440 112.0448580  14.1977730  49.5513980 112.0529550  13.5926030
  65.5766410 112.5042370  19.6502270  66.1003890 112.0105020  19.0192440
  66.1625830 112.6392730  20.3949840  65.7556130 112.5882240  23.1721820
  64.8058840 112.5545780  23.2866810  65.9369140 113.4982350  22.9371590
  51.6100570 110.8383920  12.2820450  52.3192270 110.4167140  11.7967730
  50.8940510 110.9059150  11.6503800  51.2574730 106.8923250  11.3223100
  51.9802860 107.4332190  11.6404320  51.5299250 106.6186670  10.4464640
  65.0666380 111.7615720  15.5894680  65.5625500 111.5286590  16.3743560
  64.8682450 110.9227560  15.1732320  50.9466920 106.1429440  21.2245720
  51.5943110 105.5926820  20.7840880  51.3668760 106.3972590  22.0461530
  66.4953540 110.3976670  18.1232360  66.3852820 110.2432710  19.0614630
  67.2561130 109.8697610  17.8807770  67.3843810 108.2284590  11.3638500
  68.3093120 108.0965770  11.1556790  67.3619600 108.3077410  12.3174950
  67.4582300 108.9995250  13.9895210  66.6633800 108.9340370  14.5188120
  67.6625580 109.9345890  13.9780560  64.4000720 123.0386800  17.9833600
  64.9959790 122.7171370  17.3068020  64.6578870 122.5658620  18.7746870
  50.6998920 106.2985110  23.9671040  50.3513740 106.7548930  24.7329220
  50.3686620 105.4042240  24.0493470  52.3063290 119.4704710  28.1324230
  52.2632920 119.0997620  29.0138690  52.4374300 120.4082280  28.2726050
  56.0069320 121.0264300  23.7333950  55.7660680 121.2938860  22.8464470
  56.9471960 121.1970030  23.7884810  67.2673480 123.0458680  24.5344590
  66.7731760 123.4427550  23.8171720  66.6586770 122.4207890  24.9281870
  51.3719560 105.8261310  27.2421810  51.9202550 105.6449360  26.4787920
  51.4374870 105.0355420  27.7778120  52.1451320 122.4166960  25.2522010
  51.5511640 122.2851660  25.9912050  52.1375160 121.5805100  24.7864110
  64.9512930 123.6882100  21.8131330  64.4915900 124.4397910  21.4389350
  64.3225390 122.9688570  21.7546130  51.7763550 119.7825340  24.2030050
  51.0497610 119.1630630  24.1356000  51.8372700 120.1765950  23.3328130
  55.3808650 121.9970340  20.9879460  55.8973670 121.3857700  20.4627720
  56.0306030 122.4999120  21.4790470  58.1204150 122.8878830  21.8148440
  58.4081960 122.6333130  20.9381450  58.6327370 122.3356190  22.4054010
  63.8902230 107.3292130  20.4394040  64.3310320 107.2737230  19.5915640
  63.6209820 108.2450140  20.5104220  50.0593550 123.0999730  17.4126810
  49.8915590 122.4670410  18.1108700  49.1928060 123.3059130  17.0621000
  50.6821570 106.9316510  14.9158670  51.4400930 107.0445390  14.3422700
  50.2198740 107.7685710  14.8702100  57.2235380 109.0455780  17.9060980
  56.4109890 108.6712670  17.5656860  57.7277020 108.2900860  18.2082170
  61.7260360 105.7098230  19.1444050  62.3289730 106.2818440  19.6192570
  60.9853350 106.2737670  18.9217950  64.8694960 106.1119790  14.4184330
  65.0645590 107.0103240  14.6851760  64.0824830 105.8806870  14.9117280
  51.6656250 121.7932960  14.8576950  51.1403870 122.1740990  14.1538910
  51.5900830 122.4183730  15.5786660  53.0546720 107.4580560  13.4560640
  53.5839480 106.6710360  13.3268590  53.6875040 108.1371750  13.6896170
  55.2484560 107.1955700  16.5106030  54.6187300 106.4943010  16.6776160
  54.7089700 107.9559830  16.2939190  58.1876510 123.8094930  29.1816640
  59.1143820 123.5739200  29.2252600  58.1726940 124.6366930  28.7002670
  66.4221570 123.3520500  16.1790890  66.5973760 122.6658240  15.5351810
  65.7243140 123.8767550  15.7867560  55.3740120 106.4739680  28.9458520
  55.0924390 106.9773280  28.1819340  55.7559820 105.6761430  28.5800650
  54.2649220 123.7415340  13.7326200  54.9968040 123.4574620  13.1850090
  54.5242890 123.5028620  14.6225580  53.4264010 119.8580070  13.7372530
  52.7972890 120.3265170  14.2858360  53.5411840 119.0129290  14.1718720
  64.7554070 123.0364790  29.0057680  65.5479390 122.5414020  28.7983640
  65.0487220 123.7154930  29.6133290  59.0131770 115.6864750   1.7683000
  58.2373870 115.2065190   2.0581570  59.6644700 115.0070400   1.5939160
  53.0297600 115.9984560   2.6458760  52.1982480 115.7433270   3.0455270
  53.6378580 116.0695330   3.3816680  53.0098860 120.0324650   2.8416780
  53.3126900 119.1422390   2.6627000  53.7542450 120.5894870   2.6139030
  58.4540760 118.3621940   1.7753160  58.3849040 117.4211880   1.6142290
  59.2160620 118.4523350   2.3475730  50.6447430 108.9676460   4.1009780
  50.4650270 108.0702210   4.3812540  50.2427510 109.5148330   4.7756730
  51.2634100 111.4636960   2.7092120  51.9444210 111.7275330   3.3279520
  50.9482150 110.6237830   3.0430130  55.4558670 112.5104320   1.7964710
  55.9636890 113.0085290   2.4369730  55.9871910 111.7339520   1.6204070
  67.5569600 110.6809510   5.4994060  66.8521770 111.0691220   4.9809170
  67.8227520 111.3759800   6.1014990  53.7394770 107.1502880   6.0628130
  53.7413210 107.6675270   5.2574030  52.9099080 106.6733060   6.0398060
  54.9897620 116.7898060   4.2401630  54.6567000 117.4166980   4.8822700
  55.1664300 117.3159940   3.4603300  53.4210100 108.8612840   4.0698580
  53.7626910 109.7054890   3.7752450  52.4825910 109.0096580   4.1863920
  54.2016720 118.7578860   6.0550810  54.8190720 119.4329940   5.7735260
  53.3409840 119.1666840   5.9638310  65.1194310 120.2218270   3.9705450
  64.4357830 120.8917380   3.9622120  65.6588600 120.4198920   3.2050310
  66.5718450 110.0497930   2.0987180  65.6243360 110.0836910   2.2302610
  66.8968440 110.8636880   2.4836540  62.6553050 122.0662400   2.6850630
  62.6680210 121.6624690   1.8172890  62.1028270 122.8409690   2.5812060
  62.0538490 116.9692240   4.0133240  62.4707280 116.7552350   3.1786700
  62.7778310 117.2265030   4.5841860  66.0000590 115.3679460   4.1049480
  65.1719220 115.4372550   3.6299610  66.5951070 115.9533770   3.6365310
  62.9642600 112.1548780   5.0504350  62.5513780 112.9802490   5.3044340
  62.2318550 111.5693820   4.8580710  53.8104010 111.7151890   3.6922060
  54.3618600 111.8247230   2.9175310  54.3247520 112.0889490   4.4077290
  63.6542700 122.2008110   5.7385330  63.1773260 123.0080300   5.5457940
  62.9704490 121.5486440   5.8911540  54.6575520 118.3657930   8.7270030
  53.7604050 118.5897900   8.9743430  54.6828390 118.4892870   7.7781430
  53.4846740 115.2371250   7.3027400  53.3454510 116.1094050   7.6714800
  52.6028100 114.8944060   7.1575340  55.2827090 121.1792950   9.5112550
  55.2542520 121.5835900   8.6440980  55.1192060 120.2503310   9.3484150
  67.2341910 121.9620050  10.8076720  67.7101630 122.4402940  11.4865800
  67.8549070 121.8937540  10.0822220  49.4365390 117.0068800   3.2198310
  49.5145810 117.1417570   2.2754030  50.0507070 116.2984690   3.4126430
  66.6375160 119.1532900   7.9676730  66.7638220 118.9144780   7.0493910
  66.6796540 118.3217440   8.4398810  60.4991900 122.8560900   6.5371540
  61.0136570 122.7668910   7.3393970  59.6560980 123.2020600   6.8299450
  66.4899170 111.2065360   8.9326470  65.8743440 111.7145030   8.4041930
  66.1695590 110.3063690   8.8752410  49.4924910 118.0482970   5.7592770
  49.6555950 117.5788330   4.9412140  49.9577360 117.5406530   6.4241610
  58.5513490 110.0457250   6.3988660  58.0892860 110.2540270   7.2108600
  58.1491600 109.2316600   6.0959330  63.5518000 111.2666200   7.5285320
  62.7011590 110.9671950   7.8494390  63.3919790 111.5108210   6.6169140
  60.6467710 112.7667950   9.6284110  60.9721120 111.9331700   9.2886340
  61.4348040 113.2896470   9.7762440  56.3019580 107.7236060   2.6542940
  56.5991910 108.6298890   2.5734960  56.8505140 107.2354840   2.0402510
  56.4957110 113.2007880   9.1894860  56.4000710 112.2602610   9.0395260
  57.3389090 113.4222950   8.7942930  51.6267650 109.6121550   7.3428640
  51.2331040 110.4596760   7.5501420  50.9386050 108.9747920   7.5337280
  58.2012700 109.6956520  10.4125380  57.5111020 109.5028720  11.0471470
  58.9445000 109.9791160  10.9449680  60.4775670 113.5354960   3.2479300
  59.7456790 114.0441770   3.5969400  60.0800010 112.7184940   2.9468080
  60.9401580 108.9888640   2.6602240  60.9574320 109.4397290   3.5044090
  60.6917160 108.0894280   2.8735680  64.3672330 106.4020820   8.4988620
  64.6918100 105.6710480   9.0246600  64.4028840 106.0834460   7.5969610
  51.0663890 117.4234400   7.9188580  50.6818680 116.7828070   8.5171540
  51.3776080 118.1270520   8.4883310  57.2161030 114.2710940   3.3997200
  57.5831160 113.7969510   4.1458540  57.0266090 115.1452510   3.7405540
  55.0060400 113.3119580   5.7181410  54.7017470 114.1911560   5.9431770
  55.9606860 113.3719370   5.7538850  64.2930170 116.5145930   2.1074650
  65.0129290 117.0101220   1.7170760  64.0911990 115.8363820   1.4628520
  59.6748970 116.5854990   7.9943650  59.6086280 115.6650660   7.7401240
  59.0454110 116.6830430   8.7088290  51.0624130 114.1522320   6.8652770
  50.7039070 114.8176170   7.4526110  50.7678690 113.3205870   7.2365390
  54.2637250 114.6106560   9.7492320  53.9637390 114.7563740   8.8520140
  55.0348490 114.0511850   9.6565710  59.6065700 119.4075560   7.7447450
  59.6210240 118.4756520   7.5266360  58.8990800 119.4935320   8.3837220
  65.8176910 116.0482900   7.0916030  65.0925100 116.6411680   6.8945420
  66.3452370 116.0406440   6.2929400  59.0399600 121.0493130   4.8387950
  59.6841820 121.2552510   5.5161370  59.4029040 120.2881530   4.3858800
  60.3131680 119.0525480   3.5565400  60.9553910 118.3518640   3.6697570
  60.8381030 119.8323920   3.3762290  62.0869300 119.8520380   6.7601460
  62.4225540 120.4387070   7.4379380  61.1669640 119.7213090   6.9899250
  49.6372700 107.6415560   7.5424870  48.9231220 107.8412480   8.1477480
  50.0567740 106.8655130   7.9139670  49.9245290 121.6295820   8.5291400
  50.0336410 120.6890560   8.3886790  49.2725850 121.8950570   7.8805130
  57.9157880 119.9011710   9.9289520  57.5954750 119.1820950  10.4735210
  57.2416240 120.5766780  10.0025580  61.1311480 110.1337870   5.2926320
  61.4992300 109.3133080   5.6205890  60.2709680 110.1939760   5.7081970
  58.0913470 112.7877460   5.5164290  58.5898720 113.2623280   6.1816140
  58.2336420 111.8640980   5.7234320  65.2980330 109.0045420   6.3592680
  64.7953930 109.7450820   6.6986490  66.1136990 109.3929420   6.0429470
  52.0703730 122.6964730  10.3411010  52.8716460 123.0176780  10.7546410
  51.5555550 122.3360310  11.0630920  60.9068360 118.8044600  10.2886420
  60.3006520 118.8276200   9.5482170  60.6022470 118.0727640  10.8253670
  62.3368730 122.5324890   8.8995830  63.2890480 122.4482910   8.8496070
  62.1896950 123.1966600   9.5729620  49.7901540 115.1838190   9.2847060
  50.2940560 114.6045470   9.8563290  49.0508960 115.4678420   9.8223430
  56.8439480 116.5909180   8.8182580  56.0785150 117.1594180   8.7337250
  57.0255440 116.2985390   7.9250810  63.9862830 118.3214510   9.3757600
  64.7272300 118.6590270   8.8725060  63.2235510 118.4906570   8.8227370
  51.8224620 113.3267780  10.1797130  51.8629960 113.0281650  11.0882360
  52.6770120 113.7275390  10.0204650  53.7630430 111.9059880   8.1471620
  53.2326890 111.4150830   7.5194960  54.4318500 112.3344080   7.6129550
  62.6608490 116.3729340   7.9112810  63.0749510 116.5274420   8.7603230
  61.7259490 116.4984560   8.0738590  63.1330660 113.7125500   9.9151960
  63.7151430 112.9577820   9.8272440  63.3092430 114.2432940   9.1383440
  54.2502730 108.8722250   8.2268910  54.1559600 108.2543000   7.5019780
  53.6700120 109.5988540   7.9998820  57.0164170 107.4295490   5.2596300
  56.5681470 107.4519750   4.4141850  56.3829370 107.0314510   5.8566600
  57.4223720 116.3249820   5.8808740  57.8411830 117.1682550   5.7084980
  56.5032350 116.4621860   5.6515520  59.7587620 114.0566000   7.2646580
  59.8783830 113.4607140   8.0041420  60.6181620 114.0935690   6.8447880
  62.0975520 114.6103190   5.8409090  61.5710740 115.1345810   5.2374230
  62.4406860 115.2430580   6.4718820  55.2731140 122.6302830   6.9966470
  54.7352230 123.3548890   6.6775170  55.5265100 122.1533170   6.2063810
  56.5256390 110.5987350   8.5222400  57.1156080 110.2903200   9.2100220
  55.7076630 110.1267100   8.6782300  61.3449820 110.2153160   8.7555420
  60.6565340 109.5534700   8.6905410  62.0655840 109.7691430   9.2003880
  58.1293350 123.8654040   7.2553120  58.0552050 124.7689180   7.5625490
  57.2272190 123.5465940   7.2275190  50.0210850 122.0599220   3.2968370
  49.5841840 122.2400020   4.1292520  50.5888530 122.8173840   3.1550090
  65.6573030 121.5616220   7.5845680  65.0575020 121.6208780   6.8409600
  65.7866930 120.6221200   7.7142530  64.3424670 118.2868200   5.6821840
  63.5284510 118.7165360   5.9447630  64.7498870 118.8986610   5.0690890
  50.8911210 114.9572020   4.1960590  51.2584250 114.8699420   5.0756610
  50.3222030 114.1938570   4.0967450  65.6915070 113.4256400   7.2091060
  65.4601160 113.1969150   6.3089010  65.9519620 114.3455950   7.1635950
  50.4427210 111.8681110   8.1019010  49.5483260 111.8347870   8.4412720
  50.9824760 112.0667900   8.8670260  64.1303140 108.6512830   9.9870760
  65.0073320 108.6596230  10.3704760  64.1423980 107.9143670   9.3763110
  65.7556130 112.5882240   4.3978330  64.8058840 112.5545780   4.5123320
  65.9369140 113.4982350   4.1628100  50.9466920 106.1429440   2.4502230
  51.5943110 105.5926820   2.0097390  51.3668760 106.3972590   3.2718040
  64.8419260 106.3370800   5.8071870  65.4791480 106.9504940   6.1731060
  64.9894150 106.3731460   4.8621100  50.6998920 106.2985110   5.1927550
  50.3513740 106.7548930   5.9585730  50.3686620 105.4042240   5.2749980
  52.3063290 119.4704710   9.3580740  52.2632920 119.0997620  10.2395200
  52.4374300 120.4082280   9.4982560  56.0069320 121.0264300   4.9590460
  55.7660680 121.2938860   4.0720980  56.9471960 121.1970030   5.0141320
  58.2123740 107.4896990   8.7146970  58.1512630 108.0818820   9.4642380
  59.1524120 107.3822950   8.5697230  60.8498300 107.1467050   8.3539260
  61.4638710 107.4646340   7.6920340  61.3947860 106.6615640   8.9735120
  67.2673480 123.0458680   5.7601100  66.7731760 123.4427550   5.0428230
  66.6586770 122.4207890   6.1538380  51.3719560 105.8261310   8.4678320
  51.9202550 105.6449360   7.7044430  51.4374870 105.0355420   9.0034630
  52.1451320 122.4166960   6.4778520  51.5511640 122.2851660   7.2168560
  52.1375160 121.5805100   6.0120620  61.5906340 105.7099190   4.6808550
  60.7166180 106.0434300   4.4781480  61.4817090 105.2372370   5.5060420
  62.4978320 107.9170060   6.0650270  62.1691680 107.1021820   5.6852000
  63.4460620 107.8739870   5.9415960  64.9512930 123.6882100   3.0387840
  64.4915900 124.4397910   2.6645860  64.3225390 122.9688570   2.9802640
  51.7763550 119.7825340   5.4286560  51.0497610 119.1630630   5.3612510
  51.8372700 120.1765950   4.5584640  55.3808650 121.9970340   2.2135970
  55.8973670 121.3857700   1.6884230  56.0306030 122.4999120   2.7046980
  58.1204150 122.8878830   3.0404950  58.4081960 122.6333130   2.1637960
  58.6327370 122.3356190   3.6310520  59.3381160 106.6269030   3.6201460
  58.5552950 107.1014530   3.8998220  59.0444090 105.7223860   3.5114640
  58.1876510 123.8094930  10.4073150  59.1143820 123.5739200  10.4509110
  58.1726940 124.6366930   9.9259180  55.3740120 106.4739680  10.1715030
  55.0924390 106.9773280   9.4075850  55.7559820 105.6761430   9.8057160
  61.9755580 105.8893260  10.7495500  61.8621030 106.2087870  11.6447020
  62.7925320 106.2905770  10.4532780  64.7554070 123.0364790  10.2314190
  65.5479390 122.5414020  10.0240150  65.0487220 123.7154930  10.8389800
  60.8813730  95.1342240 150.0821650  60.8007780  94.2196850 149.8113360
  60.4678150  95.6309310 149.3761360  63.0339200 101.3181450 150.7430050
  62.5720730 100.5468690 151.0717220  63.8464750 101.3447520 151.2482500
  51.4389550  92.1842960 146.6249070  50.5506250  92.5258930 146.5228950
  51.7230740  91.9843280 145.7329900  59.2602510 103.6039460 150.3634040
  58.6413950 104.0596960 149.7928480  60.1154290 103.7590920 149.9623740
  53.6150940  90.7674460 147.6587450  53.7217690  91.6678190 147.9656210
  52.7043300  90.7192430 147.3682100  63.2670050  89.8899270 149.1298350
  64.0879670  89.3995840 149.1723830  63.3004130  90.4796930 149.8830190
  60.1265860  98.4878700 147.7565950  59.5083130  98.9528150 147.1928670
  60.6389110  99.1806180 148.1735460  49.4949060  99.1735230 145.1305580
  49.1177040  99.6622330 144.3990480  49.7522130  99.8460510 145.7612110
  57.1037990  87.5751620 150.5891090  57.4112970  87.0198510 149.8726590
  56.1738690  87.7096080 150.4064080  63.9498470 100.0135130 147.9688720
  63.8394800  99.0709460 148.0938140  63.9466720 100.3750770 148.8551480
  59.4918750  95.6400450 147.3251210  58.5648030  95.5737830 147.5539680
  59.6443570  96.5780580 147.2106450  59.4787830  91.9117450 144.3218370
  58.5391500  92.0731410 144.4070830  59.7971090  92.6303130 143.7754360
  63.5216040  97.2020750 147.8286460  62.9028460  96.8640300 147.1812760
  63.5040490  96.5580510 148.5365650  55.0975390  96.1665190 150.1070940
  54.6932390  95.4542440 149.6116840  55.1838510  95.8218430 150.9958980
  61.6980740  96.4407560 144.8359210  62.1374020  95.6029990 144.6897030
  62.4109160  97.0736960 144.9223350  59.8076120 101.3803630 148.8040450
  60.2472030 102.1227960 148.3895840  59.7463010 101.6230200 149.7279410
  65.2797880  87.6950370 143.1500250  64.9670540  87.7877200 144.0499320
  66.0410350  88.2731400 143.0997680  51.7980020  95.0610170 147.6077590
  51.6777620  95.7872260 146.9958860  51.4880910  94.2913080 147.1305500
  50.6813020  99.9325500 149.8252410  50.2741100 100.0740090 148.9706010
  51.5726030  99.6485660 149.6223620  62.4746300 104.3672750 146.1603460
  62.3147440 104.0775690 147.0585290  62.3093010 103.5912880 145.6248690
  54.9534680 104.1471280 147.9375080  54.7777160 103.2306820 147.7242880
  54.0990420 104.5058570 148.1772880  62.1772430 101.8760310 144.7201460
  61.4837590 101.8737600 144.0603740  62.9195290 101.4519630 144.2895630
  61.7422360 103.5023020 148.7949950  62.1979310 102.7212400 149.1088570
  62.0814880 104.2129840 149.3391130  54.2643680  88.4045240 150.9901260
  53.8211830  89.1854780 150.6585780  54.8228670  88.7275130 151.6972200
  57.3802500  88.0255940 145.8707090  56.7556680  88.0215810 146.5960400
  57.2932620  87.1586900 145.4743060  54.0557900  93.5278810 148.7182510
  53.8298820  93.3115980 149.6229130  53.2750430  93.9607270 148.3728480
  61.2855660  93.5342180 147.3173160  60.6864550  94.2577980 147.1336780
  61.8335270  93.4718960 146.5349610  59.8920530  92.1705720 149.3476440
  60.2850100  92.4877920 148.5345130  60.2537380  91.2917600 149.4620960
  49.1154930  92.7026640 142.7809360  49.0329600  93.6457400 142.9224350
  48.7637990  92.5601550 141.9021710  52.7655440  91.3192160 150.8073920
  52.4255490  91.7967390 151.5640970  52.0032760  90.8657280 150.4475020
  56.9773210  92.4377750 144.8386470  57.0986030  92.3964230 145.7872290
  56.5921720  93.3001900 144.6833200  55.9894710  94.7478890 144.2369770
  55.4211610  94.2997140 143.6105680  56.6983710  95.1071670 143.7034920
  50.0801520  90.2411140 149.7238590  49.7948440  89.8766810 150.5617210
  50.0180380  89.5091600 149.1101730  53.5342190  98.7437080 146.5096180
  52.7604450  98.2034700 146.3494900  54.2636820  98.2243690 146.1713940
  59.7540110  89.1340400 146.4451960  58.9404720  88.6353570 146.3697270
  59.5602060  89.9738650 146.0288310  62.4688500  93.5060050 144.7414120
  63.3568120  93.8177280 144.5665460  62.4393590  92.6332300 144.3494700
  53.5779590  98.4117460 150.1474990  54.0958260  97.6085720 150.0931880
  53.1263610  98.3496600 150.9891820  58.4649090  99.6783740 145.4202290
  58.8064790 100.4225970 144.9245610  57.6361800  99.9914860 145.7827120
  64.7402770  94.8171890 144.2093980  64.6566490  95.2486110 143.3590420
  65.4596960  95.2770240 144.6420800  65.7690020 101.6714150 146.9376110
  65.1266180 101.0169770 147.2119830  65.3820680 102.0769240 146.1616780
  61.3476500  98.9999580 150.7847800  61.7000320  98.4027710 150.1249170
  60.4638830  98.6743810 150.9556050  57.4339780  99.7597270 148.1918210
  58.1210910 100.3066480 148.5725800  56.6472200 100.3038000 148.2267820
  49.5732180  95.3770090 143.6835290  50.4427030  95.6594890 143.9671210
  49.0822500  96.1905960 143.5684100  56.7366990  96.7643300 147.8043570
  57.1929770  97.5748550 148.0303760  56.3855200  96.4466440 148.6362060
  52.6378770  87.1080950 148.2766090  52.5093400  87.0998850 149.2251010
  51.8140790  87.4464040 147.9257100  64.1587400 100.5630610 143.4752460
  63.9324980  99.8461050 144.0677100  63.7683600 100.3143050 142.6374210
  49.9403430 104.5897470 144.2496920  50.3001070 105.1886810 143.5954190
  49.7995770 105.1357360 145.0231950  63.7403650  98.4802550 145.1366620
  63.4525350  98.9415240 145.9244500  64.5355820  98.0200320 145.4050840
  55.9572050 101.9728670 145.0670590  55.9482150 102.7058360 144.4515100
  55.0370410 101.7260250 145.1597550  51.5578690  97.1943560 145.8117350
  50.9506640  97.9342460 145.8212650  52.0328040  97.2842920 144.9855550
  64.4973510  90.3151320 146.2961800  63.8686670  90.4196990 145.5820030
  64.0025430  90.5348100 147.0855680  58.9431650 102.0356910 143.7295780
  59.0443630 101.8320900 142.7997760  58.0433390 101.7815190 143.9343560
  56.4657540  92.5937270 147.7119680  55.7573690  93.0623610 148.1533290
  56.7502020  91.9359280 148.3464870  60.4972970  89.3187930 149.1515470
  60.3740750  89.3374060 148.2024980  61.4457530  89.3666870 149.2713870
  57.5849760 104.5543230 148.4243450  57.8391260 104.5164620 147.5022820
  56.6362240 104.4276560 148.4171700  54.6692560  90.9022350 145.0870390
  55.5183090  91.3392500 145.0210580  54.3023830  91.2142610 145.9142450
  63.5902340  95.4735110 150.0001960  62.6492480  95.4885340 150.1749650
  63.9046410  94.6871070 150.4462260  53.5683980  97.1554710 143.5605920
  54.3347250  97.0436070 144.1231350  53.6458670  96.4592680 142.9082690
  52.2630740  94.5879780 144.2438810  52.3434330  93.6407290 144.3556210
  53.1550490  94.9186660 144.3499470  53.0645450 104.7375170 151.3473350
  53.8007930 104.1890630 151.6181920  53.4486370 105.6031180 151.2079340
  49.9490930 100.8048740 147.2214860  49.0230710 101.0469880 147.2120270
  50.4147360 101.6323000 147.0999610  56.1747760 103.9105480 143.1698920
  56.9676370 104.1994310 142.7180710  55.6552110 103.4797650 142.4911400
  65.2277930 103.1375610 144.5935660  64.9419440 102.7240750 143.7789840
  65.0297480 104.0663320 144.4736180  56.6925160  99.1308890 143.0341270
  56.5875800  98.5161240 143.7602650  56.5249380  98.6074780 142.2504280
  59.9327890  98.1928920 143.6383260  59.3837990  98.6398220 144.2826000
  60.5547150  97.6878170 144.1620930  55.6003010  97.1519840 145.5348560
  56.0219430  96.9859710 146.3779950  55.7253850  96.3420070 145.0403700
  58.1130650  96.1757450 142.7825660  58.6336310  95.4606470 142.4166810
  58.7599050  96.8143320 143.0826170  54.4961910  93.2253070 142.4806720
  54.2950970  92.3620430 142.8420060  54.3253960  93.1386430 141.5428320
  61.9750220  88.0361300 145.0093600  62.2552510  87.1929200 145.3653020
  61.2015950  88.2684410 145.5232350  53.2944710  90.3253690 142.4684600
  53.5970610  90.3321120 141.5603750  54.0339300  89.9751550 142.9652260
  56.5129640  89.2688310 143.4540800  56.1651640  88.5912300 142.8743250
  56.7142410  88.8077820 144.2684190  58.6778680 104.2569060 145.0727400
  59.5729470 104.5954030 145.0946160  58.7096310 103.5348470 144.4451680
  52.3174840  99.6296110 143.3014400  52.7549710 100.1725780 143.9571980
  52.8022570  98.8043060 143.3110740  49.5320640 102.4185140 150.7534660
  49.8623650 101.5506200 150.5213300  49.9611640 102.6243660 151.5839620
  54.1282560 100.7494150 148.4136630  53.8278100 100.6259120 149.3140540
  54.0220050  99.8902740 148.0052360  66.8974480 100.5290550 143.1163310
  66.0667440 100.5967200 143.5870540  67.0746310 101.4194670 142.8130170
  66.3530940  97.2738030 145.6197510  67.1149850  97.8434680 145.7257200
  66.3685310  96.7065230 146.3905820  49.8535280  95.7975960 149.8505170
  49.1984120  95.5287600 149.2064870  50.6913230  95.6880440 149.4007150
  67.3590910  98.1288130 150.4639440  67.7299740  97.3455450 150.0575410
  67.9992840  98.8177230 150.2856740  66.4050110  97.5672400 142.7770030
  66.6798950  98.4751280 142.6489250  66.2160850  97.5034930 143.7132020
  62.8025720  90.5917250 144.0723660  63.2210600  90.4048230 143.2320320
  62.4961780  89.7396300 144.3826590  66.3015450  95.5041390 147.7699460
  65.9259050  94.7369320 147.3380750  65.5718570  95.8864090 148.2574390
  49.0673360  93.0074890 145.7930500  48.1637440  93.2705090 145.6182160
  49.5513980  93.2786060 145.0130460  51.6100570  92.0640430 143.7024880
  52.3192270  91.6423650 143.2172160  50.8940510  92.1315660 143.0708230
  51.2574730  88.1179760 142.7427530  51.9802860  88.6588700 143.0608750
  51.5299250  87.8443180 141.8669070  65.0666380  92.9872230 147.0099110
  65.5625500  92.7543100 147.7947990  64.8682450  92.1484070 146.5936750
  66.4953540  91.6233180 149.5436790  66.3852820  91.4689220 150.4819060
  67.2561130  91.0954120 149.3012200  67.3843810  89.4541100 142.7842930
  68.3093120  89.3222280 142.5761220  67.3619600  89.5333920 143.7379380
  67.4582300  90.2251760 145.4099640  66.6633800  90.1596880 145.9392550
  67.6625580  91.1602400 145.3984990  64.4000720 104.2643310 149.4038030
  64.9959790 103.9427880 148.7272450  64.6578870 103.7915130 150.1951300
  65.7540800  88.1863880 149.8707290  65.6929200  87.2425100 149.7238310
  66.5332830  88.2943970 150.4160750  50.0593550 104.3256240 148.8331240
  49.8915590 103.6926920 149.5313130  49.1928060 104.5315640 148.4825430
  50.6821570  88.1573020 146.3363100  51.4400930  88.2701900 145.7627130
  50.2198740  88.9942220 146.2906530  57.2235380  90.2712290 149.3265410
  56.4109890  89.8969180 148.9861290  57.7277020  89.5157370 149.6286600
  61.7260360  86.9354740 150.5648480  62.3289730  87.5074950 151.0397000
  60.9853350  87.4994180 150.3422380  64.8694960  87.3376300 145.8388760
  65.0645590  88.2359750 146.1056190  64.0824830  87.1063380 146.3321710
  51.6656250 103.0189470 146.2781380  51.1403870 103.3997500 145.5743340
  51.5900830 103.6440240 146.9991090  53.0546720  88.6837070 144.8765070
  53.5839480  87.8966870 144.7473020  53.6875040  89.3628260 145.1100600
  55.2484560  88.4212210 147.9310460  54.6187300  87.7199520 148.0980590
  54.7089700  89.1816340 147.7143620  66.4221570 104.5777010 147.5995320
  66.5973760 103.8914750 146.9556240  65.7243140 105.1024060 147.2071990
  54.2649220 104.9671850 145.1530630  54.9968040 104.6831130 144.6054520
  54.5242890 104.7285130 146.0430010  53.4264010 101.0836580 145.1576960
  52.7972890 101.5521680 145.7062790  53.5411840 100.2385800 145.5923150
  60.8813730  95.1342240 131.3078160  60.8007780  94.2196850 131.0369870
  60.4678150  95.6309310 130.6017870  59.0131770  96.9121260 133.1887430
  58.2373870  96.4321700 133.4786000  59.6644700  96.2326910 133.0143590
  53.0297600  97.2241070 134.0663190  52.1982480  96.9689780 134.4659700
  53.6378580  97.2951840 134.8021110  63.0339200 101.3181450 131.9686560
  62.5720730 100.5468690 132.2973730  63.8464750 101.3447520 132.4739010
  53.0098860 101.2581160 134.2621210  53.3126900 100.3678900 134.0831430
  53.7542450 101.8151380 134.0343460  59.2602510 103.6039460 131.5890550
  58.6413950 104.0596960 131.0184990  60.1154290 103.7590920 131.1880250
  58.4540760  99.5878450 133.1957590  58.3849040  98.6468390 133.0346720
  59.2160620  99.6779860 133.7680160  59.4845930  92.3948830 133.4226520
  59.8610750  91.5220710 133.3100190  59.3865440  92.7307530 132.5316960
  63.2670050  89.8899270 130.3554860  64.0879670  89.3995840 130.3980340
  63.3004130  90.4796930 131.1086700  55.4558670  93.7360830 133.2169140
  55.9636890  94.2341800 133.8574160  55.9871910  92.9596030 133.0408500
  67.5569600  91.9066020 136.9198490  66.8521770  92.2947730 136.4013600
  67.8227520  92.6016310 137.5219420  53.7394770  88.3759390 137.4832560
  53.7413210  88.8931780 136.6778460  52.9099080  87.8989570 137.4602490
  60.1265860  98.4878700 128.9822460  59.5083130  98.9528150 128.4185180
  60.6389110  99.1806180 129.3991970  54.9897620  98.0154570 135.6606060
  54.6567000  98.6423490 136.3027130  55.1664300  98.5416450 134.8807730
  63.5031530  91.8299650 133.1282400  62.7987100  92.1184540 133.7085510
  63.8643690  92.6399760 132.7681960  53.4210100  90.0869350 135.4903010
  53.7626910  90.9311400 135.1956880  52.4825910  90.2353090 135.6068350
  54.2016720  99.9835370 137.4755240  54.8190720 100.6586450 137.1939690
  53.3409840 100.3923350 137.3842740  49.4949060  99.1735230 126.3562090
  49.1177040  99.6622330 125.6246990  49.7522130  99.8460510 126.9868620
  65.1194310 101.4474780 135.3909880  64.4357830 102.1173890 135.3826550
  65.6588600 101.6455430 134.6254740  57.1037990  87.5751620 131.8147600
  57.4112970  87.0198510 131.0983100  56.1738690  87.7096080 131.6320590
  62.6553050 103.2918910 134.1055060  62.6680210 102.8881200 133.2377320
  62.1028270 104.0666200 134.0016490  63.9498470 100.0135130 129.1945230
  63.8394800  99.0709460 129.3194650  63.9466720 100.3750770 130.0807990
  62.0538490  98.1948750 135.4337670  62.4707280  97.9808860 134.5991130
  62.7778310  98.4521540 136.0046290  59.4918750  95.6400450 128.5507720
  58.5648030  95.5737830 128.7796190  59.6443570  96.5780580 128.4362960
  59.4787830  91.9117450 125.5474880  58.5391500  92.0731410 125.6327340
  59.7971090  92.6303130 125.0010870  66.0000590  96.5935970 135.5253910
  65.1719220  96.6629060 135.0504040  66.5951070  97.1790280 135.0569740
  63.5216040  97.2020750 129.0542970  62.9028460  96.8640300 128.4069270
  63.5040490  96.5580510 129.7622160  62.9642600  93.3805290 136.4708780
  62.5513780  94.2059000 136.7248770  62.2318550  92.7950330 136.2785140
  55.0975390  96.1665190 131.3327450  54.6932390  95.4542440 130.8373350
  55.1838510  95.8218430 132.2215490  55.5657090  99.8532750 133.4966660
  55.2685380  99.2478220 132.8174440  56.5156910  99.8910060 133.3856020
  53.8104010  92.9408400 135.1126490  54.3618600  93.0503740 134.3379740
  54.3247520  93.3146000 135.8281720  63.6542700 103.4264620 137.1589760
  63.1773260 104.2336810 136.9662370  62.9704490 102.7742950 137.3115970
  54.6575520  99.5914440 140.1474460  53.7604050  99.8154410 140.3947860
  54.6828390  99.7149380 139.1985860  61.6980740  96.4407560 126.0615720
  62.1374020  95.6029990 125.9153540  62.4109160  97.0736960 126.1479860
  53.4846740  96.4627760 138.7231830  53.3454510  97.3350560 139.0919230
  52.6028100  96.1200570 138.5779770  59.8076120 101.3803630 130.0296960
  60.2472030 102.1227960 129.6152350  59.7463010 101.6230200 130.9535920
  55.2827090 102.4049460 140.9316980  55.2542520 102.8092410 140.0645410
  55.1192060 101.4759820 140.7688580  67.2341910 103.1876560 142.2281150
  67.7101630 103.6659450 142.9070230  67.8549070 103.1194050 141.5026650
  49.4365390  98.2325310 134.6402740  49.5145810  98.3674080 133.6958460
  50.0507070  97.5241200 134.8330860  50.6813020  99.9325500 131.0508920
  50.2741100 100.0740090 130.1962520  51.5726030  99.6485660 130.8480130
  66.6375160 100.3789410 139.3881160  66.7638220 100.1401290 138.4698340
  66.6796540  99.5473950 139.8603240  60.4991900 104.0817410 137.9575970
  61.0136570 103.9925420 138.7598400  59.6560980 104.4277110 138.2503880
  62.4746300 104.3672750 127.3859970  62.3147440 104.0775690 128.2841800
  62.3093010 103.5912880 126.8505200  54.9534680 104.1471280 129.1631590
  54.7777160 103.2306820 128.9499390  54.0990420 104.5058570 129.4029390
  62.1772430 101.8760310 125.9457970  61.4837590 101.8737600 125.2860250
  62.9195290 101.4519630 125.5152140  61.7422360 103.5023020 130.0206460
  62.1979310 102.7212400 130.3345080  62.0814880 104.2129840 130.5647640
  66.4899170  92.4321870 140.3530900  65.8743440  92.9401540 139.8246360
  66.1695590  91.5320200 140.2956840  49.4924910  99.2739480 137.1797200
  49.6555950  98.8044840 136.3616570  49.9577360  98.7663040 137.8446040
  54.2643680  88.4045240 132.2157770  53.8211830  89.1854780 131.8842290
  54.8228670  88.7275130 132.9228710  58.5513490  91.2713760 137.8193090
  58.0892860  91.4796780 138.6313030  58.1491600  90.4573110 137.5163760
  63.5518000  92.4922710 138.9489750  62.7011590  92.1928460 139.2698820
  63.3919790  92.7364720 138.0373570  60.6467710  93.9924460 141.0488540
  60.9721120  93.1588210 140.7090770  61.4348040  94.5152980 141.1966870
  56.3019580  88.9492570 134.0747370  56.5991910  89.8555400 133.9939390
  56.8505140  88.4611350 133.4606940  61.2855660  93.5342180 128.5429670
  60.6864550  94.2577980 128.3593290  61.8335270  93.4718960 127.7606120
  56.4957110  94.4264390 140.6099290  56.4000710  93.4859120 140.4599690
  57.3389090  94.6479460 140.2147360  59.8920530  92.1705720 130.5732950
  60.2850100  92.4877920 129.7601640  60.2537380  91.2917600 130.6877470
  51.6267650  90.8378060 138.7633070  51.2331040  91.6853270 138.9705850
  50.9386050  90.2004430 138.9541710  58.2012700  90.9213030 141.8329810
  57.5111020  90.7285230 142.4675900  58.9445000  91.2047670 142.3654110
  60.4775670  94.7611470 134.6683730  59.7456790  95.2698280 135.0173830
  60.0800010  93.9441450 134.3672510  56.9153060  91.4365670 133.0736220
  56.9189120  90.9955620 132.2240760  57.8104180  91.7583000 133.1808040
  56.9773210  92.4377750 126.0642980  57.0986030  92.3964230 127.0128800
  56.5921720  93.3001900 125.9089710  60.9401580  90.2145150 134.0806670
  60.9574320  90.6653800 134.9248520  60.6917160  89.3150790 134.2940110
  64.3672330  87.6277330 139.9193050  64.6918100  86.8966990 140.4451030
  64.4028840  87.3090970 139.0174040  51.0663890  98.6490910 139.3393010
  50.6818680  98.0084580 139.9375970  51.3776080  99.3527030 139.9087740
  57.2161030  95.4967450 134.8201630  57.5831160  95.0226020 135.5662970
  57.0266090  96.3709020 135.1609970  55.0060400  94.5376090 137.1385840
  54.7017470  95.4168070 137.3636200  55.9606860  94.5975880 137.1743280
  53.5342190  98.7437080 127.7352690  52.7604450  98.2034700 127.5751410
  54.2636820  98.2243690 127.3970450  64.2930170  97.7402440 133.5279080
  65.0129290  98.2357730 133.1375190  64.0911990  97.0620330 132.8832950
  59.6748970  97.8111500 139.4148080  59.6086280  96.8907170 139.1605670
  59.0454110  97.9086940 140.1292720  62.4688500  93.5060050 125.9670630
  63.3568120  93.8177280 125.7921970  62.4393590  92.6332300 125.5751210
  53.5779590  98.4117460 131.3731500  54.0958260  97.6085720 131.3188390
  53.1263610  98.3496600 132.2148330  58.4649090  99.6783740 126.6458800
  58.8064790 100.4225970 126.1502120  57.6361800  99.9914860 127.0083630
  51.0624130  95.3778830 138.2857200  50.7039070  96.0432680 138.8730540
  50.7678690  94.5462380 138.6569820  54.2637250  95.8363070 141.1696750
  53.9637390  95.9820250 140.2724570  55.0348490  95.2768360 141.0770140
  59.6065700 100.6332070 139.1651880  59.6210240  99.7013030 138.9470790
  58.8990800 100.7191830 139.8041650  65.8176910  97.2739410 138.5120460
  65.0925100  97.8668190 138.3149850  66.3452370  97.2662950 137.7133830
  65.7690020 101.6714150 128.1632620  65.1266180 101.0169770 128.4376340
  65.3820680 102.0769240 127.3873290  61.3476500  98.9999580 132.0104310
  61.7000320  98.4027710 131.3505680  60.4638830  98.6743810 132.1812560
  57.4339780  99.7597270 129.4174720  58.1210910 100.3066480 129.7982310
  56.6472200 100.3038000 129.4524330  56.7366990  96.7643300 129.0300080
  57.1929770  97.5748550 129.2560270  56.3855200  96.4466440 129.8618570
  59.0399600 102.2749640 136.2592380  59.6841820 102.4809020 136.9365800
  59.4029040 101.5138040 135.8063230  60.3131680 100.2781990 134.9769830
  60.9553910  99.5775150 135.0902000  60.8381030 101.0580430 134.7966720
  64.1587400 100.5630610 124.7008970  63.9324980  99.8461050 125.2933610
  63.7683600 100.3143050 123.8630720  62.0869300 101.0776890 138.1805890
  62.4225540 101.6643580 138.8583810  61.1669640 100.9469600 138.4103680
  49.9403430 104.5897470 125.4753430  50.3001070 105.1886810 124.8210700
  49.7995770 105.1357360 126.2488460  49.6372700  88.8672070 138.9629300
  48.9231220  89.0668990 139.5681910  50.0567740  88.0911640 139.3344100
  63.7403650  98.4802550 126.3623130  63.4525350  98.9415240 127.1501010
  64.5355820  98.0200320 126.6307350  49.9245290 102.8552330 139.9495830
  50.0336410 101.9147070 139.8091220  49.2725850 103.1207080 139.3009560
  57.9157880 101.1268220 141.3493950  57.5954750 100.4077460 141.8939640
  57.2416240 101.8023290 141.4230010  55.9572050 101.9728670 126.2927100
  55.9482150 102.7058360 125.6771610  55.0370410 101.7260250 126.3854060
  61.1311480  91.3594380 136.7130750  61.4992300  90.5389590 137.0410320
  60.2709680  91.4196270 137.1286400  58.9431650 102.0356910 124.9552290
  59.0443630 101.8320900 124.0254270  58.0433390 101.7815190 125.1600070
  56.4657540  92.5937270 128.9376190  55.7573690  93.0623610 129.3789800
  56.7502020  91.9359280 129.5721380  58.0913470  94.0133970 136.9368720
  58.5898720  94.4879790 137.6020570  58.2336420  93.0897490 137.1438750
  60.4972970  89.3187930 130.3771980  60.3740750  89.3374060 129.4281490
  61.4457530  89.3666870 130.4970380  57.5849760 104.5543230 129.6499960
  57.8391260 104.5164620 128.7279330  56.6362240 104.4276560 129.6428210
  65.2980330  90.2301930 137.7797110  64.7953930  90.9707330 138.1190920
  66.1136990  90.6185930 137.4633900  63.5902340  95.4735110 131.2258470
  62.6492480  95.4885340 131.4006160  63.9046410  94.6871070 131.6718770
  65.5927920 102.6443960 132.9012730  65.7175340 103.4675130 133.3736540
  66.4593480 102.4334690 132.5536880  53.0645450 104.7375170 132.5729860
  53.8007930 104.1890630 132.8438430  53.4486370 105.6031180 132.4335850
  49.9490930 100.8048740 128.4471370  49.0230710 101.0469880 128.4376780
  50.4147360 101.6323000 128.3256120  52.0703730 103.9221240 141.7615440
  52.8716460 104.2433290 142.1750840  51.5555550 103.5616820 142.4835350
  56.1747760 103.9105480 124.3955430  56.9676370 104.1994310 123.9437220
  55.6552110 103.4797650 123.7167910  60.9068360 100.0301110 141.7090850
  60.3006520 100.0532710 140.9686600  60.6022470  99.2984150 142.2458100
  62.3368730 103.7581400 140.3200260  63.2890480 103.6739420 140.2700500
  62.1896950 104.4223110 140.9934050  65.2277930 103.1375610 125.8192170
  64.9419440 102.7240750 125.0046350  65.0297480 104.0663320 125.6992690
  49.7901540  96.4094700 140.7051490  50.2940560  95.8301980 141.2767720
  49.0508960  96.6934930 141.2427860  56.6925160  99.1308890 124.2597780
  56.5875800  98.5161240 124.9859160  56.5249380  98.6074780 123.4760790
  56.8439480  97.8165690 140.2387010  56.0785150  98.3850690 140.1541680
  57.0255440  97.5241900 139.3455240  59.9327890  98.1928920 124.8639770
  59.3837990  98.6398220 125.5082510  60.5547150  97.6878170 125.3877440
  63.9862830  99.5471020 140.7962030  64.7272300  99.8846780 140.2929490
  63.2235510  99.7163080 140.2431800  51.8224620  94.5524290 141.6001560
  51.8629960  94.2538160 142.5086790  52.6770120  94.9531900 141.4409080
  55.6003010  97.1519840 126.7605070  56.0219430  96.9859710 127.6036460
  55.7253850  96.3420070 126.2660210  53.7630430  93.1316390 139.5676050
  53.2326890  92.6407340 138.9399390  54.4318500  93.5600590 139.0333980
  58.1130650  96.1757450 124.0082170  58.6336310  95.4606470 123.6423320
  58.7599050  96.8143320 124.3082680  62.6608490  97.5985850 139.3317240
  63.0749510  97.7530930 140.1807660  61.7259490  97.7241070 139.4943020
  63.1330660  94.9382010 141.3356390  63.7151430  94.1834330 141.2476870
  63.3092430  95.4689450 140.5587870  54.2502730  90.0978760 139.6473340
  54.1559600  89.4799510 138.9224210  53.6700120  90.8245050 139.4203250
  57.0164170  88.6552000 136.6800730  56.5681470  88.6776260 135.8346280
  56.3829370  88.2571020 137.2771030  57.4223720  97.5506330 137.3013170
  57.8411830  98.3939060 137.1289410  56.5032350  97.6878370 137.0719950
  59.7587620  95.2822510 138.6851010  59.8783830  94.6863650 139.4245850
  60.6181620  95.3192200 138.2652310  62.0975520  95.8359700 137.2613520
  61.5710740  96.3602320 136.6578660  62.4406860  96.4687090 137.8923250
  55.2731140 103.8559340 138.4170900  54.7352230 104.5805400 138.0979600
  55.5265100 103.3789680 137.6268240  56.5256390  91.8243860 139.9426830
  57.1156080  91.5159710 140.6304650  55.7076630  91.3523610 140.0986730
  61.3449820  91.4409670 140.1759850  60.6565340  90.7791210 140.1109840
  62.0655840  90.9947940 140.6208310  58.1293350 105.0910550 138.6757550
  58.0552050 105.9945690 138.9829920  57.2272190 104.7722450 138.6479620
  58.6778680 104.2569060 126.2983910  59.5729470 104.5954030 126.3202670
  58.7096310 103.5348470 125.6708190  52.3174840  99.6296110 124.5270910
  52.7549710 100.1725780 125.1828490  52.8022570  98.8043060 124.5367250
  49.5320640 102.4185140 131.9791170  49.8623650 101.5506200 131.7469810
  49.9611640 102.6243660 132.8096130  54.1282560 100.7494150 129.6393140
  53.8278100 100.6259120 130.5397050  54.0220050  99.8902740 129.2308870
  50.0210850 103.2855730 134.7172800  49.5841840 103.4656530 135.5496950
  50.5888530 104.0430350 134.5754520  65.6573030 102.7872730 139.0050110
  65.0575020 102.8465290 138.2614030  65.7866930 101.8477710 139.1346960
  66.3530940  97.2738030 126.8454020  67.1149850  97.8434680 126.9513710
  66.3685310  96.7065230 127.6162330  67.3590910  98.1288130 131.6895950
  67.7299740  97.3455450 131.2831920  67.9992840  98.8177230 131.5113250
  64.3424670  99.5124710 137.1026270  63.5284510  99.9421870 137.3652060
  64.7498870 100.1243120 136.4895320  50.8911210  96.1828530 135.6165020
  51.2584250  96.0955930 136.4961040  50.3222030  95.4195080 135.5171880
  65.6915070  94.6512910 138.6295490  65.4601160  94.4225660 137.7293440
  65.9519620  95.5712460 138.5840380  50.4427210  93.0937620 139.5223440
  49.5483260  93.0604380 139.8617150  50.9824760  93.2924410 140.2874690
  64.1303140  89.8769340 141.4075190  65.0073320  89.8852740 141.7909190
  64.1423980  89.1400180 140.7967540  65.7556130  93.8138750 135.8182760
  64.8058840  93.7802290 135.9327750  65.9369140  94.7238860 135.5832530
  64.8419260  87.5627310 137.2276300  65.4791480  88.1761450 137.5935490
  64.9894150  87.5987970 136.2825530  64.4000720 104.2643310 130.6294540
  64.9959790 103.9427880 129.9528960  64.6578870 103.7915130 131.4207810
  50.6998920  87.5241620 136.6131980  50.3513740  87.9805440 137.3790160
  50.3686620  86.6298750 136.6954410  52.3063290 100.6961220 140.7785170
  52.2632920 100.3254130 141.6599630  52.4374300 101.6338790 140.9186990
  56.0069320 102.2520810 136.3794890  55.7660680 102.5195370 135.4925410
  56.9471960 102.4226540 136.4345750  58.2123740  88.7153500 140.1351400
  58.1512630  89.3075330 140.8846810  59.1524120  88.6079460 139.9901660
  60.8498300  88.3723560 139.7743690  61.4638710  88.6902850 139.1124770
  61.3947860  87.8872150 140.3939550  67.2673480 104.2715190 137.1805530
  66.7731760 104.6684060 136.4632660  66.6586770 103.6464400 137.5742810
  51.3719560  87.0517820 139.8882750  51.9202550  86.8705870 139.1248860
  51.4374870  86.2611930 140.4239060  52.1451320 103.6423470 137.8982950
  51.5511640 103.5108170 138.6372990  52.1375160 102.8061610 137.4325050
  61.5906340  86.9355700 136.1012980  60.7166180  87.2690810 135.8985910
  61.4817090  86.4628880 136.9264850  62.4978320  89.1426570 137.4854700
  62.1691680  88.3278330 137.1056430  63.4460620  89.0996380 137.3620390
  64.9512930 104.9138610 134.4592270  64.4915900 105.6654420 134.0850290
  64.3225390 104.1945080 134.4007070  51.7763550 101.0081850 136.8490990
  51.0497610 100.3887140 136.7816940  51.8372700 101.4022460 135.9789070
  55.3808650 103.2226850 133.6340400  55.8973670 102.6114210 133.1088660
  56.0306030 103.7255630 134.1251410  58.1204150 104.1135340 134.4609380
  58.4081960 103.8589640 133.5842390  58.6327370 103.5612700 135.0514950
  59.3381160  87.8525540 135.0405890  58.5552950  88.3271040 135.3202650
  59.0444090  86.9480370 134.9319070  63.8902230  88.5548640 133.0854980
  64.3310320  88.4993740 132.2376580  63.6209820  89.4706650 133.1565160
  50.0593550 104.3256240 130.0587750  49.8915590 103.6926920 130.7569640
  49.1928060 104.5315640 129.7081940  57.2235380  90.2712290 130.5521920
  56.4109890  89.8969180 130.2117800  57.7277020  89.5157370 130.8543110
  51.6656250 103.0189470 127.5037890  51.1403870 103.3997500 126.7999850
  51.5900830 103.6440240 128.2247600  53.0546720  88.6837070 126.1021580
  53.5839480  87.8966870 125.9729530  53.6875040  89.3628260 126.3357110
  55.2484560  88.4212210 129.1566970  54.6187300  87.7199520 129.3237100
  54.7089700  89.1816340 128.9400130  58.1876510 105.0351440 141.8277580
  59.1143820 104.7995710 141.8713540  58.1726940 105.8623440 141.3463610
  66.4221570 104.5777010 128.8251830  66.5973760 103.8914750 128.1812750
  65.7243140 105.1024060 128.4328500  55.3740120  87.6996190 141.5919460
  55.0924390  88.2029790 140.8280280  55.7559820  86.9017940 141.2261590
  54.2649220 104.9671850 126.3787140  54.9968040 104.6831130 125.8311030
  54.5242890 104.7285130 127.2686520  53.4264010 101.0836580 126.3833470
  52.7972890 101.5521680 126.9319300  53.5411840 100.2385800 126.8179660
  61.9755580  87.1149770 142.1699930  61.8621030  87.4344380 143.0651450
  62.7925320  87.5162280 141.8737210  64.7554070 104.2621300 141.6518620
  65.5479390 103.7670530 141.4444580  65.0487220 104.9411440 142.2594230
  60.8813730  95.1342240 112.5334670  60.8007780  94.2196850 112.2626380
  60.4678150  95.6309310 111.8274380  59.0131770  96.9121260 114.4143940
  58.2373870  96.4321700 114.7042510  59.6644700  96.2326910 114.2400100
  51.4389550  92.1842960 109.0762090  50.5506250  92.5258930 108.9741970
  51.7230740  91.9843280 108.1842920  49.4022560  94.7848610 114.9601790
  49.9738670  94.0170810 114.9605430  49.4024100  95.0837370 114.0508400
  58.4540760  99.5878450 114.4214100  58.3849040  98.6468390 114.2603230
  59.2160620  99.6779860 114.9936670  59.4845930  92.3948830 114.6483030
  59.8610750  91.5220710 114.5356700  59.3865440  92.7307530 113.7573470
  53.6150940  90.7674460 110.1100470  53.7217690  91.6678190 110.4169230
  52.7043300  90.7192430 109.8195120  63.2670050  89.8899270 111.5811370
  64.0879670  89.3995840 111.6236850  63.3004130  90.4796930 112.3343210
  51.2634100  92.6893470 115.3553060  51.9444210  92.9531840 115.9740460
  50.9482150  91.8494340 115.6891070  55.4558670  93.7360830 114.4425650
  55.9636890  94.2341800 115.0830670  55.9871910  92.9596030 114.2665010
  53.7394770  88.3759390 118.7089070  53.7413210  88.8931780 117.9034970
  52.9099080  87.8989570 118.6859000  54.9897620  98.0154570 116.8862570
  54.6567000  98.6423490 117.5283640  55.1664300  98.5416450 116.1064240
  53.4210100  90.0869350 116.7159520  53.7626910  90.9311400 116.4213390
  52.4825910  90.2353090 116.8324860  54.2016720  99.9835370 118.7011750
  54.8190720 100.6586450 118.4196200  53.3409840 100.3923350 118.6099250
  49.4949060  99.1735230 107.5818600  49.1177040  99.6622330 106.8503500
  49.7522130  99.8460510 108.2125130  65.1194310 101.4474780 116.6166390
  64.4357830 102.1173890 116.6083060  65.6588600 101.6455430 115.8511250
  57.1037990  87.5751620 113.0404110  57.4112970  87.0198510 112.3239610
  56.1738690  87.7096080 112.8577100  62.0538490  98.1948750 116.6594180
  62.4707280  97.9808860 115.8247640  62.7778310  98.4521540 117.2302800
  59.4918750  95.6400450 109.7764230  58.5648030  95.5737830 110.0052700
  59.6443570  96.5780580 109.6619470  59.4787830  91.9117450 106.7731390
  58.5391500  92.0731410 106.8583850  59.7971090  92.6303130 106.2267380
  66.0000590  96.5935970 116.7510420  65.1719220  96.6629060 116.2760550
  66.5951070  97.1790280 116.2826250  62.9642600  93.3805290 117.6965290
  62.5513780  94.2059000 117.9505280  62.2318550  92.7950330 117.5041650
  55.0975390  96.1665190 112.5583960  54.6932390  95.4542440 112.0629860
  55.1838510  95.8218430 113.4472000  55.5657090  99.8532750 114.7223170
  55.2685380  99.2478220 114.0430950  56.5156910  99.8910060 114.6112530
  63.6542700 103.4264620 118.3846270  63.1773260 104.2336810 118.1918880
  62.9704490 102.7742950 118.5372480  54.6575520  99.5914440 121.3730970
  53.7604050  99.8154410 121.6204370  54.6828390  99.7149380 120.4242370
  55.2827090 102.4049460 122.1573490  55.2542520 102.8092410 121.2901920
  55.1192060 101.4759820 121.9945090  65.2797880  87.6950370 105.6013270
  64.9670540  87.7877200 106.5012340  66.0410350  88.2731400 105.5510700
  51.7980020  95.0610170 110.0590610  51.6777620  95.7872260 109.4471880
  51.4880910  94.2913080 109.5818520  60.4991900 104.0817410 119.1832480
  61.0136570 103.9925420 119.9854910  59.6560980 104.4277110 119.4760390
  62.4746300 104.3672750 108.6116480  62.3147440 104.0775690 109.5098310
  62.3093010 103.5912880 108.0761710  54.9534680 104.1471280 110.3888100
  54.7777160 103.2306820 110.1755900  54.0990420 104.5058570 110.6285900
  54.2643680  88.4045240 113.4414280  53.8211830  89.1854780 113.1098800
  54.8228670  88.7275130 114.1485220  60.6467710  93.9924460 122.2745050
  60.9721120  93.1588210 121.9347280  61.4348040  94.5152980 122.4223380
  57.3802500  88.0255940 108.3220110  56.7556680  88.0215810 109.0473420
  57.2932620  87.1586900 107.9256080  56.3019580  88.9492570 115.3003880
  56.5991910  89.8555400 115.2195900  56.8505140  88.4611350 114.6863450
  54.0557900  93.5278810 111.1695530  53.8298820  93.3115980 112.0742150
  53.2750430  93.9607270 110.8241500  61.2855660  93.5342180 109.7686180
  60.6864550  94.2577980 109.5849800  61.8335270  93.4718960 108.9862630
  59.8920530  92.1705720 111.7989460  60.2850100  92.4877920 110.9858150
  60.2537380  91.2917600 111.9133980  51.6267650  90.8378060 119.9889580
  51.2331040  91.6853270 120.1962360  50.9386050  90.2004430 120.1798220
  60.4775670  94.7611470 115.8940240  59.7456790  95.2698280 116.2430340
  60.0800010  93.9441450 115.5929020  56.9153060  91.4365670 114.2992730
  56.9189120  90.9955620 113.4497270  57.8104180  91.7583000 114.4064550
  56.9773210  92.4377750 107.2899490  57.0986030  92.3964230 108.2385310
  56.5921720  93.3001900 107.1346220  60.9401580  90.2145150 115.3063180
  60.9574320  90.6653800 116.1505030  60.6917160  89.3150790 115.5196620
  55.9894710  94.7478890 106.6882790  55.4211610  94.2997140 106.0618700
  56.6983710  95.1071670 106.1547940  57.2161030  95.4967450 116.0458140
  57.5831160  95.0226020 116.7919480  57.0266090  96.3709020 116.3866480
  53.5342190  98.7437080 108.9609200  52.7604450  98.2034700 108.8007920
  54.2636820  98.2243690 108.6226960  59.7540110  89.1340400 108.8964980
  58.9404720  88.6353570 108.8210290  59.5602060  89.9738650 108.4801330
  59.6748970  97.8111500 120.6404590  59.6086280  96.8907170 120.3862180
  59.0454110  97.9086940 121.3549230  62.4688500  93.5060050 107.1927140
  63.3568120  93.8177280 107.0178480  62.4393590  92.6332300 106.8007720
  53.5779590  98.4117460 112.5988010  54.0958260  97.6085720 112.5444900
  53.1263610  98.3496600 113.4404840  59.6065700 100.6332070 120.3908390
  59.6210240  99.7013030 120.1727300  58.8990800 100.7191830 121.0298160
  65.7690020 101.6714150 109.3889130  65.1266180 101.0169770 109.6632850
  65.3820680 102.0769240 108.6129800  49.5732180  95.3770090 106.1348310
  50.4427030  95.6594890 106.4184230  49.0822500  96.1905960 106.0197120
  56.7366990  96.7643300 110.2556590  57.1929770  97.5748550 110.4816780
  56.3855200  96.4466440 111.0875080  59.0399600 102.2749640 117.4848890
  59.6841820 102.4809020 118.1622310  59.4029040 101.5138040 117.0319740
  52.6378770  87.1080950 110.7279110  52.5093400  87.0998850 111.6764030
  51.8140790  87.4464040 110.3770120  60.3131680 100.2781990 116.2026340
  60.9553910  99.5775150 116.3158510  60.8381030 101.0580430 116.0223230
  64.1587400 100.5630610 105.9265480  63.9324980  99.8461050 106.5190120
  63.7683600 100.3143050 105.0887230  62.0869300 101.0776890 119.4062400
  62.4225540 101.6643580 120.0840320  61.1669640 100.9469600 119.6360190
  49.6372700  88.8672070 120.1885810  48.9231220  89.0668990 120.7938420
  50.0567740  88.0911640 120.5600610  49.9245290 102.8552330 121.1752340
  50.0336410 101.9147070 121.0347730  49.2725850 103.1207080 120.5266070
  57.9157880 101.1268220 122.5750460  57.5954750 100.4077460 123.1196150
  57.2416240 101.8023290 122.6486520  55.9572050 101.9728670 107.5183610
  55.9482150 102.7058360 106.9028120  55.0370410 101.7260250 107.6110570
  51.5578690  97.1943560 108.2630370  50.9506640  97.9342460 108.2725670
  52.0328040  97.2842920 107.4368570  61.1311480  91.3594380 117.9387260
  61.4992300  90.5389590 118.2666830  60.2709680  91.4196270 118.3542910
  64.4973510  90.3151320 108.7474820  63.8686670  90.4196990 108.0333050
  64.0025430  90.5348100 109.5368700  58.9431650 102.0356910 106.1808800
  59.0443630 101.8320900 105.2510780  58.0433390 101.7815190 106.3856580
  56.4657540  92.5937270 110.1632700  55.7573690  93.0623610 110.6046310
  56.7502020  91.9359280 110.7977890  60.4972970  89.3187930 111.6028490
  60.3740750  89.3374060 110.6538000  61.4457530  89.3666870 111.7226890
  57.5849760 104.5543230 110.8756470  57.8391260 104.5164620 109.9535840
  56.6362240 104.4276560 110.8684720  54.6692560  90.9022350 107.5383410
  55.5183090  91.3392500 107.4723600  54.3023830  91.2142610 108.3655470
  63.5902340  95.4735110 112.4514980  62.6492480  95.4885340 112.6262670
  63.9046410  94.6871070 112.8975280  53.5683980  97.1554710 106.0118940
  54.3347250  97.0436070 106.5744370  53.6458670  96.4592680 105.3595710
  52.2630740  94.5879780 106.6951830  52.3434330  93.6407290 106.8069230
  53.1550490  94.9186660 106.8012490  65.5927920 102.6443960 114.1269240
  65.7175340 103.4675130 114.5993050  66.4593480 102.4334690 113.7793390
  53.0645450 104.7375170 113.7986370  53.8007930 104.1890630 114.0694940
  53.4486370 105.6031180 113.6592360  49.9490930 100.8048740 109.6727880
  49.0230710 101.0469880 109.6633290  50.4147360 101.6323000 109.5512630
  52.0703730 103.9221240 122.9871950  52.8716460 104.2433290 123.4007350
  51.5555550 103.5616820 123.7091860  56.1747760 103.9105480 105.6211940
  56.9676370 104.1994310 105.1693730  55.6552110 103.4797650 104.9424420
  60.9068360 100.0301110 122.9347360  60.3006520 100.0532710 122.1943110
  60.6022470  99.2984150 123.4714610  62.3368730 103.7581400 121.5456770
  63.2890480 103.6739420 121.4957010  62.1896950 104.4223110 122.2190560
  49.7901540  96.4094700 121.9308000  50.2940560  95.8301980 122.5024230
  49.0508960  96.6934930 122.4684370  56.6925160  99.1308890 105.4854290
  56.5875800  98.5161240 106.2115670  56.5249380  98.6074780 104.7017300
  56.8439480  97.8165690 121.4643520  56.0785150  98.3850690 121.3798190
  57.0255440  97.5241900 120.5711750  59.9327890  98.1928920 106.0896280
  59.3837990  98.6398220 106.7339020  60.5547150  97.6878170 106.6133950
  55.6003010  97.1519840 107.9861580  56.0219430  96.9859710 108.8292970
  55.7253850  96.3420070 107.4916720  58.1130650  96.1757450 105.2338680
  58.6336310  95.4606470 104.8679830  58.7599050  96.8143320 105.5339190
  62.6608490  97.5985850 120.5573750  63.0749510  97.7530930 121.4064170
  61.7259490  97.7241070 120.7199530  63.1330660  94.9382010 122.5612900
  63.7151430  94.1834330 122.4733380  63.3092430  95.4689450 121.7844380
  57.0164170  88.6552000 117.9057240  56.5681470  88.6776260 117.0602790
  56.3829370  88.2571020 118.5027540  57.4223720  97.5506330 118.5269680
  57.8411830  98.3939060 118.3545920  56.5032350  97.6878370 118.2976460
  59.7587620  95.2822510 119.9107520  59.8783830  94.6863650 120.6502360
  60.6181620  95.3192200 119.4908820  62.0975520  95.8359700 118.4870030
  61.5710740  96.3602320 117.8835170  62.4406860  96.4687090 119.1179760
  54.4961910  93.2253070 104.9319740  54.2950970  92.3620430 105.2933080
  54.3253960  93.1386430 103.9941340  55.2731140 103.8559340 119.6427410
  54.7352230 104.5805400 119.3236110  55.5265100 103.3789680 118.8524750
  61.9750220  88.0361300 107.4606620  62.2552510  87.1929200 107.8166040
  61.2015950  88.2684410 107.9745370  53.2944710  90.3253690 104.9197620
  53.5970610  90.3321120 104.0116770  54.0339300  89.9751550 105.4165280
  58.1293350 105.0910550 119.9014060  58.0552050 105.9945690 120.2086430
  57.2272190 104.7722450 119.8736130  56.5129640  89.2688310 105.9053820
  56.1651640  88.5912300 105.3256270  56.7142410  88.8077820 106.7197210
  58.6778680 104.2569060 107.5240420  59.5729470 104.5954030 107.5459180
  58.7096310 103.5348470 106.8964700  49.5320640 102.4185140 113.2047680
  49.8623650 101.5506200 112.9726320  49.9611640 102.6243660 114.0352640
  54.1282560 100.7494150 110.8649650  53.8278100 100.6259120 111.7653560
  54.0220050  99.8902740 110.4565380  50.0210850 103.2855730 115.9429310
  49.5841840 103.4656530 116.7753460  50.5888530 104.0430350 115.8011030
  66.3530940  97.2738030 108.0710530  67.1149850  97.8434680 108.1770220
  66.3685310  96.7065230 108.8418840  49.8535280  95.7975960 112.3018190
  49.1984120  95.5287600 111.6577890  50.6913230  95.6880440 111.8520170
  67.3590910  98.1288130 112.9152460  67.7299740  97.3455450 112.5088430
  67.9992840  98.8177230 112.7369760  64.3424670  99.5124710 118.3282780
  63.5284510  99.9421870 118.5908570  64.7498870 100.1243120 117.7151830
  62.8025720  90.5917250 106.5236680  63.2210600  90.4048230 105.6833340
  62.4961780  89.7396300 106.8339610  66.3015450  95.5041390 110.2212480
  65.9259050  94.7369320 109.7893770  65.5718570  95.8864090 110.7087410
  65.5766410  93.7298880 113.5219720  66.1003890  93.2361530 112.8909890
  66.1625830  93.8649240 114.2667290  51.6100570  92.0640430 106.1537900
  52.3192270  91.6423650 105.6685180  50.8940510  92.1315660 105.5221250
  51.2574730  88.1179760 105.1940550  51.9802860  88.6588700 105.5121770
  51.5299250  87.8443180 104.3182090  65.0666380  92.9872230 109.4612130
  65.5625500  92.7543100 110.2461010  64.8682450  92.1484070 109.0449770
  66.4953540  91.6233180 111.9949810  66.3852820  91.4689220 112.9332080
  67.2561130  91.0954120 111.7525220  67.3843810  89.4541100 105.2355950
  68.3093120  89.3222280 105.0274240  67.3619600  89.5333920 106.1892400
  67.4582300  90.2251760 107.8612660  66.6633800  90.1596880 108.3905570
  67.6625580  91.1602400 107.8498010  64.4000720 104.2643310 111.8551050
  64.9959790 103.9427880 111.1785470  64.6578870 103.7915130 112.6464320
  52.3063290 100.6961220 122.0041680  52.2632920 100.3254130 122.8856140
  52.4374300 101.6338790 122.1443500  56.0069320 102.2520810 117.6051400
  55.7660680 102.5195370 116.7181920  56.9471960 102.4226540 117.6602260
  51.3719560  87.0517820 121.1139260  51.9202550  86.8705870 120.3505370
  51.4374870  86.2611930 121.6495570  52.1451320 103.6423470 119.1239460
  51.5511640 103.5108170 119.8629500  52.1375160 102.8061610 118.6581560
  64.9512930 104.9138610 115.6848780  64.4915900 105.6654420 115.3106800
  64.3225390 104.1945080 115.6263580  55.3808650 103.2226850 114.8596910
  55.8973670 102.6114210 114.3345170  56.0306030 103.7255630 115.3507920
  58.1204150 104.1135340 115.6865890  58.4081960 103.8589640 114.8098900
  58.6327370 103.5612700 116.2771460  59.3381160  87.8525540 116.2662400
  58.5552950  88.3271040 116.5459160  59.0444090  86.9480370 116.1575580
  50.0593550 104.3256240 111.2844260  49.8915590 103.6926920 111.9826150
  49.1928060 104.5315640 110.9338450  57.2235380  90.2712290 111.7778430
  56.4109890  89.8969180 111.4374310  57.7277020  89.5157370 112.0799620
  61.7260360  86.9354740 113.0161500  62.3289730  87.5074950 113.4910020
  60.9853350  87.4994180 112.7935400  64.8694960  87.3376300 108.2901780
  65.0645590  88.2359750 108.5569210  64.0824830  87.1063380 108.7834730
  51.6656250 103.0189470 108.7294400  51.1403870 103.3997500 108.0256360
  51.5900830 103.6440240 109.4504110  53.0546720  88.6837070 107.3278090
  53.5839480  87.8966870 107.1986040  53.6875040  89.3628260 107.5613620
  55.2484560  88.4212210 110.3823480  54.6187300  87.7199520 110.5493610
  54.7089700  89.1816340 110.1656640  58.1876510 105.0351440 123.0534090
  59.1143820 104.7995710 123.0970050  58.1726940 105.8623440 122.5720120
  66.4221570 104.5777010 110.0508340  66.5973760 103.8914750 109.4069260
  65.7243140 105.1024060 109.6585010  54.2649220 104.9671850 107.6043650
  54.9968040 104.6831130 107.0567540  54.5242890 104.7285130 108.4943030
  53.4264010 101.0836580 107.6089980  52.7972890 101.5521680 108.1575810
  53.5411840 100.2385800 108.0436170  60.8813730  95.1342240  93.7591180
  60.8007780  94.2196850  93.4882890  60.4678150  95.6309310  93.0530890
  59.0131770  96.9121260  95.6400450  58.2373870  96.4321700  95.9299020
  59.6644700  96.2326910  95.4656610  53.0297600  97.2241070  96.5176210
  52.1982480  96.9689780  96.9172720  53.6378580  97.2951840  97.2534130
  53.0098860 101.2581160  96.7134230  53.3126900 100.3678900  96.5344450
  53.7542450 101.8151380  96.4856480  59.2602510 103.6039460  94.0403570
  58.6413950 104.0596960  93.4698010  60.1154290 103.7590920  93.6393270
  58.4540760  99.5878450  95.6470610  58.3849040  98.6468390  95.4859740
  59.2160620  99.6779860  96.2193180  50.6447430  90.1932970  97.9727230
  50.4650270  89.2958720  98.2529990  50.2427510  90.7404840  98.6474180
  59.4845930  92.3948830  95.8739540  59.8610750  91.5220710  95.7613210
  59.3865440  92.7307530  94.9829980  51.2634100  92.6893470  96.5809570
  51.9444210  92.9531840  97.1996970  50.9482150  91.8494340  96.9147580
  55.4558670  93.7360830  95.6682160  55.9636890  94.2341800  96.3087180
  55.9871910  92.9596030  95.4921520  53.7394770  88.3759390  99.9345580
  53.7413210  88.8931780  99.1291480  52.9099080  87.8989570  99.9115510
  60.1265860  98.4878700  91.4335480  59.5083130  98.9528150  90.8698200
  60.6389110  99.1806180  91.8504990  54.9897620  98.0154570  98.1119080
  54.6567000  98.6423490  98.7540150  55.1664300  98.5416450  97.3320750
  63.5031530  91.8299650  95.5795420  62.7987100  92.1184540  96.1598530
  63.8643690  92.6399760  95.2194980  53.4210100  90.0869350  97.9416030
  53.7626910  90.9311400  97.6469900  52.4825910  90.2353090  98.0581370
  49.4949060  99.1735230  88.8075110  49.1177040  99.6622330  88.0760010
  49.7522130  99.8460510  89.4381640  62.0538490  98.1948750  97.8850690
  62.4707280  97.9808860  97.0504150  62.7778310  98.4521540  98.4559310
  59.4918750  95.6400450  91.0020740  58.5648030  95.5737830  91.2309210
  59.6443570  96.5780580  90.8875980  59.4787830  91.9117450  87.9987900
  58.5391500  92.0731410  88.0840360  59.7971090  92.6303130  87.4523890
  62.9642600  93.3805290  98.9221800  62.5513780  94.2059000  99.1761790
  62.2318550  92.7950330  98.7298160  55.0975390  96.1665190  93.7840470
  54.6932390  95.4542440  93.2886370  55.1838510  95.8218430  94.6728510
  55.5657090  99.8532750  95.9479680  55.2685380  99.2478220  95.2687460
  56.5156910  99.8910060  95.8369040  53.8104010  92.9408400  97.5639510
  54.3618600  93.0503740  96.7892760  54.3247520  93.3146000  98.2794740
  53.4846740  96.4627760 101.1744850  53.3454510  97.3350560 101.5432250
  52.6028100  96.1200570 101.0292790  59.8076120 101.3803630  92.4809980
  60.2472030 102.1227960  92.0665370  59.7463010 101.6230200  93.4048940
  50.6813020  99.9325500  93.5021940  50.2741100 100.0740090  92.6475540
  51.5726030  99.6485660  93.2993150  54.9534680 104.1471280  91.6144610
  54.7777160 103.2306820  91.4012410  54.0990420 104.5058570  91.8542410
  54.2643680  88.4045240  94.6670790  53.8211830  89.1854780  94.3355310
  54.8228670  88.7275130  95.3741730  58.5513490  91.2713760 100.2706110
  58.0892860  91.4796780 101.0826050  58.1491600  90.4573110  99.9676780
  57.3802500  88.0255940  89.5476620  56.7556680  88.0215810  90.2729930
  57.2932620  87.1586900  89.1512590  56.3019580  88.9492570  96.5260390
  56.5991910  89.8555400  96.4452410  56.8505140  88.4611350  95.9119960
  54.0557900  93.5278810  92.3952040  53.8298820  93.3115980  93.2998660
  53.2750430  93.9607270  92.0498010  61.2855660  93.5342180  90.9942690
  60.6864550  94.2577980  90.8106310  61.8335270  93.4718960  90.2119140
  56.4957110  94.4264390 103.0612310  56.4000710  93.4859120 102.9112710
  57.3389090  94.6479460 102.6660380  59.8920530  92.1705720  93.0245970
  60.2850100  92.4877920  92.2114660  60.2537380  91.2917600  93.1390490
  51.6267650  90.8378060 101.2146090  51.2331040  91.6853270 101.4218870
  50.9386050  90.2004430 101.4054730  58.2012700  90.9213030 104.2842830
  57.5111020  90.7285230 104.9188920  58.9445000  91.2047670 104.8167130
  48.9284700  88.7606520  95.2476170  48.6397750  89.3309380  95.9601150
  49.6730460  88.2810970  95.6107400  60.4775670  94.7611470  97.1196750
  59.7456790  95.2698280  97.4686850  60.0800010  93.9441450  96.8185530
  56.9153060  91.4365670  95.5249240  56.9189120  90.9955620  94.6753780
  57.8104180  91.7583000  95.6321060  52.7655440  91.3192160  94.4843450
  52.4255490  91.7967390  95.2410500  52.0032760  90.8657280  94.1244550
  56.9773210  92.4377750  88.5156000  57.0986030  92.3964230  89.4641820
  56.5921720  93.3001900  88.3602730  60.9401580  90.2145150  96.5319690
  60.9574320  90.6653800  97.3761540  60.6917160  89.3150790  96.7453130
  64.3672330  87.6277330 102.3706070  64.6918100  86.8966990 102.8964050
  64.4028840  87.3090970 101.4687060  57.2161030  95.4967450  97.2714650
  57.5831160  95.0226020  98.0175990  57.0266090  96.3709020  97.6122990
  55.0060400  94.5376090  99.5898860  54.7017470  95.4168070  99.8149220
  55.9606860  94.5975880  99.6256300  64.2930170  97.7402440  95.9792100
  65.0129290  98.2357730  95.5888210  64.0911990  97.0620330  95.3345970
  54.2637250  95.8363070 103.6209770  53.9637390  95.9820250 102.7237590
  55.0348490  95.2768360 103.5283160  61.3476500  98.9999580  94.4617330
  61.7000320  98.4027710  93.8018700  60.4638830  98.6743810  94.6325580
  49.5732180  95.3770090  87.3604820  50.4427030  95.6594890  87.6440740
  49.0822500  96.1905960  87.2453630  49.9403430 104.5897470  87.9266450
  50.3001070 105.1886810  87.2723720  49.7995770 105.1357360  88.7001480
  49.6372700  88.8672070 101.4142320  48.9231220  89.0668990 102.0194930
  50.0567740  88.0911640 101.7857120  57.9157880 101.1268220 103.8006970
  57.5954750 100.4077460 104.3452660  57.2416240 101.8023290 103.8743030
  61.1311480  91.3594380  99.1643770  61.4992300  90.5389590  99.4923340
  60.2709680  91.4196270  99.5799420  58.9431650 102.0356910  87.4065310
  59.0443630 101.8320900  86.4767290  58.0433390 101.7815190  87.6113090
  56.4657540  92.5937270  91.3889210  55.7573690  93.0623610  91.8302820
  56.7502020  91.9359280  92.0234400  58.0913470  94.0133970  99.3881740
  58.5898720  94.4879790 100.0533590  58.2336420  93.0897490  99.5951770
  57.5849760 104.5543230  92.1012980  57.8391260 104.5164620  91.1792350
  56.6362240 104.4276560  92.0941230  65.2980330  90.2301930 100.2310130
  64.7953930  90.9707330 100.5703940  66.1136990  90.6185930  99.9146920
  63.5902340  95.4735110  93.6771490  62.6492480  95.4885340  93.8519180
  63.9046410  94.6871070  94.1231790  53.0645450 104.7375170  95.0242880
  53.8007930 104.1890630  95.2951450  53.4486370 105.6031180  94.8848870
  49.9490930 100.8048740  90.8984390  49.0230710 101.0469880  90.8889800
  50.4147360 101.6323000  90.7769140  56.1747760 103.9105480  86.8468450
  56.9676370 104.1994310  86.3950240  55.6552110 103.4797650  86.1680930
  60.9068360 100.0301110 104.1603870  60.3006520 100.0532710 103.4199620
  60.6022470  99.2984150 104.6971120  56.8439480  97.8165690 102.6900030
  56.0785150  98.3850690 102.6054700  57.0255440  97.5241900 101.7968260
  51.8224620  94.5524290 104.0514580  51.8629960  94.2538160 104.9599810
  52.6770120  94.9531900 103.8922100  53.7630430  93.1316390 102.0189070
  53.2326890  92.6407340 101.3912410  54.4318500  93.5600590 101.4847000
  54.2502730  90.0978760 102.0986360  54.1559600  89.4799510 101.3737230
  53.6700120  90.8245050 101.8716270  57.0164170  88.6552000  99.1313750
  56.5681470  88.6776260  98.2859300  56.3829370  88.2571020  99.7284050
  57.4223720  97.5506330  99.7526190  57.8411830  98.3939060  99.5802430
  56.5032350  97.6878370  99.5232970  54.4961910  93.2253070  86.1576250
  54.2950970  92.3620430  86.5189590  54.3253960  93.1386430  85.2197850
  56.5256390  91.8243860 102.3939850  57.1156080  91.5159710 103.0817670
  55.7076630  91.3523610 102.5499750  53.2944710  90.3253690  86.1454130
  53.5970610  90.3321120  85.2373280  54.0339300  89.9751550  86.6421790
  56.5129640  89.2688310  87.1310330  56.1651640  88.5912300  86.5512780
  56.7142410  88.8077820  87.9453720  58.6778680 104.2569060  88.7496930
  59.5729470 104.5954030  88.7715690  58.7096310 103.5348470  88.1221210
  52.3174840  99.6296110  86.9783930  52.7549710 100.1725780  87.6341510
  52.8022570  98.8043060  86.9880270  49.5320640 102.4185140  94.4304190
  49.8623650 101.5506200  94.1982830  49.9611640 102.6243660  95.2609150
  50.0210850 103.2855730  97.1685820  49.5841840 103.4656530  98.0009970
  50.5888530 104.0430350  97.0267540  49.8535280  95.7975960  93.5274700
  49.1984120  95.5287600  92.8834400  50.6913230  95.6880440  93.0776680
  50.4427210  93.0937620 101.9736460  49.5483260  93.0604380 102.3130170
  50.9824760  93.2924410 102.7387710  64.1303140  89.8769340 103.8588210
  65.0073320  89.8852740 104.2422210  64.1423980  89.1400180 103.2480560
  51.2574730  88.1179760  86.4197060  51.9802860  88.6588700  86.7378280
  51.5299250  87.8443180  85.5438600  50.9466920  87.3685950  96.3219680
  51.5943110  86.8183330  95.8814840  51.3668760  87.6229100  97.1435490
  50.6998920  87.5241620  99.0645000  50.3513740  87.9805440  99.8303180
  50.3686620  86.6298750  99.1467430  58.2123740  88.7153500 102.5864420
  58.1512630  89.3075330 103.3359830  59.1524120  88.6079460 102.4414680
  60.8498300  88.3723560 102.2256710  61.4638710  88.6902850 101.5637790
  61.3947860  87.8872150 102.8452570  51.3719560  87.0517820 102.3395770
  51.9202550  86.8705870 101.5761880  51.4374870  86.2611930 102.8752080
  62.4978320  89.1426570  99.9367720  62.1691680  88.3278330  99.5569450
  63.4460620  89.0996380  99.8133410  55.3808650 103.2226850  96.0853420
  55.8973670 102.6114210  95.5601680  56.0306030 103.7255630  96.5764430
  58.1204150 104.1135340  96.9122400  58.4081960 103.8589640  96.0355410
  58.6327370 103.5612700  97.5027970  59.3381160  87.8525540  97.4918910
  58.5552950  88.3271040  97.7715670  59.0444090  86.9480370  97.3832090
  50.0593550 104.3256240  92.5100770  49.8915590 103.6926920  93.2082660
  49.1928060 104.5315640  92.1594960  57.2235380  90.2712290  93.0034940
  56.4109890  89.8969180  92.6630820  57.7277020  89.5157370  93.3056130
  51.6656250 103.0189470  89.9550910  51.1403870 103.3997500  89.2512870
  51.5900830 103.6440240  90.6760620  58.1876510 105.0351440 104.2790600
  59.1143820 104.7995710 104.3226560  58.1726940 105.8623440 103.7976630
  55.3740120  87.6996190 104.0432480  55.0924390  88.2029790 103.2793300
  55.7559820  86.9017940 103.6774610  61.9755580  87.1149770 104.6212950
  61.8621030  87.4344380 105.5164470  62.7925320  87.5162280 104.3250230
  60.8813730  95.1342240  74.9847690  60.8007780  94.2196850  74.7139400
  60.4678150  95.6309310  74.2787400  59.0131770  96.9121260  76.8656960
  58.2373870  96.4321700  77.1555530  59.6644700  96.2326910  76.6913120
  53.0297600  97.2241070  77.7432720  52.1982480  96.9689780  78.1429230
  53.6378580  97.2951840  78.4790640  53.0098860 101.2581160  77.9390740
  53.3126900 100.3678900  77.7600960  53.7542450 101.8151380  77.7112990
  51.4389550  92.1842960  71.5275110  50.5506250  92.5258930  71.4254990
  51.7230740  91.9843280  70.6355940  49.4022560  94.7848610  77.4114810
  49.9738670  94.0170810  77.4118450  49.4024100  95.0837370  76.5021420
  59.2602510 103.6039460  75.2660080  58.6413950 104.0596960  74.6954520
  60.1154290 103.7590920  74.8649780  58.4540760  99.5878450  76.8727120
  58.3849040  98.6468390  76.7116250  59.2160620  99.6779860  77.4449690
  50.6447430  90.1932970  79.1983740  50.4650270  89.2958720  79.4786500
  50.2427510  90.7404840  79.8730690  59.4845930  92.3948830  77.0996050
  59.8610750  91.5220710  76.9869720  59.3865440  92.7307530  76.2086490
  53.6150940  90.7674460  72.5613490  53.7217690  91.6678190  72.8682250
  52.7043300  90.7192430  72.2708140  51.2634100  92.6893470  77.8066080
  51.9444210  92.9531840  78.4253480  50.9482150  91.8494340  78.1404090
  55.4558670  93.7360830  76.8938670  55.9636890  94.2341800  77.5343690
  55.9871910  92.9596030  76.7178030  53.7394770  88.3759390  81.1602090
  53.7413210  88.8931780  80.3547990  52.9099080  87.8989570  81.1372020
  60.1265860  98.4878700  72.6591990  59.5083130  98.9528150  72.0954710
  60.6389110  99.1806180  73.0761500  54.9897620  98.0154570  79.3375590
  54.6567000  98.6423490  79.9796660  55.1664300  98.5416450  78.5577260
  53.4210100  90.0869350  79.1672540  53.7626910  90.9311400  78.8726410
  52.4825910  90.2353090  79.2837880  54.2016720  99.9835370  81.1524770
  54.8190720 100.6586450  80.8709220  53.3409840 100.3923350  81.0612270
  57.1037990  87.5751620  75.4917130  57.4112970  87.0198510  74.7752630
  56.1738690  87.7096080  75.3090120  62.6553050 103.2918910  77.7824590
  62.6680210 102.8881200  76.9146850  62.1028270 104.0666200  77.6786020
  62.0538490  98.1948750  79.1107200  62.4707280  97.9808860  78.2760660
  62.7778310  98.4521540  79.6815820  59.4918750  95.6400450  72.2277250
  58.5648030  95.5737830  72.4565720  59.6443570  96.5780580  72.1132490
  66.0000590  96.5935970  79.2023440  65.1719220  96.6629060  78.7273570
  66.5951070  97.1790280  78.7339270  63.5216040  97.2020750  72.7312500
  62.9028460  96.8640300  72.0838800  63.5040490  96.5580510  73.4391690
  55.0975390  96.1665190  75.0096980  54.6932390  95.4542440  74.5142880
  55.1838510  95.8218430  75.8985020  55.5657090  99.8532750  77.1736190
  55.2685380  99.2478220  76.4943970  56.5156910  99.8910060  77.0625550
  53.8104010  92.9408400  78.7896020  54.3618600  93.0503740  78.0149270
  54.3247520  93.3146000  79.5051250  63.6542700 103.4264620  80.8359290
  63.1773260 104.2336810  80.6431900  62.9704490 102.7742950  80.9885500
  54.6575520  99.5914440  83.8243990  53.7604050  99.8154410  84.0717390
  54.6828390  99.7149380  82.8755390  61.6980740  96.4407560  69.7385250
  62.1374020  95.6029990  69.5923070  62.4109160  97.0736960  69.8249390
  53.4846740  96.4627760  82.4001360  53.3454510  97.3350560  82.7688760
  52.6028100  96.1200570  82.2549300  59.8076120 101.3803630  73.7066490
  60.2472030 102.1227960  73.2921880  59.7463010 101.6230200  74.6305450
  55.2827090 102.4049460  84.6086510  55.2542520 102.8092410  83.7414940
  55.1192060 101.4759820  84.4458110  51.7980020  95.0610170  72.5103630
  51.6777620  95.7872260  71.8984900  51.4880910  94.2913080  72.0331540
  49.4365390  98.2325310  78.3172270  49.5145810  98.3674080  77.3727990
  50.0507070  97.5241200  78.5100390  50.6813020  99.9325500  74.7278450
  50.2741100 100.0740090  73.8732050  51.5726030  99.6485660  74.5249660
  60.4991900 104.0817410  81.6345500  61.0136570 103.9925420  82.4367930
  59.6560980 104.4277110  81.9273410  62.4746300 104.3672750  71.0629500
  62.3147440 104.0775690  71.9611330  62.3093010 103.5912880  70.5274730
  54.9534680 104.1471280  72.8401120  54.7777160 103.2306820  72.6268920
  54.0990420 104.5058570  73.0798920  62.1772430 101.8760310  69.6227500
  61.4837590 101.8737600  68.9629780  62.9195290 101.4519630  69.1921670
  61.7422360 103.5023020  73.6975990  62.1979310 102.7212400  74.0114610
  62.0814880 104.2129840  74.2417170  49.4924910  99.2739480  80.8566730
  49.6555950  98.8044840  80.0386100  49.9577360  98.7663040  81.5215570
  54.2643680  88.4045240  75.8927300  53.8211830  89.1854780  75.5611820
  54.8228670  88.7275130  76.5998240  58.5513490  91.2713760  81.4962620
  58.0892860  91.4796780  82.3082560  58.1491600  90.4573110  81.1933290
  56.3019580  88.9492570  77.7516900  56.5991910  89.8555400  77.6708920
  56.8505140  88.4611350  77.1376470  54.0557900  93.5278810  73.6208550
  53.8298820  93.3115980  74.5255170  53.2750430  93.9607270  73.2754520
  56.4957110  94.4264390  84.2868820  56.4000710  93.4859120  84.1369220
  57.3389090  94.6479460  83.8916890  59.8920530  92.1705720  74.2502480
  60.2850100  92.4877920  73.4371170  60.2537380  91.2917600  74.3647000
  51.6267650  90.8378060  82.4402600  51.2331040  91.6853270  82.6475380
  50.9386050  90.2004430  82.6311240  58.2012700  90.9213030  85.5099340
  57.5111020  90.7285230  86.1445430  58.9445000  91.2047670  86.0423640
  48.9284700  88.7606520  76.4732680  48.6397750  89.3309380  77.1857660
  49.6730460  88.2810970  76.8363910  49.1154930  92.7026640  67.6835400
  49.0329600  93.6457400  67.8250390  48.7637990  92.5601550  66.8047750
  60.4775670  94.7611470  78.3453260  59.7456790  95.2698280  78.6943360
  60.0800010  93.9441450  78.0442040  56.9153060  91.4365670  76.7505750
  56.9189120  90.9955620  75.9010290  57.8104180  91.7583000  76.8577570
  52.7655440  91.3192160  75.7099960  52.4255490  91.7967390  76.4667010
  52.0032760  90.8657280  75.3501060  56.9773210  92.4377750  69.7412510
  57.0986030  92.3964230  70.6898330  56.5921720  93.3001900  69.5859240
  55.9894710  94.7478890  69.1395810  55.4211610  94.2997140  68.5131720
  56.6983710  95.1071670  68.6060960  51.0663890  98.6490910  83.0162540
  50.6818680  98.0084580  83.6145500  51.3776080  99.3527030  83.5857270
  57.2161030  95.4967450  78.4971160  57.5831160  95.0226020  79.2432500
  57.0266090  96.3709020  78.8379500  50.0801520  90.2411140  74.6264630
  49.7948440  89.8766810  75.4643250  50.0180380  89.5091600  74.0127770
  55.0060400  94.5376090  80.8155370  54.7017470  95.4168070  81.0405730
  55.9606860  94.5975880  80.8512810  59.6748970  97.8111500  83.0917610
  59.6086280  96.8907170  82.8375200  59.0454110  97.9086940  83.8062250
  53.5779590  98.4117460  75.0501030  54.0958260  97.6085720  74.9957920
  53.1263610  98.3496600  75.8917860  58.4649090  99.6783740  70.3228330
  58.8064790 100.4225970  69.8271650  57.6361800  99.9914860  70.6853160
  51.0624130  95.3778830  81.9626730  50.7039070  96.0432680  82.5500070
  50.7678690  94.5462380  82.3339350  54.2637250  95.8363070  84.8466280
  53.9637390  95.9820250  83.9494100  55.0348490  95.2768360  84.7539670
  59.6065700 100.6332070  82.8421410  59.6210240  99.7013030  82.6240320
  58.8990800 100.7191830  83.4811180  61.3476500  98.9999580  75.6873840
  61.7000320  98.4027710  75.0275210  60.4638830  98.6743810  75.8582090
  57.4339780  99.7597270  73.0944250  58.1210910 100.3066480  73.4751840
  56.6472200 100.3038000  73.1293860  49.5732180  95.3770090  68.5861330
  50.4427030  95.6594890  68.8697250  49.0822500  96.1905960  68.4710140
  56.7366990  96.7643300  72.7069610  57.1929770  97.5748550  72.9329800
  56.3855200  96.4466440  73.5388100  59.0399600 102.2749640  79.9361910
  59.6841820 102.4809020  80.6135330  59.4029040 101.5138040  79.4832760
  52.6378770  87.1080950  73.1792130  52.5093400  87.0998850  74.1277050
  51.8140790  87.4464040  72.8283140  60.3131680 100.2781990  78.6539360
  60.9553910  99.5775150  78.7671530  60.8381030 101.0580430  78.4736250
  62.0869300 101.0776890  81.8575420  62.4225540 101.6643580  82.5353340
  61.1669640 100.9469600  82.0873210  49.9403430 104.5897470  69.1522960
  50.3001070 105.1886810  68.4980230  49.7995770 105.1357360  69.9257990
  49.6372700  88.8672070  82.6398830  48.9231220  89.0668990  83.2451440
  50.0567740  88.0911640  83.0113630  63.7403650  98.4802550  70.0392660
  63.4525350  98.9415240  70.8270540  64.5355820  98.0200320  70.3076880
  49.9245290 102.8552330  83.6265360  50.0336410 101.9147070  83.4860750
  49.2725850 103.1207080  82.9779090  57.9157880 101.1268220  85.0263480
  57.5954750 100.4077460  85.5709170  57.2416240 101.8023290  85.0999540
  51.5578690  97.1943560  70.7143390  50.9506640  97.9342460  70.7238690
  52.0328040  97.2842920  69.8881590  58.9431650 102.0356910  68.6321820
  59.0443630 101.8320900  67.7023800  58.0433390 101.7815190  68.8369600
  56.4657540  92.5937270  72.6145720  55.7573690  93.0623610  73.0559330
  56.7502020  91.9359280  73.2490910  58.0913470  94.0133970  80.6138250
  58.5898720  94.4879790  81.2790100  58.2336420  93.0897490  80.8208280
  57.5849760 104.5543230  73.3269490  57.8391260 104.5164620  72.4048860
  56.6362240 104.4276560  73.3197740  53.5683980  97.1554710  68.4631960
  54.3347250  97.0436070  69.0257390  53.6458670  96.4592680  67.8108730
  52.2630740  94.5879780  69.1464850  52.3434330  93.6407290  69.2582250
  53.1550490  94.9186660  69.2525510  53.0645450 104.7375170  76.2499390
  53.8007930 104.1890630  76.5207960  53.4486370 105.6031180  76.1105380
  49.9490930 100.8048740  72.1240900  49.0230710 101.0469880  72.1146310
  50.4147360 101.6323000  72.0025650  52.0703730 103.9221240  85.4384970
  52.8716460 104.2433290  85.8520370  51.5555550 103.5616820  86.1604880
  60.9068360 100.0301110  85.3860380  60.3006520 100.0532710  84.6456130
  60.6022470  99.2984150  85.9227630  62.3368730 103.7581400  83.9969790
  63.2890480 103.6739420  83.9470030  62.1896950 104.4223110  84.6703580
  65.2277930 103.1375610  69.4961700  64.9419440 102.7240750  68.6815880
  65.0297480 104.0663320  69.3762220  49.7901540  96.4094700  84.3821020
  50.2940560  95.8301980  84.9537250  49.0508960  96.6934930  84.9197390
  56.8439480  97.8165690  83.9156540  56.0785150  98.3850690  83.8311210
  57.0255440  97.5241900  83.0224770  59.9327890  98.1928920  68.5409300
  59.3837990  98.6398220  69.1852040  60.5547150  97.6878170  69.0646970
  51.8224620  94.5524290  85.2771090  51.8629960  94.2538160  86.1856320
  52.6770120  94.9531900  85.1178610  55.6003010  97.1519840  70.4374600
  56.0219430  96.9859710  71.2805990  55.7253850  96.3420070  69.9429740
  53.7630430  93.1316390  83.2445580  53.2326890  92.6407340  82.6168920
  54.4318500  93.5600590  82.7103510  54.2502730  90.0978760  83.3242870
  54.1559600  89.4799510  82.5993740  53.6700120  90.8245050  83.0972780
  57.0164170  88.6552000  80.3570260  56.5681470  88.6776260  79.5115810
  56.3829370  88.2571020  80.9540560  57.4223720  97.5506330  80.9782700
  57.8411830  98.3939060  80.8058940  56.5032350  97.6878370  80.7489480
  59.7587620  95.2822510  82.3620540  59.8783830  94.6863650  83.1015380
  60.6181620  95.3192200  81.9421840  54.4961910  93.2253070  67.3832760
  54.2950970  92.3620430  67.7446100  54.3253960  93.1386430  66.4454360
  55.2731140 103.8559340  82.0940430  54.7352230 104.5805400  81.7749130
  55.5265100 103.3789680  81.3037770  56.5256390  91.8243860  83.6196360
  57.1156080  91.5159710  84.3074180  55.7076630  91.3523610  83.7756260
  53.2944710  90.3253690  67.3710640  53.5970610  90.3321120  66.4629790
  54.0339300  89.9751550  67.8678300  58.1293350 105.0910550  82.3527080
  58.0552050 105.9945690  82.6599450  57.2272190 104.7722450  82.3249150
  58.6778680 104.2569060  69.9753440  59.5729470 104.5954030  69.9972200
  58.7096310 103.5348470  69.3477720  49.5320640 102.4185140  75.6560700
  49.8623650 101.5506200  75.4239340  49.9611640 102.6243660  76.4865660
  54.1282560 100.7494150  73.3162670  53.8278100 100.6259120  74.2166580
  54.0220050  99.8902740  72.9078400  50.0210850 103.2855730  78.3942330
  49.5841840 103.4656530  79.2266480  50.5888530 104.0430350  78.2524050
  49.8535280  95.7975960  74.7531210  49.1984120  95.5287600  74.1090910
  50.6913230  95.6880440  74.3033190  50.8911210  96.1828530  79.2934550
  51.2584250  96.0955930  80.1730570  50.3222030  95.4195080  79.1941410
  50.4427210  93.0937620  83.1992970  49.5483260  93.0604380  83.5386680
  50.9824760  93.2924410  83.9644220  49.0673360  93.0074890  70.6956540
  48.1637440  93.2705090  70.5208200  49.5513980  93.2786060  69.9156500
  51.6100570  92.0640430  68.6050920  52.3192270  91.6423650  68.1198200
  50.8940510  92.1315660  67.9734270  51.2574730  88.1179760  67.6453570
  51.9802860  88.6588700  67.9634790  51.5299250  87.8443180  66.7695110
  50.9466920  87.3685950  77.5476190  51.5943110  86.8183330  77.1071350
  51.3668760  87.6229100  78.3692000  50.6998920  87.5241620  80.2901510
  50.3513740  87.9805440  81.0559690  50.3686620  86.6298750  80.3723940
  52.3063290 100.6961220  84.4554700  52.2632920 100.3254130  85.3369160
  52.4374300 101.6338790  84.5956520  56.0069320 102.2520810  80.0564420
  55.7660680 102.5195370  79.1694940  56.9471960 102.4226540  80.1115280
  58.2123740  88.7153500  83.8120930  58.1512630  89.3075330  84.5616340
  59.1524120  88.6079460  83.6671190  60.8498300  88.3723560  83.4513220
  61.4638710  88.6902850  82.7894300  61.3947860  87.8872150  84.0709080
  51.3719560  87.0517820  83.5652280  51.9202550  86.8705870  82.8018390
  51.4374870  86.2611930  84.1008590  52.1451320 103.6423470  81.5752480
  51.5511640 103.5108170  82.3142520  52.1375160 102.8061610  81.1094580
  61.5906340  86.9355700  79.7782510  60.7166180  87.2690810  79.5755440
  61.4817090  86.4628880  80.6034380  62.4978320  89.1426570  81.1624230
  62.1691680  88.3278330  80.7825960  63.4460620  89.0996380  81.0389920
  51.7763550 101.0081850  80.5260520  51.0497610 100.3887140  80.4586470
  51.8372700 101.4022460  79.6558600  55.3808650 103.2226850  77.3109930
  55.8973670 102.6114210  76.7858190  56.0306030 103.7255630  77.8020940
  58.1204150 104.1135340  78.1378910  58.4081960 103.8589640  77.2611920
  58.6327370 103.5612700  78.7284480  59.3381160  87.8525540  78.7175420
  58.5552950  88.3271040  78.9972180  59.0444090  86.9480370  78.6088600
  50.0593550 104.3256240  73.7357280  49.8915590 103.6926920  74.4339170
  49.1928060 104.5315640  73.3851470  50.6821570  88.1573020  71.2389140
  51.4400930  88.2701900  70.6653170  50.2198740  88.9942220  71.1932570
  57.2235380  90.2712290  74.2291450  56.4109890  89.8969180  73.8887330
  57.7277020  89.5157370  74.5312640  58.1876510 105.0351440  85.5047110
  59.1143820 104.7995710  85.5483070  58.1726940 105.8623440  85.0233140
  55.3740120  87.6996190  85.2688990  55.0924390  88.2029790  84.5049810
  55.7559820  86.9017940  84.9031120  54.2649220 104.9671850  70.0556670
  54.9968040 104.6831130  69.5080560  54.5242890 104.7285130  70.9456050
  53.0297600  97.2241070  58.9689230  52.1982480  96.9689780  59.3685740
  53.6378580  97.2951840  59.7047150  63.0339200 101.3181450  56.8712600
  62.5720730 100.5468690  57.1999770  63.8464750 101.3447520  57.3765050
  51.4389550  92.1842960  52.7531620  50.5506250  92.5258930  52.6511500
  51.7230740  91.9843280  51.8612450  49.4022560  94.7848610  58.6371320
  49.9738670  94.0170810  58.6374960  49.4024100  95.0837370  57.7277930
  59.2602510 103.6039460  56.4916590  58.6413950 104.0596960  55.9211030
  60.1154290 103.7590920  56.0906290  50.6447430  90.1932970  60.4240250
  50.4650270  89.2958720  60.7043010  50.2427510  90.7404840  61.0987200
  53.7394770  88.3759390  62.3858600  53.7413210  88.8931780  61.5804500
  52.9099080  87.8989570  62.3628530  60.1265860  98.4878700  53.8848500
  59.5083130  98.9528150  53.3211220  60.6389110  99.1806180  54.3018010
  54.9897620  98.0154570  60.5632100  54.6567000  98.6423490  61.2053170
  55.1664300  98.5416450  59.7833770  49.4949060  99.1735230  51.2588130
  49.1177040  99.6622330  50.5273030  49.7522130  99.8460510  51.8894660
  65.1194310 101.4474780  60.2935920  64.4357830 102.1173890  60.2852590
  65.6588600 101.6455430  59.5280780  62.6553050 103.2918910  59.0081100
  62.6680210 102.8881200  58.1403360  62.1028270 104.0666200  58.9042530
  63.9498470 100.0135130  54.0971270  63.8394800  99.0709460  54.2220690
  63.9466720 100.3750770  54.9834030  66.0000590  96.5935970  60.4279950
  65.1719220  96.6629060  59.9530080  66.5951070  97.1790280  59.9595780
  63.5216040  97.2020750  53.9569010  62.9028460  96.8640300  53.3095310
  63.5040490  96.5580510  54.6648200  55.5657090  99.8532750  58.3992700
  55.2685380  99.2478220  57.7200480  56.5156910  99.8910060  58.2882060
  63.6542700 103.4264620  62.0615800  63.1773260 104.2336810  61.8688410
  62.9704490 102.7742950  62.2142010  53.4846740  96.4627760  63.6257870
  53.3454510  97.3350560  63.9945270  52.6028100  96.1200570  63.4805810
  59.8076120 101.3803630  54.9323000  60.2472030 102.1227960  54.5178390
  59.7463010 101.6230200  55.8561960  67.2341910 103.1876560  67.1307190
  67.7101630 103.6659450  67.8096270  67.8549070 103.1194050  66.4052690
  49.4365390  98.2325310  59.5428780  49.5145810  98.3674080  58.5984500
  50.0507070  97.5241200  59.7356900  50.6813020  99.9325500  55.9534960
  50.2741100 100.0740090  55.0988560  51.5726030  99.6485660  55.7506170
  66.6375160 100.3789410  64.2907200  66.7638220 100.1401290  63.3724380
  66.6796540  99.5473950  64.7629280  60.4991900 104.0817410  62.8602010
  61.0136570 103.9925420  63.6624440  59.6560980 104.4277110  63.1529920
  62.4746300 104.3672750  52.2886010  62.3147440 104.0775690  53.1867840
  62.3093010 103.5912880  51.7531240  62.1772430 101.8760310  50.8484010
  61.4837590 101.8737600  50.1886290  62.9195290 101.4519630  50.4178180
  61.7422360 103.5023020  54.9232500  62.1979310 102.7212400  55.2371120
  62.0814880 104.2129840  55.4673680  56.4957110  94.4264390  65.5125330
  56.4000710  93.4859120  65.3625730  57.3389090  94.6479460  65.1173400
  51.6267650  90.8378060  63.6659110  51.2331040  91.6853270  63.8731890
  50.9386050  90.2004430  63.8567750  48.9284700  88.7606520  57.6989190
  48.6397750  89.3309380  58.4114170  49.6730460  88.2810970  58.0620420
  57.2161030  95.4967450  59.7227670  57.5831160  95.0226020  60.4689010
  57.0266090  96.3709020  60.0636010  50.0801520  90.2411140  55.8521140
  49.7948440  89.8766810  56.6899760  50.0180380  89.5091600  55.2384280
  55.0060400  94.5376090  62.0411880  54.7017470  95.4168070  62.2662240
  55.9606860  94.5975880  62.0769320  53.5342190  98.7437080  52.6378730
  52.7604450  98.2034700  52.4777450  54.2636820  98.2243690  52.2996490
  59.6748970  97.8111500  64.3174120  59.6086280  96.8907170  64.0631710
  59.0454110  97.9086940  65.0318760  53.5779590  98.4117460  56.2757540
  54.0958260  97.6085720  56.2214430  53.1263610  98.3496600  57.1174370
  58.4649090  99.6783740  51.5484840  58.8064790 100.4225970  51.0528160
  57.6361800  99.9914860  51.9109670  51.0624130  95.3778830  63.1883240
  50.7039070  96.0432680  63.7756580  50.7678690  94.5462380  63.5595860
  54.2637250  95.8363070  66.0722790  53.9637390  95.9820250  65.1750610
  55.0348490  95.2768360  65.9796180  59.6065700 100.6332070  64.0677920
  59.6210240  99.7013030  63.8496830  58.8990800 100.7191830  64.7067690
  65.7690020 101.6714150  53.0658660  65.1266180 101.0169770  53.3402380
  65.3820680 102.0769240  52.2899330  57.4339780  99.7597270  54.3200760
  58.1210910 100.3066480  54.7008350  56.6472200 100.3038000  54.3550370
  49.5732180  95.3770090  49.8117840  50.4427030  95.6594890  50.0953760
  49.0822500  96.1905960  49.6966650  59.0399600 102.2749640  61.1618420
  59.6841820 102.4809020  61.8391840  59.4029040 101.5138040  60.7089270
  60.3131680 100.2781990  59.8795870  60.9553910  99.5775150  59.9928040
  60.8381030 101.0580430  59.6992760  64.1587400 100.5630610  49.6035010
  63.9324980  99.8461050  50.1959650  63.7683600 100.3143050  48.7656760
  62.0869300 101.0776890  63.0831930  62.4225540 101.6643580  63.7609850
  61.1669640 100.9469600  63.3129720  49.6372700  88.8672070  63.8655340
  48.9231220  89.0668990  64.4707950  50.0567740  88.0911640  64.2370140
  63.7403650  98.4802550  51.2649170  63.4525350  98.9415240  52.0527050
  64.5355820  98.0200320  51.5333390  51.5578690  97.1943560  51.9399900
  50.9506640  97.9342460  51.9495200  52.0328040  97.2842920  51.1138100
  58.9431650 102.0356910  49.8578330  59.0443630 101.8320900  48.9280310
  58.0433390 101.7815190  50.0626110  57.5849760 104.5543230  54.5526000
  57.8391260 104.5164620  53.6305370  56.6362240 104.4276560  54.5454250
  65.5927920 102.6443960  57.8038770  65.7175340 103.4675130  58.2762580
  66.4593480 102.4334690  57.4562920  53.0645450 104.7375170  57.4755900
  53.8007930 104.1890630  57.7464470  53.4486370 105.6031180  57.3361890
  49.9490930 100.8048740  53.3497410  49.0230710 101.0469880  53.3402820
  50.4147360 101.6323000  53.2282160  60.9068360 100.0301110  66.6116890
  60.3006520 100.0532710  65.8712640  60.6022470  99.2984150  67.1484140
  62.3368730 103.7581400  65.2226300  63.2890480 103.6739420  65.1726540
  62.1896950 104.4223110  65.8960090  65.2277930 103.1375610  50.7218210
  64.9419440 102.7240750  49.9072390  65.0297480 104.0663320  50.6018730
  49.7901540  96.4094700  65.6077530  50.2940560  95.8301980  66.1793760
  49.0508960  96.6934930  66.1453900  56.8439480  97.8165690  65.1413050
  56.0785150  98.3850690  65.0567720  57.0255440  97.5241900  64.2481280
  63.9862830  99.5471020  65.6988070  64.7272300  99.8846780  65.1955530
  63.2235510  99.7163080  65.1457840  51.8224620  94.5524290  66.5027600
  51.8629960  94.2538160  67.4112830  52.6770120  94.9531900  66.3435120
  53.7630430  93.1316390  64.4702090  53.2326890  92.6407340  63.8425430
  54.4318500  93.5600590  63.9360020  62.6608490  97.5985850  64.2343280
  63.0749510  97.7530930  65.0833700  61.7259490  97.7241070  64.3969060
  54.2502730  90.0978760  64.5499380  54.1559600  89.4799510  63.8250250
  53.6700120  90.8245050  64.3229290  57.4223720  97.5506330  62.2039210
  57.8411830  98.3939060  62.0315450  56.5032350  97.6878370  61.9745990
  52.3174840  99.6296110  49.4296950  52.7549710 100.1725780  50.0854530
  52.8022570  98.8043060  49.4393290  54.1282560 100.7494150  54.5419180
  53.8278100 100.6259120  55.4423090  54.0220050  99.8902740  54.1334910
  65.6573030 102.7872730  63.9076150  65.0575020 102.8465290  63.1640070
  65.7866930 101.8477710  64.0373000  66.8974480 100.5290550  49.2445860
  66.0667440 100.5967200  49.7153090  67.0746310 101.4194670  48.9412720
  49.8535280  95.7975960  55.9787720  49.1984120  95.5287600  55.3347420
  50.6913230  95.6880440  55.5289700  64.3424670  99.5124710  62.0052310
  63.5284510  99.9421870  62.2678100  64.7498870 100.1243120  61.3921360
  50.8911210  96.1828530  60.5191060  51.2584250  96.0955930  61.3987080
  50.3222030  95.4195080  60.4197920  50.4427210  93.0937620  64.4249480
  49.5483260  93.0604380  64.7643190  50.9824760  93.2924410  65.1900730
  49.0673360  93.0074890  51.9213050  48.1637440  93.2705090  51.7464710
  49.5513980  93.2786060  51.1413010  50.9466920  87.3685950  58.7732700
  51.5943110  86.8183330  58.3327860  51.3668760  87.6229100  59.5948510
  64.4000720 104.2643310  55.5320580  64.9959790 103.9427880  54.8555000
  64.6578870 103.7915130  56.3233850  50.6998920  87.5241620  61.5158020
  50.3513740  87.9805440  62.2816200  50.3686620  86.6298750  61.5980450
  67.2673480 104.2715190  62.0831570  66.7731760 104.6684060  61.3658700
  66.6586770 103.6464400  62.4768850  51.3719560  87.0517820  64.7908790
  51.9202550  86.8705870  64.0274900  51.4374870  86.2611930  65.3265100
  64.9512930 104.9138610  59.3618310  64.4915900 105.6654420  58.9876330
  64.3225390 104.1945080  59.3033110  55.3808650 103.2226850  58.5366440
  55.8973670 102.6114210  58.0114700  56.0306030 103.7255630  59.0277450
  58.1204150 104.1135340  59.3635420  58.4081960 103.8589640  58.4868430
  58.6327370 103.5612700  59.9540990  66.4221570 104.5777010  53.7277870
  66.5973760 103.8914750  53.0838790  65.7243140 105.1024060  53.3354540
  64.7554070 104.2621300  66.5544660  65.5479390 103.7670530  66.3470620
  65.0487220 104.9411440  67.1620270  60.8813730  95.1342240  37.4360710
  60.8007780  94.2196850  37.1652420  60.4678150  95.6309310  36.7300420
  59.0131770  96.9121260  39.3169980  58.2373870  96.4321700  39.6068550
  59.6644700  96.2326910  39.1426140  53.0297600  97.2241070  40.1945740
  52.1982480  96.9689780  40.5942250  53.6378580  97.2951840  40.9303660
  63.0339200 101.3181450  38.0969110  62.5720730 100.5468690  38.4256280
  63.8464750 101.3447520  38.6021560  53.0098860 101.2581160  40.3903760
  53.3126900 100.3678900  40.2113980  53.7542450 101.8151380  40.1626010
  51.4389550  92.1842960  33.9788130  50.5506250  92.5258930  33.8768010
  51.7230740  91.9843280  33.0868960  49.4022560  94.7848610  39.8627830
  49.9738670  94.0170810  39.8631470  49.4024100  95.0837370  38.9534440
  59.2602510 103.6039460  37.7173100  58.6413950 104.0596960  37.1467540
  60.1154290 103.7590920  37.3162800  53.6150940  90.7674460  35.0126510
  53.7217690  91.6678190  35.3195270  52.7043300  90.7192430  34.7221160
  63.2670050  89.8899270  36.4837410  64.0879670  89.3995840  36.5262890
  63.3004130  90.4796930  37.2369250  60.1265860  98.4878700  35.1105010
  59.5083130  98.9528150  34.5467730  60.6389110  99.1806180  35.5274520
  54.9897620  98.0154570  41.7888610  54.6567000  98.6423490  42.4309680
  55.1664300  98.5416450  41.0090280  54.2016720  99.9835370  43.6037790
  54.8190720 100.6586450  43.3222240  53.3409840 100.3923350  43.5125290
  49.4949060  99.1735230  32.4844640  49.1177040  99.6622330  31.7529540
  49.7522130  99.8460510  33.1151170  65.1194310 101.4474780  41.5192430
  64.4357830 102.1173890  41.5109100  65.6588600 101.6455430  40.7537290
  62.6553050 103.2918910  40.2337610  62.6680210 102.8881200  39.3659870
  62.1028270 104.0666200  40.1299040  63.9498470 100.0135130  35.3227780
  63.8394800  99.0709460  35.4477200  63.9466720 100.3750770  36.2090540
  59.4918750  95.6400450  34.6790270  58.5648030  95.5737830  34.9078740
  59.6443570  96.5780580  34.5645510  63.5216040  97.2020750  35.1825520
  62.9028460  96.8640300  34.5351820  63.5040490  96.5580510  35.8904710
  55.0975390  96.1665190  37.4610000  54.6932390  95.4542440  36.9655900
  55.1838510  95.8218430  38.3498040  55.5657090  99.8532750  39.6249210
  55.2685380  99.2478220  38.9456990  56.5156910  99.8910060  39.5138570
  63.6542700 103.4264620  43.2872310  63.1773260 104.2336810  43.0944920
  62.9704490 102.7742950  43.4398520  54.6575520  99.5914440  46.2757010
  53.7604050  99.8154410  46.5230410  54.6828390  99.7149380  45.3268410
  61.6980740  96.4407560  32.1898270  62.1374020  95.6029990  32.0436090
  62.4109160  97.0736960  32.2762410  59.8076120 101.3803630  36.1579510
  60.2472030 102.1227960  35.7434900  59.7463010 101.6230200  37.0818470
  65.2797880  87.6950370  30.5039310  64.9670540  87.7877200  31.4038380
  66.0410350  88.2731400  30.4536740  51.7980020  95.0610170  34.9616650
  51.6777620  95.7872260  34.3497920  51.4880910  94.2913080  34.4844560
  67.2341910 103.1876560  48.3563700  67.7101630 103.6659450  49.0352780
  67.8549070 103.1194050  47.6309200  50.6813020  99.9325500  37.1791470
  50.2741100 100.0740090  36.3245070  51.5726030  99.6485660  36.9762680
  66.6375160 100.3789410  45.5163710  66.7638220 100.1401290  44.5980890
  66.6796540  99.5473950  45.9885790  60.4991900 104.0817410  44.0858520
  61.0136570 103.9925420  44.8880950  59.6560980 104.4277110  44.3786430
  62.4746300 104.3672750  33.5142520  62.3147440 104.0775690  34.4124350
  62.3093010 103.5912880  32.9787750  54.9534680 104.1471280  35.2914140
  54.7777160 103.2306820  35.0781940  54.0990420 104.5058570  35.5311940
  62.1772430 101.8760310  32.0740520  61.4837590 101.8737600  31.4142800
  62.9195290 101.4519630  31.6434690  61.7422360 103.5023020  36.1489010
  62.1979310 102.7212400  36.4627630  62.0814880 104.2129840  36.6930190
  49.4924910  99.2739480  43.3079750  49.6555950  98.8044840  42.4899120
  49.9577360  98.7663040  43.9728590  54.2643680  88.4045240  38.3440320
  53.8211830  89.1854780  38.0124840  54.8228670  88.7275130  39.0511260
  56.3019580  88.9492570  40.2029920  56.5991910  89.8555400  40.1221940
  56.8505140  88.4611350  39.5889490  54.0557900  93.5278810  36.0721570
  53.8298820  93.3115980  36.9768190  53.2750430  93.9607270  35.7267540
  61.2855660  93.5342180  34.6712220  60.6864550  94.2577980  34.4875840
  61.8335270  93.4718960  33.8888670  48.9284700  88.7606520  38.9245700
  48.6397750  89.3309380  39.6370680  49.6730460  88.2810970  39.2876930
  60.4775670  94.7611470  40.7966280  59.7456790  95.2698280  41.1456380
  60.0800010  93.9441450  40.4955060  52.7655440  91.3192160  38.1612980
  52.4255490  91.7967390  38.9180030  52.0032760  90.8657280  37.8014080
  55.9894710  94.7478890  31.5908830  55.4211610  94.2997140  30.9644740
  56.6983710  95.1071670  31.0573980  51.0663890  98.6490910  45.4675560
  50.6818680  98.0084580  46.0658520  51.3776080  99.3527030  46.0370290
  50.0801520  90.2411140  37.0777650  49.7948440  89.8766810  37.9156270
  50.0180380  89.5091600  36.4640790  53.5342190  98.7437080  33.8635240
  52.7604450  98.2034700  33.7033960  54.2636820  98.2243690  33.5253000
  62.4688500  93.5060050  32.0953180  63.3568120  93.8177280  31.9204520
  62.4393590  92.6332300  31.7033760  53.5779590  98.4117460  37.5014050
  54.0958260  97.6085720  37.4470940  53.1263610  98.3496600  38.3430880
  58.4649090  99.6783740  32.7741350  58.8064790 100.4225970  32.2784670
  57.6361800  99.9914860  33.1366180  59.6065700 100.6332070  45.2934430
  59.6210240  99.7013030  45.0753340  58.8990800 100.7191830  45.9324200
  64.7402770  94.8171890  31.5633040  64.6566490  95.2486110  30.7129480
  65.4596960  95.2770240  31.9959860  65.7690020 101.6714150  34.2915170
  65.1266180 101.0169770  34.5658890  65.3820680 102.0769240  33.5155840
  61.3476500  98.9999580  38.1386860  61.7000320  98.4027710  37.4788230
  60.4638830  98.6743810  38.3095110  57.4339780  99.7597270  35.5457270
  58.1210910 100.3066480  35.9264860  56.6472200 100.3038000  35.5806880
  56.7366990  96.7643300  35.1582630  57.1929770  97.5748550  35.3842820
  56.3855200  96.4466440  35.9901120  59.0399600 102.2749640  42.3874930
  59.6841820 102.4809020  43.0648350  59.4029040 101.5138040  41.9345780
  52.6378770  87.1080950  35.6305150  52.5093400  87.0998850  36.5790070
  51.8140790  87.4464040  35.2796160  60.3131680 100.2781990  41.1052380
  60.9553910  99.5775150  41.2184550  60.8381030 101.0580430  40.9249270
  62.0869300 101.0776890  44.3088440  62.4225540 101.6643580  44.9866360
  61.1669640 100.9469600  44.5386230  49.9403430 104.5897470  31.6035980
  50.3001070 105.1886810  30.9493250  49.7995770 105.1357360  32.3771010
  63.7403650  98.4802550  32.4905680  63.4525350  98.9415240  33.2783560
  64.5355820  98.0200320  32.7589900  49.9245290 102.8552330  46.0778380
  50.0336410 101.9147070  45.9373770  49.2725850 103.1207080  45.4292110
  57.9157880 101.1268220  47.4776500  57.5954750 100.4077460  48.0222190
  57.2416240 101.8023290  47.5512560  55.9572050 101.9728670  32.4209650
  55.9482150 102.7058360  31.8054160  55.0370410 101.7260250  32.5136610
  51.5578690  97.1943560  33.1656410  50.9506640  97.9342460  33.1751710
  52.0328040  97.2842920  32.3394610  64.4973510  90.3151320  33.6500860
  63.8686670  90.4196990  32.9359090  64.0025430  90.5348100  34.4394740
  58.9431650 102.0356910  31.0834840  59.0443630 101.8320900  30.1536820
  58.0433390 101.7815190  31.2882620  57.5849760 104.5543230  35.7782510
  57.8391260 104.5164620  34.8561880  56.6362240 104.4276560  35.7710760
  54.6692560  90.9022350  32.4409450  55.5183090  91.3392500  32.3749640
  54.3023830  91.2142610  33.2681510  63.5902340  95.4735110  37.3541020
  62.6492480  95.4885340  37.5288710  63.9046410  94.6871070  37.8001320
  53.5683980  97.1554710  30.9144980  54.3347250  97.0436070  31.4770410
  53.6458670  96.4592680  30.2621750  65.5927920 102.6443960  39.0295280
  65.7175340 103.4675130  39.5019090  66.4593480 102.4334690  38.6819430
  53.0645450 104.7375170  38.7012410  53.8007930 104.1890630  38.9720980
  53.4486370 105.6031180  38.5618400  49.9490930 100.8048740  34.5753920
  49.0230710 101.0469880  34.5659330  50.4147360 101.6323000  34.4538670
  56.1747760 103.9105480  30.5237980  56.9676370 104.1994310  30.0719770
  55.6552110 103.4797650  29.8450460  60.9068360 100.0301110  47.8373400
  60.3006520 100.0532710  47.0969150  60.6022470  99.2984150  48.3740650
  62.3368730 103.7581400  46.4482810  63.2890480 103.6739420  46.3983050
  62.1896950 104.4223110  47.1216600  65.2277930 103.1375610  31.9474720
  64.9419440 102.7240750  31.1328900  65.0297480 104.0663320  31.8275240
  49.7901540  96.4094700  46.8334040  50.2940560  95.8301980  47.4050270
  49.0508960  96.6934930  47.3710410  56.6925160  99.1308890  30.3880330
  56.5875800  98.5161240  31.1141710  56.5249380  98.6074780  29.6043340
  59.9327890  98.1928920  30.9922320  59.3837990  98.6398220  31.6365060
  60.5547150  97.6878170  31.5159990  55.6003010  97.1519840  32.8887620
  56.0219430  96.9859710  33.7319010  55.7253850  96.3420070  32.3942760
  58.1130650  96.1757450  30.1364720  58.6336310  95.4606470  29.7705870
  58.7599050  96.8143320  30.4365230  54.4961910  93.2253070  29.8345780
  54.2950970  92.3620430  30.1959120  54.3253960  93.1386430  28.8967380
  55.2731140 103.8559340  44.5453450  54.7352230 104.5805400  44.2262150
  55.5265100 103.3789680  43.7550790  53.2944710  90.3253690  29.8223660
  53.5970610  90.3321120  28.9142810  54.0339300  89.9751550  30.3191320
  58.1293350 105.0910550  44.8040100  58.0552050 105.9945690  45.1112470
  57.2272190 104.7722450  44.7762170  56.5129640  89.2688310  30.8079860
  56.1651640  88.5912300  30.2282310  56.7142410  88.8077820  31.6223250
  58.6778680 104.2569060  32.4266460  59.5729470 104.5954030  32.4485220
  58.7096310 103.5348470  31.7990740  52.3174840  99.6296110  30.6553460
  52.7549710 100.1725780  31.3111040  52.8022570  98.8043060  30.6649800
  54.1282560 100.7494150  35.7675690  53.8278100 100.6259120  36.6679600
  54.0220050  99.8902740  35.3591420  65.6573030 102.7872730  45.1332660
  65.0575020 102.8465290  44.3896580  65.7866930 101.8477710  45.2629510
  66.8974480 100.5290550  30.4702370  66.0667440 100.5967200  30.9409600
  67.0746310 101.4194670  30.1669230  66.3530940  97.2738030  32.9736570
  67.1149850  97.8434680  33.0796260  66.3685310  96.7065230  33.7444880
  49.8535280  95.7975960  37.2044230  49.1984120  95.5287600  36.5603930
  50.6913230  95.6880440  36.7546210  67.3590910  98.1288130  37.8178500
  67.7299740  97.3455450  37.4114470  67.9992840  98.8177230  37.6395800
  66.4050110  97.5672400  30.1309090  66.6798950  98.4751280  30.0028310
  66.2160850  97.5034930  31.0671080  62.8025720  90.5917250  31.4262720
  63.2210600  90.4048230  30.5859380  62.4961780  89.7396300  31.7365650
  66.3015450  95.5041390  35.1238520  65.9259050  94.7369320  34.6919810
  65.5718570  95.8864090  35.6113450  50.8911210  96.1828530  41.7447570
  51.2584250  96.0955930  42.6243590  50.3222030  95.4195080  41.6454430
  51.2574730  88.1179760  30.0966590  51.9802860  88.6588700  30.4147810
  51.5299250  87.8443180  29.2208130  65.0666380  92.9872230  34.3638170
  65.5625500  92.7543100  35.1487050  64.8682450  92.1484070  33.9475810
  50.9466920  87.3685950  39.9989210  51.5943110  86.8183330  39.5584370
  51.3668760  87.6229100  40.8205020  67.3843810  89.4541100  30.1381990
  68.3093120  89.3222280  29.9300280  67.3619600  89.5333920  31.0918440
  67.4582300  90.2251760  32.7638700  66.6633800  90.1596880  33.2931610
  67.6625580  91.1602400  32.7524050  64.4000720 104.2643310  36.7577090
  64.9959790 103.9427880  36.0811510  64.6578870 103.7915130  37.5490360
  50.6998920  87.5241620  42.7414530  50.3513740  87.9805440  43.5072710
  50.3686620  86.6298750  42.8236960  52.3063290 100.6961220  46.9067720
  52.2632920 100.3254130  47.7882180  52.4374300 101.6338790  47.0469540
  56.0069320 102.2520810  42.5077440  55.7660680 102.5195370  41.6207960
  56.9471960 102.4226540  42.5628300  67.2673480 104.2715190  43.3088080
  66.7731760 104.6684060  42.5915210  66.6586770 103.6464400  43.7025360
  52.1451320 103.6423470  44.0265500  51.5511640 103.5108170  44.7655540
  52.1375160 102.8061610  43.5607600  64.9512930 104.9138610  40.5874820
  64.4915900 105.6654420  40.2132840  64.3225390 104.1945080  40.5289620
  51.7763550 101.0081850  42.9773540  51.0497610 100.3887140  42.9099490
  51.8372700 101.4022460  42.1071620  55.3808650 103.2226850  39.7622950
  55.8973670 102.6114210  39.2371210  56.0306030 103.7255630  40.2533960
  58.1204150 104.1135340  40.5891930  58.4081960 103.8589640  39.7124940
  58.6327370 103.5612700  41.1797500  50.0593550 104.3256240  36.1870300
  49.8915590 103.6926920  36.8852190  49.1928060 104.5315640  35.8364490
  50.6821570  88.1573020  33.6902160  51.4400930  88.2701900  33.1166190
  50.2198740  88.9942220  33.6445590  64.8694960  87.3376300  33.1927820
  65.0645590  88.2359750  33.4595250  64.0824830  87.1063380  33.6860770
  51.6656250 103.0189470  33.6320440  51.1403870 103.3997500  32.9282400
  51.5900830 103.6440240  34.3530150  53.0546720  88.6837070  32.2304130
  53.5839480  87.8966870  32.1012080  53.6875040  89.3628260  32.4639660
  55.2484560  88.4212210  35.2849520  54.6187300  87.7199520  35.4519650
  54.7089700  89.1816340  35.0682680  66.4221570 104.5777010  34.9534380
  66.5973760 103.8914750  34.3095300  65.7243140 105.1024060  34.5611050
  54.2649220 104.9671850  32.5069690  54.9968040 104.6831130  31.9593580
  54.5242890 104.7285130  33.3969070  53.4264010 101.0836580  32.5116020
  52.7972890 101.5521680  33.0601850  53.5411840 100.2385800  32.9462210
  64.7554070 104.2621300  47.7801170  65.5479390 103.7670530  47.5727130
  65.0487220 104.9411440  48.3876780  60.8813730  95.1342240  18.6617220
  60.8007780  94.2196850  18.3908930  60.4678150  95.6309310  17.9556930
  59.0131770  96.9121260  20.5426490  58.2373870  96.4321700  20.8325060
  59.6644700  96.2326910  20.3682650  53.0297600  97.2241070  21.4202250
  52.1982480  96.9689780  21.8198760  53.6378580  97.2951840  22.1560170
  53.0098860 101.2581160  21.6160270  53.3126900 100.3678900  21.4370490
  53.7542450 101.8151380  21.3882520  51.4389550  92.1842960  15.2044640
  50.5506250  92.5258930  15.1024520  51.7230740  91.9843280  14.3125470
  49.4022560  94.7848610  21.0884340  49.9738670  94.0170810  21.0887980
  49.4024100  95.0837370  20.1790950  59.2602510 103.6039460  18.9429610
  58.6413950 104.0596960  18.3724050  60.1154290 103.7590920  18.5419310
  58.4540760  99.5878450  20.5496650  58.3849040  98.6468390  20.3885780
  59.2160620  99.6779860  21.1219220  50.6447430  90.1932970  22.8753270
  50.4650270  89.2958720  23.1556030  50.2427510  90.7404840  23.5500220
  59.4845930  92.3948830  20.7765580  59.8610750  91.5220710  20.6639250
  59.3865440  92.7307530  19.8856020  53.6150940  90.7674460  16.2383020
  53.7217690  91.6678190  16.5451780  52.7043300  90.7192430  15.9477670
  63.2670050  89.8899270  17.7093920  64.0879670  89.3995840  17.7519400
  63.3004130  90.4796930  18.4625760  51.2634100  92.6893470  21.4835610
  51.9444210  92.9531840  22.1023010  50.9482150  91.8494340  21.8173620
  55.4558670  93.7360830  20.5708200  55.9636890  94.2341800  21.2113220
  55.9871910  92.9596030  20.3947560  67.5569600  91.9066020  24.2737550
  66.8521770  92.2947730  23.7552660  67.8227520  92.6016310  24.8758480
  60.1265860  98.4878700  16.3361520  59.5083130  98.9528150  15.7724240
  60.6389110  99.1806180  16.7531030  54.9897620  98.0154570  23.0145120
  54.6567000  98.6423490  23.6566190  55.1664300  98.5416450  22.2346790
  63.5031530  91.8299650  20.4821460  62.7987100  92.1184540  21.0624570
  63.8643690  92.6399760  20.1221020  53.4210100  90.0869350  22.8442070
  53.7626910  90.9311400  22.5495940  52.4825910  90.2353090  22.9607410
  54.2016720  99.9835370  24.8294300  54.8190720 100.6586450  24.5478750
  53.3409840 100.3923350  24.7381800  49.4949060  99.1735230  13.7101150
  49.1177040  99.6622330  12.9786050  49.7522130  99.8460510  14.3407680
  66.5718450  91.2754440  20.8730670  65.6243360  91.3093420  21.0046100
  66.8968440  92.0893390  21.2580030  57.1037990  87.5751620  19.1686660
  57.4112970  87.0198510  18.4522160  56.1738690  87.7096080  18.9859650
  63.9498470 100.0135130  16.5484290  63.8394800  99.0709460  16.6733710
  63.9466720 100.3750770  17.4347050  62.0538490  98.1948750  22.7876730
  62.4707280  97.9808860  21.9530190  62.7778310  98.4521540  23.3585350
  59.4918750  95.6400450  15.9046780  58.5648030  95.5737830  16.1335250
  59.6443570  96.5780580  15.7902020  59.4787830  91.9117450  12.9013940
  58.5391500  92.0731410  12.9866400  59.7971090  92.6303130  12.3549930
  66.0000590  96.5935970  22.8792970  65.1719220  96.6629060  22.4043100
  66.5951070  97.1790280  22.4108800  63.5216040  97.2020750  16.4082030
  62.9028460  96.8640300  15.7608330  63.5040490  96.5580510  17.1161220
  62.9642600  93.3805290  23.8247840  62.5513780  94.2059000  24.0787830
  62.2318550  92.7950330  23.6324200  55.0975390  96.1665190  18.6866510
  54.6932390  95.4542440  18.1912410  55.1838510  95.8218430  19.5754550
  55.5657090  99.8532750  20.8505720  55.2685380  99.2478220  20.1713500
  56.5156910  99.8910060  20.7395080  53.8104010  92.9408400  22.4665550
  54.3618600  93.0503740  21.6918800  54.3247520  93.3146000  23.1820780
  54.6575520  99.5914440  27.5013520  53.7604050  99.8154410  27.7486920
  54.6828390  99.7149380  26.5524920  61.6980740  96.4407560  13.4154780
  62.1374020  95.6029990  13.2692600  62.4109160  97.0736960  13.5018920
  53.4846740  96.4627760  26.0770890  53.3454510  97.3350560  26.4458290
  52.6028100  96.1200570  25.9318830  59.8076120 101.3803630  17.3836020
  60.2472030 102.1227960  16.9691410  59.7463010 101.6230200  18.3074980
  55.2827090 102.4049460  28.2856040  55.2542520 102.8092410  27.4184470
  55.1192060 101.4759820  28.1227640  65.2797880  87.6950370  11.7295820
  64.9670540  87.7877200  12.6294890  66.0410350  88.2731400  11.6793250
  51.7980020  95.0610170  16.1873160  51.6777620  95.7872260  15.5754430
  51.4880910  94.2913080  15.7101070  49.4365390  98.2325310  21.9941800
  49.5145810  98.3674080  21.0497520  50.0507070  97.5241200  22.1869920
  50.6813020  99.9325500  18.4047980  50.2741100 100.0740090  17.5501580
  51.5726030  99.6485660  18.2019190  62.4746300 104.3672750  14.7399030
  62.3147440 104.0775690  15.6380860  62.3093010 103.5912880  14.2044260
  54.9534680 104.1471280  16.5170650  54.7777160 103.2306820  16.3038450
  54.0990420 104.5058570  16.7568450  62.1772430 101.8760310  13.2997030
  61.4837590 101.8737600  12.6399310  62.9195290 101.4519630  12.8691200
  61.7422360 103.5023020  17.3745520  62.1979310 102.7212400  17.6884140
  62.0814880 104.2129840  17.9186700  66.4899170  92.4321870  27.7069960
  65.8743440  92.9401540  27.1785420  66.1695590  91.5320200  27.6495900
  49.4924910  99.2739480  24.5336260  49.6555950  98.8044840  23.7155630
  49.9577360  98.7663040  25.1985100  54.2643680  88.4045240  19.5696830
  53.8211830  89.1854780  19.2381350  54.8228670  88.7275130  20.2767770
  58.5513490  91.2713760  25.1732150  58.0892860  91.4796780  25.9852090
  58.1491600  90.4573110  24.8702820  63.5518000  92.4922710  26.3028810
  62.7011590  92.1928460  26.6237880  63.3919790  92.7364720  25.3912630
  60.6467710  93.9924460  28.4027600  60.9721120  93.1588210  28.0629830
  61.4348040  94.5152980  28.5505930  57.3802500  88.0255940  14.4502660
  56.7556680  88.0215810  15.1755970  57.2932620  87.1586900  14.0538630
  56.3019580  88.9492570  21.4286430  56.5991910  89.8555400  21.3478450
  56.8505140  88.4611350  20.8146000  54.0557900  93.5278810  17.2978080
  53.8298820  93.3115980  18.2024700  53.2750430  93.9607270  16.9524050
  61.2855660  93.5342180  15.8968730  60.6864550  94.2577980  15.7132350
  61.8335270  93.4718960  15.1145180  56.4957110  94.4264390  27.9638350
  56.4000710  93.4859120  27.8138750  57.3389090  94.6479460  27.5686420
  59.8920530  92.1705720  17.9272010  60.2850100  92.4877920  17.1140700
  60.2537380  91.2917600  18.0416530  51.6267650  90.8378060  26.1172130
  51.2331040  91.6853270  26.3244910  50.9386050  90.2004430  26.3080770
  58.2012700  90.9213030  29.1868870  57.5111020  90.7285230  29.8214960
  58.9445000  91.2047670  29.7193170  48.9284700  88.7606520  20.1502210
  48.6397750  89.3309380  20.8627190  49.6730460  88.2810970  20.5133440
  49.1154930  92.7026640  11.3604930  49.0329600  93.6457400  11.5019920
  48.7637990  92.5601550  10.4817280  60.4775670  94.7611470  22.0222790
  59.7456790  95.2698280  22.3712890  60.0800010  93.9441450  21.7211570
  56.9153060  91.4365670  20.4275280  56.9189120  90.9955620  19.5779820
  57.8104180  91.7583000  20.5347100  52.7655440  91.3192160  19.3869490
  52.4255490  91.7967390  20.1436540  52.0032760  90.8657280  19.0270590
  56.9773210  92.4377750  13.4182040  57.0986030  92.3964230  14.3667860
  56.5921720  93.3001900  13.2628770  60.9401580  90.2145150  21.4345730
  60.9574320  90.6653800  22.2787580  60.6917160  89.3150790  21.6479170
  55.9894710  94.7478890  12.8165340  55.4211610  94.2997140  12.1901250
  56.6983710  95.1071670  12.2830490  64.3672330  87.6277330  27.2732110
  64.6918100  86.8966990  27.7990090  64.4028840  87.3090970  26.3713100
  51.0663890  98.6490910  26.6932070  50.6818680  98.0084580  27.2915030
  51.3776080  99.3527030  27.2626800  57.2161030  95.4967450  22.1740690
  57.5831160  95.0226020  22.9202030  57.0266090  96.3709020  22.5149030
  50.0801520  90.2411140  18.3034160  49.7948440  89.8766810  19.1412780
  50.0180380  89.5091600  17.6897300  55.0060400  94.5376090  24.4924900
  54.7017470  95.4168070  24.7175260  55.9606860  94.5975880  24.5282340
  53.5342190  98.7437080  15.0891750  52.7604450  98.2034700  14.9290470
  54.2636820  98.2243690  14.7509510  64.2930170  97.7402440  20.8818140
  65.0129290  98.2357730  20.4914250  64.0911990  97.0620330  20.2372010
  59.7540110  89.1340400  15.0247530  58.9404720  88.6353570  14.9492840
  59.5602060  89.9738650  14.6083880  59.6748970  97.8111500  26.7687140
  59.6086280  96.8907170  26.5144730  59.0454110  97.9086940  27.4831780
  62.4688500  93.5060050  13.3209690  63.3568120  93.8177280  13.1461030
  62.4393590  92.6332300  12.9290270  53.5779590  98.4117460  18.7270560
  54.0958260  97.6085720  18.6727450  53.1263610  98.3496600  19.5687390
  58.4649090  99.6783740  13.9997860  58.8064790 100.4225970  13.5041180
  57.6361800  99.9914860  14.3622690  54.2637250  95.8363070  28.5235810
  53.9637390  95.9820250  27.6263630  55.0348490  95.2768360  28.4309200
  64.7402770  94.8171890  12.7889550  64.6566490  95.2486110  11.9385990
  65.4596960  95.2770240  13.2216370  65.8176910  97.2739410  25.8659520
  65.0925100  97.8668190  25.6688910  66.3452370  97.2662950  25.0672890
  65.7690020 101.6714150  15.5171680  65.1266180 101.0169770  15.7915400
  65.3820680 102.0769240  14.7412350  61.3476500  98.9999580  19.3643370
  61.7000320  98.4027710  18.7044740  60.4638830  98.6743810  19.5351620
  57.4339780  99.7597270  16.7713780  58.1210910 100.3066480  17.1521370
  56.6472200 100.3038000  16.8063390  49.5732180  95.3770090  12.2630860
  50.4427030  95.6594890  12.5466780  49.0822500  96.1905960  12.1479670
  56.7366990  96.7643300  16.3839140  57.1929770  97.5748550  16.6099330
  56.3855200  96.4466440  17.2157630  52.6378770  87.1080950  16.8561660
  52.5093400  87.0998850  17.8046580  51.8140790  87.4464040  16.5052670
  60.3131680 100.2781990  22.3308890  60.9553910  99.5775150  22.4441060
  60.8381030 101.0580430  22.1505780  64.1587400 100.5630610  12.0548030
  63.9324980  99.8461050  12.6472670  63.7683600 100.3143050  11.2169780
  49.9403430 104.5897470  12.8292490  50.3001070 105.1886810  12.1749760
  49.7995770 105.1357360  13.6027520  49.6372700  88.8672070  26.3168360
  48.9231220  89.0668990  26.9220970  50.0567740  88.0911640  26.6883160
  63.7403650  98.4802550  13.7162190  63.4525350  98.9415240  14.5040070
  64.5355820  98.0200320  13.9846410  49.9245290 102.8552330  27.3034890
  50.0336410 101.9147070  27.1630280  49.2725850 103.1207080  26.6548620
  57.9157880 101.1268220  28.7033010  57.5954750 100.4077460  29.2478700
  57.2416240 101.8023290  28.7769070  55.9572050 101.9728670  13.6466160
  55.9482150 102.7058360  13.0310670  55.0370410 101.7260250  13.7393120
  51.5578690  97.1943560  14.3912920  50.9506640  97.9342460  14.4008220
  52.0328040  97.2842920  13.5651120  61.1311480  91.3594380  24.0669810
  61.4992300  90.5389590  24.3949380  60.2709680  91.4196270  24.4825460
  64.4973510  90.3151320  14.8757370  63.8686670  90.4196990  14.1615600
  64.0025430  90.5348100  15.6651250  58.9431650 102.0356910  12.3091350
  59.0443630 101.8320900  11.3793330  58.0433390 101.7815190  12.5139130
  56.4657540  92.5937270  16.2915250  55.7573690  93.0623610  16.7328860
  56.7502020  91.9359280  16.9260440  58.0913470  94.0133970  24.2907780
  58.5898720  94.4879790  24.9559630  58.2336420  93.0897490  24.4977810
  60.4972970  89.3187930  17.7311040  60.3740750  89.3374060  16.7820550
  61.4457530  89.3666870  17.8509440  57.5849760 104.5543230  17.0039020
  57.8391260 104.5164620  16.0818390  56.6362240 104.4276560  16.9967270
  54.6692560  90.9022350  13.6665960  55.5183090  91.3392500  13.6006150
  54.3023830  91.2142610  14.4938020  65.2980330  90.2301930  25.1336170
  64.7953930  90.9707330  25.4729980  66.1136990  90.6185930  24.8172960
  63.5902340  95.4735110  18.5797530  62.6492480  95.4885340  18.7545220
  63.9046410  94.6871070  19.0257830  53.5683980  97.1554710  12.1401490
  54.3347250  97.0436070  12.7026920  53.6458670  96.4592680  11.4878260
  52.2630740  94.5879780  12.8234380  52.3434330  93.6407290  12.9351780
  53.1550490  94.9186660  12.9295040  53.0645450 104.7375170  19.9268920
  53.8007930 104.1890630  20.1977490  53.4486370 105.6031180  19.7874910
  49.9490930 100.8048740  15.8010430  49.0230710 101.0469880  15.7915840
  50.4147360 101.6323000  15.6795180  52.0703730 103.9221240  29.1154500
  52.8716460 104.2433290  29.5289900  51.5555550 103.5616820  29.8374410
  56.1747760 103.9105480  11.7494490  56.9676370 104.1994310  11.2976280
  55.6552110 103.4797650  11.0706970  60.9068360 100.0301110  29.0629910
  60.3006520 100.0532710  28.3225660  60.6022470  99.2984150  29.5997160
  65.2277930 103.1375610  13.1731230  64.9419440 102.7240750  12.3585410
  65.0297480 104.0663320  13.0531750  56.6925160  99.1308890  11.6136840
  56.5875800  98.5161240  12.3398220  56.5249380  98.6074780  10.8299850
  56.8439480  97.8165690  27.5926070  56.0785150  98.3850690  27.5080740
  57.0255440  97.5241900  26.6994300  59.9327890  98.1928920  12.2178830
  59.3837990  98.6398220  12.8621570  60.5547150  97.6878170  12.7416500
  55.6003010  97.1519840  14.1144130  56.0219430  96.9859710  14.9575520
  55.7253850  96.3420070  13.6199270  53.7630430  93.1316390  26.9215110
  53.2326890  92.6407340  26.2938450  54.4318500  93.5600590  26.3873040
  58.1130650  96.1757450  11.3621230  58.6336310  95.4606470  10.9962380
  58.7599050  96.8143320  11.6621740  62.6608490  97.5985850  26.6856300
  63.0749510  97.7530930  27.5346720  61.7259490  97.7241070  26.8482080
  63.1330660  94.9382010  28.6895450  63.7151430  94.1834330  28.6015930
  63.3092430  95.4689450  27.9126930  54.2502730  90.0978760  27.0012400
  54.1559600  89.4799510  26.2763270  53.6700120  90.8245050  26.7742310
  57.0164170  88.6552000  24.0339790  56.5681470  88.6776260  23.1885340
  56.3829370  88.2571020  24.6310090  57.4223720  97.5506330  24.6552230
  57.8411830  98.3939060  24.4828470  56.5032350  97.6878370  24.4259010
  59.7587620  95.2822510  26.0390070  59.8783830  94.6863650  26.7784910
  60.6181620  95.3192200  25.6191370  62.0975520  95.8359700  24.6152580
  61.5710740  96.3602320  24.0117720  62.4406860  96.4687090  25.2462310
  54.4961910  93.2253070  11.0602290  54.2950970  92.3620430  11.4215630
  54.3253960  93.1386430  10.1223890  56.5256390  91.8243860  27.2965890
  57.1156080  91.5159710  27.9843710  55.7076630  91.3523610  27.4525790
  61.3449820  91.4409670  27.5298910  60.6565340  90.7791210  27.4648900
  62.0655840  90.9947940  27.9747370  61.9750220  88.0361300  13.5889170
  62.2552510  87.1929200  13.9448590  61.2015950  88.2684410  14.1027920
  53.2944710  90.3253690  11.0480170  53.5970610  90.3321120  10.1399320
  54.0339300  89.9751550  11.5447830  56.5129640  89.2688310  12.0336370
  56.1651640  88.5912300  11.4538820  56.7142410  88.8077820  12.8479760
  58.6778680 104.2569060  13.6522970  59.5729470 104.5954030  13.6741730
  58.7096310 103.5348470  13.0247250  52.3174840  99.6296110  11.8809970
  52.7549710 100.1725780  12.5367550  52.8022570  98.8043060  11.8906310
  49.5320640 102.4185140  19.3330230  49.8623650 101.5506200  19.1008870
  49.9611640 102.6243660  20.1635190  54.1282560 100.7494150  16.9932200
  53.8278100 100.6259120  17.8936110  54.0220050  99.8902740  16.5847930
  50.0210850 103.2855730  22.0711860  49.5841840 103.4656530  22.9036010
  50.5888530 104.0430350  21.9293580  66.8974480 100.5290550  11.6958880
  66.0667440 100.5967200  12.1666110  67.0746310 101.4194670  11.3925740
  66.3530940  97.2738030  14.1993080  67.1149850  97.8434680  14.3052770
  66.3685310  96.7065230  14.9701390  49.8535280  95.7975960  18.4300740
  49.1984120  95.5287600  17.7860440  50.6913230  95.6880440  17.9802720
  67.3590910  98.1288130  19.0435010  67.7299740  97.3455450  18.6370980
  67.9992840  98.8177230  18.8652310  66.4050110  97.5672400  11.3565600
  66.6798950  98.4751280  11.2284820  66.2160850  97.5034930  12.2927590
  62.8025720  90.5917250  12.6519230  63.2210600  90.4048230  11.8115890
  62.4961780  89.7396300  12.9622160  66.3015450  95.5041390  16.3495030
  65.9259050  94.7369320  15.9176320  65.5718570  95.8864090  16.8369960
  50.8911210  96.1828530  22.9704080  51.2584250  96.0955930  23.8500100
  50.3222030  95.4195080  22.8710940  65.6915070  94.6512910  25.9834550
  65.4601160  94.4225660  25.0832500  65.9519620  95.5712460  25.9379440
  64.1303140  89.8769340  28.7614250  65.0073320  89.8852740  29.1448250
  64.1423980  89.1400180  28.1506600  49.0673360  93.0074890  14.3726070
  48.1637440  93.2705090  14.1977730  49.5513980  93.2786060  13.5926030
  65.5766410  93.7298880  19.6502270  66.1003890  93.2361530  19.0192440
  66.1625830  93.8649240  20.3949840  65.7556130  93.8138750  23.1721820
  64.8058840  93.7802290  23.2866810  65.9369140  94.7238860  22.9371590
  51.6100570  92.0640430  12.2820450  52.3192270  91.6423650  11.7967730
  50.8940510  92.1315660  11.6503800  51.2574730  88.1179760  11.3223100
  51.9802860  88.6588700  11.6404320  51.5299250  87.8443180  10.4464640
  65.0666380  92.9872230  15.5894680  65.5625500  92.7543100  16.3743560
  64.8682450  92.1484070  15.1732320  66.4953540  91.6233180  18.1232360
  66.3852820  91.4689220  19.0614630  67.2561130  91.0954120  17.8807770
  64.8419260  87.5627310  24.5815360  65.4791480  88.1761450  24.9474550
  64.9894150  87.5987970  23.6364590  67.3843810  89.4541100  11.3638500
  68.3093120  89.3222280  11.1556790  67.3619600  89.5333920  12.3174950
  67.4582300  90.2251760  13.9895210  66.6633800  90.1596880  14.5188120
  67.6625580  91.1602400  13.9780560  52.3063290 100.6961220  28.1324230
  52.2632920 100.3254130  29.0138690  52.4374300 101.6338790  28.2726050
  56.0069320 102.2520810  23.7333950  55.7660680 102.5195370  22.8464470
  56.9471960 102.4226540  23.7884810  58.2123740  88.7153500  27.4890460
  58.1512630  89.3075330  28.2385870  59.1524120  88.6079460  27.3440720
  60.8498300  88.3723560  27.1282750  61.4638710  88.6902850  26.4663830
  61.3947860  87.8872150  27.7478610  52.1451320 103.6423470  25.2522010
  51.5511640 103.5108170  25.9912050  52.1375160 102.8061610  24.7864110
  61.5906340  86.9355700  23.4552040  60.7166180  87.2690810  23.2524970
  61.4817090  86.4628880  24.2803910  62.4978320  89.1426570  24.8393760
  62.1691680  88.3278330  24.4595490  63.4460620  89.0996380  24.7159450
  51.7763550 101.0081850  24.2030050  51.0497610 100.3887140  24.1356000
  51.8372700 101.4022460  23.3328130  55.3808650 103.2226850  20.9879460
  55.8973670 102.6114210  20.4627720  56.0306030 103.7255630  21.4790470
  59.3381160  87.8525540  22.3944950  58.5552950  88.3271040  22.6741710
  59.0444090  86.9480370  22.2858130  63.8902230  88.5548640  20.4394040
  64.3310320  88.4993740  19.5915640  63.6209820  89.4706650  20.5104220
  65.7540800  88.1863880  18.4502860  65.6929200  87.2425100  18.3033880
  66.5332830  88.2943970  18.9956320  50.0593550 104.3256240  17.4126810
  49.8915590 103.6926920  18.1108700  49.1928060 104.5315640  17.0621000
  50.6821570  88.1573020  14.9158670  51.4400930  88.2701900  14.3422700
  50.2198740  88.9942220  14.8702100  57.2235380  90.2712290  17.9060980
  56.4109890  89.8969180  17.5656860  57.7277020  89.5157370  18.2082170
  64.8694960  87.3376300  14.4184330  65.0645590  88.2359750  14.6851760
  64.0824830  87.1063380  14.9117280  51.6656250 103.0189470  14.8576950
  51.1403870 103.3997500  14.1538910  51.5900830 103.6440240  15.5786660
  53.0546720  88.6837070  13.4560640  53.5839480  87.8966870  13.3268590
  53.6875040  89.3628260  13.6896170  55.2484560  88.4212210  16.5106030
  54.6187300  87.7199520  16.6776160  54.7089700  89.1816340  16.2939190
  55.3740120  87.6996190  28.9458520  55.0924390  88.2029790  28.1819340
  55.7559820  86.9017940  28.5800650  54.2649220 104.9671850  13.7326200
  54.9968040 104.6831130  13.1850090  54.5242890 104.7285130  14.6225580
  53.4264010 101.0836580  13.7372530  52.7972890 101.5521680  14.2858360
  53.5411840 100.2385800  14.1718720  61.9755580  87.1149770  29.5238990
  61.8621030  87.4344380  30.4190510  62.7925320  87.5162280  29.2276270
  59.0131770  96.9121260   1.7683000  58.2373870  96.4321700   2.0581570
  59.6644700  96.2326910   1.5939160  53.0297600  97.2241070   2.6458760
  52.1982480  96.9689780   3.0455270  53.6378580  97.2951840   3.3816680
  53.0098860 101.2581160   2.8416780  53.3126900 100.3678900   2.6627000
  53.7542450 101.8151380   2.6139030  58.4540760  99.5878450   1.7753160
  58.3849040  98.6468390   1.6142290  59.2160620  99.6779860   2.3475730
  50.6447430  90.1932970   4.1009780  50.4650270  89.2958720   4.3812540
  50.2427510  90.7404840   4.7756730  51.2634100  92.6893470   2.7092120
  51.9444210  92.9531840   3.3279520  50.9482150  91.8494340   3.0430130
  55.4558670  93.7360830   1.7964710  55.9636890  94.2341800   2.4369730
  55.9871910  92.9596030   1.6204070  67.5569600  91.9066020   5.4994060
  66.8521770  92.2947730   4.9809170  67.8227520  92.6016310   6.1014990
  53.7394770  88.3759390   6.0628130  53.7413210  88.8931780   5.2574030
  52.9099080  87.8989570   6.0398060  54.9897620  98.0154570   4.2401630
  54.6567000  98.6423490   4.8822700  55.1664300  98.5416450   3.4603300
  53.4210100  90.0869350   4.0698580  53.7626910  90.9311400   3.7752450
  52.4825910  90.2353090   4.1863920  54.2016720  99.9835370   6.0550810
  54.8190720 100.6586450   5.7735260  53.3409840 100.3923350   5.9638310
  65.1194310 101.4474780   3.9705450  64.4357830 102.1173890   3.9622120
  65.6588600 101.6455430   3.2050310  66.5718450  91.2754440   2.0987180
  65.6243360  91.3093420   2.2302610  66.8968440  92.0893390   2.4836540
  62.6553050 103.2918910   2.6850630  62.6680210 102.8881200   1.8172890
  62.1028270 104.0666200   2.5812060  62.0538490  98.1948750   4.0133240
  62.4707280  97.9808860   3.1786700  62.7778310  98.4521540   4.5841860
  66.0000590  96.5935970   4.1049480  65.1719220  96.6629060   3.6299610
  66.5951070  97.1790280   3.6365310  62.9642600  93.3805290   5.0504350
  62.5513780  94.2059000   5.3044340  62.2318550  92.7950330   4.8580710
  53.8104010  92.9408400   3.6922060  54.3618600  93.0503740   2.9175310
  54.3247520  93.3146000   4.4077290  63.6542700 103.4264620   5.7385330
  63.1773260 104.2336810   5.5457940  62.9704490 102.7742950   5.8911540
  54.6575520  99.5914440   8.7270030  53.7604050  99.8154410   8.9743430
  54.6828390  99.7149380   7.7781430  53.4846740  96.4627760   7.3027400
  53.3454510  97.3350560   7.6714800  52.6028100  96.1200570   7.1575340
  55.2827090 102.4049460   9.5112550  55.2542520 102.8092410   8.6440980
  55.1192060 101.4759820   9.3484150  67.2341910 103.1876560  10.8076720
  67.7101630 103.6659450  11.4865800  67.8549070 103.1194050  10.0822220
  49.4365390  98.2325310   3.2198310  49.5145810  98.3674080   2.2754030
  50.0507070  97.5241200   3.4126430  66.6375160 100.3789410   7.9676730
  66.7638220 100.1401290   7.0493910  66.6796540  99.5473950   8.4398810
  60.4991900 104.0817410   6.5371540  61.0136570 103.9925420   7.3393970
  59.6560980 104.4277110   6.8299450  66.4899170  92.4321870   8.9326470
  65.8743440  92.9401540   8.4041930  66.1695590  91.5320200   8.8752410
  49.4924910  99.2739480   5.7592770  49.6555950  98.8044840   4.9412140
  49.9577360  98.7663040   6.4241610  58.5513490  91.2713760   6.3988660
  58.0892860  91.4796780   7.2108600  58.1491600  90.4573110   6.0959330
  63.5518000  92.4922710   7.5285320  62.7011590  92.1928460   7.8494390
  63.3919790  92.7364720   6.6169140  60.6467710  93.9924460   9.6284110
  60.9721120  93.1588210   9.2886340  61.4348040  94.5152980   9.7762440
  56.3019580  88.9492570   2.6542940  56.5991910  89.8555400   2.5734960
  56.8505140  88.4611350   2.0402510  56.4957110  94.4264390   9.1894860
  56.4000710  93.4859120   9.0395260  57.3389090  94.6479460   8.7942930
  51.6267650  90.8378060   7.3428640  51.2331040  91.6853270   7.5501420
  50.9386050  90.2004430   7.5337280  58.2012700  90.9213030  10.4125380
  57.5111020  90.7285230  11.0471470  58.9445000  91.2047670  10.9449680
  60.4775670  94.7611470   3.2479300  59.7456790  95.2698280   3.5969400
  60.0800010  93.9441450   2.9468080  60.9401580  90.2145150   2.6602240
  60.9574320  90.6653800   3.5044090  60.6917160  89.3150790   2.8735680
  64.3672330  87.6277330   8.4988620  64.6918100  86.8966990   9.0246600
  64.4028840  87.3090970   7.5969610  51.0663890  98.6490910   7.9188580
  50.6818680  98.0084580   8.5171540  51.3776080  99.3527030   8.4883310
  57.2161030  95.4967450   3.3997200  57.5831160  95.0226020   4.1458540
  57.0266090  96.3709020   3.7405540  55.0060400  94.5376090   5.7181410
  54.7017470  95.4168070   5.9431770  55.9606860  94.5975880   5.7538850
  64.2930170  97.7402440   2.1074650  65.0129290  98.2357730   1.7170760
  64.0911990  97.0620330   1.4628520  59.6748970  97.8111500   7.9943650
  59.6086280  96.8907170   7.7401240  59.0454110  97.9086940   8.7088290
  51.0624130  95.3778830   6.8652770  50.7039070  96.0432680   7.4526110
  50.7678690  94.5462380   7.2365390  54.2637250  95.8363070   9.7492320
  53.9637390  95.9820250   8.8520140  55.0348490  95.2768360   9.6565710
  59.6065700 100.6332070   7.7447450  59.6210240  99.7013030   7.5266360
  58.8990800 100.7191830   8.3837220  65.8176910  97.2739410   7.0916030
  65.0925100  97.8668190   6.8945420  66.3452370  97.2662950   6.2929400
  59.0399600 102.2749640   4.8387950  59.6841820 102.4809020   5.5161370
  59.4029040 101.5138040   4.3858800  60.3131680 100.2781990   3.5565400
  60.9553910  99.5775150   3.6697570  60.8381030 101.0580430   3.3762290
  62.0869300 101.0776890   6.7601460  62.4225540 101.6643580   7.4379380
  61.1669640 100.9469600   6.9899250  49.6372700  88.8672070   7.5424870
  48.9231220  89.0668990   8.1477480  50.0567740  88.0911640   7.9139670
  49.9245290 102.8552330   8.5291400  50.0336410 101.9147070   8.3886790
  49.2725850 103.1207080   7.8805130  57.9157880 101.1268220   9.9289520
  57.5954750 100.4077460  10.4735210  57.2416240 101.8023290  10.0025580
  61.1311480  91.3594380   5.2926320  61.4992300  90.5389590   5.6205890
  60.2709680  91.4196270   5.7081970  58.0913470  94.0133970   5.5164290
  58.5898720  94.4879790   6.1816140  58.2336420  93.0897490   5.7234320
  65.2980330  90.2301930   6.3592680  64.7953930  90.9707330   6.6986490
  66.1136990  90.6185930   6.0429470  52.0703730 103.9221240  10.3411010
  52.8716460 104.2433290  10.7546410  51.5555550 103.5616820  11.0630920
  60.9068360 100.0301110  10.2886420  60.3006520 100.0532710   9.5482170
  60.6022470  99.2984150  10.8253670  62.3368730 103.7581400   8.8995830
  63.2890480 103.6739420   8.8496070  62.1896950 104.4223110   9.5729620
  49.7901540  96.4094700   9.2847060  50.2940560  95.8301980   9.8563290
  49.0508960  96.6934930   9.8223430  56.8439480  97.8165690   8.8182580
  56.0785150  98.3850690   8.7337250  57.0255440  97.5241900   7.9250810
  63.9862830  99.5471020   9.3757600  64.7272300  99.8846780   8.8725060
  63.2235510  99.7163080   8.8227370  51.8224620  94.5524290  10.1797130
  51.8629960  94.2538160  11.0882360  52.6770120  94.9531900  10.0204650
  53.7630430  93.1316390   8.1471620  53.2326890  92.6407340   7.5194960
  54.4318500  93.5600590   7.6129550  62.6608490  97.5985850   7.9112810
  63.0749510  97.7530930   8.7603230  61.7259490  97.7241070   8.0738590
  63.1330660  94.9382010   9.9151960  63.7151430  94.1834330   9.8272440
  63.3092430  95.4689450   9.1383440  54.2502730  90.0978760   8.2268910
  54.1559600  89.4799510   7.5019780  53.6700120  90.8245050   7.9998820
  57.0164170  88.6552000   5.2596300  56.5681470  88.6776260   4.4141850
  56.3829370  88.2571020   5.8566600  57.4223720  97.5506330   5.8808740
  57.8411830  98.3939060   5.7084980  56.5032350  97.6878370   5.6515520
  59.7587620  95.2822510   7.2646580  59.8783830  94.6863650   8.0041420
  60.6181620  95.3192200   6.8447880  62.0975520  95.8359700   5.8409090
  61.5710740  96.3602320   5.2374230  62.4406860  96.4687090   6.4718820
  55.2731140 103.8559340   6.9966470  54.7352230 104.5805400   6.6775170
  55.5265100 103.3789680   6.2063810  56.5256390  91.8243860   8.5222400
  57.1156080  91.5159710   9.2100220  55.7076630  91.3523610   8.6782300
  61.3449820  91.4409670   8.7555420  60.6565340  90.7791210   8.6905410
  62.0655840  90.9947940   9.2003880  58.1293350 105.0910550   7.2553120
  58.0552050 105.9945690   7.5625490  57.2272190 104.7722450   7.2275190
  50.0210850 103.2855730   3.2968370  49.5841840 103.4656530   4.1292520
  50.5888530 104.0430350   3.1550090  65.6573030 102.7872730   7.5845680
  65.0575020 102.8465290   6.8409600  65.7866930 101.8477710   7.7142530
  64.3424670  99.5124710   5.6821840  63.5284510  99.9421870   5.9447630
  64.7498870 100.1243120   5.0690890  50.8911210  96.1828530   4.1960590
  51.2584250  96.0955930   5.0756610  50.3222030  95.4195080   4.0967450
  65.6915070  94.6512910   7.2091060  65.4601160  94.4225660   6.3089010
  65.9519620  95.5712460   7.1635950  50.4427210  93.0937620   8.1019010
  49.5483260  93.0604380   8.4412720  50.9824760  93.2924410   8.8670260
  64.1303140  89.8769340   9.9870760  65.0073320  89.8852740  10.3704760
  64.1423980  89.1400180   9.3763110  65.7556130  93.8138750   4.3978330
  64.8058840  93.7802290   4.5123320  65.9369140  94.7238860   4.1628100
  50.9466920  87.3685950   2.4502230  51.5943110  86.8183330   2.0097390
  51.3668760  87.6229100   3.2718040  64.8419260  87.5627310   5.8071870
  65.4791480  88.1761450   6.1731060  64.9894150  87.5987970   4.8621100
  50.6998920  87.5241620   5.1927550  50.3513740  87.9805440   5.9585730
  50.3686620  86.6298750   5.2749980  52.3063290 100.6961220   9.3580740
  52.2632920 100.3254130  10.2395200  52.4374300 101.6338790   9.4982560
  56.0069320 102.2520810   4.9590460  55.7660680 102.5195370   4.0720980
  56.9471960 102.4226540   5.0141320  58.2123740  88.7153500   8.7146970
  58.1512630  89.3075330   9.4642380  59.1524120  88.6079460   8.5697230
  60.8498300  88.3723560   8.3539260  61.4638710  88.6902850   7.6920340
  61.3947860  87.8872150   8.9735120  67.2673480 104.2715190   5.7601100
  66.7731760 104.6684060   5.0428230  66.6586770 103.6464400   6.1538380
  51.3719560  87.0517820   8.4678320  51.9202550  86.8705870   7.7044430
  51.4374870  86.2611930   9.0034630  52.1451320 103.6423470   6.4778520
  51.5511640 103.5108170   7.2168560  52.1375160 102.8061610   6.0120620
  61.5906340  86.9355700   4.6808550  60.7166180  87.2690810   4.4781480
  61.4817090  86.4628880   5.5060420  62.4978320  89.1426570   6.0650270
  62.1691680  88.3278330   5.6852000  63.4460620  89.0996380   5.9415960
  64.9512930 104.9138610   3.0387840  64.4915900 105.6654420   2.6645860
  64.3225390 104.1945080   2.9802640  51.7763550 101.0081850   5.4286560
  51.0497610 100.3887140   5.3612510  51.8372700 101.4022460   4.5584640
  55.3808650 103.2226850   2.2135970  55.8973670 102.6114210   1.6884230
  56.0306030 103.7255630   2.7046980  58.1204150 104.1135340   3.0404950
  58.4081960 103.8589640   2.1637960  58.6327370 103.5612700   3.6310520
  59.3381160  87.8525540   3.6201460  58.5552950  88.3271040   3.8998220
  59.0444090  86.9480370   3.5114640  58.1876510 105.0351440  10.4073150
  59.1143820 104.7995710  10.4509110  58.1726940 105.8623440   9.9259180
  55.3740120  87.6996190  10.1715030  55.0924390  88.2029790   9.4075850
  55.7559820  86.9017940   9.8057160  61.9755580  87.1149770  10.7495500
  61.8621030  87.4344380  11.6447020  62.7925320  87.5162280  10.4532780
  64.7554070 104.2621300  10.2314190  65.5479390 103.7670530  10.0240150
  65.0487220 104.9411440  10.8389800  60.8813730  76.3598750 150.0821650
  60.8007780  75.4453360 149.8113360  60.4678150  76.8565820 149.3761360
  63.0339200  82.5437960 150.7430050  62.5720730  81.7725200 151.0717220
  63.8464750  82.5704030 151.2482500  51.4389550  73.4099470 146.6249070
  50.5506250  73.7515440 146.5228950  51.7230740  73.2099790 145.7329900
  59.2602510  84.8295970 150.3634040  58.6413950  85.2853470 149.7928480
  60.1154290  84.9847430 149.9623740  53.6150940  71.9930970 147.6587450
  53.7217690  72.8934700 147.9656210  52.7043300  71.9448940 147.3682100
  63.2670050  71.1155780 149.1298350  64.0879670  70.6252350 149.1723830
  63.3004130  71.7053440 149.8830190  60.1265860  79.7135210 147.7565950
  59.5083130  80.1784660 147.1928670  60.6389110  80.4062690 148.1735460
  49.4949060  80.3991740 145.1305580  49.1177040  80.8878840 144.3990480
  49.7522130  81.0717020 145.7612110  57.1037990  68.8008130 150.5891090
  57.4112970  68.2455020 149.8726590  56.1738690  68.9352590 150.4064080
  63.9498470  81.2391640 147.9688720  63.8394800  80.2965970 148.0938140
  63.9466720  81.6007280 148.8551480  59.4918750  76.8656960 147.3251210
  58.5648030  76.7994340 147.5539680  59.6443570  77.8037090 147.2106450
  59.4787830  73.1373960 144.3218370  58.5391500  73.2987920 144.4070830
  59.7971090  73.8559640 143.7754360  63.5216040  78.4277260 147.8286460
  62.9028460  78.0896810 147.1812760  63.5040490  77.7837020 148.5365650
  55.0975390  77.3921700 150.1070940  54.6932390  76.6798950 149.6116840
  55.1838510  77.0474940 150.9958980  61.6980740  77.6664070 144.8359210
  62.1374020  76.8286500 144.6897030  62.4109160  78.2993470 144.9223350
  59.8076120  82.6060140 148.8040450  60.2472030  83.3484470 148.3895840
  59.7463010  82.8486710 149.7279410  65.2797880  68.9206880 143.1500250
  64.9670540  69.0133710 144.0499320  66.0410350  69.4987910 143.0997680
  51.7980020  76.2866680 147.6077590  51.6777620  77.0128770 146.9958860
  51.4880910  75.5169590 147.1305500  50.6813020  81.1582010 149.8252410
  50.2741100  81.2996600 148.9706010  51.5726030  80.8742170 149.6223620
  62.4746300  85.5929260 146.1603460  62.3147440  85.3032200 147.0585290
  62.3093010  84.8169390 145.6248690  54.9534680  85.3727790 147.9375080
  54.7777160  84.4563330 147.7242880  54.0990420  85.7315080 148.1772880
  62.1772430  83.1016820 144.7201460  61.4837590  83.0994110 144.0603740
  62.9195290  82.6776140 144.2895630  61.7422360  84.7279530 148.7949950
  62.1979310  83.9468910 149.1088570  62.0814880  85.4386350 149.3391130
  54.2643680  69.6301750 150.9901260  53.8211830  70.4111290 150.6585780
  54.8228670  69.9531640 151.6972200  57.3802500  69.2512450 145.8707090
  56.7556680  69.2472320 146.5960400  57.2932620  68.3843410 145.4743060
  54.0557900  74.7535320 148.7182510  53.8298820  74.5372490 149.6229130
  53.2750430  75.1863780 148.3728480  61.2855660  74.7598690 147.3173160
  60.6864550  75.4834490 147.1336780  61.8335270  74.6975470 146.5349610
  59.8920530  73.3962230 149.3476440  60.2850100  73.7134430 148.5345130
  60.2537380  72.5174110 149.4620960  49.1154930  73.9283150 142.7809360
  49.0329600  74.8713910 142.9224350  48.7637990  73.7858060 141.9021710
  52.7655440  72.5448670 150.8073920  52.4255490  73.0223900 151.5640970
  52.0032760  72.0913790 150.4475020  56.9773210  73.6634260 144.8386470
  57.0986030  73.6220740 145.7872290  56.5921720  74.5258410 144.6833200
  55.9894710  75.9735400 144.2369770  55.4211610  75.5253650 143.6105680
  56.6983710  76.3328180 143.7034920  50.0801520  71.4667650 149.7238590
  49.7948440  71.1023320 150.5617210  50.0180380  70.7348110 149.1101730
  53.5342190  79.9693590 146.5096180  52.7604450  79.4291210 146.3494900
  54.2636820  79.4500200 146.1713940  59.7540110  70.3596910 146.4451960
  58.9404720  69.8610080 146.3697270  59.5602060  71.1995160 146.0288310
  62.4688500  74.7316560 144.7414120  63.3568120  75.0433790 144.5665460
  62.4393590  73.8588810 144.3494700  53.5779590  79.6373970 150.1474990
  54.0958260  78.8342230 150.0931880  53.1263610  79.5753110 150.9891820
  58.4649090  80.9040250 145.4202290  58.8064790  81.6482480 144.9245610
  57.6361800  81.2171370 145.7827120  64.7402770  76.0428400 144.2093980
  64.6566490  76.4742620 143.3590420  65.4596960  76.5026750 144.6420800
  65.7690020  82.8970660 146.9376110  65.1266180  82.2426280 147.2119830
  65.3820680  83.3025750 146.1616780  61.3476500  80.2256090 150.7847800
  61.7000320  79.6284220 150.1249170  60.4638830  79.9000320 150.9556050
  57.4339780  80.9853780 148.1918210  58.1210910  81.5322990 148.5725800
  56.6472200  81.5294510 148.2267820  49.5732180  76.6026600 143.6835290
  50.4427030  76.8851400 143.9671210  49.0822500  77.4162470 143.5684100
  56.7366990  77.9899810 147.8043570  57.1929770  78.8005060 148.0303760
  56.3855200  77.6722950 148.6362060  52.6378770  68.3337460 148.2766090
  52.5093400  68.3255360 149.2251010  51.8140790  68.6720550 147.9257100
  64.1587400  81.7887120 143.4752460  63.9324980  81.0717560 144.0677100
  63.7683600  81.5399560 142.6374210  49.9403430  85.8153980 144.2496920
  50.3001070  86.4143320 143.5954190  49.7995770  86.3613870 145.0231950
  63.7403650  79.7059060 145.1366620  63.4525350  80.1671750 145.9244500
  64.5355820  79.2456830 145.4050840  55.9572050  83.1985180 145.0670590
  55.9482150  83.9314870 144.4515100  55.0370410  82.9516760 145.1597550
  51.5578690  78.4200070 145.8117350  50.9506640  79.1598970 145.8212650
  52.0328040  78.5099430 144.9855550  64.4973510  71.5407830 146.2961800
  63.8686670  71.6453500 145.5820030  64.0025430  71.7604610 147.0855680
  58.9431650  83.2613420 143.7295780  59.0443630  83.0577410 142.7997760
  58.0433390  83.0071700 143.9343560  56.4657540  73.8193780 147.7119680
  55.7573690  74.2880120 148.1533290  56.7502020  73.1615790 148.3464870
  60.4972970  70.5444440 149.1515470  60.3740750  70.5630570 148.2024980
  61.4457530  70.5923380 149.2713870  57.5849760  85.7799740 148.4243450
  57.8391260  85.7421130 147.5022820  56.6362240  85.6533070 148.4171700
  54.6692560  72.1278860 145.0870390  55.5183090  72.5649010 145.0210580
  54.3023830  72.4399120 145.9142450  63.5902340  76.6991620 150.0001960
  62.6492480  76.7141850 150.1749650  63.9046410  75.9127580 150.4462260
  53.5683980  78.3811220 143.5605920  54.3347250  78.2692580 144.1231350
  53.6458670  77.6849190 142.9082690  52.2630740  75.8136290 144.2438810
  52.3434330  74.8663800 144.3556210  53.1550490  76.1443170 144.3499470
  53.0645450  85.9631680 151.3473350  53.8007930  85.4147140 151.6181920
  53.4486370  86.8287690 151.2079340  49.9490930  82.0305250 147.2214860
  49.0230710  82.2726390 147.2120270  50.4147360  82.8579510 147.0999610
  56.1747760  85.1361990 143.1698920  56.9676370  85.4250820 142.7180710
  55.6552110  84.7054160 142.4911400  65.2277930  84.3632120 144.5935660
  64.9419440  83.9497260 143.7789840  65.0297480  85.2919830 144.4736180
  56.6925160  80.3565400 143.0341270  56.5875800  79.7417750 143.7602650
  56.5249380  79.8331290 142.2504280  59.9327890  79.4185430 143.6383260
  59.3837990  79.8654730 144.2826000  60.5547150  78.9134680 144.1620930
  55.6003010  78.3776350 145.5348560  56.0219430  78.2116220 146.3779950
  55.7253850  77.5676580 145.0403700  58.1130650  77.4013960 142.7825660
  58.6336310  76.6862980 142.4166810  58.7599050  78.0399830 143.0826170
  54.4961910  74.4509580 142.4806720  54.2950970  73.5876940 142.8420060
  54.3253960  74.3642940 141.5428320  61.9750220  69.2617810 145.0093600
  62.2552510  68.4185710 145.3653020  61.2015950  69.4940920 145.5232350
  53.2944710  71.5510200 142.4684600  53.5970610  71.5577630 141.5603750
  54.0339300  71.2008060 142.9652260  56.5129640  70.4944820 143.4540800
  56.1651640  69.8168810 142.8743250  56.7142410  70.0334330 144.2684190
  58.6778680  85.4825570 145.0727400  59.5729470  85.8210540 145.0946160
  58.7096310  84.7604980 144.4451680  52.3174840  80.8552620 143.3014400
  52.7549710  81.3982290 143.9571980  52.8022570  80.0299570 143.3110740
  49.5320640  83.6441650 150.7534660  49.8623650  82.7762710 150.5213300
  49.9611640  83.8500170 151.5839620  54.1282560  81.9750660 148.4136630
  53.8278100  81.8515630 149.3140540  54.0220050  81.1159250 148.0052360
  66.8974480  81.7547060 143.1163310  66.0667440  81.8223710 143.5870540
  67.0746310  82.6451180 142.8130170  66.3530940  78.4994540 145.6197510
  67.1149850  79.0691190 145.7257200  66.3685310  77.9321740 146.3905820
  49.8535280  77.0232470 149.8505170  49.1984120  76.7544110 149.2064870
  50.6913230  76.9136950 149.4007150  67.3590910  79.3544640 150.4639440
  67.7299740  78.5711960 150.0575410  67.9992840  80.0433740 150.2856740
  66.4050110  78.7928910 142.7770030  66.6798950  79.7007790 142.6489250
  66.2160850  78.7291440 143.7132020  62.8025720  71.8173760 144.0723660
  63.2210600  71.6304740 143.2320320  62.4961780  70.9652810 144.3826590
  66.3015450  76.7297900 147.7699460  65.9259050  75.9625830 147.3380750
  65.5718570  77.1120600 148.2574390  49.0673360  74.2331400 145.7930500
  48.1637440  74.4961600 145.6182160  49.5513980  74.5042570 145.0130460
  51.6100570  73.2896940 143.7024880  52.3192270  72.8680160 143.2172160
  50.8940510  73.3572170 143.0708230  51.2574730  69.3436270 142.7427530
  51.9802860  69.8845210 143.0608750  51.5299250  69.0699690 141.8669070
  65.0666380  74.2128740 147.0099110  65.5625500  73.9799610 147.7947990
  64.8682450  73.3740580 146.5936750  66.4953540  72.8489690 149.5436790
  66.3852820  72.6945730 150.4819060  67.2561130  72.3210630 149.3012200
  67.3843810  70.6797610 142.7842930  68.3093120  70.5478790 142.5761220
  67.3619600  70.7590430 143.7379380  67.4582300  71.4508270 145.4099640
  66.6633800  71.3853390 145.9392550  67.6625580  72.3858910 145.3984990
  64.4000720  85.4899820 149.4038030  64.9959790  85.1684390 148.7272450
  64.6578870  85.0171640 150.1951300  65.7540800  69.4120390 149.8707290
  65.6929200  68.4681610 149.7238310  66.5332830  69.5200480 150.4160750
  50.0593550  85.5512750 148.8331240  49.8915590  84.9183430 149.5313130
  49.1928060  85.7572150 148.4825430  50.6821570  69.3829530 146.3363100
  51.4400930  69.4958410 145.7627130  50.2198740  70.2198730 146.2906530
  57.2235380  71.4968800 149.3265410  56.4109890  71.1225690 148.9861290
  57.7277020  70.7413880 149.6286600  61.7260360  68.1611250 150.5648480
  62.3289730  68.7331460 151.0397000  60.9853350  68.7250690 150.3422380
  64.8694960  68.5632810 145.8388760  65.0645590  69.4616260 146.1056190
  64.0824830  68.3319890 146.3321710  51.6656250  84.2445980 146.2781380
  51.1403870  84.6254010 145.5743340  51.5900830  84.8696750 146.9991090
  53.0546720  69.9093580 144.8765070  53.5839480  69.1223380 144.7473020
  53.6875040  70.5884770 145.1100600  55.2484560  69.6468720 147.9310460
  54.6187300  68.9456030 148.0980590  54.7089700  70.4072850 147.7143620
  66.4221570  85.8033520 147.5995320  66.5973760  85.1171260 146.9556240
  65.7243140  86.3280570 147.2071990  54.2649220  86.1928360 145.1530630
  54.9968040  85.9087640 144.6054520  54.5242890  85.9541640 146.0430010
  53.4264010  82.3093090 145.1576960  52.7972890  82.7778190 145.7062790
  53.5411840  81.4642310 145.5923150  51.4389550  73.4099470 127.8505580
  50.5506250  73.7515440 127.7485460  51.7230740  73.2099790 126.9586410
  49.4022560  76.0105120 133.7345280  49.9738670  75.2427320 133.7348920
  49.4024100  76.3093880 132.8251890  50.6447430  71.4189480 135.5214210
  50.4650270  70.5215230 135.8016970  50.2427510  71.9661350 136.1961160
  59.4845930  73.6205340 133.4226520  59.8610750  72.7477220 133.3100190
  59.3865440  73.9564040 132.5316960  53.6150940  71.9930970 128.8843960
  53.7217690  72.8934700 129.1912720  52.7043300  71.9448940 128.5938610
  51.2634100  73.9149980 134.1296550  51.9444210  74.1788350 134.7483950
  50.9482150  73.0750850 134.4634560  67.5569600  73.1322530 136.9198490
  66.8521770  73.5204240 136.4013600  67.8227520  73.8272820 137.5219420
  53.7394770  69.6015900 137.4832560  53.7413210  70.1188290 136.6778460
  52.9099080  69.1246080 137.4602490  63.5031530  73.0556160 133.1282400
  62.7987100  73.3441050 133.7085510  63.8643690  73.8656270 132.7681960
  53.4210100  71.3125860 135.4903010  53.7626910  72.1567910 135.1956880
  52.4825910  71.4609600 135.6068350  49.4949060  80.3991740 126.3562090
  49.1177040  80.8878840 125.6246990  49.7522130  81.0717020 126.9868620
  65.1194310  82.6731290 135.3909880  64.4357830  83.3430400 135.3826550
  65.6588600  82.8711940 134.6254740  66.5718450  72.5010950 133.5191610
  65.6243360  72.5349930 133.6507040  66.8968440  73.3149900 133.9040970
  57.1037990  68.8008130 131.8147600  57.4112970  68.2455020 131.0983100
  56.1738690  68.9352590 131.6320590  62.0538490  79.4205260 135.4337670
  62.4707280  79.2065370 134.5991130  62.7778310  79.6778050 136.0046290
  59.4787830  73.1373960 125.5474880  58.5391500  73.2987920 125.6327340
  59.7971090  73.8559640 125.0010870  66.0000590  77.8192480 135.5253910
  65.1719220  77.8885570 135.0504040  66.5951070  78.4046790 135.0569740
  62.9642600  74.6061800 136.4708780  62.5513780  75.4315510 136.7248770
  62.2318550  74.0206840 136.2785140  53.8104010  74.1664910 135.1126490
  54.3618600  74.2760250 134.3379740  54.3247520  74.5402510 135.8281720
  63.6542700  84.6521130 137.1589760  63.1773260  85.4593320 136.9662370
  62.9704490  83.9999460 137.3115970  54.6575520  80.8170950 140.1474460
  53.7604050  81.0410920 140.3947860  54.6828390  80.9405890 139.1985860
  55.2827090  83.6305970 140.9316980  55.2542520  84.0348920 140.0645410
  55.1192060  82.7016330 140.7688580  51.7980020  76.2866680 128.8334100
  51.6777620  77.0128770 128.2215370  51.4880910  75.5169590 128.3562010
  67.2341910  84.4133070 142.2281150  67.7101630  84.8915960 142.9070230
  67.8549070  84.3450560 141.5026650  49.4365390  79.4581820 134.6402740
  49.5145810  79.5930590 133.6958460  50.0507070  78.7497710 134.8330860
  66.6375160  81.6045920 139.3881160  66.7638220  81.3657800 138.4698340
  66.6796540  80.7730460 139.8603240  60.4991900  85.3073920 137.9575970
  61.0136570  85.2181930 138.7598400  59.6560980  85.6533620 138.2503880
  66.4899170  73.6578380 140.3530900  65.8743440  74.1658050 139.8246360
  66.1695590  72.7576710 140.2956840  49.4924910  80.4995990 137.1797200
  49.6555950  80.0301350 136.3616570  49.9577360  79.9919550 137.8446040
  54.2643680  69.6301750 132.2157770  53.8211830  70.4111290 131.8842290
  54.8228670  69.9531640 132.9228710  58.5513490  72.4970270 137.8193090
  58.0892860  72.7053290 138.6313030  58.1491600  71.6829620 137.5163760
  63.5518000  73.7179220 138.9489750  62.7011590  73.4184970 139.2698820
  63.3919790  73.9621230 138.0373570  60.6467710  75.2180970 141.0488540
  60.9721120  74.3844720 140.7090770  61.4348040  75.7409490 141.1966870
  57.3802500  69.2512450 127.0963600  56.7556680  69.2472320 127.8216910
  57.2932620  68.3843410 126.6999570  56.3019580  70.1749080 134.0747370
  56.5991910  71.0811910 133.9939390  56.8505140  69.6867860 133.4606940
  54.0557900  74.7535320 129.9439020  53.8298820  74.5372490 130.8485640
  53.2750430  75.1863780 129.5984990  56.4957110  75.6520900 140.6099290
  56.4000710  74.7115630 140.4599690  57.3389090  75.8735970 140.2147360
  51.6267650  72.0634570 138.7633070  51.2331040  72.9109780 138.9705850
  50.9386050  71.4260940 138.9541710  58.2012700  72.1469540 141.8329810
  57.5111020  71.9541740 142.4675900  58.9445000  72.4304180 142.3654110
  49.1154930  73.9283150 124.0065870  49.0329600  74.8713910 124.1480860
  48.7637990  73.7858060 123.1278220  56.9153060  72.6622180 133.0736220
  56.9189120  72.2212130 132.2240760  57.8104180  72.9839510 133.1808040
  52.7655440  72.5448670 132.0330430  52.4255490  73.0223900 132.7897480
  52.0032760  72.0913790 131.6731530  56.9773210  73.6634260 126.0642980
  57.0986030  73.6220740 127.0128800  56.5921720  74.5258410 125.9089710
  60.9401580  71.4401660 134.0806670  60.9574320  71.8910310 134.9248520
  60.6917160  70.5407300 134.2940110  55.9894710  75.9735400 125.4626280
  55.4211610  75.5253650 124.8362190  56.6983710  76.3328180 124.9291430
  64.3672330  68.8533840 139.9193050  64.6918100  68.1223500 140.4451030
  64.4028840  68.5347480 139.0174040  51.0663890  79.8747420 139.3393010
  50.6818680  79.2341090 139.9375970  51.3776080  80.5783540 139.9087740
  50.0801520  71.4667650 130.9495100  49.7948440  71.1023320 131.7873720
  50.0180380  70.7348110 130.3358240  53.5342190  79.9693590 127.7352690
  52.7604450  79.4291210 127.5751410  54.2636820  79.4500200 127.3970450
  59.7540110  70.3596910 127.6708470  58.9404720  69.8610080 127.5953780
  59.5602060  71.1995160 127.2544820  59.6748970  79.0368010 139.4148080
  59.6086280  78.1163680 139.1605670  59.0454110  79.1343450 140.1292720
  51.0624130  76.6035340 138.2857200  50.7039070  77.2689190 138.8730540
  50.7678690  75.7718890 138.6569820  54.2637250  77.0619580 141.1696750
  53.9637390  77.2076760 140.2724570  55.0348490  76.5024870 141.0770140
  59.6065700  81.8588580 139.1651880  59.6210240  80.9269540 138.9470790
  58.8990800  81.9448340 139.8041650  65.8176910  78.4995920 138.5120460
  65.0925100  79.0924700 138.3149850  66.3452370  78.4919460 137.7133830
  65.7690020  82.8970660 128.1632620  65.1266180  82.2426280 128.4376340
  65.3820680  83.3025750 127.3873290  57.4339780  80.9853780 129.4174720
  58.1210910  81.5322990 129.7982310  56.6472200  81.5294510 129.4524330
  49.5732180  76.6026600 124.9091800  50.4427030  76.8851400 125.1927720
  49.0822500  77.4162470 124.7940610  59.0399600  83.5006150 136.2592380
  59.6841820  83.7065530 136.9365800  59.4029040  82.7394550 135.8063230
  52.6378770  68.3337460 129.5022600  52.5093400  68.3255360 130.4507520
  51.8140790  68.6720550 129.1513610  60.3131680  81.5038500 134.9769830
  60.9553910  80.8031660 135.0902000  60.8381030  82.2836940 134.7966720
  62.0869300  82.3033400 138.1805890  62.4225540  82.8900090 138.8583810
  61.1669640  82.1726110 138.4103680  49.6372700  70.0928580 138.9629300
  48.9231220  70.2925500 139.5681910  50.0567740  69.3168150 139.3344100
  49.9245290  84.0808840 139.9495830  50.0336410  83.1403580 139.8091220
  49.2725850  84.3463590 139.3009560  57.9157880  82.3524730 141.3493950
  57.5954750  81.6333970 141.8939640  57.2416240  83.0279800 141.4230010
  55.9572050  83.1985180 126.2927100  55.9482150  83.9314870 125.6771610
  55.0370410  82.9516760 126.3854060  51.5578690  78.4200070 127.0373860
  50.9506640  79.1598970 127.0469160  52.0328040  78.5099430 126.2112060
  61.1311480  72.5850890 136.7130750  61.4992300  71.7646100 137.0410320
  60.2709680  72.6452780 137.1286400  58.0913470  75.2390480 136.9368720
  58.5898720  75.7136300 137.6020570  58.2336420  74.3154000 137.1438750
  60.4972970  70.5444440 130.3771980  60.3740750  70.5630570 129.4281490
  61.4457530  70.5923380 130.4970380  54.6692560  72.1278860 126.3126900
  55.5183090  72.5649010 126.2467090  54.3023830  72.4399120 127.1398960
  65.2980330  71.4558440 137.7797110  64.7953930  72.1963840 138.1190920
  66.1136990  71.8442440 137.4633900  53.5683980  78.3811220 124.7862430
  54.3347250  78.2692580 125.3487860  53.6458670  77.6849190 124.1339200
  52.2630740  75.8136290 125.4695320  52.3434330  74.8663800 125.5812720
  53.1550490  76.1443170 125.5755980  65.5927920  83.8700470 132.9012730
  65.7175340  84.6931640 133.3736540  66.4593480  83.6591200 132.5536880
  49.9490930  82.0305250 128.4471370  49.0230710  82.2726390 128.4376780
  50.4147360  82.8579510 128.3256120  52.0703730  85.1477750 141.7615440
  52.8716460  85.4689800 142.1750840  51.5555550  84.7873330 142.4835350
  56.1747760  85.1361990 124.3955430  56.9676370  85.4250820 123.9437220
  55.6552110  84.7054160 123.7167910  60.9068360  81.2557620 141.7090850
  60.3006520  81.2789220 140.9686600  60.6022470  80.5240660 142.2458100
  62.3368730  84.9837910 140.3200260  63.2890480  84.8995930 140.2700500
  62.1896950  85.6479620 140.9934050  49.7901540  77.6351210 140.7051490
  50.2940560  77.0558490 141.2767720  49.0508960  77.9191440 141.2427860
  56.8439480  79.0422200 140.2387010  56.0785150  79.6107200 140.1541680
  57.0255440  78.7498410 139.3455240  63.9862830  80.7727530 140.7962030
  64.7272300  81.1103290 140.2929490  63.2235510  80.9419590 140.2431800
  51.8224620  75.7780800 141.6001560  51.8629960  75.4794670 142.5086790
  52.6770120  76.1788410 141.4409080  55.6003010  78.3776350 126.7605070
  56.0219430  78.2116220 127.6036460  55.7253850  77.5676580 126.2660210
  53.7630430  74.3572900 139.5676050  53.2326890  73.8663850 138.9399390
  54.4318500  74.7857100 139.0333980  58.1130650  77.4013960 124.0082170
  58.6336310  76.6862980 123.6423320  58.7599050  78.0399830 124.3082680
  62.6608490  78.8242360 139.3317240  63.0749510  78.9787440 140.1807660
  61.7259490  78.9497580 139.4943020  63.1330660  76.1638520 141.3356390
  63.7151430  75.4090840 141.2476870  63.3092430  76.6945960 140.5587870
  54.2502730  71.3235270 139.6473340  54.1559600  70.7056020 138.9224210
  53.6700120  72.0501560 139.4203250  57.0164170  69.8808510 136.6800730
  56.5681470  69.9032770 135.8346280  56.3829370  69.4827530 137.2771030
  59.7587620  76.5079020 138.6851010  59.8783830  75.9120160 139.4245850
  60.6181620  76.5448710 138.2652310  62.0975520  77.0616210 137.2613520
  61.5710740  77.5858830 136.6578660  62.4406860  77.6943600 137.8923250
  54.4961910  74.4509580 123.7063230  54.2950970  73.5876940 124.0676570
  54.3253960  74.3642940 122.7684830  55.2731140  85.0815850 138.4170900
  54.7352230  85.8061910 138.0979600  55.5265100  84.6046190 137.6268240
  56.5256390  73.0500370 139.9426830  57.1156080  72.7416220 140.6304650
  55.7076630  72.5780120 140.0986730  61.3449820  72.6666180 140.1759850
  60.6565340  72.0047720 140.1109840  62.0655840  72.2204450 140.6208310
  53.2944710  71.5510200 123.6941110  53.5970610  71.5577630 122.7860260
  54.0339300  71.2008060 124.1908770  58.1293350  86.3167060 138.6757550
  58.0552050  87.2202200 138.9829920  57.2272190  85.9978960 138.6479620
  56.5129640  70.4944820 124.6797310  56.1651640  69.8168810 124.0999760
  56.7142410  70.0334330 125.4940700  52.3174840  80.8552620 124.5270910
  52.7549710  81.3982290 125.1828490  52.8022570  80.0299570 124.5367250
  65.6573030  84.0129240 139.0050110  65.0575020  84.0721800 138.2614030
  65.7866930  83.0734220 139.1346960  49.8535280  77.0232470 131.0761680
  49.1984120  76.7544110 130.4321380  50.6913230  76.9136950 130.6263660
  67.3590910  79.3544640 131.6895950  67.7299740  78.5711960 131.2831920
  67.9992840  80.0433740 131.5113250  64.3424670  80.7381220 137.1026270
  63.5284510  81.1678380 137.3652060  64.7498870  81.3499630 136.4895320
  66.3015450  76.7297900 128.9955970  65.9259050  75.9625830 128.5637260
  65.5718570  77.1120600 129.4830900  65.6915070  75.8769420 138.6295490
  65.4601160  75.6482170 137.7293440  65.9519620  76.7968970 138.5840380
  50.4427210  74.3194130 139.5223440  49.5483260  74.2860890 139.8617150
  50.9824760  74.5180920 140.2874690  64.1303140  71.1025850 141.4075190
  65.0073320  71.1109250 141.7909190  64.1423980  70.3656690 140.7967540
  49.0673360  74.2331400 127.0187010  48.1637440  74.4961600 126.8438670
  49.5513980  74.5042570 126.2386970  65.5766410  74.9555390 132.2963210
  66.1003890  74.4618040 131.6653380  66.1625830  75.0905750 133.0410780
  65.7556130  75.0395260 135.8182760  64.8058840  75.0058800 135.9327750
  65.9369140  75.9495370 135.5832530  51.6100570  73.2896940 124.9281390
  52.3192270  72.8680160 124.4428670  50.8940510  73.3572170 124.2964740
  51.2574730  69.3436270 123.9684040  51.9802860  69.8845210 124.2865260
  51.5299250  69.0699690 123.0925580  50.9466920  68.5942460 133.8706660
  51.5943110  68.0439840 133.4301820  51.3668760  68.8485610 134.6922470
  64.8419260  68.7883820 137.2276300  65.4791480  69.4017960 137.5935490
  64.9894150  68.8244480 136.2825530  50.6998920  68.7498130 136.6131980
  50.3513740  69.2061950 137.3790160  50.3686620  67.8555260 136.6954410
  52.3063290  81.9217730 140.7785170  52.2632920  81.5510640 141.6599630
  52.4374300  82.8595300 140.9186990  58.2123740  69.9410010 140.1351400
  58.1512630  70.5331840 140.8846810  59.1524120  69.8335970 139.9901660
  60.8498300  69.5980070 139.7743690  61.4638710  69.9159360 139.1124770
  61.3947860  69.1128660 140.3939550  67.2673480  85.4971700 137.1805530
  66.7731760  85.8940570 136.4632660  66.6586770  84.8720910 137.5742810
  51.3719560  68.2774330 139.8882750  51.9202550  68.0962380 139.1248860
  51.4374870  67.4868440 140.4239060  52.1451320  84.8679980 137.8982950
  51.5511640  84.7364680 138.6372990  52.1375160  84.0318120 137.4325050
  61.5906340  68.1612210 136.1012980  60.7166180  68.4947320 135.8985910
  61.4817090  67.6885390 136.9264850  62.4978320  70.3683080 137.4854700
  62.1691680  69.5534840 137.1056430  63.4460620  70.3252890 137.3620390
  64.9512930  86.1395120 134.4592270  64.4915900  86.8910930 134.0850290
  64.3225390  85.4201590 134.4007070  58.1204150  85.3391850 134.4609380
  58.4081960  85.0846150 133.5842390  58.6327370  84.7869210 135.0514950
  59.3381160  69.0782050 135.0405890  58.5552950  69.5527550 135.3202650
  59.0444090  68.1736880 134.9319070  50.6821570  69.3829530 127.5619610
  51.4400930  69.4958410 126.9883640  50.2198740  70.2198730 127.5163040
  57.2235380  71.4968800 130.5521920  56.4109890  71.1225690 130.2117800
  57.7277020  70.7413880 130.8543110  61.7260360  68.1611250 131.7904990
  62.3289730  68.7331460 132.2653510  60.9853350  68.7250690 131.5678890
  51.6656250  84.2445980 127.5037890  51.1403870  84.6254010 126.7999850
  51.5900830  84.8696750 128.2247600  53.0546720  69.9093580 126.1021580
  53.5839480  69.1223380 125.9729530  53.6875040  70.5884770 126.3357110
  55.2484560  69.6468720 129.1566970  54.6187300  68.9456030 129.3237100
  54.7089700  70.4072850 128.9400130  58.1876510  86.2607950 141.8277580
  59.1143820  86.0252220 141.8713540  58.1726940  87.0879950 141.3463610
  66.4221570  85.8033520 128.8251830  66.5973760  85.1171260 128.1812750
  65.7243140  86.3280570 128.4328500  55.3740120  68.9252700 141.5919460
  55.0924390  69.4286300 140.8280280  55.7559820  68.1274450 141.2261590
  54.2649220  86.1928360 126.3787140  54.9968040  85.9087640 125.8311030
  54.5242890  85.9541640 127.2686520  53.4264010  82.3093090 126.3833470
  52.7972890  82.7778190 126.9319300  53.5411840  81.4642310 126.8179660
  61.9755580  68.3406280 142.1699930  61.8621030  68.6600890 143.0651450
  62.7925320  68.7418790 141.8737210  64.7554070  85.4877810 141.6518620
  65.5479390  84.9927040 141.4444580  65.0487220  86.1667950 142.2594230
  59.0131770  78.1377770 114.4143940  58.2373870  77.6578210 114.7042510
  59.6644700  77.4583420 114.2400100  53.0297600  78.4497580 115.2919700
  52.1982480  78.1946290 115.6916210  53.6378580  78.5208350 116.0277620
  63.0339200  82.5437960 113.1943070  62.5720730  81.7725200 113.5230240
  63.8464750  82.5704030 113.6995520  53.0098860  82.4837670 115.4877720
  53.3126900  81.5935410 115.3087940  53.7542450  83.0407890 115.2599970
  51.4389550  73.4099470 109.0762090  50.5506250  73.7515440 108.9741970
  51.7230740  73.2099790 108.1842920  49.4022560  76.0105120 114.9601790
  49.9738670  75.2427320 114.9605430  49.4024100  76.3093880 114.0508400
  59.2602510  84.8295970 112.8147060  58.6413950  85.2853470 112.2441500
  60.1154290  84.9847430 112.4136760  58.4540760  80.8134960 114.4214100
  58.3849040  79.8724900 114.2603230  59.2160620  80.9036370 114.9936670
  50.6447430  71.4189480 116.7470720  50.4650270  70.5215230 117.0273480
  50.2427510  71.9661350 117.4217670  51.2634100  73.9149980 115.3553060
  51.9444210  74.1788350 115.9740460  50.9482150  73.0750850 115.6891070
  55.4558670  74.9617340 114.4425650  55.9636890  75.4598310 115.0830670
  55.9871910  74.1852540 114.2665010  67.5569600  73.1322530 118.1455000
  66.8521770  73.5204240 117.6270110  67.8227520  73.8272820 118.7475930
  53.7394770  69.6015900 118.7089070  53.7413210  70.1188290 117.9034970
  52.9099080  69.1246080 118.6859000  60.1265860  79.7135210 110.2078970
  59.5083130  80.1784660 109.6441690  60.6389110  80.4062690 110.6248480
  54.9897620  79.2411080 116.8862570  54.6567000  79.8680000 117.5283640
  55.1664300  79.7672960 116.1064240  53.4210100  71.3125860 116.7159520
  53.7626910  72.1567910 116.4213390  52.4825910  71.4609600 116.8324860
  54.2016720  81.2091880 118.7011750  54.8190720  81.8842960 118.4196200
  53.3409840  81.6179860 118.6099250  63.9498470  81.2391640 110.4201740
  63.8394800  80.2965970 110.5451160  63.9466720  81.6007280 111.3064500
  62.0538490  79.4205260 116.6594180  62.4707280  79.2065370 115.8247640
  62.7778310  79.6778050 117.2302800  66.0000590  77.8192480 116.7510420
  65.1719220  77.8885570 116.2760550  66.5951070  78.4046790 116.2826250
  62.9642600  74.6061800 117.6965290  62.5513780  75.4315510 117.9505280
  62.2318550  74.0206840 117.5041650  55.0975390  77.3921700 112.5583960
  54.6932390  76.6798950 112.0629860  55.1838510  77.0474940 113.4472000
  55.5657090  81.0789260 114.7223170  55.2685380  80.4734730 114.0430950
  56.5156910  81.1166570 114.6112530  53.8104010  74.1664910 116.3383000
  54.3618600  74.2760250 115.5636250  54.3247520  74.5402510 117.0538230
  54.6575520  80.8170950 121.3730970  53.7604050  81.0410920 121.6204370
  54.6828390  80.9405890 120.4242370  53.4846740  77.6884270 119.9488340
  53.3454510  78.5607070 120.3175740  52.6028100  77.3457080 119.8036280
  59.8076120  82.6060140 111.2553470  60.2472030  83.3484470 110.8408860
  59.7463010  82.8486710 112.1792430  55.2827090  83.6305970 122.1573490
  55.2542520  84.0348920 121.2901920  55.1192060  82.7016330 121.9945090
  51.7980020  76.2866680 110.0590610  51.6777620  77.0128770 109.4471880
  51.4880910  75.5169590 109.5818520  49.4365390  79.4581820 115.8659250
  49.5145810  79.5930590 114.9214970  50.0507070  78.7497710 116.0587370
  62.4746300  85.5929260 108.6116480  62.3147440  85.3032200 109.5098310
  62.3093010  84.8169390 108.0761710  54.9534680  85.3727790 110.3888100
  54.7777160  84.4563330 110.1755900  54.0990420  85.7315080 110.6285900
  62.1772430  83.1016820 107.1714480  61.4837590  83.0994110 106.5116760
  62.9195290  82.6776140 106.7408650  61.7422360  84.7279530 111.2462970
  62.1979310  83.9468910 111.5601590  62.0814880  85.4386350 111.7904150
  49.4924910  80.4995990 118.4053710  49.6555950  80.0301350 117.5873080
  49.9577360  79.9919550 119.0702550  58.5513490  72.4970270 119.0449600
  58.0892860  72.7053290 119.8569540  58.1491600  71.6829620 118.7420270
  54.0557900  74.7535320 111.1695530  53.8298820  74.5372490 112.0742150
  53.2750430  75.1863780 110.8241500  56.4957110  75.6520900 121.8355800
  56.4000710  74.7115630 121.6856200  57.3389090  75.8735970 121.4403870
  51.6267650  72.0634570 119.9889580  51.2331040  72.9109780 120.1962360
  50.9386050  71.4260940 120.1798220  58.2012700  72.1469540 123.0586320
  57.5111020  71.9541740 123.6932410  58.9445000  72.4304180 123.5910620
  48.9284700  69.9863030 114.0219660  48.6397750  70.5565890 114.7344640
  49.6730460  69.5067480 114.3850890  49.1154930  73.9283150 105.2322380
  49.0329600  74.8713910 105.3737370  48.7637990  73.7858060 104.3534730
  52.7655440  72.5448670 113.2586940  52.4255490  73.0223900 114.0153990
  52.0032760  72.0913790 112.8988040  51.0663890  79.8747420 120.5649520
  50.6818680  79.2341090 121.1632480  51.3776080  80.5783540 121.1344250
  57.2161030  76.7223960 116.0458140  57.5831160  76.2482530 116.7919480
  57.0266090  77.5965530 116.3866480  50.0801520  71.4667650 112.1751610
  49.7948440  71.1023320 113.0130230  50.0180380  70.7348110 111.5614750
  55.0060400  75.7632600 118.3642350  54.7017470  76.6424580 118.5892710
  55.9606860  75.8232390 118.3999790  53.5342190  79.9693590 108.9609200
  52.7604450  79.4291210 108.8007920  54.2636820  79.4500200 108.6226960
  64.2930170  78.9658950 114.7535590  65.0129290  79.4614240 114.3631700
  64.0911990  78.2876840 114.1089460  53.5779590  79.6373970 112.5988010
  54.0958260  78.8342230 112.5444900  53.1263610  79.5753110 113.4404840
  58.4649090  80.9040250 107.8715310  58.8064790  81.6482480 107.3758630
  57.6361800  81.2171370 108.2340140  51.0624130  76.6035340 119.5113710
  50.7039070  77.2689190 120.0987050  50.7678690  75.7718890 119.8826330
  54.2637250  77.0619580 122.3953260  53.9637390  77.2076760 121.4981080
  55.0348490  76.5024870 122.3026650  65.8176910  78.4995920 119.7376970
  65.0925100  79.0924700 119.5406360  66.3452370  78.4919460 118.9390340
  65.7690020  82.8970660 109.3889130  65.1266180  82.2426280 109.6632850
  65.3820680  83.3025750 108.6129800  61.3476500  80.2256090 113.2360820
  61.7000320  79.6284220 112.5762190  60.4638830  79.9000320 113.4069070
  57.4339780  80.9853780 110.6431230  58.1210910  81.5322990 111.0238820
  56.6472200  81.5294510 110.6780840  49.5732180  76.6026600 106.1348310
  50.4427030  76.8851400 106.4184230  49.0822500  77.4162470 106.0197120
  56.7366990  77.9899810 110.2556590  57.1929770  78.8005060 110.4816780
  56.3855200  77.6722950 111.0875080  49.9403430  85.8153980 106.7009940
  50.3001070  86.4143320 106.0467210  49.7995770  86.3613870 107.4744970
  49.6372700  70.0928580 120.1885810  48.9231220  70.2925500 120.7938420
  50.0567740  69.3168150 120.5600610  49.9245290  84.0808840 121.1752340
  50.0336410  83.1403580 121.0347730  49.2725850  84.3463590 120.5266070
  55.9572050  83.1985180 107.5183610  55.9482150  83.9314870 106.9028120
  55.0370410  82.9516760 107.6110570  51.5578690  78.4200070 108.2630370
  50.9506640  79.1598970 108.2725670  52.0328040  78.5099430 107.4368570
  61.1311480  72.5850890 117.9387260  61.4992300  71.7646100 118.2666830
  60.2709680  72.6452780 118.3542910  58.9431650  83.2613420 106.1808800
  59.0443630  83.0577410 105.2510780  58.0433390  83.0071700 106.3856580
  58.0913470  75.2390480 118.1625230  58.5898720  75.7136300 118.8277080
  58.2336420  74.3154000 118.3695260  57.5849760  85.7799740 110.8756470
  57.8391260  85.7421130 109.9535840  56.6362240  85.6533070 110.8684720
  53.5683980  78.3811220 106.0118940  54.3347250  78.2692580 106.5744370
  53.6458670  77.6849190 105.3595710  52.2630740  75.8136290 106.6951830
  52.3434330  74.8663800 106.8069230  53.1550490  76.1443170 106.8012490
  53.0645450  85.9631680 113.7986370  53.8007930  85.4147140 114.0694940
  53.4486370  86.8287690 113.6592360  52.0703730  85.1477750 122.9871950
  52.8716460  85.4689800 123.4007350  51.5555550  84.7873330 123.7091860
  56.1747760  85.1361990 105.6211940  56.9676370  85.4250820 105.1693730
  55.6552110  84.7054160 104.9424420  65.2277930  84.3632120 107.0448680
  64.9419440  83.9497260 106.2302860  65.0297480  85.2919830 106.9249200
  49.7901540  77.6351210 121.9308000  50.2940560  77.0558490 122.5024230
  49.0508960  77.9191440 122.4684370  56.6925160  80.3565400 105.4854290
  56.5875800  79.7417750 106.2115670  56.5249380  79.8331290 104.7017300
  51.8224620  75.7780800 122.8258070  51.8629960  75.4794670 123.7343300
  52.6770120  76.1788410 122.6665590  55.6003010  78.3776350 107.9861580
  56.0219430  78.2116220 108.8292970  55.7253850  77.5676580 107.4916720
  53.7630430  74.3572900 120.7932560  53.2326890  73.8663850 120.1655900
  54.4318500  74.7857100 120.2590490  54.2502730  71.3235270 120.8729850
  54.1559600  70.7056020 120.1480720  53.6700120  72.0501560 120.6459760
  57.0164170  69.8808510 117.9057240  56.5681470  69.9032770 117.0602790
  56.3829370  69.4827530 118.5027540  57.4223720  78.7762840 118.5269680
  57.8411830  79.6195570 118.3545920  56.5032350  78.9134880 118.2976460
  59.7587620  76.5079020 119.9107520  59.8783830  75.9120160 120.6502360
  60.6181620  76.5448710 119.4908820  62.0975520  77.0616210 118.4870030
  61.5710740  77.5858830 117.8835170  62.4406860  77.6943600 119.1179760
  55.2731140  85.0815850 119.6427410  54.7352230  85.8061910 119.3236110
  55.5265100  84.6046190 118.8524750  56.5256390  73.0500370 121.1683340
  57.1156080  72.7416220 121.8561160  55.7076630  72.5780120 121.3243240
  61.3449820  72.6666180 121.4016360  60.6565340  72.0047720 121.3366350
  62.0655840  72.2204450 121.8464820  58.6778680  85.4825570 107.5240420
  59.5729470  85.8210540 107.5459180  58.7096310  84.7604980 106.8964700
  52.3174840  80.8552620 105.7527420  52.7549710  81.3982290 106.4085000
  52.8022570  80.0299570 105.7623760  54.1282560  81.9750660 110.8649650
  53.8278100  81.8515630 111.7653560  54.0220050  81.1159250 110.4565380
  49.8535280  77.0232470 112.3018190  49.1984120  76.7544110 111.6577890
  50.6913230  76.9136950 111.8520170  67.3590910  79.3544640 112.9152460
  67.7299740  78.5711960 112.5088430  67.9992840  80.0433740 112.7369760
  64.3424670  80.7381220 118.3282780  63.5284510  81.1678380 118.5908570
  64.7498870  81.3499630 117.7151830  50.8911210  77.4085040 116.8421530
  51.2584250  77.3212440 117.7217550  50.3222030  76.6451590 116.7428390
  50.4427210  74.3194130 120.7479950  49.5483260  74.2860890 121.0873660
  50.9824760  74.5180920 121.5131200  49.0673360  74.2331400 108.2443520
  48.1637440  74.4961600 108.0695180  49.5513980  74.5042570 107.4643480
  65.7556130  75.0395260 117.0439270  64.8058840  75.0058800 117.1584260
  65.9369140  75.9495370 116.8089040  51.6100570  73.2896940 106.1537900
  52.3192270  72.8680160 105.6685180  50.8940510  73.3572170 105.5221250
  50.9466920  68.5942460 115.0963170  51.5943110  68.0439840 114.6558330
  51.3668760  68.8485610 115.9178980  64.8419260  68.7883820 118.4532810
  65.4791480  69.4017960 118.8192000  64.9894150  68.8244480 117.5082040
  64.4000720  85.4899820 111.8551050  64.9959790  85.1684390 111.1785470
  64.6578870  85.0171640 112.6464320  50.6998920  68.7498130 117.8388490
  50.3513740  69.2061950 118.6046670  50.3686620  67.8555260 117.9210920
  52.3063290  81.9217730 122.0041680  52.2632920  81.5510640 122.8856140
  52.4374300  82.8595300 122.1443500  56.0069320  83.4777320 117.6051400
  55.7660680  83.7451880 116.7181920  56.9471960  83.6483050 117.6602260
  58.2123740  69.9410010 121.3607910  58.1512630  70.5331840 122.1103320
  59.1524120  69.8335970 121.2158170  60.8498300  69.5980070 121.0000200
  61.4638710  69.9159360 120.3381280  61.3947860  69.1128660 121.6196060
  51.3719560  68.2774330 121.1139260  51.9202550  68.0962380 120.3505370
  51.4374870  67.4868440 121.6495570  52.1451320  84.8679980 119.1239460
  51.5511640  84.7364680 119.8629500  52.1375160  84.0318120 118.6581560
  61.5906340  68.1612210 117.3269490  60.7166180  68.4947320 117.1242420
  61.4817090  67.6885390 118.1521360  62.4978320  70.3683080 118.7111210
  62.1691680  69.5534840 118.3312940  63.4460620  70.3252890 118.5876900
  51.7763550  82.2338360 118.0747500  51.0497610  81.6143650 118.0073450
  51.8372700  82.6278970 117.2045580  55.3808650  84.4483360 114.8596910
  55.8973670  83.8370720 114.3345170  56.0306030  84.9512140 115.3507920
  58.1204150  85.3391850 115.6865890  58.4081960  85.0846150 114.8098900
  58.6327370  84.7869210 116.2771460  66.4221570  85.8033520 110.0508340
  66.5973760  85.1171260 109.4069260  65.7243140  86.3280570 109.6585010
  55.3740120  68.9252700 122.8175970  55.0924390  69.4286300 122.0536790
  55.7559820  68.1274450 122.4518100  54.2649220  86.1928360 107.6043650
  54.9968040  85.9087640 107.0567540  54.5242890  85.9541640 108.4943030
  53.4264010  82.3093090 107.6089980  52.7972890  82.7778190 108.1575810
  53.5411840  81.4642310 108.0436170  61.9755580  68.3406280 123.3956440
  61.8621030  68.6600890 124.2907960  62.7925320  68.7418790 123.0993720
  53.0297600  78.4497580  96.5176210  52.1982480  78.1946290  96.9172720
  53.6378580  78.5208350  97.2534130  53.0098860  82.4837670  96.7134230
  53.3126900  81.5935410  96.5344450  53.7542450  83.0407890  96.4856480
  50.6447430  71.4189480  97.9727230  50.4650270  70.5215230  98.2529990
  50.2427510  71.9661350  98.6474180  54.2016720  81.2091880  99.9268260
  54.8190720  81.8842960  99.6452710  53.3409840  81.6179860  99.8355760
  49.4949060  80.3991740  88.8075110  49.1177040  80.8878840  88.0760010
  49.7522130  81.0717020  89.4381640  55.5657090  81.0789260  95.9479680
  55.2685380  80.4734730  95.2687460  56.5156910  81.1166570  95.8369040
  54.6575520  80.8170950 102.5987480  53.7604050  81.0410920 102.8460880
  54.6828390  80.9405890 101.6498880  53.4846740  77.6884270 101.1744850
  53.3454510  78.5607070 101.5432250  52.6028100  77.3457080 101.0292790
  55.2827090  83.6305970 103.3830000  55.2542520  84.0348920 102.5158430
  55.1192060  82.7016330 103.2201600  49.4365390  79.4581820  97.0915760
  49.5145810  79.5930590  96.1471480  50.0507070  78.7497710  97.2843880
  50.6813020  81.1582010  93.5021940  50.2741100  81.2996600  92.6475540
  51.5726030  80.8742170  93.2993150  60.4991900  85.3073920 100.4088990
  61.0136570  85.2181930 101.2111420  59.6560980  85.6533620 100.7016900
  54.9534680  85.3727790  91.6144610  54.7777160  84.4563330  91.4012410
  54.0990420  85.7315080  91.8542410  49.4924910  80.4995990  99.6310220
  49.6555950  80.0301350  98.8129590  49.9577360  79.9919550 100.2959060
  51.6267650  72.0634570 101.2146090  51.2331040  72.9109780 101.4218870
  50.9386050  71.4260940 101.4054730  48.9284700  69.9863030  95.2476170
  48.6397750  70.5565890  95.9601150  49.6730460  69.5067480  95.6107400
  49.1154930  73.9283150  86.4578890  49.0329600  74.8713910  86.5993880
  48.7637990  73.7858060  85.5791240  55.9894710  75.9735400  87.9139300
  55.4211610  75.5253650  87.2875210  56.6983710  76.3328180  87.3804450
  51.0663890  79.8747420 101.7906030  50.6818680  79.2341090 102.3888990
  51.3776080  80.5783540 102.3600760  55.0060400  75.7632600  99.5898860
  54.7017470  76.6424580  99.8149220  55.9606860  75.8232390  99.6256300
  53.5342190  79.9693590  90.1865710  52.7604450  79.4291210  90.0264430
  54.2636820  79.4500200  89.8483470  53.5779590  79.6373970  93.8244520
  54.0958260  78.8342230  93.7701410  53.1263610  79.5753110  94.6661350
  58.4649090  80.9040250  89.0971820  58.8064790  81.6482480  88.6015140
  57.6361800  81.2171370  89.4596650  51.0624130  76.6035340 100.7370220
  50.7039070  77.2689190 101.3243560  50.7678690  75.7718890 101.1082840
  49.5732180  76.6026600  87.3604820  50.4427030  76.8851400  87.6440740
  49.0822500  77.4162470  87.2453630  52.6378770  68.3337460  91.9535620
  52.5093400  68.3255360  92.9020540  51.8140790  68.6720550  91.6026630
  49.6372700  70.0928580 101.4142320  48.9231220  70.2925500 102.0194930
  50.0567740  69.3168150 101.7857120  49.9245290  84.0808840 102.4008850
  50.0336410  83.1403580 102.2604240  49.2725850  84.3463590 101.7522580
  57.9157880  82.3524730 103.8006970  57.5954750  81.6333970 104.3452660
  57.2416240  83.0279800 103.8743030  55.9572050  83.1985180  88.7440120
  55.9482150  83.9314870  88.1284630  55.0370410  82.9516760  88.8367080
  51.5578690  78.4200070  89.4886880  50.9506640  79.1598970  89.4982180
  52.0328040  78.5099430  88.6625080  53.5683980  78.3811220  87.2375450
  54.3347250  78.2692580  87.8000880  53.6458670  77.6849190  86.5852220
  52.2630740  75.8136290  87.9208340  52.3434330  74.8663800  88.0325740
  53.1550490  76.1443170  88.0269000  53.0645450  85.9631680  95.0242880
  53.8007930  85.4147140  95.2951450  53.4486370  86.8287690  94.8848870
  49.9490930  82.0305250  90.8984390  49.0230710  82.2726390  90.8889800
  50.4147360  82.8579510  90.7769140  52.0703730  85.1477750 104.2128460
  52.8716460  85.4689800 104.6263860  51.5555550  84.7873330 104.9348370
  56.1747760  85.1361990  86.8468450  56.9676370  85.4250820  86.3950240
  55.6552110  84.7054160  86.1680930  60.9068360  81.2557620 104.1603870
  60.3006520  81.2789220 103.4199620  60.6022470  80.5240660 104.6971120
  62.3368730  84.9837910 102.7713280  63.2890480  84.8995930 102.7213520
  62.1896950  85.6479620 103.4447070  49.7901540  77.6351210 103.1564510
  50.2940560  77.0558490 103.7280740  49.0508960  77.9191440 103.6940880
  56.6925160  80.3565400  86.7110800  56.5875800  79.7417750  87.4372180
  56.5249380  79.8331290  85.9273810  51.8224620  75.7780800 104.0514580
  51.8629960  75.4794670 104.9599810  52.6770120  76.1788410 103.8922100
  55.6003010  78.3776350  89.2118090  56.0219430  78.2116220  90.0549480
  55.7253850  77.5676580  88.7173230  58.1130650  77.4013960  86.4595190
  58.6336310  76.6862980  86.0936340  58.7599050  78.0399830  86.7595700
  54.4961910  74.4509580  86.1576250  54.2950970  73.5876940  86.5189590
  54.3253960  74.3642940  85.2197850  55.2731140  85.0815850 100.8683920
  54.7352230  85.8061910 100.5492620  55.5265100  84.6046190 100.0781260
  53.2944710  71.5510200  86.1454130  53.5970610  71.5577630  85.2373280
  54.0339300  71.2008060  86.6421790  58.1293350  86.3167060 101.1270570
  58.0552050  87.2202200 101.4342940  57.2272190  85.9978960 101.0992640
  56.5129640  70.4944820  87.1310330  56.1651640  69.8168810  86.5512780
  56.7142410  70.0334330  87.9453720  52.3174840  80.8552620  86.9783930
  52.7549710  81.3982290  87.6341510  52.8022570  80.0299570  86.9880270
  49.5320640  83.6441650  94.4304190  49.8623650  82.7762710  94.1982830
  49.9611640  83.8500170  95.2609150  54.1282560  81.9750660  92.0906160
  53.8278100  81.8515630  92.9910070  54.0220050  81.1159250  91.6821890
  50.0210850  84.5112240  97.1685820  49.5841840  84.6913040  98.0009970
  50.5888530  85.2686860  97.0267540  50.8911210  77.4085040  98.0678040
  51.2584250  77.3212440  98.9474060  50.3222030  76.6451590  97.9684900
  50.4427210  74.3194130 101.9736460  49.5483260  74.2860890 102.3130170
  50.9824760  74.5180920 102.7387710  51.6100570  73.2896940  87.3794410
  52.3192270  72.8680160  86.8941690  50.8940510  73.3572170  86.7477760
  51.2574730  69.3436270  86.4197060  51.9802860  69.8845210  86.7378280
  51.5299250  69.0699690  85.5438600  50.9466920  68.5942460  96.3219680
  51.5943110  68.0439840  95.8814840  51.3668760  68.8485610  97.1435490
  50.6998920  68.7498130  99.0645000  50.3513740  69.2061950  99.8303180
  50.3686620  67.8555260  99.1467430  52.3063290  81.9217730 103.2298190
  52.2632920  81.5510640 104.1112650  52.4374300  82.8595300 103.3700010
  52.1451320  84.8679980 100.3495970  51.5511640  84.7364680 101.0886010
  52.1375160  84.0318120  99.8838070  51.7763550  82.2338360  99.3004010
  51.0497610  81.6143650  99.2329960  51.8372700  82.6278970  98.4302090
  55.3808650  84.4483360  96.0853420  55.8973670  83.8370720  95.5601680
  56.0306030  84.9512140  96.5764430  50.6821570  69.3829530  90.0132630
  51.4400930  69.4958410  89.4396660  50.2198740  70.2198730  89.9676060
  53.0546720  69.9093580  88.5534600  53.5839480  69.1223380  88.4242550
  53.6875040  70.5884770  88.7870130  55.2484560  69.6468720  91.6079990
  54.6187300  68.9456030  91.7750120  54.7089700  70.4072850  91.3913150
  58.1876510  86.2607950 104.2790600  59.1143820  86.0252220 104.3226560
  58.1726940  87.0879950 103.7976630  54.2649220  86.1928360  88.8300160
  54.9968040  85.9087640  88.2824050  54.5242890  85.9541640  89.7199540
  53.4264010  82.3093090  88.8346490  52.7972890  82.7778190  89.3832320
  53.5411840  81.4642310  89.2692680  64.7554070  85.4877810 104.1031640
  65.5479390  84.9927040 103.8957600  65.0487220  86.1667950 104.7107250
  60.8813730  76.3598750  74.9847690  60.8007780  75.4453360  74.7139400
  60.4678150  76.8565820  74.2787400  59.0131770  78.1377770  76.8656960
  58.2373870  77.6578210  77.1555530  59.6644700  77.4583420  76.6913120
  53.0297600  78.4497580  77.7432720  52.1982480  78.1946290  78.1429230
  53.6378580  78.5208350  78.4790640  63.0339200  82.5437960  75.6456090
  62.5720730  81.7725200  75.9743260  63.8464750  82.5704030  76.1508540
  53.0098860  82.4837670  77.9390740  53.3126900  81.5935410  77.7600960
  53.7542450  83.0407890  77.7112990  51.4389550  73.4099470  71.5275110
  50.5506250  73.7515440  71.4254990  51.7230740  73.2099790  70.6355940
  49.4022560  76.0105120  77.4114810  49.9738670  75.2427320  77.4118450
  49.4024100  76.3093880  76.5021420  59.2602510  84.8295970  75.2660080
  58.6413950  85.2853470  74.6954520  60.1154290  84.9847430  74.8649780
  58.4540760  80.8134960  76.8727120  58.3849040  79.8724900  76.7116250
  59.2160620  80.9036370  77.4449690  50.6447430  71.4189480  79.1983740
  50.4650270  70.5215230  79.4786500  50.2427510  71.9661350  79.8730690
  59.4845930  73.6205340  77.0996050  59.8610750  72.7477220  76.9869720
  59.3865440  73.9564040  76.2086490  53.6150940  71.9930970  72.5613490
  53.7217690  72.8934700  72.8682250  52.7043300  71.9448940  72.2708140
  63.2670050  71.1155780  74.0324390  64.0879670  70.6252350  74.0749870
  63.3004130  71.7053440  74.7856230  51.2634100  73.9149980  77.8066080
  51.9444210  74.1788350  78.4253480  50.9482150  73.0750850  78.1404090
  55.4558670  74.9617340  76.8938670  55.9636890  75.4598310  77.5343690
  55.9871910  74.1852540  76.7178030  67.5569600  73.1322530  80.5968020
  66.8521770  73.5204240  80.0783130  67.8227520  73.8272820  81.1988950
  53.7394770  69.6015900  81.1602090  53.7413210  70.1188290  80.3547990
  52.9099080  69.1246080  81.1372020  60.1265860  79.7135210  72.6591990
  59.5083130  80.1784660  72.0954710  60.6389110  80.4062690  73.0761500
  54.9897620  79.2411080  79.3375590  54.6567000  79.8680000  79.9796660
  55.1664300  79.7672960  78.5577260  63.5031530  73.0556160  76.8051930
  62.7987100  73.3441050  77.3855040  63.8643690  73.8656270  76.4451490
  53.4210100  71.3125860  79.1672540  53.7626910  72.1567910  78.8726410
  52.4825910  71.4609600  79.2837880  54.2016720  81.2091880  81.1524770
  54.8190720  81.8842960  80.8709220  53.3409840  81.6179860  81.0612270
  65.1194310  82.6731290  79.0679410  64.4357830  83.3430400  79.0596080
  65.6588600  82.8711940  78.3024270  66.5718450  72.5010950  77.1961140
  65.6243360  72.5349930  77.3276570  66.8968440  73.3149900  77.5810500
  57.1037990  68.8008130  75.4917130  57.4112970  68.2455020  74.7752630
  56.1738690  68.9352590  75.3090120  62.0538490  79.4205260  79.1107200
  62.4707280  79.2065370  78.2760660  62.7778310  79.6778050  79.6815820
  59.4918750  76.8656960  72.2277250  58.5648030  76.7994340  72.4565720
  59.6443570  77.8037090  72.1132490  66.0000590  77.8192480  79.2023440
  65.1719220  77.8885570  78.7273570  66.5951070  78.4046790  78.7339270
  62.9642600  74.6061800  80.1478310  62.5513780  75.4315510  80.4018300
  62.2318550  74.0206840  79.9554670  55.0975390  77.3921700  75.0096980
  54.6932390  76.6798950  74.5142880  55.1838510  77.0474940  75.8985020
  55.5657090  81.0789260  77.1736190  55.2685380  80.4734730  76.4943970
  56.5156910  81.1166570  77.0625550  53.8104010  74.1664910  78.7896020
  54.3618600  74.2760250  78.0149270  54.3247520  74.5402510  79.5051250
  63.6542700  84.6521130  80.8359290  63.1773260  85.4593320  80.6431900
  62.9704490  83.9999460  80.9885500  54.6575520  80.8170950  83.8243990
  53.7604050  81.0410920  84.0717390  54.6828390  80.9405890  82.8755390
  53.4846740  77.6884270  82.4001360  53.3454510  78.5607070  82.7688760
  52.6028100  77.3457080  82.2549300  59.8076120  82.6060140  73.7066490
  60.2472030  83.3484470  73.2921880  59.7463010  82.8486710  74.6305450
  55.2827090  83.6305970  84.6086510  55.2542520  84.0348920  83.7414940
  55.1192060  82.7016330  84.4458110  51.7980020  76.2866680  72.5103630
  51.6777620  77.0128770  71.8984900  51.4880910  75.5169590  72.0331540
  49.4365390  79.4581820  78.3172270  49.5145810  79.5930590  77.3727990
  50.0507070  78.7497710  78.5100390  60.4991900  85.3073920  81.6345500
  61.0136570  85.2181930  82.4367930  59.6560980  85.6533620  81.9273410
  49.4924910  80.4995990  80.8566730  49.6555950  80.0301350  80.0386100
  49.9577360  79.9919550  81.5215570  54.2643680  69.6301750  75.8927300
  53.8211830  70.4111290  75.5611820  54.8228670  69.9531640  76.5998240
  58.5513490  72.4970270  81.4962620  58.0892860  72.7053290  82.3082560
  58.1491600  71.6829620  81.1933290  63.5518000  73.7179220  82.6259280
  62.7011590  73.4184970  82.9468350  63.3919790  73.9621230  81.7143100
  60.6467710  75.2180970  84.7258070  60.9721120  74.3844720  84.3860300
  61.4348040  75.7409490  84.8736400  57.3802500  69.2512450  70.7733130
  56.7556680  69.2472320  71.4986440  57.2932620  68.3843410  70.3769100
  56.3019580  70.1749080  77.7516900  56.5991910  71.0811910  77.6708920
  56.8505140  69.6867860  77.1376470  54.0557900  74.7535320  73.6208550
  53.8298820  74.5372490  74.5255170  53.2750430  75.1863780  73.2754520
  61.2855660  74.7598690  72.2199200  60.6864550  75.4834490  72.0362820
  61.8335270  74.6975470  71.4375650  56.4957110  75.6520900  84.2868820
  56.4000710  74.7115630  84.1369220  57.3389090  75.8735970  83.8916890
  59.8920530  73.3962230  74.2502480  60.2850100  73.7134430  73.4371170
  60.2537380  72.5174110  74.3647000  51.6267650  72.0634570  82.4402600
  51.2331040  72.9109780  82.6475380  50.9386050  71.4260940  82.6311240
  58.2012700  72.1469540  85.5099340  57.5111020  71.9541740  86.1445430
  58.9445000  72.4304180  86.0423640  48.9284700  69.9863030  76.4732680
  48.6397750  70.5565890  77.1857660  49.6730460  69.5067480  76.8363910
  60.4775670  75.9867980  78.3453260  59.7456790  76.4954790  78.6943360
  60.0800010  75.1697960  78.0442040  56.9153060  72.6622180  76.7505750
  56.9189120  72.2212130  75.9010290  57.8104180  72.9839510  76.8577570
  52.7655440  72.5448670  75.7099960  52.4255490  73.0223900  76.4667010
  52.0032760  72.0913790  75.3501060  56.9773210  73.6634260  69.7412510
  57.0986030  73.6220740  70.6898330  56.5921720  74.5258410  69.5859240
  60.9401580  71.4401660  77.7576200  60.9574320  71.8910310  78.6018050
  60.6917160  70.5407300  77.9709640  51.0663890  79.8747420  83.0162540
  50.6818680  79.2341090  83.6145500  51.3776080  80.5783540  83.5857270
  57.2161030  76.7223960  78.4971160  57.5831160  76.2482530  79.2432500
  57.0266090  77.5965530  78.8379500  50.0801520  71.4667650  74.6264630
  49.7948440  71.1023320  75.4643250  50.0180380  70.7348110  74.0127770
  55.0060400  75.7632600  80.8155370  54.7017470  76.6424580  81.0405730
  55.9606860  75.8232390  80.8512810  53.5342190  79.9693590  71.4122220
  52.7604450  79.4291210  71.2520940  54.2636820  79.4500200  71.0739980
  64.2930170  78.9658950  77.2048610  65.0129290  79.4614240  76.8144720
  64.0911990  78.2876840  76.5602480  59.7540110  70.3596910  71.3478000
  58.9404720  69.8610080  71.2723310  59.5602060  71.1995160  70.9314350
  59.6748970  79.0368010  83.0917610  59.6086280  78.1163680  82.8375200
  59.0454110  79.1343450  83.8062250  53.5779590  79.6373970  75.0501030
  54.0958260  78.8342230  74.9957920  53.1263610  79.5753110  75.8917860
  51.0624130  76.6035340  81.9626730  50.7039070  77.2689190  82.5500070
  50.7678690  75.7718890  82.3339350  54.2637250  77.0619580  84.8466280
  53.9637390  77.2076760  83.9494100  55.0348490  76.5024870  84.7539670
  59.6065700  81.8588580  82.8421410  59.6210240  80.9269540  82.6240320
  58.8990800  81.9448340  83.4811180  65.8176910  78.4995920  82.1889990
  65.0925100  79.0924700  81.9919380  66.3452370  78.4919460  81.3903360
  61.3476500  80.2256090  75.6873840  61.7000320  79.6284220  75.0275210
  60.4638830  79.9000320  75.8582090  57.4339780  80.9853780  73.0944250
  58.1210910  81.5322990  73.4751840  56.6472200  81.5294510  73.1293860
  56.7366990  77.9899810  72.7069610  57.1929770  78.8005060  72.9329800
  56.3855200  77.6722950  73.5388100  59.0399600  83.5006150  79.9361910
  59.6841820  83.7065530  80.6135330  59.4029040  82.7394550  79.4832760
  60.3131680  81.5038500  78.6539360  60.9553910  80.8031660  78.7671530
  60.8381030  82.2836940  78.4736250  62.0869300  82.3033400  81.8575420
  62.4225540  82.8900090  82.5353340  61.1669640  82.1726110  82.0873210
  49.9403430  85.8153980  69.1522960  50.3001070  86.4143320  68.4980230
  49.7995770  86.3613870  69.9257990  49.6372700  70.0928580  82.6398830
  48.9231220  70.2925500  83.2451440  50.0567740  69.3168150  83.0113630
  49.9245290  84.0808840  83.6265360  50.0336410  83.1403580  83.4860750
  49.2725850  84.3463590  82.9779090  57.9157880  82.3524730  85.0263480
  57.5954750  81.6333970  85.5709170  57.2416240  83.0279800  85.0999540
  51.5578690  78.4200070  70.7143390  50.9506640  79.1598970  70.7238690
  52.0328040  78.5099430  69.8881590  61.1311480  72.5850890  80.3900280
  61.4992300  71.7646100  80.7179850  60.2709680  72.6452780  80.8055930
  56.4657540  73.8193780  72.6145720  55.7573690  74.2880120  73.0559330
  56.7502020  73.1615790  73.2490910  58.0913470  75.2390480  80.6138250
  58.5898720  75.7136300  81.2790100  58.2336420  74.3154000  80.8208280
  60.4972970  70.5444440  74.0541510  60.3740750  70.5630570  73.1051020
  61.4457530  70.5923380  74.1739910  54.6692560  72.1278860  69.9896430
  55.5183090  72.5649010  69.9236620  54.3023830  72.4399120  70.8168490
  65.2980330  71.4558440  81.4566640  64.7953930  72.1963840  81.7960450
  66.1136990  71.8442440  81.1403430  63.5902340  76.6991620  74.9028000
  62.6492480  76.7141850  75.0775690  63.9046410  75.9127580  75.3488300
  52.2630740  75.8136290  69.1464850  52.3434330  74.8663800  69.2582250
  53.1550490  76.1443170  69.2525510  53.0645450  85.9631680  76.2499390
  53.8007930  85.4147140  76.5207960  53.4486370  86.8287690  76.1105380
  52.0703730  85.1477750  85.4384970  52.8716460  85.4689800  85.8520370
  51.5555550  84.7873330  86.1604880  49.7901540  77.6351210  84.3821020
  50.2940560  77.0558490  84.9537250  49.0508960  77.9191440  84.9197390
  56.6925160  80.3565400  67.9367310  56.5875800  79.7417750  68.6628690
  56.5249380  79.8331290  67.1530320  56.8439480  79.0422200  83.9156540
  56.0785150  79.6107200  83.8311210  57.0255440  78.7498410  83.0224770
  59.9327890  79.4185430  68.5409300  59.3837990  79.8654730  69.1852040
  60.5547150  78.9134680  69.0646970  51.8224620  75.7780800  85.2771090
  51.8629960  75.4794670  86.1856320  52.6770120  76.1788410  85.1178610
  55.6003010  78.3776350  70.4374600  56.0219430  78.2116220  71.2805990
  55.7253850  77.5676580  69.9429740  53.7630430  74.3572900  83.2445580
  53.2326890  73.8663850  82.6168920  54.4318500  74.7857100  82.7103510
  62.6608490  78.8242360  83.0086770  63.0749510  78.9787440  83.8577190
  61.7259490  78.9497580  83.1712550  54.2502730  71.3235270  83.3242870
  54.1559600  70.7056020  82.5993740  53.6700120  72.0501560  83.0972780
  57.0164170  69.8808510  80.3570260  56.5681470  69.9032770  79.5115810
  56.3829370  69.4827530  80.9540560  57.4223720  78.7762840  80.9782700
  57.8411830  79.6195570  80.8058940  56.5032350  78.9134880  80.7489480
  59.7587620  76.5079020  82.3620540  59.8783830  75.9120160  83.1015380
  60.6181620  76.5448710  81.9421840  62.0975520  77.0616210  80.9383050
  61.5710740  77.5858830  80.3348190  62.4406860  77.6943600  81.5692780
  55.2731140  85.0815850  82.0940430  54.7352230  85.8061910  81.7749130
  55.5265100  84.6046190  81.3037770  56.5256390  73.0500370  83.6196360
  57.1156080  72.7416220  84.3074180  55.7076630  72.5780120  83.7756260
  53.2944710  71.5510200  67.3710640  53.5970610  71.5577630  66.4629790
  54.0339300  71.2008060  67.8678300  58.1293350  86.3167060  82.3527080
  58.0552050  87.2202200  82.6599450  57.2272190  85.9978960  82.3249150
  56.5129640  70.4944820  68.3566840  56.1651640  69.8168810  67.7769290
  56.7142410  70.0334330  69.1710230  52.3174840  80.8552620  68.2040440
  52.7549710  81.3982290  68.8598020  52.8022570  80.0299570  68.2136780
  54.1282560  81.9750660  73.3162670  53.8278100  81.8515630  74.2166580
  54.0220050  81.1159250  72.9078400  50.0210850  84.5112240  78.3942330
  49.5841840  84.6913040  79.2266480  50.5888530  85.2686860  78.2524050
  49.8535280  77.0232470  74.7531210  49.1984120  76.7544110  74.1090910
  50.6913230  76.9136950  74.3033190  67.3590910  79.3544640  75.3665480
  67.7299740  78.5711960  74.9601450  67.9992840  80.0433740  75.1882780
  64.3424670  80.7381220  80.7795800  63.5284510  81.1678380  81.0421590
  64.7498870  81.3499630  80.1664850  50.8911210  77.4085040  79.2934550
  51.2584250  77.3212440  80.1730570  50.3222030  76.6451590  79.1941410
  65.6915070  75.8769420  82.3065020  65.4601160  75.6482170  81.4062970
  65.9519620  76.7968970  82.2609910  50.4427210  74.3194130  83.1992970
  49.5483260  74.2860890  83.5386680  50.9824760  74.5180920  83.9644220
  49.0673360  74.2331400  70.6956540  48.1637440  74.4961600  70.5208200
  49.5513980  74.5042570  69.9156500  65.5766410  74.9555390  75.9732740
  66.1003890  74.4618040  75.3422910  66.1625830  75.0905750  76.7180310
  65.7556130  75.0395260  79.4952290  64.8058840  75.0058800  79.6097280
  65.9369140  75.9495370  79.2602060  51.6100570  73.2896940  68.6050920
  52.3192270  72.8680160  68.1198200  50.8940510  73.3572170  67.9734270
  51.2574730  69.3436270  67.6453570  51.9802860  69.8845210  67.9634790
  51.5299250  69.0699690  66.7695110  50.9466920  68.5942460  77.5476190
  51.5943110  68.0439840  77.1071350  51.3668760  68.8485610  78.3692000
  50.6998920  68.7498130  80.2901510  50.3513740  69.2061950  81.0559690
  50.3686620  67.8555260  80.3723940  52.3063290  81.9217730  84.4554700
  52.2632920  81.5510640  85.3369160  52.4374300  82.8595300  84.5956520
  56.0069320  83.4777320  80.0564420  55.7660680  83.7451880  79.1694940
  56.9471960  83.6483050  80.1115280  58.2123740  69.9410010  83.8120930
  58.1512630  70.5331840  84.5616340  59.1524120  69.8335970  83.6671190
  60.8498300  69.5980070  83.4513220  61.4638710  69.9159360  82.7894300
  61.3947860  69.1128660  84.0709080  67.2673480  85.4971700  80.8575060
  66.7731760  85.8940570  80.1402190  66.6586770  84.8720910  81.2512340
  51.3719560  68.2774330  83.5652280  51.9202550  68.0962380  82.8018390
  51.4374870  67.4868440  84.1008590  52.1451320  84.8679980  81.5752480
  51.5511640  84.7364680  82.3142520  52.1375160  84.0318120  81.1094580
  61.5906340  68.1612210  79.7782510  60.7166180  68.4947320  79.5755440
  61.4817090  67.6885390  80.6034380  62.4978320  70.3683080  81.1624230
  62.1691680  69.5534840  80.7825960  63.4460620  70.3252890  81.0389920
  51.7763550  82.2338360  80.5260520  51.0497610  81.6143650  80.4586470
  51.8372700  82.6278970  79.6558600  55.3808650  84.4483360  77.3109930
  55.8973670  83.8370720  76.7858190  56.0306030  84.9512140  77.8020940
  58.1204150  85.3391850  78.1378910  58.4081960  85.0846150  77.2611920
  58.6327370  84.7869210  78.7284480  59.3381160  69.0782050  78.7175420
  58.5552950  69.5527550  78.9972180  59.0444090  68.1736880  78.6088600
  63.8902230  69.7805150  76.7624510  64.3310320  69.7250250  75.9146110
  63.6209820  70.6963160  76.8334690  50.0593550  85.5512750  73.7357280
  49.8915590  84.9183430  74.4339170  49.1928060  85.7572150  73.3851470
  50.6821570  69.3829530  71.2389140  51.4400930  69.4958410  70.6653170
  50.2198740  70.2198730  71.1932570  57.2235380  71.4968800  74.2291450
  56.4109890  71.1225690  73.8887330  57.7277020  70.7413880  74.5312640
  61.7260360  68.1611250  75.4674520  62.3289730  68.7331460  75.9423040
  60.9853350  68.7250690  75.2448420  51.6656250  84.2445980  71.1807420
  51.1403870  84.6254010  70.4769380  51.5900830  84.8696750  71.9017130
  53.0546720  69.9093580  69.7791110  53.5839480  69.1223380  69.6499060
  53.6875040  70.5884770  70.0126640  55.2484560  69.6468720  72.8336500
  54.6187300  68.9456030  73.0006630  54.7089700  70.4072850  72.6169660
  58.1876510  86.2607950  85.5047110  59.1143820  86.0252220  85.5483070
  58.1726940  87.0879950  85.0233140  55.3740120  68.9252700  85.2688990
  55.0924390  69.4286300  84.5049810  55.7559820  68.1274450  84.9031120
  53.4264010  82.3093090  70.0603000  52.7972890  82.7778190  70.6088830
  53.5411840  81.4642310  70.4949190  51.4389550  73.4099470  52.7531620
  50.5506250  73.7515440  52.6511500  51.7230740  73.2099790  51.8612450
  53.6150940  71.9930970  53.7870000  53.7217690  72.8934700  54.0938760
  52.7043300  71.9448940  53.4964650  55.2827090  83.6305970  65.8343020
  55.2542520  84.0348920  64.9671450  55.1192060  82.7016330  65.6714620
  51.7980020  76.2866680  53.7360140  51.6777620  77.0128770  53.1241410
  51.4880910  75.5169590  53.2588050  49.4365390  79.4581820  59.5428780
  49.5145810  79.5930590  58.5984500  50.0507070  78.7497710  59.7356900
  57.3802500  69.2512450  51.9989640  56.7556680  69.2472320  52.7242950
  57.2932620  68.3843410  51.6025610  54.0557900  74.7535320  54.8465060
  53.8298820  74.5372490  55.7511680  53.2750430  75.1863780  54.5011030
  58.2012700  72.1469540  66.7355850  57.5111020  71.9541740  67.3701940
  58.9445000  72.4304180  67.2680150  48.9284700  69.9863030  57.6989190
  48.6397750  70.5565890  58.4114170  49.6730460  69.5067480  58.0620420
  50.0801520  71.4667650  55.8521140  49.7948440  71.1023320  56.6899760
  50.0180380  70.7348110  55.2384280  59.7540110  70.3596910  52.5734510
  58.9404720  69.8610080  52.4979820  59.5602060  71.1995160  52.1570860
  49.5732180  76.6026600  49.8117840  50.4427030  76.8851400  50.0953760
  49.0822500  77.4162470  49.6966650  49.9245290  84.0808840  64.8521870
  50.0336410  83.1403580  64.7117260  49.2725850  84.3463590  64.2035600
  52.0703730  85.1477750  66.6641480  52.8716460  85.4689800  67.0776880
  51.5555550  84.7873330  67.3861390  56.5129640  70.4944820  49.5823350
  56.1651640  69.8168810  49.0025800  56.7142410  70.0334330  50.3966740
  50.0210850  84.5112240  59.6198840  49.5841840  84.6913040  60.4522990
  50.5888530  85.2686860  59.4780560  49.8535280  77.0232470  55.9787720
  49.1984120  76.7544110  55.3347420  50.6913230  76.9136950  55.5289700
  52.3063290  81.9217730  65.6811210  52.2632920  81.5510640  66.5625670
  52.4374300  82.8595300  65.8213030  52.1451320  84.8679980  62.8008990
  51.5511640  84.7364680  63.5399030  52.1375160  84.0318120  62.3351090
  51.7763550  82.2338360  61.7517030  51.0497610  81.6143650  61.6842980
  51.8372700  82.6278970  60.8815110  55.3740120  68.9252700  66.4945500
  55.0924390  69.4286300  65.7306320  55.7559820  68.1274450  66.1287630
  59.0131770  78.1377770  39.3169980  58.2373870  77.6578210  39.6068550
  59.6644700  77.4583420  39.1426140  53.0297600  78.4497580  40.1945740
  52.1982480  78.1946290  40.5942250  53.6378580  78.5208350  40.9303660
  53.0098860  82.4837670  40.3903760  53.3126900  81.5935410  40.2113980
  53.7542450  83.0407890  40.1626010  51.4389550  73.4099470  33.9788130
  50.5506250  73.7515440  33.8768010  51.7230740  73.2099790  33.0868960
  49.4022560  76.0105120  39.8627830  49.9738670  75.2427320  39.8631470
  49.4024100  76.3093880  38.9534440  55.4558670  74.9617340  39.3451690
  55.9636890  75.4598310  39.9856710  55.9871910  74.1852540  39.1691050
  67.5569600  73.1322530  43.0481040  66.8521770  73.5204240  42.5296150
  67.8227520  73.8272820  43.6501970  60.1265860  79.7135210  35.1105010
  59.5083130  80.1784660  34.5467730  60.6389110  80.4062690  35.5274520
  49.4949060  80.3991740  32.4844640  49.1177040  80.8878840  31.7529540
  49.7522130  81.0717020  33.1151170  57.1037990  68.8008130  37.9430150
  57.4112970  68.2455020  37.2265650  56.1738690  68.9352590  37.7603140
  63.9498470  81.2391640  35.3227780  63.8394800  80.2965970  35.4477200
  63.9466720  81.6007280  36.2090540  63.5216040  78.4277260  35.1825520
  62.9028460  78.0896810  34.5351820  63.5040490  77.7837020  35.8904710
  62.9642600  74.6061800  42.5991330  62.5513780  75.4315510  42.8531320
  62.2318550  74.0206840  42.4067690  55.0975390  77.3921700  37.4610000
  54.6932390  76.6798950  36.9655900  55.1838510  77.0474940  38.3498040
  55.5657090  81.0789260  39.6249210  55.2685380  80.4734730  38.9456990
  56.5156910  81.1166570  39.5138570  61.6980740  77.6664070  32.1898270
  62.1374020  76.8286500  32.0436090  62.4109160  78.2993470  32.2762410
  53.4846740  77.6884270  44.8514380  53.3454510  78.5607070  45.2201780
  52.6028100  77.3457080  44.7062320  59.8076120  82.6060140  36.1579510
  60.2472030  83.3484470  35.7434900  59.7463010  82.8486710  37.0818470
  65.2797880  68.9206880  30.5039310  64.9670540  69.0133710  31.4038380
  66.0410350  69.4987910  30.4536740  51.7980020  76.2866680  34.9616650
  51.6777620  77.0128770  34.3497920  51.4880910  75.5169590  34.4844560
  49.4365390  79.4581820  40.7685290  49.5145810  79.5930590  39.8241010
  50.0507070  78.7497710  40.9613410  50.6813020  81.1582010  37.1791470
  50.2741100  81.2996600  36.3245070  51.5726030  80.8742170  36.9762680
  62.4746300  85.5929260  33.5142520  62.3147440  85.3032200  34.4124350
  62.3093010  84.8169390  32.9787750  54.9534680  85.3727790  35.2914140
  54.7777160  84.4563330  35.0781940  54.0990420  85.7315080  35.5311940
  62.1772430  83.1016820  32.0740520  61.4837590  83.0994110  31.4142800
  62.9195290  82.6776140  31.6434690  61.7422360  84.7279530  36.1489010
  62.1979310  83.9468910  36.4627630  62.0814880  85.4386350  36.6930190
  49.4924910  80.4995990  43.3079750  49.6555950  80.0301350  42.4899120
  49.9577360  79.9919550  43.9728590  58.5513490  72.4970270  43.9475640
  58.0892860  72.7053290  44.7595580  58.1491600  71.6829620  43.6446310
  63.5518000  73.7179220  45.0772300  62.7011590  73.4184970  45.3981370
  63.3919790  73.9621230  44.1656120  57.3802500  69.2512450  33.2246150
  56.7556680  69.2472320  33.9499460  57.2932620  68.3843410  32.8282120
  54.0557900  74.7535320  36.0721570  53.8298820  74.5372490  36.9768190
  53.2750430  75.1863780  35.7267540  49.1154930  73.9283150  30.1348420
  49.0329600  74.8713910  30.2763410  48.7637990  73.7858060  29.2560770
  56.9153060  72.6622180  39.2018770  56.9189120  72.2212130  38.3523310
  57.8104180  72.9839510  39.3090590  64.3672330  68.8533840  46.0475600
  64.6918100  68.1223500  46.5733580  64.4028840  68.5347480  45.1456590
  53.5342190  79.9693590  33.8635240  52.7604450  79.4291210  33.7033960
  54.2636820  79.4500200  33.5253000  53.5779590  79.6373970  37.5014050
  54.0958260  78.8342230  37.4470940  53.1263610  79.5753110  38.3430880
  58.4649090  80.9040250  32.7741350  58.8064790  81.6482480  32.2784670
  57.6361800  81.2171370  33.1366180  51.0624130  76.6035340  44.4139750
  50.7039070  77.2689190  45.0013090  50.7678690  75.7718890  44.7852370
  64.7402770  76.0428400  31.5633040  64.6566490  76.4742620  30.7129480
  65.4596960  76.5026750  31.9959860  65.7690020  82.8970660  34.2915170
  65.1266180  82.2426280  34.5658890  65.3820680  83.3025750  33.5155840
  57.4339780  80.9853780  35.5457270  58.1210910  81.5322990  35.9264860
  56.6472200  81.5294510  35.5806880  49.5732180  76.6026600  31.0374350
  50.4427030  76.8851400  31.3210270  49.0822500  77.4162470  30.9223160
  56.7366990  77.9899810  35.1582630  57.1929770  78.8005060  35.3842820
  56.3855200  77.6722950  35.9901120  64.1587400  81.7887120  30.8291520
  63.9324980  81.0717560  31.4216160  63.7683600  81.5399560  29.9913270
  49.9403430  85.8153980  31.6035980  50.3001070  86.4143320  30.9493250
  49.7995770  86.3613870  32.3771010  63.7403650  79.7059060  32.4905680
  63.4525350  80.1671750  33.2783560  64.5355820  79.2456830  32.7589900
  55.9572050  83.1985180  32.4209650  55.9482150  83.9314870  31.8054160
  55.0370410  82.9516760  32.5136610  51.5578690  78.4200070  33.1656410
  50.9506640  79.1598970  33.1751710  52.0328040  78.5099430  32.3394610
  61.1311480  72.5850890  42.8413300  61.4992300  71.7646100  43.1692870
  60.2709680  72.6452780  43.2568950  58.9431650  83.2613420  31.0834840
  59.0443630  83.0577410  30.1536820  58.0433390  83.0071700  31.2882620
  56.4657540  73.8193780  35.0658740  55.7573690  74.2880120  35.5072350
  56.7502020  73.1615790  35.7003930  65.2980330  71.4558440  43.9079660
  64.7953930  72.1963840  44.2473470  66.1136990  71.8442440  43.5916450
  53.5683980  78.3811220  30.9144980  54.3347250  78.2692580  31.4770410
  53.6458670  77.6849190  30.2621750  65.5927920  83.8700470  39.0295280
  65.7175340  84.6931640  39.5019090  66.4593480  83.6591200  38.6819430
  53.0645450  85.9631680  38.7012410  53.8007930  85.4147140  38.9720980
  53.4486370  86.8287690  38.5618400  49.9490930  82.0305250  34.5753920
  49.0230710  82.2726390  34.5659330  50.4147360  82.8579510  34.4538670
  56.1747760  85.1361990  30.5237980  56.9676370  85.4250820  30.0719770
  55.6552110  84.7054160  29.8450460  65.2277930  84.3632120  31.9474720
  64.9419440  83.9497260  31.1328900  65.0297480  85.2919830  31.8275240
  49.7901540  77.6351210  46.8334040  50.2940560  77.0558490  47.4050270
  49.0508960  77.9191440  47.3710410  56.6925160  80.3565400  30.3880330
  56.5875800  79.7417750  31.1141710  56.5249380  79.8331290  29.6043340
  59.9327890  79.4185430  30.9922320  59.3837990  79.8654730  31.6365060
  60.5547150  78.9134680  31.5159990  51.8224620  75.7780800  47.7284110
  51.8629960  75.4794670  48.6369340  52.6770120  76.1788410  47.5691630
  55.6003010  78.3776350  32.8887620  56.0219430  78.2116220  33.7319010
  55.7253850  77.5676580  32.3942760  53.7630430  74.3572900  45.6958600
  53.2326890  73.8663850  45.0681940  54.4318500  74.7857100  45.1616530
  58.1130650  77.4013960  30.1364720  58.6336310  76.6862980  29.7705870
  58.7599050  78.0399830  30.4365230  54.2502730  71.3235270  45.7755890
  54.1559600  70.7056020  45.0506760  53.6700120  72.0501560  45.5485800
  57.0164170  69.8808510  42.8083280  56.5681470  69.9032770  41.9628830
  56.3829370  69.4827530  43.4053580  56.5256390  73.0500370  46.0709380
  57.1156080  72.7416220  46.7587200  55.7076630  72.5780120  46.2269280
  61.9750220  69.2617810  32.3632660  62.2552510  68.4185710  32.7192080
  61.2015950  69.4940920  32.8771410  52.3174840  80.8552620  30.6553460
  52.7549710  81.3982290  31.3111040  52.8022570  80.0299570  30.6649800
  49.5320640  83.6441650  38.1073720  49.8623650  82.7762710  37.8752360
  49.9611640  83.8500170  38.9378680  54.1282560  81.9750660  35.7675690
  53.8278100  81.8515630  36.6679600  54.0220050  81.1159250  35.3591420
  50.0210850  84.5112240  40.8455350  49.5841840  84.6913040  41.6779500
  50.5888530  85.2686860  40.7037070  66.8974480  81.7547060  30.4702370
  66.0667440  81.8223710  30.9409600  67.0746310  82.6451180  30.1669230
  66.3530940  78.4994540  32.9736570  67.1149850  79.0691190  33.0796260
  66.3685310  77.9321740  33.7444880  49.8535280  77.0232470  37.2044230
  49.1984120  76.7544110  36.5603930  50.6913230  76.9136950  36.7546210
  67.3590910  79.3544640  37.8178500  67.7299740  78.5711960  37.4114470
  67.9992840  80.0433740  37.6395800  66.4050110  78.7928910  30.1309090
  66.6798950  79.7007790  30.0028310  66.2160850  78.7291440  31.0671080
  66.3015450  76.7297900  35.1238520  65.9259050  75.9625830  34.6919810
  65.5718570  77.1120600  35.6113450  50.8911210  77.4085040  41.7447570
  51.2584250  77.3212440  42.6243590  50.3222030  76.6451590  41.6454430
  50.4427210  74.3194130  45.6505990  49.5483260  74.2860890  45.9899700
  50.9824760  74.5180920  46.4157240  49.0673360  74.2331400  33.1469560
  48.1637440  74.4961600  32.9721220  49.5513980  74.5042570  32.3669520
  65.5766410  74.9555390  38.4245760  66.1003890  74.4618040  37.7935930
  66.1625830  75.0905750  39.1693330  65.7556130  75.0395260  41.9465310
  64.8058840  75.0058800  42.0610300  65.9369140  75.9495370  41.7115080
  51.6100570  73.2896940  31.0563940  52.3192270  72.8680160  30.5711220
  50.8940510  73.3572170  30.4247290  51.2574730  69.3436270  30.0966590
  51.9802860  69.8845210  30.4147810  51.5299250  69.0699690  29.2208130
  65.0666380  74.2128740  34.3638170  65.5625500  73.9799610  35.1487050
  64.8682450  73.3740580  33.9475810  64.8419260  68.7883820  43.3558850
  65.4791480  69.4017960  43.7218040  64.9894150  68.8244480  42.4108080
  67.3843810  70.6797610  30.1381990  68.3093120  70.5478790  29.9300280
  67.3619600  70.7590430  31.0918440  67.4582300  71.4508270  32.7638700
  66.6633800  71.3853390  33.2931610  67.6625580  72.3858910  32.7524050
  64.4000720  85.4899820  36.7577090  64.9959790  85.1684390  36.0811510
  64.6578870  85.0171640  37.5490360  58.2123740  69.9410010  46.2633950
  58.1512630  70.5331840  47.0129360  59.1524120  69.8335970  46.1184210
  60.8498300  69.5980070  45.9026240  61.4638710  69.9159360  45.2407320
  61.3947860  69.1128660  46.5222100  61.5906340  68.1612210  42.2295530
  60.7166180  68.4947320  42.0268460  61.4817090  67.6885390  43.0547400
  62.4978320  70.3683080  43.6137250  62.1691680  69.5534840  43.2338980
  63.4460620  70.3252890  43.4902940  55.3808650  84.4483360  39.7622950
  55.8973670  83.8370720  39.2371210  56.0306030  84.9512140  40.2533960
  59.3381160  69.0782050  41.1688440  58.5552950  69.5527550  41.4485200
  59.0444090  68.1736880  41.0601620  63.8902230  69.7805150  39.2137530
  64.3310320  69.7250250  38.3659130  63.6209820  70.6963160  39.2847710
  50.0593550  85.5512750  36.1870300  49.8915590  84.9183430  36.8852190
  49.1928060  85.7572150  35.8364490  50.6821570  69.3829530  33.6902160
  51.4400930  69.4958410  33.1166190  50.2198740  70.2198730  33.6445590
  57.2235380  71.4968800  36.6804470  56.4109890  71.1225690  36.3400350
  57.7277020  70.7413880  36.9825660  61.7260360  68.1611250  37.9187540
  62.3289730  68.7331460  38.3936060  60.9853350  68.7250690  37.6961440
  51.6656250  84.2445980  33.6320440  51.1403870  84.6254010  32.9282400
  51.5900830  84.8696750  34.3530150  53.0546720  69.9093580  32.2304130
  53.5839480  69.1223380  32.1012080  53.6875040  70.5884770  32.4639660
  55.2484560  69.6468720  35.2849520  54.6187300  68.9456030  35.4519650
  54.7089700  70.4072850  35.0682680  66.4221570  85.8033520  34.9534380
  66.5973760  85.1171260  34.3095300  65.7243140  86.3280570  34.5611050
  55.3740120  68.9252700  47.7202010  55.0924390  69.4286300  46.9562830
  55.7559820  68.1274450  47.3544140  54.2649220  86.1928360  32.5069690
  54.9968040  85.9087640  31.9593580  54.5242890  85.9541640  33.3969070
  53.4264010  82.3093090  32.5116020  52.7972890  82.7778190  33.0601850
  53.5411840  81.4642310  32.9462210  61.9755580  68.3406280  48.2982480
  61.8621030  68.6600890  49.1934000  62.7925320  68.7418790  48.0019760
  60.8813730  76.3598750  18.6617220  60.8007780  75.4453360  18.3908930
  60.4678150  76.8565820  17.9556930  59.0131770  78.1377770  20.5426490
  58.2373870  77.6578210  20.8325060  59.6644700  77.4583420  20.3682650
  53.0297600  78.4497580  21.4202250  52.1982480  78.1946290  21.8198760
  53.6378580  78.5208350  22.1560170  51.4389550  73.4099470  15.2044640
  50.5506250  73.7515440  15.1024520  51.7230740  73.2099790  14.3125470
  49.4022560  76.0105120  21.0884340  49.9738670  75.2427320  21.0887980
  49.4024100  76.3093880  20.1790950  50.6447430  71.4189480  22.8753270
  50.4650270  70.5215230  23.1556030  50.2427510  71.9661350  23.5500220
  59.4845930  73.6205340  20.7765580  59.8610750  72.7477220  20.6639250
  59.3865440  73.9564040  19.8856020  53.6150940  71.9930970  16.2383020
  53.7217690  72.8934700  16.5451780  52.7043300  71.9448940  15.9477670
  51.2634100  73.9149980  21.4835610  51.9444210  74.1788350  22.1023010
  50.9482150  73.0750850  21.8173620  55.4558670  74.9617340  20.5708200
  55.9636890  75.4598310  21.2113220  55.9871910  74.1852540  20.3947560
  53.7394770  69.6015900  24.8371620  53.7413210  70.1188290  24.0317520
  52.9099080  69.1246080  24.8141550  60.1265860  79.7135210  16.3361520
  59.5083130  80.1784660  15.7724240  60.6389110  80.4062690  16.7531030
  54.9897620  79.2411080  23.0145120  54.6567000  79.8680000  23.6566190
  55.1664300  79.7672960  22.2346790  53.4210100  71.3125860  22.8442070
  53.7626910  72.1567910  22.5495940  52.4825910  71.4609600  22.9607410
  49.4949060  80.3991740  13.7101150  49.1177040  80.8878840  12.9786050
  49.7522130  81.0717020  14.3407680  65.1194310  82.6731290  22.7448940
  64.4357830  83.3430400  22.7365610  65.6588600  82.8711940  21.9793800
  57.1037990  68.8008130  19.1686660  57.4112970  68.2455020  18.4522160
  56.1738690  68.9352590  18.9859650  62.0538490  79.4205260  22.7876730
  62.4707280  79.2065370  21.9530190  62.7778310  79.6778050  23.3585350
  59.4918750  76.8656960  15.9046780  58.5648030  76.7994340  16.1335250
  59.6443570  77.8037090  15.7902020  59.4787830  73.1373960  12.9013940
  58.5391500  73.2987920  12.9866400  59.7971090  73.8559640  12.3549930
  66.0000590  77.8192480  22.8792970  65.1719220  77.8885570  22.4043100
  66.5951070  78.4046790  22.4108800  63.5216040  78.4277260  16.4082030
  62.9028460  78.0896810  15.7608330  63.5040490  77.7837020  17.1161220
  55.0975390  77.3921700  18.6866510  54.6932390  76.6798950  18.1912410
  55.1838510  77.0474940  19.5754550  55.5657090  81.0789260  20.8505720
  55.2685380  80.4734730  20.1713500  56.5156910  81.1166570  20.7395080
  53.8104010  74.1664910  22.4665550  54.3618600  74.2760250  21.6918800
  54.3247520  74.5402510  23.1820780  63.6542700  84.6521130  24.5128820
  63.1773260  85.4593320  24.3201430  62.9704490  83.9999460  24.6655030
  61.6980740  77.6664070  13.4154780  62.1374020  76.8286500  13.2692600
  62.4109160  78.2993470  13.5018920  65.2797880  68.9206880  11.7295820
  64.9670540  69.0133710  12.6294890  66.0410350  69.4987910  11.6793250
  51.7980020  76.2866680  16.1873160  51.6777620  77.0128770  15.5754430
  51.4880910  75.5169590  15.7101070  67.2341910  84.4133070  29.5820210
  67.7101630  84.8915960  30.2609290  67.8549070  84.3450560  28.8565710
  49.4365390  79.4581820  21.9941800  49.5145810  79.5930590  21.0497520
  50.0507070  78.7497710  22.1869920  50.6813020  81.1582010  18.4047980
  50.2741100  81.2996600  17.5501580  51.5726030  80.8742170  18.2019190
  66.6375160  81.6045920  26.7420220  66.7638220  81.3657800  25.8237400
  66.6796540  80.7730460  27.2142300  54.9534680  85.3727790  16.5170650
  54.7777160  84.4563330  16.3038450  54.0990420  85.7315080  16.7568450
  66.4899170  73.6578380  27.7069960  65.8743440  74.1658050  27.1785420
  66.1695590  72.7576710  27.6495900  49.4924910  80.4995990  24.5336260
  49.6555950  80.0301350  23.7155630  49.9577360  79.9919550  25.1985100
  54.2643680  69.6301750  19.5696830  53.8211830  70.4111290  19.2381350
  54.8228670  69.9531640  20.2767770  63.5518000  73.7179220  26.3028810
  62.7011590  73.4184970  26.6237880  63.3919790  73.9621230  25.3912630
  60.6467710  75.2180970  28.4027600  60.9721120  74.3844720  28.0629830
  61.4348040  75.7409490  28.5505930  57.3802500  69.2512450  14.4502660
  56.7556680  69.2472320  15.1755970  57.2932620  68.3843410  14.0538630
  56.3019580  70.1749080  21.4286430  56.5991910  71.0811910  21.3478450
  56.8505140  69.6867860  20.8146000  54.0557900  74.7535320  17.2978080
  53.8298820  74.5372490  18.2024700  53.2750430  75.1863780  16.9524050
  61.2855660  74.7598690  15.8968730  60.6864550  75.4834490  15.7132350
  61.8335270  74.6975470  15.1145180  59.8920530  73.3962230  17.9272010
  60.2850100  73.7134430  17.1140700  60.2537380  72.5174110  18.0416530
  51.6267650  72.0634570  26.1172130  51.2331040  72.9109780  26.3244910
  50.9386050  71.4260940  26.3080770  48.9284700  69.9863030  20.1502210
  48.6397750  70.5565890  20.8627190  49.6730460  69.5067480  20.5133440
  49.1154930  73.9283150  11.3604930  49.0329600  74.8713910  11.5019920
  48.7637990  73.7858060  10.4817280  60.4775670  75.9867980  22.0222790
  59.7456790  76.4954790  22.3712890  60.0800010  75.1697960  21.7211570
  56.9153060  72.6622180  20.4275280  56.9189120  72.2212130  19.5779820
  57.8104180  72.9839510  20.5347100  52.7655440  72.5448670  19.3869490
  52.4255490  73.0223900  20.1436540  52.0032760  72.0913790  19.0270590
  56.9773210  73.6634260  13.4182040  57.0986030  73.6220740  14.3667860
  56.5921720  74.5258410  13.2628770  55.9894710  75.9735400  12.8165340
  55.4211610  75.5253650  12.1901250  56.6983710  76.3328180  12.2830490
  64.3672330  68.8533840  27.2732110  64.6918100  68.1223500  27.7990090
  64.4028840  68.5347480  26.3713100  57.2161030  76.7223960  22.1740690
  57.5831160  76.2482530  22.9202030  57.0266090  77.5965530  22.5149030
  50.0801520  71.4667650  18.3034160  49.7948440  71.1023320  19.1412780
  50.0180380  70.7348110  17.6897300  53.5342190  79.9693590  15.0891750
  52.7604450  79.4291210  14.9290470  54.2636820  79.4500200  14.7509510
  64.2930170  78.9658950  20.8818140  65.0129290  79.4614240  20.4914250
  64.0911990  78.2876840  20.2372010  59.7540110  70.3596910  15.0247530
  58.9404720  69.8610080  14.9492840  59.5602060  71.1995160  14.6083880
  62.4688500  74.7316560  13.3209690  63.3568120  75.0433790  13.1461030
  62.4393590  73.8588810  12.9290270  53.5779590  79.6373970  18.7270560
  54.0958260  78.8342230  18.6727450  53.1263610  79.5753110  19.5687390
  58.4649090  80.9040250  13.9997860  58.8064790  81.6482480  13.5041180
  57.6361800  81.2171370  14.3622690  51.0624130  76.6035340  25.6396260
  50.7039070  77.2689190  26.2269600  50.7678690  75.7718890  26.0108880
  64.7402770  76.0428400  12.7889550  64.6566490  76.4742620  11.9385990
  65.4596960  76.5026750  13.2216370  65.8176910  78.4995920  25.8659520
  65.0925100  79.0924700  25.6688910  66.3452370  78.4919460  25.0672890
  61.3476500  80.2256090  19.3643370  61.7000320  79.6284220  18.7044740
  60.4638830  79.9000320  19.5351620  49.5732180  76.6026600  12.2630860
  50.4427030  76.8851400  12.5466780  49.0822500  77.4162470  12.1479670
  56.7366990  77.9899810  16.3839140  57.1929770  78.8005060  16.6099330
  56.3855200  77.6722950  17.2157630  52.6378770  68.3337460  16.8561660
  52.5093400  68.3255360  17.8046580  51.8140790  68.6720550  16.5052670
  64.1587400  81.7887120  12.0548030  63.9324980  81.0717560  12.6472670
  63.7683600  81.5399560  11.2169780  49.9403430  85.8153980  12.8292490
  50.3001070  86.4143320  12.1749760  49.7995770  86.3613870  13.6027520
  49.6372700  70.0928580  26.3168360  48.9231220  70.2925500  26.9220970
  50.0567740  69.3168150  26.6883160  63.7403650  79.7059060  13.7162190
  63.4525350  80.1671750  14.5040070  64.5355820  79.2456830  13.9846410
  55.9572050  83.1985180  13.6466160  55.9482150  83.9314870  13.0310670
  55.0370410  82.9516760  13.7393120  51.5578690  78.4200070  14.3912920
  50.9506640  79.1598970  14.4008220  52.0328040  78.5099430  13.5651120
  61.1311480  72.5850890  24.0669810  61.4992300  71.7646100  24.3949380
  60.2709680  72.6452780  24.4825460  64.4973510  71.5407830  14.8757370
  63.8686670  71.6453500  14.1615600  64.0025430  71.7604610  15.6651250
  56.4657540  73.8193780  16.2915250  55.7573690  74.2880120  16.7328860
  56.7502020  73.1615790  16.9260440  60.4972970  70.5444440  17.7311040
  60.3740750  70.5630570  16.7820550  61.4457530  70.5923380  17.8509440
  54.6692560  72.1278860  13.6665960  55.5183090  72.5649010  13.6006150
  54.3023830  72.4399120  14.4938020  63.5902340  76.6991620  18.5797530
  62.6492480  76.7141850  18.7545220  63.9046410  75.9127580  19.0257830
  53.5683980  78.3811220  12.1401490  54.3347250  78.2692580  12.7026920
  53.6458670  77.6849190  11.4878260  52.2630740  75.8136290  12.8234380
  52.3434330  74.8663800  12.9351780  53.1550490  76.1443170  12.9295040
  65.5927920  83.8700470  20.2551790  65.7175340  84.6931640  20.7275600
  66.4593480  83.6591200  19.9075940  53.0645450  85.9631680  19.9268920
  53.8007930  85.4147140  20.1977490  53.4486370  86.8287690  19.7874910
  49.9490930  82.0305250  15.8010430  49.0230710  82.2726390  15.7915840
  50.4147360  82.8579510  15.6795180  56.1747760  85.1361990  11.7494490
  56.9676370  85.4250820  11.2976280  55.6552110  84.7054160  11.0706970
  62.3368730  84.9837910  27.6739320  63.2890480  84.8995930  27.6239560
  62.1896950  85.6479620  28.3473110  65.2277930  84.3632120  13.1731230
  64.9419440  83.9497260  12.3585410  65.0297480  85.2919830  13.0531750
  49.7901540  77.6351210  28.0590550  50.2940560  77.0558490  28.6306780
  49.0508960  77.9191440  28.5966920  56.6925160  80.3565400  11.6136840
  56.5875800  79.7417750  12.3398220  56.5249380  79.8331290  10.8299850
  56.8439480  79.0422200  27.5926070  56.0785150  79.6107200  27.5080740
  57.0255440  78.7498410  26.6994300  59.9327890  79.4185430  12.2178830
  59.3837990  79.8654730  12.8621570  60.5547150  78.9134680  12.7416500
  63.9862830  80.7727530  28.1501090  64.7272300  81.1103290  27.6468550
  63.2235510  80.9419590  27.5970860  55.6003010  78.3776350  14.1144130
  56.0219430  78.2116220  14.9575520  55.7253850  77.5676580  13.6199270
  58.1130650  77.4013960  11.3621230  58.6336310  76.6862980  10.9962380
  58.7599050  78.0399830  11.6621740  62.6608490  78.8242360  26.6856300
  63.0749510  78.9787440  27.5346720  61.7259490  78.9497580  26.8482080
  63.1330660  76.1638520  28.6895450  63.7151430  75.4090840  28.6015930
  63.3092430  76.6945960  27.9126930  57.0164170  69.8808510  24.0339790
  56.5681470  69.9032770  23.1885340  56.3829370  69.4827530  24.6310090
  57.4223720  78.7762840  24.6552230  57.8411830  79.6195570  24.4828470
  56.5032350  78.9134880  24.4259010  59.7587620  76.5079020  26.0390070
  59.8783830  75.9120160  26.7784910  60.6181620  76.5448710  25.6191370
  62.0975520  77.0616210  24.6152580  61.5710740  77.5858830  24.0117720
  62.4406860  77.6943600  25.2462310  54.4961910  74.4509580  11.0602290
  54.2950970  73.5876940  11.4215630  54.3253960  74.3642940  10.1223890
  61.3449820  72.6666180  27.5298910  60.6565340  72.0047720  27.4648900
  62.0655840  72.2204450  27.9747370  61.9750220  69.2617810  13.5889170
  62.2552510  68.4185710  13.9448590  61.2015950  69.4940920  14.1027920
  53.2944710  71.5510200  11.0480170  53.5970610  71.5577630  10.1399320
  54.0339300  71.2008060  11.5447830  56.5129640  70.4944820  12.0336370
  56.1651640  69.8168810  11.4538820  56.7142410  70.0334330  12.8479760
  58.6778680  85.4825570  13.6522970  59.5729470  85.8210540  13.6741730
  58.7096310  84.7604980  13.0247250  52.3174840  80.8552620  11.8809970
  52.7549710  81.3982290  12.5367550  52.8022570  80.0299570  11.8906310
  49.5320640  83.6441650  19.3330230  49.8623650  82.7762710  19.1008870
  49.9611640  83.8500170  20.1635190  54.1282560  81.9750660  16.9932200
  53.8278100  81.8515630  17.8936110  54.0220050  81.1159250  16.5847930
  65.6573030  84.0129240  26.3589170  65.0575020  84.0721800  25.6153090
  65.7866930  83.0734220  26.4886020  66.8974480  81.7547060  11.6958880
  66.0667440  81.8223710  12.1666110  67.0746310  82.6451180  11.3925740
  49.8535280  77.0232470  18.4300740  49.1984120  76.7544110  17.7860440
  50.6913230  76.9136950  17.9802720  67.3590910  79.3544640  19.0435010
  67.7299740  78.5711960  18.6370980  67.9992840  80.0433740  18.8652310
  64.3424670  80.7381220  24.4565330  63.5284510  81.1678380  24.7191120
  64.7498870  81.3499630  23.8434380  66.4050110  78.7928910  11.3565600
  66.6798950  79.7007790  11.2284820  66.2160850  78.7291440  12.2927590
  62.8025720  71.8173760  12.6519230  63.2210600  71.6304740  11.8115890
  62.4961780  70.9652810  12.9622160  66.3015450  76.7297900  16.3495030
  65.9259050  75.9625830  15.9176320  65.5718570  77.1120600  16.8369960
  50.8911210  77.4085040  22.9704080  51.2584250  77.3212440  23.8500100
  50.3222030  76.6451590  22.8710940  65.6915070  75.8769420  25.9834550
  65.4601160  75.6482170  25.0832500  65.9519620  76.7968970  25.9379440
  50.4427210  74.3194130  26.8762500  49.5483260  74.2860890  27.2156210
  50.9824760  74.5180920  27.6413750  64.1303140  71.1025850  28.7614250
  65.0073320  71.1109250  29.1448250  64.1423980  70.3656690  28.1506600
  49.0673360  74.2331400  14.3726070  48.1637440  74.4961600  14.1977730
  49.5513980  74.5042570  13.5926030  51.6100570  73.2896940  12.2820450
  52.3192270  72.8680160  11.7967730  50.8940510  73.3572170  11.6503800
  51.2574730  69.3436270  11.3223100  51.9802860  69.8845210  11.6404320
  51.5299250  69.0699690  10.4464640  65.0666380  74.2128740  15.5894680
  65.5625500  73.9799610  16.3743560  64.8682450  73.3740580  15.1732320
  50.9466920  68.5942460  21.2245720  51.5943110  68.0439840  20.7840880
  51.3668760  68.8485610  22.0461530  64.8419260  68.7883820  24.5815360
  65.4791480  69.4017960  24.9474550  64.9894150  68.8244480  23.6364590
  67.3843810  70.6797610  11.3638500  68.3093120  70.5478790  11.1556790
  67.3619600  70.7590430  12.3174950  67.4582300  71.4508270  13.9895210
  66.6633800  71.3853390  14.5188120  67.6625580  72.3858910  13.9780560
  50.6998920  68.7498130  23.9671040  50.3513740  69.2061950  24.7329220
  50.3686620  67.8555260  24.0493470  60.8498300  69.5980070  27.1282750
  61.4638710  69.9159360  26.4663830  61.3947860  69.1128660  27.7478610
  67.2673480  85.4971700  24.5344590  66.7731760  85.8940570  23.8171720
  66.6586770  84.8720910  24.9281870  51.3719560  68.2774330  27.2421810
  51.9202550  68.0962380  26.4787920  51.4374870  67.4868440  27.7778120
  61.5906340  68.1612210  23.4552040  60.7166180  68.4947320  23.2524970
  61.4817090  67.6885390  24.2803910  62.4978320  70.3683080  24.8393760
  62.1691680  69.5534840  24.4595490  63.4460620  70.3252890  24.7159450
  64.9512930  86.1395120  21.8131330  64.4915900  86.8910930  21.4389350
  64.3225390  85.4201590  21.7546130  59.3381160  69.0782050  22.3944950
  58.5552950  69.5527550  22.6741710  59.0444090  68.1736880  22.2858130
  50.0593550  85.5512750  17.4126810  49.8915590  84.9183430  18.1108700
  49.1928060  85.7572150  17.0621000  50.6821570  69.3829530  14.9158670
  51.4400930  69.4958410  14.3422700  50.2198740  70.2198730  14.8702100
  57.2235380  71.4968800  17.9060980  56.4109890  71.1225690  17.5656860
  57.7277020  70.7413880  18.2082170  61.7260360  68.1611250  19.1444050
  62.3289730  68.7331460  19.6192570  60.9853350  68.7250690  18.9217950
  64.8694960  68.5632810  14.4184330  65.0645590  69.4616260  14.6851760
  64.0824830  68.3319890  14.9117280  51.6656250  84.2445980  14.8576950
  51.1403870  84.6254010  14.1538910  51.5900830  84.8696750  15.5786660
  53.0546720  69.9093580  13.4560640  53.5839480  69.1223380  13.3268590
  53.6875040  70.5884770  13.6896170  55.2484560  69.6468720  16.5106030
  54.6187300  68.9456030  16.6776160  54.7089700  70.4072850  16.2939190
  58.1876510  86.2607950  29.1816640  59.1143820  86.0252220  29.2252600
  58.1726940  87.0879950  28.7002670  66.4221570  85.8033520  16.1790890
  66.5973760  85.1171260  15.5351810  65.7243140  86.3280570  15.7867560
  54.2649220  86.1928360  13.7326200  54.9968040  85.9087640  13.1850090
  54.5242890  85.9541640  14.6225580  53.4264010  82.3093090  13.7372530
  52.7972890  82.7778190  14.2858360  53.5411840  81.4642310  14.1718720
  61.9755580  68.3406280  29.5238990  61.8621030  68.6600890  30.4190510
  62.7925320  68.7418790  29.2276270  64.7554070  85.4877810  29.0057680
  65.5479390  84.9927040  28.7983640  65.0487220  86.1667950  29.6133290
  59.0131770  78.1377770   1.7683000  58.2373870  77.6578210   2.0581570
  59.6644700  77.4583420   1.5939160  53.0297600  78.4497580   2.6458760
  52.1982480  78.1946290   3.0455270  53.6378580  78.5208350   3.3816680
  53.0098860  82.4837670   2.8416780  53.3126900  81.5935410   2.6627000
  53.7542450  83.0407890   2.6139030  58.4540760  80.8134960   1.7753160
  58.3849040  79.8724900   1.6142290  59.2160620  80.9036370   2.3475730
  50.6447430  71.4189480   4.1009780  50.4650270  70.5215230   4.3812540
  50.2427510  71.9661350   4.7756730  51.2634100  73.9149980   2.7092120
  51.9444210  74.1788350   3.3279520  50.9482150  73.0750850   3.0430130
  55.4558670  74.9617340   1.7964710  55.9636890  75.4598310   2.4369730
  55.9871910  74.1852540   1.6204070  67.5569600  73.1322530   5.4994060
  66.8521770  73.5204240   4.9809170  67.8227520  73.8272820   6.1014990
  53.7394770  69.6015900   6.0628130  53.7413210  70.1188290   5.2574030
  52.9099080  69.1246080   6.0398060  54.9897620  79.2411080   4.2401630
  54.6567000  79.8680000   4.8822700  55.1664300  79.7672960   3.4603300
  53.4210100  71.3125860   4.0698580  53.7626910  72.1567910   3.7752450
  52.4825910  71.4609600   4.1863920  54.2016720  81.2091880   6.0550810
  54.8190720  81.8842960   5.7735260  53.3409840  81.6179860   5.9638310
  65.1194310  82.6731290   3.9705450  64.4357830  83.3430400   3.9622120
  65.6588600  82.8711940   3.2050310  66.5718450  72.5010950   2.0987180
  65.6243360  72.5349930   2.2302610  66.8968440  73.3149900   2.4836540
  62.6553050  84.5175420   2.6850630  62.6680210  84.1137710   1.8172890
  62.1028270  85.2922710   2.5812060  62.0538490  79.4205260   4.0133240
  62.4707280  79.2065370   3.1786700  62.7778310  79.6778050   4.5841860
  66.0000590  77.8192480   4.1049480  65.1719220  77.8885570   3.6299610
  66.5951070  78.4046790   3.6365310  62.9642600  74.6061800   5.0504350
  62.5513780  75.4315510   5.3044340  62.2318550  74.0206840   4.8580710
  53.8104010  74.1664910   3.6922060  54.3618600  74.2760250   2.9175310
  54.3247520  74.5402510   4.4077290  63.6542700  84.6521130   5.7385330
  63.1773260  85.4593320   5.5457940  62.9704490  83.9999460   5.8911540
  54.6575520  80.8170950   8.7270030  53.7604050  81.0410920   8.9743430
  54.6828390  80.9405890   7.7781430  53.4846740  77.6884270   7.3027400
  53.3454510  78.5607070   7.6714800  52.6028100  77.3457080   7.1575340
  55.2827090  83.6305970   9.5112550  55.2542520  84.0348920   8.6440980
  55.1192060  82.7016330   9.3484150  67.2341910  84.4133070  10.8076720
  67.7101630  84.8915960  11.4865800  67.8549070  84.3450560  10.0822220
  49.4365390  79.4581820   3.2198310  49.5145810  79.5930590   2.2754030
  50.0507070  78.7497710   3.4126430  66.6375160  81.6045920   7.9676730
  66.7638220  81.3657800   7.0493910  66.6796540  80.7730460   8.4398810
  60.4991900  85.3073920   6.5371540  61.0136570  85.2181930   7.3393970
  59.6560980  85.6533620   6.8299450  66.4899170  73.6578380   8.9326470
  65.8743440  74.1658050   8.4041930  66.1695590  72.7576710   8.8752410
  49.4924910  80.4995990   5.7592770  49.6555950  80.0301350   4.9412140
  49.9577360  79.9919550   6.4241610  58.5513490  72.4970270   6.3988660
  58.0892860  72.7053290   7.2108600  58.1491600  71.6829620   6.0959330
  63.5518000  73.7179220   7.5285320  62.7011590  73.4184970   7.8494390
  63.3919790  73.9621230   6.6169140  60.6467710  75.2180970   9.6284110
  60.9721120  74.3844720   9.2886340  61.4348040  75.7409490   9.7762440
  56.3019580  70.1749080   2.6542940  56.5991910  71.0811910   2.5734960
  56.8505140  69.6867860   2.0402510  56.4957110  75.6520900   9.1894860
  56.4000710  74.7115630   9.0395260  57.3389090  75.8735970   8.7942930
  51.6267650  72.0634570   7.3428640  51.2331040  72.9109780   7.5501420
  50.9386050  71.4260940   7.5337280  58.2012700  72.1469540  10.4125380
  57.5111020  71.9541740  11.0471470  58.9445000  72.4304180  10.9449680
  60.4775670  75.9867980   3.2479300  59.7456790  76.4954790   3.5969400
  60.0800010  75.1697960   2.9468080  60.9401580  71.4401660   2.6602240
  60.9574320  71.8910310   3.5044090  60.6917160  70.5407300   2.8735680
  64.3672330  68.8533840   8.4988620  64.6918100  68.1223500   9.0246600
  64.4028840  68.5347480   7.5969610  51.0663890  79.8747420   7.9188580
  50.6818680  79.2341090   8.5171540  51.3776080  80.5783540   8.4883310
  57.2161030  76.7223960   3.3997200  57.5831160  76.2482530   4.1458540
  57.0266090  77.5965530   3.7405540  55.0060400  75.7632600   5.7181410
  54.7017470  76.6424580   5.9431770  55.9606860  75.8232390   5.7538850
  64.2930170  78.9658950   2.1074650  65.0129290  79.4614240   1.7170760
  64.0911990  78.2876840   1.4628520  59.6748970  79.0368010   7.9943650
  59.6086280  78.1163680   7.7401240  59.0454110  79.1343450   8.7088290
  51.0624130  76.6035340   6.8652770  50.7039070  77.2689190   7.4526110
  50.7678690  75.7718890   7.2365390  54.2637250  77.0619580   9.7492320
  53.9637390  77.2076760   8.8520140  55.0348490  76.5024870   9.6565710
  59.6065700  81.8588580   7.7447450  59.6210240  80.9269540   7.5266360
  58.8990800  81.9448340   8.3837220  65.8176910  78.4995920   7.0916030
  65.0925100  79.0924700   6.8945420  66.3452370  78.4919460   6.2929400
  59.0399600  83.5006150   4.8387950  59.6841820  83.7065530   5.5161370
  59.4029040  82.7394550   4.3858800  60.3131680  81.5038500   3.5565400
  60.9553910  80.8031660   3.6697570  60.8381030  82.2836940   3.3762290
  62.0869300  82.3033400   6.7601460  62.4225540  82.8900090   7.4379380
  61.1669640  82.1726110   6.9899250  49.6372700  70.0928580   7.5424870
  48.9231220  70.2925500   8.1477480  50.0567740  69.3168150   7.9139670
  49.9245290  84.0808840   8.5291400  50.0336410  83.1403580   8.3886790
  49.2725850  84.3463590   7.8805130  57.9157880  82.3524730   9.9289520
  57.5954750  81.6333970  10.4735210  57.2416240  83.0279800  10.0025580
  61.1311480  72.5850890   5.2926320  61.4992300  71.7646100   5.6205890
  60.2709680  72.6452780   5.7081970  58.0913470  75.2390480   5.5164290
  58.5898720  75.7136300   6.1816140  58.2336420  74.3154000   5.7234320
  65.2980330  71.4558440   6.3592680  64.7953930  72.1963840   6.6986490
  66.1136990  71.8442440   6.0429470  52.0703730  85.1477750  10.3411010
  52.8716460  85.4689800  10.7546410  51.5555550  84.7873330  11.0630920
  60.9068360  81.2557620  10.2886420  60.3006520  81.2789220   9.5482170
  60.6022470  80.5240660  10.8253670  62.3368730  84.9837910   8.8995830
  63.2890480  84.8995930   8.8496070  62.1896950  85.6479620   9.5729620
  49.7901540  77.6351210   9.2847060  50.2940560  77.0558490   9.8563290
  49.0508960  77.9191440   9.8223430  56.8439480  79.0422200   8.8182580
  56.0785150  79.6107200   8.7337250  57.0255440  78.7498410   7.9250810
  63.9862830  80.7727530   9.3757600  64.7272300  81.1103290   8.8725060
  63.2235510  80.9419590   8.8227370  51.8224620  75.7780800  10.1797130
  51.8629960  75.4794670  11.0882360  52.6770120  76.1788410  10.0204650
  53.7630430  74.3572900   8.1471620  53.2326890  73.8663850   7.5194960
  54.4318500  74.7857100   7.6129550  62.6608490  78.8242360   7.9112810
  63.0749510  78.9787440   8.7603230  61.7259490  78.9497580   8.0738590
  63.1330660  76.1638520   9.9151960  63.7151430  75.4090840   9.8272440
  63.3092430  76.6945960   9.1383440  54.2502730  71.3235270   8.2268910
  54.1559600  70.7056020   7.5019780  53.6700120  72.0501560   7.9998820
  57.0164170  69.8808510   5.2596300  56.5681470  69.9032770   4.4141850
  56.3829370  69.4827530   5.8566600  57.4223720  78.7762840   5.8808740
  57.8411830  79.6195570   5.7084980  56.5032350  78.9134880   5.6515520
  59.7587620  76.5079020   7.2646580  59.8783830  75.9120160   8.0041420
  60.6181620  76.5448710   6.8447880  62.0975520  77.0616210   5.8409090
  61.5710740  77.5858830   5.2374230  62.4406860  77.6943600   6.4718820
  55.2731140  85.0815850   6.9966470  54.7352230  85.8061910   6.6775170
  55.5265100  84.6046190   6.2063810  56.5256390  73.0500370   8.5222400
  57.1156080  72.7416220   9.2100220  55.7076630  72.5780120   8.6782300
  61.3449820  72.6666180   8.7555420  60.6565340  72.0047720   8.6905410
  62.0655840  72.2204450   9.2003880  58.1293350  86.3167060   7.2553120
  58.0552050  87.2202200   7.5625490  57.2272190  85.9978960   7.2275190
  50.0210850  84.5112240   3.2968370  49.5841840  84.6913040   4.1292520
  50.5888530  85.2686860   3.1550090  65.6573030  84.0129240   7.5845680
  65.0575020  84.0721800   6.8409600  65.7866930  83.0734220   7.7142530
  64.3424670  80.7381220   5.6821840  63.5284510  81.1678380   5.9447630
  64.7498870  81.3499630   5.0690890  50.8911210  77.4085040   4.1960590
  51.2584250  77.3212440   5.0756610  50.3222030  76.6451590   4.0967450
  65.6915070  75.8769420   7.2091060  65.4601160  75.6482170   6.3089010
  65.9519620  76.7968970   7.1635950  50.4427210  74.3194130   8.1019010
  49.5483260  74.2860890   8.4412720  50.9824760  74.5180920   8.8670260
  64.1303140  71.1025850   9.9870760  65.0073320  71.1109250  10.3704760
  64.1423980  70.3656690   9.3763110  65.7556130  75.0395260   4.3978330
  64.8058840  75.0058800   4.5123320  65.9369140  75.9495370   4.1628100
  50.9466920  68.5942460   2.4502230  51.5943110  68.0439840   2.0097390
  51.3668760  68.8485610   3.2718040  64.8419260  68.7883820   5.8071870
  65.4791480  69.4017960   6.1731060  64.9894150  68.8244480   4.8621100
  50.6998920  68.7498130   5.1927550  50.3513740  69.2061950   5.9585730
  50.3686620  67.8555260   5.2749980  52.3063290  81.9217730   9.3580740
  52.2632920  81.5510640  10.2395200  52.4374300  82.8595300   9.4982560
  56.0069320  83.4777320   4.9590460  55.7660680  83.7451880   4.0720980
  56.9471960  83.6483050   5.0141320  58.2123740  69.9410010   8.7146970
  58.1512630  70.5331840   9.4642380  59.1524120  69.8335970   8.5697230
  60.8498300  69.5980070   8.3539260  61.4638710  69.9159360   7.6920340
  61.3947860  69.1128660   8.9735120  67.2673480  85.4971700   5.7601100
  66.7731760  85.8940570   5.0428230  66.6586770  84.8720910   6.1538380
  51.3719560  68.2774330   8.4678320  51.9202550  68.0962380   7.7044430
  51.4374870  67.4868440   9.0034630  52.1451320  84.8679980   6.4778520
  51.5511640  84.7364680   7.2168560  52.1375160  84.0318120   6.0120620
  61.5906340  68.1612210   4.6808550  60.7166180  68.4947320   4.4781480
  61.4817090  67.6885390   5.5060420  62.4978320  70.3683080   6.0650270
  62.1691680  69.5534840   5.6852000  63.4460620  70.3252890   5.9415960
  64.9512930  86.1395120   3.0387840  64.4915900  86.8910930   2.6645860
  64.3225390  85.4201590   2.9802640  51.7763550  82.2338360   5.4286560
  51.0497610  81.6143650   5.3612510  51.8372700  82.6278970   4.5584640
  55.3808650  84.4483360   2.2135970  55.8973670  83.8370720   1.6884230
  56.0306030  84.9512140   2.7046980  58.1204150  85.3391850   3.0404950
  58.4081960  85.0846150   2.1637960  58.6327370  84.7869210   3.6310520
  59.3381160  69.0782050   3.6201460  58.5552950  69.5527550   3.8998220
  59.0444090  68.1736880   3.5114640  58.1876510  86.2607950  10.4073150
  59.1143820  86.0252220  10.4509110  58.1726940  87.0879950   9.9259180
  55.3740120  68.9252700  10.1715030  55.0924390  69.4286300   9.4075850
  55.7559820  68.1274450   9.8057160  61.9755580  68.3406280  10.7495500
  61.8621030  68.6600890  11.6447020  62.7925320  68.7418790  10.4532780
  64.7554070  85.4877810  10.2314190  65.5479390  84.9927040  10.0240150
  65.0487220  86.1667950  10.8389800  60.8813730  57.5855260 150.0821650
  60.8007780  56.6709870 149.8113360  60.4678150  58.0822330 149.3761360
  63.0339200  63.7694470 150.7430050  62.5720730  62.9981710 151.0717220
  63.8464750  63.7960540 151.2482500  51.4389550  54.6355980 146.6249070
  50.5506250  54.9771950 146.5228950  51.7230740  54.4356300 145.7329900
  59.2602510  66.0552480 150.3634040  58.6413950  66.5109980 149.7928480
  60.1154290  66.2103940 149.9623740  53.6150940  53.2187480 147.6587450
  53.7217690  54.1191210 147.9656210  52.7043300  53.1705450 147.3682100
  63.2670050  52.3412290 149.1298350  64.0879670  51.8508860 149.1723830
  63.3004130  52.9309950 149.8830190  60.1265860  60.9391720 147.7565950
  59.5083130  61.4041170 147.1928670  60.6389110  61.6319200 148.1735460
  49.4949060  61.6248250 145.1305580  49.1177040  62.1135350 144.3990480
  49.7522130  62.2973530 145.7612110  57.1037990  50.0264640 150.5891090
  57.4112970  49.4711530 149.8726590  56.1738690  50.1609100 150.4064080
  63.9498470  62.4648150 147.9688720  63.8394800  61.5222480 148.0938140
  63.9466720  62.8263790 148.8551480  59.4918750  58.0913470 147.3251210
  58.5648030  58.0250850 147.5539680  59.6443570  59.0293600 147.2106450
  59.4787830  54.3630470 144.3218370  58.5391500  54.5244430 144.4070830
  59.7971090  55.0816150 143.7754360  63.5216040  59.6533770 147.8286460
  62.9028460  59.3153320 147.1812760  63.5040490  59.0093530 148.5365650
  55.0975390  58.6178210 150.1070940  54.6932390  57.9055460 149.6116840
  55.1838510  58.2731450 150.9958980  61.6980740  58.8920580 144.8359210
  62.1374020  58.0543010 144.6897030  62.4109160  59.5249980 144.9223350
  59.8076120  63.8316650 148.8040450  60.2472030  64.5740980 148.3895840
  59.7463010  64.0743220 149.7279410  65.2797880  50.1463390 143.1500250
  64.9670540  50.2390220 144.0499320  66.0410350  50.7244420 143.0997680
  51.7980020  57.5123190 147.6077590  51.6777620  58.2385280 146.9958860
  51.4880910  56.7426100 147.1305500  50.6813020  62.3838520 149.8252410
  50.2741100  62.5253110 148.9706010  51.5726030  62.0998680 149.6223620
  62.4746300  66.8185770 146.1603460  62.3147440  66.5288710 147.0585290
  62.3093010  66.0425900 145.6248690  54.9534680  66.5984300 147.9375080
  54.7777160  65.6819840 147.7242880  54.0990420  66.9571590 148.1772880
  62.1772430  64.3273330 144.7201460  61.4837590  64.3250620 144.0603740
  62.9195290  63.9032650 144.2895630  61.7422360  65.9536040 148.7949950
  62.1979310  65.1725420 149.1088570  62.0814880  66.6642860 149.3391130
  54.2643680  50.8558260 150.9901260  53.8211830  51.6367800 150.6585780
  54.8228670  51.1788150 151.6972200  57.3802500  50.4768960 145.8707090
  56.7556680  50.4728830 146.5960400  57.2932620  49.6099920 145.4743060
  54.0557900  55.9791830 148.7182510  53.8298820  55.7629000 149.6229130
  53.2750430  56.4120290 148.3728480  61.2855660  55.9855200 147.3173160
  60.6864550  56.7091000 147.1336780  61.8335270  55.9231980 146.5349610
  59.8920530  54.6218740 149.3476440  60.2850100  54.9390940 148.5345130
  60.2537380  53.7430620 149.4620960  49.1154930  55.1539660 142.7809360
  49.0329600  56.0970420 142.9224350  48.7637990  55.0114570 141.9021710
  52.7655440  53.7705180 150.8073920  52.4255490  54.2480410 151.5640970
  52.0032760  53.3170300 150.4475020  56.9773210  54.8890770 144.8386470
  57.0986030  54.8477250 145.7872290  56.5921720  55.7514920 144.6833200
  55.9894710  57.1991910 144.2369770  55.4211610  56.7510160 143.6105680
  56.6983710  57.5584690 143.7034920  50.0801520  52.6924160 149.7238590
  49.7948440  52.3279830 150.5617210  50.0180380  51.9604620 149.1101730
  53.5342190  61.1950100 146.5096180  52.7604450  60.6547720 146.3494900
  54.2636820  60.6756710 146.1713940  59.7540110  51.5853420 146.4451960
  58.9404720  51.0866590 146.3697270  59.5602060  52.4251670 146.0288310
  62.4688500  55.9573070 144.7414120  63.3568120  56.2690300 144.5665460
  62.4393590  55.0845320 144.3494700  53.5779590  60.8630480 150.1474990
  54.0958260  60.0598740 150.0931880  53.1263610  60.8009620 150.9891820
  58.4649090  62.1296760 145.4202290  58.8064790  62.8738990 144.9245610
  57.6361800  62.4427880 145.7827120  64.7402770  57.2684910 144.2093980
  64.6566490  57.6999130 143.3590420  65.4596960  57.7283260 144.6420800
  65.7690020  64.1227170 146.9376110  65.1266180  63.4682790 147.2119830
  65.3820680  64.5282260 146.1616780  61.3476500  61.4512600 150.7847800
  61.7000320  60.8540730 150.1249170  60.4638830  61.1256830 150.9556050
  57.4339780  62.2110290 148.1918210  58.1210910  62.7579500 148.5725800
  56.6472200  62.7551020 148.2267820  49.5732180  57.8283110 143.6835290
  50.4427030  58.1107910 143.9671210  49.0822500  58.6418980 143.5684100
  56.7366990  59.2156320 147.8043570  57.1929770  60.0261570 148.0303760
  56.3855200  58.8979460 148.6362060  52.6378770  49.5593970 148.2766090
  52.5093400  49.5511870 149.2251010  51.8140790  49.8977060 147.9257100
  64.1587400  63.0143630 143.4752460  63.9324980  62.2974070 144.0677100
  63.7683600  62.7656070 142.6374210  49.9403430  67.0410490 144.2496920
  50.3001070  67.6399830 143.5954190  49.7995770  67.5870380 145.0231950
  63.7403650  60.9315570 145.1366620  63.4525350  61.3928260 145.9244500
  64.5355820  60.4713340 145.4050840  55.9572050  64.4241690 145.0670590
  55.9482150  65.1571380 144.4515100  55.0370410  64.1773270 145.1597550
  51.5578690  59.6456580 145.8117350  50.9506640  60.3855480 145.8212650
  52.0328040  59.7355940 144.9855550  64.4973510  52.7664340 146.2961800
  63.8686670  52.8710010 145.5820030  64.0025430  52.9861120 147.0855680
  58.9431650  64.4869930 143.7295780  59.0443630  64.2833920 142.7997760
  58.0433390  64.2328210 143.9343560  56.4657540  55.0450290 147.7119680
  55.7573690  55.5136630 148.1533290  56.7502020  54.3872300 148.3464870
  60.4972970  51.7700950 149.1515470  60.3740750  51.7887080 148.2024980
  61.4457530  51.8179890 149.2713870  57.5849760  67.0056250 148.4243450
  57.8391260  66.9677640 147.5022820  56.6362240  66.8789580 148.4171700
  54.6692560  53.3535370 145.0870390  55.5183090  53.7905520 145.0210580
  54.3023830  53.6655630 145.9142450  63.5902340  57.9248130 150.0001960
  62.6492480  57.9398360 150.1749650  63.9046410  57.1384090 150.4462260
  53.5683980  59.6067730 143.5605920  54.3347250  59.4949090 144.1231350
  53.6458670  58.9105700 142.9082690  52.2630740  57.0392800 144.2438810
  52.3434330  56.0920310 144.3556210  53.1550490  57.3699680 144.3499470
  53.0645450  67.1888190 151.3473350  53.8007930  66.6403650 151.6181920
  53.4486370  68.0544200 151.2079340  49.9490930  63.2561760 147.2214860
  49.0230710  63.4982900 147.2120270  50.4147360  64.0836020 147.0999610
  56.1747760  66.3618500 143.1698920  56.9676370  66.6507330 142.7180710
  55.6552110  65.9310670 142.4911400  65.2277930  65.5888630 144.5935660
  64.9419440  65.1753770 143.7789840  65.0297480  66.5176340 144.4736180
  56.6925160  61.5821910 143.0341270  56.5875800  60.9674260 143.7602650
  56.5249380  61.0587800 142.2504280  59.9327890  60.6441940 143.6383260
  59.3837990  61.0911240 144.2826000  60.5547150  60.1391190 144.1620930
  55.6003010  59.6032860 145.5348560  56.0219430  59.4372730 146.3779950
  55.7253850  58.7933090 145.0403700  58.1130650  58.6270470 142.7825660
  58.6336310  57.9119490 142.4166810  58.7599050  59.2656340 143.0826170
  54.4961910  55.6766090 142.4806720  54.2950970  54.8133450 142.8420060
  54.3253960  55.5899450 141.5428320  61.9750220  50.4874320 145.0093600
  62.2552510  49.6442220 145.3653020  61.2015950  50.7197430 145.5232350
  53.2944710  52.7766710 142.4684600  53.5970610  52.7834140 141.5603750
  54.0339300  52.4264570 142.9652260  56.5129640  51.7201330 143.4540800
  56.1651640  51.0425320 142.8743250  56.7142410  51.2590840 144.2684190
  58.6778680  66.7082080 145.0727400  59.5729470  67.0467050 145.0946160
  58.7096310  65.9861490 144.4451680  52.3174840  62.0809130 143.3014400
  52.7549710  62.6238800 143.9571980  52.8022570  61.2556080 143.3110740
  49.5320640  64.8698160 150.7534660  49.8623650  64.0019220 150.5213300
  49.9611640  65.0756680 151.5839620  54.1282560  63.2007170 148.4136630
  53.8278100  63.0772140 149.3140540  54.0220050  62.3415760 148.0052360
  66.8974480  62.9803570 143.1163310  66.0667440  63.0480220 143.5870540
  67.0746310  63.8707690 142.8130170  66.3530940  59.7251050 145.6197510
  67.1149850  60.2947700 145.7257200  66.3685310  59.1578250 146.3905820
  49.8535280  58.2488980 149.8505170  49.1984120  57.9800620 149.2064870
  50.6913230  58.1393460 149.4007150  67.3590910  60.5801150 150.4639440
  67.7299740  59.7968470 150.0575410  67.9992840  61.2690250 150.2856740
  66.4050110  60.0185420 142.7770030  66.6798950  60.9264300 142.6489250
  66.2160850  59.9547950 143.7132020  62.8025720  53.0430270 144.0723660
  63.2210600  52.8561250 143.2320320  62.4961780  52.1909320 144.3826590
  66.3015450  57.9554410 147.7699460  65.9259050  57.1882340 147.3380750
  65.5718570  58.3377110 148.2574390  49.0673360  55.4587910 145.7930500
  48.1637440  55.7218110 145.6182160  49.5513980  55.7299080 145.0130460
  51.6100570  54.5153450 143.7024880  52.3192270  54.0936670 143.2172160
  50.8940510  54.5828680 143.0708230  51.2574730  50.5692780 142.7427530
  51.9802860  51.1101720 143.0608750  51.5299250  50.2956200 141.8669070
  65.0666380  55.4385250 147.0099110  65.5625500  55.2056120 147.7947990
  64.8682450  54.5997090 146.5936750  66.4953540  54.0746200 149.5436790
  66.3852820  53.9202240 150.4819060  67.2561130  53.5467140 149.3012200
  67.3843810  51.9054120 142.7842930  68.3093120  51.7735300 142.5761220
  67.3619600  51.9846940 143.7379380  67.4582300  52.6764780 145.4099640
  66.6633800  52.6109900 145.9392550  67.6625580  53.6115420 145.3984990
  64.4000720  66.7156330 149.4038030  64.9959790  66.3940900 148.7272450
  64.6578870  66.2428150 150.1951300  65.7540800  50.6376900 149.8707290
  65.6929200  49.6938120 149.7238310  66.5332830  50.7456990 150.4160750
  50.0593550  66.7769260 148.8331240  49.8915590  66.1439940 149.5313130
  49.1928060  66.9828660 148.4825430  50.6821570  50.6086040 146.3363100
  51.4400930  50.7214920 145.7627130  50.2198740  51.4455240 146.2906530
  57.2235380  52.7225310 149.3265410  56.4109890  52.3482200 148.9861290
  57.7277020  51.9670390 149.6286600  61.7260360  49.3867760 150.5648480
  62.3289730  49.9587970 151.0397000  60.9853350  49.9507200 150.3422380
  64.8694960  49.7889320 145.8388760  65.0645590  50.6872770 146.1056190
  64.0824830  49.5576400 146.3321710  51.6656250  65.4702490 146.2781380
  51.1403870  65.8510520 145.5743340  51.5900830  66.0953260 146.9991090
  53.0546720  51.1350090 144.8765070  53.5839480  50.3479890 144.7473020
  53.6875040  51.8141280 145.1100600  55.2484560  50.8725230 147.9310460
  54.6187300  50.1712540 148.0980590  54.7089700  51.6329360 147.7143620
  66.4221570  67.0290030 147.5995320  66.5973760  66.3427770 146.9556240
  65.7243140  67.5537080 147.2071990  54.2649220  67.4184870 145.1530630
  54.9968040  67.1344150 144.6054520  54.5242890  67.1798150 146.0430010
  53.4264010  63.5349600 145.1576960  52.7972890  64.0034700 145.7062790
  53.5411840  62.6898820 145.5923150  60.8813730  57.5855260 131.3078160
  60.8007780  56.6709870 131.0369870  60.4678150  58.0822330 130.6017870
  59.0131770  59.3634280 133.1887430  58.2373870  58.8834720 133.4786000
  59.6644700  58.6839930 133.0143590  63.0339200  63.7694470 131.9686560
  62.5720730  62.9981710 132.2973730  63.8464750  63.7960540 132.4739010
  53.0098860  63.7094180 134.2621210  53.3126900  62.8191920 134.0831430
  53.7542450  64.2664400 134.0343460  51.4389550  54.6355980 127.8505580
  50.5506250  54.9771950 127.7485460  51.7230740  54.4356300 126.9586410
  59.2602510  66.0552480 131.5890550  58.6413950  66.5109980 131.0184990
  60.1154290  66.2103940 131.1880250  58.4540760  62.0391470 133.1957590
  58.3849040  61.0981410 133.0346720  59.2160620  62.1292880 133.7680160
  50.6447430  52.6445990 135.5214210  50.4650270  51.7471740 135.8016970
  50.2427510  53.1917860 136.1961160  53.6150940  53.2187480 128.8843960
  53.7217690  54.1191210 129.1912720  52.7043300  53.1705450 128.5938610
  55.4558670  56.1873850 133.2169140  55.9636890  56.6854820 133.8574160
  55.9871910  55.4109050 133.0408500  53.7394770  50.8272410 137.4832560
  53.7413210  51.3444800 136.6778460  52.9099080  50.3502590 137.4602490
  54.9897620  60.4667590 135.6606060  54.6567000  61.0936510 136.3027130
  55.1664300  60.9929470 134.8807730  53.4210100  52.5382370 135.4903010
  53.7626910  53.3824420 135.1956880  52.4825910  52.6866110 135.6068350
  54.2016720  62.4348390 137.4755240  54.8190720  63.1099470 137.1939690
  53.3409840  62.8436370 137.3842740  65.1194310  63.8987800 135.3909880
  64.4357830  64.5686910 135.3826550  65.6588600  64.0968450 134.6254740
  62.6553050  65.7431930 134.1055060  62.6680210  65.3394220 133.2377320
  62.1028270  66.5179220 134.0016490  63.9498470  62.4648150 129.1945230
  63.8394800  61.5222480 129.3194650  63.9466720  62.8263790 130.0807990
  62.0538490  60.6461770 135.4337670  62.4707280  60.4321880 134.5991130
  62.7778310  60.9034560 136.0046290  59.4918750  58.0913470 128.5507720
  58.5648030  58.0250850 128.7796190  59.6443570  59.0293600 128.4362960
  66.0000590  59.0448990 135.5253910  65.1719220  59.1142080 135.0504040
  66.5951070  59.6303300 135.0569740  63.5216040  59.6533770 129.0542970
  62.9028460  59.3153320 128.4069270  63.5040490  59.0093530 129.7622160
  53.8104010  55.3921420 135.1126490  54.3618600  55.5016760 134.3379740
  54.3247520  55.7659020 135.8281720  63.6542700  65.8777640 137.1589760
  63.1773260  66.6849830 136.9662370  62.9704490  65.2255970 137.3115970
  54.6575520  62.0427460 140.1474460  53.7604050  62.2667430 140.3947860
  54.6828390  62.1662400 139.1985860  61.6980740  58.8920580 126.0615720
  62.1374020  58.0543010 125.9153540  62.4109160  59.5249980 126.1479860
  53.4846740  58.9140780 138.7231830  53.3454510  59.7863580 139.0919230
  52.6028100  58.5713590 138.5779770  55.2827090  64.8562480 140.9316980
  55.2542520  65.2605430 140.0645410  55.1192060  63.9272840 140.7688580
  67.2341910  65.6389580 142.2281150  67.7101630  66.1172470 142.9070230
  67.8549070  65.5707070 141.5026650  66.6375160  62.8302430 139.3881160
  66.7638220  62.5914310 138.4698340  66.6796540  61.9986970 139.8603240
  60.4991900  66.5330430 137.9575970  61.0136570  66.4438440 138.7598400
  59.6560980  66.8790130 138.2503880  62.1772430  64.3273330 125.9457970
  61.4837590  64.3250620 125.2860250  62.9195290  63.9032650 125.5152140
  61.7422360  65.9536040 130.0206460  62.1979310  65.1725420 130.3345080
  62.0814880  66.6642860 130.5647640  66.4899170  54.8834890 140.3530900
  65.8743440  55.3914560 139.8246360  66.1695590  53.9833220 140.2956840
  54.2643680  50.8558260 132.2157770  53.8211830  51.6367800 131.8842290
  54.8228670  51.1788150 132.9228710  58.5513490  53.7226780 137.8193090
  58.0892860  53.9309800 138.6313030  58.1491600  52.9086130 137.5163760
  63.5518000  54.9435730 138.9489750  62.7011590  54.6441480 139.2698820
  63.3919790  55.1877740 138.0373570  60.6467710  56.4437480 141.0488540
  60.9721120  55.6101230 140.7090770  61.4348040  56.9666000 141.1966870
  61.2855660  55.9855200 128.5429670  60.6864550  56.7091000 128.3593290
  61.8335270  55.9231980 127.7606120  56.4957110  56.8777410 140.6099290
  56.4000710  55.9372140 140.4599690  57.3389090  57.0992480 140.2147360
  59.8920530  54.6218740 130.5732950  60.2850100  54.9390940 129.7601640
  60.2537380  53.7430620 130.6877470  51.6267650  53.2891080 138.7633070
  51.2331040  54.1366290 138.9705850  50.9386050  52.6517450 138.9541710
  58.2012700  53.3726050 141.8329810  57.5111020  53.1798250 142.4675900
  58.9445000  53.6560690 142.3654110  48.9284700  51.2119540 132.7963150
  48.6397750  51.7822400 133.5088130  49.6730460  50.7323990 133.1594380
  49.1154930  55.1539660 124.0065870  49.0329600  56.0970420 124.1480860
  48.7637990  55.0114570 123.1278220  60.4775670  57.2124490 134.6683730
  59.7456790  57.7211300 135.0173830  60.0800010  56.3954470 134.3672510
  52.7655440  53.7705180 132.0330430  52.4255490  54.2480410 132.7897480
  52.0032760  53.3170300 131.6731530  56.9773210  54.8890770 126.0642980
  57.0986030  54.8477250 127.0128800  56.5921720  55.7514920 125.9089710
  55.9894710  57.1991910 125.4626280  55.4211610  56.7510160 124.8362190
  56.6983710  57.5584690 124.9291430  64.3672330  50.0790350 139.9193050
  64.6918100  49.3480010 140.4451030  64.4028840  49.7603990 139.0174040
  51.0663890  61.1003930 139.3393010  50.6818680  60.4597600 139.9375970
  51.3776080  61.8040050 139.9087740  57.2161030  57.9480470 134.8201630
  57.5831160  57.4739040 135.5662970  57.0266090  58.8222040 135.1609970
  50.0801520  52.6924160 130.9495100  49.7948440  52.3279830 131.7873720
  50.0180380  51.9604620 130.3358240  55.0060400  56.9889110 137.1385840
  54.7017470  57.8681090 137.3636200  55.9606860  57.0488900 137.1743280
  64.2930170  60.1915460 133.5279080  65.0129290  60.6870750 133.1375190
  64.0911990  59.5133350 132.8832950  59.6748970  60.2624520 139.4148080
  59.6086280  59.3420190 139.1605670  59.0454110  60.3599960 140.1292720
  62.4688500  55.9573070 125.9670630  63.3568120  56.2690300 125.7921970
  62.4393590  55.0845320 125.5751210  51.0624130  57.8291850 138.2857200
  50.7039070  58.4945700 138.8730540  50.7678690  56.9975400 138.6569820
  54.2637250  58.2876090 141.1696750  53.9637390  58.4333270 140.2724570
  55.0348490  57.7281380 141.0770140  59.6065700  63.0845090 139.1651880
  59.6210240  62.1526050 138.9470790  58.8990800  63.1704850 139.8041650
  64.7402770  57.2684910 125.4350490  64.6566490  57.6999130 124.5846930
  65.4596960  57.7283260 125.8677310  65.8176910  59.7252430 138.5120460
  65.0925100  60.3181210 138.3149850  66.3452370  59.7175970 137.7133830
  65.7690020  64.1227170 128.1632620  65.1266180  63.4682790 128.4376340
  65.3820680  64.5282260 127.3873290  61.3476500  61.4512600 132.0104310
  61.7000320  60.8540730 131.3505680  60.4638830  61.1256830 132.1812560
  49.5732180  57.8283110 124.9091800  50.4427030  58.1107910 125.1927720
  49.0822500  58.6418980 124.7940610  59.0399600  64.7262660 136.2592380
  59.6841820  64.9322040 136.9365800  59.4029040  63.9651060 135.8063230
  52.6378770  49.5593970 129.5022600  52.5093400  49.5511870 130.4507520
  51.8140790  49.8977060 129.1513610  60.3131680  62.7295010 134.9769830
  60.9553910  62.0288170 135.0902000  60.8381030  63.5093450 134.7966720
  64.1587400  63.0143630 124.7008970  63.9324980  62.2974070 125.2933610
  63.7683600  62.7656070 123.8630720  62.0869300  63.5289910 138.1805890
  62.4225540  64.1156600 138.8583810  61.1669640  63.3982620 138.4103680
  49.6372700  51.3185090 138.9629300  48.9231220  51.5182010 139.5681910
  50.0567740  50.5424660 139.3344100  63.7403650  60.9315570 126.3623130
  63.4525350  61.3928260 127.1501010  64.5355820  60.4713340 126.6307350
  49.9245290  65.3065350 139.9495830  50.0336410  64.3660090 139.8091220
  49.2725850  65.5720100 139.3009560  57.9157880  63.5781240 141.3493950
  57.5954750  62.8590480 141.8939640  57.2416240  64.2536310 141.4230010
  64.4973510  52.7664340 127.5218310  63.8686670  52.8710010 126.8076540
  64.0025430  52.9861120 128.3112190  56.4657540  55.0450290 128.9376190
  55.7573690  55.5136630 129.3789800  56.7502020  54.3872300 129.5721380
  58.0913470  56.4646990 136.9368720  58.5898720  56.9392810 137.6020570
  58.2336420  55.5410510 137.1438750  54.6692560  53.3535370 126.3126900
  55.5183090  53.7905520 126.2467090  54.3023830  53.6655630 127.1398960
  52.2630740  57.0392800 125.4695320  52.3434330  56.0920310 125.5812720
  53.1550490  57.3699680 125.5755980  65.5927920  65.0956980 132.9012730
  65.7175340  65.9188150 133.3736540  66.4593480  64.8847710 132.5536880
  53.0645450  67.1888190 132.5729860  53.8007930  66.6403650 132.8438430
  53.4486370  68.0544200 132.4335850  52.0703730  66.3734260 141.7615440
  52.8716460  66.6946310 142.1750840  51.5555550  66.0129840 142.4835350
  60.9068360  62.4814130 141.7090850  60.3006520  62.5045730 140.9686600
  60.6022470  61.7497170 142.2458100  62.3368730  66.2094420 140.3200260
  63.2890480  66.1252440 140.2700500  62.1896950  66.8736130 140.9934050
  49.7901540  58.8607720 140.7051490  50.2940560  58.2815000 141.2767720
  49.0508960  59.1447950 141.2427860  56.8439480  60.2678710 140.2387010
  56.0785150  60.8363710 140.1541680  57.0255440  59.9754920 139.3455240
  63.9862830  61.9984040 140.7962030  64.7272300  62.3359800 140.2929490
  63.2235510  62.1676100 140.2431800  51.8224620  57.0037310 141.6001560
  51.8629960  56.7051180 142.5086790  52.6770120  57.4044920 141.4409080
  53.7630430  55.5829410 139.5676050  53.2326890  55.0920360 138.9399390
  54.4318500  56.0113610 139.0333980  58.1130650  58.6270470 124.0082170
  58.6336310  57.9119490 123.6423320  58.7599050  59.2656340 124.3082680
  62.6608490  60.0498870 139.3317240  63.0749510  60.2043950 140.1807660
  61.7259490  60.1754090 139.4943020  63.1330660  57.3895030 141.3356390
  63.7151430  56.6347350 141.2476870  63.3092430  57.9202470 140.5587870
  54.2502730  52.5491780 139.6473340  54.1559600  51.9312530 138.9224210
  53.6700120  53.2758070 139.4203250  57.0164170  51.1065020 136.6800730
  56.5681470  51.1289280 135.8346280  56.3829370  50.7084040 137.2771030
  57.4223720  60.0019350 137.3013170  57.8411830  60.8452080 137.1289410
  56.5032350  60.1391390 137.0719950  59.7587620  57.7335530 138.6851010
  59.8783830  57.1376670 139.4245850  60.6181620  57.7705220 138.2652310
  62.0975520  58.2872720 137.2613520  61.5710740  58.8115340 136.6578660
  62.4406860  58.9200110 137.8923250  54.4961910  55.6766090 123.7063230
  54.2950970  54.8133450 124.0676570  54.3253960  55.5899450 122.7684830
  55.2731140  66.3072360 138.4170900  54.7352230  67.0318420 138.0979600
  55.5265100  65.8302700 137.6268240  56.5256390  54.2756880 139.9426830
  57.1156080  53.9672730 140.6304650  55.7076630  53.8036630 140.0986730
  61.3449820  53.8922690 140.1759850  60.6565340  53.2304230 140.1109840
  62.0655840  53.4460960 140.6208310  58.1293350  67.5423570 138.6757550
  58.0552050  68.4458710 138.9829920  57.2272190  67.2235470 138.6479620
  65.6573030  65.2385750 139.0050110  65.0575020  65.2978310 138.2614030
  65.7866930  64.2990730 139.1346960  66.8974480  62.9803570 124.3419820
  66.0667440  63.0480220 124.8127050  67.0746310  63.8707690 124.0386680
  66.3530940  59.7251050 126.8454020  67.1149850  60.2947700 126.9513710
  66.3685310  59.1578250 127.6162330  67.3590910  60.5801150 131.6895950
  67.7299740  59.7968470 131.2831920  67.9992840  61.2690250 131.5113250
  64.3424670  61.9637730 137.1026270  63.5284510  62.3934890 137.3652060
  64.7498870  62.5756140 136.4895320  66.4050110  60.0185420 124.0026540
  66.6798950  60.9264300 123.8745760  66.2160850  59.9547950 124.9388530
  66.3015450  57.9554410 128.9955970  65.9259050  57.1882340 128.5637260
  65.5718570  58.3377110 129.4830900  65.6915070  57.1025930 138.6295490
  65.4601160  56.8738680 137.7293440  65.9519620  58.0225480 138.5840380
  50.4427210  55.5450640 139.5223440  49.5483260  55.5117400 139.8617150
  50.9824760  55.7437430 140.2874690  64.1303140  52.3282360 141.4075190
  65.0073320  52.3365760 141.7909190  64.1423980  51.5913200 140.7967540
  49.0673360  55.4587910 127.0187010  48.1637440  55.7218110 126.8438670
  49.5513980  55.7299080 126.2386970  51.6100570  54.5153450 124.9281390
  52.3192270  54.0936670 124.4428670  50.8940510  54.5828680 124.2964740
  51.2574730  50.5692780 123.9684040  51.9802860  51.1101720 124.2865260
  51.5299250  50.2956200 123.0925580  65.0666380  55.4385250 128.2355620
  65.5625500  55.2056120 129.0204500  64.8682450  54.5997090 127.8193260
  50.9466920  49.8198970 133.8706660  51.5943110  49.2696350 133.4301820
  51.3668760  50.0742120 134.6922470  64.8419260  50.0140330 137.2276300
  65.4791480  50.6274470 137.5935490  64.9894150  50.0500990 136.2825530
  67.3843810  51.9054120 124.0099440  68.3093120  51.7735300 123.8017730
  67.3619600  51.9846940 124.9635890  67.4582300  52.6764780 126.6356150
  66.6633800  52.6109900 127.1649060  67.6625580  53.6115420 126.6241500
  50.6998920  49.9754640 136.6131980  50.3513740  50.4318460 137.3790160
  50.3686620  49.0811770 136.6954410  52.3063290  63.1474240 140.7785170
  52.2632920  62.7767150 141.6599630  52.4374300  64.0851810 140.9186990
  56.0069320  64.7033830 136.3794890  55.7660680  64.9708390 135.4925410
  56.9471960  64.8739560 136.4345750  58.2123740  51.1666520 140.1351400
  58.1512630  51.7588350 140.8846810  59.1524120  51.0592480 139.9901660
  60.8498300  50.8236580 139.7743690  61.4638710  51.1415870 139.1124770
  61.3947860  50.3385170 140.3939550  67.2673480  66.7228210 137.1805530
  66.7731760  67.1197080 136.4632660  66.6586770  66.0977420 137.5742810
  51.3719560  49.5030840 139.8882750  51.9202550  49.3218890 139.1248860
  51.4374870  48.7124950 140.4239060  52.1451320  66.0936490 137.8982950
  51.5511640  65.9621190 138.6372990  52.1375160  65.2574630 137.4325050
  64.9512930  67.3651630 134.4592270  64.4915900  68.1167440 134.0850290
  64.3225390  66.6458100 134.4007070  51.7763550  63.4594870 136.8490990
  51.0497610  62.8400160 136.7816940  51.8372700  63.8535480 135.9789070
  55.3808650  65.6739870 133.6340400  55.8973670  65.0627230 133.1088660
  56.0306030  66.1768650 134.1251410  58.1204150  66.5648360 134.4609380
  58.4081960  66.3102660 133.5842390  58.6327370  66.0125720 135.0514950
  50.6821570  50.6086040 127.5619610  51.4400930  50.7214920 126.9883640
  50.2198740  51.4455240 127.5163040  53.0546720  51.1350090 126.1021580
  53.5839480  50.3479890 125.9729530  53.6875040  51.8141280 126.3357110
  55.2484560  50.8725230 129.1566970  54.6187300  50.1712540 129.3237100
  54.7089700  51.6329360 128.9400130  58.1876510  67.4864460 141.8277580
  59.1143820  67.2508730 141.8713540  58.1726940  68.3136460 141.3463610
  55.3740120  50.1509210 141.5919460  55.0924390  50.6542810 140.8280280
  55.7559820  49.3530960 141.2261590  54.2649220  67.4184870 126.3787140
  54.9968040  67.1344150 125.8311030  54.5242890  67.1798150 127.2686520
  61.9755580  49.5662790 142.1699930  61.8621030  49.8857400 143.0651450
  62.7925320  49.9675300 141.8737210  64.7554070  66.7134320 141.6518620
  65.5479390  66.2183550 141.4444580  65.0487220  67.3924460 142.2594230
  53.0098860  63.7094180 115.4877720  53.3126900  62.8191920 115.3087940
  53.7542450  64.2664400 115.2599970  50.6447430  52.6445990 116.7470720
  50.4650270  51.7471740 117.0273480  50.2427510  53.1917860 117.4217670
  53.6150940  53.2187480 110.1100470  53.7217690  54.1191210 110.4169230
  52.7043300  53.1705450 109.8195120  63.2670050  52.3412290 111.5811370
  64.0879670  51.8508860 111.6236850  63.3004130  52.9309950 112.3343210
  51.2634100  55.1406490 115.3553060  51.9444210  55.4044860 115.9740460
  50.9482150  54.3007360 115.6891070  67.5569600  54.3579040 118.1455000
  66.8521770  54.7460750 117.6270110  67.8227520  55.0529330 118.7475930
  63.5031530  54.2812670 114.3538910  62.7987100  54.5697560 114.9342020
  63.8643690  55.0912780 113.9938470  57.1037990  50.0264640 113.0404110
  57.4112970  49.4711530 112.3239610  56.1738690  50.1609100 112.8577100
  62.0538490  60.6461770 116.6594180  62.4707280  60.4321880 115.8247640
  62.7778310  60.9034560 117.2302800  62.9642600  55.8318310 117.6965290
  62.5513780  56.6572020 117.9505280  62.2318550  55.2463350 117.5041650
  53.8104010  55.3921420 116.3383000  54.3618600  55.5016760 115.5636250
  54.3247520  55.7659020 117.0538230  63.6542700  65.8777640 118.3846270
  63.1773260  66.6849830 118.1918880  62.9704490  65.2255970 118.5372480
  65.2797880  50.1463390 105.6013270  64.9670540  50.2390220 106.5012340
  66.0410350  50.7244420 105.5510700  67.2341910  65.6389580 123.4537660
  67.7101630  66.1172470 124.1326740  67.8549070  65.5707070 122.7283160
  49.4365390  60.6838330 115.8659250  49.5145810  60.8187100 114.9214970
  50.0507070  59.9754220 116.0587370  66.6375160  62.8302430 120.6137670
  66.7638220  62.5914310 119.6954850  66.6796540  61.9986970 121.0859750
  60.4991900  66.5330430 119.1832480  61.0136570  66.4438440 119.9854910
  59.6560980  66.8790130 119.4760390  66.4899170  54.8834890 121.5787410
  65.8743440  55.3914560 121.0502870  66.1695590  53.9833220 121.5213350
  49.4924910  61.7252500 118.4053710  49.6555950  61.2557860 117.5873080
  49.9577360  61.2176060 119.0702550  54.2643680  50.8558260 113.4414280
  53.8211830  51.6367800 113.1098800  54.8228670  51.1788150 114.1485220
  58.5513490  53.7226780 119.0449600  58.0892860  53.9309800 119.8569540
  58.1491600  52.9086130 118.7420270  63.5518000  54.9435730 120.1746260
  62.7011590  54.6441480 120.4955330  63.3919790  55.1877740 119.2630080
  60.6467710  56.4437480 122.2745050  60.9721120  55.6101230 121.9347280
  61.4348040  56.9666000 122.4223380  57.3802500  50.4768960 108.3220110
  56.7556680  50.4728830 109.0473420  57.2932620  49.6099920 107.9256080
  56.4957110  56.8777410 121.8355800  56.4000710  55.9372140 121.6856200
  57.3389090  57.0992480 121.4403870  51.6267650  53.2891080 119.9889580
  51.2331040  54.1366290 120.1962360  50.9386050  52.6517450 120.1798220
  56.9153060  53.8878690 114.2992730  56.9189120  53.4468640 113.4497270
  57.8104180  54.2096020 114.4064550  52.7655440  53.7705180 113.2586940
  52.4255490  54.2480410 114.0153990  52.0032760  53.3170300 112.8988040
  60.9401580  52.6658170 115.3063180  60.9574320  53.1166820 116.1505030
  60.6917160  51.7663810 115.5196620  64.3672330  50.0790350 121.1449560
  64.6918100  49.3480010 121.6707540  64.4028840  49.7603990 120.2430550
  50.0801520  52.6924160 112.1751610  49.7948440  52.3279830 113.0130230
  50.0180380  51.9604620 111.5614750  55.0060400  56.9889110 118.3642350
  54.7017470  57.8681090 118.5892710  55.9606860  57.0488900 118.3999790
  59.7540110  51.5853420 108.8964980  58.9404720  51.0866590 108.8210290
  59.5602060  52.4251670 108.4801330  59.6748970  60.2624520 120.6404590
  59.6086280  59.3420190 120.3862180  59.0454110  60.3599960 121.3549230
  51.0624130  57.8291850 119.5113710  50.7039070  58.4945700 120.0987050
  50.7678690  56.9975400 119.8826330  54.2637250  58.2876090 122.3953260
  53.9637390  58.4333270 121.4981080  55.0348490  57.7281380 122.3026650
  59.6065700  63.0845090 120.3908390  59.6210240  62.1526050 120.1727300
  58.8990800  63.1704850 121.0298160  65.8176910  59.7252430 119.7376970
  65.0925100  60.3181210 119.5406360  66.3452370  59.7175970 118.9390340
  49.5732180  57.8283110 106.1348310  50.4427030  58.1107910 106.4184230
  49.0822500  58.6418980 106.0197120  59.0399600  64.7262660 117.4848890
  59.6841820  64.9322040 118.1622310  59.4029040  63.9651060 117.0319740
  62.0869300  63.5289910 119.4062400  62.4225540  64.1156600 120.0840320
  61.1669640  63.3982620 119.6360190  49.9403430  67.0410490 106.7009940
  50.3001070  67.6399830 106.0467210  49.7995770  67.5870380 107.4744970
  49.6372700  51.3185090 120.1885810  48.9231220  51.5182010 120.7938420
  50.0567740  50.5424660 120.5600610  49.9245290  65.3065350 121.1752340
  50.0336410  64.3660090 121.0347730  49.2725850  65.5720100 120.5266070
  61.1311480  53.8107400 117.9387260  61.4992300  52.9902610 118.2666830
  60.2709680  53.8709290 118.3542910  64.4973510  52.7664340 108.7474820
  63.8686670  52.8710010 108.0333050  64.0025430  52.9861120 109.5368700
  58.0913470  56.4646990 118.1625230  58.5898720  56.9392810 118.8277080
  58.2336420  55.5410510 118.3695260  60.4972970  51.7700950 111.6028490
  60.3740750  51.7887080 110.6538000  61.4457530  51.8179890 111.7226890
  65.2980330  52.6814950 119.0053620  64.7953930  53.4220350 119.3447430
  66.1136990  53.0698950 118.6890410  52.2630740  57.0392800 106.6951830
  52.3434330  56.0920310 106.8069230  53.1550490  57.3699680 106.8012490
  52.0703730  66.3734260 122.9871950  52.8716460  66.6946310 123.4007350
  51.5555550  66.0129840 123.7091860  60.9068360  62.4814130 122.9347360
  60.3006520  62.5045730 122.1943110  60.6022470  61.7497170 123.4714610
  62.3368730  66.2094420 121.5456770  63.2890480  66.1252440 121.4957010
  62.1896950  66.8736130 122.2190560  56.8439480  60.2678710 121.4643520
  56.0785150  60.8363710 121.3798190  57.0255440  59.9754920 120.5711750
  63.9862830  61.9984040 122.0218540  64.7272300  62.3359800 121.5186000
  63.2235510  62.1676100 121.4688310  51.8224620  57.0037310 122.8258070
  51.8629960  56.7051180 123.7343300  52.6770120  57.4044920 122.6665590
  53.7630430  55.5829410 120.7932560  53.2326890  55.0920360 120.1655900
  54.4318500  56.0113610 120.2590490  62.6608490  60.0498870 120.5573750
  63.0749510  60.2043950 121.4064170  61.7259490  60.1754090 120.7199530
  63.1330660  57.3895030 122.5612900  63.7151430  56.6347350 122.4733380
  63.3092430  57.9202470 121.7844380  59.7587620  57.7335530 119.9107520
  59.8783830  57.1376670 120.6502360  60.6181620  57.7705220 119.4908820
  62.0975520  58.2872720 118.4870030  61.5710740  58.8115340 117.8835170
  62.4406860  58.9200110 119.1179760  54.4961910  55.6766090 104.9319740
  54.2950970  54.8133450 105.2933080  54.3253960  55.5899450 103.9941340
  55.2731140  66.3072360 119.6427410  54.7352230  67.0318420 119.3236110
  55.5265100  65.8302700 118.8524750  61.3449820  53.8922690 121.4016360
  60.6565340  53.2304230 121.3366350  62.0655840  53.4460960 121.8464820
  61.9750220  50.4874320 107.4606620  62.2552510  49.6442220 107.8166040
  61.2015950  50.7197430 107.9745370  58.1293350  67.5423570 119.9014060
  58.0552050  68.4458710 120.2086430  57.2272190  67.2235470 119.8736130
  56.5129640  51.7201330 105.9053820  56.1651640  51.0425320 105.3256270
  56.7142410  51.2590840 106.7197210  49.5320640  64.8698160 113.2047680
  49.8623650  64.0019220 112.9726320  49.9611640  65.0756680 114.0352640
  50.0210850  65.7368750 115.9429310  49.5841840  65.9169550 116.7753460
  50.5888530  66.4943370 115.8011030  65.6573030  65.2385750 120.2306620
  65.0575020  65.2978310 119.4870540  65.7866930  64.2990730 120.3603470
  64.3424670  61.9637730 118.3282780  63.5284510  62.3934890 118.5908570
  64.7498870  62.5756140 117.7151830  62.8025720  53.0430270 106.5236680
  63.2210600  52.8561250 105.6833340  62.4961780  52.1909320 106.8339610
  50.8911210  58.6341550 116.8421530  51.2584250  58.5468950 117.7217550
  50.3222030  57.8708100 116.7428390  65.6915070  57.1025930 119.8552000
  65.4601160  56.8738680 118.9549950  65.9519620  58.0225480 119.8096890
  50.4427210  55.5450640 120.7479950  49.5483260  55.5117400 121.0873660
  50.9824760  55.7437430 121.5131200  64.1303140  52.3282360 122.6331700
  65.0073320  52.3365760 123.0165700  64.1423980  51.5913200 122.0224050
  64.8419260  50.0140330 118.4532810  65.4791480  50.6274470 118.8192000
  64.9894150  50.0500990 117.5082040  67.3843810  51.9054120 105.2355950
  68.3093120  51.7735300 105.0274240  67.3619600  51.9846940 106.1892400
  50.6998920  49.9754640 117.8388490  50.3513740  50.4318460 118.6046670
  50.3686620  49.0811770 117.9210920  56.0069320  64.7033830 117.6051400
  55.7660680  64.9708390 116.7181920  56.9471960  64.8739560 117.6602260
  51.3719560  49.5030840 121.1139260  51.9202550  49.3218890 120.3505370
  51.4374870  48.7124950 121.6495570  52.1451320  66.0936490 119.1239460
  51.5511640  65.9621190 119.8629500  52.1375160  65.2574630 118.6581560
  61.5906340  49.3868720 117.3269490  60.7166180  49.7203830 117.1242420
  61.4817090  48.9141900 118.1521360  62.4978320  51.5939590 118.7111210
  62.1691680  50.7791350 118.3312940  63.4460620  51.5509400 118.5876900
  51.7763550  63.4594870 118.0747500  51.0497610  62.8400160 118.0073450
  51.8372700  63.8535480 117.2045580  59.3381160  50.3038560 116.2662400
  58.5552950  50.7784060 116.5459160  59.0444090  49.3993390 116.1575580
  63.8902230  51.0061660 114.3111490  64.3310320  50.9506760 113.4633090
  63.6209820  51.9219670 114.3821670  65.7540800  50.6376900 112.3220310
  65.6929200  49.6938120 112.1751330  66.5332830  50.7456990 112.8673770
  50.0593550  66.7769260 111.2844260  49.8915590  66.1439940 111.9826150
  49.1928060  66.9828660 110.9338450  57.2235380  52.7225310 111.7778430
  56.4109890  52.3482200 111.4374310  57.7277020  51.9670390 112.0799620
  61.7260360  49.3867760 113.0161500  62.3289730  49.9587970 113.4910020
  60.9853350  49.9507200 112.7935400  64.8694960  49.7889320 108.2901780
  65.0645590  50.6872770 108.5569210  64.0824830  49.5576400 108.7834730
  55.2484560  50.8725230 110.3823480  54.6187300  50.1712540 110.5493610
  54.7089700  51.6329360 110.1656640  58.1876510  67.4864460 123.0534090
  59.1143820  67.2508730 123.0970050  58.1726940  68.3136460 122.5720120
  64.7554070  66.7134320 122.8775130  65.5479390  66.2183550 122.6701090
  65.0487220  67.3924460 123.4850740  53.0098860  63.7094180  96.7134230
  53.3126900  62.8191920  96.5344450  53.7542450  64.2664400  96.4856480
  51.4389550  54.6355980  90.3018600  50.5506250  54.9771950  90.1998480
  51.7230740  54.4356300  89.4099430  50.6447430  52.6445990  97.9727230
  50.4650270  51.7471740  98.2529990  50.2427510  53.1917860  98.6474180
  59.4845930  54.8461850  95.8739540  59.8610750  53.9733730  95.7613210
  59.3865440  55.1820550  94.9829980  53.6150940  53.2187480  91.3356980
  53.7217690  54.1191210  91.6425740  52.7043300  53.1705450  91.0451630
  63.2670050  52.3412290  92.8067880  64.0879670  51.8508860  92.8493360
  63.3004130  52.9309950  93.5599720  51.2634100  55.1406490  96.5809570
  51.9444210  55.4044860  97.1996970  50.9482150  54.3007360  96.9147580
  55.4558670  56.1873850  95.6682160  55.9636890  56.6854820  96.3087180
  55.9871910  55.4109050  95.4921520  53.7394770  50.8272410  99.9345580
  53.7413210  51.3444800  99.1291480  52.9099080  50.3502590  99.9115510
  53.4210100  52.5382370  97.9416030  53.7626910  53.3824420  97.6469900
  52.4825910  52.6866110  98.0581370  49.4949060  61.6248250  88.8075110
  49.1177040  62.1135350  88.0760010  49.7522130  62.2973530  89.4381640
  66.5718450  53.7267460  95.9704630  65.6243360  53.7606440  96.1020060
  66.8968440  54.5406410  96.3553990  59.4787830  54.3630470  87.9987900
  58.5391500  54.5244430  88.0840360  59.7971090  55.0816150  87.4523890
  55.0975390  58.6178210  93.7840470  54.6932390  57.9055460  93.2886370
  55.1838510  58.2731450  94.6728510  55.5657090  62.3045770  95.9479680
  55.2685380  61.6991240  95.2687460  56.5156910  62.3423080  95.8369040
  53.8104010  55.3921420  97.5639510  54.3618600  55.5016760  96.7892760
  54.3247520  55.7659020  98.2794740  65.2797880  50.1463390  86.8269780
  64.9670540  50.2390220  87.7268850  66.0410350  50.7244420  86.7767210
  51.7980020  57.5123190  91.2847120  51.6777620  58.2385280  90.6728390
  51.4880910  56.7426100  90.8075030  54.9534680  66.5984300  91.6144610
  54.7777160  65.6819840  91.4012410  54.0990420  66.9571590  91.8542410
  54.2643680  50.8558260  94.6670790  53.8211830  51.6367800  94.3355310
  54.8228670  51.1788150  95.3741730  58.5513490  53.7226780 100.2706110
  58.0892860  53.9309800 101.0826050  58.1491600  52.9086130  99.9676780
  57.3802500  50.4768960  89.5476620  56.7556680  50.4728830  90.2729930
  57.2932620  49.6099920  89.1512590  56.3019580  51.4005590  96.5260390
  56.5991910  52.3068420  96.4452410  56.8505140  50.9124370  95.9119960
  54.0557900  55.9791830  92.3952040  53.8298820  55.7629000  93.2998660
  53.2750430  56.4120290  92.0498010  59.8920530  54.6218740  93.0245970
  60.2850100  54.9390940  92.2114660  60.2537380  53.7430620  93.1390490
  51.6267650  53.2891080 101.2146090  51.2331040  54.1366290 101.4218870
  50.9386050  52.6517450 101.4054730  58.2012700  53.3726050 104.2842830
  57.5111020  53.1798250 104.9188920  58.9445000  53.6560690 104.8167130
  48.9284700  51.2119540  95.2476170  48.6397750  51.7822400  95.9601150
  49.6730460  50.7323990  95.6107400  60.4775670  57.2124490  97.1196750
  59.7456790  57.7211300  97.4686850  60.0800010  56.3954470  96.8185530
  56.9153060  53.8878690  95.5249240  56.9189120  53.4468640  94.6753780
  57.8104180  54.2096020  95.6321060  52.7655440  53.7705180  94.4843450
  52.4255490  54.2480410  95.2410500  52.0032760  53.3170300  94.1244550
  56.9773210  54.8890770  88.5156000  57.0986030  54.8477250  89.4641820
  56.5921720  55.7514920  88.3602730  60.9401580  52.6658170  96.5319690
  60.9574320  53.1166820  97.3761540  60.6917160  51.7663810  96.7453130
  55.9894710  57.1991910  87.9139300  55.4211610  56.7510160  87.2875210
  56.6983710  57.5584690  87.3804450  64.3672330  50.0790350 102.3706070
  64.6918100  49.3480010 102.8964050  64.4028840  49.7603990 101.4687060
  51.0663890  61.1003930 101.7906030  50.6818680  60.4597600 102.3888990
  51.3776080  61.8040050 102.3600760  50.0801520  52.6924160  93.4008120
  49.7948440  52.3279830  94.2386740  50.0180380  51.9604620  92.7871260
  53.5342190  61.1950100  90.1865710  52.7604450  60.6547720  90.0264430
  54.2636820  60.6756710  89.8483470  59.7540110  51.5853420  90.1221490
  58.9404720  51.0866590  90.0466800  59.5602060  52.4251670  89.7057840
  51.0624130  57.8291850 100.7370220  50.7039070  58.4945700 101.3243560
  50.7678690  56.9975400 101.1082840  52.6378770  49.5593970  91.9535620
  52.5093400  49.5511870  92.9020540  51.8140790  49.8977060  91.6026630
  49.9403430  67.0410490  87.9266450  50.3001070  67.6399830  87.2723720
  49.7995770  67.5870380  88.7001480  49.9245290  65.3065350 102.4008850
  50.0336410  64.3660090 102.2604240  49.2725850  65.5720100 101.7522580
  51.5578690  59.6456580  89.4886880  50.9506640  60.3855480  89.4982180
  52.0328040  59.7355940  88.6625080  64.4973510  52.7664340  89.9731330
  63.8686670  52.8710010  89.2589560  64.0025430  52.9861120  90.7625210
  56.4657540  55.0450290  91.3889210  55.7573690  55.5136630  91.8302820
  56.7502020  54.3872300  92.0234400  60.4972970  51.7700950  92.8285000
  60.3740750  51.7887080  91.8794510  61.4457530  51.8179890  92.9483400
  54.6692560  53.3535370  88.7639920  55.5183090  53.7905520  88.6980110
  54.3023830  53.6655630  89.5911980  53.5683980  59.6067730  87.2375450
  54.3347250  59.4949090  87.8000880  53.6458670  58.9105700  86.5852220
  52.2630740  57.0392800  87.9208340  52.3434330  56.0920310  88.0325740
  53.1550490  57.3699680  88.0269000  53.0645450  67.1888190  95.0242880
  53.8007930  66.6403650  95.2951450  53.4486370  68.0544200  94.8848870
  49.9490930  63.2561760  90.8984390  49.0230710  63.4982900  90.8889800
  50.4147360  64.0836020  90.7769140  49.7901540  58.8607720 103.1564510
  50.2940560  58.2815000 103.7280740  49.0508960  59.1447950 103.6940880
  51.8224620  57.0037310 104.0514580  51.8629960  56.7051180 104.9599810
  52.6770120  57.4044920 103.8922100  55.6003010  59.6032860  89.2118090
  56.0219430  59.4372730  90.0549480  55.7253850  58.7933090  88.7173230
  58.1130650  58.6270470  86.4595190  58.6336310  57.9119490  86.0936340
  58.7599050  59.2656340  86.7595700  54.2502730  52.5491780 102.0986360
  54.1559600  51.9312530 101.3737230  53.6700120  53.2758070 101.8716270
  57.0164170  51.1065020  99.1313750  56.5681470  51.1289280  98.2859300
  56.3829370  50.7084040  99.7284050  54.4961910  55.6766090  86.1576250
  54.2950970  54.8133450  86.5189590  54.3253960  55.5899450  85.2197850
  61.9750220  50.4874320  88.6863130  62.2552510  49.6442220  89.0422550
  61.2015950  50.7197430  89.2001880  53.2944710  52.7766710  86.1454130
  53.5970610  52.7834140  85.2373280  54.0339300  52.4264570  86.6421790
  56.5129640  51.7201330  87.1310330  56.1651640  51.0425320  86.5512780
  56.7142410  51.2590840  87.9453720  52.3174840  62.0809130  86.9783930
  52.7549710  62.6238800  87.6341510  52.8022570  61.2556080  86.9880270
  49.5320640  64.8698160  94.4304190  49.8623650  64.0019220  94.1982830
  49.9611640  65.0756680  95.2609150  50.0210850  65.7368750  97.1685820
  49.5841840  65.9169550  98.0009970  50.5888530  66.4943370  97.0267540
  62.8025720  53.0430270  87.7493190  63.2210600  52.8561250  86.9089850
  62.4961780  52.1909320  88.0596120  50.4427210  55.5450640 101.9736460
  49.5483260  55.5117400 102.3130170  50.9824760  55.7437430 102.7387710
  64.1303140  52.3282360 103.8588210  65.0073320  52.3365760 104.2422210
  64.1423980  51.5913200 103.2480560  50.9466920  49.8198970  96.3219680
  51.5943110  49.2696350  95.8814840  51.3668760  50.0742120  97.1435490
  64.8419260  50.0140330  99.6789320  65.4791480  50.6274470 100.0448510
  64.9894150  50.0500990  98.7338550  50.6998920  49.9754640  99.0645000
  50.3513740  50.4318460  99.8303180  50.3686620  49.0811770  99.1467430
  58.2123740  51.1666520 102.5864420  58.1512630  51.7588350 103.3359830
  59.1524120  51.0592480 102.4414680  60.8498300  50.8236580 102.2256710
  61.4638710  51.1415870 101.5637790  61.3947860  50.3385170 102.8452570
  51.3719560  49.5030840 102.3395770  51.9202550  49.3218890 101.5761880
  51.4374870  48.7124950 102.8752080  52.1451320  66.0936490 100.3495970
  51.5511640  65.9621190 101.0886010  52.1375160  65.2574630  99.8838070
  51.7763550  63.4594870  99.3004010  51.0497610  62.8400160  99.2329960
  51.8372700  63.8535480  98.4302090  63.8902230  51.0061660  95.5368000
  64.3310320  50.9506760  94.6889600  63.6209820  51.9219670  95.6078180
  65.7540800  50.6376900  93.5476820  65.6929200  49.6938120  93.4007840
  66.5332830  50.7456990  94.0930280  50.0593550  66.7769260  92.5100770
  49.8915590  66.1439940  93.2082660  49.1928060  66.9828660  92.1594960
  50.6821570  50.6086040  90.0132630  51.4400930  50.7214920  89.4396660
  50.2198740  51.4455240  89.9676060  57.2235380  52.7225310  93.0034940
  56.4109890  52.3482200  92.6630820  57.7277020  51.9670390  93.3056130
  64.8694960  49.7889320  89.5158290  65.0645590  50.6872770  89.7825720
  64.0824830  49.5576400  90.0091240  51.6656250  65.4702490  89.9550910
  51.1403870  65.8510520  89.2512870  51.5900830  66.0953260  90.6760620
  53.0546720  51.1350090  88.5534600  53.5839480  50.3479890  88.4242550
  53.6875040  51.8141280  88.7870130  55.2484560  50.8725230  91.6079990
  54.6187300  50.1712540  91.7750120  54.7089700  51.6329360  91.3913150
  55.3740120  50.1509210 104.0432480  55.0924390  50.6542810 103.2793300
  55.7559820  49.3530960 103.6774610  54.2649220  67.4184870  88.8300160
  54.9968040  67.1344150  88.2824050  54.5242890  67.1798150  89.7199540
  53.4264010  63.5349600  88.8346490  52.7972890  64.0034700  89.3832320
  53.5411840  62.6898820  89.2692680  61.9755580  49.5662790 104.6212950
  61.8621030  49.8857400 105.5164470  62.7925320  49.9675300 104.3250230
  59.0131770  59.3634280  76.8656960  58.2373870  58.8834720  77.1555530
  59.6644700  58.6839930  76.6913120  53.0297600  59.6754090  77.7432720
  52.1982480  59.4202800  78.1429230  53.6378580  59.7464860  78.4790640
  63.0339200  63.7694470  75.6456090  62.5720730  62.9981710  75.9743260
  63.8464750  63.7960540  76.1508540  51.4389550  54.6355980  71.5275110
  50.5506250  54.9771950  71.4254990  51.7230740  54.4356300  70.6355940
  49.4022560  57.2361630  77.4114810  49.9738670  56.4683830  77.4118450
  49.4024100  57.5350390  76.5021420  59.2602510  66.0552480  75.2660080
  58.6413950  66.5109980  74.6954520  60.1154290  66.2103940  74.8649780
  58.4540760  62.0391470  76.8727120  58.3849040  61.0981410  76.7116250
  59.2160620  62.1292880  77.4449690  59.4845930  54.8461850  77.0996050
  59.8610750  53.9733730  76.9869720  59.3865440  55.1820550  76.2086490
  63.2670050  52.3412290  74.0324390  64.0879670  51.8508860  74.0749870
  63.3004130  52.9309950  74.7856230  55.4558670  56.1873850  76.8938670
  55.9636890  56.6854820  77.5343690  55.9871910  55.4109050  76.7178030
  60.1265860  60.9391720  72.6591990  59.5083130  61.4041170  72.0954710
  60.6389110  61.6319200  73.0761500  54.9897620  60.4667590  79.3375590
  54.6567000  61.0936510  79.9796660  55.1664300  60.9929470  78.5577260
  63.5031530  54.2812670  76.8051930  62.7987100  54.5697560  77.3855040
  63.8643690  55.0912780  76.4451490  54.2016720  62.4348390  81.1524770
  54.8190720  63.1099470  80.8709220  53.3409840  62.8436370  81.0612270
  49.4949060  61.6248250  70.0331620  49.1177040  62.1135350  69.3016520
  49.7522130  62.2973530  70.6638150  59.4787830  54.3630470  69.2244410
  58.5391500  54.5244430  69.3096870  59.7971090  55.0816150  68.6780400
  62.9642600  55.8318310  80.1478310  62.5513780  56.6572020  80.4018300
  62.2318550  55.2463350  79.9554670  55.0975390  58.6178210  75.0096980
  54.6932390  57.9055460  74.5142880  55.1838510  58.2731450  75.8985020
  53.8104010  55.3921420  78.7896020  54.3618600  55.5016760  78.0149270
  54.3247520  55.7659020  79.5051250  54.6575520  62.0427460  83.8243990
  53.7604050  62.2667430  84.0717390  54.6828390  62.1662400  82.8755390
  53.4846740  58.9140780  82.4001360  53.3454510  59.7863580  82.7688760
  52.6028100  58.5713590  82.2549300  59.8076120  63.8316650  73.7066490
  60.2472030  64.5740980  73.2921880  59.7463010  64.0743220  74.6305450
  51.7980020  57.5123190  72.5103630  51.6777620  58.2385280  71.8984900
  51.4880910  56.7426100  72.0331540  49.4365390  60.6838330  78.3172270
  49.5145810  60.8187100  77.3727990  50.0507070  59.9754220  78.5100390
  60.4991900  66.5330430  81.6345500  61.0136570  66.4438440  82.4367930
  59.6560980  66.8790130  81.9273410  61.7422360  65.9536040  73.6975990
  62.1979310  65.1725420  74.0114610  62.0814880  66.6642860  74.2417170
  58.5513490  53.7226780  81.4962620  58.0892860  53.9309800  82.3082560
  58.1491600  52.9086130  81.1933290  63.5518000  54.9435730  82.6259280
  62.7011590  54.6441480  82.9468350  63.3919790  55.1877740  81.7143100
  60.6467710  56.4437480  84.7258070  60.9721120  55.6101230  84.3860300
  61.4348040  56.9666000  84.8736400  54.0557900  55.9791830  73.6208550
  53.8298820  55.7629000  74.5255170  53.2750430  56.4120290  73.2754520
  56.4957110  56.8777410  84.2868820  56.4000710  55.9372140  84.1369220
  57.3389090  57.0992480  83.8916890  59.8920530  54.6218740  74.2502480
  60.2850100  54.9390940  73.4371170  60.2537380  53.7430620  74.3647000
  58.2012700  53.3726050  85.5099340  57.5111020  53.1798250  86.1445430
  58.9445000  53.6560690  86.0423640  48.9284700  51.2119540  76.4732680
  48.6397750  51.7822400  77.1857660  49.6730460  50.7323990  76.8363910
  49.1154930  55.1539660  67.6835400  49.0329600  56.0970420  67.8250390
  48.7637990  55.0114570  66.8047750  60.4775670  57.2124490  78.3453260
  59.7456790  57.7211300  78.6943360  60.0800010  56.3954470  78.0442040
  52.7655440  53.7705180  75.7099960  52.4255490  54.2480410  76.4667010
  52.0032760  53.3170300  75.3501060  60.9401580  52.6658170  77.7576200
  60.9574320  53.1166820  78.6018050  60.6917160  51.7663810  77.9709640
  55.9894710  57.1991910  69.1395810  55.4211610  56.7510160  68.5131720
  56.6983710  57.5584690  68.6060960  51.0663890  61.1003930  83.0162540
  50.6818680  60.4597600  83.6145500  51.3776080  61.8040050  83.5857270
  57.2161030  57.9480470  78.4971160  57.5831160  57.4739040  79.2432500
  57.0266090  58.8222040  78.8379500  50.0801520  52.6924160  74.6264630
  49.7948440  52.3279830  75.4643250  50.0180380  51.9604620  74.0127770
  55.0060400  56.9889110  80.8155370  54.7017470  57.8681090  81.0405730
  55.9606860  57.0488900  80.8512810  59.6748970  60.2624520  83.0917610
  59.6086280  59.3420190  82.8375200  59.0454110  60.3599960  83.8062250
  58.4649090  62.1296760  70.3228330  58.8064790  62.8738990  69.8271650
  57.6361800  62.4427880  70.6853160  54.2637250  58.2876090  84.8466280
  53.9637390  58.4333270  83.9494100  55.0348490  57.7281380  84.7539670
  57.4339780  62.2110290  73.0944250  58.1210910  62.7579500  73.4751840
  56.6472200  62.7551020  73.1293860  49.5732180  57.8283110  68.5861330
  50.4427030  58.1107910  68.8697250  49.0822500  58.6418980  68.4710140
  56.7366990  59.2156320  72.7069610  57.1929770  60.0261570  72.9329800
  56.3855200  58.8979460  73.5388100  59.0399600  64.7262660  79.9361910
  59.6841820  64.9322040  80.6135330  59.4029040  63.9651060  79.4832760
  60.3131680  62.7295010  78.6539360  60.9553910  62.0288170  78.7671530
  60.8381030  63.5093450  78.4736250  61.1311480  53.8107400  80.3900280
  61.4992300  52.9902610  80.7179850  60.2709680  53.8709290  80.8055930
  58.0913470  56.4646990  80.6138250  58.5898720  56.9392810  81.2790100
  58.2336420  55.5410510  80.8208280  60.4972970  51.7700950  74.0541510
  60.3740750  51.7887080  73.1051020  61.4457530  51.8179890  74.1739910
  57.5849760  67.0056250  73.3269490  57.8391260  66.9677640  72.4048860
  56.6362240  66.8789580  73.3197740  56.1747760  66.3618500  68.0724960
  56.9676370  66.6507330  67.6206750  55.6552110  65.9310670  67.3937440
  56.8439480  60.2678710  83.9156540  56.0785150  60.8363710  83.8311210
  57.0255440  59.9754920  83.0224770  59.9327890  60.6441940  68.5409300
  59.3837990  61.0911240  69.1852040  60.5547150  60.1391190  69.0646970
  58.1130650  58.6270470  67.6851700  58.6336310  57.9119490  67.3192850
  58.7599050  59.2656340  67.9852210  54.2502730  52.5491780  83.3242870
  54.1559600  51.9312530  82.5993740  53.6700120  53.2758070  83.0972780
  57.0164170  51.1065020  80.3570260  56.5681470  51.1289280  79.5115810
  56.3829370  50.7084040  80.9540560  57.4223720  60.0019350  80.9782700
  57.8411830  60.8452080  80.8058940  56.5032350  60.1391390  80.7489480
  59.7587620  57.7335530  82.3620540  59.8783830  57.1376670  83.1015380
  60.6181620  57.7705220  81.9421840  62.0975520  58.2872720  80.9383050
  61.5710740  58.8115340  80.3348190  62.4406860  58.9200110  81.5692780
  54.4961910  55.6766090  67.3832760  54.2950970  54.8133450  67.7446100
  54.3253960  55.5899450  66.4454360  55.2731140  66.3072360  82.0940430
  54.7352230  67.0318420  81.7749130  55.5265100  65.8302700  81.3037770
  56.5256390  54.2756880  83.6196360  57.1156080  53.9672730  84.3074180
  55.7076630  53.8036630  83.7756260  61.3449820  53.8922690  83.8529380
  60.6565340  53.2304230  83.7879370  62.0655840  53.4460960  84.2977840
  53.2944710  52.7766710  67.3710640  53.5970610  52.7834140  66.4629790
  54.0339300  52.4264570  67.8678300  58.1293350  67.5423570  82.3527080
  58.0552050  68.4458710  82.6599450  57.2272190  67.2235470  82.3249150
  58.6778680  66.7082080  69.9753440  59.5729470  67.0467050  69.9972200
  58.7096310  65.9861490  69.3477720  49.8535280  58.2488980  74.7531210
  49.1984120  57.9800620  74.1090910  50.6913230  58.1393460  74.3033190
  50.8911210  58.6341550  79.2934550  51.2584250  58.5468950  80.1730570
  50.3222030  57.8708100  79.1941410  64.1303140  52.3282360  85.0844720
  65.0073320  52.3365760  85.4678720  64.1423980  51.5913200  84.4737070
  49.0673360  55.4587910  70.6956540  48.1637440  55.7218110  70.5208200
  49.5513980  55.7299080  69.9156500  51.6100570  54.5153450  68.6050920
  52.3192270  54.0936670  68.1198200  50.8940510  54.5828680  67.9734270
  51.2574730  50.5692780  67.6453570  51.9802860  51.1101720  67.9634790
  51.5299250  50.2956200  66.7695110  56.0069320  64.7033830  80.0564420
  55.7660680  64.9708390  79.1694940  56.9471960  64.8739560  80.1115280
  58.2123740  51.1666520  83.8120930  58.1512630  51.7588350  84.5616340
  59.1524120  51.0592480  83.6671190  60.8498300  50.8236580  83.4513220
  61.4638710  51.1415870  82.7894300  61.3947860  50.3385170  84.0709080
  61.5906340  49.3868720  79.7782510  60.7166180  49.7203830  79.5755440
  61.4817090  48.9141900  80.6034380  62.4978320  51.5939590  81.1624230
  62.1691680  50.7791350  80.7825960  63.4460620  51.5509400  81.0389920
  58.1204150  66.5648360  78.1378910  58.4081960  66.3102660  77.2611920
  58.6327370  66.0125720  78.7284480  59.3381160  50.3038560  78.7175420
  58.5552950  50.7784060  78.9972180  59.0444090  49.3993390  78.6088600
  63.8902230  51.0061660  76.7624510  64.3310320  50.9506760  75.9146110
  63.6209820  51.9219670  76.8334690  50.6821570  50.6086040  71.2389140
  51.4400930  50.7214920  70.6653170  50.2198740  51.4455240  71.1932570
  61.7260360  49.3867760  75.4674520  62.3289730  49.9587970  75.9423040
  60.9853350  49.9507200  75.2448420  58.1876510  67.4864460  85.5047110
  59.1143820  67.2508730  85.5483070  58.1726940  68.3136460  85.0233140
  55.3740120  50.1509210  85.2688990  55.0924390  50.6542810  84.5049810
  55.7559820  49.3530960  84.9031120  54.2649220  67.4184870  70.0556670
  54.9968040  67.1344150  69.5080560  54.5242890  67.1798150  70.9456050
  61.9755580  49.5662790  85.8469460  61.8621030  49.8857400  86.7420980
  62.7925320  49.9675300  85.5506740  51.4389550  54.6355980  52.7531620
  50.5506250  54.9771950  52.6511500  51.7230740  54.4356300  51.8612450
  59.2602510  66.0552480  56.4916590  58.6413950  66.5109980  55.9211030
  60.1154290  66.2103940  56.0906290  58.4540760  62.0391470  58.0983630
  58.3849040  61.0981410  57.9372760  59.2160620  62.1292880  58.6706200
  59.4845930  54.8461850  58.3252560  59.8610750  53.9733730  58.2126230
  59.3865440  55.1820550  57.4343000  53.6150940  53.2187480  53.7870000
  53.7217690  54.1191210  54.0938760  52.7043300  53.1705450  53.4964650
  53.7394770  50.8272410  62.3858600  53.7413210  51.3444800  61.5804500
  52.9099080  50.3502590  62.3628530  63.9498470  62.4648150  54.0971270
  63.8394800  61.5222480  54.2220690  63.9466720  62.8263790  54.9834030
  62.0538490  60.6461770  60.3363710  62.4707280  60.4321880  59.5017170
  62.7778310  60.9034560  60.9072330  59.4787830  54.3630470  50.4500920
  58.5391500  54.5244430  50.5353380  59.7971090  55.0816150  49.9036910
  62.9642600  55.8318310  61.3734820  62.5513780  56.6572020  61.6274810
  62.2318550  55.2463350  61.1811180  55.0975390  58.6178210  56.2353490
  54.6932390  57.9055460  55.7399390  55.1838510  58.2731450  57.1241530
  55.5657090  62.3045770  58.3992700  55.2685380  61.6991240  57.7200480
  56.5156910  62.3423080  58.2882060  59.8076120  63.8316650  54.9323000
  60.2472030  64.5740980  54.5178390  59.7463010  64.0743220  55.8561960
  51.7980020  57.5123190  53.7360140  51.6777620  58.2385280  53.1241410
  51.4880910  56.7426100  53.2588050  50.6813020  62.3838520  55.9534960
  50.2741100  62.5253110  55.0988560  51.5726030  62.0998680  55.7506170
  62.4746300  66.8185770  52.2886010  62.3147440  66.5288710  53.1867840
  62.3093010  66.0425900  51.7531240  62.1772430  64.3273330  50.8484010
  61.4837590  64.3250620  50.1886290  62.9195290  63.9032650  50.4178180
  61.7422360  65.9536040  54.9232500  62.1979310  65.1725420  55.2371120
  62.0814880  66.6642860  55.4673680  54.2643680  50.8558260  57.1183810
  53.8211830  51.6367800  56.7868330  54.8228670  51.1788150  57.8254750
  58.5513490  53.7226780  62.7219130  58.0892860  53.9309800  63.5339070
  58.1491600  52.9086130  62.4189800  60.6467710  56.4437480  65.9514580
  60.9721120  55.6101230  65.6116810  61.4348040  56.9666000  66.0992910
  56.3019580  51.4005590  58.9773410  56.5991910  52.3068420  58.8965430
  56.8505140  50.9124370  58.3632980  56.4957110  56.8777410  65.5125330
  56.4000710  55.9372140  65.3625730  57.3389090  57.0992480  65.1173400
  58.2012700  53.3726050  66.7355850  57.5111020  53.1798250  67.3701940
  58.9445000  53.6560690  67.2680150  48.9284700  51.2119540  57.6989190
  48.6397750  51.7822400  58.4114170  49.6730460  50.7323990  58.0620420
  60.4775670  57.2124490  59.5709770  59.7456790  57.7211300  59.9199870
  60.0800010  56.3954470  59.2698550  56.9153060  53.8878690  57.9762260
  56.9189120  53.4468640  57.1266800  57.8104180  54.2096020  58.0834080
  56.9773210  54.8890770  50.9669020  57.0986030  54.8477250  51.9154840
  56.5921720  55.7514920  50.8115750  60.9401580  52.6658170  58.9832710
  60.9574320  53.1166820  59.8274560  60.6917160  51.7663810  59.1966150
  55.9894710  57.1991910  50.3652320  55.4211610  56.7510160  49.7388230
  56.6983710  57.5584690  49.8317470  57.2161030  57.9480470  59.7227670
  57.5831160  57.4739040  60.4689010  57.0266090  58.8222040  60.0636010
  50.0801520  52.6924160  55.8521140  49.7948440  52.3279830  56.6899760
  50.0180380  51.9604620  55.2384280  58.4649090  62.1296760  51.5484840
  58.8064790  62.8738990  51.0528160  57.6361800  62.4427880  51.9109670
  57.4339780  62.2110290  54.3200760  58.1210910  62.7579500  54.7008350
  56.6472200  62.7551020  54.3550370  56.7366990  59.2156320  53.9326120
  57.1929770  60.0261570  54.1586310  56.3855200  58.8979460  54.7644610
  52.6378770  49.5593970  54.4048640  52.5093400  49.5511870  55.3533560
  51.8140790  49.8977060  54.0539650  60.3131680  62.7295010  59.8795870
  60.9553910  62.0288170  59.9928040  60.8381030  63.5093450  59.6992760
  64.1587400  63.0143630  49.6035010  63.9324980  62.2974070  50.1959650
  63.7683600  62.7656070  48.7656760  49.6372700  51.3185090  63.8655340
  48.9231220  51.5182010  64.4707950  50.0567740  50.5424660  64.2370140
  63.7403650  60.9315570  51.2649170  63.4525350  61.3928260  52.0527050
  64.5355820  60.4713340  51.5333390  55.9572050  64.4241690  51.1953140
  55.9482150  65.1571380  50.5797650  55.0370410  64.1773270  51.2880100
  51.5578690  59.6456580  51.9399900  50.9506640  60.3855480  51.9495200
  52.0328040  59.7355940  51.1138100  61.1311480  53.8107400  61.6156790
  61.4992300  52.9902610  61.9436360  60.2709680  53.8709290  62.0312440
  58.9431650  64.4869930  49.8578330  59.0443630  64.2833920  48.9280310
  58.0433390  64.2328210  50.0626110  56.4657540  55.0450290  53.8402230
  55.7573690  55.5136630  54.2815840  56.7502020  54.3872300  54.4747420
  58.0913470  56.4646990  61.8394760  58.5898720  56.9392810  62.5046610
  58.2336420  55.5410510  62.0464790  57.5849760  67.0056250  54.5526000
  57.8391260  66.9677640  53.6305370  56.6362240  66.8789580  54.5454250
  54.6692560  53.3535370  51.2152940  55.5183090  53.7905520  51.1493130
  54.3023830  53.6655630  52.0425000  53.5683980  59.6067730  49.6888470
  54.3347250  59.4949090  50.2513900  53.6458670  58.9105700  49.0365240
  52.2630740  57.0392800  50.3721360  52.3434330  56.0920310  50.4838760
  53.1550490  57.3699680  50.4782020  53.0645450  67.1888190  57.4755900
  53.8007930  66.6403650  57.7464470  53.4486370  68.0544200  57.3361890
  56.1747760  66.3618500  49.2981470  56.9676370  66.6507330  48.8463260
  55.6552110  65.9310670  48.6193950  56.6925160  61.5821910  49.1623820
  56.5875800  60.9674260  49.8885200  56.5249380  61.0587800  48.3786830
  59.9327890  60.6441940  49.7665810  59.3837990  61.0911240  50.4108550
  60.5547150  60.1391190  50.2903480  55.6003010  59.6032860  51.6631110
  56.0219430  59.4372730  52.5062500  55.7253850  58.7933090  51.1686250
  58.1130650  58.6270470  48.9108210  58.6336310  57.9119490  48.5449360
  58.7599050  59.2656340  49.2108720  54.2502730  52.5491780  64.5499380
  54.1559600  51.9312530  63.8250250  53.6700120  53.2758070  64.3229290
  57.0164170  51.1065020  61.5826770  56.5681470  51.1289280  60.7372320
  56.3829370  50.7084040  62.1797070  57.4223720  60.0019350  62.2039210
  57.8411830  60.8452080  62.0315450  56.5032350  60.1391390  61.9745990
  59.7587620  57.7335530  63.5877050  59.8783830  57.1376670  64.3271890
  60.6181620  57.7705220  63.1678350  62.0975520  58.2872720  62.1639560
  61.5710740  58.8115340  61.5604700  62.4406860  58.9200110  62.7949290
  54.4961910  55.6766090  48.6089270  54.2950970  54.8133450  48.9702610
  54.3253960  55.5899450  47.6710870  55.2731140  66.3072360  63.3196940
  54.7352230  67.0318420  63.0005640  55.5265100  65.8302700  62.5294280
  56.5256390  54.2756880  64.8452870  57.1156080  53.9672730  65.5330690
  55.7076630  53.8036630  65.0012770  53.2944710  52.7766710  48.5967150
  53.5970610  52.7834140  47.6886300  54.0339300  52.4264570  49.0934810
  56.5129640  51.7201330  49.5823350  56.1651640  51.0425320  49.0025800
  56.7142410  51.2590840  50.3966740  58.6778680  66.7082080  51.2009950
  59.5729470  67.0467050  51.2228710  58.7096310  65.9861490  50.5734230
  49.5320640  64.8698160  56.8817210  49.8623650  64.0019220  56.6495850
  49.9611640  65.0756680  57.7122170  66.8974480  62.9803570  49.2445860
  66.0667440  63.0480220  49.7153090  67.0746310  63.8707690  48.9412720
  49.8535280  58.2488980  55.9787720  49.1984120  57.9800620  55.3347420
  50.6913230  58.1393460  55.5289700  66.4050110  60.0185420  48.9052580
  66.6798950  60.9264300  48.7771800  66.2160850  59.9547950  49.8414570
  49.0673360  55.4587910  51.9213050  48.1637440  55.7218110  51.7464710
  49.5513980  55.7299080  51.1413010  51.6100570  54.5153450  49.8307430
  52.3192270  54.0936670  49.3454710  50.8940510  54.5828680  49.1990780
  51.2574730  50.5692780  48.8710080  51.9802860  51.1101720  49.1891300
  51.5299250  50.2956200  47.9951620  50.9466920  49.8198970  58.7732700
  51.5943110  49.2696350  58.3327860  51.3668760  50.0742120  59.5948510
  67.3843810  51.9054120  48.9125480  68.3093120  51.7735300  48.7043770
  67.3619600  51.9846940  49.8661930  50.6998920  49.9754640  61.5158020
  50.3513740  50.4318460  62.2816200  50.3686620  49.0811770  61.5980450
  56.0069320  64.7033830  61.2820930  55.7660680  64.9708390  60.3951450
  56.9471960  64.8739560  61.3371790  58.2123740  51.1666520  65.0377440
  58.1512630  51.7588350  65.7872850  59.1524120  51.0592480  64.8927700
  60.8498300  50.8236580  64.6769730  61.4638710  51.1415870  64.0150810
  61.3947860  50.3385170  65.2965590  51.3719560  49.5030840  64.7908790
  51.9202550  49.3218890  64.0274900  51.4374870  48.7124950  65.3265100
  55.3808650  65.6739870  58.5366440  55.8973670  65.0627230  58.0114700
  56.0306030  66.1768650  59.0277450  59.3381160  50.3038560  59.9431930
  58.5552950  50.7784060  60.2228690  59.0444090  49.3993390  59.8345110
  50.6821570  50.6086040  52.4645650  51.4400930  50.7214920  51.8909680
  50.2198740  51.4455240  52.4189080  57.2235380  52.7225310  55.4547960
  56.4109890  52.3482200  55.1143840  57.7277020  51.9670390  55.7569150
  53.0546720  51.1350090  51.0047620  53.5839480  50.3479890  50.8755570
  53.6875040  51.8141280  51.2383150  55.2484560  50.8725230  54.0593010
  54.6187300  50.1712540  54.2263140  54.7089700  51.6329360  53.8426170
  55.3740120  50.1509210  66.4945500  55.0924390  50.6542810  65.7306320
  55.7559820  49.3530960  66.1287630  61.9755580  49.5662790  67.0725970
  61.8621030  49.8857400  67.9677490  62.7925320  49.9675300  66.7763250
  60.8813730  57.5855260  37.4360710  60.8007780  56.6709870  37.1652420
  60.4678150  58.0822330  36.7300420  59.0131770  59.3634280  39.3169980
  58.2373870  58.8834720  39.6068550  59.6644700  58.6839930  39.1426140
  53.0297600  59.6754090  40.1945740  52.1982480  59.4202800  40.5942250
  53.6378580  59.7464860  40.9303660  63.0339200  63.7694470  38.0969110
  62.5720730  62.9981710  38.4256280  63.8464750  63.7960540  38.6021560
  49.4022560  57.2361630  39.8627830  49.9738670  56.4683830  39.8631470
  49.4024100  57.5350390  38.9534440  59.2602510  66.0552480  37.7173100
  58.6413950  66.5109980  37.1467540  60.1154290  66.2103940  37.3162800
  58.4540760  62.0391470  39.3240140  58.3849040  61.0981410  39.1629270
  59.2160620  62.1292880  39.8962710  59.4845930  54.8461850  39.5509070
  59.8610750  53.9733730  39.4382740  59.3865440  55.1820550  38.6599510
  63.2670050  52.3412290  36.4837410  64.0879670  51.8508860  36.5262890
  63.3004130  52.9309950  37.2369250  55.4558670  56.1873850  39.3451690
  55.9636890  56.6854820  39.9856710  55.9871910  55.4109050  39.1691050
  67.5569600  54.3579040  43.0481040  66.8521770  54.7460750  42.5296150
  67.8227520  55.0529330  43.6501970  53.7394770  50.8272410  43.6115110
  53.7413210  51.3444800  42.8061010  52.9099080  50.3502590  43.5885040
  60.1265860  60.9391720  35.1105010  59.5083130  61.4041170  34.5467730
  60.6389110  61.6319200  35.5274520  65.1194310  63.8987800  41.5192430
  64.4357830  64.5686910  41.5109100  65.6588600  64.0968450  40.7537290
  62.6553050  65.7431930  40.2337610  62.6680210  65.3394220  39.3659870
  62.1028270  66.5179220  40.1299040  62.0538490  60.6461770  41.5620220
  62.4707280  60.4321880  40.7273680  62.7778310  60.9034560  42.1328840
  59.4918750  58.0913470  34.6790270  58.5648030  58.0250850  34.9078740
  59.6443570  59.0293600  34.5645510  63.5216040  59.6533770  35.1825520
  62.9028460  59.3153320  34.5351820  63.5040490  59.0093530  35.8904710
  55.0975390  58.6178210  37.4610000  54.6932390  57.9055460  36.9655900
  55.1838510  58.2731450  38.3498040  53.8104010  55.3921420  41.2409040
  54.3618600  55.5016760  40.4662290  54.3247520  55.7659020  41.9564270
  63.6542700  65.8777640  43.2872310  63.1773260  66.6849830  43.0944920
  62.9704490  65.2255970  43.4398520  61.6980740  58.8920580  32.1898270
  62.1374020  58.0543010  32.0436090  62.4109160  59.5249980  32.2762410
  59.8076120  63.8316650  36.1579510  60.2472030  64.5740980  35.7434900
  59.7463010  64.0743220  37.0818470  65.2797880  50.1463390  30.5039310
  64.9670540  50.2390220  31.4038380  66.0410350  50.7244420  30.4536740
  51.7980020  57.5123190  34.9616650  51.6777620  58.2385280  34.3497920
  51.4880910  56.7426100  34.4844560  49.4365390  60.6838330  40.7685290
  49.5145810  60.8187100  39.8241010  50.0507070  59.9754220  40.9613410
  50.6813020  62.3838520  37.1791470  50.2741100  62.5253110  36.3245070
  51.5726030  62.0998680  36.9762680  66.6375160  62.8302430  45.5163710
  66.7638220  62.5914310  44.5980890  66.6796540  61.9986970  45.9885790
  60.4991900  66.5330430  44.0858520  61.0136570  66.4438440  44.8880950
  59.6560980  66.8790130  44.3786430  54.9534680  66.5984300  35.2914140
  54.7777160  65.6819840  35.0781940  54.0990420  66.9571590  35.5311940
  66.4899170  54.8834890  46.4813450  65.8743440  55.3914560  45.9528910
  66.1695590  53.9833220  46.4239390  58.5513490  53.7226780  43.9475640
  58.0892860  53.9309800  44.7595580  58.1491600  52.9086130  43.6446310
  63.5518000  54.9435730  45.0772300  62.7011590  54.6441480  45.3981370
  63.3919790  55.1877740  44.1656120  60.6467710  56.4437480  47.1771090
  60.9721120  55.6101230  46.8373320  61.4348040  56.9666000  47.3249420
  56.3019580  51.4005590  40.2029920  56.5991910  52.3068420  40.1221940
  56.8505140  50.9124370  39.5889490  61.2855660  55.9855200  34.6712220
  60.6864550  56.7091000  34.4875840  61.8335270  55.9231980  33.8888670
  56.4957110  56.8777410  46.7381840  56.4000710  55.9372140  46.5882240
  57.3389090  57.0992480  46.3429910  59.8920530  54.6218740  36.7015500
  60.2850100  54.9390940  35.8884190  60.2537380  53.7430620  36.8160020
  51.6267650  53.2891080  44.8915620  51.2331040  54.1366290  45.0988400
  50.9386050  52.6517450  45.0824260  58.2012700  53.3726050  47.9612360
  57.5111020  53.1798250  48.5958450  58.9445000  53.6560690  48.4936660
  49.1154930  55.1539660  30.1348420  49.0329600  56.0970420  30.2763410
  48.7637990  55.0114570  29.2560770  60.4775670  57.2124490  40.7966280
  59.7456790  57.7211300  41.1456380  60.0800010  56.3954470  40.4955060
  56.9153060  53.8878690  39.2018770  56.9189120  53.4468640  38.3523310
  57.8104180  54.2096020  39.3090590  60.9401580  52.6658170  40.2089220
  60.9574320  53.1166820  41.0531070  60.6917160  51.7663810  40.4222660
  55.9894710  57.1991910  31.5908830  55.4211610  56.7510160  30.9644740
  56.6983710  57.5584690  31.0573980  64.3672330  50.0790350  46.0475600
  64.6918100  49.3480010  46.5733580  64.4028840  49.7603990  45.1456590
  57.2161030  57.9480470  40.9484180  57.5831160  57.4739040  41.6945520
  57.0266090  58.8222040  41.2892520  55.0060400  56.9889110  43.2668390
  54.7017470  57.8681090  43.4918750  55.9606860  57.0488900  43.3025830
  53.5342190  61.1950100  33.8635240  52.7604450  60.6547720  33.7033960
  54.2636820  60.6756710  33.5253000  59.7540110  51.5853420  33.7991020
  58.9404720  51.0866590  33.7236330  59.5602060  52.4251670  33.3827370
  59.6748970  60.2624520  45.5430630  59.6086280  59.3420190  45.2888220
  59.0454110  60.3599960  46.2575270  62.4688500  55.9573070  32.0953180
  63.3568120  56.2690300  31.9204520  62.4393590  55.0845320  31.7033760
  53.5779590  60.8630480  37.5014050  54.0958260  60.0598740  37.4470940
  53.1263610  60.8009620  38.3430880  54.2637250  58.2876090  47.2979300
  53.9637390  58.4333270  46.4007120  55.0348490  57.7281380  47.2052690
  59.6065700  63.0845090  45.2934430  59.6210240  62.1526050  45.0753340
  58.8990800  63.1704850  45.9324200  64.7402770  57.2684910  31.5633040
  64.6566490  57.6999130  30.7129480  65.4596960  57.7283260  31.9959860
  65.8176910  59.7252430  44.6403010  65.0925100  60.3181210  44.4432400
  66.3452370  59.7175970  43.8416380  61.3476500  61.4512600  38.1386860
  61.7000320  60.8540730  37.4788230  60.4638830  61.1256830  38.3095110
  57.4339780  62.2110290  35.5457270  58.1210910  62.7579500  35.9264860
  56.6472200  62.7551020  35.5806880  56.7366990  59.2156320  35.1582630
  57.1929770  60.0261570  35.3842820  56.3855200  58.8979460  35.9901120
  59.0399600  64.7262660  42.3874930  59.6841820  64.9322040  43.0648350
  59.4029040  63.9651060  41.9345780  60.3131680  62.7295010  41.1052380
  60.9553910  62.0288170  41.2184550  60.8381030  63.5093450  40.9249270
  62.0869300  63.5289910  44.3088440  62.4225540  64.1156600  44.9866360
  61.1669640  63.3982620  44.5386230  49.9403430  67.0410490  31.6035980
  50.3001070  67.6399830  30.9493250  49.7995770  67.5870380  32.3771010
  49.6372700  51.3185090  45.0911850  48.9231220  51.5182010  45.6964460
  50.0567740  50.5424660  45.4626650  57.9157880  63.5781240  47.4776500
  57.5954750  62.8590480  48.0222190  57.2416240  64.2536310  47.5512560
  55.9572050  64.4241690  32.4209650  55.9482150  65.1571380  31.8054160
  55.0370410  64.1773270  32.5136610  61.1311480  53.8107400  42.8413300
  61.4992300  52.9902610  43.1692870  60.2709680  53.8709290  43.2568950
  64.4973510  52.7664340  33.6500860  63.8686670  52.8710010  32.9359090
  64.0025430  52.9861120  34.4394740  58.0913470  56.4646990  43.0651270
  58.5898720  56.9392810  43.7303120  58.2336420  55.5410510  43.2721300
  60.4972970  51.7700950  36.5054530  60.3740750  51.7887080  35.5564040
  61.4457530  51.8179890  36.6252930  57.5849760  67.0056250  35.7782510
  57.8391260  66.9677640  34.8561880  56.6362240  66.8789580  35.7710760
  65.2980330  52.6814950  43.9079660  64.7953930  53.4220350  44.2473470
  66.1136990  53.0698950  43.5916450  53.5683980  59.6067730  30.9144980
  54.3347250  59.4949090  31.4770410  53.6458670  58.9105700  30.2621750
  52.2630740  57.0392800  31.5977870  52.3434330  56.0920310  31.7095270
  53.1550490  57.3699680  31.7038530  56.1747760  66.3618500  30.5237980
  56.9676370  66.6507330  30.0719770  55.6552110  65.9310670  29.8450460
  60.9068360  62.4814130  47.8373400  60.3006520  62.5045730  47.0969150
  60.6022470  61.7497170  48.3740650  62.3368730  66.2094420  46.4482810
  63.2890480  66.1252440  46.3983050  62.1896950  66.8736130  47.1216600
  63.9862830  61.9984040  46.9244580  64.7272300  62.3359800  46.4212040
  63.2235510  62.1676100  46.3714350  51.8224620  57.0037310  47.7284110
  51.8629960  56.7051180  48.6369340  52.6770120  57.4044920  47.5691630
  55.6003010  59.6032860  32.8887620  56.0219430  59.4372730  33.7319010
  55.7253850  58.7933090  32.3942760  53.7630430  55.5829410  45.6958600
  53.2326890  55.0920360  45.0681940  54.4318500  56.0113610  45.1616530
  58.1130650  58.6270470  30.1364720  58.6336310  57.9119490  29.7705870
  58.7599050  59.2656340  30.4365230  62.6608490  60.0498870  45.4599790
  63.0749510  60.2043950  46.3090210  61.7259490  60.1754090  45.6225570
  63.1330660  57.3895030  47.4638940  63.7151430  56.6347350  47.3759420
  63.3092430  57.9202470  46.6870420  54.2502730  52.5491780  45.7755890
  54.1559600  51.9312530  45.0506760  53.6700120  53.2758070  45.5485800
  57.0164170  51.1065020  42.8083280  56.5681470  51.1289280  41.9628830
  56.3829370  50.7084040  43.4053580  59.7587620  57.7335530  44.8133560
  59.8783830  57.1376670  45.5528400  60.6181620  57.7705220  44.3934860
  62.0975520  58.2872720  43.3896070  61.5710740  58.8115340  42.7861210
  62.4406860  58.9200110  44.0205800  56.5256390  54.2756880  46.0709380
  57.1156080  53.9672730  46.7587200  55.7076630  53.8036630  46.2269280
  61.3449820  53.8922690  46.3042400  60.6565340  53.2304230  46.2392390
  62.0655840  53.4460960  46.7490860  61.9750220  50.4874320  32.3632660
  62.2552510  49.6442220  32.7192080  61.2015950  50.7197430  32.8771410
  58.1293350  67.5423570  44.8040100  58.0552050  68.4458710  45.1112470
  57.2272190  67.2235470  44.7762170  58.6778680  66.7082080  32.4266460
  59.5729470  67.0467050  32.4485220  58.7096310  65.9861490  31.7990740
  49.5320640  64.8698160  38.1073720  49.8623650  64.0019220  37.8752360
  49.9611640  65.0756680  38.9378680  54.1282560  63.2007170  35.7675690
  53.8278100  63.0772140  36.6679600  54.0220050  62.3415760  35.3591420
  65.6573030  65.2385750  45.1332660  65.0575020  65.2978310  44.3896580
  65.7866930  64.2990730  45.2629510  66.3530940  59.7251050  32.9736570
  67.1149850  60.2947700  33.0796260  66.3685310  59.1578250  33.7444880
  49.8535280  58.2488980  37.2044230  49.1984120  57.9800620  36.5603930
  50.6913230  58.1393460  36.7546210  67.3590910  60.5801150  37.8178500
  67.7299740  59.7968470  37.4114470  67.9992840  61.2690250  37.6395800
  64.3424670  61.9637730  43.2308820  63.5284510  62.3934890  43.4934610
  64.7498870  62.5756140  42.6177870  66.4050110  60.0185420  30.1309090
  66.6798950  60.9264300  30.0028310  66.2160850  59.9547950  31.0671080
  62.8025720  53.0430270  31.4262720  63.2210600  52.8561250  30.5859380
  62.4961780  52.1909320  31.7365650  65.6915070  57.1025930  44.7578040
  65.4601160  56.8738680  43.8575990  65.9519620  58.0225480  44.7122930
  50.4427210  55.5450640  45.6505990  49.5483260  55.5117400  45.9899700
  50.9824760  55.7437430  46.4157240  64.1303140  52.3282360  47.5357740
  65.0073320  52.3365760  47.9191740  64.1423980  51.5913200  46.9250090
  67.3843810  51.9054120  30.1381990  68.3093120  51.7735300  29.9300280
  67.3619600  51.9846940  31.0918440  67.4582300  52.6764780  32.7638700
  66.6633800  52.6109900  33.2931610  67.6625580  53.6115420  32.7524050
  50.6998920  49.9754640  42.7414530  50.3513740  50.4318460  43.5072710
  50.3686620  49.0811770  42.8236960  58.2123740  51.1666520  46.2633950
  58.1512630  51.7588350  47.0129360  59.1524120  51.0592480  46.1184210
  60.8498300  50.8236580  45.9026240  61.4638710  51.1415870  45.2407320
  61.3947860  50.3385170  46.5222100  67.2673480  66.7228210  43.3088080
  66.7731760  67.1197080  42.5915210  66.6586770  66.0977420  43.7025360
  51.3719560  49.5030840  46.0165300  51.9202550  49.3218890  45.2531410
  51.4374870  48.7124950  46.5521610  62.4978320  51.5939590  43.6137250
  62.1691680  50.7791350  43.2338980  63.4460620  51.5509400  43.4902940
  64.9512930  67.3651630  40.5874820  64.4915900  68.1167440  40.2132840
  64.3225390  66.6458100  40.5289620  58.1204150  66.5648360  40.5891930
  58.4081960  66.3102660  39.7124940  58.6327370  66.0125720  41.1797500
  59.3381160  50.3038560  41.1688440  58.5552950  50.7784060  41.4485200
  59.0444090  49.3993390  41.0601620  63.8902230  51.0061660  39.2137530
  64.3310320  50.9506760  38.3659130  63.6209820  51.9219670  39.2847710
  65.7540800  50.6376900  37.2246350  65.6929200  49.6938120  37.0777370
  66.5332830  50.7456990  37.7699810  50.0593550  66.7769260  36.1870300
  49.8915590  66.1439940  36.8852190  49.1928060  66.9828660  35.8364490
  61.7260360  49.3867760  37.9187540  62.3289730  49.9587970  38.3936060
  60.9853350  49.9507200  37.6961440  64.8694960  49.7889320  33.1927820
  65.0645590  50.6872770  33.4595250  64.0824830  49.5576400  33.6860770
  51.6656250  65.4702490  33.6320440  51.1403870  65.8510520  32.9282400
  51.5900830  66.0953260  34.3530150  58.1876510  67.4864460  47.9560130
  59.1143820  67.2508730  47.9996090  58.1726940  68.3136460  47.4746160
  55.3740120  50.1509210  47.7202010  55.0924390  50.6542810  46.9562830
  55.7559820  49.3530960  47.3544140  54.2649220  67.4184870  32.5069690
  54.9968040  67.1344150  31.9593580  54.5242890  67.1798150  33.3969070
  53.4264010  63.5349600  32.5116020  52.7972890  64.0034700  33.0601850
  53.5411840  62.6898820  32.9462210  61.9755580  49.5662790  48.2982480
  61.8621030  49.8857400  49.1934000  62.7925320  49.9675300  48.0019760
  60.8813730  57.5855260  18.6617220  60.8007780  56.6709870  18.3908930
  60.4678150  58.0822330  17.9556930  53.0297600  59.6754090  21.4202250
  52.1982480  59.4202800  21.8198760  53.6378580  59.7464860  22.1560170
  63.0339200  63.7694470  19.3225620  62.5720730  62.9981710  19.6512790
  63.8464750  63.7960540  19.8278070  53.0098860  63.7094180  21.6160270
  53.3126900  62.8191920  21.4370490  53.7542450  64.2664400  21.3882520
  51.4389550  54.6355980  15.2044640  50.5506250  54.9771950  15.1024520
  51.7230740  54.4356300  14.3125470  49.4022560  57.2361630  21.0884340
  49.9738670  56.4683830  21.0887980  49.4024100  57.5350390  20.1790950
  59.2602510  66.0552480  18.9429610  58.6413950  66.5109980  18.3724050
  60.1154290  66.2103940  18.5419310  50.6447430  52.6445990  22.8753270
  50.4650270  51.7471740  23.1556030  50.2427510  53.1917860  23.5500220
  53.6150940  53.2187480  16.2383020  53.7217690  54.1191210  16.5451780
  52.7043300  53.1705450  15.9477670  63.2670050  52.3412290  17.7093920
  64.0879670  51.8508860  17.7519400  63.3004130  52.9309950  18.4625760
  51.2634100  55.1406490  21.4835610  51.9444210  55.4044860  22.1023010
  50.9482150  54.3007360  21.8173620  55.4558670  56.1873850  20.5708200
  55.9636890  56.6854820  21.2113220  55.9871910  55.4109050  20.3947560
  67.5569600  54.3579040  24.2737550  66.8521770  54.7460750  23.7552660
  67.8227520  55.0529330  24.8758480  60.1265860  60.9391720  16.3361520
  59.5083130  61.4041170  15.7724240  60.6389110  61.6319200  16.7531030
  63.5031530  54.2812670  20.4821460  62.7987100  54.5697560  21.0624570
  63.8643690  55.0912780  20.1221020  53.4210100  52.5382370  22.8442070
  53.7626910  53.3824420  22.5495940  52.4825910  52.6866110  22.9607410
  49.4949060  61.6248250  13.7101150  49.1177040  62.1135350  12.9786050
  49.7522130  62.2973530  14.3407680  66.5718450  53.7267460  20.8730670
  65.6243360  53.7606440  21.0046100  66.8968440  54.5406410  21.2580030
  57.1037990  50.0264640  19.1686660  57.4112970  49.4711530  18.4522160
  56.1738690  50.1609100  18.9859650  62.6553050  65.7431930  21.4594120
  62.6680210  65.3394220  20.5916380  62.1028270  66.5179220  21.3555550
  63.9498470  62.4648150  16.5484290  63.8394800  61.5222480  16.6733710
  63.9466720  62.8263790  17.4347050  59.4918750  58.0913470  15.9046780
  58.5648030  58.0250850  16.1335250  59.6443570  59.0293600  15.7902020
  59.4787830  54.3630470  12.9013940  58.5391500  54.5244430  12.9866400
  59.7971090  55.0816150  12.3549930  63.5216040  59.6533770  16.4082030
  62.9028460  59.3153320  15.7608330  63.5040490  59.0093530  17.1161220
  62.9642600  55.8318310  23.8247840  62.5513780  56.6572020  24.0787830
  62.2318550  55.2463350  23.6324200  55.0975390  58.6178210  18.6866510
  54.6932390  57.9055460  18.1912410  55.1838510  58.2731450  19.5754550
  53.8104010  55.3921420  22.4665550  54.3618600  55.5016760  21.6918800
  54.3247520  55.7659020  23.1820780  63.6542700  65.8777640  24.5128820
  63.1773260  66.6849830  24.3201430  62.9704490  65.2255970  24.6655030
  54.6575520  62.0427460  27.5013520  53.7604050  62.2667430  27.7486920
  54.6828390  62.1662400  26.5524920  61.6980740  58.8920580  13.4154780
  62.1374020  58.0543010  13.2692600  62.4109160  59.5249980  13.5018920
  53.4846740  58.9140780  26.0770890  53.3454510  59.7863580  26.4458290
  52.6028100  58.5713590  25.9318830  59.8076120  63.8316650  17.3836020
  60.2472030  64.5740980  16.9691410  59.7463010  64.0743220  18.3074980
  55.2827090  64.8562480  28.2856040  55.2542520  65.2605430  27.4184470
  55.1192060  63.9272840  28.1227640  65.2797880  50.1463390  11.7295820
  64.9670540  50.2390220  12.6294890  66.0410350  50.7244420  11.6793250
  51.7980020  57.5123190  16.1873160  51.6777620  58.2385280  15.5754430
  51.4880910  56.7426100  15.7101070  67.2341910  65.6389580  29.5820210
  67.7101630  66.1172470  30.2609290  67.8549070  65.5707070  28.8565710
  49.4365390  60.6838330  21.9941800  49.5145810  60.8187100  21.0497520
  50.0507070  59.9754220  22.1869920  50.6813020  62.3838520  18.4047980
  50.2741100  62.5253110  17.5501580  51.5726030  62.0998680  18.2019190
  66.6375160  62.8302430  26.7420220  66.7638220  62.5914310  25.8237400
  66.6796540  61.9986970  27.2142300  60.4991900  66.5330430  25.3115030
  61.0136570  66.4438440  26.1137460  59.6560980  66.8790130  25.6042940
  62.4746300  66.8185770  14.7399030  62.3147440  66.5288710  15.6380860
  62.3093010  66.0425900  14.2044260  54.9534680  66.5984300  16.5170650
  54.7777160  65.6819840  16.3038450  54.0990420  66.9571590  16.7568450
  62.1772430  64.3273330  13.2997030  61.4837590  64.3250620  12.6399310
  62.9195290  63.9032650  12.8691200  61.7422360  65.9536040  17.3745520
  62.1979310  65.1725420  17.6884140  62.0814880  66.6642860  17.9186700
  66.4899170  54.8834890  27.7069960  65.8743440  55.3914560  27.1785420
  66.1695590  53.9833220  27.6495900  49.4924910  61.7252500  24.5336260
  49.6555950  61.2557860  23.7155630  49.9577360  61.2176060  25.1985100
  54.2643680  50.8558260  19.5696830  53.8211830  51.6367800  19.2381350
  54.8228670  51.1788150  20.2767770  63.5518000  54.9435730  26.3028810
  62.7011590  54.6441480  26.6237880  63.3919790  55.1877740  25.3912630
  60.6467710  56.4437480  28.4027600  60.9721120  55.6101230  28.0629830
  61.4348040  56.9666000  28.5505930  57.3802500  50.4768960  14.4502660
  56.7556680  50.4728830  15.1755970  57.2932620  49.6099920  14.0538630
  56.3019580  51.4005590  21.4286430  56.5991910  52.3068420  21.3478450
  56.8505140  50.9124370  20.8146000  54.0557900  55.9791830  17.2978080
  53.8298820  55.7629000  18.2024700  53.2750430  56.4120290  16.9524050
  61.2855660  55.9855200  15.8968730  60.6864550  56.7091000  15.7132350
  61.8335270  55.9231980  15.1145180  56.4957110  56.8777410  27.9638350
  56.4000710  55.9372140  27.8138750  57.3389090  57.0992480  27.5686420
  59.8920530  54.6218740  17.9272010  60.2850100  54.9390940  17.1140700
  60.2537380  53.7430620  18.0416530  51.6267650  53.2891080  26.1172130
  51.2331040  54.1366290  26.3244910  50.9386050  52.6517450  26.3080770
  48.9284700  51.2119540  20.1502210  48.6397750  51.7822400  20.8627190
  49.6730460  50.7323990  20.5133440  49.1154930  55.1539660  11.3604930
  49.0329600  56.0970420  11.5019920  48.7637990  55.0114570  10.4817280
  56.9153060  53.8878690  20.4275280  56.9189120  53.4468640  19.5779820
  57.8104180  54.2096020  20.5347100  52.7655440  53.7705180  19.3869490
  52.4255490  54.2480410  20.1436540  52.0032760  53.3170300  19.0270590
  56.9773210  54.8890770  13.4182040  57.0986030  54.8477250  14.3667860
  56.5921720  55.7514920  13.2628770  60.9401580  52.6658170  21.4345730
  60.9574320  53.1166820  22.2787580  60.6917160  51.7663810  21.6479170
  55.9894710  57.1991910  12.8165340  55.4211610  56.7510160  12.1901250
  56.6983710  57.5584690  12.2830490  64.3672330  50.0790350  27.2732110
  64.6918100  49.3480010  27.7990090  64.4028840  49.7603990  26.3713100
  51.0663890  61.1003930  26.6932070  50.6818680  60.4597600  27.2915030
  51.3776080  61.8040050  27.2626800  50.0801520  52.6924160  18.3034160
  49.7948440  52.3279830  19.1412780  50.0180380  51.9604620  17.6897300
  53.5342190  61.1950100  15.0891750  52.7604450  60.6547720  14.9290470
  54.2636820  60.6756710  14.7509510  59.7540110  51.5853420  15.0247530
  58.9404720  51.0866590  14.9492840  59.5602060  52.4251670  14.6083880
  62.4688500  55.9573070  13.3209690  63.3568120  56.2690300  13.1461030
  62.4393590  55.0845320  12.9290270  53.5779590  60.8630480  18.7270560
  54.0958260  60.0598740  18.6727450  53.1263610  60.8009620  19.5687390
  58.4649090  62.1296760  13.9997860  58.8064790  62.8738990  13.5041180
  57.6361800  62.4427880  14.3622690  51.0624130  57.8291850  25.6396260
  50.7039070  58.4945700  26.2269600  50.7678690  56.9975400  26.0108880
  54.2637250  58.2876090  28.5235810  53.9637390  58.4333270  27.6263630
  55.0348490  57.7281380  28.4309200  64.7402770  57.2684910  12.7889550
  64.6566490  57.6999130  11.9385990  65.4596960  57.7283260  13.2216370
  65.7690020  64.1227170  15.5171680  65.1266180  63.4682790  15.7915400
  65.3820680  64.5282260  14.7412350  57.4339780  62.2110290  16.7713780
  58.1210910  62.7579500  17.1521370  56.6472200  62.7551020  16.8063390
  49.5732180  57.8283110  12.2630860  50.4427030  58.1107910  12.5466780
  49.0822500  58.6418980  12.1479670  56.7366990  59.2156320  16.3839140
  57.1929770  60.0261570  16.6099330  56.3855200  58.8979460  17.2157630
  59.0399600  64.7262660  23.6131440  59.6841820  64.9322040  24.2904860
  59.4029040  63.9651060  23.1602290  52.6378770  49.5593970  16.8561660
  52.5093400  49.5511870  17.8046580  51.8140790  49.8977060  16.5052670
  64.1587400  63.0143630  12.0548030  63.9324980  62.2974070  12.6472670
  63.7683600  62.7656070  11.2169780  49.9403430  67.0410490  12.8292490
  50.3001070  67.6399830  12.1749760  49.7995770  67.5870380  13.6027520
  49.6372700  51.3185090  26.3168360  48.9231220  51.5182010  26.9220970
  50.0567740  50.5424660  26.6883160  63.7403650  60.9315570  13.7162190
  63.4525350  61.3928260  14.5040070  64.5355820  60.4713340  13.9846410
  49.9245290  65.3065350  27.3034890  50.0336410  64.3660090  27.1630280
  49.2725850  65.5720100  26.6548620  55.9572050  64.4241690  13.6466160
  55.9482150  65.1571380  13.0310670  55.0370410  64.1773270  13.7393120
  51.5578690  59.6456580  14.3912920  50.9506640  60.3855480  14.4008220
  52.0328040  59.7355940  13.5651120  61.1311480  53.8107400  24.0669810
  61.4992300  52.9902610  24.3949380  60.2709680  53.8709290  24.4825460
  64.4973510  52.7664340  14.8757370  63.8686670  52.8710010  14.1615600
  64.0025430  52.9861120  15.6651250  58.9431650  64.4869930  12.3091350
  59.0443630  64.2833920  11.3793330  58.0433390  64.2328210  12.5139130
  56.4657540  55.0450290  16.2915250  55.7573690  55.5136630  16.7328860
  56.7502020  54.3872300  16.9260440  60.4972970  51.7700950  17.7311040
  60.3740750  51.7887080  16.7820550  61.4457530  51.8179890  17.8509440
  57.5849760  67.0056250  17.0039020  57.8391260  66.9677640  16.0818390
  56.6362240  66.8789580  16.9967270  54.6692560  53.3535370  13.6665960
  55.5183090  53.7905520  13.6006150  54.3023830  53.6655630  14.4938020
  65.2980330  52.6814950  25.1336170  64.7953930  53.4220350  25.4729980
  66.1136990  53.0698950  24.8172960  63.5902340  57.9248130  18.5797530
  62.6492480  57.9398360  18.7545220  63.9046410  57.1384090  19.0257830
  53.5683980  59.6067730  12.1401490  54.3347250  59.4949090  12.7026920
  53.6458670  58.9105700  11.4878260  52.2630740  57.0392800  12.8234380
  52.3434330  56.0920310  12.9351780  53.1550490  57.3699680  12.9295040
  65.5927920  65.0956980  20.2551790  65.7175340  65.9188150  20.7275600
  66.4593480  64.8847710  19.9075940  53.0645450  67.1888190  19.9268920
  53.8007930  66.6403650  20.1977490  53.4486370  68.0544200  19.7874910
  49.9490930  63.2561760  15.8010430  49.0230710  63.4982900  15.7915840
  50.4147360  64.0836020  15.6795180  52.0703730  66.3734260  29.1154500
  52.8716460  66.6946310  29.5289900  51.5555550  66.0129840  29.8374410
  56.1747760  66.3618500  11.7494490  56.9676370  66.6507330  11.2976280
  55.6552110  65.9310670  11.0706970  62.3368730  66.2094420  27.6739320
  63.2890480  66.1252440  27.6239560  62.1896950  66.8736130  28.3473110
  65.2277930  65.5888630  13.1731230  64.9419440  65.1753770  12.3585410
  65.0297480  66.5176340  13.0531750  49.7901540  58.8607720  28.0590550
  50.2940560  58.2815000  28.6306780  49.0508960  59.1447950  28.5966920
  56.6925160  61.5821910  11.6136840  56.5875800  60.9674260  12.3398220
  56.5249380  61.0587800  10.8299850  59.9327890  60.6441940  12.2178830
  59.3837990  61.0911240  12.8621570  60.5547150  60.1391190  12.7416500
  51.8224620  57.0037310  28.9540620  51.8629960  56.7051180  29.8625850
  52.6770120  57.4044920  28.7948140  55.6003010  59.6032860  14.1144130
  56.0219430  59.4372730  14.9575520  55.7253850  58.7933090  13.6199270
  53.7630430  55.5829410  26.9215110  53.2326890  55.0920360  26.2938450
  54.4318500  56.0113610  26.3873040  58.1130650  58.6270470  11.3621230
  58.6336310  57.9119490  10.9962380  58.7599050  59.2656340  11.6621740
  57.0164170  51.1065020  24.0339790  56.5681470  51.1289280  23.1885340
  56.3829370  50.7084040  24.6310090  54.4961910  55.6766090  11.0602290
  54.2950970  54.8133450  11.4215630  54.3253960  55.5899450  10.1223890
  55.2731140  66.3072360  25.7709960  54.7352230  67.0318420  25.4518660
  55.5265100  65.8302700  24.9807300  61.3449820  53.8922690  27.5298910
  60.6565340  53.2304230  27.4648900  62.0655840  53.4460960  27.9747370
  61.9750220  50.4874320  13.5889170  62.2552510  49.6442220  13.9448590
  61.2015950  50.7197430  14.1027920  53.2944710  52.7766710  11.0480170
  53.5970610  52.7834140  10.1399320  54.0339300  52.4264570  11.5447830
  58.1293350  67.5423570  26.0296610  58.0552050  68.4458710  26.3368980
  57.2272190  67.2235470  26.0018680  56.5129640  51.7201330  12.0336370
  56.1651640  51.0425320  11.4538820  56.7142410  51.2590840  12.8479760
  58.6778680  66.7082080  13.6522970  59.5729470  67.0467050  13.6741730
  58.7096310  65.9861490  13.0247250  52.3174840  62.0809130  11.8809970
  52.7549710  62.6238800  12.5367550  52.8022570  61.2556080  11.8906310
  49.5320640  64.8698160  19.3330230  49.8623650  64.0019220  19.1008870
  49.9611640  65.0756680  20.1635190  54.1282560  63.2007170  16.9932200
  53.8278100  63.0772140  17.8936110  54.0220050  62.3415760  16.5847930
  50.0210850  65.7368750  22.0711860  49.5841840  65.9169550  22.9036010
  50.5888530  66.4943370  21.9293580  65.6573030  65.2385750  26.3589170
  65.0575020  65.2978310  25.6153090  65.7866930  64.2990730  26.4886020
  66.8974480  62.9803570  11.6958880  66.0667440  63.0480220  12.1666110
  67.0746310  63.8707690  11.3925740  66.3530940  59.7251050  14.1993080
  67.1149850  60.2947700  14.3052770  66.3685310  59.1578250  14.9701390
  49.8535280  58.2488980  18.4300740  49.1984120  57.9800620  17.7860440
  50.6913230  58.1393460  17.9802720  67.3590910  60.5801150  19.0435010
  67.7299740  59.7968470  18.6370980  67.9992840  61.2690250  18.8652310
  66.4050110  60.0185420  11.3565600  66.6798950  60.9264300  11.2284820
  66.2160850  59.9547950  12.2927590  62.8025720  53.0430270  12.6519230
  63.2210600  52.8561250  11.8115890  62.4961780  52.1909320  12.9622160
  66.3015450  57.9554410  16.3495030  65.9259050  57.1882340  15.9176320
  65.5718570  58.3377110  16.8369960  50.8911210  58.6341550  22.9704080
  51.2584250  58.5468950  23.8500100  50.3222030  57.8708100  22.8710940
  50.4427210  55.5450640  26.8762500  49.5483260  55.5117400  27.2156210
  50.9824760  55.7437430  27.6413750  64.1303140  52.3282360  28.7614250
  65.0073320  52.3365760  29.1448250  64.1423980  51.5913200  28.1506600
  49.0673360  55.4587910  14.3726070  48.1637440  55.7218110  14.1977730
  49.5513980  55.7299080  13.5926030  65.5766410  56.1811900  19.6502270
  66.1003890  55.6874550  19.0192440  66.1625830  56.3162260  20.3949840
  65.7556130  56.2651770  23.1721820  64.8058840  56.2315310  23.2866810
  65.9369140  57.1751880  22.9371590  51.6100570  54.5153450  12.2820450
  52.3192270  54.0936670  11.7967730  50.8940510  54.5828680  11.6503800
  51.2574730  50.5692780  11.3223100  51.9802860  51.1101720  11.6404320
  51.5299250  50.2956200  10.4464640  65.0666380  55.4385250  15.5894680
  65.5625500  55.2056120  16.3743560  64.8682450  54.5997090  15.1732320
  50.9466920  49.8198970  21.2245720  51.5943110  49.2696350  20.7840880
  51.3668760  50.0742120  22.0461530  66.4953540  54.0746200  18.1232360
  66.3852820  53.9202240  19.0614630  67.2561130  53.5467140  17.8807770
  64.8419260  50.0140330  24.5815360  65.4791480  50.6274470  24.9474550
  64.9894150  50.0500990  23.6364590  67.3843810  51.9054120  11.3638500
  68.3093120  51.7735300  11.1556790  67.3619600  51.9846940  12.3174950
  67.4582300  52.6764780  13.9895210  66.6633800  52.6109900  14.5188120
  67.6625580  53.6115420  13.9780560  64.4000720  66.7156330  17.9833600
  64.9959790  66.3940900  17.3068020  64.6578870  66.2428150  18.7746870
  50.6998920  49.9754640  23.9671040  50.3513740  50.4318460  24.7329220
  50.3686620  49.0811770  24.0493470  52.3063290  63.1474240  28.1324230
  52.2632920  62.7767150  29.0138690  52.4374300  64.0851810  28.2726050
  56.0069320  64.7033830  23.7333950  55.7660680  64.9708390  22.8464470
  56.9471960  64.8739560  23.7884810  60.8498300  50.8236580  27.1282750
  61.4638710  51.1415870  26.4663830  61.3947860  50.3385170  27.7478610
  67.2673480  66.7228210  24.5344590  66.7731760  67.1197080  23.8171720
  66.6586770  66.0977420  24.9281870  51.3719560  49.5030840  27.2421810
  51.9202550  49.3218890  26.4787920  51.4374870  48.7124950  27.7778120
  52.1451320  66.0936490  25.2522010  51.5511640  65.9621190  25.9912050
  52.1375160  65.2574630  24.7864110  61.5906340  49.3868720  23.4552040
  60.7166180  49.7203830  23.2524970  61.4817090  48.9141900  24.2803910
  62.4978320  51.5939590  24.8393760  62.1691680  50.7791350  24.4595490
  63.4460620  51.5509400  24.7159450  64.9512930  67.3651630  21.8131330
  64.4915900  68.1167440  21.4389350  64.3225390  66.6458100  21.7546130
  51.7763550  63.4594870  24.2030050  51.0497610  62.8400160  24.1356000
  51.8372700  63.8535480  23.3328130  55.3808650  65.6739870  20.9879460
  55.8973670  65.0627230  20.4627720  56.0306030  66.1768650  21.4790470
  58.1204150  66.5648360  21.8148440  58.4081960  66.3102660  20.9381450
  58.6327370  66.0125720  22.4054010  59.3381160  50.3038560  22.3944950
  58.5552950  50.7784060  22.6741710  59.0444090  49.3993390  22.2858130
  63.8902230  51.0061660  20.4394040  64.3310320  50.9506760  19.5915640
  63.6209820  51.9219670  20.5104220  65.7540800  50.6376900  18.4502860
  65.6929200  49.6938120  18.3033880  66.5332830  50.7456990  18.9956320
  50.0593550  66.7769260  17.4126810  49.8915590  66.1439940  18.1108700
  49.1928060  66.9828660  17.0621000  50.6821570  50.6086040  14.9158670
  51.4400930  50.7214920  14.3422700  50.2198740  51.4455240  14.8702100
  57.2235380  52.7225310  17.9060980  56.4109890  52.3482200  17.5656860
  57.7277020  51.9670390  18.2082170  61.7260360  49.3867760  19.1444050
  62.3289730  49.9587970  19.6192570  60.9853350  49.9507200  18.9217950
  64.8694960  49.7889320  14.4184330  65.0645590  50.6872770  14.6851760
  64.0824830  49.5576400  14.9117280  51.6656250  65.4702490  14.8576950
  51.1403870  65.8510520  14.1538910  51.5900830  66.0953260  15.5786660
  53.0546720  51.1350090  13.4560640  53.5839480  50.3479890  13.3268590
  53.6875040  51.8141280  13.6896170  55.2484560  50.8725230  16.5106030
  54.6187300  50.1712540  16.6776160  54.7089700  51.6329360  16.2939190
  58.1876510  67.4864460  29.1816640  59.1143820  67.2508730  29.2252600
  58.1726940  68.3136460  28.7002670  66.4221570  67.0290030  16.1790890
  66.5973760  66.3427770  15.5351810  65.7243140  67.5537080  15.7867560
  54.2649220  67.4184870  13.7326200  54.9968040  67.1344150  13.1850090
  54.5242890  67.1798150  14.6225580  53.4264010  63.5349600  13.7372530
  52.7972890  64.0034700  14.2858360  53.5411840  62.6898820  14.1718720
  61.9755580  49.5662790  29.5238990  61.8621030  49.8857400  30.4190510
  62.7925320  49.9675300  29.2276270  64.7554070  66.7134320  29.0057680
  65.5479390  66.2183550  28.7983640  65.0487220  67.3924460  29.6133290
  59.0131770  59.3634280   1.7683000  58.2373870  58.8834720   2.0581570
  59.6644700  58.6839930   1.5939160  53.0297600  59.6754090   2.6458760
  52.1982480  59.4202800   3.0455270  53.6378580  59.7464860   3.3816680
  53.0098860  63.7094180   2.8416780  53.3126900  62.8191920   2.6627000
  53.7542450  64.2664400   2.6139030  58.4540760  62.0391470   1.7753160
  58.3849040  61.0981410   1.6142290  59.2160620  62.1292880   2.3475730
  50.6447430  52.6445990   4.1009780  50.4650270  51.7471740   4.3812540
  50.2427510  53.1917860   4.7756730  51.2634100  55.1406490   2.7092120
  51.9444210  55.4044860   3.3279520  50.9482150  54.3007360   3.0430130
  55.4558670  56.1873850   1.7964710  55.9636890  56.6854820   2.4369730
  55.9871910  55.4109050   1.6204070  67.5569600  54.3579040   5.4994060
  66.8521770  54.7460750   4.9809170  67.8227520  55.0529330   6.1014990
  53.7394770  50.8272410   6.0628130  53.7413210  51.3444800   5.2574030
  52.9099080  50.3502590   6.0398060  54.9897620  60.4667590   4.2401630
  54.6567000  61.0936510   4.8822700  55.1664300  60.9929470   3.4603300
  53.4210100  52.5382370   4.0698580  53.7626910  53.3824420   3.7752450
  52.4825910  52.6866110   4.1863920  54.2016720  62.4348390   6.0550810
  54.8190720  63.1099470   5.7735260  53.3409840  62.8436370   5.9638310
  65.1194310  63.8987800   3.9705450  64.4357830  64.5686910   3.9622120
  65.6588600  64.0968450   3.2050310  66.5718450  53.7267460   2.0987180
  65.6243360  53.7606440   2.2302610  66.8968440  54.5406410   2.4836540
  62.6553050  65.7431930   2.6850630  62.6680210  65.3394220   1.8172890
  62.1028270  66.5179220   2.5812060  62.0538490  60.6461770   4.0133240
  62.4707280  60.4321880   3.1786700  62.7778310  60.9034560   4.5841860
  66.0000590  59.0448990   4.1049480  65.1719220  59.1142080   3.6299610
  66.5951070  59.6303300   3.6365310  62.9642600  55.8318310   5.0504350
  62.5513780  56.6572020   5.3044340  62.2318550  55.2463350   4.8580710
  53.8104010  55.3921420   3.6922060  54.3618600  55.5016760   2.9175310
  54.3247520  55.7659020   4.4077290  63.6542700  65.8777640   5.7385330
  63.1773260  66.6849830   5.5457940  62.9704490  65.2255970   5.8911540
  54.6575520  62.0427460   8.7270030  53.7604050  62.2667430   8.9743430
  54.6828390  62.1662400   7.7781430  53.4846740  58.9140780   7.3027400
  53.3454510  59.7863580   7.6714800  52.6028100  58.5713590   7.1575340
  55.2827090  64.8562480   9.5112550  55.2542520  65.2605430   8.6440980
  55.1192060  63.9272840   9.3484150  67.2341910  65.6389580  10.8076720
  67.7101630  66.1172470  11.4865800  67.8549070  65.5707070  10.0822220
  49.4365390  60.6838330   3.2198310  49.5145810  60.8187100   2.2754030
  50.0507070  59.9754220   3.4126430  66.6375160  62.8302430   7.9676730
  66.7638220  62.5914310   7.0493910  66.6796540  61.9986970   8.4398810
  60.4991900  66.5330430   6.5371540  61.0136570  66.4438440   7.3393970
  59.6560980  66.8790130   6.8299450  66.4899170  54.8834890   8.9326470
  65.8743440  55.3914560   8.4041930  66.1695590  53.9833220   8.8752410
  49.4924910  61.7252500   5.7592770  49.6555950  61.2557860   4.9412140
  49.9577360  61.2176060   6.4241610  58.5513490  53.7226780   6.3988660
  58.0892860  53.9309800   7.2108600  58.1491600  52.9086130   6.0959330
  63.5518000  54.9435730   7.5285320  62.7011590  54.6441480   7.8494390
  63.3919790  55.1877740   6.6169140  60.6467710  56.4437480   9.6284110
  60.9721120  55.6101230   9.2886340  61.4348040  56.9666000   9.7762440
  56.3019580  51.4005590   2.6542940  56.5991910  52.3068420   2.5734960
  56.8505140  50.9124370   2.0402510  56.4957110  56.8777410   9.1894860
  56.4000710  55.9372140   9.0395260  57.3389090  57.0992480   8.7942930
  51.6267650  53.2891080   7.3428640  51.2331040  54.1366290   7.5501420
  50.9386050  52.6517450   7.5337280  58.2012700  53.3726050  10.4125380
  57.5111020  53.1798250  11.0471470  58.9445000  53.6560690  10.9449680
  60.4775670  57.2124490   3.2479300  59.7456790  57.7211300   3.5969400
  60.0800010  56.3954470   2.9468080  60.9401580  52.6658170   2.6602240
  60.9574320  53.1166820   3.5044090  60.6917160  51.7663810   2.8735680
  64.3672330  50.0790350   8.4988620  64.6918100  49.3480010   9.0246600
  64.4028840  49.7603990   7.5969610  51.0663890  61.1003930   7.9188580
  50.6818680  60.4597600   8.5171540  51.3776080  61.8040050   8.4883310
  57.2161030  57.9480470   3.3997200  57.5831160  57.4739040   4.1458540
  57.0266090  58.8222040   3.7405540  55.0060400  56.9889110   5.7181410
  54.7017470  57.8681090   5.9431770  55.9606860  57.0488900   5.7538850
  64.2930170  60.1915460   2.1074650  65.0129290  60.6870750   1.7170760
  64.0911990  59.5133350   1.4628520  59.6748970  60.2624520   7.9943650
  59.6086280  59.3420190   7.7401240  59.0454110  60.3599960   8.7088290
  51.0624130  57.8291850   6.8652770  50.7039070  58.4945700   7.4526110
  50.7678690  56.9975400   7.2365390  54.2637250  58.2876090   9.7492320
  53.9637390  58.4333270   8.8520140  55.0348490  57.7281380   9.6565710
  59.6065700  63.0845090   7.7447450  59.6210240  62.1526050   7.5266360
  58.8990800  63.1704850   8.3837220  65.8176910  59.7252430   7.0916030
  65.0925100  60.3181210   6.8945420  66.3452370  59.7175970   6.2929400
  59.0399600  64.7262660   4.8387950  59.6841820  64.9322040   5.5161370
  59.4029040  63.9651060   4.3858800  60.3131680  62.7295010   3.5565400
  60.9553910  62.0288170   3.6697570  60.8381030  63.5093450   3.3762290
  62.0869300  63.5289910   6.7601460  62.4225540  64.1156600   7.4379380
  61.1669640  63.3982620   6.9899250  49.6372700  51.3185090   7.5424870
  48.9231220  51.5182010   8.1477480  50.0567740  50.5424660   7.9139670
  49.9245290  65.3065350   8.5291400  50.0336410  64.3660090   8.3886790
  49.2725850  65.5720100   7.8805130  57.9157880  63.5781240   9.9289520
  57.5954750  62.8590480  10.4735210  57.2416240  64.2536310  10.0025580
  61.1311480  53.8107400   5.2926320  61.4992300  52.9902610   5.6205890
  60.2709680  53.8709290   5.7081970  58.0913470  56.4646990   5.5164290
  58.5898720  56.9392810   6.1816140  58.2336420  55.5410510   5.7234320
  65.2980330  52.6814950   6.3592680  64.7953930  53.4220350   6.6986490
  66.1136990  53.0698950   6.0429470  52.0703730  66.3734260  10.3411010
  52.8716460  66.6946310  10.7546410  51.5555550  66.0129840  11.0630920
  60.9068360  62.4814130  10.2886420  60.3006520  62.5045730   9.5482170
  60.6022470  61.7497170  10.8253670  62.3368730  66.2094420   8.8995830
  63.2890480  66.1252440   8.8496070  62.1896950  66.8736130   9.5729620
  49.7901540  58.8607720   9.2847060  50.2940560  58.2815000   9.8563290
  49.0508960  59.1447950   9.8223430  56.8439480  60.2678710   8.8182580
  56.0785150  60.8363710   8.7337250  57.0255440  59.9754920   7.9250810
  63.9862830  61.9984040   9.3757600  64.7272300  62.3359800   8.8725060
  63.2235510  62.1676100   8.8227370  51.8224620  57.0037310  10.1797130
  51.8629960  56.7051180  11.0882360  52.6770120  57.4044920  10.0204650
  53.7630430  55.5829410   8.1471620  53.2326890  55.0920360   7.5194960
  54.4318500  56.0113610   7.6129550  62.6608490  60.0498870   7.9112810
  63.0749510  60.2043950   8.7603230  61.7259490  60.1754090   8.0738590
  63.1330660  57.3895030   9.9151960  63.7151430  56.6347350   9.8272440
  63.3092430  57.9202470   9.1383440  54.2502730  52.5491780   8.2268910
  54.1559600  51.9312530   7.5019780  53.6700120  53.2758070   7.9998820
  57.0164170  51.1065020   5.2596300  56.5681470  51.1289280   4.4141850
  56.3829370  50.7084040   5.8566600  57.4223720  60.0019350   5.8808740
  57.8411830  60.8452080   5.7084980  56.5032350  60.1391390   5.6515520
  59.7587620  57.7335530   7.2646580  59.8783830  57.1376670   8.0041420
  60.6181620  57.7705220   6.8447880  62.0975520  58.2872720   5.8409090
  61.5710740  58.8115340   5.2374230  62.4406860  58.9200110   6.4718820
  55.2731140  66.3072360   6.9966470  54.7352230  67.0318420   6.6775170
  55.5265100  65.8302700   6.2063810  56.5256390  54.2756880   8.5222400
  57.1156080  53.9672730   9.2100220  55.7076630  53.8036630   8.6782300
  61.3449820  53.8922690   8.7555420  60.6565340  53.2304230   8.6905410
  62.0655840  53.4460960   9.2003880  58.1293350  67.5423570   7.2553120
  58.0552050  68.4458710   7.5625490  57.2272190  67.2235470   7.2275190
  50.0210850  65.7368750   3.2968370  49.5841840  65.9169550   4.1292520
  50.5888530  66.4943370   3.1550090  65.6573030  65.2385750   7.5845680
  65.0575020  65.2978310   6.8409600  65.7866930  64.2990730   7.7142530
  64.3424670  61.9637730   5.6821840  63.5284510  62.3934890   5.9447630
  64.7498870  62.5756140   5.0690890  50.8911210  58.6341550   4.1960590
  51.2584250  58.5468950   5.0756610  50.3222030  57.8708100   4.0967450
  65.6915070  57.1025930   7.2091060  65.4601160  56.8738680   6.3089010
  65.9519620  58.0225480   7.1635950  50.4427210  55.5450640   8.1019010
  49.5483260  55.5117400   8.4412720  50.9824760  55.7437430   8.8670260
  64.1303140  52.3282360   9.9870760  65.0073320  52.3365760  10.3704760
  64.1423980  51.5913200   9.3763110  65.7556130  56.2651770   4.3978330
  64.8058840  56.2315310   4.5123320  65.9369140  57.1751880   4.1628100
  50.9466920  49.8198970   2.4502230  51.5943110  49.2696350   2.0097390
  51.3668760  50.0742120   3.2718040  64.8419260  50.0140330   5.8071870
  65.4791480  50.6274470   6.1731060  64.9894150  50.0500990   4.8621100
  50.6998920  49.9754640   5.1927550  50.3513740  50.4318460   5.9585730
  50.3686620  49.0811770   5.2749980  52.3063290  63.1474240   9.3580740
  52.2632920  62.7767150  10.2395200  52.4374300  64.0851810   9.4982560
  56.0069320  64.7033830   4.9590460  55.7660680  64.9708390   4.0720980
  56.9471960  64.8739560   5.0141320  58.2123740  51.1666520   8.7146970
  58.1512630  51.7588350   9.4642380  59.1524120  51.0592480   8.5697230
  60.8498300  50.8236580   8.3539260  61.4638710  51.1415870   7.6920340
  61.3947860  50.3385170   8.9735120  67.2673480  66.7228210   5.7601100
  66.7731760  67.1197080   5.0428230  66.6586770  66.0977420   6.1538380
  51.3719560  49.5030840   8.4678320  51.9202550  49.3218890   7.7044430
  51.4374870  48.7124950   9.0034630  52.1451320  66.0936490   6.4778520
  51.5511640  65.9621190   7.2168560  52.1375160  65.2574630   6.0120620
  61.5906340  49.3868720   4.6808550  60.7166180  49.7203830   4.4781480
  61.4817090  48.9141900   5.5060420  62.4978320  51.5939590   6.0650270
  62.1691680  50.7791350   5.6852000  63.4460620  51.5509400   5.9415960
  64.9512930  67.3651630   3.0387840  64.4915900  68.1167440   2.6645860
  64.3225390  66.6458100   2.9802640  51.7763550  63.4594870   5.4286560
  51.0497610  62.8400160   5.3612510  51.8372700  63.8535480   4.5584640
  55.3808650  65.6739870   2.2135970  55.8973670  65.0627230   1.6884230
  56.0306030  66.1768650   2.7046980  58.1204150  66.5648360   3.0404950
  58.4081960  66.3102660   2.1637960  58.6327370  66.0125720   3.6310520
  59.3381160  50.3038560   3.6201460  58.5552950  50.7784060   3.8998220
  59.0444090  49.3993390   3.5114640  58.1876510  67.4864460  10.4073150
  59.1143820  67.2508730  10.4509110  58.1726940  68.3136460   9.9259180
  55.3740120  50.1509210  10.1715030  55.0924390  50.6542810   9.4075850
  55.7559820  49.3530960   9.8057160  61.9755580  49.5662790  10.7495500
  61.8621030  49.8857400  11.6447020  62.7925320  49.9675300  10.4532780
  64.7554070  66.7134320  10.2314190  65.5479390  66.2183550  10.0240150
  65.0487220  67.3924460  10.8389800  60.8813730  38.8111770 150.0821650
  60.8007780  37.8966380 149.8113360  60.4678150  39.3078840 149.3761360
  63.0339200  44.9950980 150.7430050  62.5720730  44.2238220 151.0717220
  63.8464750  45.0217050 151.2482500  51.4389550  35.8612490 146.6249070
  50.5506250  36.2028460 146.5228950  51.7230740  35.6612810 145.7329900
  59.2602510  47.2808990 150.3634040  58.6413950  47.7366490 149.7928480
  60.1154290  47.4360450 149.9623740  53.6150940  34.4443990 147.6587450
  53.7217690  35.3447720 147.9656210  52.7043300  34.3961960 147.3682100
  63.2670050  33.5668800 149.1298350  64.0879670  33.0765370 149.1723830
  63.3004130  34.1566460 149.8830190  60.1265860  42.1648230 147.7565950
  59.5083130  42.6297680 147.1928670  60.6389110  42.8575710 148.1735460
  49.4949060  42.8504760 145.1305580  49.1177040  43.3391860 144.3990480
  49.7522130  43.5230040 145.7612110  57.1037990  31.2521150 150.5891090
  57.4112970  30.6968040 149.8726590  56.1738690  31.3865610 150.4064080
  63.9498470  43.6904660 147.9688720  63.8394800  42.7478990 148.0938140
  63.9466720  44.0520300 148.8551480  59.4918750  39.3169980 147.3251210
  58.5648030  39.2507360 147.5539680  59.6443570  40.2550110 147.2106450
  59.4787830  35.5886980 144.3218370  58.5391500  35.7500940 144.4070830
  59.7971090  36.3072660 143.7754360  63.5216040  40.8790280 147.8286460
  62.9028460  40.5409830 147.1812760  63.5040490  40.2350040 148.5365650
  55.0975390  39.8434720 150.1070940  54.6932390  39.1311970 149.6116840
  55.1838510  39.4987960 150.9958980  61.6980740  40.1177090 144.8359210
  62.1374020  39.2799520 144.6897030  62.4109160  40.7506490 144.9223350
  59.8076120  45.0573160 148.8040450  60.2472030  45.7997490 148.3895840
  59.7463010  45.2999730 149.7279410  65.2797880  31.3719900 143.1500250
  64.9670540  31.4646730 144.0499320  66.0410350  31.9500930 143.0997680
  51.7980020  38.7379700 147.6077590  51.6777620  39.4641790 146.9958860
  51.4880910  37.9682610 147.1305500  50.6813020  43.6095030 149.8252410
  50.2741100  43.7509620 148.9706010  51.5726030  43.3255190 149.6223620
  62.4746300  48.0442280 146.1603460  62.3147440  47.7545220 147.0585290
  62.3093010  47.2682410 145.6248690  54.9534680  47.8240810 147.9375080
  54.7777160  46.9076350 147.7242880  54.0990420  48.1828100 148.1772880
  62.1772430  45.5529840 144.7201460  61.4837590  45.5507130 144.0603740
  62.9195290  45.1289160 144.2895630  61.7422360  47.1792550 148.7949950
  62.1979310  46.3981930 149.1088570  62.0814880  47.8899370 149.3391130
  54.2643680  32.0814770 150.9901260  53.8211830  32.8624310 150.6585780
  54.8228670  32.4044660 151.6972200  57.3802500  31.7025470 145.8707090
  56.7556680  31.6985340 146.5960400  57.2932620  30.8356430 145.4743060
  54.0557900  37.2048340 148.7182510  53.8298820  36.9885510 149.6229130
  53.2750430  37.6376800 148.3728480  61.2855660  37.2111710 147.3173160
  60.6864550  37.9347510 147.1336780  61.8335270  37.1488490 146.5349610
  59.8920530  35.8475250 149.3476440  60.2850100  36.1647450 148.5345130
  60.2537380  34.9687130 149.4620960  49.1154930  36.3796170 142.7809360
  49.0329600  37.3226930 142.9224350  48.7637990  36.2371080 141.9021710
  52.7655440  34.9961690 150.8073920  52.4255490  35.4736920 151.5640970
  52.0032760  34.5426810 150.4475020  56.9773210  36.1147280 144.8386470
  57.0986030  36.0733760 145.7872290  56.5921720  36.9771430 144.6833200
  55.9894710  38.4248420 144.2369770  55.4211610  37.9766670 143.6105680
  56.6983710  38.7841200 143.7034920  50.0801520  33.9180670 149.7238590
  49.7948440  33.5536340 150.5617210  50.0180380  33.1861130 149.1101730
  53.5342190  42.4206610 146.5096180  52.7604450  41.8804230 146.3494900
  54.2636820  41.9013220 146.1713940  59.7540110  32.8109930 146.4451960
  58.9404720  32.3123100 146.3697270  59.5602060  33.6508180 146.0288310
  62.4688500  37.1829580 144.7414120  63.3568120  37.4946810 144.5665460
  62.4393590  36.3101830 144.3494700  53.5779590  42.0886990 150.1474990
  54.0958260  41.2855250 150.0931880  53.1263610  42.0266130 150.9891820
  58.4649090  43.3553270 145.4202290  58.8064790  44.0995500 144.9245610
  57.6361800  43.6684390 145.7827120  64.7402770  38.4941420 144.2093980
  64.6566490  38.9255640 143.3590420  65.4596960  38.9539770 144.6420800
  65.7690020  45.3483680 146.9376110  65.1266180  44.6939300 147.2119830
  65.3820680  45.7538770 146.1616780  61.3476500  42.6769110 150.7847800
  61.7000320  42.0797240 150.1249170  60.4638830  42.3513340 150.9556050
  57.4339780  43.4366800 148.1918210  58.1210910  43.9836010 148.5725800
  56.6472200  43.9807530 148.2267820  49.5732180  39.0539620 143.6835290
  50.4427030  39.3364420 143.9671210  49.0822500  39.8675490 143.5684100
  56.7366990  40.4412830 147.8043570  57.1929770  41.2518080 148.0303760
  56.3855200  40.1235970 148.6362060  52.6378770  30.7850480 148.2766090
  52.5093400  30.7768380 149.2251010  51.8140790  31.1233570 147.9257100
  64.1587400  44.2400140 143.4752460  63.9324980  43.5230580 144.0677100
  63.7683600  43.9912580 142.6374210  49.9403430  48.2667000 144.2496920
  50.3001070  48.8656340 143.5954190  49.7995770  48.8126890 145.0231950
  63.7403650  42.1572080 145.1366620  63.4525350  42.6184770 145.9244500
  64.5355820  41.6969850 145.4050840  55.9572050  45.6498200 145.0670590
  55.9482150  46.3827890 144.4515100  55.0370410  45.4029780 145.1597550
  51.5578690  40.8713090 145.8117350  50.9506640  41.6111990 145.8212650
  52.0328040  40.9612450 144.9855550  64.4973510  33.9920850 146.2961800
  63.8686670  34.0966520 145.5820030  64.0025430  34.2117630 147.0855680
  58.9431650  45.7126440 143.7295780  59.0443630  45.5090430 142.7997760
  58.0433390  45.4584720 143.9343560  56.4657540  36.2706800 147.7119680
  55.7573690  36.7393140 148.1533290  56.7502020  35.6128810 148.3464870
  60.4972970  32.9957460 149.1515470  60.3740750  33.0143590 148.2024980
  61.4457530  33.0436400 149.2713870  57.5849760  48.2312760 148.4243450
  57.8391260  48.1934150 147.5022820  56.6362240  48.1046090 148.4171700
  54.6692560  34.5791880 145.0870390  55.5183090  35.0162030 145.0210580
  54.3023830  34.8912140 145.9142450  63.5902340  39.1504640 150.0001960
  62.6492480  39.1654870 150.1749650  63.9046410  38.3640600 150.4462260
  53.5683980  40.8324240 143.5605920  54.3347250  40.7205600 144.1231350
  53.6458670  40.1362210 142.9082690  52.2630740  38.2649310 144.2438810
  52.3434330  37.3176820 144.3556210  53.1550490  38.5956190 144.3499470
  53.0645450  48.4144700 151.3473350  53.8007930  47.8660160 151.6181920
  53.4486370  49.2800710 151.2079340  49.9490930  44.4818270 147.2214860
  49.0230710  44.7239410 147.2120270  50.4147360  45.3092530 147.0999610
  56.1747760  47.5875010 143.1698920  56.9676370  47.8763840 142.7180710
  55.6552110  47.1567180 142.4911400  65.2277930  46.8145140 144.5935660
  64.9419440  46.4010280 143.7789840  65.0297480  47.7432850 144.4736180
  56.6925160  42.8078420 143.0341270  56.5875800  42.1930770 143.7602650
  56.5249380  42.2844310 142.2504280  59.9327890  41.8698450 143.6383260
  59.3837990  42.3167750 144.2826000  60.5547150  41.3647700 144.1620930
  55.6003010  40.8289370 145.5348560  56.0219430  40.6629240 146.3779950
  55.7253850  40.0189600 145.0403700  58.1130650  39.8526980 142.7825660
  58.6336310  39.1376000 142.4166810  58.7599050  40.4912850 143.0826170
  54.4961910  36.9022600 142.4806720  54.2950970  36.0389960 142.8420060
  54.3253960  36.8155960 141.5428320  61.9750220  31.7130830 145.0093600
  62.2552510  30.8698730 145.3653020  61.2015950  31.9453940 145.5232350
  53.2944710  34.0023220 142.4684600  53.5970610  34.0090650 141.5603750
  54.0339300  33.6521080 142.9652260  56.5129640  32.9457840 143.4540800
  56.1651640  32.2681830 142.8743250  56.7142410  32.4847350 144.2684190
  58.6778680  47.9338590 145.0727400  59.5729470  48.2723560 145.0946160
  58.7096310  47.2118000 144.4451680  52.3174840  43.3065640 143.3014400
  52.7549710  43.8495310 143.9571980  52.8022570  42.4812590 143.3110740
  49.5320640  46.0954670 150.7534660  49.8623650  45.2275730 150.5213300
  49.9611640  46.3013190 151.5839620  54.1282560  44.4263680 148.4136630
  53.8278100  44.3028650 149.3140540  54.0220050  43.5672270 148.0052360
  66.8974480  44.2060080 143.1163310  66.0667440  44.2736730 143.5870540
  67.0746310  45.0964200 142.8130170  66.3530940  40.9507560 145.6197510
  67.1149850  41.5204210 145.7257200  66.3685310  40.3834760 146.3905820
  49.8535280  39.4745490 149.8505170  49.1984120  39.2057130 149.2064870
  50.6913230  39.3649970 149.4007150  67.3590910  41.8057660 150.4639440
  67.7299740  41.0224980 150.0575410  67.9992840  42.4946760 150.2856740
  66.4050110  41.2441930 142.7770030  66.6798950  42.1520810 142.6489250
  66.2160850  41.1804460 143.7132020  62.8025720  34.2686780 144.0723660
  63.2210600  34.0817760 143.2320320  62.4961780  33.4165830 144.3826590
  66.3015450  39.1810920 147.7699460  65.9259050  38.4138850 147.3380750
  65.5718570  39.5633620 148.2574390  49.0673360  36.6844420 145.7930500
  48.1637440  36.9474620 145.6182160  49.5513980  36.9555590 145.0130460
  51.6100570  35.7409960 143.7024880  52.3192270  35.3193180 143.2172160
  50.8940510  35.8085190 143.0708230  51.2574730  31.7949290 142.7427530
  51.9802860  32.3358230 143.0608750  51.5299250  31.5212710 141.8669070
  65.0666380  36.6641760 147.0099110  65.5625500  36.4312630 147.7947990
  64.8682450  35.8253600 146.5936750  66.4953540  35.3002710 149.5436790
  66.3852820  35.1458750 150.4819060  67.2561130  34.7723650 149.3012200
  67.3843810  33.1310630 142.7842930  68.3093120  32.9991810 142.5761220
  67.3619600  33.2103450 143.7379380  67.4582300  33.9021290 145.4099640
  66.6633800  33.8366410 145.9392550  67.6625580  34.8371930 145.3984990
  64.4000720  47.9412840 149.4038030  64.9959790  47.6197410 148.7272450
  64.6578870  47.4684660 150.1951300  65.7540800  31.8633410 149.8707290
  65.6929200  30.9194630 149.7238310  66.5332830  31.9713500 150.4160750
  50.0593550  48.0025770 148.8331240  49.8915590  47.3696450 149.5313130
  49.1928060  48.2085170 148.4825430  50.6821570  31.8342550 146.3363100
  51.4400930  31.9471430 145.7627130  50.2198740  32.6711750 146.2906530
  57.2235380  33.9481820 149.3265410  56.4109890  33.5738710 148.9861290
  57.7277020  33.1926900 149.6286600  61.7260360  30.6124270 150.5648480
  62.3289730  31.1844480 151.0397000  60.9853350  31.1763710 150.3422380
  64.8694960  31.0145830 145.8388760  65.0645590  31.9129280 146.1056190
  64.0824830  30.7832910 146.3321710  51.6656250  46.6959000 146.2781380
  51.1403870  47.0767030 145.5743340  51.5900830  47.3209770 146.9991090
  53.0546720  32.3606600 144.8765070  53.5839480  31.5736400 144.7473020
  53.6875040  33.0397790 145.1100600  55.2484560  32.0981740 147.9310460
  54.6187300  31.3969050 148.0980590  54.7089700  32.8585870 147.7143620
  66.4221570  48.2546540 147.5995320  66.5973760  47.5684280 146.9556240
  65.7243140  48.7793590 147.2071990  54.2649220  48.6441380 145.1530630
  54.9968040  48.3600660 144.6054520  54.5242890  48.4054660 146.0430010
  53.4264010  44.7606110 145.1576960  52.7972890  45.2291210 145.7062790
  53.5411840  43.9155330 145.5923150  60.8813730  38.8111770 131.3078160
  60.8007780  37.8966380 131.0369870  60.4678150  39.3078840 130.6017870
  59.0131770  40.5890790 133.1887430  58.2373870  40.1091230 133.4786000
  59.6644700  39.9096440 133.0143590  53.0297600  40.9010600 134.0663190
  52.1982480  40.6459310 134.4659700  53.6378580  40.9721370 134.8021110
  63.0339200  44.9950980 131.9686560  62.5720730  44.2238220 132.2973730
  63.8464750  45.0217050 132.4739010  53.0098860  44.9350690 134.2621210
  53.3126900  44.0448430 134.0831430  53.7542450  45.4920910 134.0343460
  51.4389550  35.8612490 127.8505580  50.5506250  36.2028460 127.7485460
  51.7230740  35.6612810 126.9586410  49.4022560  38.4618140 133.7345280
  49.9738670  37.6940340 133.7348920  49.4024100  38.7606900 132.8251890
  58.4540760  43.2647980 133.1957590  58.3849040  42.3237920 133.0346720
  59.2160620  43.3549390 133.7680160  50.6447430  33.8702500 135.5214210
  50.4650270  32.9728250 135.8016970  50.2427510  34.4174370 136.1961160
  59.4845930  36.0718360 133.4226520  59.8610750  35.1990240 133.3100190
  59.3865440  36.4077060 132.5316960  53.6150940  34.4443990 128.8843960
  53.7217690  35.3447720 129.1912720  52.7043300  34.3961960 128.5938610
  63.2670050  33.5668800 130.3554860  64.0879670  33.0765370 130.3980340
  63.3004130  34.1566460 131.1086700  51.2634100  36.3663000 134.1296550
  51.9444210  36.6301370 134.7483950  50.9482150  35.5263870 134.4634560
  55.4558670  37.4130360 133.2169140  55.9636890  37.9111330 133.8574160
  55.9871910  36.6365560 133.0408500  67.5569600  35.5835550 136.9198490
  66.8521770  35.9717260 136.4013600  67.8227520  36.2785840 137.5219420
  53.7394770  32.0528920 137.4832560  53.7413210  32.5701310 136.6778460
  52.9099080  31.5759100 137.4602490  60.1265860  42.1648230 128.9822460
  59.5083130  42.6297680 128.4185180  60.6389110  42.8575710 129.3991970
  54.9897620  41.6924100 135.6606060  54.6567000  42.3193020 136.3027130
  55.1664300  42.2185980 134.8807730  63.5031530  35.5069180 133.1282400
  62.7987100  35.7954070 133.7085510  63.8643690  36.3169290 132.7681960
  53.4210100  33.7638880 135.4903010  53.7626910  34.6080930 135.1956880
  52.4825910  33.9122620 135.6068350  54.2016720  43.6604900 137.4755240
  54.8190720  44.3355980 137.1939690  53.3409840  44.0692880 137.3842740
  49.4949060  42.8504760 126.3562090  49.1177040  43.3391860 125.6246990
  49.7522130  43.5230040 126.9868620  65.1194310  45.1244310 135.3909880
  64.4357830  45.7943420 135.3826550  65.6588600  45.3224960 134.6254740
  66.5718450  34.9523970 133.5191610  65.6243360  34.9862950 133.6507040
  66.8968440  35.7662920 133.9040970  57.1037990  31.2521150 131.8147600
  57.4112970  30.6968040 131.0983100  56.1738690  31.3865610 131.6320590
  62.6553050  46.9688440 134.1055060  62.6680210  46.5650730 133.2377320
  62.1028270  47.7435730 134.0016490  62.0538490  41.8718280 135.4337670
  62.4707280  41.6578390 134.5991130  62.7778310  42.1291070 136.0046290
  59.4918750  39.3169980 128.5507720  58.5648030  39.2507360 128.7796190
  59.6443570  40.2550110 128.4362960  59.4787830  35.5886980 125.5474880
  58.5391500  35.7500940 125.6327340  59.7971090  36.3072660 125.0010870
  66.0000590  40.2705500 135.5253910  65.1719220  40.3398590 135.0504040
  66.5951070  40.8559810 135.0569740  62.9642600  37.0574820 136.4708780
  62.5513780  37.8828530 136.7248770  62.2318550  36.4719860 136.2785140
  55.0975390  39.8434720 131.3327450  54.6932390  39.1311970 130.8373350
  55.1838510  39.4987960 132.2215490  55.5657090  43.5302280 133.4966660
  55.2685380  42.9247750 132.8174440  56.5156910  43.5679590 133.3856020
  53.8104010  36.6177930 135.1126490  54.3618600  36.7273270 134.3379740
  54.3247520  36.9915530 135.8281720  63.6542700  47.1034150 137.1589760
  63.1773260  47.9106340 136.9662370  62.9704490  46.4512480 137.3115970
  54.6575520  43.2683970 140.1474460  53.7604050  43.4923940 140.3947860
  54.6828390  43.3918910 139.1985860  61.6980740  40.1177090 126.0615720
  62.1374020  39.2799520 125.9153540  62.4109160  40.7506490 126.1479860
  53.4846740  40.1397290 138.7231830  53.3454510  41.0120090 139.0919230
  52.6028100  39.7970100 138.5779770  55.2827090  46.0818990 140.9316980
  55.2542520  46.4861940 140.0645410  55.1192060  45.1529350 140.7688580
  65.2797880  31.3719900 124.3756760  64.9670540  31.4646730 125.2755830
  66.0410350  31.9500930 124.3254190  51.7980020  38.7379700 128.8334100
  51.6777620  39.4641790 128.2215370  51.4880910  37.9682610 128.3562010
  67.2341910  46.8646090 142.2281150  67.7101630  47.3428980 142.9070230
  67.8549070  46.7963580 141.5026650  49.4365390  41.9094840 134.6402740
  49.5145810  42.0443610 133.6958460  50.0507070  41.2010730 134.8330860
  50.6813020  43.6095030 131.0508920  50.2741100  43.7509620 130.1962520
  51.5726030  43.3255190 130.8480130  66.6375160  44.0558940 139.3881160
  66.7638220  43.8170820 138.4698340  66.6796540  43.2243480 139.8603240
  60.4991900  47.7586940 137.9575970  61.0136570  47.6694950 138.7598400
  59.6560980  48.1046640 138.2503880  54.9534680  47.8240810 129.1631590
  54.7777160  46.9076350 128.9499390  54.0990420  48.1828100 129.4029390
  66.4899170  36.1091400 140.3530900  65.8743440  36.6171070 139.8246360
  66.1695590  35.2089730 140.2956840  49.4924910  42.9509010 137.1797200
  49.6555950  42.4814370 136.3616570  49.9577360  42.4432570 137.8446040
  54.2643680  32.0814770 132.2157770  53.8211830  32.8624310 131.8842290
  54.8228670  32.4044660 132.9228710  58.5513490  34.9483290 137.8193090
  58.0892860  35.1566310 138.6313030  58.1491600  34.1342640 137.5163760
  63.5518000  36.1692240 138.9489750  62.7011590  35.8697990 139.2698820
  63.3919790  36.4134250 138.0373570  60.6467710  37.6693990 141.0488540
  60.9721120  36.8357740 140.7090770  61.4348040  38.1922510 141.1966870
  57.3802500  31.7025470 127.0963600  56.7556680  31.6985340 127.8216910
  57.2932620  30.8356430 126.6999570  56.3019580  32.6262100 134.0747370
  56.5991910  33.5324930 133.9939390  56.8505140  32.1380880 133.4606940
  54.0557900  37.2048340 129.9439020  53.8298820  36.9885510 130.8485640
  53.2750430  37.6376800 129.5984990  61.2855660  37.2111710 128.5429670
  60.6864550  37.9347510 128.3593290  61.8335270  37.1488490 127.7606120
  56.4957110  38.1033920 140.6099290  56.4000710  37.1628650 140.4599690
  57.3389090  38.3248990 140.2147360  59.8920530  35.8475250 130.5732950
  60.2850100  36.1647450 129.7601640  60.2537380  34.9687130 130.6877470
  51.6267650  34.5147590 138.7633070  51.2331040  35.3622800 138.9705850
  50.9386050  33.8773960 138.9541710  58.2012700  34.5982560 141.8329810
  57.5111020  34.4054760 142.4675900  58.9445000  34.8817200 142.3654110
  48.9284700  32.4376050 132.7963150  48.6397750  33.0078910 133.5088130
  49.6730460  31.9580500 133.1594380  49.1154930  36.3796170 124.0065870
  49.0329600  37.3226930 124.1480860  48.7637990  36.2371080 123.1278220
  60.4775670  38.4381000 134.6683730  59.7456790  38.9467810 135.0173830
  60.0800010  37.6210980 134.3672510  56.9153060  35.1135200 133.0736220
  56.9189120  34.6725150 132.2240760  57.8104180  35.4352530 133.1808040
  52.7655440  34.9961690 132.0330430  52.4255490  35.4736920 132.7897480
  52.0032760  34.5426810 131.6731530  56.9773210  36.1147280 126.0642980
  57.0986030  36.0733760 127.0128800  56.5921720  36.9771430 125.9089710
  60.9401580  33.8914680 134.0806670  60.9574320  34.3423330 134.9248520
  60.6917160  32.9920320 134.2940110  55.9894710  38.4248420 125.4626280
  55.4211610  37.9766670 124.8362190  56.6983710  38.7841200 124.9291430
  64.3672330  31.3046860 139.9193050  64.6918100  30.5736520 140.4451030
  64.4028840  30.9860500 139.0174040  51.0663890  42.3260440 139.3393010
  50.6818680  41.6854110 139.9375970  51.3776080  43.0296560 139.9087740
  57.2161030  39.1736980 134.8201630  57.5831160  38.6995550 135.5662970
  57.0266090  40.0478550 135.1609970  50.0801520  33.9180670 130.9495100
  49.7948440  33.5536340 131.7873720  50.0180380  33.1861130 130.3358240
  55.0060400  38.2145620 137.1385840  54.7017470  39.0937600 137.3636200
  55.9606860  38.2745410 137.1743280  53.5342190  42.4206610 127.7352690
  52.7604450  41.8804230 127.5751410  54.2636820  41.9013220 127.3970450
  64.2930170  41.4171970 133.5279080  65.0129290  41.9127260 133.1375190
  64.0911990  40.7389860 132.8832950  59.7540110  32.8109930 127.6708470
  58.9404720  32.3123100 127.5953780  59.5602060  33.6508180 127.2544820
  59.6748970  41.4881030 139.4148080  59.6086280  40.5676700 139.1605670
  59.0454110  41.5856470 140.1292720  62.4688500  37.1829580 125.9670630
  63.3568120  37.4946810 125.7921970  62.4393590  36.3101830 125.5751210
  53.5779590  42.0886990 131.3731500  54.0958260  41.2855250 131.3188390
  53.1263610  42.0266130 132.2148330  51.0624130  39.0548360 138.2857200
  50.7039070  39.7202210 138.8730540  50.7678690  38.2231910 138.6569820
  54.2637250  39.5132600 141.1696750  53.9637390  39.6589780 140.2724570
  55.0348490  38.9537890 141.0770140  59.6065700  44.3101600 139.1651880
  59.6210240  43.3782560 138.9470790  58.8990800  44.3961360 139.8041650
  64.7402770  38.4941420 125.4350490  64.6566490  38.9255640 124.5846930
  65.4596960  38.9539770 125.8677310  65.8176910  40.9508940 138.5120460
  65.0925100  41.5437720 138.3149850  66.3452370  40.9432480 137.7133830
  65.7690020  45.3483680 128.1632620  65.1266180  44.6939300 128.4376340
  65.3820680  45.7538770 127.3873290  61.3476500  42.6769110 132.0104310
  61.7000320  42.0797240 131.3505680  60.4638830  42.3513340 132.1812560
  49.5732180  39.0539620 124.9091800  50.4427030  39.3364420 125.1927720
  49.0822500  39.8675490 124.7940610  56.7366990  40.4412830 129.0300080
  57.1929770  41.2518080 129.2560270  56.3855200  40.1235970 129.8618570
  59.0399600  45.9519170 136.2592380  59.6841820  46.1578550 136.9365800
  59.4029040  45.1907570 135.8063230  52.6378770  30.7850480 129.5022600
  52.5093400  30.7768380 130.4507520  51.8140790  31.1233570 129.1513610
  60.3131680  43.9551520 134.9769830  60.9553910  43.2544680 135.0902000
  60.8381030  44.7349960 134.7966720  62.0869300  44.7546420 138.1805890
  62.4225540  45.3413110 138.8583810  61.1669640  44.6239130 138.4103680
  49.9403430  48.2667000 125.4753430  50.3001070  48.8656340 124.8210700
  49.7995770  48.8126890 126.2488460  49.6372700  32.5441600 138.9629300
  48.9231220  32.7438520 139.5681910  50.0567740  31.7681170 139.3344100
  63.7403650  42.1572080 126.3623130  63.4525350  42.6184770 127.1501010
  64.5355820  41.6969850 126.6307350  49.9245290  46.5321860 139.9495830
  50.0336410  45.5916600 139.8091220  49.2725850  46.7976610 139.3009560
  57.9157880  44.8037750 141.3493950  57.5954750  44.0846990 141.8939640
  57.2416240  45.4792820 141.4230010  51.5578690  40.8713090 127.0373860
  50.9506640  41.6111990 127.0469160  52.0328040  40.9612450 126.2112060
  61.1311480  35.0363910 136.7130750  61.4992300  34.2159120 137.0410320
  60.2709680  35.0965800 137.1286400  64.4973510  33.9920850 127.5218310
  63.8686670  34.0966520 126.8076540  64.0025430  34.2117630 128.3112190
  56.4657540  36.2706800 128.9376190  55.7573690  36.7393140 129.3789800
  56.7502020  35.6128810 129.5721380  58.0913470  37.6903500 136.9368720
  58.5898720  38.1649320 137.6020570  58.2336420  36.7667020 137.1438750
  60.4972970  32.9957460 130.3771980  60.3740750  33.0143590 129.4281490
  61.4457530  33.0436400 130.4970380  57.5849760  48.2312760 129.6499960
  57.8391260  48.1934150 128.7279330  56.6362240  48.1046090 129.6428210
  54.6692560  34.5791880 126.3126900  55.5183090  35.0162030 126.2467090
  54.3023830  34.8912140 127.1398960  65.2980330  33.9071460 137.7797110
  64.7953930  34.6476860 138.1190920  66.1136990  34.2955460 137.4633900
  52.2630740  38.2649310 125.4695320  52.3434330  37.3176820 125.5812720
  53.1550490  38.5956190 125.5755980  65.5927920  46.3213490 132.9012730
  65.7175340  47.1444660 133.3736540  66.4593480  46.1104220 132.5536880
  53.0645450  48.4144700 132.5729860  53.8007930  47.8660160 132.8438430
  53.4486370  49.2800710 132.4335850  49.9490930  44.4818270 128.4471370
  49.0230710  44.7239410 128.4376780  50.4147360  45.3092530 128.3256120
  52.0703730  47.5990770 141.7615440  52.8716460  47.9202820 142.1750840
  51.5555550  47.2386350 142.4835350  60.9068360  43.7070640 141.7090850
  60.3006520  43.7302240 140.9686600  60.6022470  42.9753680 142.2458100
  62.3368730  47.4350930 140.3200260  63.2890480  47.3508950 140.2700500
  62.1896950  48.0992640 140.9934050  65.2277930  46.8145140 125.8192170
  64.9419440  46.4010280 125.0046350  65.0297480  47.7432850 125.6992690
  49.7901540  40.0864230 140.7051490  50.2940560  39.5071510 141.2767720
  49.0508960  40.3704460 141.2427860  56.8439480  41.4935220 140.2387010
  56.0785150  42.0620220 140.1541680  57.0255440  41.2011430 139.3455240
  63.9862830  43.2240550 140.7962030  64.7272300  43.5616310 140.2929490
  63.2235510  43.3932610 140.2431800  51.8224620  38.2293820 141.6001560
  51.8629960  37.9307690 142.5086790  52.6770120  38.6301430 141.4409080
  55.6003010  40.8289370 126.7605070  56.0219430  40.6629240 127.6036460
  55.7253850  40.0189600 126.2660210  53.7630430  36.8085920 139.5676050
  53.2326890  36.3176870 138.9399390  54.4318500  37.2370120 139.0333980
  58.1130650  39.8526980 124.0082170  58.6336310  39.1376000 123.6423320
  58.7599050  40.4912850 124.3082680  62.6608490  41.2755380 139.3317240
  63.0749510  41.4300460 140.1807660  61.7259490  41.4010600 139.4943020
  63.1330660  38.6151540 141.3356390  63.7151430  37.8603860 141.2476870
  63.3092430  39.1458980 140.5587870  54.2502730  33.7748290 139.6473340
  54.1559600  33.1569040 138.9224210  53.6700120  34.5014580 139.4203250
  57.0164170  32.3321530 136.6800730  56.5681470  32.3545790 135.8346280
  56.3829370  31.9340550 137.2771030  57.4223720  41.2275860 137.3013170
  57.8411830  42.0708590 137.1289410  56.5032350  41.3647900 137.0719950
  59.7587620  38.9592040 138.6851010  59.8783830  38.3633180 139.4245850
  60.6181620  38.9961730 138.2652310  62.0975520  39.5129230 137.2613520
  61.5710740  40.0371850 136.6578660  62.4406860  40.1456620 137.8923250
  55.2731140  47.5328870 138.4170900  54.7352230  48.2574930 138.0979600
  55.5265100  47.0559210 137.6268240  56.5256390  35.5013390 139.9426830
  57.1156080  35.1929240 140.6304650  55.7076630  35.0293140 140.0986730
  61.3449820  35.1179200 140.1759850  60.6565340  34.4560740 140.1109840
  62.0655840  34.6717470 140.6208310  61.9750220  31.7130830 126.2350110
  62.2552510  30.8698730 126.5909530  61.2015950  31.9453940 126.7488860
  53.2944710  34.0023220 123.6941110  53.5970610  34.0090650 122.7860260
  54.0339300  33.6521080 124.1908770  58.1293350  48.7680080 138.6757550
  58.0552050  49.6715220 138.9829920  57.2272190  48.4491980 138.6479620
  56.5129640  32.9457840 124.6797310  56.1651640  32.2681830 124.0999760
  56.7142410  32.4847350 125.4940700  52.3174840  43.3065640 124.5270910
  52.7549710  43.8495310 125.1828490  52.8022570  42.4812590 124.5367250
  49.5320640  46.0954670 131.9791170  49.8623650  45.2275730 131.7469810
  49.9611640  46.3013190 132.8096130  54.1282560  44.4263680 129.6393140
  53.8278100  44.3028650 130.5397050  54.0220050  43.5672270 129.2308870
  50.0210850  46.9625260 134.7172800  49.5841840  47.1426060 135.5496950
  50.5888530  47.7199880 134.5754520  65.6573030  46.4642260 139.0050110
  65.0575020  46.5234820 138.2614030  65.7866930  45.5247240 139.1346960
  66.8974480  44.2060080 124.3419820  66.0667440  44.2736730 124.8127050
  67.0746310  45.0964200 124.0386680  49.8535280  39.4745490 131.0761680
  49.1984120  39.2057130 130.4321380  50.6913230  39.3649970 130.6263660
  64.3424670  43.1894240 137.1026270  63.5284510  43.6191400 137.3652060
  64.7498870  43.8012650 136.4895320  66.4050110  41.2441930 124.0026540
  66.6798950  42.1520810 123.8745760  66.2160850  41.1804460 124.9388530
  62.8025720  34.2686780 125.2980170  63.2210600  34.0817760 124.4576830
  62.4961780  33.4165830 125.6083100  50.8911210  39.8598060 135.6165020
  51.2584250  39.7725460 136.4961040  50.3222030  39.0964610 135.5171880
  65.6915070  38.3282440 138.6295490  65.4601160  38.0995190 137.7293440
  65.9519620  39.2481990 138.5840380  50.4427210  36.7707150 139.5223440
  49.5483260  36.7373910 139.8617150  50.9824760  36.9693940 140.2874690
  64.1303140  33.5538870 141.4075190  65.0073320  33.5622270 141.7909190
  64.1423980  32.8169710 140.7967540  49.0673360  36.6844420 127.0187010
  48.1637440  36.9474620 126.8438670  49.5513980  36.9555590 126.2386970
  65.7556130  37.4908280 135.8182760  64.8058840  37.4571820 135.9327750
  65.9369140  38.4008390 135.5832530  51.6100570  35.7409960 124.9281390
  52.3192270  35.3193180 124.4428670  50.8940510  35.8085190 124.2964740
  51.2574730  31.7949290 123.9684040  51.9802860  32.3358230 124.2865260
  51.5299250  31.5212710 123.0925580  50.9466920  31.0455480 133.8706660
  51.5943110  30.4952860 133.4301820  51.3668760  31.2998630 134.6922470
  64.8419260  31.2396840 137.2276300  65.4791480  31.8530980 137.5935490
  64.9894150  31.2757500 136.2825530  67.3843810  33.1310630 124.0099440
  68.3093120  32.9991810 123.8017730  67.3619600  33.2103450 124.9635890
  67.4582300  33.9021290 126.6356150  66.6633800  33.8366410 127.1649060
  67.6625580  34.8371930 126.6241500  50.6998920  31.2011150 136.6131980
  50.3513740  31.6574970 137.3790160  50.3686620  30.3068280 136.6954410
  52.3063290  44.3730750 140.7785170  52.2632920  44.0023660 141.6599630
  52.4374300  45.3108320 140.9186990  56.0069320  45.9290340 136.3794890
  55.7660680  46.1964900 135.4925410  56.9471960  46.0996070 136.4345750
  58.2123740  32.3923030 140.1351400  58.1512630  32.9844860 140.8846810
  59.1524120  32.2848990 139.9901660  60.8498300  32.0493090 139.7743690
  61.4638710  32.3672380 139.1124770  61.3947860  31.5641680 140.3939550
  67.2673480  47.9484720 137.1805530  66.7731760  48.3453590 136.4632660
  66.6586770  47.3233930 137.5742810  51.3719560  30.7287350 139.8882750
  51.9202550  30.5475400 139.1248860  51.4374870  29.9381460 140.4239060
  52.1451320  47.3193000 137.8982950  51.5511640  47.1877700 138.6372990
  52.1375160  46.4831140 137.4325050  61.5906340  30.6125230 136.1012980
  60.7166180  30.9460340 135.8985910  61.4817090  30.1398410 136.9264850
  62.4978320  32.8196100 137.4854700  62.1691680  32.0047860 137.1056430
  63.4460620  32.7765910 137.3620390  64.9512930  48.5908140 134.4592270
  64.4915900  49.3423950 134.0850290  64.3225390  47.8714610 134.4007070
  51.7763550  44.6851380 136.8490990  51.0497610  44.0656670 136.7816940
  51.8372700  45.0791990 135.9789070  55.3808650  46.8996380 133.6340400
  55.8973670  46.2883740 133.1088660  56.0306030  47.4025160 134.1251410
  58.1204150  47.7904870 134.4609380  58.4081960  47.5359170 133.5842390
  58.6327370  47.2382230 135.0514950  59.3381160  31.5295070 135.0405890
  58.5552950  32.0040570 135.3202650  59.0444090  30.6249900 134.9319070
  63.8902230  32.2318170 133.0854980  64.3310320  32.1763270 132.2376580
  63.6209820  33.1476180 133.1565160  65.7540800  31.8633410 131.0963800
  65.6929200  30.9194630 130.9494820  66.5332830  31.9713500 131.6417260
  50.0593550  48.0025770 130.0587750  49.8915590  47.3696450 130.7569640
  49.1928060  48.2085170 129.7081940  50.6821570  31.8342550 127.5619610
  51.4400930  31.9471430 126.9883640  50.2198740  32.6711750 127.5163040
  57.2235380  33.9481820 130.5521920  56.4109890  33.5738710 130.2117800
  57.7277020  33.1926900 130.8543110  61.7260360  30.6124270 131.7904990
  62.3289730  31.1844480 132.2653510  60.9853350  31.1763710 131.5678890
  64.8694960  31.0145830 127.0645270  65.0645590  31.9129280 127.3312700
  64.0824830  30.7832910 127.5578220  51.6656250  46.6959000 127.5037890
  51.1403870  47.0767030 126.7999850  51.5900830  47.3209770 128.2247600
  53.0546720  32.3606600 126.1021580  53.5839480  31.5736400 125.9729530
  53.6875040  33.0397790 126.3357110  55.2484560  32.0981740 129.1566970
  54.6187300  31.3969050 129.3237100  54.7089700  32.8585870 128.9400130
  58.1876510  48.7120970 141.8277580  59.1143820  48.4765240 141.8713540
  58.1726940  49.5392970 141.3463610  66.4221570  48.2546540 128.8251830
  66.5973760  47.5684280 128.1812750  65.7243140  48.7793590 128.4328500
  55.3740120  31.3765720 141.5919460  55.0924390  31.8799320 140.8280280
  55.7559820  30.5787470 141.2261590  54.2649220  48.6441380 126.3787140
  54.9968040  48.3600660 125.8311030  54.5242890  48.4054660 127.2686520
  53.4264010  44.7606110 126.3833470  52.7972890  45.2291210 126.9319300
  53.5411840  43.9155330 126.8179660  61.9755580  30.7919300 142.1699930
  61.8621030  31.1113910 143.0651450  62.7925320  31.1931810 141.8737210
  64.7554070  47.9390830 141.6518620  65.5479390  47.4440060 141.4444580
  65.0487220  48.6180970 142.2594230  60.8813730  38.8111770 112.5334670
  60.8007780  37.8966380 112.2626380  60.4678150  39.3078840 111.8274380
  53.0297600  40.9010600 115.2919700  52.1982480  40.6459310 115.6916210
  53.6378580  40.9721370 116.0277620  53.0098860  44.9350690 115.4877720
  53.3126900  44.0448430 115.3087940  53.7542450  45.4920910 115.2599970
  51.4389550  35.8612490 109.0762090  50.5506250  36.2028460 108.9741970
  51.7230740  35.6612810 108.1842920  49.4022560  38.4618140 114.9601790
  49.9738670  37.6940340 114.9605430  49.4024100  38.7606900 114.0508400
  59.2602510  47.2808990 112.8147060  58.6413950  47.7366490 112.2441500
  60.1154290  47.4360450 112.4136760  50.6447430  33.8702500 116.7470720
  50.4650270  32.9728250 117.0273480  50.2427510  34.4174370 117.4217670
  59.4845930  36.0718360 114.6483030  59.8610750  35.1990240 114.5356700
  59.3865440  36.4077060 113.7573470  53.6150940  34.4443990 110.1100470
  53.7217690  35.3447720 110.4169230  52.7043300  34.3961960 109.8195120
  51.2634100  36.3663000 115.3553060  51.9444210  36.6301370 115.9740460
  50.9482150  35.5263870 115.6891070  55.4558670  37.4130360 114.4425650
  55.9636890  37.9111330 115.0830670  55.9871910  36.6365560 114.2665010
  53.7394770  32.0528920 118.7089070  53.7413210  32.5701310 117.9034970
  52.9099080  31.5759100 118.6859000  54.9897620  41.6924100 116.8862570
  54.6567000  42.3193020 117.5283640  55.1664300  42.2185980 116.1064240
  53.4210100  33.7638880 116.7159520  53.7626910  34.6080930 116.4213390
  52.4825910  33.9122620 116.8324860  54.2016720  43.6604900 118.7011750
  54.8190720  44.3355980 118.4196200  53.3409840  44.0692880 118.6099250
  65.1194310  45.1244310 116.6166390  64.4357830  45.7943420 116.6083060
  65.6588600  45.3224960 115.8511250  62.6553050  46.9688440 115.3311570
  62.6680210  46.5650730 114.4633830  62.1028270  47.7435730 115.2273000
  59.4918750  39.3169980 109.7764230  58.5648030  39.2507360 110.0052700
  59.6443570  40.2550110 109.6619470  59.4787830  35.5886980 106.7731390
  58.5391500  35.7500940 106.8583850  59.7971090  36.3072660 106.2267380
  55.0975390  39.8434720 112.5583960  54.6932390  39.1311970 112.0629860
  55.1838510  39.4987960 113.4472000  55.5657090  43.5302280 114.7223170
  55.2685380  42.9247750 114.0430950  56.5156910  43.5679590 114.6112530
  53.8104010  36.6177930 116.3383000  54.3618600  36.7273270 115.5636250
  54.3247520  36.9915530 117.0538230  63.6542700  47.1034150 118.3846270
  63.1773260  47.9106340 118.1918880  62.9704490  46.4512480 118.5372480
  61.6980740  40.1177090 107.2872230  62.1374020  39.2799520 107.1410050
  62.4109160  40.7506490 107.3736370  65.2797880  31.3719900 105.6013270
  64.9670540  31.4646730 106.5012340  66.0410350  31.9500930 105.5510700
  51.7980020  38.7379700 110.0590610  51.6777620  39.4641790 109.4471880
  51.4880910  37.9682610 109.5818520  67.2341910  46.8646090 123.4537660
  67.7101630  47.3428980 124.1326740  67.8549070  46.7963580 122.7283160
  49.4365390  41.9094840 115.8659250  49.5145810  42.0443610 114.9214970
  50.0507070  41.2010730 116.0587370  50.6813020  43.6095030 112.2765430
  50.2741100  43.7509620 111.4219030  51.5726030  43.3255190 112.0736640
  66.6375160  44.0558940 120.6137670  66.7638220  43.8170820 119.6954850
  66.6796540  43.2243480 121.0859750  60.4991900  47.7586940 119.1832480
  61.0136570  47.6694950 119.9854910  59.6560980  48.1046640 119.4760390
  62.4746300  48.0442280 108.6116480  62.3147440  47.7545220 109.5098310
  62.3093010  47.2682410 108.0761710  54.9534680  47.8240810 110.3888100
  54.7777160  46.9076350 110.1755900  54.0990420  48.1828100 110.6285900
  62.1772430  45.5529840 107.1714480  61.4837590  45.5507130 106.5116760
  62.9195290  45.1289160 106.7408650  61.7422360  47.1792550 111.2462970
  62.1979310  46.3981930 111.5601590  62.0814880  47.8899370 111.7904150
  66.4899170  36.1091400 121.5787410  65.8743440  36.6171070 121.0502870
  66.1695590  35.2089730 121.5213350  49.4924910  42.9509010 118.4053710
  49.6555950  42.4814370 117.5873080  49.9577360  42.4432570 119.0702550
  57.3802500  31.7025470 108.3220110  56.7556680  31.6985340 109.0473420
  57.2932620  30.8356430 107.9256080  54.0557900  37.2048340 111.1695530
  53.8298820  36.9885510 112.0742150  53.2750430  37.6376800 110.8241500
  61.2855660  37.2111710 109.7686180  60.6864550  37.9347510 109.5849800
  61.8335270  37.1488490 108.9862630  59.8920530  35.8475250 111.7989460
  60.2850100  36.1647450 110.9858150  60.2537380  34.9687130 111.9133980
  48.9284700  32.4376050 114.0219660  48.6397750  33.0078910 114.7344640
  49.6730460  31.9580500 114.3850890  49.1154930  36.3796170 105.2322380
  49.0329600  37.3226930 105.3737370  48.7637990  36.2371080 104.3534730
  56.9153060  35.1135200 114.2992730  56.9189120  34.6725150 113.4497270
  57.8104180  35.4352530 114.4064550  52.7655440  34.9961690 113.2586940
  52.4255490  35.4736920 114.0153990  52.0032760  34.5426810 112.8988040
  56.9773210  36.1147280 107.2899490  57.0986030  36.0733760 108.2385310
  56.5921720  36.9771430 107.1346220  55.9894710  38.4248420 106.6882790
  55.4211610  37.9766670 106.0618700  56.6983710  38.7841200 106.1547940
  51.0663890  42.3260440 120.5649520  50.6818680  41.6854110 121.1632480
  51.3776080  43.0296560 121.1344250  50.0801520  33.9180670 112.1751610
  49.7948440  33.5536340 113.0130230  50.0180380  33.1861130 111.5614750
  62.4688500  37.1829580 107.1927140  63.3568120  37.4946810 107.0178480
  62.4393590  36.3101830 106.8007720  53.5779590  42.0886990 112.5988010
  54.0958260  41.2855250 112.5444900  53.1263610  42.0266130 113.4404840
  58.4649090  43.3553270 107.8715310  58.8064790  44.0995500 107.3758630
  57.6361800  43.6684390 108.2340140  64.7402770  38.4941420 106.6607000
  64.6566490  38.9255640 105.8103440  65.4596960  38.9539770 107.0933820
  57.4339780  43.4366800 110.6431230  58.1210910  43.9836010 111.0238820
  56.6472200  43.9807530 110.6780840  49.5732180  39.0539620 106.1348310
  50.4427030  39.3364420 106.4184230  49.0822500  39.8675490 106.0197120
  56.7366990  40.4412830 110.2556590  57.1929770  41.2518080 110.4816780
  56.3855200  40.1235970 111.0875080  59.0399600  45.9519170 117.4848890
  59.6841820  46.1578550 118.1622310  59.4029040  45.1907570 117.0319740
  52.6378770  30.7850480 110.7279110  52.5093400  30.7768380 111.6764030
  51.8140790  31.1233570 110.3770120  64.1587400  44.2400140 105.9265480
  63.9324980  43.5230580 106.5190120  63.7683600  43.9912580 105.0887230
  62.0869300  44.7546420 119.4062400  62.4225540  45.3413110 120.0840320
  61.1669640  44.6239130 119.6360190  49.6372700  32.5441600 120.1885810
  48.9231220  32.7438520 120.7938420  50.0567740  31.7681170 120.5600610
  49.9245290  46.5321860 121.1752340  50.0336410  45.5916600 121.0347730
  49.2725850  46.7976610 120.5266070  51.5578690  40.8713090 108.2630370
  50.9506640  41.6111990 108.2725670  52.0328040  40.9612450 107.4368570
  58.9431650  45.7126440 106.1808800  59.0443630  45.5090430 105.2510780
  58.0433390  45.4584720 106.3856580  56.4657540  36.2706800 110.1632700
  55.7573690  36.7393140 110.6046310  56.7502020  35.6128810 110.7977890
  57.5849760  48.2312760 110.8756470  57.8391260  48.1934150 109.9535840
  56.6362240  48.1046090 110.8684720  54.6692560  34.5791880 107.5383410
  55.5183090  35.0162030 107.4723600  54.3023830  34.8912140 108.3655470
  52.2630740  38.2649310 106.6951830  52.3434330  37.3176820 106.8069230
  53.1550490  38.5956190 106.8012490  65.5927920  46.3213490 114.1269240
  65.7175340  47.1444660 114.5993050  66.4593480  46.1104220 113.7793390
  52.0703730  47.5990770 122.9871950  52.8716460  47.9202820 123.4007350
  51.5555550  47.2386350 123.7091860  65.2277930  46.8145140 107.0448680
  64.9419440  46.4010280 106.2302860  65.0297480  47.7432850 106.9249200
  56.6925160  42.8078420 105.4854290  56.5875800  42.1930770 106.2115670
  56.5249380  42.2844310 104.7017300  59.9327890  41.8698450 106.0896280
  59.3837990  42.3167750 106.7339020  60.5547150  41.3647700 106.6133950
  63.9862830  43.2240550 122.0218540  64.7272300  43.5616310 121.5186000
  63.2235510  43.3932610 121.4688310  55.6003010  40.8289370 107.9861580
  56.0219430  40.6629240 108.8292970  55.7253850  40.0189600 107.4916720
  58.1130650  39.8526980 105.2338680  58.6336310  39.1376000 104.8679830
  58.7599050  40.4912850 105.5339190  63.1330660  38.6151540 122.5612900
  63.7151430  37.8603860 122.4733380  63.3092430  39.1458980 121.7844380
  54.2502730  33.7748290 120.8729850  54.1559600  33.1569040 120.1480720
  53.6700120  34.5014580 120.6459760  54.4961910  36.9022600 104.9319740
  54.2950970  36.0389960 105.2933080  54.3253960  36.8155960 103.9941340
  61.9750220  31.7130830 107.4606620  62.2552510  30.8698730 107.8166040
  61.2015950  31.9453940 107.9745370  53.2944710  34.0023220 104.9197620
  53.5970610  34.0090650 104.0116770  54.0339300  33.6521080 105.4165280
  56.5129640  32.9457840 105.9053820  56.1651640  32.2681830 105.3256270
  56.7142410  32.4847350 106.7197210  58.6778680  47.9338590 107.5240420
  59.5729470  48.2723560 107.5459180  58.7096310  47.2118000 106.8964700
  54.1282560  44.4263680 110.8649650  53.8278100  44.3028650 111.7653560
  54.0220050  43.5672270 110.4565380  65.6573030  46.4642260 120.2306620
  65.0575020  46.5234820 119.4870540  65.7866930  45.5247240 120.3603470
  66.8974480  44.2060080 105.5676330  66.0667440  44.2736730 106.0383560
  67.0746310  45.0964200 105.2643190  49.8535280  39.4745490 112.3018190
  49.1984120  39.2057130 111.6577890  50.6913230  39.3649970 111.8520170
  66.4050110  41.2441930 105.2283050  66.6798950  42.1520810 105.1002270
  66.2160850  41.1804460 106.1645040  62.8025720  34.2686780 106.5236680
  63.2210600  34.0817760 105.6833340  62.4961780  33.4165830 106.8339610
  50.8911210  39.8598060 116.8421530  51.2584250  39.7725460 117.7217550
  50.3222030  39.0964610 116.7428390  49.0673360  36.6844420 108.2443520
  48.1637440  36.9474620 108.0695180  49.5513980  36.9555590 107.4643480
  51.6100570  35.7409960 106.1537900  52.3192270  35.3193180 105.6685180
  50.8940510  35.8085190 105.5221250  51.2574730  31.7949290 105.1940550
  51.9802860  32.3358230 105.5121770  51.5299250  31.5212710 104.3182090
  67.3843810  33.1310630 105.2355950  68.3093120  32.9991810 105.0274240
  67.3619600  33.2103450 106.1892400  64.4000720  47.9412840 111.8551050
  64.9959790  47.6197410 111.1785470  64.6578870  47.4684660 112.6464320
  50.6998920  31.2011150 117.8388490  50.3513740  31.6574970 118.6046670
  50.3686620  30.3068280 117.9210920  52.3063290  44.3730750 122.0041680
  52.2632920  44.0023660 122.8856140  52.4374300  45.3108320 122.1443500
  67.2673480  47.9484720 118.4062040  66.7731760  48.3453590 117.6889170
  66.6586770  47.3233930 118.7999320  51.3719560  30.7287350 121.1139260
  51.9202550  30.5475400 120.3505370  51.4374870  29.9381460 121.6495570
  52.1451320  47.3193000 119.1239460  51.5511640  47.1877700 119.8629500
  52.1375160  46.4831140 118.6581560  64.9512930  48.5908140 115.6848780
  64.4915900  49.3423950 115.3106800  64.3225390  47.8714610 115.6263580
  51.7763550  44.6851380 118.0747500  51.0497610  44.0656670 118.0073450
  51.8372700  45.0791990 117.2045580  55.3808650  46.8996380 114.8596910
  55.8973670  46.2883740 114.3345170  56.0306030  47.4025160 115.3507920
  50.6821570  31.8342550 108.7876120  51.4400930  31.9471430 108.2140150
  50.2198740  32.6711750 108.7419550  57.2235380  33.9481820 111.7778430
  56.4109890  33.5738710 111.4374310  57.7277020  33.1926900 112.0799620
  64.8694960  31.0145830 108.2901780  65.0645590  31.9129280 108.5569210
  64.0824830  30.7832910 108.7834730  53.0546720  32.3606600 107.3278090
  53.5839480  31.5736400 107.1986040  53.6875040  33.0397790 107.5613620
  55.2484560  32.0981740 110.3823480  54.6187300  31.3969050 110.5493610
  54.7089700  32.8585870 110.1656640  66.4221570  48.2546540 110.0508340
  66.5973760  47.5684280 109.4069260  65.7243140  48.7793590 109.6585010
  55.3740120  31.3765720 122.8175970  55.0924390  31.8799320 122.0536790
  55.7559820  30.5787470 122.4518100  61.9755580  30.7919300 123.3956440
  61.8621030  31.1113910 124.2907960  62.7925320  31.1931810 123.0993720
  60.8813730  38.8111770  93.7591180  60.8007780  37.8966380  93.4882890
  60.4678150  39.3078840  93.0530890  59.0131770  40.5890790  95.6400450
  58.2373870  40.1091230  95.9299020  59.6644700  39.9096440  95.4656610
  53.0297600  40.9010600  96.5176210  52.1982480  40.6459310  96.9172720
  53.6378580  40.9721370  97.2534130  63.0339200  44.9950980  94.4199580
  62.5720730  44.2238220  94.7486750  63.8464750  45.0217050  94.9252030
  53.0098860  44.9350690  96.7134230  53.3126900  44.0448430  96.5344450
  53.7542450  45.4920910  96.4856480  51.4389550  35.8612490  90.3018600
  50.5506250  36.2028460  90.1998480  51.7230740  35.6612810  89.4099430
  53.6150940  34.4443990  91.3356980  53.7217690  35.3447720  91.6425740
  52.7043300  34.3961960  91.0451630  51.2634100  36.3663000  96.5809570
  51.9444210  36.6301370  97.1996970  50.9482150  35.5263870  96.9147580
  67.5569600  35.5835550  99.3711510  66.8521770  35.9717260  98.8526620
  67.8227520  36.2785840  99.9732440  60.1265860  42.1648230  91.4335480
  59.5083130  42.6297680  90.8698200  60.6389110  42.8575710  91.8504990
  54.9897620  41.6924100  98.1119080  54.6567000  42.3193020  98.7540150
  55.1664300  42.2185980  97.3320750  54.2016720  43.6604900  99.9268260
  54.8190720  44.3355980  99.6452710  53.3409840  44.0692880  99.8355760
  49.4949060  42.8504760  88.8075110  49.1177040  43.3391860  88.0760010
  49.7522130  43.5230040  89.4381640  63.9498470  43.6904660  91.6458250
  63.8394800  42.7478990  91.7707670  63.9466720  44.0520300  92.5321010
  59.4918750  39.3169980  91.0020740  58.5648030  39.2507360  91.2309210
  59.6443570  40.2550110  90.8875980  59.4787830  35.5886980  87.9987900
  58.5391500  35.7500940  88.0840360  59.7971090  36.3072660  87.4523890
  66.0000590  40.2705500  97.9766930  65.1719220  40.3398590  97.5017060
  66.5951070  40.8559810  97.5082760  63.5216040  40.8790280  91.5055990
  62.9028460  40.5409830  90.8582290  63.5040490  40.2350040  92.2135180
  62.9642600  37.0574820  98.9221800  62.5513780  37.8828530  99.1761790
  62.2318550  36.4719860  98.7298160  55.0975390  39.8434720  93.7840470
  54.6932390  39.1311970  93.2886370  55.1838510  39.4987960  94.6728510
  55.5657090  43.5302280  95.9479680  55.2685380  42.9247750  95.2687460
  56.5156910  43.5679590  95.8369040  53.8104010  36.6177930  97.5639510
  54.3618600  36.7273270  96.7892760  54.3247520  36.9915530  98.2794740
  54.6575520  43.2683970 102.5987480  53.7604050  43.4923940 102.8460880
  54.6828390  43.3918910 101.6498880  61.6980740  40.1177090  88.5128740
  62.1374020  39.2799520  88.3666560  62.4109160  40.7506490  88.5992880
  55.2827090  46.0818990 103.3830000  55.2542520  46.4861940 102.5158430
  55.1192060  45.1529350 103.2201600  65.2797880  31.3719900  86.8269780
  64.9670540  31.4646730  87.7268850  66.0410350  31.9500930  86.7767210
  51.7980020  38.7379700  91.2847120  51.6777620  39.4641790  90.6728390
  51.4880910  37.9682610  90.8075030  67.2341910  46.8646090 104.6794170
  67.7101630  47.3428980 105.3583250  67.8549070  46.7963580 103.9539670
  49.4365390  41.9094840  97.0915760  49.5145810  42.0443610  96.1471480
  50.0507070  41.2010730  97.2843880  50.6813020  43.6095030  93.5021940
  50.2741100  43.7509620  92.6475540  51.5726030  43.3255190  93.2993150
  66.6375160  44.0558940 101.8394180  66.7638220  43.8170820 100.9211360
  66.6796540  43.2243480 102.3116260  62.4746300  48.0442280  89.8372990
  62.3147440  47.7545220  90.7354820  62.3093010  47.2682410  89.3018220
  62.1772430  45.5529840  88.3970990  61.4837590  45.5507130  87.7373270
  62.9195290  45.1289160  87.9665160  66.4899170  36.1091400 102.8043920
  65.8743440  36.6171070 102.2759380  66.1695590  35.2089730 102.7469860
  49.4924910  42.9509010  99.6310220  49.6555950  42.4814370  98.8129590
  49.9577360  42.4432570 100.2959060  58.5513490  34.9483290 100.2706110
  58.0892860  35.1566310 101.0826050  58.1491600  34.1342640  99.9676780
  63.5518000  36.1692240 101.4002770  62.7011590  35.8697990 101.7211840
  63.3919790  36.4134250 100.4886590  60.6467710  37.6693990 103.5001560
  60.9721120  36.8357740 103.1603790  61.4348040  38.1922510 103.6479890
  57.3802500  31.7025470  89.5476620  56.7556680  31.6985340  90.2729930
  57.2932620  30.8356430  89.1512590  54.0557900  37.2048340  92.3952040
  53.8298820  36.9885510  93.2998660  53.2750430  37.6376800  92.0498010
  61.2855660  37.2111710  90.9942690  60.6864550  37.9347510  90.8106310
  61.8335270  37.1488490  90.2119140  56.4957110  38.1033920 103.0612310
  56.4000710  37.1628650 102.9112710  57.3389090  38.3248990 102.6660380
  58.2012700  34.5982560 104.2842830  57.5111020  34.4054760 104.9188920
  58.9445000  34.8817200 104.8167130  48.9284700  32.4376050  95.2476170
  48.6397750  33.0078910  95.9601150  49.6730460  31.9580500  95.6107400
  49.1154930  36.3796170  86.4578890  49.0329600  37.3226930  86.5993880
  48.7637990  36.2371080  85.5791240  60.4775670  38.4381000  97.1196750
  59.7456790  38.9467810  97.4686850  60.0800010  37.6210980  96.8185530
  56.9773210  36.1147280  88.5156000  57.0986030  36.0733760  89.4641820
  56.5921720  36.9771430  88.3602730  55.9894710  38.4248420  87.9139300
  55.4211610  37.9766670  87.2875210  56.6983710  38.7841200  87.3804450
  64.3672330  31.3046860 102.3706070  64.6918100  30.5736520 102.8964050
  64.4028840  30.9860500 101.4687060  57.2161030  39.1736980  97.2714650
  57.5831160  38.6995550  98.0175990  57.0266090  40.0478550  97.6122990
  50.0801520  33.9180670  93.4008120  49.7948440  33.5536340  94.2386740
  50.0180380  33.1861130  92.7871260  55.0060400  38.2145620  99.5898860
  54.7017470  39.0937600  99.8149220  55.9606860  38.2745410  99.6256300
  53.5342190  42.4206610  90.1865710  52.7604450  41.8804230  90.0264430
  54.2636820  41.9013220  89.8483470  64.2930170  41.4171970  95.9792100
  65.0129290  41.9127260  95.5888210  64.0911990  40.7389860  95.3345970
  59.6748970  41.4881030 101.8661100  59.6086280  40.5676700 101.6118690
  59.0454110  41.5856470 102.5805740  62.4688500  37.1829580  88.4183650
  63.3568120  37.4946810  88.2434990  62.4393590  36.3101830  88.0264230
  53.5779590  42.0886990  93.8244520  54.0958260  41.2855250  93.7701410
  53.1263610  42.0266130  94.6661350  58.4649090  43.3553270  89.0971820
  58.8064790  44.0995500  88.6015140  57.6361800  43.6684390  89.4596650
  54.2637250  39.5132600 103.6209770  53.9637390  39.6589780 102.7237590
  55.0348490  38.9537890 103.5283160  65.8176910  40.9508940 100.9633480
  65.0925100  41.5437720 100.7662870  66.3452370  40.9432480 100.1646850
  65.7690020  45.3483680  90.6145640  65.1266180  44.6939300  90.8889360
  65.3820680  45.7538770  89.8386310  61.3476500  42.6769110  94.4617330
  61.7000320  42.0797240  93.8018700  60.4638830  42.3513340  94.6325580
  49.5732180  39.0539620  87.3604820  50.4427030  39.3364420  87.6440740
  49.0822500  39.8675490  87.2453630  56.7366990  40.4412830  91.4813100
  57.1929770  41.2518080  91.7073290  56.3855200  40.1235970  92.3131590
  64.1587400  44.2400140  87.1521990  63.9324980  43.5230580  87.7446630
  63.7683600  43.9912580  86.3143740  49.9403430  48.2667000  87.9266450
  50.3001070  48.8656340  87.2723720  49.7995770  48.8126890  88.7001480
  63.7403650  42.1572080  88.8136150  63.4525350  42.6184770  89.6014030
  64.5355820  41.6969850  89.0820370  49.9245290  46.5321860 102.4008850
  50.0336410  45.5916600 102.2604240  49.2725850  46.7976610 101.7522580
  57.9157880  44.8037750 103.8006970  57.5954750  44.0846990 104.3452660
  57.2416240  45.4792820 103.8743030  55.9572050  45.6498200  88.7440120
  55.9482150  46.3827890  88.1284630  55.0370410  45.4029780  88.8367080
  51.5578690  40.8713090  89.4886880  50.9506640  41.6111990  89.4982180
  52.0328040  40.9612450  88.6625080  61.1311480  35.0363910  99.1643770
  61.4992300  34.2159120  99.4923340  60.2709680  35.0965800  99.5799420
  64.4973510  33.9920850  89.9731330  63.8686670  34.0966520  89.2589560
  64.0025430  34.2117630  90.7625210  58.9431650  45.7126440  87.4065310
  59.0443630  45.5090430  86.4767290  58.0433390  45.4584720  87.6113090
  56.4657540  36.2706800  91.3889210  55.7573690  36.7393140  91.8302820
  56.7502020  35.6128810  92.0234400  58.0913470  37.6903500  99.3881740
  58.5898720  38.1649320 100.0533590  58.2336420  36.7667020  99.5951770
  54.6692560  34.5791880  88.7639920  55.5183090  35.0162030  88.6980110
  54.3023830  34.8912140  89.5911980  65.2980330  33.9071460 100.2310130
  64.7953930  34.6476860 100.5703940  66.1136990  34.2955460  99.9146920
  63.5902340  39.1504640  93.6771490  62.6492480  39.1654870  93.8519180
  63.9046410  38.3640600  94.1231790  53.5683980  40.8324240  87.2375450
  54.3347250  40.7205600  87.8000880  53.6458670  40.1362210  86.5852220
  52.2630740  38.2649310  87.9208340  52.3434330  37.3176820  88.0325740
  53.1550490  38.5956190  88.0269000  65.5927920  46.3213490  95.3525750
  65.7175340  47.1444660  95.8249560  66.4593480  46.1104220  95.0049900
  49.9490930  44.4818270  90.8984390  49.0230710  44.7239410  90.8889800
  50.4147360  45.3092530  90.7769140  56.1747760  47.5875010  86.8468450
  56.9676370  47.8763840  86.3950240  55.6552110  47.1567180  86.1680930
  60.9068360  43.7070640 104.1603870  60.3006520  43.7302240 103.4199620
  60.6022470  42.9753680 104.6971120  62.3368730  47.4350930 102.7713280
  63.2890480  47.3508950 102.7213520  62.1896950  48.0992640 103.4447070
  65.2277930  46.8145140  88.2705190  64.9419440  46.4010280  87.4559370
  65.0297480  47.7432850  88.1505710  56.6925160  42.8078420  86.7110800
  56.5875800  42.1930770  87.4372180  56.5249380  42.2844310  85.9273810
  56.8439480  41.4935220 102.6900030  56.0785150  42.0620220 102.6054700
  57.0255440  41.2011430 101.7968260  59.9327890  41.8698450  87.3152790
  59.3837990  42.3167750  87.9595530  60.5547150  41.3647700  87.8390460
  63.9862830  43.2240550 103.2475050  64.7272300  43.5616310 102.7442510
  63.2235510  43.3932610 102.6944820  51.8224620  38.2293820 104.0514580
  51.8629960  37.9307690 104.9599810  52.6770120  38.6301430 103.8922100
  55.6003010  40.8289370  89.2118090  56.0219430  40.6629240  90.0549480
  55.7253850  40.0189600  88.7173230  53.7630430  36.8085920 102.0189070
  53.2326890  36.3176870 101.3912410  54.4318500  37.2370120 101.4847000
  58.1130650  39.8526980  86.4595190  58.6336310  39.1376000  86.0936340
  58.7599050  40.4912850  86.7595700  62.6608490  41.2755380 101.7830260
  63.0749510  41.4300460 102.6320680  61.7259490  41.4010600 101.9456040
  63.1330660  38.6151540 103.7869410  63.7151430  37.8603860 103.6989890
  63.3092430  39.1458980 103.0100890  54.2502730  33.7748290 102.0986360
  54.1559600  33.1569040 101.3737230  53.6700120  34.5014580 101.8716270
  57.4223720  41.2275860  99.7526190  57.8411830  42.0708590  99.5802430
  56.5032350  41.3647900  99.5232970  59.7587620  38.9592040 101.1364030
  59.8783830  38.3633180 101.8758870  60.6181620  38.9961730 100.7165330
  62.0975520  39.5129230  99.7126540  61.5710740  40.0371850  99.1091680
  62.4406860  40.1456620 100.3436270  54.4961910  36.9022600  86.1576250
  54.2950970  36.0389960  86.5189590  54.3253960  36.8155960  85.2197850
  56.5256390  35.5013390 102.3939850  57.1156080  35.1929240 103.0817670
  55.7076630  35.0293140 102.5499750  61.3449820  35.1179200 102.6272870
  60.6565340  34.4560740 102.5622860  62.0655840  34.6717470 103.0721330
  61.9750220  31.7130830  88.6863130  62.2552510  30.8698730  89.0422550
  61.2015950  31.9453940  89.2001880  53.2944710  34.0023220  86.1454130
  53.5970610  34.0090650  85.2373280  54.0339300  33.6521080  86.6421790
  56.5129640  32.9457840  87.1310330  56.1651640  32.2681830  86.5512780
  56.7142410  32.4847350  87.9453720  58.6778680  47.9338590  88.7496930
  59.5729470  48.2723560  88.7715690  58.7096310  47.2118000  88.1221210
  52.3174840  43.3065640  86.9783930  52.7549710  43.8495310  87.6341510
  52.8022570  42.4812590  86.9880270  49.5320640  46.0954670  94.4304190
  49.8623650  45.2275730  94.1982830  49.9611640  46.3013190  95.2609150
  50.0210850  46.9625260  97.1685820  49.5841840  47.1426060  98.0009970
  50.5888530  47.7199880  97.0267540  65.6573030  46.4642260 101.4563130
  65.0575020  46.5234820 100.7127050  65.7866930  45.5247240 101.5859980
  66.8974480  44.2060080  86.7932840  66.0667440  44.2736730  87.2640070
  67.0746310  45.0964200  86.4899700  49.8535280  39.4745490  93.5274700
  49.1984120  39.2057130  92.8834400  50.6913230  39.3649970  93.0776680
  67.3590910  41.8057660  94.1408970  67.7299740  41.0224980  93.7344940
  67.9992840  42.4946760  93.9626270  64.3424670  43.1894240  99.5539290
  63.5284510  43.6191400  99.8165080  64.7498870  43.8012650  98.9408340
  62.8025720  34.2686780  87.7493190  63.2210600  34.0817760  86.9089850
  62.4961780  33.4165830  88.0596120  65.6915070  38.3282440 101.0808510
  65.4601160  38.0995190 100.1806460  65.9519620  39.2481990 101.0353400
  64.1303140  33.5538870 103.8588210  65.0073320  33.5622270 104.2422210
  64.1423980  32.8169710 103.2480560  49.0673360  36.6844420  89.4700030
  48.1637440  36.9474620  89.2951690  49.5513980  36.9555590  88.6899990
  65.5766410  37.4068410  94.7476230  66.1003890  36.9131060  94.1166400
  66.1625830  37.5418770  95.4923800  65.7556130  37.4908280  98.2695780
  64.8058840  37.4571820  98.3840770  65.9369140  38.4008390  98.0345550
  51.6100570  35.7409960  87.3794410  52.3192270  35.3193180  86.8941690
  50.8940510  35.8085190  86.7477760  66.4953540  35.3002710  93.2206320
  66.3852820  35.1458750  94.1588590  67.2561130  34.7723650  92.9781730
  64.8419260  31.2396840  99.6789320  65.4791480  31.8530980 100.0448510
  64.9894150  31.2757500  98.7338550  67.3843810  33.1310630  86.4612460
  68.3093120  32.9991810  86.2530750  67.3619600  33.2103450  87.4148910
  67.4582300  33.9021290  89.0869170  66.6633800  33.8366410  89.6162080
  67.6625580  34.8371930  89.0754520  64.4000720  47.9412840  93.0807560
  64.9959790  47.6197410  92.4041980  64.6578870  47.4684660  93.8720830
  58.2123740  32.3923030 102.5864420  58.1512630  32.9844860 103.3359830
  59.1524120  32.2848990 102.4414680  60.8498300  32.0493090 102.2256710
  61.4638710  32.3672380 101.5637790  61.3947860  31.5641680 102.8452570
  67.2673480  47.9484720  99.6318550  66.7731760  48.3453590  98.9145680
  66.6586770  47.3233930 100.0255830  52.1451320  47.3193000 100.3495970
  51.5511640  47.1877700 101.0886010  52.1375160  46.4831140  99.8838070
  62.4978320  32.8196100  99.9367720  62.1691680  32.0047860  99.5569450
  63.4460620  32.7765910  99.8133410  64.9512930  48.5908140  96.9105290
  64.4915900  49.3423950  96.5363310  64.3225390  47.8714610  96.8520090
  51.7763550  44.6851380  99.3004010  51.0497610  44.0656670  99.2329960
  51.8372700  45.0791990  98.4302090  50.0593550  48.0025770  92.5100770
  49.8915590  47.3696450  93.2082660  49.1928060  48.2085170  92.1594960
  64.8694960  31.0145830  89.5158290  65.0645590  31.9129280  89.7825720
  64.0824830  30.7832910  90.0091240  51.6656250  46.6959000  89.9550910
  51.1403870  47.0767030  89.2512870  51.5900830  47.3209770  90.6760620
  53.0546720  32.3606600  88.5534600  53.5839480  31.5736400  88.4242550
  53.6875040  33.0397790  88.7870130  58.1876510  48.7120970 104.2790600
  59.1143820  48.4765240 104.3226560  58.1726940  49.5392970 103.7976630
  66.4221570  48.2546540  91.2764850  66.5973760  47.5684280  90.6325770
  65.7243140  48.7793590  90.8841520  55.3740120  31.3765720 104.0432480
  55.0924390  31.8799320 103.2793300  55.7559820  30.5787470 103.6774610
  54.2649220  48.6441380  88.8300160  54.9968040  48.3600660  88.2824050
  54.5242890  48.4054660  89.7199540  53.4264010  44.7606110  88.8346490
  52.7972890  45.2291210  89.3832320  53.5411840  43.9155330  89.2692680
  61.9755580  30.7919300 104.6212950  61.8621030  31.1113910 105.5164470
  62.7925320  31.1931810 104.3250230  64.7554070  47.9390830 104.1031640
  65.5479390  47.4440060 103.8957600  65.0487220  48.6180970 104.7107250
  59.0131770  40.5890790  76.8656960  58.2373870  40.1091230  77.1555530
  59.6644700  39.9096440  76.6913120  63.0339200  44.9950980  75.6456090
  62.5720730  44.2238220  75.9743260  63.8464750  45.0217050  76.1508540
  51.4389550  35.8612490  71.5275110  50.5506250  36.2028460  71.4254990
  51.7230740  35.6612810  70.6355940  49.4022560  38.4618140  77.4114810
  49.9738670  37.6940340  77.4118450  49.4024100  38.7606900  76.5021420
  59.2602510  47.2808990  75.2660080  58.6413950  47.7366490  74.6954520
  60.1154290  47.4360450  74.8649780  58.4540760  43.2647980  76.8727120
  58.3849040  42.3237920  76.7116250  59.2160620  43.3549390  77.4449690
  50.6447430  33.8702500  79.1983740  50.4650270  32.9728250  79.4786500
  50.2427510  34.4174370  79.8730690  53.6150940  34.4443990  72.5613490
  53.7217690  35.3447720  72.8682250  52.7043300  34.3961960  72.2708140
  51.2634100  36.3663000  77.8066080  51.9444210  36.6301370  78.4253480
  50.9482150  35.5263870  78.1404090  67.5569600  35.5835550  80.5968020
  66.8521770  35.9717260  80.0783130  67.8227520  36.2785840  81.1988950
  60.1265860  42.1648230  72.6591990  59.5083130  42.6297680  72.0954710
  60.6389110  42.8575710  73.0761500  54.9897620  41.6924100  79.3375590
  54.6567000  42.3193020  79.9796660  55.1664300  42.2185980  78.5577260
  53.4210100  33.7638880  79.1672540  53.7626910  34.6080930  78.8726410
  52.4825910  33.9122620  79.2837880  65.1194310  45.1244310  79.0679410
  64.4357830  45.7943420  79.0596080  65.6588600  45.3224960  78.3024270
  66.5718450  34.9523970  77.1961140  65.6243360  34.9862950  77.3276570
  66.8968440  35.7662920  77.5810500  57.1037990  31.2521150  75.4917130
  57.4112970  30.6968040  74.7752630  56.1738690  31.3865610  75.3090120
  62.6553050  46.9688440  77.7824590  62.6680210  46.5650730  76.9146850
  62.1028270  47.7435730  77.6786020  63.9498470  43.6904660  72.8714760
  63.8394800  42.7478990  72.9964180  63.9466720  44.0520300  73.7577520
  62.0538490  41.8718280  79.1107200  62.4707280  41.6578390  78.2760660
  62.7778310  42.1291070  79.6815820  59.4787830  35.5886980  69.2244410
  58.5391500  35.7500940  69.3096870  59.7971090  36.3072660  68.6780400
  66.0000590  40.2705500  79.2023440  65.1719220  40.3398590  78.7273570
  66.5951070  40.8559810  78.7339270  63.5216040  40.8790280  72.7312500
  62.9028460  40.5409830  72.0838800  63.5040490  40.2350040  73.4391690
  55.5657090  43.5302280  77.1736190  55.2685380  42.9247750  76.4943970
  56.5156910  43.5679590  77.0625550  53.8104010  36.6177930  78.7896020
  54.3618600  36.7273270  78.0149270  54.3247520  36.9915530  79.5051250
  54.6575520  43.2683970  83.8243990  53.7604050  43.4923940  84.0717390
  54.6828390  43.3918910  82.8755390  61.6980740  40.1177090  69.7385250
  62.1374020  39.2799520  69.5923070  62.4109160  40.7506490  69.8249390
  53.4846740  40.1397290  82.4001360  53.3454510  41.0120090  82.7688760
  52.6028100  39.7970100  82.2549300  59.8076120  45.0573160  73.7066490
  60.2472030  45.7997490  73.2921880  59.7463010  45.2999730  74.6305450
  55.2827090  46.0818990  84.6086510  55.2542520  46.4861940  83.7414940
  55.1192060  45.1529350  84.4458110  65.2797880  31.3719900  68.0526290
  64.9670540  31.4646730  68.9525360  66.0410350  31.9500930  68.0023720
  67.2341910  46.8646090  85.9050680  67.7101630  47.3428980  86.5839760
  67.8549070  46.7963580  85.1796180  49.4365390  41.9094840  78.3172270
  49.5145810  42.0443610  77.3727990  50.0507070  41.2010730  78.5100390
  66.6375160  44.0558940  83.0650690  66.7638220  43.8170820  82.1467870
  66.6796540  43.2243480  83.5372770  60.4991900  47.7586940  81.6345500
  61.0136570  47.6694950  82.4367930  59.6560980  48.1046640  81.9273410
  62.1772430  45.5529840  69.6227500  61.4837590  45.5507130  68.9629780
  62.9195290  45.1289160  69.1921670  61.7422360  47.1792550  73.6975990
  62.1979310  46.3981930  74.0114610  62.0814880  47.8899370  74.2417170
  54.2643680  32.0814770  75.8927300  53.8211830  32.8624310  75.5611820
  54.8228670  32.4044660  76.5998240  57.3802500  31.7025470  70.7733130
  56.7556680  31.6985340  71.4986440  57.2932620  30.8356430  70.3769100
  56.3019580  32.6262100  77.7516900  56.5991910  33.5324930  77.6708920
  56.8505140  32.1380880  77.1376470  56.4957110  38.1033920  84.2868820
  56.4000710  37.1628650  84.1369220  57.3389090  38.3248990  83.8916890
  51.6267650  34.5147590  82.4402600  51.2331040  35.3622800  82.6475380
  50.9386050  33.8773960  82.6311240  58.2012700  34.5982560  85.5099340
  57.5111020  34.4054760  86.1445430  58.9445000  34.8817200  86.0423640
  48.9284700  32.4376050  76.4732680  48.6397750  33.0078910  77.1857660
  49.6730460  31.9580500  76.8363910  49.1154930  36.3796170  67.6835400
  49.0329600  37.3226930  67.8250390  48.7637990  36.2371080  66.8047750
  56.9153060  35.1135200  76.7505750  56.9189120  34.6725150  75.9010290
  57.8104180  35.4352530  76.8577570  56.9773210  36.1147280  69.7412510
  57.0986030  36.0733760  70.6898330  56.5921720  36.9771430  69.5859240
  55.9894710  38.4248420  69.1395810  55.4211610  37.9766670  68.5131720
  56.6983710  38.7841200  68.6060960  51.0663890  42.3260440  83.0162540
  50.6818680  41.6854110  83.6145500  51.3776080  43.0296560  83.5857270
  57.2161030  39.1736980  78.4971160  57.5831160  38.6995550  79.2432500
  57.0266090  40.0478550  78.8379500  50.0801520  33.9180670  74.6264630
  49.7948440  33.5536340  75.4643250  50.0180380  33.1861130  74.0127770
  55.0060400  38.2145620  80.8155370  54.7017470  39.0937600  81.0405730
  55.9606860  38.2745410  80.8512810  64.2930170  41.4171970  77.2048610
  65.0129290  41.9127260  76.8144720  64.0911990  40.7389860  76.5602480
  59.7540110  32.8109930  71.3478000  58.9404720  32.3123100  71.2723310
  59.5602060  33.6508180  70.9314350  59.6748970  41.4881030  83.0917610
  59.6086280  40.5676700  82.8375200  59.0454110  41.5856470  83.8062250
  62.4688500  37.1829580  69.6440160  63.3568120  37.4946810  69.4691500
  62.4393590  36.3101830  69.2520740  58.4649090  43.3553270  70.3228330
  58.8064790  44.0995500  69.8271650  57.6361800  43.6684390  70.6853160
  51.0624130  39.0548360  81.9626730  50.7039070  39.7202210  82.5500070
  50.7678690  38.2231910  82.3339350  54.2637250  39.5132600  84.8466280
  53.9637390  39.6589780  83.9494100  55.0348490  38.9537890  84.7539670
  59.6065700  44.3101600  82.8421410  59.6210240  43.3782560  82.6240320
  58.8990800  44.3961360  83.4811180  64.7402770  38.4941420  69.1120020
  64.6566490  38.9255640  68.2616460  65.4596960  38.9539770  69.5446840
  65.8176910  40.9508940  82.1889990  65.0925100  41.5437720  81.9919380
  66.3452370  40.9432480  81.3903360  65.7690020  45.3483680  71.8402150
  65.1266180  44.6939300  72.1145870  65.3820680  45.7538770  71.0642820
  61.3476500  42.6769110  75.6873840  61.7000320  42.0797240  75.0275210
  60.4638830  42.3513340  75.8582090  49.5732180  39.0539620  68.5861330
  50.4427030  39.3364420  68.8697250  49.0822500  39.8675490  68.4710140
  59.0399600  45.9519170  79.9361910  59.6841820  46.1578550  80.6135330
  59.4029040  45.1907570  79.4832760  52.6378770  30.7850480  73.1792130
  52.5093400  30.7768380  74.1277050  51.8140790  31.1233570  72.8283140
  60.3131680  43.9551520  78.6539360  60.9553910  43.2544680  78.7671530
  60.8381030  44.7349960  78.4736250  64.1587400  44.2400140  68.3778500
  63.9324980  43.5230580  68.9703140  63.7683600  43.9912580  67.5400250
  62.0869300  44.7546420  81.8575420  62.4225540  45.3413110  82.5353340
  61.1669640  44.6239130  82.0873210  49.6372700  32.5441600  82.6398830
  48.9231220  32.7438520  83.2451440  50.0567740  31.7681170  83.0113630
  63.7403650  42.1572080  70.0392660  63.4525350  42.6184770  70.8270540
  64.5355820  41.6969850  70.3076880  57.9157880  44.8037750  85.0263480
  57.5954750  44.0846990  85.5709170  57.2416240  45.4792820  85.0999540
  64.4973510  33.9920850  71.1987840  63.8686670  34.0966520  70.4846070
  64.0025430  34.2117630  71.9881720  58.9431650  45.7126440  68.6321820
  59.0443630  45.5090430  67.7023800  58.0433390  45.4584720  68.8369600
  54.6692560  34.5791880  69.9896430  55.5183090  35.0162030  69.9236620
  54.3023830  34.8912140  70.8168490  52.2630740  38.2649310  69.1464850
  52.3434330  37.3176820  69.2582250  53.1550490  38.5956190  69.2525510
  65.5927920  46.3213490  76.5782260  65.7175340  47.1444660  77.0506070
  66.4593480  46.1104220  76.2306410  56.1747760  47.5875010  68.0724960
  56.9676370  47.8763840  67.6206750  55.6552110  47.1567180  67.3937440
  60.9068360  43.7070640  85.3860380  60.3006520  43.7302240  84.6456130
  60.6022470  42.9753680  85.9227630  62.3368730  47.4350930  83.9969790
  63.2890480  47.3508950  83.9470030  62.1896950  48.0992640  84.6703580
  49.7901540  40.0864230  84.3821020  50.2940560  39.5071510  84.9537250
  49.0508960  40.3704460  84.9197390  56.6925160  42.8078420  67.9367310
  56.5875800  42.1930770  68.6628690  56.5249380  42.2844310  67.1530320
  56.8439480  41.4935220  83.9156540  56.0785150  42.0620220  83.8311210
  57.0255440  41.2011430  83.0224770  59.9327890  41.8698450  68.5409300
  59.3837990  42.3167750  69.1852040  60.5547150  41.3647700  69.0646970
  63.9862830  43.2240550  84.4731560  64.7272300  43.5616310  83.9699020
  63.2235510  43.3932610  83.9201330  51.8224620  38.2293820  85.2771090
  51.8629960  37.9307690  86.1856320  52.6770120  38.6301430  85.1178610
  53.7630430  36.8085920  83.2445580  53.2326890  36.3176870  82.6168920
  54.4318500  37.2370120  82.7103510  58.1130650  39.8526980  67.6851700
  58.6336310  39.1376000  67.3192850  58.7599050  40.4912850  67.9852210
  54.2502730  33.7748290  83.3242870  54.1559600  33.1569040  82.5993740
  53.6700120  34.5014580  83.0972780  57.0164170  32.3321530  80.3570260
  56.5681470  32.3545790  79.5115810  56.3829370  31.9340550  80.9540560
  57.4223720  41.2275860  80.9782700  57.8411830  42.0708590  80.8058940
  56.5032350  41.3647900  80.7489480  54.4961910  36.9022600  67.3832760
  54.2950970  36.0389960  67.7446100  54.3253960  36.8155960  66.4454360
  56.5256390  35.5013390  83.6196360  57.1156080  35.1929240  84.3074180
  55.7076630  35.0293140  83.7756260  61.9750220  31.7130830  69.9119640
  62.2552510  30.8698730  70.2679060  61.2015950  31.9453940  70.4258390
  53.2944710  34.0023220  67.3710640  53.5970610  34.0090650  66.4629790
  54.0339300  33.6521080  67.8678300  58.1293350  48.7680080  82.3527080
  58.0552050  49.6715220  82.6599450  57.2272190  48.4491980  82.3249150
  56.5129640  32.9457840  68.3566840  56.1651640  32.2681830  67.7769290
  56.7142410  32.4847350  69.1710230  58.6778680  47.9338590  69.9753440
  59.5729470  48.2723560  69.9972200  58.7096310  47.2118000  69.3477720
  49.5320640  46.0954670  75.6560700  49.8623650  45.2275730  75.4239340
  49.9611640  46.3013190  76.4865660  66.3530940  40.9507560  70.5223550
  67.1149850  41.5204210  70.6283240  66.3685310  40.3834760  71.2931860
  67.3590910  41.8057660  75.3665480  67.7299740  41.0224980  74.9601450
  67.9992840  42.4946760  75.1882780  64.3424670  43.1894240  80.7795800
  63.5284510  43.6191400  81.0421590  64.7498870  43.8012650  80.1664850
  62.8025720  34.2686780  68.9749700  63.2210600  34.0817760  68.1346360
  62.4961780  33.4165830  69.2852630  66.3015450  39.1810920  72.6725500
  65.9259050  38.4138850  72.2406790  65.5718570  39.5633620  73.1600430
  50.8911210  39.8598060  79.2934550  51.2584250  39.7725460  80.1730570
  50.3222030  39.0964610  79.1941410  50.4427210  36.7707150  83.1992970
  49.5483260  36.7373910  83.5386680  50.9824760  36.9693940  83.9644220
  49.0673360  36.6844420  70.6956540  48.1637440  36.9474620  70.5208200
  49.5513980  36.9555590  69.9156500  65.7556130  37.4908280  79.4952290
  64.8058840  37.4571820  79.6097280  65.9369140  38.4008390  79.2602060
  51.6100570  35.7409960  68.6050920  52.3192270  35.3193180  68.1198200
  50.8940510  35.8085190  67.9734270  51.2574730  31.7949290  67.6453570
  51.9802860  32.3358230  67.9634790  51.5299250  31.5212710  66.7695110
  50.9466920  31.0455480  77.5476190  51.5943110  30.4952860  77.1071350
  51.3668760  31.2998630  78.3692000  66.4953540  35.3002710  74.4462830
  66.3852820  35.1458750  75.3845100  67.2561130  34.7723650  74.2038240
  67.3843810  33.1310630  67.6868970  68.3093120  32.9991810  67.4787260
  67.3619600  33.2103450  68.6405420  67.4582300  33.9021290  70.3125680
  66.6633800  33.8366410  70.8418590  67.6625580  34.8371930  70.3011030
  64.4000720  47.9412840  74.3064070  64.9959790  47.6197410  73.6298490
  64.6578870  47.4684660  75.0977340  50.6998920  31.2011150  80.2901510
  50.3513740  31.6574970  81.0559690  50.3686620  30.3068280  80.3723940
  58.2123740  32.3923030  83.8120930  58.1512630  32.9844860  84.5616340
  59.1524120  32.2848990  83.6671190  61.5906340  30.6125230  79.7782510
  60.7166180  30.9460340  79.5755440  61.4817090  30.1398410  80.6034380
  64.9512930  48.5908140  78.1361800  64.4915900  49.3423950  77.7619820
  64.3225390  47.8714610  78.0776600  58.1204150  47.7904870  78.1378910
  58.4081960  47.5359170  77.2611920  58.6327370  47.2382230  78.7284480
  59.3381160  31.5295070  78.7175420  58.5552950  32.0040570  78.9972180
  59.0444090  30.6249900  78.6088600  65.7540800  31.8633410  74.7733330
  65.6929200  30.9194630  74.6264350  66.5332830  31.9713500  75.3186790
  50.6821570  31.8342550  71.2389140  51.4400930  31.9471430  70.6653170
  50.2198740  32.6711750  71.1932570  57.2235380  33.9481820  74.2291450
  56.4109890  33.5738710  73.8887330  57.7277020  33.1926900  74.5312640
  64.8694960  31.0145830  70.7414800  65.0645590  31.9129280  71.0082230
  64.0824830  30.7832910  71.2347750  53.0546720  32.3606600  69.7791110
  53.5839480  31.5736400  69.6499060  53.6875040  33.0397790  70.0126640
  55.2484560  32.0981740  72.8336500  54.6187300  31.3969050  73.0006630
  54.7089700  32.8585870  72.6169660  58.1876510  48.7120970  85.5047110
  59.1143820  48.4765240  85.5483070  58.1726940  49.5392970  85.0233140
  61.9755580  30.7919300  85.8469460  61.8621030  31.1113910  86.7420980
  62.7925320  31.1931810  85.5506740  64.7554070  47.9390830  85.3288150
  65.5479390  47.4440060  85.1214110  65.0487220  48.6180970  85.9363760
  60.8813730  38.8111770  56.2104200  60.8007780  37.8966380  55.9395910
  60.4678150  39.3078840  55.5043910  59.0131770  40.5890790  58.0913470
  58.2373870  40.1091230  58.3812040  59.6644700  39.9096440  57.9169630
  53.0297600  40.9010600  58.9689230  52.1982480  40.6459310  59.3685740
  53.6378580  40.9721370  59.7047150  53.0098860  44.9350690  59.1647250
  53.3126900  44.0448430  58.9857470  53.7542450  45.4920910  58.9369500
  58.4540760  43.2647980  58.0983630  58.3849040  42.3237920  57.9372760
  59.2160620  43.3549390  58.6706200  50.6447430  33.8702500  60.4240250
  50.4650270  32.9728250  60.7043010  50.2427510  34.4174370  61.0987200
  59.4845930  36.0718360  58.3252560  59.8610750  35.1990240  58.2126230
  59.3865440  36.4077060  57.4343000  63.2670050  33.5668800  55.2580900
  64.0879670  33.0765370  55.3006380  63.3004130  34.1566460  56.0112740
  51.2634100  36.3663000  59.0322590  51.9444210  36.6301370  59.6509990
  50.9482150  35.5263870  59.3660600  67.5569600  35.5835550  61.8224530
  66.8521770  35.9717260  61.3039640  67.8227520  36.2785840  62.4245460
  53.7394770  32.0528920  62.3858600  53.7413210  32.5701310  61.5804500
  52.9099080  31.5759100  62.3628530  60.1265860  42.1648230  53.8848500
  59.5083130  42.6297680  53.3211220  60.6389110  42.8575710  54.3018010
  54.9897620  41.6924100  60.5632100  54.6567000  42.3193020  61.2053170
  55.1664300  42.2185980  59.7833770  63.5031530  35.5069180  58.0308440
  62.7987100  35.7954070  58.6111550  63.8643690  36.3169290  57.6708000
  53.4210100  33.7638880  60.3929050  53.7626910  34.6080930  60.0982920
  52.4825910  33.9122620  60.5094390  54.2016720  43.6604900  62.3781280
  54.8190720  44.3355980  62.0965730  53.3409840  44.0692880  62.2868780
  49.4949060  42.8504760  51.2588130  49.1177040  43.3391860  50.5273030
  49.7522130  43.5230040  51.8894660  66.5718450  34.9523970  58.4217650
  65.6243360  34.9862950  58.5533080  66.8968440  35.7662920  58.8067010
  62.0538490  41.8718280  60.3363710  62.4707280  41.6578390  59.5017170
  62.7778310  42.1291070  60.9072330  59.4918750  39.3169980  53.4533760
  58.5648030  39.2507360  53.6822230  59.6443570  40.2550110  53.3389000
  66.0000590  40.2705500  60.4279950  65.1719220  40.3398590  59.9530080
  66.5951070  40.8559810  59.9595780  63.5216040  40.8790280  53.9569010
  62.9028460  40.5409830  53.3095310  63.5040490  40.2350040  54.6648200
  62.9642600  37.0574820  61.3734820  62.5513780  37.8828530  61.6274810
  62.2318550  36.4719860  61.1811180  55.0975390  39.8434720  56.2353490
  54.6932390  39.1311970  55.7399390  55.1838510  39.4987960  57.1241530
  55.5657090  43.5302280  58.3992700  55.2685380  42.9247750  57.7200480
  56.5156910  43.5679590  58.2882060  53.8104010  36.6177930  60.0152530
  54.3618600  36.7273270  59.2405780  54.3247520  36.9915530  60.7307760
  54.6575520  43.2683970  65.0500500  53.7604050  43.4923940  65.2973900
  54.6828390  43.3918910  64.1011900  61.6980740  40.1177090  50.9641760
  62.1374020  39.2799520  50.8179580  62.4109160  40.7506490  51.0505900
  53.4846740  40.1397290  63.6257870  53.3454510  41.0120090  63.9945270
  52.6028100  39.7970100  63.4805810  59.8076120  45.0573160  54.9323000
  60.2472030  45.7997490  54.5178390  59.7463010  45.2999730  55.8561960
  55.2827090  46.0818990  65.8343020  55.2542520  46.4861940  64.9671450
  55.1192060  45.1529350  65.6714620  65.2797880  31.3719900  49.2782800
  64.9670540  31.4646730  50.1781870  66.0410350  31.9500930  49.2280230
  51.7980020  38.7379700  53.7360140  51.6777620  39.4641790  53.1241410
  51.4880910  37.9682610  53.2588050  49.4365390  41.9094840  59.5428780
  49.5145810  42.0443610  58.5984500  50.0507070  41.2010730  59.7356900
  50.6813020  43.6095030  55.9534960  50.2741100  43.7509620  55.0988560
  51.5726030  43.3255190  55.7506170  60.4991900  47.7586940  62.8602010
  61.0136570  47.6694950  63.6624440  59.6560980  48.1046640  63.1529920
  54.9534680  47.8240810  54.0657630  54.7777160  46.9076350  53.8525430
  54.0990420  48.1828100  54.3055430  66.4899170  36.1091400  65.2556940
  65.8743440  36.6171070  64.7272400  66.1695590  35.2089730  65.1982880
  49.4924910  42.9509010  62.0823240  49.6555950  42.4814370  61.2642610
  49.9577360  42.4432570  62.7472080  58.5513490  34.9483290  62.7219130
  58.0892860  35.1566310  63.5339070  58.1491600  34.1342640  62.4189800
  63.5518000  36.1692240  63.8515790  62.7011590  35.8697990  64.1724860
  63.3919790  36.4134250  62.9399610  60.6467710  37.6693990  65.9514580
  60.9721120  36.8357740  65.6116810  61.4348040  38.1922510  66.0992910
  56.3019580  32.6262100  58.9773410  56.5991910  33.5324930  58.8965430
  56.8505140  32.1380880  58.3632980  61.2855660  37.2111710  53.4455710
  60.6864550  37.9347510  53.2619330  61.8335270  37.1488490  52.6632160
  56.4957110  38.1033920  65.5125330  56.4000710  37.1628650  65.3625730
  57.3389090  38.3248990  65.1173400  51.6267650  34.5147590  63.6659110
  51.2331040  35.3622800  63.8731890  50.9386050  33.8773960  63.8567750
  58.2012700  34.5982560  66.7355850  57.5111020  34.4054760  67.3701940
  58.9445000  34.8817200  67.2680150  48.9284700  32.4376050  57.6989190
  48.6397750  33.0078910  58.4114170  49.6730460  31.9580500  58.0620420
  60.4775670  38.4381000  59.5709770  59.7456790  38.9467810  59.9199870
  60.0800010  37.6210980  59.2698550  60.9401580  33.8914680  58.9832710
  60.9574320  34.3423330  59.8274560  60.6917160  32.9920320  59.1966150
  55.9894710  38.4248420  50.3652320  55.4211610  37.9766670  49.7388230
  56.6983710  38.7841200  49.8317470  64.3672330  31.3046860  64.8219090
  64.6918100  30.5736520  65.3477070  64.4028840  30.9860500  63.9200080
  51.0663890  42.3260440  64.2419050  50.6818680  41.6854110  64.8402010
  51.3776080  43.0296560  64.8113780  57.2161030  39.1736980  59.7227670
  57.5831160  38.6995550  60.4689010  57.0266090  40.0478550  60.0636010
  55.0060400  38.2145620  62.0411880  54.7017470  39.0937600  62.2662240
  55.9606860  38.2745410  62.0769320  53.5342190  42.4206610  52.6378730
  52.7604450  41.8804230  52.4777450  54.2636820  41.9013220  52.2996490
  64.2930170  41.4171970  58.4305120  65.0129290  41.9127260  58.0401230
  64.0911990  40.7389860  57.7858990  59.6748970  41.4881030  64.3174120
  59.6086280  40.5676700  64.0631710  59.0454110  41.5856470  65.0318760
  62.4688500  37.1829580  50.8696670  63.3568120  37.4946810  50.6948010
  62.4393590  36.3101830  50.4777250  53.5779590  42.0886990  56.2757540
  54.0958260  41.2855250  56.2214430  53.1263610  42.0266130  57.1174370
  58.4649090  43.3553270  51.5484840  58.8064790  44.0995500  51.0528160
  57.6361800  43.6684390  51.9109670  51.0624130  39.0548360  63.1883240
  50.7039070  39.7202210  63.7756580  50.7678690  38.2231910  63.5595860
  54.2637250  39.5132600  66.0722790  53.9637390  39.6589780  65.1750610
  55.0348490  38.9537890  65.9796180  59.6065700  44.3101600  64.0677920
  59.6210240  43.3782560  63.8496830  58.8990800  44.3961360  64.7067690
  64.7402770  38.4941420  50.3376530  64.6566490  38.9255640  49.4872970
  65.4596960  38.9539770  50.7703350  65.8176910  40.9508940  63.4146500
  65.0925100  41.5437720  63.2175890  66.3452370  40.9432480  62.6159870
  61.3476500  42.6769110  56.9130350  61.7000320  42.0797240  56.2531720
  60.4638830  42.3513340  57.0838600  57.4339780  43.4366800  54.3200760
  58.1210910  43.9836010  54.7008350  56.6472200  43.9807530  54.3550370
  56.7366990  40.4412830  53.9326120  57.1929770  41.2518080  54.1586310
  56.3855200  40.1235970  54.7644610  59.0399600  45.9519170  61.1618420
  59.6841820  46.1578550  61.8391840  59.4029040  45.1907570  60.7089270
  60.3131680  43.9551520  59.8795870  60.9553910  43.2544680  59.9928040
  60.8381030  44.7349960  59.6992760  49.6372700  32.5441600  63.8655340
  48.9231220  32.7438520  64.4707950  50.0567740  31.7681170  64.2370140
  49.9245290  46.5321860  64.8521870  50.0336410  45.5916600  64.7117260
  49.2725850  46.7976610  64.2035600  57.9157880  44.8037750  66.2519990
  57.5954750  44.0846990  66.7965680  57.2416240  45.4792820  66.3256050
  55.9572050  45.6498200  51.1953140  55.9482150  46.3827890  50.5797650
  55.0370410  45.4029780  51.2880100  51.5578690  40.8713090  51.9399900
  50.9506640  41.6111990  51.9495200  52.0328040  40.9612450  51.1138100
  61.1311480  35.0363910  61.6156790  61.4992300  34.2159120  61.9436360
  60.2709680  35.0965800  62.0312440  64.4973510  33.9920850  52.4244350
  63.8686670  34.0966520  51.7102580  64.0025430  34.2117630  53.2138230
  58.9431650  45.7126440  49.8578330  59.0443630  45.5090430  48.9280310
  58.0433390  45.4584720  50.0626110  58.0913470  37.6903500  61.8394760
  58.5898720  38.1649320  62.5046610  58.2336420  36.7667020  62.0464790
  60.4972970  32.9957460  55.2798020  60.3740750  33.0143590  54.3307530
  61.4457530  33.0436400  55.3996420  65.2980330  33.9071460  62.6823150
  64.7953930  34.6476860  63.0216960  66.1136990  34.2955460  62.3659940
  63.5902340  39.1504640  56.1284510  62.6492480  39.1654870  56.3032200
  63.9046410  38.3640600  56.5744810  53.0645450  48.4144700  57.4755900
  53.8007930  47.8660160  57.7464470  53.4486370  49.2800710  57.3361890
  49.9490930  44.4818270  53.3497410  49.0230710  44.7239410  53.3402820
  50.4147360  45.3092530  53.2282160  52.0703730  47.5990770  66.6641480
  52.8716460  47.9202820  67.0776880  51.5555550  47.2386350  67.3861390
  56.1747760  47.5875010  49.2981470  56.9676370  47.8763840  48.8463260
  55.6552110  47.1567180  48.6193950  60.9068360  43.7070640  66.6116890
  60.3006520  43.7302240  65.8712640  60.6022470  42.9753680  67.1484140
  49.7901540  40.0864230  65.6077530  50.2940560  39.5071510  66.1793760
  49.0508960  40.3704460  66.1453900  56.6925160  42.8078420  49.1623820
  56.5875800  42.1930770  49.8885200  56.5249380  42.2844310  48.3786830
  56.8439480  41.4935220  65.1413050  56.0785150  42.0620220  65.0567720
  57.0255440  41.2011430  64.2481280  59.9327890  41.8698450  49.7665810
  59.3837990  42.3167750  50.4108550  60.5547150  41.3647700  50.2903480
  63.9862830  43.2240550  65.6988070  64.7272300  43.5616310  65.1955530
  63.2235510  43.3932610  65.1457840  51.8224620  38.2293820  66.5027600
  51.8629960  37.9307690  67.4112830  52.6770120  38.6301430  66.3435120
  55.6003010  40.8289370  51.6631110  56.0219430  40.6629240  52.5062500
  55.7253850  40.0189600  51.1686250  53.7630430  36.8085920  64.4702090
  53.2326890  36.3176870  63.8425430  54.4318500  37.2370120  63.9360020
  58.1130650  39.8526980  48.9108210  58.6336310  39.1376000  48.5449360
  58.7599050  40.4912850  49.2108720  62.6608490  41.2755380  64.2343280
  63.0749510  41.4300460  65.0833700  61.7259490  41.4010600  64.3969060
  63.1330660  38.6151540  66.2382430  63.7151430  37.8603860  66.1502910
  63.3092430  39.1458980  65.4613910  54.2502730  33.7748290  64.5499380
  54.1559600  33.1569040  63.8250250  53.6700120  34.5014580  64.3229290
  57.0164170  32.3321530  61.5826770  56.5681470  32.3545790  60.7372320
  56.3829370  31.9340550  62.1797070  57.4223720  41.2275860  62.2039210
  57.8411830  42.0708590  62.0315450  56.5032350  41.3647900  61.9745990
  59.7587620  38.9592040  63.5877050  59.8783830  38.3633180  64.3271890
  60.6181620  38.9961730  63.1678350  62.0975520  39.5129230  62.1639560
  61.5710740  40.0371850  61.5604700  62.4406860  40.1456620  62.7949290
  55.2731140  47.5328870  63.3196940  54.7352230  48.2574930  63.0005640
  55.5265100  47.0559210  62.5294280  56.5256390  35.5013390  64.8452870
  57.1156080  35.1929240  65.5330690  55.7076630  35.0293140  65.0012770
  61.3449820  35.1179200  65.0785890  60.6565340  34.4560740  65.0135880
  62.0655840  34.6717470  65.5234350  61.9750220  31.7130830  51.1376150
  62.2552510  30.8698730  51.4935570  61.2015950  31.9453940  51.6514900
  58.1293350  48.7680080  63.5783590  58.0552050  49.6715220  63.8855960
  57.2272190  48.4491980  63.5505660  58.6778680  47.9338590  51.2009950
  59.5729470  48.2723560  51.2228710  58.7096310  47.2118000  50.5734230
  52.3174840  43.3065640  49.4296950  52.7549710  43.8495310  50.0854530
  52.8022570  42.4812590  49.4393290  49.5320640  46.0954670  56.8817210
  49.8623650  45.2275730  56.6495850  49.9611640  46.3013190  57.7122170
  54.1282560  44.4263680  54.5419180  53.8278100  44.3028650  55.4423090
  54.0220050  43.5672270  54.1334910  50.0210850  46.9625260  59.6198840
  49.5841840  47.1426060  60.4522990  50.5888530  47.7199880  59.4780560
  66.3530940  40.9507560  51.7480060  67.1149850  41.5204210  51.8539750
  66.3685310  40.3834760  52.5188370  66.4050110  41.2441930  48.9052580
  66.6798950  42.1520810  48.7771800  66.2160850  41.1804460  49.8414570
  62.8025720  34.2686780  50.2006210  63.2210600  34.0817760  49.3602870
  62.4961780  33.4165830  50.5109140  66.3015450  39.1810920  53.8982010
  65.9259050  38.4138850  53.4663300  65.5718570  39.5633620  54.3856940
  50.8911210  39.8598060  60.5191060  51.2584250  39.7725460  61.3987080
  50.3222030  39.0964610  60.4197920  65.6915070  38.3282440  63.5321530
  65.4601160  38.0995190  62.6319480  65.9519620  39.2481990  63.4866420
  50.4427210  36.7707150  64.4249480  49.5483260  36.7373910  64.7643190
  50.9824760  36.9693940  65.1900730  64.1303140  33.5538870  66.3101230
  65.0073320  33.5622270  66.6935230  64.1423980  32.8169710  65.6993580
  49.0673360  36.6844420  51.9213050  48.1637440  36.9474620  51.7464710
  49.5513980  36.9555590  51.1413010  65.5766410  37.4068410  57.1989250
  66.1003890  36.9131060  56.5679420  66.1625830  37.5418770  57.9436820
  65.7556130  37.4908280  60.7208800  64.8058840  37.4571820  60.8353790
  65.9369140  38.4008390  60.4858570  65.0666380  36.6641760  53.1381660
  65.5625500  36.4312630  53.9230540  64.8682450  35.8253600  52.7219300
  50.9466920  31.0455480  58.7732700  51.5943110  30.4952860  58.3327860
  51.3668760  31.2998630  59.5948510  66.4953540  35.3002710  55.6719340
  66.3852820  35.1458750  56.6101610  67.2561130  34.7723650  55.4294750
  64.8419260  31.2396840  62.1302340  65.4791480  31.8530980  62.4961530
  64.9894150  31.2757500  61.1851570  67.3843810  33.1310630  48.9125480
  68.3093120  32.9991810  48.7043770  67.3619600  33.2103450  49.8661930
  67.4582300  33.9021290  51.5382190  66.6633800  33.8366410  52.0675100
  67.6625580  34.8371930  51.5267540  50.6998920  31.2011150  61.5158020
  50.3513740  31.6574970  62.2816200  50.3686620  30.3068280  61.5980450
  56.0069320  45.9290340  61.2820930  55.7660680  46.1964900  60.3951450
  56.9471960  46.0996070  61.3371790  58.2123740  32.3923030  65.0377440
  58.1512630  32.9844860  65.7872850  59.1524120  32.2848990  64.8927700
  60.8498300  32.0493090  64.6769730  61.4638710  32.3672380  64.0150810
  61.3947860  31.5641680  65.2965590  51.3719560  30.7287350  64.7908790
  51.9202550  30.5475400  64.0274900  51.4374870  29.9381460  65.3265100
  52.1451320  47.3193000  62.8008990  51.5511640  47.1877700  63.5399030
  52.1375160  46.4831140  62.3351090  61.5906340  30.6125230  61.0039020
  60.7166180  30.9460340  60.8011950  61.4817090  30.1398410  61.8290890
  62.4978320  32.8196100  62.3880740  62.1691680  32.0047860  62.0082470
  63.4460620  32.7765910  62.2646430  51.7763550  44.6851380  61.7517030
  51.0497610  44.0656670  61.6842980  51.8372700  45.0791990  60.8815110
  55.3808650  46.8996380  58.5366440  55.8973670  46.2883740  58.0114700
  56.0306030  47.4025160  59.0277450  58.1204150  47.7904870  59.3635420
  58.4081960  47.5359170  58.4868430  58.6327370  47.2382230  59.9540990
  59.3381160  31.5295070  59.9431930  58.5552950  32.0040570  60.2228690
  59.0444090  30.6249900  59.8345110  63.8902230  32.2318170  57.9881020
  64.3310320  32.1763270  57.1402620  63.6209820  33.1476180  58.0591200
  65.7540800  31.8633410  55.9989840  65.6929200  30.9194630  55.8520860
  66.5332830  31.9713500  56.5443300  50.0593550  48.0025770  54.9613790
  49.8915590  47.3696450  55.6595680  49.1928060  48.2085170  54.6107980
  61.7260360  30.6124270  56.6931030  62.3289730  31.1844480  57.1679550
  60.9853350  31.1763710  56.4704930  64.8694960  31.0145830  51.9671310
  65.0645590  31.9129280  52.2338740  64.0824830  30.7832910  52.4604260
  51.6656250  46.6959000  52.4063930  51.1403870  47.0767030  51.7025890
  51.5900830  47.3209770  53.1273640  58.1876510  48.7120970  66.7303620
  59.1143820  48.4765240  66.7739580  58.1726940  49.5392970  66.2489650
  55.3740120  31.3765720  66.4945500  55.0924390  31.8799320  65.7306320
  55.7559820  30.5787470  66.1287630  54.2649220  48.6441380  51.2813180
  54.9968040  48.3600660  50.7337070  54.5242890  48.4054660  52.1712560
  53.4264010  44.7606110  51.2859510  52.7972890  45.2291210  51.8345340
  53.5411840  43.9155330  51.7205700  61.9755580  30.7919300  67.0725970
  61.8621030  31.1113910  67.9677490  62.7925320  31.1931810  66.7763250
  63.0339200  44.9950980  38.0969110  62.5720730  44.2238220  38.4256280
  63.8464750  45.0217050  38.6021560  51.4389550  35.8612490  33.9788130
  50.5506250  36.2028460  33.8768010  51.7230740  35.6612810  33.0868960
  49.4022560  38.4618140  39.8627830  49.9738670  37.6940340  39.8631470
  49.4024100  38.7606900  38.9534440  59.2602510  47.2808990  37.7173100
  58.6413950  47.7366490  37.1467540  60.1154290  47.4360450  37.3162800
  53.6150940  34.4443990  35.0126510  53.7217690  35.3447720  35.3195270
  52.7043300  34.3961960  34.7221160  51.2634100  36.3663000  40.2579100
  51.9444210  36.6301370  40.8766500  50.9482150  35.5263870  40.5917110
  49.4949060  42.8504760  32.4844640  49.1177040  43.3391860  31.7529540
  49.7522130  43.5230040  33.1151170  57.1037990  31.2521150  37.9430150
  57.4112970  30.6968040  37.2265650  56.1738690  31.3865610  37.7603140
  59.4787830  35.5886980  31.6757430  58.5391500  35.7500940  31.7609890
  59.7971090  36.3072660  31.1293420  66.0000590  40.2705500  41.6536460
  65.1719220  40.3398590  41.1786590  66.5951070  40.8559810  41.1852290
  62.9642600  37.0574820  42.5991330  62.5513780  37.8828530  42.8531320
  62.2318550  36.4719860  42.4067690  54.6575520  43.2683970  46.2757010
  53.7604050  43.4923940  46.5230410  54.6828390  43.3918910  45.3268410
  59.8076120  45.0573160  36.1579510  60.2472030  45.7997490  35.7434900
  59.7463010  45.2999730  37.0818470  55.2827090  46.0818990  47.0599530
  55.2542520  46.4861940  46.1927960  55.1192060  45.1529350  46.8971130
  51.7980020  38.7379700  34.9616650  51.6777620  39.4641790  34.3497920
  51.4880910  37.9682610  34.4844560  49.4365390  41.9094840  40.7685290
  49.5145810  42.0443610  39.8241010  50.0507070  41.2010730  40.9613410
  50.6813020  43.6095030  37.1791470  50.2741100  43.7509620  36.3245070
  51.5726030  43.3255190  36.9762680  62.4746300  48.0442280  33.5142520
  62.3147440  47.7545220  34.4124350  62.3093010  47.2682410  32.9787750
  62.1772430  45.5529840  32.0740520  61.4837590  45.5507130  31.4142800
  62.9195290  45.1289160  31.6434690  61.7422360  47.1792550  36.1489010
  62.1979310  46.3981930  36.4627630  62.0814880  47.8899370  36.6930190
  66.4899170  36.1091400  46.4813450  65.8743440  36.6171070  45.9528910
  66.1695590  35.2089730  46.4239390  49.4924910  42.9509010  43.3079750
  49.6555950  42.4814370  42.4899120  49.9577360  42.4432570  43.9728590
  63.5518000  36.1692240  45.0772300  62.7011590  35.8697990  45.3981370
  63.3919790  36.4134250  44.1656120  60.6467710  37.6693990  47.1771090
  60.9721120  36.8357740  46.8373320  61.4348040  38.1922510  47.3249420
  57.3802500  31.7025470  33.2246150  56.7556680  31.6985340  33.9499460
  57.2932620  30.8356430  32.8282120  56.3019580  32.6262100  40.2029920
  56.5991910  33.5324930  40.1221940  56.8505140  32.1380880  39.5889490
  54.0557900  37.2048340  36.0721570  53.8298820  36.9885510  36.9768190
  53.2750430  37.6376800  35.7267540  49.1154930  36.3796170  30.1348420
  49.0329600  37.3226930  30.2763410  48.7637990  36.2371080  29.2560770
  56.9153060  35.1135200  39.2018770  56.9189120  34.6725150  38.3523310
  57.8104180  35.4352530  39.3090590  52.7655440  34.9961690  38.1612980
  52.4255490  35.4736920  38.9180030  52.0032760  34.5426810  37.8014080
  56.9773210  36.1147280  32.1925530  57.0986030  36.0733760  33.1411350
  56.5921720  36.9771430  32.0372260  60.9401580  33.8914680  40.2089220
  60.9574320  34.3423330  41.0531070  60.6917160  32.9920320  40.4222660
  55.9894710  38.4248420  31.5908830  55.4211610  37.9766670  30.9644740
  56.6983710  38.7841200  31.0573980  64.3672330  31.3046860  46.0475600
  64.6918100  30.5736520  46.5733580  64.4028840  30.9860500  45.1456590
  51.0663890  42.3260440  45.4675560  50.6818680  41.6854110  46.0658520
  51.3776080  43.0296560  46.0370290  53.5342190  42.4206610  33.8635240
  52.7604450  41.8804230  33.7033960  54.2636820  41.9013220  33.5253000
  64.2930170  41.4171970  39.6561630  65.0129290  41.9127260  39.2657740
  64.0911990  40.7389860  39.0115500  58.4649090  43.3553270  32.7741350
  58.8064790  44.0995500  32.2784670  57.6361800  43.6684390  33.1366180
  65.8176910  40.9508940  44.6403010  65.0925100  41.5437720  44.4432400
  66.3452370  40.9432480  43.8416380  49.5732180  39.0539620  31.0374350
  50.4427030  39.3364420  31.3210270  49.0822500  39.8675490  30.9223160
  56.7366990  40.4412830  35.1582630  57.1929770  41.2518080  35.3842820
  56.3855200  40.1235970  35.9901120  52.6378770  30.7850480  35.6305150
  52.5093400  30.7768380  36.5790070  51.8140790  31.1233570  35.2796160
  49.9403430  48.2667000  31.6035980  50.3001070  48.8656340  30.9493250
  49.7995770  48.8126890  32.3771010  49.9245290  46.5321860  46.0778380
  50.0336410  45.5916600  45.9373770  49.2725850  46.7976610  45.4292110
  57.9157880  44.8037750  47.4776500  57.5954750  44.0846990  48.0222190
  57.2416240  45.4792820  47.5512560  55.9572050  45.6498200  32.4209650
  55.9482150  46.3827890  31.8054160  55.0370410  45.4029780  32.5136610
  51.5578690  40.8713090  33.1656410  50.9506640  41.6111990  33.1751710
  52.0328040  40.9612450  32.3394610  61.1311480  35.0363910  42.8413300
  61.4992300  34.2159120  43.1692870  60.2709680  35.0965800  43.2568950
  58.9431650  45.7126440  31.0834840  59.0443630  45.5090430  30.1536820
  58.0433390  45.4584720  31.2882620  56.4657540  36.2706800  35.0658740
  55.7573690  36.7393140  35.5072350  56.7502020  35.6128810  35.7003930
  58.0913470  37.6903500  43.0651270  58.5898720  38.1649320  43.7303120
  58.2336420  36.7667020  43.2721300  54.6692560  34.5791880  32.4409450
  55.5183090  35.0162030  32.3749640  54.3023830  34.8912140  33.2681510
  53.5683980  40.8324240  30.9144980  54.3347250  40.7205600  31.4770410
  53.6458670  40.1362210  30.2621750  52.2630740  38.2649310  31.5977870
  52.3434330  37.3176820  31.7095270  53.1550490  38.5956190  31.7038530
  49.9490930  44.4818270  34.5753920  49.0230710  44.7239410  34.5659330
  50.4147360  45.3092530  34.4538670  52.0703730  47.5990770  47.8897990
  52.8716460  47.9202820  48.3033390  51.5555550  47.2386350  48.6117900
  65.2277930  46.8145140  31.9474720  64.9419440  46.4010280  31.1328900
  65.0297480  47.7432850  31.8275240  56.6925160  42.8078420  30.3880330
  56.5875800  42.1930770  31.1141710  56.5249380  42.2844310  29.6043340
  56.8439480  41.4935220  46.3669560  56.0785150  42.0620220  46.2824230
  57.0255440  41.2011430  45.4737790  59.9327890  41.8698450  30.9922320
  59.3837990  42.3167750  31.6365060  60.5547150  41.3647700  31.5159990
  55.6003010  40.8289370  32.8887620  56.0219430  40.6629240  33.7319010
  55.7253850  40.0189600  32.3942760  58.1130650  39.8526980  30.1364720
  58.6336310  39.1376000  29.7705870  58.7599050  40.4912850  30.4365230
  63.1330660  38.6151540  47.4638940  63.7151430  37.8603860  47.3759420
  63.3092430  39.1458980  46.6870420  57.4223720  41.2275860  43.4295720
  57.8411830  42.0708590  43.2571960  56.5032350  41.3647900  43.2002500
  59.7587620  38.9592040  44.8133560  59.8783830  38.3633180  45.5528400
  60.6181620  38.9961730  44.3934860  62.0975520  39.5129230  43.3896070
  61.5710740  40.0371850  42.7861210  62.4406860  40.1456620  44.0205800
  54.4961910  36.9022600  29.8345780  54.2950970  36.0389960  30.1959120
  54.3253960  36.8155960  28.8967380  55.2731140  47.5328870  44.5453450
  54.7352230  48.2574930  44.2262150  55.5265100  47.0559210  43.7550790
  53.2944710  34.0023220  29.8223660  53.5970610  34.0090650  28.9142810
  54.0339300  33.6521080  30.3191320  58.1293350  48.7680080  44.8040100
  58.0552050  49.6715220  45.1112470  57.2272190  48.4491980  44.7762170
  56.5129640  32.9457840  30.8079860  56.1651640  32.2681830  30.2282310
  56.7142410  32.4847350  31.6223250  58.6778680  47.9338590  32.4266460
  59.5729470  48.2723560  32.4485220  58.7096310  47.2118000  31.7990740
  52.3174840  43.3065640  30.6553460  52.7549710  43.8495310  31.3111040
  52.8022570  42.4812590  30.6649800  54.1282560  44.4263680  35.7675690
  53.8278100  44.3028650  36.6679600  54.0220050  43.5672270  35.3591420
  50.0210850  46.9625260  40.8455350  49.5841840  47.1426060  41.6779500
  50.5888530  47.7199880  40.7037070  49.8535280  39.4745490  37.2044230
  49.1984120  39.2057130  36.5603930  50.6913230  39.3649970  36.7546210
  65.6915070  38.3282440  44.7578040  65.4601160  38.0995190  43.8575990
  65.9519620  39.2481990  44.7122930  64.1303140  33.5538870  47.5357740
  65.0073320  33.5622270  47.9191740  64.1423980  32.8169710  46.9250090
  49.0673360  36.6844420  33.1469560  48.1637440  36.9474620  32.9721220
  49.5513980  36.9555590  32.3669520  65.5766410  37.4068410  38.4245760
  66.1003890  36.9131060  37.7935930  66.1625830  37.5418770  39.1693330
  51.6100570  35.7409960  31.0563940  52.3192270  35.3193180  30.5711220
  50.8940510  35.8085190  30.4247290  51.2574730  31.7949290  30.0966590
  51.9802860  32.3358230  30.4147810  51.5299250  31.5212710  29.2208130
  52.3063290  44.3730750  46.9067720  52.2632920  44.0023660  47.7882180
  52.4374300  45.3108320  47.0469540  56.0069320  45.9290340  42.5077440
  55.7660680  46.1964900  41.6207960  56.9471960  46.0996070  42.5628300
  52.1451320  47.3193000  44.0265500  51.5511640  47.1877700  44.7655540
  52.1375160  46.4831140  43.5607600  61.5906340  30.6125230  42.2295530
  60.7166180  30.9460340  42.0268460  61.4817090  30.1398410  43.0547400
  62.4978320  32.8196100  43.6137250  62.1691680  32.0047860  43.2338980
  63.4460620  32.7765910  43.4902940  64.9512930  48.5908140  40.5874820
  64.4915900  49.3423950  40.2132840  64.3225390  47.8714610  40.5289620
  55.3808650  46.8996380  39.7622950  55.8973670  46.2883740  39.2371210
  56.0306030  47.4025160  40.2533960  58.1204150  47.7904870  40.5891930
  58.4081960  47.5359170  39.7124940  58.6327370  47.2382230  41.1797500
  59.3381160  31.5295070  41.1688440  58.5552950  32.0040570  41.4485200
  59.0444090  30.6249900  41.0601620  50.6821570  31.8342550  33.6902160
  51.4400930  31.9471430  33.1166190  50.2198740  32.6711750  33.6445590
  57.2235380  33.9481820  36.6804470  56.4109890  33.5738710  36.3400350
  57.7277020  33.1926900  36.9825660  51.6656250  46.6959000  33.6320440
  51.1403870  47.0767030  32.9282400  51.5900830  47.3209770  34.3530150
  53.0546720  32.3606600  32.2304130  53.5839480  31.5736400  32.1012080
  53.6875040  33.0397790  32.4639660  55.2484560  32.0981740  35.2849520
  54.6187300  31.3969050  35.4519650  54.7089700  32.8585870  35.0682680
  58.1876510  48.7120970  47.9560130  59.1143820  48.4765240  47.9996090
  58.1726940  49.5392970  47.4746160  53.4264010  44.7606110  32.5116020
  52.7972890  45.2291210  33.0601850  53.5411840  43.9155330  32.9462210
  61.9755580  30.7919300  48.2982480  61.8621030  31.1113910  49.1934000
  62.7925320  31.1931810  48.0019760  60.8813730  38.8111770  18.6617220
  60.8007780  37.8966380  18.3908930  60.4678150  39.3078840  17.9556930
  59.0131770  40.5890790  20.5426490  58.2373870  40.1091230  20.8325060
  59.6644700  39.9096440  20.3682650  53.0297600  40.9010600  21.4202250
  52.1982480  40.6459310  21.8198760  53.6378580  40.9721370  22.1560170
  63.0339200  44.9950980  19.3225620  62.5720730  44.2238220  19.6512790
  63.8464750  45.0217050  19.8278070  53.0098860  44.9350690  21.6160270
  53.3126900  44.0448430  21.4370490  53.7542450  45.4920910  21.3882520
  51.4389550  35.8612490  15.2044640  50.5506250  36.2028460  15.1024520
  51.7230740  35.6612810  14.3125470  49.4022560  38.4618140  21.0884340
  49.9738670  37.6940340  21.0887980  49.4024100  38.7606900  20.1790950
  59.2602510  47.2808990  18.9429610  58.6413950  47.7366490  18.3724050
  60.1154290  47.4360450  18.5419310  58.4540760  43.2647980  20.5496650
  58.3849040  42.3237920  20.3885780  59.2160620  43.3549390  21.1219220
  50.6447430  33.8702500  22.8753270  50.4650270  32.9728250  23.1556030
  50.2427510  34.4174370  23.5500220  59.4845930  36.0718360  20.7765580
  59.8610750  35.1990240  20.6639250  59.3865440  36.4077060  19.8856020
  53.6150940  34.4443990  16.2383020  53.7217690  35.3447720  16.5451780
  52.7043300  34.3961960  15.9477670  63.2670050  33.5668800  17.7093920
  64.0879670  33.0765370  17.7519400  63.3004130  34.1566460  18.4625760
  51.2634100  36.3663000  21.4835610  51.9444210  36.6301370  22.1023010
  50.9482150  35.5263870  21.8173620  55.4558670  37.4130360  20.5708200
  55.9636890  37.9111330  21.2113220  55.9871910  36.6365560  20.3947560
  67.5569600  35.5835550  24.2737550  66.8521770  35.9717260  23.7552660
  67.8227520  36.2785840  24.8758480  53.7394770  32.0528920  24.8371620
  53.7413210  32.5701310  24.0317520  52.9099080  31.5759100  24.8141550
  60.1265860  42.1648230  16.3361520  59.5083130  42.6297680  15.7724240
  60.6389110  42.8575710  16.7531030  54.9897620  41.6924100  23.0145120
  54.6567000  42.3193020  23.6566190  55.1664300  42.2185980  22.2346790
  63.5031530  35.5069180  20.4821460  62.7987100  35.7954070  21.0624570
  63.8643690  36.3169290  20.1221020  53.4210100  33.7638880  22.8442070
  53.7626910  34.6080930  22.5495940  52.4825910  33.9122620  22.9607410
  54.2016720  43.6604900  24.8294300  54.8190720  44.3355980  24.5478750
  53.3409840  44.0692880  24.7381800  49.4949060  42.8504760  13.7101150
  49.1177040  43.3391860  12.9786050  49.7522130  43.5230040  14.3407680
  66.5718450  34.9523970  20.8730670  65.6243360  34.9862950  21.0046100
  66.8968440  35.7662920  21.2580030  57.1037990  31.2521150  19.1686660
  57.4112970  30.6968040  18.4522160  56.1738690  31.3865610  18.9859650
  62.6553050  46.9688440  21.4594120  62.6680210  46.5650730  20.5916380
  62.1028270  47.7435730  21.3555550  63.9498470  43.6904660  16.5484290
  63.8394800  42.7478990  16.6733710  63.9466720  44.0520300  17.4347050
  62.0538490  41.8718280  22.7876730  62.4707280  41.6578390  21.9530190
  62.7778310  42.1291070  23.3585350  59.4918750  39.3169980  15.9046780
  58.5648030  39.2507360  16.1335250  59.6443570  40.2550110  15.7902020
  59.4787830  35.5886980  12.9013940  58.5391500  35.7500940  12.9866400
  59.7971090  36.3072660  12.3549930  63.5216040  40.8790280  16.4082030
  62.9028460  40.5409830  15.7608330  63.5040490  40.2350040  17.1161220
  62.9642600  37.0574820  23.8247840  62.5513780  37.8828530  24.0787830
  62.2318550  36.4719860  23.6324200  55.0975390  39.8434720  18.6866510
  54.6932390  39.1311970  18.1912410  55.1838510  39.4987960  19.5754550
  55.5657090  43.5302280  20.8505720  55.2685380  42.9247750  20.1713500
  56.5156910  43.5679590  20.7395080  53.8104010  36.6177930  22.4665550
  54.3618600  36.7273270  21.6918800  54.3247520  36.9915530  23.1820780
  63.6542700  47.1034150  24.5128820  63.1773260  47.9106340  24.3201430
  62.9704490  46.4512480  24.6655030  54.6575520  43.2683970  27.5013520
  53.7604050  43.4923940  27.7486920  54.6828390  43.3918910  26.5524920
  61.6980740  40.1177090  13.4154780  62.1374020  39.2799520  13.2692600
  62.4109160  40.7506490  13.5018920  53.4846740  40.1397290  26.0770890
  53.3454510  41.0120090  26.4458290  52.6028100  39.7970100  25.9318830
  59.8076120  45.0573160  17.3836020  60.2472030  45.7997490  16.9691410
  59.7463010  45.2999730  18.3074980  55.2827090  46.0818990  28.2856040
  55.2542520  46.4861940  27.4184470  55.1192060  45.1529350  28.1227640
  65.2797880  31.3719900  11.7295820  64.9670540  31.4646730  12.6294890
  66.0410350  31.9500930  11.6793250  51.7980020  38.7379700  16.1873160
  51.6777620  39.4641790  15.5754430  51.4880910  37.9682610  15.7101070
  49.4365390  41.9094840  21.9941800  49.5145810  42.0443610  21.0497520
  50.0507070  41.2010730  22.1869920  50.6813020  43.6095030  18.4047980
  50.2741100  43.7509620  17.5501580  51.5726030  43.3255190  18.2019190
  60.4991900  47.7586940  25.3115030  61.0136570  47.6694950  26.1137460
  59.6560980  48.1046640  25.6042940  62.4746300  48.0442280  14.7399030
  62.3147440  47.7545220  15.6380860  62.3093010  47.2682410  14.2044260
  54.9534680  47.8240810  16.5170650  54.7777160  46.9076350  16.3038450
  54.0990420  48.1828100  16.7568450  62.1772430  45.5529840  13.2997030
  61.4837590  45.5507130  12.6399310  62.9195290  45.1289160  12.8691200
  61.7422360  47.1792550  17.3745520  62.1979310  46.3981930  17.6884140
  62.0814880  47.8899370  17.9186700  66.4899170  36.1091400  27.7069960
  65.8743440  36.6171070  27.1785420  66.1695590  35.2089730  27.6495900
  49.4924910  42.9509010  24.5336260  49.6555950  42.4814370  23.7155630
  49.9577360  42.4432570  25.1985100  54.2643680  32.0814770  19.5696830
  53.8211830  32.8624310  19.2381350  54.8228670  32.4044660  20.2767770
  58.5513490  34.9483290  25.1732150  58.0892860  35.1566310  25.9852090
  58.1491600  34.1342640  24.8702820  63.5518000  36.1692240  26.3028810
  62.7011590  35.8697990  26.6237880  63.3919790  36.4134250  25.3912630
  60.6467710  37.6693990  28.4027600  60.9721120  36.8357740  28.0629830
  61.4348040  38.1922510  28.5505930  57.3802500  31.7025470  14.4502660
  56.7556680  31.6985340  15.1755970  57.2932620  30.8356430  14.0538630
  56.3019580  32.6262100  21.4286430  56.5991910  33.5324930  21.3478450
  56.8505140  32.1380880  20.8146000  54.0557900  37.2048340  17.2978080
  53.8298820  36.9885510  18.2024700  53.2750430  37.6376800  16.9524050
  61.2855660  37.2111710  15.8968730  60.6864550  37.9347510  15.7132350
  61.8335270  37.1488490  15.1145180  56.4957110  38.1033920  27.9638350
  56.4000710  37.1628650  27.8138750  57.3389090  38.3248990  27.5686420
  59.8920530  35.8475250  17.9272010  60.2850100  36.1647450  17.1140700
  60.2537380  34.9687130  18.0416530  51.6267650  34.5147590  26.1172130
  51.2331040  35.3622800  26.3244910  50.9386050  33.8773960  26.3080770
  58.2012700  34.5982560  29.1868870  57.5111020  34.4054760  29.8214960
  58.9445000  34.8817200  29.7193170  48.9284700  32.4376050  20.1502210
  48.6397750  33.0078910  20.8627190  49.6730460  31.9580500  20.5133440
  49.1154930  36.3796170  11.3604930  49.0329600  37.3226930  11.5019920
  48.7637990  36.2371080  10.4817280  60.4775670  38.4381000  22.0222790
  59.7456790  38.9467810  22.3712890  60.0800010  37.6210980  21.7211570
  56.9153060  35.1135200  20.4275280  56.9189120  34.6725150  19.5779820
  57.8104180  35.4352530  20.5347100  52.7655440  34.9961690  19.3869490
  52.4255490  35.4736920  20.1436540  52.0032760  34.5426810  19.0270590
  56.9773210  36.1147280  13.4182040  57.0986030  36.0733760  14.3667860
  56.5921720  36.9771430  13.2628770  60.9401580  33.8914680  21.4345730
  60.9574320  34.3423330  22.2787580  60.6917160  32.9920320  21.6479170
  55.9894710  38.4248420  12.8165340  55.4211610  37.9766670  12.1901250
  56.6983710  38.7841200  12.2830490  64.3672330  31.3046860  27.2732110
  64.6918100  30.5736520  27.7990090  64.4028840  30.9860500  26.3713100
  51.0663890  42.3260440  26.6932070  50.6818680  41.6854110  27.2915030
  51.3776080  43.0296560  27.2626800  57.2161030  39.1736980  22.1740690
  57.5831160  38.6995550  22.9202030  57.0266090  40.0478550  22.5149030
  50.0801520  33.9180670  18.3034160  49.7948440  33.5536340  19.1412780
  50.0180380  33.1861130  17.6897300  55.0060400  38.2145620  24.4924900
  54.7017470  39.0937600  24.7175260  55.9606860  38.2745410  24.5282340
  53.5342190  42.4206610  15.0891750  52.7604450  41.8804230  14.9290470
  54.2636820  41.9013220  14.7509510  64.2930170  41.4171970  20.8818140
  65.0129290  41.9127260  20.4914250  64.0911990  40.7389860  20.2372010
  59.7540110  32.8109930  15.0247530  58.9404720  32.3123100  14.9492840
  59.5602060  33.6508180  14.6083880  59.6748970  41.4881030  26.7687140
  59.6086280  40.5676700  26.5144730  59.0454110  41.5856470  27.4831780
  62.4688500  37.1829580  13.3209690  63.3568120  37.4946810  13.1461030
  62.4393590  36.3101830  12.9290270  53.5779590  42.0886990  18.7270560
  54.0958260  41.2855250  18.6727450  53.1263610  42.0266130  19.5687390
  58.4649090  43.3553270  13.9997860  58.8064790  44.0995500  13.5041180
  57.6361800  43.6684390  14.3622690  51.0624130  39.0548360  25.6396260
  50.7039070  39.7202210  26.2269600  50.7678690  38.2231910  26.0108880
  54.2637250  39.5132600  28.5235810  53.9637390  39.6589780  27.6263630
  55.0348490  38.9537890  28.4309200  59.6065700  44.3101600  26.5190940
  59.6210240  43.3782560  26.3009850  58.8990800  44.3961360  27.1580710
  64.7402770  38.4941420  12.7889550  64.6566490  38.9255640  11.9385990
  65.4596960  38.9539770  13.2216370  65.7690020  45.3483680  15.5171680
  65.1266180  44.6939300  15.7915400  65.3820680  45.7538770  14.7412350
  61.3476500  42.6769110  19.3643370  61.7000320  42.0797240  18.7044740
  60.4638830  42.3513340  19.5351620  57.4339780  43.4366800  16.7713780
  58.1210910  43.9836010  17.1521370  56.6472200  43.9807530  16.8063390
  49.5732180  39.0539620  12.2630860  50.4427030  39.3364420  12.5466780
  49.0822500  39.8675490  12.1479670  56.7366990  40.4412830  16.3839140
  57.1929770  41.2518080  16.6099330  56.3855200  40.1235970  17.2157630
  59.0399600  45.9519170  23.6131440  59.6841820  46.1578550  24.2904860
  59.4029040  45.1907570  23.1602290  52.6378770  30.7850480  16.8561660
  52.5093400  30.7768380  17.8046580  51.8140790  31.1233570  16.5052670
  60.3131680  43.9551520  22.3308890  60.9553910  43.2544680  22.4441060
  60.8381030  44.7349960  22.1505780  64.1587400  44.2400140  12.0548030
  63.9324980  43.5230580  12.6472670  63.7683600  43.9912580  11.2169780
  49.9403430  48.2667000  12.8292490  50.3001070  48.8656340  12.1749760
  49.7995770  48.8126890  13.6027520  49.6372700  32.5441600  26.3168360
  48.9231220  32.7438520  26.9220970  50.0567740  31.7681170  26.6883160
  63.7403650  42.1572080  13.7162190  63.4525350  42.6184770  14.5040070
  64.5355820  41.6969850  13.9846410  49.9245290  46.5321860  27.3034890
  50.0336410  45.5916600  27.1630280  49.2725850  46.7976610  26.6548620
  57.9157880  44.8037750  28.7033010  57.5954750  44.0846990  29.2478700
  57.2416240  45.4792820  28.7769070  55.9572050  45.6498200  13.6466160
  55.9482150  46.3827890  13.0310670  55.0370410  45.4029780  13.7393120
  51.5578690  40.8713090  14.3912920  50.9506640  41.6111990  14.4008220
  52.0328040  40.9612450  13.5651120  61.1311480  35.0363910  24.0669810
  61.4992300  34.2159120  24.3949380  60.2709680  35.0965800  24.4825460
  64.4973510  33.9920850  14.8757370  63.8686670  34.0966520  14.1615600
  64.0025430  34.2117630  15.6651250  58.9431650  45.7126440  12.3091350
  59.0443630  45.5090430  11.3793330  58.0433390  45.4584720  12.5139130
  56.4657540  36.2706800  16.2915250  55.7573690  36.7393140  16.7328860
  56.7502020  35.6128810  16.9260440  58.0913470  37.6903500  24.2907780
  58.5898720  38.1649320  24.9559630  58.2336420  36.7667020  24.4977810
  60.4972970  32.9957460  17.7311040  60.3740750  33.0143590  16.7820550
  61.4457530  33.0436400  17.8509440  57.5849760  48.2312760  17.0039020
  57.8391260  48.1934150  16.0818390  56.6362240  48.1046090  16.9967270
  54.6692560  34.5791880  13.6665960  55.5183090  35.0162030  13.6006150
  54.3023830  34.8912140  14.4938020  65.2980330  33.9071460  25.1336170
  64.7953930  34.6476860  25.4729980  66.1136990  34.2955460  24.8172960
  63.5902340  39.1504640  18.5797530  62.6492480  39.1654870  18.7545220
  63.9046410  38.3640600  19.0257830  53.5683980  40.8324240  12.1401490
  54.3347250  40.7205600  12.7026920  53.6458670  40.1362210  11.4878260
  52.2630740  38.2649310  12.8234380  52.3434330  37.3176820  12.9351780
  53.1550490  38.5956190  12.9295040  65.5927920  46.3213490  20.2551790
  65.7175340  47.1444660  20.7275600  66.4593480  46.1104220  19.9075940
  53.0645450  48.4144700  19.9268920  53.8007930  47.8660160  20.1977490
  53.4486370  49.2800710  19.7874910  49.9490930  44.4818270  15.8010430
  49.0230710  44.7239410  15.7915840  50.4147360  45.3092530  15.6795180
  56.1747760  47.5875010  11.7494490  56.9676370  47.8763840  11.2976280
  55.6552110  47.1567180  11.0706970  60.9068360  43.7070640  29.0629910
  60.3006520  43.7302240  28.3225660  60.6022470  42.9753680  29.5997160
  62.3368730  47.4350930  27.6739320  63.2890480  47.3508950  27.6239560
  62.1896950  48.0992640  28.3473110  65.2277930  46.8145140  13.1731230
  64.9419440  46.4010280  12.3585410  65.0297480  47.7432850  13.0531750
  49.7901540  40.0864230  28.0590550  50.2940560  39.5071510  28.6306780
  49.0508960  40.3704460  28.5966920  56.6925160  42.8078420  11.6136840
  56.5875800  42.1930770  12.3398220  56.5249380  42.2844310  10.8299850
  56.8439480  41.4935220  27.5926070  56.0785150  42.0620220  27.5080740
  57.0255440  41.2011430  26.6994300  59.9327890  41.8698450  12.2178830
  59.3837990  42.3167750  12.8621570  60.5547150  41.3647700  12.7416500
  51.8224620  38.2293820  28.9540620  51.8629960  37.9307690  29.8625850
  52.6770120  38.6301430  28.7948140  55.6003010  40.8289370  14.1144130
  56.0219430  40.6629240  14.9575520  55.7253850  40.0189600  13.6199270
  53.7630430  36.8085920  26.9215110  53.2326890  36.3176870  26.2938450
  54.4318500  37.2370120  26.3873040  58.1130650  39.8526980  11.3621230
  58.6336310  39.1376000  10.9962380  58.7599050  40.4912850  11.6621740
  63.1330660  38.6151540  28.6895450  63.7151430  37.8603860  28.6015930
  63.3092430  39.1458980  27.9126930  54.2502730  33.7748290  27.0012400
  54.1559600  33.1569040  26.2763270  53.6700120  34.5014580  26.7742310
  57.0164170  32.3321530  24.0339790  56.5681470  32.3545790  23.1885340
  56.3829370  31.9340550  24.6310090  57.4223720  41.2275860  24.6552230
  57.8411830  42.0708590  24.4828470  56.5032350  41.3647900  24.4259010
  59.7587620  38.9592040  26.0390070  59.8783830  38.3633180  26.7784910
  60.6181620  38.9961730  25.6191370  62.0975520  39.5129230  24.6152580
  61.5710740  40.0371850  24.0117720  62.4406860  40.1456620  25.2462310
  54.4961910  36.9022600  11.0602290  54.2950970  36.0389960  11.4215630
  54.3253960  36.8155960  10.1223890  55.2731140  47.5328870  25.7709960
  54.7352230  48.2574930  25.4518660  55.5265100  47.0559210  24.9807300
  56.5256390  35.5013390  27.2965890  57.1156080  35.1929240  27.9843710
  55.7076630  35.0293140  27.4525790  61.3449820  35.1179200  27.5298910
  60.6565340  34.4560740  27.4648900  62.0655840  34.6717470  27.9747370
  61.9750220  31.7130830  13.5889170  62.2552510  30.8698730  13.9448590
  61.2015950  31.9453940  14.1027920  53.2944710  34.0023220  11.0480170
  53.5970610  34.0090650  10.1399320  54.0339300  33.6521080  11.5447830
  58.1293350  48.7680080  26.0296610  58.0552050  49.6715220  26.3368980
  57.2272190  48.4491980  26.0018680  56.5129640  32.9457840  12.0336370
  56.1651640  32.2681830  11.4538820  56.7142410  32.4847350  12.8479760
  58.6778680  47.9338590  13.6522970  59.5729470  48.2723560  13.6741730
  58.7096310  47.2118000  13.0247250  52.3174840  43.3065640  11.8809970
  52.7549710  43.8495310  12.5367550  52.8022570  42.4812590  11.8906310
  49.5320640  46.0954670  19.3330230  49.8623650  45.2275730  19.1008870
  49.9611640  46.3013190  20.1635190  54.1282560  44.4263680  16.9932200
  53.8278100  44.3028650  17.8936110  54.0220050  43.5672270  16.5847930
  50.0210850  46.9625260  22.0711860  49.5841840  47.1426060  22.9036010
  50.5888530  47.7199880  21.9293580  66.8974480  44.2060080  11.6958880
  66.0667440  44.2736730  12.1666110  67.0746310  45.0964200  11.3925740
  66.3530940  40.9507560  14.1993080  67.1149850  41.5204210  14.3052770
  66.3685310  40.3834760  14.9701390  49.8535280  39.4745490  18.4300740
  49.1984120  39.2057130  17.7860440  50.6913230  39.3649970  17.9802720
  67.3590910  41.8057660  19.0435010  67.7299740  41.0224980  18.6370980
  67.9992840  42.4946760  18.8652310  66.4050110  41.2441930  11.3565600
  66.6798950  42.1520810  11.2284820  66.2160850  41.1804460  12.2927590
  62.8025720  34.2686780  12.6519230  63.2210600  34.0817760  11.8115890
  62.4961780  33.4165830  12.9622160  66.3015450  39.1810920  16.3495030
  65.9259050  38.4138850  15.9176320  65.5718570  39.5633620  16.8369960
  50.8911210  39.8598060  22.9704080  51.2584250  39.7725460  23.8500100
  50.3222030  39.0964610  22.8710940  65.6915070  38.3282440  25.9834550
  65.4601160  38.0995190  25.0832500  65.9519620  39.2481990  25.9379440
  50.4427210  36.7707150  26.8762500  49.5483260  36.7373910  27.2156210
  50.9824760  36.9693940  27.6413750  64.1303140  33.5538870  28.7614250
  65.0073320  33.5622270  29.1448250  64.1423980  32.8169710  28.1506600
  49.0673360  36.6844420  14.3726070  48.1637440  36.9474620  14.1977730
  49.5513980  36.9555590  13.5926030  65.5766410  37.4068410  19.6502270
  66.1003890  36.9131060  19.0192440  66.1625830  37.5418770  20.3949840
  65.7556130  37.4908280  23.1721820  64.8058840  37.4571820  23.2866810
  65.9369140  38.4008390  22.9371590  51.6100570  35.7409960  12.2820450
  52.3192270  35.3193180  11.7967730  50.8940510  35.8085190  11.6503800
  51.2574730  31.7949290  11.3223100  51.9802860  32.3358230  11.6404320
  51.5299250  31.5212710  10.4464640  65.0666380  36.6641760  15.5894680
  65.5625500  36.4312630  16.3743560  64.8682450  35.8253600  15.1732320
  50.9466920  31.0455480  21.2245720  51.5943110  30.4952860  20.7840880
  51.3668760  31.2998630  22.0461530  66.4953540  35.3002710  18.1232360
  66.3852820  35.1458750  19.0614630  67.2561130  34.7723650  17.8807770
  64.8419260  31.2396840  24.5815360  65.4791480  31.8530980  24.9474550
  64.9894150  31.2757500  23.6364590  67.3843810  33.1310630  11.3638500
  68.3093120  32.9991810  11.1556790  67.3619600  33.2103450  12.3174950
  67.4582300  33.9021290  13.9895210  66.6633800  33.8366410  14.5188120
  67.6625580  34.8371930  13.9780560  64.4000720  47.9412840  17.9833600
  64.9959790  47.6197410  17.3068020  64.6578870  47.4684660  18.7746870
  50.6998920  31.2011150  23.9671040  50.3513740  31.6574970  24.7329220
  50.3686620  30.3068280  24.0493470  52.3063290  44.3730750  28.1324230
  52.2632920  44.0023660  29.0138690  52.4374300  45.3108320  28.2726050
  56.0069320  45.9290340  23.7333950  55.7660680  46.1964900  22.8464470
  56.9471960  46.0996070  23.7884810  58.2123740  32.3923030  27.4890460
  58.1512630  32.9844860  28.2385870  59.1524120  32.2848990  27.3440720
  60.8498300  32.0493090  27.1282750  61.4638710  32.3672380  26.4663830
  61.3947860  31.5641680  27.7478610  67.2673480  47.9484720  24.5344590
  66.7731760  48.3453590  23.8171720  66.6586770  47.3233930  24.9281870
  51.3719560  30.7287350  27.2421810  51.9202550  30.5475400  26.4787920
  51.4374870  29.9381460  27.7778120  52.1451320  47.3193000  25.2522010
  51.5511640  47.1877700  25.9912050  52.1375160  46.4831140  24.7864110
  61.5906340  30.6125230  23.4552040  60.7166180  30.9460340  23.2524970
  61.4817090  30.1398410  24.2803910  62.4978320  32.8196100  24.8393760
  62.1691680  32.0047860  24.4595490  63.4460620  32.7765910  24.7159450
  64.9512930  48.5908140  21.8131330  64.4915900  49.3423950  21.4389350
  64.3225390  47.8714610  21.7546130  51.7763550  44.6851380  24.2030050
  51.0497610  44.0656670  24.1356000  51.8372700  45.0791990  23.3328130
  55.3808650  46.8996380  20.9879460  55.8973670  46.2883740  20.4627720
  56.0306030  47.4025160  21.4790470  58.1204150  47.7904870  21.8148440
  58.4081960  47.5359170  20.9381450  58.6327370  47.2382230  22.4054010
  59.3381160  31.5295070  22.3944950  58.5552950  32.0040570  22.6741710
  59.0444090  30.6249900  22.2858130  63.8902230  32.2318170  20.4394040
  64.3310320  32.1763270  19.5915640  63.6209820  33.1476180  20.5104220
  65.7540800  31.8633410  18.4502860  65.6929200  30.9194630  18.3033880
  66.5332830  31.9713500  18.9956320  50.0593550  48.0025770  17.4126810
  49.8915590  47.3696450  18.1108700  49.1928060  48.2085170  17.0621000
  50.6821570  31.8342550  14.9158670  51.4400930  31.9471430  14.3422700
  50.2198740  32.6711750  14.8702100  57.2235380  33.9481820  17.9060980
  56.4109890  33.5738710  17.5656860  57.7277020  33.1926900  18.2082170
  61.7260360  30.6124270  19.1444050  62.3289730  31.1844480  19.6192570
  60.9853350  31.1763710  18.9217950  64.8694960  31.0145830  14.4184330
  65.0645590  31.9129280  14.6851760  64.0824830  30.7832910  14.9117280
  51.6656250  46.6959000  14.8576950  51.1403870  47.0767030  14.1538910
  51.5900830  47.3209770  15.5786660  53.0546720  32.3606600  13.4560640
  53.5839480  31.5736400  13.3268590  53.6875040  33.0397790  13.6896170
  55.2484560  32.0981740  16.5106030  54.6187300  31.3969050  16.6776160
  54.7089700  32.8585870  16.2939190  58.1876510  48.7120970  29.1816640
  59.1143820  48.4765240  29.2252600  58.1726940  49.5392970  28.7002670
  66.4221570  48.2546540  16.1790890  66.5973760  47.5684280  15.5351810
  65.7243140  48.7793590  15.7867560  55.3740120  31.3765720  28.9458520
  55.0924390  31.8799320  28.1819340  55.7559820  30.5787470  28.5800650
  54.2649220  48.6441380  13.7326200  54.9968040  48.3600660  13.1850090
  54.5242890  48.4054660  14.6225580  53.4264010  44.7606110  13.7372530
  52.7972890  45.2291210  14.2858360  53.5411840  43.9155330  14.1718720
  64.7554070  47.9390830  29.0057680  65.5479390  47.4440060  28.7983640
  65.0487220  48.6180970  29.6133290  59.0131770  40.5890790   1.7683000
  58.2373870  40.1091230   2.0581570  59.6644700  39.9096440   1.5939160
  53.0297600  40.9010600   2.6458760  52.1982480  40.6459310   3.0455270
  53.6378580  40.9721370   3.3816680  53.0098860  44.9350690   2.8416780
  53.3126900  44.0448430   2.6627000  53.7542450  45.4920910   2.6139030
  58.4540760  43.2647980   1.7753160  58.3849040  42.3237920   1.6142290
  59.2160620  43.3549390   2.3475730  50.6447430  33.8702500   4.1009780
  50.4650270  32.9728250   4.3812540  50.2427510  34.4174370   4.7756730
  51.2634100  36.3663000   2.7092120  51.9444210  36.6301370   3.3279520
  50.9482150  35.5263870   3.0430130  55.4558670  37.4130360   1.7964710
  55.9636890  37.9111330   2.4369730  55.9871910  36.6365560   1.6204070
  67.5569600  35.5835550   5.4994060  66.8521770  35.9717260   4.9809170
  67.8227520  36.2785840   6.1014990  53.7394770  32.0528920   6.0628130
  53.7413210  32.5701310   5.2574030  52.9099080  31.5759100   6.0398060
  54.9897620  41.6924100   4.2401630  54.6567000  42.3193020   4.8822700
  55.1664300  42.2185980   3.4603300  53.4210100  33.7638880   4.0698580
  53.7626910  34.6080930   3.7752450  52.4825910  33.9122620   4.1863920
  54.2016720  43.6604900   6.0550810  54.8190720  44.3355980   5.7735260
  53.3409840  44.0692880   5.9638310  65.1194310  45.1244310   3.9705450
  64.4357830  45.7943420   3.9622120  65.6588600  45.3224960   3.2050310
  66.5718450  34.9523970   2.0987180  65.6243360  34.9862950   2.2302610
  66.8968440  35.7662920   2.4836540  62.6553050  46.9688440   2.6850630
  62.6680210  46.5650730   1.8172890  62.1028270  47.7435730   2.5812060
  62.0538490  41.8718280   4.0133240  62.4707280  41.6578390   3.1786700
  62.7778310  42.1291070   4.5841860  66.0000590  40.2705500   4.1049480
  65.1719220  40.3398590   3.6299610  66.5951070  40.8559810   3.6365310
  62.9642600  37.0574820   5.0504350  62.5513780  37.8828530   5.3044340
  62.2318550  36.4719860   4.8580710  53.8104010  36.6177930   3.6922060
  54.3618600  36.7273270   2.9175310  54.3247520  36.9915530   4.4077290
  63.6542700  47.1034150   5.7385330  63.1773260  47.9106340   5.5457940
  62.9704490  46.4512480   5.8911540  54.6575520  43.2683970   8.7270030
  53.7604050  43.4923940   8.9743430  54.6828390  43.3918910   7.7781430
  53.4846740  40.1397290   7.3027400  53.3454510  41.0120090   7.6714800
  52.6028100  39.7970100   7.1575340  55.2827090  46.0818990   9.5112550
  55.2542520  46.4861940   8.6440980  55.1192060  45.1529350   9.3484150
  67.2341910  46.8646090  10.8076720  67.7101630  47.3428980  11.4865800
  67.8549070  46.7963580  10.0822220  49.4365390  41.9094840   3.2198310
  49.5145810  42.0443610   2.2754030  50.0507070  41.2010730   3.4126430
  66.6375160  44.0558940   7.9676730  66.7638220  43.8170820   7.0493910
  66.6796540  43.2243480   8.4398810  60.4991900  47.7586940   6.5371540
  61.0136570  47.6694950   7.3393970  59.6560980  48.1046640   6.8299450
  66.4899170  36.1091400   8.9326470  65.8743440  36.6171070   8.4041930
  66.1695590  35.2089730   8.8752410  49.4924910  42.9509010   5.7592770
  49.6555950  42.4814370   4.9412140  49.9577360  42.4432570   6.4241610
  58.5513490  34.9483290   6.3988660  58.0892860  35.1566310   7.2108600
  58.1491600  34.1342640   6.0959330  63.5518000  36.1692240   7.5285320
  62.7011590  35.8697990   7.8494390  63.3919790  36.4134250   6.6169140
  60.6467710  37.6693990   9.6284110  60.9721120  36.8357740   9.2886340
  61.4348040  38.1922510   9.7762440  56.3019580  32.6262100   2.6542940
  56.5991910  33.5324930   2.5734960  56.8505140  32.1380880   2.0402510
  56.4957110  38.1033920   9.1894860  56.4000710  37.1628650   9.0395260
  57.3389090  38.3248990   8.7942930  51.6267650  34.5147590   7.3428640
  51.2331040  35.3622800   7.5501420  50.9386050  33.8773960   7.5337280
  58.2012700  34.5982560  10.4125380  57.5111020  34.4054760  11.0471470
  58.9445000  34.8817200  10.9449680  60.4775670  38.4381000   3.2479300
  59.7456790  38.9467810   3.5969400  60.0800010  37.6210980   2.9468080
  60.9401580  33.8914680   2.6602240  60.9574320  34.3423330   3.5044090
  60.6917160  32.9920320   2.8735680  64.3672330  31.3046860   8.4988620
  64.6918100  30.5736520   9.0246600  64.4028840  30.9860500   7.5969610
  51.0663890  42.3260440   7.9188580  50.6818680  41.6854110   8.5171540
  51.3776080  43.0296560   8.4883310  57.2161030  39.1736980   3.3997200
  57.5831160  38.6995550   4.1458540  57.0266090  40.0478550   3.7405540
  55.0060400  38.2145620   5.7181410  54.7017470  39.0937600   5.9431770
  55.9606860  38.2745410   5.7538850  64.2930170  41.4171970   2.1074650
  65.0129290  41.9127260   1.7170760  64.0911990  40.7389860   1.4628520
  59.6748970  41.4881030   7.9943650  59.6086280  40.5676700   7.7401240
  59.0454110  41.5856470   8.7088290  51.0624130  39.0548360   6.8652770
  50.7039070  39.7202210   7.4526110  50.7678690  38.2231910   7.2365390
  54.2637250  39.5132600   9.7492320  53.9637390  39.6589780   8.8520140
  55.0348490  38.9537890   9.6565710  59.6065700  44.3101600   7.7447450
  59.6210240  43.3782560   7.5266360  58.8990800  44.3961360   8.3837220
  65.8176910  40.9508940   7.0916030  65.0925100  41.5437720   6.8945420
  66.3452370  40.9432480   6.2929400  59.0399600  45.9519170   4.8387950
  59.6841820  46.1578550   5.5161370  59.4029040  45.1907570   4.3858800
  60.3131680  43.9551520   3.5565400  60.9553910  43.2544680   3.6697570
  60.8381030  44.7349960   3.3762290  62.0869300  44.7546420   6.7601460
  62.4225540  45.3413110   7.4379380  61.1669640  44.6239130   6.9899250
  49.6372700  32.5441600   7.5424870  48.9231220  32.7438520   8.1477480
  50.0567740  31.7681170   7.9139670  49.9245290  46.5321860   8.5291400
  50.0336410  45.5916600   8.3886790  49.2725850  46.7976610   7.8805130
  57.9157880  44.8037750   9.9289520  57.5954750  44.0846990  10.4735210
  57.2416240  45.4792820  10.0025580  61.1311480  35.0363910   5.2926320
  61.4992300  34.2159120   5.6205890  60.2709680  35.0965800   5.7081970
  58.0913470  37.6903500   5.5164290  58.5898720  38.1649320   6.1816140
  58.2336420  36.7667020   5.7234320  65.2980330  33.9071460   6.3592680
  64.7953930  34.6476860   6.6986490  66.1136990  34.2955460   6.0429470
  52.0703730  47.5990770  10.3411010  52.8716460  47.9202820  10.7546410
  51.5555550  47.2386350  11.0630920  60.9068360  43.7070640  10.2886420
  60.3006520  43.7302240   9.5482170  60.6022470  42.9753680  10.8253670
  62.3368730  47.4350930   8.8995830  63.2890480  47.3508950   8.8496070
  62.1896950  48.0992640   9.5729620  49.7901540  40.0864230   9.2847060
  50.2940560  39.5071510   9.8563290  49.0508960  40.3704460   9.8223430
  56.8439480  41.4935220   8.8182580  56.0785150  42.0620220   8.7337250
  57.0255440  41.2011430   7.9250810  63.9862830  43.2240550   9.3757600
  64.7272300  43.5616310   8.8725060  63.2235510  43.3932610   8.8227370
  51.8224620  38.2293820  10.1797130  51.8629960  37.9307690  11.0882360
  52.6770120  38.6301430  10.0204650  53.7630430  36.8085920   8.1471620
  53.2326890  36.3176870   7.5194960  54.4318500  37.2370120   7.6129550
  62.6608490  41.2755380   7.9112810  63.0749510  41.4300460   8.7603230
  61.7259490  41.4010600   8.0738590  63.1330660  38.6151540   9.9151960
  63.7151430  37.8603860   9.8272440  63.3092430  39.1458980   9.1383440
  54.2502730  33.7748290   8.2268910  54.1559600  33.1569040   7.5019780
  53.6700120  34.5014580   7.9998820  57.0164170  32.3321530   5.2596300
  56.5681470  32.3545790   4.4141850  56.3829370  31.9340550   5.8566600
  57.4223720  41.2275860   5.8808740  57.8411830  42.0708590   5.7084980
  56.5032350  41.3647900   5.6515520  59.7587620  38.9592040   7.2646580
  59.8783830  38.3633180   8.0041420  60.6181620  38.9961730   6.8447880
  62.0975520  39.5129230   5.8409090  61.5710740  40.0371850   5.2374230
  62.4406860  40.1456620   6.4718820  55.2731140  47.5328870   6.9966470
  54.7352230  48.2574930   6.6775170  55.5265100  47.0559210   6.2063810
  56.5256390  35.5013390   8.5222400  57.1156080  35.1929240   9.2100220
  55.7076630  35.0293140   8.6782300  61.3449820  35.1179200   8.7555420
  60.6565340  34.4560740   8.6905410  62.0655840  34.6717470   9.2003880
  58.1293350  48.7680080   7.2553120  58.0552050  49.6715220   7.5625490
  57.2272190  48.4491980   7.2275190  50.0210850  46.9625260   3.2968370
  49.5841840  47.1426060   4.1292520  50.5888530  47.7199880   3.1550090
  65.6573030  46.4642260   7.5845680  65.0575020  46.5234820   6.8409600
  65.7866930  45.5247240   7.7142530  64.3424670  43.1894240   5.6821840
  63.5284510  43.6191400   5.9447630  64.7498870  43.8012650   5.0690890
  50.8911210  39.8598060   4.1960590  51.2584250  39.7725460   5.0756610
  50.3222030  39.0964610   4.0967450  65.6915070  38.3282440   7.2091060
  65.4601160  38.0995190   6.3089010  65.9519620  39.2481990   7.1635950
  50.4427210  36.7707150   8.1019010  49.5483260  36.7373910   8.4412720
  50.9824760  36.9693940   8.8670260  64.1303140  33.5538870   9.9870760
  65.0073320  33.5622270  10.3704760  64.1423980  32.8169710   9.3763110
  65.7556130  37.4908280   4.3978330  64.8058840  37.4571820   4.5123320
  65.9369140  38.4008390   4.1628100  50.9466920  31.0455480   2.4502230
  51.5943110  30.4952860   2.0097390  51.3668760  31.2998630   3.2718040
  64.8419260  31.2396840   5.8071870  65.4791480  31.8530980   6.1731060
  64.9894150  31.2757500   4.8621100  50.6998920  31.2011150   5.1927550
  50.3513740  31.6574970   5.9585730  50.3686620  30.3068280   5.2749980
  52.3063290  44.3730750   9.3580740  52.2632920  44.0023660  10.2395200
  52.4374300  45.3108320   9.4982560  56.0069320  45.9290340   4.9590460
  55.7660680  46.1964900   4.0720980  56.9471960  46.0996070   5.0141320
  58.2123740  32.3923030   8.7146970  58.1512630  32.9844860   9.4642380
  59.1524120  32.2848990   8.5697230  60.8498300  32.0493090   8.3539260
  61.4638710  32.3672380   7.6920340  61.3947860  31.5641680   8.9735120
  67.2673480  47.9484720   5.7601100  66.7731760  48.3453590   5.0428230
  66.6586770  47.3233930   6.1538380  51.3719560  30.7287350   8.4678320
  51.9202550  30.5475400   7.7044430  51.4374870  29.9381460   9.0034630
  52.1451320  47.3193000   6.4778520  51.5511640  47.1877700   7.2168560
  52.1375160  46.4831140   6.0120620  61.5906340  30.6125230   4.6808550
  60.7166180  30.9460340   4.4781480  61.4817090  30.1398410   5.5060420
  62.4978320  32.8196100   6.0650270  62.1691680  32.0047860   5.6852000
  63.4460620  32.7765910   5.9415960  64.9512930  48.5908140   3.0387840
  64.4915900  49.3423950   2.6645860  64.3225390  47.8714610   2.9802640
  51.7763550  44.6851380   5.4286560  51.0497610  44.0656670   5.3612510
  51.8372700  45.0791990   4.5584640  55.3808650  46.8996380   2.2135970
  55.8973670  46.2883740   1.6884230  56.0306030  47.4025160   2.7046980
  58.1204150  47.7904870   3.0404950  58.4081960  47.5359170   2.1637960
  58.6327370  47.2382230   3.6310520  59.3381160  31.5295070   3.6201460
  58.5552950  32.0040570   3.8998220  59.0444090  30.6249900   3.5114640
  58.1876510  48.7120970  10.4073150  59.1143820  48.4765240  10.4509110
  58.1726940  49.5392970   9.9259180  55.3740120  31.3765720  10.1715030
  55.0924390  31.8799320   9.4075850  55.7559820  30.5787470   9.8057160
  61.9755580  30.7919300  10.7495500  61.8621030  31.1113910  11.6447020
  62.7925320  31.1931810  10.4532780  64.7554070  47.9390830  10.2314190
  65.5479390  47.4440060  10.0240150  65.0487220  48.6180970  10.8389800
  60.8813730  20.0368280 150.0821650  60.8007780  19.1222890 149.8113360
  60.4678150  20.5335350 149.3761360  63.0339200  26.2207490 150.7430050
  62.5720730  25.4494730 151.0717220  63.8464750  26.2473560 151.2482500
  51.4389550  17.0869000 146.6249070  50.5506250  17.4284970 146.5228950
  51.7230740  16.8869320 145.7329900  59.2602510  28.5065500 150.3634040
  58.6413950  28.9623000 149.7928480  60.1154290  28.6616960 149.9623740
  53.6150940  15.6700500 147.6587450  53.7217690  16.5704230 147.9656210
  52.7043300  15.6218470 147.3682100  63.2670050  14.7925310 149.1298350
  64.0879670  14.3021880 149.1723830  63.3004130  15.3822970 149.8830190
  60.1265860  23.3904740 147.7565950  59.5083130  23.8554190 147.1928670
  60.6389110  24.0832220 148.1735460  49.4949060  24.0761270 145.1305580
  49.1177040  24.5648370 144.3990480  49.7522130  24.7486550 145.7612110
  57.1037990  12.4777660 150.5891090  57.4112970  11.9224550 149.8726590
  56.1738690  12.6122120 150.4064080  63.9498470  24.9161170 147.9688720
  63.8394800  23.9735500 148.0938140  63.9466720  25.2776810 148.8551480
  59.4918750  20.5426490 147.3251210  58.5648030  20.4763870 147.5539680
  59.6443570  21.4806620 147.2106450  59.4787830  16.8143490 144.3218370
  58.5391500  16.9757450 144.4070830  59.7971090  17.5329170 143.7754360
  63.5216040  22.1046790 147.8286460  62.9028460  21.7666340 147.1812760
  63.5040490  21.4606550 148.5365650  55.0975390  21.0691230 150.1070940
  54.6932390  20.3568480 149.6116840  55.1838510  20.7244470 150.9958980
  61.6980740  21.3433600 144.8359210  62.1374020  20.5056030 144.6897030
  62.4109160  21.9763000 144.9223350  59.8076120  26.2829670 148.8040450
  60.2472030  27.0254000 148.3895840  59.7463010  26.5256240 149.7279410
  65.2797880  12.5976410 143.1500250  64.9670540  12.6903240 144.0499320
  66.0410350  13.1757440 143.0997680  51.7980020  19.9636210 147.6077590
  51.6777620  20.6898300 146.9958860  51.4880910  19.1939120 147.1305500
  50.6813020  24.8351540 149.8252410  50.2741100  24.9766130 148.9706010
  51.5726030  24.5511700 149.6223620  62.4746300  29.2698790 146.1603460
  62.3147440  28.9801730 147.0585290  62.3093010  28.4938920 145.6248690
  54.9534680  29.0497320 147.9375080  54.7777160  28.1332860 147.7242880
  54.0990420  29.4084610 148.1772880  62.1772430  26.7786350 144.7201460
  61.4837590  26.7763640 144.0603740  62.9195290  26.3545670 144.2895630
  61.7422360  28.4049060 148.7949950  62.1979310  27.6238440 149.1088570
  62.0814880  29.1155880 149.3391130  54.2643680  13.3071280 150.9901260
  53.8211830  14.0880820 150.6585780  54.8228670  13.6301170 151.6972200
  57.3802500  12.9281980 145.8707090  56.7556680  12.9241850 146.5960400
  57.2932620  12.0612940 145.4743060  54.0557900  18.4304850 148.7182510
  53.8298820  18.2142020 149.6229130  53.2750430  18.8633310 148.3728480
  61.2855660  18.4368220 147.3173160  60.6864550  19.1604020 147.1336780
  61.8335270  18.3745000 146.5349610  59.8920530  17.0731760 149.3476440
  60.2850100  17.3903960 148.5345130  60.2537380  16.1943640 149.4620960
  49.1154930  17.6052680 142.7809360  49.0329600  18.5483440 142.9224350
  48.7637990  17.4627590 141.9021710  52.7655440  16.2218200 150.8073920
  52.4255490  16.6993430 151.5640970  52.0032760  15.7683320 150.4475020
  56.9773210  17.3403790 144.8386470  57.0986030  17.2990270 145.7872290
  56.5921720  18.2027940 144.6833200  55.9894710  19.6504930 144.2369770
  55.4211610  19.2023180 143.6105680  56.6983710  20.0097710 143.7034920
  50.0801520  15.1437180 149.7238590  49.7948440  14.7792850 150.5617210
  50.0180380  14.4117640 149.1101730  53.5342190  23.6463120 146.5096180
  52.7604450  23.1060740 146.3494900  54.2636820  23.1269730 146.1713940
  59.7540110  14.0366440 146.4451960  58.9404720  13.5379610 146.3697270
  59.5602060  14.8764690 146.0288310  62.4688500  18.4086090 144.7414120
  63.3568120  18.7203320 144.5665460  62.4393590  17.5358340 144.3494700
  53.5779590  23.3143500 150.1474990  54.0958260  22.5111760 150.0931880
  53.1263610  23.2522640 150.9891820  58.4649090  24.5809780 145.4202290
  58.8064790  25.3252010 144.9245610  57.6361800  24.8940900 145.7827120
  64.7402770  19.7197930 144.2093980  64.6566490  20.1512150 143.3590420
  65.4596960  20.1796280 144.6420800  65.7690020  26.5740190 146.9376110
  65.1266180  25.9195810 147.2119830  65.3820680  26.9795280 146.1616780
  61.3476500  23.9025620 150.7847800  61.7000320  23.3053750 150.1249170
  60.4638830  23.5769850 150.9556050  57.4339780  24.6623310 148.1918210
  58.1210910  25.2092520 148.5725800  56.6472200  25.2064040 148.2267820
  49.5732180  20.2796130 143.6835290  50.4427030  20.5620930 143.9671210
  49.0822500  21.0932000 143.5684100  56.7366990  21.6669340 147.8043570
  57.1929770  22.4774590 148.0303760  56.3855200  21.3492480 148.6362060
  52.6378770  12.0106990 148.2766090  52.5093400  12.0024890 149.2251010
  51.8140790  12.3490080 147.9257100  64.1587400  25.4656650 143.4752460
  63.9324980  24.7487090 144.0677100  63.7683600  25.2169090 142.6374210
  49.9403430  29.4923510 144.2496920  50.3001070  30.0912850 143.5954190
  49.7995770  30.0383400 145.0231950  63.7403650  23.3828590 145.1366620
  63.4525350  23.8441280 145.9244500  64.5355820  22.9226360 145.4050840
  55.9572050  26.8754710 145.0670590  55.9482150  27.6084400 144.4515100
  55.0370410  26.6286290 145.1597550  51.5578690  22.0969600 145.8117350
  50.9506640  22.8368500 145.8212650  52.0328040  22.1868960 144.9855550
  64.4973510  15.2177360 146.2961800  63.8686670  15.3223030 145.5820030
  64.0025430  15.4374140 147.0855680  58.9431650  26.9382950 143.7295780
  59.0443630  26.7346940 142.7997760  58.0433390  26.6841230 143.9343560
  56.4657540  17.4963310 147.7119680  55.7573690  17.9649650 148.1533290
  56.7502020  16.8385320 148.3464870  60.4972970  14.2213970 149.1515470
  60.3740750  14.2400100 148.2024980  61.4457530  14.2692910 149.2713870
  57.5849760  29.4569270 148.4243450  57.8391260  29.4190660 147.5022820
  56.6362240  29.3302600 148.4171700  54.6692560  15.8048390 145.0870390
  55.5183090  16.2418540 145.0210580  54.3023830  16.1168650 145.9142450
  63.5902340  20.3761150 150.0001960  62.6492480  20.3911380 150.1749650
  63.9046410  19.5897110 150.4462260  53.5683980  22.0580750 143.5605920
  54.3347250  21.9462110 144.1231350  53.6458670  21.3618720 142.9082690
  52.2630740  19.4905820 144.2438810  52.3434330  18.5433330 144.3556210
  53.1550490  19.8212700 144.3499470  53.0645450  29.6401210 151.3473350
  53.8007930  29.0916670 151.6181920  53.4486370  30.5057220 151.2079340
  49.9490930  25.7074780 147.2214860  49.0230710  25.9495920 147.2120270
  50.4147360  26.5349040 147.0999610  56.1747760  28.8131520 143.1698920
  56.9676370  29.1020350 142.7180710  55.6552110  28.3823690 142.4911400
  65.2277930  28.0401650 144.5935660  64.9419440  27.6266790 143.7789840
  65.0297480  28.9689360 144.4736180  56.6925160  24.0334930 143.0341270
  56.5875800  23.4187280 143.7602650  56.5249380  23.5100820 142.2504280
  59.9327890  23.0954960 143.6383260  59.3837990  23.5424260 144.2826000
  60.5547150  22.5904210 144.1620930  55.6003010  22.0545880 145.5348560
  56.0219430  21.8885750 146.3779950  55.7253850  21.2446110 145.0403700
  58.1130650  21.0783490 142.7825660  58.6336310  20.3632510 142.4166810
  58.7599050  21.7169360 143.0826170  54.4961910  18.1279110 142.4806720
  54.2950970  17.2646470 142.8420060  54.3253960  18.0412470 141.5428320
  61.9750220  12.9387340 145.0093600  62.2552510  12.0955240 145.3653020
  61.2015950  13.1710450 145.5232350  53.2944710  15.2279730 142.4684600
  53.5970610  15.2347160 141.5603750  54.0339300  14.8777590 142.9652260
  56.5129640  14.1714350 143.4540800  56.1651640  13.4938340 142.8743250
  56.7142410  13.7103860 144.2684190  58.6778680  29.1595100 145.0727400
  59.5729470  29.4980070 145.0946160  58.7096310  28.4374510 144.4451680
  52.3174840  24.5322150 143.3014400  52.7549710  25.0751820 143.9571980
  52.8022570  23.7069100 143.3110740  49.5320640  27.3211180 150.7534660
  49.8623650  26.4532240 150.5213300  49.9611640  27.5269700 151.5839620
  54.1282560  25.6520190 148.4136630  53.8278100  25.5285160 149.3140540
  54.0220050  24.7928780 148.0052360  66.8974480  25.4316590 143.1163310
  66.0667440  25.4993240 143.5870540  67.0746310  26.3220710 142.8130170
  66.3530940  22.1764070 145.6197510  67.1149850  22.7460720 145.7257200
  66.3685310  21.6091270 146.3905820  49.8535280  20.7002000 149.8505170
  49.1984120  20.4313640 149.2064870  50.6913230  20.5906480 149.4007150
  67.3590910  23.0314170 150.4639440  67.7299740  22.2481490 150.0575410
  67.9992840  23.7203270 150.2856740  66.4050110  22.4698440 142.7770030
  66.6798950  23.3777320 142.6489250  66.2160850  22.4060970 143.7132020
  62.8025720  15.4943290 144.0723660  63.2210600  15.3074270 143.2320320
  62.4961780  14.6422340 144.3826590  66.3015450  20.4067430 147.7699460
  65.9259050  19.6395360 147.3380750  65.5718570  20.7890130 148.2574390
  49.0673360  17.9100930 145.7930500  48.1637440  18.1731130 145.6182160
  49.5513980  18.1812100 145.0130460  51.6100570  16.9666470 143.7024880
  52.3192270  16.5449690 143.2172160  50.8940510  17.0341700 143.0708230
  51.2574730  13.0205800 142.7427530  51.9802860  13.5614740 143.0608750
  51.5299250  12.7469220 141.8669070  65.0666380  17.8898270 147.0099110
  65.5625500  17.6569140 147.7947990  64.8682450  17.0510110 146.5936750
  66.4953540  16.5259220 149.5436790  66.3852820  16.3715260 150.4819060
  67.2561130  15.9980160 149.3012200  67.3843810  14.3567140 142.7842930
  68.3093120  14.2248320 142.5761220  67.3619600  14.4359960 143.7379380
  67.4582300  15.1277800 145.4099640  66.6633800  15.0622920 145.9392550
  67.6625580  16.0628440 145.3984990  64.4000720  29.1669350 149.4038030
  64.9959790  28.8453920 148.7272450  64.6578870  28.6941170 150.1951300
  65.7540800  13.0889920 149.8707290  65.6929200  12.1451140 149.7238310
  66.5332830  13.1970010 150.4160750  50.0593550  29.2282280 148.8331240
  49.8915590  28.5952960 149.5313130  49.1928060  29.4341680 148.4825430
  50.6821570  13.0599060 146.3363100  51.4400930  13.1727940 145.7627130
  50.2198740  13.8968260 146.2906530  57.2235380  15.1738330 149.3265410
  56.4109890  14.7995220 148.9861290  57.7277020  14.4183410 149.6286600
  61.7260360  11.8380780 150.5648480  62.3289730  12.4100990 151.0397000
  60.9853350  12.4020220 150.3422380  64.8694960  12.2402340 145.8388760
  65.0645590  13.1385790 146.1056190  64.0824830  12.0089420 146.3321710
  51.6656250  27.9215510 146.2781380  51.1403870  28.3023540 145.5743340
  51.5900830  28.5466280 146.9991090  53.0546720  13.5863110 144.8765070
  53.5839480  12.7992910 144.7473020  53.6875040  14.2654300 145.1100600
  55.2484560  13.3238250 147.9310460  54.6187300  12.6225560 148.0980590
  54.7089700  14.0842380 147.7143620  66.4221570  29.4803050 147.5995320
  66.5973760  28.7940790 146.9556240  65.7243140  30.0050100 147.2071990
  54.2649220  29.8697890 145.1530630  54.9968040  29.5857170 144.6054520
  54.5242890  29.6311170 146.0430010  53.4264010  25.9862620 145.1576960
  52.7972890  26.4547720 145.7062790  53.5411840  25.1411840 145.5923150
  60.8813730  20.0368280 131.3078160  60.8007780  19.1222890 131.0369870
  60.4678150  20.5335350 130.6017870  59.0131770  21.8147300 133.1887430
  58.2373870  21.3347740 133.4786000  59.6644700  21.1352950 133.0143590
  53.0297600  22.1267110 134.0663190  52.1982480  21.8715820 134.4659700
  53.6378580  22.1977880 134.8021110  63.0339200  26.2207490 131.9686560
  62.5720730  25.4494730 132.2973730  63.8464750  26.2473560 132.4739010
  53.0098860  26.1607200 134.2621210  53.3126900  25.2704940 134.0831430
  53.7542450  26.7177420 134.0343460  51.4389550  17.0869000 127.8505580
  50.5506250  17.4284970 127.7485460  51.7230740  16.8869320 126.9586410
  49.4022560  19.6874650 133.7345280  49.9738670  18.9196850 133.7348920
  49.4024100  19.9863410 132.8251890  59.2602510  28.5065500 131.5890550
  58.6413950  28.9623000 131.0184990  60.1154290  28.6616960 131.1880250
  58.4540760  24.4904490 133.1957590  58.3849040  23.5494430 133.0346720
  59.2160620  24.5805900 133.7680160  50.6447430  15.0959010 135.5214210
  50.4650270  14.1984760 135.8016970  50.2427510  15.6430880 136.1961160
  59.4845930  17.2974870 133.4226520  59.8610750  16.4246750 133.3100190
  59.3865440  17.6333570 132.5316960  53.6150940  15.6700500 128.8843960
  53.7217690  16.5704230 129.1912720  52.7043300  15.6218470 128.5938610
  63.2670050  14.7925310 130.3554860  64.0879670  14.3021880 130.3980340
  63.3004130  15.3822970 131.1086700  51.2634100  17.5919510 134.1296550
  51.9444210  17.8557880 134.7483950  50.9482150  16.7520380 134.4634560
  55.4558670  18.6386870 133.2169140  55.9636890  19.1367840 133.8574160
  55.9871910  17.8622070 133.0408500  67.5569600  16.8092060 136.9198490
  66.8521770  17.1973770 136.4013600  67.8227520  17.5042350 137.5219420
  53.7394770  13.2785430 137.4832560  53.7413210  13.7957820 136.6778460
  52.9099080  12.8015610 137.4602490  60.1265860  23.3904740 128.9822460
  59.5083130  23.8554190 128.4185180  60.6389110  24.0832220 129.3991970
  54.9897620  22.9180610 135.6606060  54.6567000  23.5449530 136.3027130
  55.1664300  23.4442490 134.8807730  63.5031530  16.7325690 133.1282400
  62.7987100  17.0210580 133.7085510  63.8643690  17.5425800 132.7681960
  53.4210100  14.9895390 135.4903010  53.7626910  15.8337440 135.1956880
  52.4825910  15.1379130 135.6068350  54.2016720  24.8861410 137.4755240
  54.8190720  25.5612490 137.1939690  53.3409840  25.2949390 137.3842740
  49.4949060  24.0761270 126.3562090  49.1177040  24.5648370 125.6246990
  49.7522130  24.7486550 126.9868620  65.1194310  26.3500820 135.3909880
  64.4357830  27.0199930 135.3826550  65.6588600  26.5481470 134.6254740
  66.5718450  16.1780480 133.5191610  65.6243360  16.2119460 133.6507040
  66.8968440  16.9919430 133.9040970  57.1037990  12.4777660 131.8147600
  57.4112970  11.9224550 131.0983100  56.1738690  12.6122120 131.6320590
  62.6553050  28.1944950 134.1055060  62.6680210  27.7907240 133.2377320
  62.1028270  28.9692240 134.0016490  63.9498470  24.9161170 129.1945230
  63.8394800  23.9735500 129.3194650  63.9466720  25.2776810 130.0807990
  62.0538490  23.0974790 135.4337670  62.4707280  22.8834900 134.5991130
  62.7778310  23.3547580 136.0046290  59.4918750  20.5426490 128.5507720
  58.5648030  20.4763870 128.7796190  59.6443570  21.4806620 128.4362960
  59.4787830  16.8143490 125.5474880  58.5391500  16.9757450 125.6327340
  59.7971090  17.5329170 125.0010870  66.0000590  21.4962010 135.5253910
  65.1719220  21.5655100 135.0504040  66.5951070  22.0816320 135.0569740
  63.5216040  22.1046790 129.0542970  62.9028460  21.7666340 128.4069270
  63.5040490  21.4606550 129.7622160  62.9642600  18.2831330 136.4708780
  62.5513780  19.1085040 136.7248770  62.2318550  17.6976370 136.2785140
  55.0975390  21.0691230 131.3327450  54.6932390  20.3568480 130.8373350
  55.1838510  20.7244470 132.2215490  55.5657090  24.7558790 133.4966660
  55.2685380  24.1504260 132.8174440  56.5156910  24.7936100 133.3856020
  53.8104010  17.8434440 135.1126490  54.3618600  17.9529780 134.3379740
  54.3247520  18.2172040 135.8281720  63.6542700  28.3290660 137.1589760
  63.1773260  29.1362850 136.9662370  62.9704490  27.6768990 137.3115970
  54.6575520  24.4940480 140.1474460  53.7604050  24.7180450 140.3947860
  54.6828390  24.6175420 139.1985860  61.6980740  21.3433600 126.0615720
  62.1374020  20.5056030 125.9153540  62.4109160  21.9763000 126.1479860
  53.4846740  21.3653800 138.7231830  53.3454510  22.2376600 139.0919230
  52.6028100  21.0226610 138.5779770  59.8076120  26.2829670 130.0296960
  60.2472030  27.0254000 129.6152350  59.7463010  26.5256240 130.9535920
  55.2827090  27.3075500 140.9316980  55.2542520  27.7118450 140.0645410
  55.1192060  26.3785860 140.7688580  65.2797880  12.5976410 124.3756760
  64.9670540  12.6903240 125.2755830  66.0410350  13.1757440 124.3254190
  51.7980020  19.9636210 128.8334100  51.6777620  20.6898300 128.2215370
  51.4880910  19.1939120 128.3562010  67.2341910  28.0902600 142.2281150
  67.7101630  28.5685490 142.9070230  67.8549070  28.0220090 141.5026650
  49.4365390  23.1351350 134.6402740  49.5145810  23.2700120 133.6958460
  50.0507070  22.4267240 134.8330860  50.6813020  24.8351540 131.0508920
  50.2741100  24.9766130 130.1962520  51.5726030  24.5511700 130.8480130
  66.6375160  25.2815450 139.3881160  66.7638220  25.0427330 138.4698340
  66.6796540  24.4499990 139.8603240  60.4991900  28.9843450 137.9575970
  61.0136570  28.8951460 138.7598400  59.6560980  29.3303150 138.2503880
  62.4746300  29.2698790 127.3859970  62.3147440  28.9801730 128.2841800
  62.3093010  28.4938920 126.8505200  54.9534680  29.0497320 129.1631590
  54.7777160  28.1332860 128.9499390  54.0990420  29.4084610 129.4029390
  62.1772430  26.7786350 125.9457970  61.4837590  26.7763640 125.2860250
  62.9195290  26.3545670 125.5152140  61.7422360  28.4049060 130.0206460
  62.1979310  27.6238440 130.3345080  62.0814880  29.1155880 130.5647640
  66.4899170  17.3347910 140.3530900  65.8743440  17.8427580 139.8246360
  66.1695590  16.4346240 140.2956840  49.4924910  24.1765520 137.1797200
  49.6555950  23.7070880 136.3616570  49.9577360  23.6689080 137.8446040
  54.2643680  13.3071280 132.2157770  53.8211830  14.0880820 131.8842290
  54.8228670  13.6301170 132.9228710  58.5513490  16.1739800 137.8193090
  58.0892860  16.3822820 138.6313030  58.1491600  15.3599150 137.5163760
  63.5518000  17.3948750 138.9489750  62.7011590  17.0954500 139.2698820
  63.3919790  17.6390760 138.0373570  60.6467710  18.8950500 141.0488540
  60.9721120  18.0614250 140.7090770  61.4348040  19.4179020 141.1966870
  57.3802500  12.9281980 127.0963600  56.7556680  12.9241850 127.8216910
  57.2932620  12.0612940 126.6999570  56.3019580  13.8518610 134.0747370
  56.5991910  14.7581440 133.9939390  56.8505140  13.3637390 133.4606940
  54.0557900  18.4304850 129.9439020  53.8298820  18.2142020 130.8485640
  53.2750430  18.8633310 129.5984990  61.2855660  18.4368220 128.5429670
  60.6864550  19.1604020 128.3593290  61.8335270  18.3745000 127.7606120
  56.4957110  19.3290430 140.6099290  56.4000710  18.3885160 140.4599690
  57.3389090  19.5505500 140.2147360  59.8920530  17.0731760 130.5732950
  60.2850100  17.3903960 129.7601640  60.2537380  16.1943640 130.6877470
  51.6267650  15.7404100 138.7633070  51.2331040  16.5879310 138.9705850
  50.9386050  15.1030470 138.9541710  58.2012700  15.8239070 141.8329810
  57.5111020  15.6311270 142.4675900  58.9445000  16.1073710 142.3654110
  48.9284700  13.6632560 132.7963150  48.6397750  14.2335420 133.5088130
  49.6730460  13.1837010 133.1594380  49.1154930  17.6052680 124.0065870
  49.0329600  18.5483440 124.1480860  48.7637990  17.4627590 123.1278220
  60.4775670  19.6637510 134.6683730  59.7456790  20.1724320 135.0173830
  60.0800010  18.8467490 134.3672510  56.9153060  16.3391710 133.0736220
  56.9189120  15.8981660 132.2240760  57.8104180  16.6609040 133.1808040
  52.7655440  16.2218200 132.0330430  52.4255490  16.6993430 132.7897480
  52.0032760  15.7683320 131.6731530  56.9773210  17.3403790 126.0642980
  57.0986030  17.2990270 127.0128800  56.5921720  18.2027940 125.9089710
  60.9401580  15.1171190 134.0806670  60.9574320  15.5679840 134.9248520
  60.6917160  14.2176830 134.2940110  55.9894710  19.6504930 125.4626280
  55.4211610  19.2023180 124.8362190  56.6983710  20.0097710 124.9291430
  64.3672330  12.5303370 139.9193050  64.6918100  11.7993030 140.4451030
  64.4028840  12.2117010 139.0174040  51.0663890  23.5516950 139.3393010
  50.6818680  22.9110620 139.9375970  51.3776080  24.2553070 139.9087740
  57.2161030  20.3993490 134.8201630  57.5831160  19.9252060 135.5662970
  57.0266090  21.2735060 135.1609970  50.0801520  15.1437180 130.9495100
  49.7948440  14.7792850 131.7873720  50.0180380  14.4117640 130.3358240
  55.0060400  19.4402130 137.1385840  54.7017470  20.3194110 137.3636200
  55.9606860  19.5001920 137.1743280  53.5342190  23.6463120 127.7352690
  52.7604450  23.1060740 127.5751410  54.2636820  23.1269730 127.3970450
  64.2930170  22.6428480 133.5279080  65.0129290  23.1383770 133.1375190
  64.0911990  21.9646370 132.8832950  59.7540110  14.0366440 127.6708470
  58.9404720  13.5379610 127.5953780  59.5602060  14.8764690 127.2544820
  59.6748970  22.7137540 139.4148080  59.6086280  21.7933210 139.1605670
  59.0454110  22.8112980 140.1292720  62.4688500  18.4086090 125.9670630
  63.3568120  18.7203320 125.7921970  62.4393590  17.5358340 125.5751210
  53.5779590  23.3143500 131.3731500  54.0958260  22.5111760 131.3188390
  53.1263610  23.2522640 132.2148330  58.4649090  24.5809780 126.6458800
  58.8064790  25.3252010 126.1502120  57.6361800  24.8940900 127.0083630
  51.0624130  20.2804870 138.2857200  50.7039070  20.9458720 138.8730540
  50.7678690  19.4488420 138.6569820  54.2637250  20.7389110 141.1696750
  53.9637390  20.8846290 140.2724570  55.0348490  20.1794400 141.0770140
  59.6065700  25.5358110 139.1651880  59.6210240  24.6039070 138.9470790
  58.8990800  25.6217870 139.8041650  64.7402770  19.7197930 125.4350490
  64.6566490  20.1512150 124.5846930  65.4596960  20.1796280 125.8677310
  65.8176910  22.1765450 138.5120460  65.0925100  22.7694230 138.3149850
  66.3452370  22.1688990 137.7133830  65.7690020  26.5740190 128.1632620
  65.1266180  25.9195810 128.4376340  65.3820680  26.9795280 127.3873290
  61.3476500  23.9025620 132.0104310  61.7000320  23.3053750 131.3505680
  60.4638830  23.5769850 132.1812560  57.4339780  24.6623310 129.4174720
  58.1210910  25.2092520 129.7982310  56.6472200  25.2064040 129.4524330
  49.5732180  20.2796130 124.9091800  50.4427030  20.5620930 125.1927720
  49.0822500  21.0932000 124.7940610  56.7366990  21.6669340 129.0300080
  57.1929770  22.4774590 129.2560270  56.3855200  21.3492480 129.8618570
  59.0399600  27.1775680 136.2592380  59.6841820  27.3835060 136.9365800
  59.4029040  26.4164080 135.8063230  52.6378770  12.0106990 129.5022600
  52.5093400  12.0024890 130.4507520  51.8140790  12.3490080 129.1513610
  60.3131680  25.1808030 134.9769830  60.9553910  24.4801190 135.0902000
  60.8381030  25.9606470 134.7966720  64.1587400  25.4656650 124.7008970
  63.9324980  24.7487090 125.2933610  63.7683600  25.2169090 123.8630720
  62.0869300  25.9802930 138.1805890  62.4225540  26.5669620 138.8583810
  61.1669640  25.8495640 138.4103680  49.9403430  29.4923510 125.4753430
  50.3001070  30.0912850 124.8210700  49.7995770  30.0383400 126.2488460
  49.6372700  13.7698110 138.9629300  48.9231220  13.9695030 139.5681910
  50.0567740  12.9937680 139.3344100  63.7403650  23.3828590 126.3623130
  63.4525350  23.8441280 127.1501010  64.5355820  22.9226360 126.6307350
  49.9245290  27.7578370 139.9495830  50.0336410  26.8173110 139.8091220
  49.2725850  28.0233120 139.3009560  57.9157880  26.0294260 141.3493950
  57.5954750  25.3103500 141.8939640  57.2416240  26.7049330 141.4230010
  55.9572050  26.8754710 126.2927100  55.9482150  27.6084400 125.6771610
  55.0370410  26.6286290 126.3854060  51.5578690  22.0969600 127.0373860
  50.9506640  22.8368500 127.0469160  52.0328040  22.1868960 126.2112060
  61.1311480  16.2620420 136.7130750  61.4992300  15.4415630 137.0410320
  60.2709680  16.3222310 137.1286400  64.4973510  15.2177360 127.5218310
  63.8686670  15.3223030 126.8076540  64.0025430  15.4374140 128.3112190
  58.9431650  26.9382950 124.9552290  59.0443630  26.7346940 124.0254270
  58.0433390  26.6841230 125.1600070  56.4657540  17.4963310 128.9376190
  55.7573690  17.9649650 129.3789800  56.7502020  16.8385320 129.5721380
  58.0913470  18.9160010 136.9368720  58.5898720  19.3905830 137.6020570
  58.2336420  17.9923530 137.1438750  60.4972970  14.2213970 130.3771980
  60.3740750  14.2400100 129.4281490  61.4457530  14.2692910 130.4970380
  57.5849760  29.4569270 129.6499960  57.8391260  29.4190660 128.7279330
  56.6362240  29.3302600 129.6428210  54.6692560  15.8048390 126.3126900
  55.5183090  16.2418540 126.2467090  54.3023830  16.1168650 127.1398960
  65.2980330  15.1327970 137.7797110  64.7953930  15.8733370 138.1190920
  66.1136990  15.5211970 137.4633900  63.5902340  20.3761150 131.2258470
  62.6492480  20.3911380 131.4006160  63.9046410  19.5897110 131.6718770
  53.5683980  22.0580750 124.7862430  54.3347250  21.9462110 125.3487860
  53.6458670  21.3618720 124.1339200  52.2630740  19.4905820 125.4695320
  52.3434330  18.5433330 125.5812720  53.1550490  19.8212700 125.5755980
  65.5927920  27.5470000 132.9012730  65.7175340  28.3701170 133.3736540
  66.4593480  27.3360730 132.5536880  53.0645450  29.6401210 132.5729860
  53.8007930  29.0916670 132.8438430  53.4486370  30.5057220 132.4335850
  49.9490930  25.7074780 128.4471370  49.0230710  25.9495920 128.4376780
  50.4147360  26.5349040 128.3256120  52.0703730  28.8247280 141.7615440
  52.8716460  29.1459330 142.1750840  51.5555550  28.4642860 142.4835350
  56.1747760  28.8131520 124.3955430  56.9676370  29.1020350 123.9437220
  55.6552110  28.3823690 123.7167910  60.9068360  24.9327150 141.7090850
  60.3006520  24.9558750 140.9686600  60.6022470  24.2010190 142.2458100
  62.3368730  28.6607440 140.3200260  63.2890480  28.5765460 140.2700500
  62.1896950  29.3249150 140.9934050  65.2277930  28.0401650 125.8192170
  64.9419440  27.6266790 125.0046350  65.0297480  28.9689360 125.6992690
  49.7901540  21.3120740 140.7051490  50.2940560  20.7328020 141.2767720
  49.0508960  21.5960970 141.2427860  56.6925160  24.0334930 124.2597780
  56.5875800  23.4187280 124.9859160  56.5249380  23.5100820 123.4760790
  56.8439480  22.7191730 140.2387010  56.0785150  23.2876730 140.1541680
  57.0255440  22.4267940 139.3455240  59.9327890  23.0954960 124.8639770
  59.3837990  23.5424260 125.5082510  60.5547150  22.5904210 125.3877440
  63.9862830  24.4497060 140.7962030  64.7272300  24.7872820 140.2929490
  63.2235510  24.6189120 140.2431800  51.8224620  19.4550330 141.6001560
  51.8629960  19.1564200 142.5086790  52.6770120  19.8557940 141.4409080
  55.6003010  22.0545880 126.7605070  56.0219430  21.8885750 127.6036460
  55.7253850  21.2446110 126.2660210  53.7630430  18.0342430 139.5676050
  53.2326890  17.5433380 138.9399390  54.4318500  18.4626630 139.0333980
  58.1130650  21.0783490 124.0082170  58.6336310  20.3632510 123.6423320
  58.7599050  21.7169360 124.3082680  62.6608490  22.5011890 139.3317240
  63.0749510  22.6556970 140.1807660  61.7259490  22.6267110 139.4943020
  63.1330660  19.8408050 141.3356390  63.7151430  19.0860370 141.2476870
  63.3092430  20.3715490 140.5587870  54.2502730  15.0004800 139.6473340
  54.1559600  14.3825550 138.9224210  53.6700120  15.7271090 139.4203250
  57.0164170  13.5578040 136.6800730  56.5681470  13.5802300 135.8346280
  56.3829370  13.1597060 137.2771030  57.4223720  22.4532370 137.3013170
  57.8411830  23.2965100 137.1289410  56.5032350  22.5904410 137.0719950
  59.7587620  20.1848550 138.6851010  59.8783830  19.5889690 139.4245850
  60.6181620  20.2218240 138.2652310  62.0975520  20.7385740 137.2613520
  61.5710740  21.2628360 136.6578660  62.4406860  21.3713130 137.8923250
  54.4961910  18.1279110 123.7063230  54.2950970  17.2646470 124.0676570
  54.3253960  18.0412470 122.7684830  55.2731140  28.7585380 138.4170900
  54.7352230  29.4831440 138.0979600  55.5265100  28.2815720 137.6268240
  56.5256390  16.7269900 139.9426830  57.1156080  16.4185750 140.6304650
  55.7076630  16.2549650 140.0986730  61.3449820  16.3435710 140.1759850
  60.6565340  15.6817250 140.1109840  62.0655840  15.8973980 140.6208310
  61.9750220  12.9387340 126.2350110  62.2552510  12.0955240 126.5909530
  61.2015950  13.1710450 126.7488860  53.2944710  15.2279730 123.6941110
  53.5970610  15.2347160 122.7860260  54.0339300  14.8777590 124.1908770
  58.1293350  29.9936590 138.6757550  58.0552050  30.8971730 138.9829920
  57.2272190  29.6748490 138.6479620  56.5129640  14.1714350 124.6797310
  56.1651640  13.4938340 124.0999760  56.7142410  13.7103860 125.4940700
  58.6778680  29.1595100 126.2983910  59.5729470  29.4980070 126.3202670
  58.7096310  28.4374510 125.6708190  52.3174840  24.5322150 124.5270910
  52.7549710  25.0751820 125.1828490  52.8022570  23.7069100 124.5367250
  49.5320640  27.3211180 131.9791170  49.8623650  26.4532240 131.7469810
  49.9611640  27.5269700 132.8096130  54.1282560  25.6520190 129.6393140
  53.8278100  25.5285160 130.5397050  54.0220050  24.7928780 129.2308870
  50.0210850  28.1881770 134.7172800  49.5841840  28.3682570 135.5496950
  50.5888530  28.9456390 134.5754520  65.6573030  27.6898770 139.0050110
  65.0575020  27.7491330 138.2614030  65.7866930  26.7503750 139.1346960
  66.8974480  25.4316590 124.3419820  66.0667440  25.4993240 124.8127050
  67.0746310  26.3220710 124.0386680  66.3530940  22.1764070 126.8454020
  67.1149850  22.7460720 126.9513710  66.3685310  21.6091270 127.6162330
  49.8535280  20.7002000 131.0761680  49.1984120  20.4313640 130.4321380
  50.6913230  20.5906480 130.6263660  67.3590910  23.0314170 131.6895950
  67.7299740  22.2481490 131.2831920  67.9992840  23.7203270 131.5113250
  64.3424670  24.4150750 137.1026270  63.5284510  24.8447910 137.3652060
  64.7498870  25.0269160 136.4895320  66.4050110  22.4698440 124.0026540
  66.6798950  23.3777320 123.8745760  66.2160850  22.4060970 124.9388530
  62.8025720  15.4943290 125.2980170  63.2210600  15.3074270 124.4576830
  62.4961780  14.6422340 125.6083100  66.3015450  20.4067430 128.9955970
  65.9259050  19.6395360 128.5637260  65.5718570  20.7890130 129.4830900
  50.8911210  21.0854570 135.6165020  51.2584250  20.9981970 136.4961040
  50.3222030  20.3221120 135.5171880  65.6915070  19.5538950 138.6295490
  65.4601160  19.3251700 137.7293440  65.9519620  20.4738500 138.5840380
  50.4427210  17.9963660 139.5223440  49.5483260  17.9630420 139.8617150
  50.9824760  18.1950450 140.2874690  64.1303140  14.7795380 141.4075190
  65.0073320  14.7878780 141.7909190  64.1423980  14.0426220 140.7967540
  49.0673360  17.9100930 127.0187010  48.1637440  18.1731130 126.8438670
  49.5513980  18.1812100 126.2386970  65.5766410  18.6324920 132.2963210
  66.1003890  18.1387570 131.6653380  66.1625830  18.7675280 133.0410780
  65.7556130  18.7164790 135.8182760  64.8058840  18.6828330 135.9327750
  65.9369140  19.6264900 135.5832530  51.6100570  16.9666470 124.9281390
  52.3192270  16.5449690 124.4428670  50.8940510  17.0341700 124.2964740
  51.2574730  13.0205800 123.9684040  51.9802860  13.5614740 124.2865260
  51.5299250  12.7469220 123.0925580  65.0666380  17.8898270 128.2355620
  65.5625500  17.6569140 129.0204500  64.8682450  17.0510110 127.8193260
  50.9466920  12.2711990 133.8706660  51.5943110  11.7209370 133.4301820
  51.3668760  12.5255140 134.6922470  66.4953540  16.5259220 130.7693300
  66.3852820  16.3715260 131.7075570  67.2561130  15.9980160 130.5268710
  64.8419260  12.4653350 137.2276300  65.4791480  13.0787490 137.5935490
  64.9894150  12.5014010 136.2825530  67.3843810  14.3567140 124.0099440
  68.3093120  14.2248320 123.8017730  67.3619600  14.4359960 124.9635890
  67.4582300  15.1277800 126.6356150  66.6633800  15.0622920 127.1649060
  67.6625580  16.0628440 126.6241500  64.4000720  29.1669350 130.6294540
  64.9959790  28.8453920 129.9528960  64.6578870  28.6941170 131.4207810
  50.6998920  12.4267660 136.6131980  50.3513740  12.8831480 137.3790160
  50.3686620  11.5324790 136.6954410  52.3063290  25.5987260 140.7785170
  52.2632920  25.2280170 141.6599630  52.4374300  26.5364830 140.9186990
  56.0069320  27.1546850 136.3794890  55.7660680  27.4221410 135.4925410
  56.9471960  27.3252580 136.4345750  58.2123740  13.6179540 140.1351400
  58.1512630  14.2101370 140.8846810  59.1524120  13.5105500 139.9901660
  60.8498300  13.2749600 139.7743690  61.4638710  13.5928890 139.1124770
  61.3947860  12.7898190 140.3939550  67.2673480  29.1741230 137.1805530
  66.7731760  29.5710100 136.4632660  66.6586770  28.5490440 137.5742810
  51.3719560  11.9543860 139.8882750  51.9202550  11.7731910 139.1248860
  51.4374870  11.1637970 140.4239060  52.1451320  28.5449510 137.8982950
  51.5511640  28.4134210 138.6372990  52.1375160  27.7087650 137.4325050
  61.5906340  11.8381740 136.1012980  60.7166180  12.1716850 135.8985910
  61.4817090  11.3654920 136.9264850  62.4978320  14.0452610 137.4854700
  62.1691680  13.2304370 137.1056430  63.4460620  14.0022420 137.3620390
  64.9512930  29.8164650 134.4592270  64.4915900  30.5680460 134.0850290
  64.3225390  29.0971120 134.4007070  51.7763550  25.9107890 136.8490990
  51.0497610  25.2913180 136.7816940  51.8372700  26.3048500 135.9789070
  55.3808650  28.1252890 133.6340400  55.8973670  27.5140250 133.1088660
  56.0306030  28.6281670 134.1251410  58.1204150  29.0161380 134.4609380
  58.4081960  28.7615680 133.5842390  58.6327370  28.4638740 135.0514950
  59.3381160  12.7551580 135.0405890  58.5552950  13.2297080 135.3202650
  59.0444090  11.8506410 134.9319070  63.8902230  13.4574680 133.0854980
  64.3310320  13.4019780 132.2376580  63.6209820  14.3732690 133.1565160
  65.7540800  13.0889920 131.0963800  65.6929200  12.1451140 130.9494820
  66.5332830  13.1970010 131.6417260  50.0593550  29.2282280 130.0587750
  49.8915590  28.5952960 130.7569640  49.1928060  29.4341680 129.7081940
  50.6821570  13.0599060 127.5619610  51.4400930  13.1727940 126.9883640
  50.2198740  13.8968260 127.5163040  57.2235380  15.1738330 130.5521920
  56.4109890  14.7995220 130.2117800  57.7277020  14.4183410 130.8543110
  61.7260360  11.8380780 131.7904990  62.3289730  12.4100990 132.2653510
  60.9853350  12.4020220 131.5678890  64.8694960  12.2402340 127.0645270
  65.0645590  13.1385790 127.3312700  64.0824830  12.0089420 127.5578220
  51.6656250  27.9215510 127.5037890  51.1403870  28.3023540 126.7999850
  51.5900830  28.5466280 128.2247600  53.0546720  13.5863110 126.1021580
  53.5839480  12.7992910 125.9729530  53.6875040  14.2654300 126.3357110
  55.2484560  13.3238250 129.1566970  54.6187300  12.6225560 129.3237100
  54.7089700  14.0842380 128.9400130  58.1876510  29.9377480 141.8277580
  59.1143820  29.7021750 141.8713540  58.1726940  30.7649480 141.3463610
  66.4221570  29.4803050 128.8251830  66.5973760  28.7940790 128.1812750
  65.7243140  30.0050100 128.4328500  55.3740120  12.6022230 141.5919460
  55.0924390  13.1055830 140.8280280  55.7559820  11.8043980 141.2261590
  54.2649220  29.8697890 126.3787140  54.9968040  29.5857170 125.8311030
  54.5242890  29.6311170 127.2686520  53.4264010  25.9862620 126.3833470
  52.7972890  26.4547720 126.9319300  53.5411840  25.1411840 126.8179660
  61.9755580  12.0175810 142.1699930  61.8621030  12.3370420 143.0651450
  62.7925320  12.4188320 141.8737210  64.7554070  29.1647340 141.6518620
  65.5479390  28.6696570 141.4444580  65.0487220  29.8437480 142.2594230
  60.8813730  20.0368280 112.5334670  60.8007780  19.1222890 112.2626380
  60.4678150  20.5335350 111.8274380  59.0131770  21.8147300 114.4143940
  58.2373870  21.3347740 114.7042510  59.6644700  21.1352950 114.2400100
  53.0297600  22.1267110 115.2919700  52.1982480  21.8715820 115.6916210
  53.6378580  22.1977880 116.0277620  63.0339200  26.2207490 113.1943070
  62.5720730  25.4494730 113.5230240  63.8464750  26.2473560 113.6995520
  51.4389550  17.0869000 109.0762090  50.5506250  17.4284970 108.9741970
  51.7230740  16.8869320 108.1842920  49.4022560  19.6874650 114.9601790
  49.9738670  18.9196850 114.9605430  49.4024100  19.9863410 114.0508400
  58.4540760  24.4904490 114.4214100  58.3849040  23.5494430 114.2603230
  59.2160620  24.5805900 114.9936670  50.6447430  15.0959010 116.7470720
  50.4650270  14.1984760 117.0273480  50.2427510  15.6430880 117.4217670
  59.4845930  17.2974870 114.6483030  59.8610750  16.4246750 114.5356700
  59.3865440  17.6333570 113.7573470  53.6150940  15.6700500 110.1100470
  53.7217690  16.5704230 110.4169230  52.7043300  15.6218470 109.8195120
  63.2670050  14.7925310 111.5811370  64.0879670  14.3021880 111.6236850
  63.3004130  15.3822970 112.3343210  51.2634100  17.5919510 115.3553060
  51.9444210  17.8557880 115.9740460  50.9482150  16.7520380 115.6891070
  55.4558670  18.6386870 114.4425650  55.9636890  19.1367840 115.0830670
  55.9871910  17.8622070 114.2665010  67.5569600  16.8092060 118.1455000
  66.8521770  17.1973770 117.6270110  67.8227520  17.5042350 118.7475930
  53.7394770  13.2785430 118.7089070  53.7413210  13.7957820 117.9034970
  52.9099080  12.8015610 118.6859000  54.9897620  22.9180610 116.8862570
  54.6567000  23.5449530 117.5283640  55.1664300  23.4442490 116.1064240
  63.5031530  16.7325690 114.3538910  62.7987100  17.0210580 114.9342020
  63.8643690  17.5425800 113.9938470  53.4210100  14.9895390 116.7159520
  53.7626910  15.8337440 116.4213390  52.4825910  15.1379130 116.8324860
  54.2016720  24.8861410 118.7011750  54.8190720  25.5612490 118.4196200
  53.3409840  25.2949390 118.6099250  49.4949060  24.0761270 107.5818600
  49.1177040  24.5648370 106.8503500  49.7522130  24.7486550 108.2125130
  65.1194310  26.3500820 116.6166390  64.4357830  27.0199930 116.6083060
  65.6588600  26.5481470 115.8511250  66.5718450  16.1780480 114.7448120
  65.6243360  16.2119460 114.8763550  66.8968440  16.9919430 115.1297480
  57.1037990  12.4777660 113.0404110  57.4112970  11.9224550 112.3239610
  56.1738690  12.6122120 112.8577100  62.6553050  28.1944950 115.3311570
  62.6680210  27.7907240 114.4633830  62.1028270  28.9692240 115.2273000
  63.9498470  24.9161170 110.4201740  63.8394800  23.9735500 110.5451160
  63.9466720  25.2776810 111.3064500  62.0538490  23.0974790 116.6594180
  62.4707280  22.8834900 115.8247640  62.7778310  23.3547580 117.2302800
  59.4918750  20.5426490 109.7764230  58.5648030  20.4763870 110.0052700
  59.6443570  21.4806620 109.6619470  59.4787830  16.8143490 106.7731390
  58.5391500  16.9757450 106.8583850  59.7971090  17.5329170 106.2267380
  66.0000590  21.4962010 116.7510420  65.1719220  21.5655100 116.2760550
  66.5951070  22.0816320 116.2826250  63.5216040  22.1046790 110.2799480
  62.9028460  21.7666340 109.6325780  63.5040490  21.4606550 110.9878670
  62.9642600  18.2831330 117.6965290  62.5513780  19.1085040 117.9505280
  62.2318550  17.6976370 117.5041650  55.0975390  21.0691230 112.5583960
  54.6932390  20.3568480 112.0629860  55.1838510  20.7244470 113.4472000
  53.8104010  17.8434440 116.3383000  54.3618600  17.9529780 115.5636250
  54.3247520  18.2172040 117.0538230  63.6542700  28.3290660 118.3846270
  63.1773260  29.1362850 118.1918880  62.9704490  27.6768990 118.5372480
  54.6575520  24.4940480 121.3730970  53.7604050  24.7180450 121.6204370
  54.6828390  24.6175420 120.4242370  61.6980740  21.3433600 107.2872230
  62.1374020  20.5056030 107.1410050  62.4109160  21.9763000 107.3736370
  53.4846740  21.3653800 119.9488340  53.3454510  22.2376600 120.3175740
  52.6028100  21.0226610 119.8036280  55.2827090  27.3075500 122.1573490
  55.2542520  27.7118450 121.2901920  55.1192060  26.3785860 121.9945090
  65.2797880  12.5976410 105.6013270  64.9670540  12.6903240 106.5012340
  66.0410350  13.1757440 105.5510700  51.7980020  19.9636210 110.0590610
  51.6777620  20.6898300 109.4471880  51.4880910  19.1939120 109.5818520
  67.2341910  28.0902600 123.4537660  67.7101630  28.5685490 124.1326740
  67.8549070  28.0220090 122.7283160  49.4365390  23.1351350 115.8659250
  49.5145810  23.2700120 114.9214970  50.0507070  22.4267240 116.0587370
  50.6813020  24.8351540 112.2765430  50.2741100  24.9766130 111.4219030
  51.5726030  24.5511700 112.0736640  66.6375160  25.2815450 120.6137670
  66.7638220  25.0427330 119.6954850  66.6796540  24.4499990 121.0859750
  54.9534680  29.0497320 110.3888100  54.7777160  28.1332860 110.1755900
  54.0990420  29.4084610 110.6285900  66.4899170  17.3347910 121.5787410
  65.8743440  17.8427580 121.0502870  66.1695590  16.4346240 121.5213350
  49.4924910  24.1765520 118.4053710  49.6555950  23.7070880 117.5873080
  49.9577360  23.6689080 119.0702550  54.2643680  13.3071280 113.4414280
  53.8211830  14.0880820 113.1098800  54.8228670  13.6301170 114.1485220
  58.5513490  16.1739800 119.0449600  58.0892860  16.3822820 119.8569540
  58.1491600  15.3599150 118.7420270  63.5518000  17.3948750 120.1746260
  62.7011590  17.0954500 120.4955330  63.3919790  17.6390760 119.2630080
  60.6467710  18.8950500 122.2745050  60.9721120  18.0614250 121.9347280
  61.4348040  19.4179020 122.4223380  57.3802500  12.9281980 108.3220110
  56.7556680  12.9241850 109.0473420  57.2932620  12.0612940 107.9256080
  56.3019580  13.8518610 115.3003880  56.5991910  14.7581440 115.2195900
  56.8505140  13.3637390 114.6863450  54.0557900  18.4304850 111.1695530
  53.8298820  18.2142020 112.0742150  53.2750430  18.8633310 110.8241500
  61.2855660  18.4368220 109.7686180  60.6864550  19.1604020 109.5849800
  61.8335270  18.3745000 108.9862630  56.4957110  19.3290430 121.8355800
  56.4000710  18.3885160 121.6856200  57.3389090  19.5505500 121.4403870
  59.8920530  17.0731760 111.7989460  60.2850100  17.3903960 110.9858150
  60.2537380  16.1943640 111.9133980  51.6267650  15.7404100 119.9889580
  51.2331040  16.5879310 120.1962360  50.9386050  15.1030470 120.1798220
  58.2012700  15.8239070 123.0586320  57.5111020  15.6311270 123.6932410
  58.9445000  16.1073710 123.5910620  48.9284700  13.6632560 114.0219660
  48.6397750  14.2335420 114.7344640  49.6730460  13.1837010 114.3850890
  49.1154930  17.6052680 105.2322380  49.0329600  18.5483440 105.3737370
  48.7637990  17.4627590 104.3534730  60.4775670  19.6637510 115.8940240
  59.7456790  20.1724320 116.2430340  60.0800010  18.8467490 115.5929020
  56.9153060  16.3391710 114.2992730  56.9189120  15.8981660 113.4497270
  57.8104180  16.6609040 114.4064550  52.7655440  16.2218200 113.2586940
  52.4255490  16.6993430 114.0153990  52.0032760  15.7683320 112.8988040
  56.9773210  17.3403790 107.2899490  57.0986030  17.2990270 108.2385310
  56.5921720  18.2027940 107.1346220  60.9401580  15.1171190 115.3063180
  60.9574320  15.5679840 116.1505030  60.6917160  14.2176830 115.5196620
  55.9894710  19.6504930 106.6882790  55.4211610  19.2023180 106.0618700
  56.6983710  20.0097710 106.1547940  64.3672330  12.5303370 121.1449560
  64.6918100  11.7993030 121.6707540  64.4028840  12.2117010 120.2430550
  51.0663890  23.5516950 120.5649520  50.6818680  22.9110620 121.1632480
  51.3776080  24.2553070 121.1344250  57.2161030  20.3993490 116.0458140
  57.5831160  19.9252060 116.7919480  57.0266090  21.2735060 116.3866480
  50.0801520  15.1437180 112.1751610  49.7948440  14.7792850 113.0130230
  50.0180380  14.4117640 111.5614750  55.0060400  19.4402130 118.3642350
  54.7017470  20.3194110 118.5892710  55.9606860  19.5001920 118.3999790
  64.2930170  22.6428480 114.7535590  65.0129290  23.1383770 114.3631700
  64.0911990  21.9646370 114.1089460  59.7540110  14.0366440 108.8964980
  58.9404720  13.5379610 108.8210290  59.5602060  14.8764690 108.4801330
  59.6748970  22.7137540 120.6404590  59.6086280  21.7933210 120.3862180
  59.0454110  22.8112980 121.3549230  62.4688500  18.4086090 107.1927140
  63.3568120  18.7203320 107.0178480  62.4393590  17.5358340 106.8007720
  53.5779590  23.3143500 112.5988010  54.0958260  22.5111760 112.5444900
  53.1263610  23.2522640 113.4404840  51.0624130  20.2804870 119.5113710
  50.7039070  20.9458720 120.0987050  50.7678690  19.4488420 119.8826330
  54.2637250  20.7389110 122.3953260  53.9637390  20.8846290 121.4981080
  55.0348490  20.1794400 122.3026650  59.6065700  25.5358110 120.3908390
  59.6210240  24.6039070 120.1727300  58.8990800  25.6217870 121.0298160
  64.7402770  19.7197930 106.6607000  64.6566490  20.1512150 105.8103440
  65.4596960  20.1796280 107.0933820  65.8176910  22.1765450 119.7376970
  65.0925100  22.7694230 119.5406360  66.3452370  22.1688990 118.9390340
  65.7690020  26.5740190 109.3889130  65.1266180  25.9195810 109.6632850
  65.3820680  26.9795280 108.6129800  49.5732180  20.2796130 106.1348310
  50.4427030  20.5620930 106.4184230  49.0822500  21.0932000 106.0197120
  56.7366990  21.6669340 110.2556590  57.1929770  22.4774590 110.4816780
  56.3855200  21.3492480 111.0875080  59.0399600  27.1775680 117.4848890
  59.6841820  27.3835060 118.1622310  59.4029040  26.4164080 117.0319740
  52.6378770  12.0106990 110.7279110  52.5093400  12.0024890 111.6764030
  51.8140790  12.3490080 110.3770120  60.3131680  25.1808030 116.2026340
  60.9553910  24.4801190 116.3158510  60.8381030  25.9606470 116.0223230
  64.1587400  25.4656650 105.9265480  63.9324980  24.7487090 106.5190120
  63.7683600  25.2169090 105.0887230  62.0869300  25.9802930 119.4062400
  62.4225540  26.5669620 120.0840320  61.1669640  25.8495640 119.6360190
  49.9403430  29.4923510 106.7009940  50.3001070  30.0912850 106.0467210
  49.7995770  30.0383400 107.4744970  49.6372700  13.7698110 120.1885810
  48.9231220  13.9695030 120.7938420  50.0567740  12.9937680 120.5600610
  63.7403650  23.3828590 107.5879640  63.4525350  23.8441280 108.3757520
  64.5355820  22.9226360 107.8563860  49.9245290  27.7578370 121.1752340
  50.0336410  26.8173110 121.0347730  49.2725850  28.0233120 120.5266070
  57.9157880  26.0294260 122.5750460  57.5954750  25.3103500 123.1196150
  57.2416240  26.7049330 122.6486520  51.5578690  22.0969600 108.2630370
  50.9506640  22.8368500 108.2725670  52.0328040  22.1868960 107.4368570
  61.1311480  16.2620420 117.9387260  61.4992300  15.4415630 118.2666830
  60.2709680  16.3222310 118.3542910  64.4973510  15.2177360 108.7474820
  63.8686670  15.3223030 108.0333050  64.0025430  15.4374140 109.5368700
  56.4657540  17.4963310 110.1632700  55.7573690  17.9649650 110.6046310
  56.7502020  16.8385320 110.7977890  58.0913470  18.9160010 118.1625230
  58.5898720  19.3905830 118.8277080  58.2336420  17.9923530 118.3695260
  60.4972970  14.2213970 111.6028490  60.3740750  14.2400100 110.6538000
  61.4457530  14.2692910 111.7226890  54.6692560  15.8048390 107.5383410
  55.5183090  16.2418540 107.4723600  54.3023830  16.1168650 108.3655470
  65.2980330  15.1327970 119.0053620  64.7953930  15.8733370 119.3447430
  66.1136990  15.5211970 118.6890410  63.5902340  20.3761150 112.4514980
  62.6492480  20.3911380 112.6262670  63.9046410  19.5897110 112.8975280
  53.5683980  22.0580750 106.0118940  54.3347250  21.9462110 106.5744370
  53.6458670  21.3618720 105.3595710  52.2630740  19.4905820 106.6951830
  52.3434330  18.5433330 106.8069230  53.1550490  19.8212700 106.8012490
  65.5927920  27.5470000 114.1269240  65.7175340  28.3701170 114.5993050
  66.4593480  27.3360730 113.7793390  49.9490930  25.7074780 109.6727880
  49.0230710  25.9495920 109.6633290  50.4147360  26.5349040 109.5512630
  52.0703730  28.8247280 122.9871950  52.8716460  29.1459330 123.4007350
  51.5555550  28.4642860 123.7091860  60.9068360  24.9327150 122.9347360
  60.3006520  24.9558750 122.1943110  60.6022470  24.2010190 123.4714610
  62.3368730  28.6607440 121.5456770  63.2890480  28.5765460 121.4957010
  62.1896950  29.3249150 122.2190560  65.2277930  28.0401650 107.0448680
  64.9419440  27.6266790 106.2302860  65.0297480  28.9689360 106.9249200
  49.7901540  21.3120740 121.9308000  50.2940560  20.7328020 122.5024230
  49.0508960  21.5960970 122.4684370  56.8439480  22.7191730 121.4643520
  56.0785150  23.2876730 121.3798190  57.0255440  22.4267940 120.5711750
  63.9862830  24.4497060 122.0218540  64.7272300  24.7872820 121.5186000
  63.2235510  24.6189120 121.4688310  51.8224620  19.4550330 122.8258070
  51.8629960  19.1564200 123.7343300  52.6770120  19.8557940 122.6665590
  53.7630430  18.0342430 120.7932560  53.2326890  17.5433380 120.1655900
  54.4318500  18.4626630 120.2590490  58.1130650  21.0783490 105.2338680
  58.6336310  20.3632510 104.8679830  58.7599050  21.7169360 105.5339190
  62.6608490  22.5011890 120.5573750  63.0749510  22.6556970 121.4064170
  61.7259490  22.6267110 120.7199530  63.1330660  19.8408050 122.5612900
  63.7151430  19.0860370 122.4733380  63.3092430  20.3715490 121.7844380
  54.2502730  15.0004800 120.8729850  54.1559600  14.3825550 120.1480720
  53.6700120  15.7271090 120.6459760  57.0164170  13.5578040 117.9057240
  56.5681470  13.5802300 117.0602790  56.3829370  13.1597060 118.5027540
  57.4223720  22.4532370 118.5269680  57.8411830  23.2965100 118.3545920
  56.5032350  22.5904410 118.2976460  59.7587620  20.1848550 119.9107520
  59.8783830  19.5889690 120.6502360  60.6181620  20.2218240 119.4908820
  62.0975520  20.7385740 118.4870030  61.5710740  21.2628360 117.8835170
  62.4406860  21.3713130 119.1179760  54.4961910  18.1279110 104.9319740
  54.2950970  17.2646470 105.2933080  54.3253960  18.0412470 103.9941340
  55.2731140  28.7585380 119.6427410  54.7352230  29.4831440 119.3236110
  55.5265100  28.2815720 118.8524750  56.5256390  16.7269900 121.1683340
  57.1156080  16.4185750 121.8561160  55.7076630  16.2549650 121.3243240
  61.3449820  16.3435710 121.4016360  60.6565340  15.6817250 121.3366350
  62.0655840  15.8973980 121.8464820  61.9750220  12.9387340 107.4606620
  62.2552510  12.0955240 107.8166040  61.2015950  13.1710450 107.9745370
  53.2944710  15.2279730 104.9197620  53.5970610  15.2347160 104.0116770
  54.0339300  14.8777590 105.4165280  58.1293350  29.9936590 119.9014060
  58.0552050  30.8971730 120.2086430  57.2272190  29.6748490 119.8736130
  56.5129640  14.1714350 105.9053820  56.1651640  13.4938340 105.3256270
  56.7142410  13.7103860 106.7197210  65.6573030  27.6898770 120.2306620
  65.0575020  27.7491330 119.4870540  65.7866930  26.7503750 120.3603470
  66.8974480  25.4316590 105.5676330  66.0667440  25.4993240 106.0383560
  67.0746310  26.3220710 105.2643190  66.3530940  22.1764070 108.0710530
  67.1149850  22.7460720 108.1770220  66.3685310  21.6091270 108.8418840
  49.8535280  20.7002000 112.3018190  49.1984120  20.4313640 111.6577890
  50.6913230  20.5906480 111.8520170  67.3590910  23.0314170 112.9152460
  67.7299740  22.2481490 112.5088430  67.9992840  23.7203270 112.7369760
  64.3424670  24.4150750 118.3282780  63.5284510  24.8447910 118.5908570
  64.7498870  25.0269160 117.7151830  66.4050110  22.4698440 105.2283050
  66.6798950  23.3777320 105.1002270  66.2160850  22.4060970 106.1645040
  62.8025720  15.4943290 106.5236680  63.2210600  15.3074270 105.6833340
  62.4961780  14.6422340 106.8339610  66.3015450  20.4067430 110.2212480
  65.9259050  19.6395360 109.7893770  65.5718570  20.7890130 110.7087410
  50.8911210  21.0854570 116.8421530  51.2584250  20.9981970 117.7217550
  50.3222030  20.3221120 116.7428390  65.6915070  19.5538950 119.8552000
  65.4601160  19.3251700 118.9549950  65.9519620  20.4738500 119.8096890
  50.4427210  17.9963660 120.7479950  49.5483260  17.9630420 121.0873660
  50.9824760  18.1950450 121.5131200  64.1303140  14.7795380 122.6331700
  65.0073320  14.7878780 123.0165700  64.1423980  14.0426220 122.0224050
  49.0673360  17.9100930 108.2443520  48.1637440  18.1731130 108.0695180
  49.5513980  18.1812100 107.4643480  65.5766410  18.6324920 113.5219720
  66.1003890  18.1387570 112.8909890  66.1625830  18.7675280 114.2667290
  65.7556130  18.7164790 117.0439270  64.8058840  18.6828330 117.1584260
  65.9369140  19.6264900 116.8089040  51.6100570  16.9666470 106.1537900
  52.3192270  16.5449690 105.6685180  50.8940510  17.0341700 105.5221250
  51.2574730  13.0205800 105.1940550  51.9802860  13.5614740 105.5121770
  51.5299250  12.7469220 104.3182090  65.0666380  17.8898270 109.4612130
  65.5625500  17.6569140 110.2461010  64.8682450  17.0510110 109.0449770
  50.9466920  12.2711990 115.0963170  51.5943110  11.7209370 114.6558330
  51.3668760  12.5255140 115.9178980  66.4953540  16.5259220 111.9949810
  66.3852820  16.3715260 112.9332080  67.2561130  15.9980160 111.7525220
  64.8419260  12.4653350 118.4532810  65.4791480  13.0787490 118.8192000
  64.9894150  12.5014010 117.5082040  67.3843810  14.3567140 105.2355950
  68.3093120  14.2248320 105.0274240  67.3619600  14.4359960 106.1892400
  67.4582300  15.1277800 107.8612660  66.6633800  15.0622920 108.3905570
  67.6625580  16.0628440 107.8498010  64.4000720  29.1669350 111.8551050
  64.9959790  28.8453920 111.1785470  64.6578870  28.6941170 112.6464320
  50.6998920  12.4267660 117.8388490  50.3513740  12.8831480 118.6046670
  50.3686620  11.5324790 117.9210920  52.3063290  25.5987260 122.0041680
  52.2632920  25.2280170 122.8856140  52.4374300  26.5364830 122.1443500
  58.2123740  13.6179540 121.3607910  58.1512630  14.2101370 122.1103320
  59.1524120  13.5105500 121.2158170  60.8498300  13.2749600 121.0000200
  61.4638710  13.5928890 120.3381280  61.3947860  12.7898190 121.6196060
  51.3719560  11.9543860 121.1139260  51.9202550  11.7731910 120.3505370
  51.4374870  11.1637970 121.6495570  52.1451320  28.5449510 119.1239460
  51.5511640  28.4134210 119.8629500  52.1375160  27.7087650 118.6581560
  61.5906340  11.8381740 117.3269490  60.7166180  12.1716850 117.1242420
  61.4817090  11.3654920 118.1521360  62.4978320  14.0452610 118.7111210
  62.1691680  13.2304370 118.3312940  63.4460620  14.0022420 118.5876900
  51.7763550  25.9107890 118.0747500  51.0497610  25.2913180 118.0073450
  51.8372700  26.3048500 117.2045580  59.3381160  12.7551580 116.2662400
  58.5552950  13.2297080 116.5459160  59.0444090  11.8506410 116.1575580
  63.8902230  13.4574680 114.3111490  64.3310320  13.4019780 113.4633090
  63.6209820  14.3732690 114.3821670  65.7540800  13.0889920 112.3220310
  65.6929200  12.1451140 112.1751330  66.5332830  13.1970010 112.8673770
  50.0593550  29.2282280 111.2844260  49.8915590  28.5952960 111.9826150
  49.1928060  29.4341680 110.9338450  50.6821570  13.0599060 108.7876120
  51.4400930  13.1727940 108.2140150  50.2198740  13.8968260 108.7419550
  57.2235380  15.1738330 111.7778430  56.4109890  14.7995220 111.4374310
  57.7277020  14.4183410 112.0799620  61.7260360  11.8380780 113.0161500
  62.3289730  12.4100990 113.4910020  60.9853350  12.4020220 112.7935400
  64.8694960  12.2402340 108.2901780  65.0645590  13.1385790 108.5569210
  64.0824830  12.0089420 108.7834730  53.0546720  13.5863110 107.3278090
  53.5839480  12.7992910 107.1986040  53.6875040  14.2654300 107.5613620
  55.2484560  13.3238250 110.3823480  54.6187300  12.6225560 110.5493610
  54.7089700  14.0842380 110.1656640  58.1876510  29.9377480 123.0534090
  59.1143820  29.7021750 123.0970050  58.1726940  30.7649480 122.5720120
  55.3740120  12.6022230 122.8175970  55.0924390  13.1055830 122.0536790
  55.7559820  11.8043980 122.4518100  54.2649220  29.8697890 107.6043650
  54.9968040  29.5857170 107.0567540  54.5242890  29.6311170 108.4943030
  61.9755580  12.0175810 123.3956440  61.8621030  12.3370420 124.2907960
  62.7925320  12.4188320 123.0993720  64.7554070  29.1647340 122.8775130
  65.5479390  28.6696570 122.6701090  65.0487220  29.8437480 123.4850740
  53.0297600  22.1267110  96.5176210  52.1982480  21.8715820  96.9172720
  53.6378580  22.1977880  97.2534130  53.0098860  26.1607200  96.7134230
  53.3126900  25.2704940  96.5344450  53.7542450  26.7177420  96.4856480
  51.4389550  17.0869000  90.3018600  50.5506250  17.4284970  90.1998480
  51.7230740  16.8869320  89.4099430  49.4022560  19.6874650  96.1858300
  49.9738670  18.9196850  96.1861940  49.4024100  19.9863410  95.2764910
  58.4540760  24.4904490  95.6470610  58.3849040  23.5494430  95.4859740
  59.2160620  24.5805900  96.2193180  50.6447430  15.0959010  97.9727230
  50.4650270  14.1984760  98.2529990  50.2427510  15.6430880  98.6474180
  59.4845930  17.2974870  95.8739540  59.8610750  16.4246750  95.7613210
  59.3865440  17.6333570  94.9829980  53.6150940  15.6700500  91.3356980
  53.7217690  16.5704230  91.6425740  52.7043300  15.6218470  91.0451630
  63.2670050  14.7925310  92.8067880  64.0879670  14.3021880  92.8493360
  63.3004130  15.3822970  93.5599720  51.2634100  17.5919510  96.5809570
  51.9444210  17.8557880  97.1996970  50.9482150  16.7520380  96.9147580
  55.4558670  18.6386870  95.6682160  55.9636890  19.1367840  96.3087180
  55.9871910  17.8622070  95.4921520  67.5569600  16.8092060  99.3711510
  66.8521770  17.1973770  98.8526620  67.8227520  17.5042350  99.9732440
  53.7394770  13.2785430  99.9345580  53.7413210  13.7957820  99.1291480
  52.9099080  12.8015610  99.9115510  54.9897620  22.9180610  98.1119080
  54.6567000  23.5449530  98.7540150  55.1664300  23.4442490  97.3320750
  53.4210100  14.9895390  97.9416030  53.7626910  15.8337440  97.6469900
  52.4825910  15.1379130  98.0581370  54.2016720  24.8861410  99.9268260
  54.8190720  25.5612490  99.6452710  53.3409840  25.2949390  99.8355760
  66.5718450  16.1780480  95.9704630  65.6243360  16.2119460  96.1020060
  66.8968440  16.9919430  96.3553990  57.1037990  12.4777660  94.2660620
  57.4112970  11.9224550  93.5496120  56.1738690  12.6122120  94.0833610
  59.4787830  16.8143490  87.9987900  58.5391500  16.9757450  88.0840360
  59.7971090  17.5329170  87.4523890  62.9642600  18.2831330  98.9221800
  62.5513780  19.1085040  99.1761790  62.2318550  17.6976370  98.7298160
  55.0975390  21.0691230  93.7840470  54.6932390  20.3568480  93.2886370
  55.1838510  20.7244470  94.6728510  55.5657090  24.7558790  95.9479680
  55.2685380  24.1504260  95.2687460  56.5156910  24.7936100  95.8369040
  53.8104010  17.8434440  97.5639510  54.3618600  17.9529780  96.7892760
  54.3247520  18.2172040  98.2794740  61.6980740  21.3433600  88.5128740
  62.1374020  20.5056030  88.3666560  62.4109160  21.9763000  88.5992880
  53.4846740  21.3653800 101.1744850  53.3454510  22.2376600 101.5432250
  52.6028100  21.0226610 101.0292790  59.8076120  26.2829670  92.4809980
  60.2472030  27.0254000  92.0665370  59.7463010  26.5256240  93.4048940
  65.2797880  12.5976410  86.8269780  64.9670540  12.6903240  87.7268850
  66.0410350  13.1757440  86.7767210  67.2341910  28.0902600 104.6794170
  67.7101630  28.5685490 105.3583250  67.8549070  28.0220090 103.9539670
  49.4365390  23.1351350  97.0915760  49.5145810  23.2700120  96.1471480
  50.0507070  22.4267240  97.2843880  62.4746300  29.2698790  89.8372990
  62.3147440  28.9801730  90.7354820  62.3093010  28.4938920  89.3018220
  54.9534680  29.0497320  91.6144610  54.7777160  28.1332860  91.4012410
  54.0990420  29.4084610  91.8542410  62.1772430  26.7786350  88.3970990
  61.4837590  26.7763640  87.7373270  62.9195290  26.3545670  87.9665160
  66.4899170  17.3347910 102.8043920  65.8743440  17.8427580 102.2759380
  66.1695590  16.4346240 102.7469860  49.4924910  24.1765520  99.6310220
  49.6555950  23.7070880  98.8129590  49.9577360  23.6689080 100.2959060
  54.2643680  13.3071280  94.6670790  53.8211830  14.0880820  94.3355310
  54.8228670  13.6301170  95.3741730  58.5513490  16.1739800 100.2706110
  58.0892860  16.3822820 101.0826050  58.1491600  15.3599150  99.9676780
  63.5518000  17.3948750 101.4002770  62.7011590  17.0954500 101.7211840
  63.3919790  17.6390760 100.4886590  60.6467710  18.8950500 103.5001560
  60.9721120  18.0614250 103.1603790  61.4348040  19.4179020 103.6479890
  57.3802500  12.9281980  89.5476620  56.7556680  12.9241850  90.2729930
  57.2932620  12.0612940  89.1512590  56.3019580  13.8518610  96.5260390
  56.5991910  14.7581440  96.4452410  56.8505140  13.3637390  95.9119960
  54.0557900  18.4304850  92.3952040  53.8298820  18.2142020  93.2998660
  53.2750430  18.8633310  92.0498010  61.2855660  18.4368220  90.9942690
  60.6864550  19.1604020  90.8106310  61.8335270  18.3745000  90.2119140
  56.4957110  19.3290430 103.0612310  56.4000710  18.3885160 102.9112710
  57.3389090  19.5505500 102.6660380  59.8920530  17.0731760  93.0245970
  60.2850100  17.3903960  92.2114660  60.2537380  16.1943640  93.1390490
  51.6267650  15.7404100 101.2146090  51.2331040  16.5879310 101.4218870
  50.9386050  15.1030470 101.4054730  58.2012700  15.8239070 104.2842830
  57.5111020  15.6311270 104.9188920  58.9445000  16.1073710 104.8167130
  48.9284700  13.6632560  95.2476170  48.6397750  14.2335420  95.9601150
  49.6730460  13.1837010  95.6107400  56.9153060  16.3391710  95.5249240
  56.9189120  15.8981660  94.6753780  57.8104180  16.6609040  95.6321060
  52.7655440  16.2218200  94.4843450  52.4255490  16.6993430  95.2410500
  52.0032760  15.7683320  94.1244550  56.9773210  17.3403790  88.5156000
  57.0986030  17.2990270  89.4641820  56.5921720  18.2027940  88.3602730
  60.9401580  15.1171190  96.5319690  60.9574320  15.5679840  97.3761540
  60.6917160  14.2176830  96.7453130  55.9894710  19.6504930  87.9139300
  55.4211610  19.2023180  87.2875210  56.6983710  20.0097710  87.3804450
  64.3672330  12.5303370 102.3706070  64.6918100  11.7993030 102.8964050
  64.4028840  12.2117010 101.4687060  51.0663890  23.5516950 101.7906030
  50.6818680  22.9110620 102.3888990  51.3776080  24.2553070 102.3600760
  57.2161030  20.3993490  97.2714650  57.5831160  19.9252060  98.0175990
  57.0266090  21.2735060  97.6122990  50.0801520  15.1437180  93.4008120
  49.7948440  14.7792850  94.2386740  50.0180380  14.4117640  92.7871260
  55.0060400  19.4402130  99.5898860  54.7017470  20.3194110  99.8149220
  55.9606860  19.5001920  99.6256300  53.5342190  23.6463120  90.1865710
  52.7604450  23.1060740  90.0264430  54.2636820  23.1269730  89.8483470
  59.7540110  14.0366440  90.1221490  58.9404720  13.5379610  90.0466800
  59.5602060  14.8764690  89.7057840  62.4688500  18.4086090  88.4183650
  63.3568120  18.7203320  88.2434990  62.4393590  17.5358340  88.0264230
  58.4649090  24.5809780  89.0971820  58.8064790  25.3252010  88.6015140
  57.6361800  24.8940900  89.4596650  51.0624130  20.2804870 100.7370220
  50.7039070  20.9458720 101.3243560  50.7678690  19.4488420 101.1082840
  54.2637250  20.7389110 103.6209770  53.9637390  20.8846290 102.7237590
  55.0348490  20.1794400 103.5283160  64.7402770  19.7197930  87.8863510
  64.6566490  20.1512150  87.0359950  65.4596960  20.1796280  88.3190330
  65.8176910  22.1765450 100.9633480  65.0925100  22.7694230 100.7662870
  66.3452370  22.1688990 100.1646850  57.4339780  24.6623310  91.8687740
  58.1210910  25.2092520  92.2495330  56.6472200  25.2064040  91.9037350
  56.7366990  21.6669340  91.4813100  57.1929770  22.4774590  91.7073290
  56.3855200  21.3492480  92.3131590  52.6378770  12.0106990  91.9535620
  52.5093400  12.0024890  92.9020540  51.8140790  12.3490080  91.6026630
  64.1587400  25.4656650  87.1521990  63.9324980  24.7487090  87.7446630
  63.7683600  25.2169090  86.3143740  49.6372700  13.7698110 101.4142320
  48.9231220  13.9695030 102.0194930  50.0567740  12.9937680 101.7857120
  55.9572050  26.8754710  88.7440120  55.9482150  27.6084400  88.1284630
  55.0370410  26.6286290  88.8367080  61.1311480  16.2620420  99.1643770
  61.4992300  15.4415630  99.4923340  60.2709680  16.3222310  99.5799420
  64.4973510  15.2177360  89.9731330  63.8686670  15.3223030  89.2589560
  64.0025430  15.4374140  90.7625210  58.9431650  26.9382950  87.4065310
  59.0443630  26.7346940  86.4767290  58.0433390  26.6841230  87.6113090
  56.4657540  17.4963310  91.3889210  55.7573690  17.9649650  91.8302820
  56.7502020  16.8385320  92.0234400  58.0913470  18.9160010  99.3881740
  58.5898720  19.3905830 100.0533590  58.2336420  17.9923530  99.5951770
  60.4972970  14.2213970  92.8285000  60.3740750  14.2400100  91.8794510
  61.4457530  14.2692910  92.9483400  57.5849760  29.4569270  92.1012980
  57.8391260  29.4190660  91.1792350  56.6362240  29.3302600  92.0941230
  54.6692560  15.8048390  88.7639920  55.5183090  16.2418540  88.6980110
  54.3023830  16.1168650  89.5911980  65.2980330  15.1327970 100.2310130
  64.7953930  15.8733370 100.5703940  66.1136990  15.5211970  99.9146920
  53.5683980  22.0580750  87.2375450  54.3347250  21.9462110  87.8000880
  53.6458670  21.3618720  86.5852220  56.1747760  28.8131520  86.8468450
  56.9676370  29.1020350  86.3950240  55.6552110  28.3823690  86.1680930
  65.2277930  28.0401650  88.2705190  64.9419440  27.6266790  87.4559370
  65.0297480  28.9689360  88.1505710  49.7901540  21.3120740 103.1564510
  50.2940560  20.7328020 103.7280740  49.0508960  21.5960970 103.6940880
  56.6925160  24.0334930  86.7110800  56.5875800  23.4187280  87.4372180
  56.5249380  23.5100820  85.9273810  56.8439480  22.7191730 102.6900030
  56.0785150  23.2876730 102.6054700  57.0255440  22.4267940 101.7968260
  59.9327890  23.0954960  87.3152790  59.3837990  23.5424260  87.9595530
  60.5547150  22.5904210  87.8390460  51.8224620  19.4550330 104.0514580
  51.8629960  19.1564200 104.9599810  52.6770120  19.8557940 103.8922100
  55.6003010  22.0545880  89.2118090  56.0219430  21.8885750  90.0549480
  55.7253850  21.2446110  88.7173230  53.7630430  18.0342430 102.0189070
  53.2326890  17.5433380 101.3912410  54.4318500  18.4626630 101.4847000
  58.1130650  21.0783490  86.4595190  58.6336310  20.3632510  86.0936340
  58.7599050  21.7169360  86.7595700  63.1330660  19.8408050 103.7869410
  63.7151430  19.0860370 103.6989890  63.3092430  20.3715490 103.0100890
  54.2502730  15.0004800 102.0986360  54.1559600  14.3825550 101.3737230
  53.6700120  15.7271090 101.8716270  57.0164170  13.5578040  99.1313750
  56.5681470  13.5802300  98.2859300  56.3829370  13.1597060  99.7284050
  57.4223720  22.4532370  99.7526190  57.8411830  23.2965100  99.5802430
  56.5032350  22.5904410  99.5232970  59.7587620  20.1848550 101.1364030
  59.8783830  19.5889690 101.8758870  60.6181620  20.2218240 100.7165330
  62.0975520  20.7385740  99.7126540  61.5710740  21.2628360  99.1091680
  62.4406860  21.3713130 100.3436270  54.4961910  18.1279110  86.1576250
  54.2950970  17.2646470  86.5189590  54.3253960  18.0412470  85.2197850
  55.2731140  28.7585380 100.8683920  54.7352230  29.4831440 100.5492620
  55.5265100  28.2815720 100.0781260  56.5256390  16.7269900 102.3939850
  57.1156080  16.4185750 103.0817670  55.7076630  16.2549650 102.5499750
  61.3449820  16.3435710 102.6272870  60.6565340  15.6817250 102.5622860
  62.0655840  15.8973980 103.0721330  61.9750220  12.9387340  88.6863130
  62.2552510  12.0955240  89.0422550  61.2015950  13.1710450  89.2001880
  53.2944710  15.2279730  86.1454130  53.5970610  15.2347160  85.2373280
  54.0339300  14.8777590  86.6421790  58.1293350  29.9936590 101.1270570
  58.0552050  30.8971730 101.4342940  57.2272190  29.6748490 101.0992640
  56.5129640  14.1714350  87.1310330  56.1651640  13.4938340  86.5512780
  56.7142410  13.7103860  87.9453720  58.6778680  29.1595100  88.7496930
  59.5729470  29.4980070  88.7715690  58.7096310  28.4374510  88.1221210
  54.1282560  25.6520190  92.0906160  53.8278100  25.5285160  92.9910070
  54.0220050  24.7928780  91.6821890  66.8974480  25.4316590  86.7932840
  66.0667440  25.4993240  87.2640070  67.0746310  26.3220710  86.4899700
  66.3530940  22.1764070  89.2967040  67.1149850  22.7460720  89.4026730
  66.3685310  21.6091270  90.0675350  66.4050110  22.4698440  86.4539560
  66.6798950  23.3777320  86.3258780  66.2160850  22.4060970  87.3901550
  62.8025720  15.4943290  87.7493190  63.2210600  15.3074270  86.9089850
  62.4961780  14.6422340  88.0596120  50.8911210  21.0854570  98.0678040
  51.2584250  20.9981970  98.9474060  50.3222030  20.3221120  97.9684900
  65.6915070  19.5538950 101.0808510  65.4601160  19.3251700 100.1806460
  65.9519620  20.4738500 101.0353400  50.4427210  17.9963660 101.9736460
  49.5483260  17.9630420 102.3130170  50.9824760  18.1950450 102.7387710
  64.1303140  14.7795380 103.8588210  65.0073320  14.7878780 104.2422210
  64.1423980  14.0426220 103.2480560  65.7556130  18.7164790  98.2695780
  64.8058840  18.6828330  98.3840770  65.9369140  19.6264900  98.0345550
  51.2574730  13.0205800  86.4197060  51.9802860  13.5614740  86.7378280
  51.5299250  12.7469220  85.5438600  65.0666380  17.8898270  90.6868640
  65.5625500  17.6569140  91.4717520  64.8682450  17.0510110  90.2706280
  50.9466920  12.2711990  96.3219680  51.5943110  11.7209370  95.8814840
  51.3668760  12.5255140  97.1435490  66.4953540  16.5259220  93.2206320
  66.3852820  16.3715260  94.1588590  67.2561130  15.9980160  92.9781730
  64.8419260  12.4653350  99.6789320  65.4791480  13.0787490 100.0448510
  64.9894150  12.5014010  98.7338550  67.3843810  14.3567140  86.4612460
  68.3093120  14.2248320  86.2530750  67.3619600  14.4359960  87.4148910
  67.4582300  15.1277800  89.0869170  66.6633800  15.0622920  89.6162080
  67.6625580  16.0628440  89.0754520  50.6998920  12.4267660  99.0645000
  50.3513740  12.8831480  99.8303180  50.3686620  11.5324790  99.1467430
  58.2123740  13.6179540 102.5864420  58.1512630  14.2101370 103.3359830
  59.1524120  13.5105500 102.4414680  60.8498300  13.2749600 102.2256710
  61.4638710  13.5928890 101.5637790  61.3947860  12.7898190 102.8452570
  51.3719560  11.9543860 102.3395770  51.9202550  11.7731910 101.5761880
  51.4374870  11.1637970 102.8752080  61.5906340  11.8381740  98.5526000
  60.7166180  12.1716850  98.3498930  61.4817090  11.3654920  99.3777870
  62.4978320  14.0452610  99.9367720  62.1691680  13.2304370  99.5569450
  63.4460620  14.0022420  99.8133410  51.7763550  25.9107890  99.3004010
  51.0497610  25.2913180  99.2329960  51.8372700  26.3048500  98.4302090
  59.3381160  12.7551580  97.4918910  58.5552950  13.2297080  97.7715670
  59.0444090  11.8506410  97.3832090  63.8902230  13.4574680  95.5368000
  64.3310320  13.4019780  94.6889600  63.6209820  14.3732690  95.6078180
  65.7540800  13.0889920  93.5476820  65.6929200  12.1451140  93.4007840
  66.5332830  13.1970010  94.0930280  50.0593550  29.2282280  92.5100770
  49.8915590  28.5952960  93.2082660  49.1928060  29.4341680  92.1594960
  50.6821570  13.0599060  90.0132630  51.4400930  13.1727940  89.4396660
  50.2198740  13.8968260  89.9676060  57.2235380  15.1738330  93.0034940
  56.4109890  14.7995220  92.6630820  57.7277020  14.4183410  93.3056130
  61.7260360  11.8380780  94.2418010  62.3289730  12.4100990  94.7166530
  60.9853350  12.4020220  94.0191910  64.8694960  12.2402340  89.5158290
  65.0645590  13.1385790  89.7825720  64.0824830  12.0089420  90.0091240
  51.6656250  27.9215510  89.9550910  51.1403870  28.3023540  89.2512870
  51.5900830  28.5466280  90.6760620  53.0546720  13.5863110  88.5534600
  53.5839480  12.7992910  88.4242550  53.6875040  14.2654300  88.7870130
  55.2484560  13.3238250  91.6079990  54.6187300  12.6225560  91.7750120
  54.7089700  14.0842380  91.3913150  58.1876510  29.9377480 104.2790600
  59.1143820  29.7021750 104.3226560  58.1726940  30.7649480 103.7976630
  66.4221570  29.4803050  91.2764850  66.5973760  28.7940790  90.6325770
  65.7243140  30.0050100  90.8841520  55.3740120  12.6022230 104.0432480
  55.0924390  13.1055830 103.2793300  55.7559820  11.8043980 103.6774610
  54.2649220  29.8697890  88.8300160  54.9968040  29.5857170  88.2824050
  54.5242890  29.6311170  89.7199540  53.4264010  25.9862620  88.8346490
  52.7972890  26.4547720  89.3832320  53.5411840  25.1411840  89.2692680
  61.9755580  12.0175810 104.6212950  61.8621030  12.3370420 105.5164470
  62.7925320  12.4188320 104.3250230  63.0339200  26.2207490  75.6456090
  62.5720730  25.4494730  75.9743260  63.8464750  26.2473560  76.1508540
  59.2602510  28.5065500  75.2660080  58.6413950  28.9623000  74.6954520
  60.1154290  28.6616960  74.8649780  50.6447430  15.0959010  79.1983740
  50.4650270  14.1984760  79.4786500  50.2427510  15.6430880  79.8730690
  63.2670050  14.7925310  74.0324390  64.0879670  14.3021880  74.0749870
  63.3004130  15.3822970  74.7856230  53.7394770  13.2785430  81.1602090
  53.7413210  13.7957820  80.3547990  52.9099080  12.8015610  81.1372020
  60.1265860  23.3904740  72.6591990  59.5083130  23.8554190  72.0954710
  60.6389110  24.0832220  73.0761500  63.5031530  16.7325690  76.8051930
  62.7987100  17.0210580  77.3855040  63.8643690  17.5425800  76.4451490
  65.1194310  26.3500820  79.0679410  64.4357830  27.0199930  79.0596080
  65.6588600  26.5481470  78.3024270  66.5718450  16.1780480  77.1961140
  65.6243360  16.2119460  77.3276570  66.8968440  16.9919430  77.5810500
  57.1037990  12.4777660  75.4917130  57.4112970  11.9224550  74.7752630
  56.1738690  12.6122120  75.3090120  62.6553050  28.1944950  77.7824590
  62.6680210  27.7907240  76.9146850  62.1028270  28.9692240  77.6786020
  62.0538490  23.0974790  79.1107200  62.4707280  22.8834900  78.2760660
  62.7778310  23.3547580  79.6815820  63.6542700  28.3290660  80.8359290
  63.1773260  29.1362850  80.6431900  62.9704490  27.6768990  80.9885500
  54.6575520  24.4940480  83.8243990  53.7604050  24.7180450  84.0717390
  54.6828390  24.6175420  82.8755390  61.6980740  21.3433600  69.7385250
  62.1374020  20.5056030  69.5923070  62.4109160  21.9763000  69.8249390
  59.8076120  26.2829670  73.7066490  60.2472030  27.0254000  73.2921880
  59.7463010  26.5256240  74.6305450  65.2797880  12.5976410  68.0526290
  64.9670540  12.6903240  68.9525360  66.0410350  13.1757440  68.0023720
  51.7980020  19.9636210  72.5103630  51.6777620  20.6898300  71.8984900
  51.4880910  19.1939120  72.0331540  67.2341910  28.0902600  85.9050680
  67.7101630  28.5685490  86.5839760  67.8549070  28.0220090  85.1796180
  49.4365390  23.1351350  78.3172270  49.5145810  23.2700120  77.3727990
  50.0507070  22.4267240  78.5100390  50.6813020  24.8351540  74.7278450
  50.2741100  24.9766130  73.8732050  51.5726030  24.5511700  74.5249660
  66.6375160  25.2815450  83.0650690  66.7638220  25.0427330  82.1467870
  66.6796540  24.4499990  83.5372770  62.4746300  29.2698790  71.0629500
  62.3147440  28.9801730  71.9611330  62.3093010  28.4938920  70.5274730
  54.9534680  29.0497320  72.8401120  54.7777160  28.1332860  72.6268920
  54.0990420  29.4084610  73.0798920  61.7422360  28.4049060  73.6975990
  62.1979310  27.6238440  74.0114610  62.0814880  29.1155880  74.2417170
  49.4924910  24.1765520  80.8566730  49.6555950  23.7070880  80.0386100
  49.9577360  23.6689080  81.5215570  58.5513490  16.1739800  81.4962620
  58.0892860  16.3822820  82.3082560  58.1491600  15.3599150  81.1933290
  57.3802500  12.9281980  70.7733130  56.7556680  12.9241850  71.4986440
  57.2932620  12.0612940  70.3769100  56.3019580  13.8518610  77.7516900
  56.5991910  14.7581440  77.6708920  56.8505140  13.3637390  77.1376470
  56.4957110  19.3290430  84.2868820  56.4000710  18.3885160  84.1369220
  57.3389090  19.5505500  83.8916890  51.6267650  15.7404100  82.4402600
  51.2331040  16.5879310  82.6475380  50.9386050  15.1030470  82.6311240
  58.2012700  15.8239070  85.5099340  57.5111020  15.6311270  86.1445430
  58.9445000  16.1073710  86.0423640  48.9284700  13.6632560  76.4732680
  48.6397750  14.2335420  77.1857660  49.6730460  13.1837010  76.8363910
  49.1154930  17.6052680  67.6835400  49.0329600  18.5483440  67.8250390
  48.7637990  17.4627590  66.8047750  60.9401580  15.1171190  77.7576200
  60.9574320  15.5679840  78.6018050  60.6917160  14.2176830  77.9709640
  55.9894710  19.6504930  69.1395810  55.4211610  19.2023180  68.5131720
  56.6983710  20.0097710  68.6060960  64.3672330  12.5303370  83.5962580
  64.6918100  11.7993030  84.1220560  64.4028840  12.2117010  82.6943570
  53.5342190  23.6463120  71.4122220  52.7604450  23.1060740  71.2520940
  54.2636820  23.1269730  71.0739980  64.2930170  22.6428480  77.2048610
  65.0129290  23.1383770  76.8144720  64.0911990  21.9646370  76.5602480
  59.7540110  14.0366440  71.3478000  58.9404720  13.5379610  71.2723310
  59.5602060  14.8764690  70.9314350  59.6748970  22.7137540  83.0917610
  59.6086280  21.7933210  82.8375200  59.0454110  22.8112980  83.8062250
  58.4649090  24.5809780  70.3228330  58.8064790  25.3252010  69.8271650
  57.6361800  24.8940900  70.6853160  54.2637250  20.7389110  84.8466280
  53.9637390  20.8846290  83.9494100  55.0348490  20.1794400  84.7539670
  59.6065700  25.5358110  82.8421410  59.6210240  24.6039070  82.6240320
  58.8990800  25.6217870  83.4811180  61.3476500  23.9025620  75.6873840
  61.7000320  23.3053750  75.0275210  60.4638830  23.5769850  75.8582090
  57.4339780  24.6623310  73.0944250  58.1210910  25.2092520  73.4751840
  56.6472200  25.2064040  73.1293860  52.6378770  12.0106990  73.1792130
  52.5093400  12.0024890  74.1277050  51.8140790  12.3490080  72.8283140
  62.0869300  25.9802930  81.8575420  62.4225540  26.5669620  82.5353340
  61.1669640  25.8495640  82.0873210  49.9403430  29.4923510  69.1522960
  50.3001070  30.0912850  68.4980230  49.7995770  30.0383400  69.9257990
  49.6372700  13.7698110  82.6398830  48.9231220  13.9695030  83.2451440
  50.0567740  12.9937680  83.0113630  57.9157880  26.0294260  85.0263480
  57.5954750  25.3103500  85.5709170  57.2416240  26.7049330  85.0999540
  55.9572050  26.8754710  69.9696630  55.9482150  27.6084400  69.3541140
  55.0370410  26.6286290  70.0623590  64.4973510  15.2177360  71.1987840
  63.8686670  15.3223030  70.4846070  64.0025430  15.4374140  71.9881720
  58.9431650  26.9382950  68.6321820  59.0443630  26.7346940  67.7023800
  58.0433390  26.6841230  68.8369600  60.4972970  14.2213970  74.0541510
  60.3740750  14.2400100  73.1051020  61.4457530  14.2692910  74.1739910
  57.5849760  29.4569270  73.3269490  57.8391260  29.4190660  72.4048860
  56.6362240  29.3302600  73.3197740  65.2980330  15.1327970  81.4566640
  64.7953930  15.8733370  81.7960450  66.1136990  15.5211970  81.1403430
  53.5683980  22.0580750  68.4631960  54.3347250  21.9462110  69.0257390
  53.6458670  21.3618720  67.8108730  52.2630740  19.4905820  69.1464850
  52.3434330  18.5433330  69.2582250  53.1550490  19.8212700  69.2525510
  49.9490930  25.7074780  72.1240900  49.0230710  25.9495920  72.1146310
  50.4147360  26.5349040  72.0025650  56.1747760  28.8131520  68.0724960
  56.9676370  29.1020350  67.6206750  55.6552110  28.3823690  67.3937440
  60.9068360  24.9327150  85.3860380  60.3006520  24.9558750  84.6456130
  60.6022470  24.2010190  85.9227630  62.3368730  28.6607440  83.9969790
  63.2890480  28.5765460  83.9470030  62.1896950  29.3249150  84.6703580
  65.2277930  28.0401650  69.4961700  64.9419440  27.6266790  68.6815880
  65.0297480  28.9689360  69.3762220  56.6925160  24.0334930  67.9367310
  56.5875800  23.4187280  68.6628690  56.5249380  23.5100820  67.1530320
  59.9327890  23.0954960  68.5409300  59.3837990  23.5424260  69.1852040
  60.5547150  22.5904210  69.0646970  55.6003010  22.0545880  70.4374600
  56.0219430  21.8885750  71.2805990  55.7253850  21.2446110  69.9429740
  58.1130650  21.0783490  67.6851700  58.6336310  20.3632510  67.3192850
  58.7599050  21.7169360  67.9852210  54.2502730  15.0004800  83.3242870
  54.1559600  14.3825550  82.5993740  53.6700120  15.7271090  83.0972780
  57.0164170  13.5578040  80.3570260  56.5681470  13.5802300  79.5115810
  56.3829370  13.1597060  80.9540560  54.4961910  18.1279110  67.3832760
  54.2950970  17.2646470  67.7446100  54.3253960  18.0412470  66.4454360
  56.5256390  16.7269900  83.6196360  57.1156080  16.4185750  84.3074180
  55.7076630  16.2549650  83.7756260  61.9750220  12.9387340  69.9119640
  62.2552510  12.0955240  70.2679060  61.2015950  13.1710450  70.4258390
  53.2944710  15.2279730  67.3710640  53.5970610  15.2347160  66.4629790
  54.0339300  14.8777590  67.8678300  56.5129640  14.1714350  68.3566840
  56.1651640  13.4938340  67.7769290  56.7142410  13.7103860  69.1710230
  58.6778680  29.1595100  69.9753440  59.5729470  29.4980070  69.9972200
  58.7096310  28.4374510  69.3477720  49.5320640  27.3211180  75.6560700
  49.8623650  26.4532240  75.4239340  49.9611640  27.5269700  76.4865660
  54.1282560  25.6520190  73.3162670  53.8278100  25.5285160  74.2166580
  54.0220050  24.7928780  72.9078400  50.0210850  28.1881770  78.3942330
  49.5841840  28.3682570  79.2266480  50.5888530  28.9456390  78.2524050
  65.6573030  27.6898770  82.6819640  65.0575020  27.7491330  81.9383560
  65.7866930  26.7503750  82.8116490  62.8025720  15.4943290  68.9749700
  63.2210600  15.3074270  68.1346360  62.4961780  14.6422340  69.2852630
  64.1303140  14.7795380  85.0844720  65.0073320  14.7878780  85.4678720
  64.1423980  14.0426220  84.4737070  49.0673360  17.9100930  70.6956540
  48.1637440  18.1731130  70.5208200  49.5513980  18.1812100  69.9156500
  65.5766410  18.6324920  75.9732740  66.1003890  18.1387570  75.3422910
  66.1625830  18.7675280  76.7180310  51.2574730  13.0205800  67.6453570
  51.9802860  13.5614740  67.9634790  51.5299250  12.7469220  66.7695110
  65.0666380  17.8898270  71.9125150  65.5625500  17.6569140  72.6974030
  64.8682450  17.0510110  71.4962790  50.9466920  12.2711990  77.5476190
  51.5943110  11.7209370  77.1071350  51.3668760  12.5255140  78.3692000
  66.4953540  16.5259220  74.4462830  66.3852820  16.3715260  75.3845100
  67.2561130  15.9980160  74.2038240  64.8419260  12.4653350  80.9045830
  65.4791480  13.0787490  81.2705020  64.9894150  12.5014010  79.9595060
  67.3843810  14.3567140  67.6868970  68.3093120  14.2248320  67.4787260
  67.3619600  14.4359960  68.6405420  67.4582300  15.1277800  70.3125680
  66.6633800  15.0622920  70.8418590  67.6625580  16.0628440  70.3011030
  64.4000720  29.1669350  74.3064070  64.9959790  28.8453920  73.6298490
  64.6578870  28.6941170  75.0977340  50.6998920  12.4267660  80.2901510
  50.3513740  12.8831480  81.0559690  50.3686620  11.5324790  80.3723940
  58.2123740  13.6179540  83.8120930  58.1512630  14.2101370  84.5616340
  59.1524120  13.5105500  83.6671190  60.8498300  13.2749600  83.4513220
  61.4638710  13.5928890  82.7894300  61.3947860  12.7898190  84.0709080
  67.2673480  29.1741230  80.8575060  66.7731760  29.5710100  80.1402190
  66.6586770  28.5490440  81.2512340  51.3719560  11.9543860  83.5652280
  51.9202550  11.7731910  82.8018390  51.4374870  11.1637970  84.1008590
  61.5906340  11.8381740  79.7782510  60.7166180  12.1716850  79.5755440
  61.4817090  11.3654920  80.6034380  62.4978320  14.0452610  81.1624230
  62.1691680  13.2304370  80.7825960  63.4460620  14.0022420  81.0389920
  64.9512930  29.8164650  78.1361800  64.4915900  30.5680460  77.7619820
  64.3225390  29.0971120  78.0776600  59.3381160  12.7551580  78.7175420
  58.5552950  13.2297080  78.9972180  59.0444090  11.8506410  78.6088600
  63.8902230  13.4574680  76.7624510  64.3310320  13.4019780  75.9146110
  63.6209820  14.3732690  76.8334690  65.7540800  13.0889920  74.7733330
  65.6929200  12.1451140  74.6264350  66.5332830  13.1970010  75.3186790
  50.0593550  29.2282280  73.7357280  49.8915590  28.5952960  74.4339170
  49.1928060  29.4341680  73.3851470  61.7260360  11.8380780  75.4674520
  62.3289730  12.4100990  75.9423040  60.9853350  12.4020220  75.2448420
  64.8694960  12.2402340  70.7414800  65.0645590  13.1385790  71.0082230
  64.0824830  12.0089420  71.2347750  51.6656250  27.9215510  71.1807420
  51.1403870  28.3023540  70.4769380  51.5900830  28.5466280  71.9017130
  58.1876510  29.9377480  85.5047110  59.1143820  29.7021750  85.5483070
  58.1726940  30.7649480  85.0233140  55.3740120  12.6022230  85.2688990
  55.0924390  13.1055830  84.5049810  55.7559820  11.8043980  84.9031120
  54.2649220  29.8697890  70.0556670  54.9968040  29.5857170  69.5080560
  54.5242890  29.6311170  70.9456050  53.4264010  25.9862620  70.0603000
  52.7972890  26.4547720  70.6088830  53.5411840  25.1411840  70.4949190
  61.9755580  12.0175810  85.8469460  61.8621030  12.3370420  86.7420980
  62.7925320  12.4188320  85.5506740  64.7554070  29.1647340  85.3288150
  65.5479390  28.6696570  85.1214110  65.0487220  29.8437480  85.9363760
  60.8813730  20.0368280  56.2104200  60.8007780  19.1222890  55.9395910
  60.4678150  20.5335350  55.5043910  59.0131770  21.8147300  58.0913470
  58.2373870  21.3347740  58.3812040  59.6644700  21.1352950  57.9169630
  53.0297600  22.1267110  58.9689230  52.1982480  21.8715820  59.3685740
  53.6378580  22.1977880  59.7047150  63.0339200  26.2207490  56.8712600
  62.5720730  25.4494730  57.1999770  63.8464750  26.2473560  57.3765050
  53.0098860  26.1607200  59.1647250  53.3126900  25.2704940  58.9857470
  53.7542450  26.7177420  58.9369500  51.4389550  17.0869000  52.7531620
  50.5506250  17.4284970  52.6511500  51.7230740  16.8869320  51.8612450
  59.2602510  28.5065500  56.4916590  58.6413950  28.9623000  55.9211030
  60.1154290  28.6616960  56.0906290  58.4540760  24.4904490  58.0983630
  58.3849040  23.5494430  57.9372760  59.2160620  24.5805900  58.6706200
  50.6447430  15.0959010  60.4240250  50.4650270  14.1984760  60.7043010
  50.2427510  15.6430880  61.0987200  59.4845930  17.2974870  58.3252560
  59.8610750  16.4246750  58.2126230  59.3865440  17.6333570  57.4343000
  53.6150940  15.6700500  53.7870000  53.7217690  16.5704230  54.0938760
  52.7043300  15.6218470  53.4964650  63.2670050  14.7925310  55.2580900
  64.0879670  14.3021880  55.3006380  63.3004130  15.3822970  56.0112740
  51.2634100  17.5919510  59.0322590  51.9444210  17.8557880  59.6509990
  50.9482150  16.7520380  59.3660600  55.4558670  18.6386870  58.1195180
  55.9636890  19.1367840  58.7600200  55.9871910  17.8622070  57.9434540
  67.5569600  16.8092060  61.8224530  66.8521770  17.1973770  61.3039640
  67.8227520  17.5042350  62.4245460  53.7394770  13.2785430  62.3858600
  53.7413210  13.7957820  61.5804500  52.9099080  12.8015610  62.3628530
  54.9897620  22.9180610  60.5632100  54.6567000  23.5449530  61.2053170
  55.1664300  23.4442490  59.7833770  63.5031530  16.7325690  58.0308440
  62.7987100  17.0210580  58.6111550  63.8643690  17.5425800  57.6708000
  53.4210100  14.9895390  60.3929050  53.7626910  15.8337440  60.0982920
  52.4825910  15.1379130  60.5094390  54.2016720  24.8861410  62.3781280
  54.8190720  25.5612490  62.0965730  53.3409840  25.2949390  62.2868780
  49.4949060  24.0761270  51.2588130  49.1177040  24.5648370  50.5273030
  49.7522130  24.7486550  51.8894660  65.1194310  26.3500820  60.2935920
  64.4357830  27.0199930  60.2852590  65.6588600  26.5481470  59.5280780
  66.5718450  16.1780480  58.4217650  65.6243360  16.2119460  58.5533080
  66.8968440  16.9919430  58.8067010  57.1037990  12.4777660  56.7173640
  57.4112970  11.9224550  56.0009140  56.1738690  12.6122120  56.5346630
  62.6553050  28.1944950  59.0081100  62.6680210  27.7907240  58.1403360
  62.1028270  28.9692240  58.9042530  63.9498470  24.9161170  54.0971270
  63.8394800  23.9735500  54.2220690  63.9466720  25.2776810  54.9834030
  62.0538490  23.0974790  60.3363710  62.4707280  22.8834900  59.5017170
  62.7778310  23.3547580  60.9072330  59.4787830  16.8143490  50.4500920
  58.5391500  16.9757450  50.5353380  59.7971090  17.5329170  49.9036910
  66.0000590  21.4962010  60.4279950  65.1719220  21.5655100  59.9530080
  66.5951070  22.0816320  59.9595780  62.9642600  18.2831330  61.3734820
  62.5513780  19.1085040  61.6274810  62.2318550  17.6976370  61.1811180
  55.0975390  21.0691230  56.2353490  54.6932390  20.3568480  55.7399390
  55.1838510  20.7244470  57.1241530  55.5657090  24.7558790  58.3992700
  55.2685380  24.1504260  57.7200480  56.5156910  24.7936100  58.2882060
  53.8104010  17.8434440  60.0152530  54.3618600  17.9529780  59.2405780
  54.3247520  18.2172040  60.7307760  63.6542700  28.3290660  62.0615800
  63.1773260  29.1362850  61.8688410  62.9704490  27.6768990  62.2142010
  54.6575520  24.4940480  65.0500500  53.7604050  24.7180450  65.2973900
  54.6828390  24.6175420  64.1011900  53.4846740  21.3653800  63.6257870
  53.3454510  22.2376600  63.9945270  52.6028100  21.0226610  63.4805810
  59.8076120  26.2829670  54.9323000  60.2472030  27.0254000  54.5178390
  59.7463010  26.5256240  55.8561960  55.2827090  27.3075500  65.8343020
  55.2542520  27.7118450  64.9671450  55.1192060  26.3785860  65.6714620
  65.2797880  12.5976410  49.2782800  64.9670540  12.6903240  50.1781870
  66.0410350  13.1757440  49.2280230  51.7980020  19.9636210  53.7360140
  51.6777620  20.6898300  53.1241410  51.4880910  19.1939120  53.2588050
  50.6813020  24.8351540  55.9534960  50.2741100  24.9766130  55.0988560
  51.5726030  24.5511700  55.7506170  66.6375160  25.2815450  64.2907200
  66.7638220  25.0427330  63.3724380  66.6796540  24.4499990  64.7629280
  60.4991900  28.9843450  62.8602010  61.0136570  28.8951460  63.6624440
  59.6560980  29.3303150  63.1529920  62.4746300  29.2698790  52.2886010
  62.3147440  28.9801730  53.1867840  62.3093010  28.4938920  51.7531240
  61.7422360  28.4049060  54.9232500  62.1979310  27.6238440  55.2371120
  62.0814880  29.1155880  55.4673680  66.4899170  17.3347910  65.2556940
  65.8743440  17.8427580  64.7272400  66.1695590  16.4346240  65.1982880
  54.2643680  13.3071280  57.1183810  53.8211830  14.0880820  56.7868330
  54.8228670  13.6301170  57.8254750  58.5513490  16.1739800  62.7219130
  58.0892860  16.3822820  63.5339070  58.1491600  15.3599150  62.4189800
  63.5518000  17.3948750  63.8515790  62.7011590  17.0954500  64.1724860
  63.3919790  17.6390760  62.9399610  60.6467710  18.8950500  65.9514580
  60.9721120  18.0614250  65.6116810  61.4348040  19.4179020  66.0992910
  57.3802500  12.9281980  51.9989640  56.7556680  12.9241850  52.7242950
  57.2932620  12.0612940  51.6025610  56.3019580  13.8518610  58.9773410
  56.5991910  14.7581440  58.8965430  56.8505140  13.3637390  58.3632980
  54.0557900  18.4304850  54.8465060  53.8298820  18.2142020  55.7511680
  53.2750430  18.8633310  54.5011030  61.2855660  18.4368220  53.4455710
  60.6864550  19.1604020  53.2619330  61.8335270  18.3745000  52.6632160
  56.4957110  19.3290430  65.5125330  56.4000710  18.3885160  65.3625730
  57.3389090  19.5505500  65.1173400  59.8920530  17.0731760  55.4758990
  60.2850100  17.3903960  54.6627680  60.2537380  16.1943640  55.5903510
  51.6267650  15.7404100  63.6659110  51.2331040  16.5879310  63.8731890
  50.9386050  15.1030470  63.8567750  58.2012700  15.8239070  66.7355850
  57.5111020  15.6311270  67.3701940  58.9445000  16.1073710  67.2680150
  48.9284700  13.6632560  57.6989190  48.6397750  14.2335420  58.4114170
  49.6730460  13.1837010  58.0620420  49.1154930  17.6052680  48.9091910
  49.0329600  18.5483440  49.0506900  48.7637990  17.4627590  48.0304260
  60.4775670  19.6637510  59.5709770  59.7456790  20.1724320  59.9199870
  60.0800010  18.8467490  59.2698550  56.9153060  16.3391710  57.9762260
  56.9189120  15.8981660  57.1266800  57.8104180  16.6609040  58.0834080
  52.7655440  16.2218200  56.9356470  52.4255490  16.6993430  57.6923520
  52.0032760  15.7683320  56.5757570  56.9773210  17.3403790  50.9669020
  57.0986030  17.2990270  51.9154840  56.5921720  18.2027940  50.8115750
  60.9401580  15.1171190  58.9832710  60.9574320  15.5679840  59.8274560
  60.6917160  14.2176830  59.1966150  64.3672330  12.5303370  64.8219090
  64.6918100  11.7993030  65.3477070  64.4028840  12.2117010  63.9200080
  57.2161030  20.3993490  59.7227670  57.5831160  19.9252060  60.4689010
  57.0266090  21.2735060  60.0636010  50.0801520  15.1437180  55.8521140
  49.7948440  14.7792850  56.6899760  50.0180380  14.4117640  55.2384280
  55.0060400  19.4402130  62.0411880  54.7017470  20.3194110  62.2662240
  55.9606860  19.5001920  62.0769320  53.5342190  23.6463120  52.6378730
  52.7604450  23.1060740  52.4777450  54.2636820  23.1269730  52.2996490
  64.2930170  22.6428480  58.4305120  65.0129290  23.1383770  58.0401230
  64.0911990  21.9646370  57.7858990  59.7540110  14.0366440  52.5734510
  58.9404720  13.5379610  52.4979820  59.5602060  14.8764690  52.1570860
  59.6748970  22.7137540  64.3174120  59.6086280  21.7933210  64.0631710
  59.0454110  22.8112980  65.0318760  62.4688500  18.4086090  50.8696670
  63.3568120  18.7203320  50.6948010  62.4393590  17.5358340  50.4777250
  53.5779590  23.3143500  56.2757540  54.0958260  22.5111760  56.2214430
  53.1263610  23.2522640  57.1174370  54.2637250  20.7389110  66.0722790
  53.9637390  20.8846290  65.1750610  55.0348490  20.1794400  65.9796180
  59.6065700  25.5358110  64.0677920  59.6210240  24.6039070  63.8496830
  58.8990800  25.6217870  64.7067690  64.7402770  19.7197930  50.3376530
  64.6566490  20.1512150  49.4872970  65.4596960  20.1796280  50.7703350
  65.8176910  22.1765450  63.4146500  65.0925100  22.7694230  63.2175890
  66.3452370  22.1688990  62.6159870  65.7690020  26.5740190  53.0658660
  65.1266180  25.9195810  53.3402380  65.3820680  26.9795280  52.2899330
  61.3476500  23.9025620  56.9130350  61.7000320  23.3053750  56.2531720
  60.4638830  23.5769850  57.0838600  57.4339780  24.6623310  54.3200760
  58.1210910  25.2092520  54.7008350  56.6472200  25.2064040  54.3550370
  49.5732180  20.2796130  49.8117840  50.4427030  20.5620930  50.0953760
  49.0822500  21.0932000  49.6966650  59.0399600  27.1775680  61.1618420
  59.6841820  27.3835060  61.8391840  59.4029040  26.4164080  60.7089270
  52.6378770  12.0106990  54.4048640  52.5093400  12.0024890  55.3533560
  51.8140790  12.3490080  54.0539650  60.3131680  25.1808030  59.8795870
  60.9553910  24.4801190  59.9928040  60.8381030  25.9606470  59.6992760
  62.0869300  25.9802930  63.0831930  62.4225540  26.5669620  63.7609850
  61.1669640  25.8495640  63.3129720  49.6372700  13.7698110  63.8655340
  48.9231220  13.9695030  64.4707950  50.0567740  12.9937680  64.2370140
  57.9157880  26.0294260  66.2519990  57.5954750  25.3103500  66.7965680
  57.2416240  26.7049330  66.3256050  51.5578690  22.0969600  51.9399900
  50.9506640  22.8368500  51.9495200  52.0328040  22.1868960  51.1138100
  61.1311480  16.2620420  61.6156790  61.4992300  15.4415630  61.9436360
  60.2709680  16.3222310  62.0312440  64.4973510  15.2177360  52.4244350
  63.8686670  15.3223030  51.7102580  64.0025430  15.4374140  53.2138230
  58.9431650  26.9382950  49.8578330  59.0443630  26.7346940  48.9280310
  58.0433390  26.6841230  50.0626110  56.4657540  17.4963310  53.8402230
  55.7573690  17.9649650  54.2815840  56.7502020  16.8385320  54.4747420
  58.0913470  18.9160010  61.8394760  58.5898720  19.3905830  62.5046610
  58.2336420  17.9923530  62.0464790  60.4972970  14.2213970  55.2798020
  60.3740750  14.2400100  54.3307530  61.4457530  14.2692910  55.3996420
  54.6692560  15.8048390  51.2152940  55.5183090  16.2418540  51.1493130
  54.3023830  16.1168650  52.0425000  65.2980330  15.1327970  62.6823150
  64.7953930  15.8733370  63.0216960  66.1136990  15.5211970  62.3659940
  63.5902340  20.3761150  56.1284510  62.6492480  20.3911380  56.3032200
  63.9046410  19.5897110  56.5744810  53.5683980  22.0580750  49.6888470
  54.3347250  21.9462110  50.2513900  53.6458670  21.3618720  49.0365240
  52.2630740  19.4905820  50.3721360  52.3434330  18.5433330  50.4838760
  53.1550490  19.8212700  50.4782020  65.5927920  27.5470000  57.8038770
  65.7175340  28.3701170  58.2762580  66.4593480  27.3360730  57.4562920
  53.0645450  29.6401210  57.4755900  53.8007930  29.0916670  57.7464470
  53.4486370  30.5057220  57.3361890  49.9490930  25.7074780  53.3497410
  49.0230710  25.9495920  53.3402820  50.4147360  26.5349040  53.2282160
  52.0703730  28.8247280  66.6641480  52.8716460  29.1459330  67.0776880
  51.5555550  28.4642860  67.3861390  60.9068360  24.9327150  66.6116890
  60.3006520  24.9558750  65.8712640  60.6022470  24.2010190  67.1484140
  62.3368730  28.6607440  65.2226300  63.2890480  28.5765460  65.1726540
  62.1896950  29.3249150  65.8960090  65.2277930  28.0401650  50.7218210
  64.9419440  27.6266790  49.9072390  65.0297480  28.9689360  50.6018730
  56.8439480  22.7191730  65.1413050  56.0785150  23.2876730  65.0567720
  57.0255440  22.4267940  64.2481280  51.8224620  19.4550330  66.5027600
  51.8629960  19.1564200  67.4112830  52.6770120  19.8557940  66.3435120
  53.7630430  18.0342430  64.4702090  53.2326890  17.5433380  63.8425430
  54.4318500  18.4626630  63.9360020  62.6608490  22.5011890  64.2343280
  63.0749510  22.6556970  65.0833700  61.7259490  22.6267110  64.3969060
  63.1330660  19.8408050  66.2382430  63.7151430  19.0860370  66.1502910
  63.3092430  20.3715490  65.4613910  54.2502730  15.0004800  64.5499380
  54.1559600  14.3825550  63.8250250  53.6700120  15.7271090  64.3229290
  57.0164170  13.5578040  61.5826770  56.5681470  13.5802300  60.7372320
  56.3829370  13.1597060  62.1797070  57.4223720  22.4532370  62.2039210
  57.8411830  23.2965100  62.0315450  56.5032350  22.5904410  61.9745990
  59.7587620  20.1848550  63.5877050  59.8783830  19.5889690  64.3271890
  60.6181620  20.2218240  63.1678350  62.0975520  20.7385740  62.1639560
  61.5710740  21.2628360  61.5604700  62.4406860  21.3713130  62.7949290
  54.4961910  18.1279110  48.6089270  54.2950970  17.2646470  48.9702610
  54.3253960  18.0412470  47.6710870  55.2731140  28.7585380  63.3196940
  54.7352230  29.4831440  63.0005640  55.5265100  28.2815720  62.5294280
  56.5256390  16.7269900  64.8452870  57.1156080  16.4185750  65.5330690
  55.7076630  16.2549650  65.0012770  61.3449820  16.3435710  65.0785890
  60.6565340  15.6817250  65.0135880  62.0655840  15.8973980  65.5234350
  61.9750220  12.9387340  51.1376150  62.2552510  12.0955240  51.4935570
  61.2015950  13.1710450  51.6514900  53.2944710  15.2279730  48.5967150
  53.5970610  15.2347160  47.6886300  54.0339300  14.8777590  49.0934810
  58.1293350  29.9936590  63.5783590  58.0552050  30.8971730  63.8855960
  57.2272190  29.6748490  63.5505660  56.5129640  14.1714350  49.5823350
  56.1651640  13.4938340  49.0025800  56.7142410  13.7103860  50.3966740
  52.3174840  24.5322150  49.4296950  52.7549710  25.0751820  50.0854530
  52.8022570  23.7069100  49.4393290  49.5320640  27.3211180  56.8817210
  49.8623650  26.4532240  56.6495850  49.9611640  27.5269700  57.7122170
  54.1282560  25.6520190  54.5419180  53.8278100  25.5285160  55.4423090
  54.0220050  24.7928780  54.1334910  50.0210850  28.1881770  59.6198840
  49.5841840  28.3682570  60.4522990  50.5888530  28.9456390  59.4780560
  65.6573030  27.6898770  63.9076150  65.0575020  27.7491330  63.1640070
  65.7866930  26.7503750  64.0373000  66.8974480  25.4316590  49.2445860
  66.0667440  25.4993240  49.7153090  67.0746310  26.3220710  48.9412720
  66.3530940  22.1764070  51.7480060  67.1149850  22.7460720  51.8539750
  66.3685310  21.6091270  52.5188370  49.8535280  20.7002000  55.9787720
  49.1984120  20.4313640  55.3347420  50.6913230  20.5906480  55.5289700
  67.3590910  23.0314170  56.5921990  67.7299740  22.2481490  56.1857960
  67.9992840  23.7203270  56.4139290  64.3424670  24.4150750  62.0052310
  63.5284510  24.8447910  62.2678100  64.7498870  25.0269160  61.3921360
  66.4050110  22.4698440  48.9052580  66.6798950  23.3777320  48.7771800
  66.2160850  22.4060970  49.8414570  62.8025720  15.4943290  50.2006210
  63.2210600  15.3074270  49.3602870  62.4961780  14.6422340  50.5109140
  66.3015450  20.4067430  53.8982010  65.9259050  19.6395360  53.4663300
  65.5718570  20.7890130  54.3856940  65.6915070  19.5538950  63.5321530
  65.4601160  19.3251700  62.6319480  65.9519620  20.4738500  63.4866420
  50.4427210  17.9963660  64.4249480  49.5483260  17.9630420  64.7643190
  50.9824760  18.1950450  65.1900730  64.1303140  14.7795380  66.3101230
  65.0073320  14.7878780  66.6935230  64.1423980  14.0426220  65.6993580
  49.0673360  17.9100930  51.9213050  48.1637440  18.1731130  51.7464710
  49.5513980  18.1812100  51.1413010  65.5766410  18.6324920  57.1989250
  66.1003890  18.1387570  56.5679420  66.1625830  18.7675280  57.9436820
  65.7556130  18.7164790  60.7208800  64.8058840  18.6828330  60.8353790
  65.9369140  19.6264900  60.4858570  51.6100570  16.9666470  49.8307430
  52.3192270  16.5449690  49.3454710  50.8940510  17.0341700  49.1990780
  51.2574730  13.0205800  48.8710080  51.9802860  13.5614740  49.1891300
  51.5299250  12.7469220  47.9951620  65.0666380  17.8898270  53.1381660
  65.5625500  17.6569140  53.9230540  64.8682450  17.0510110  52.7219300
  50.9466920  12.2711990  58.7732700  51.5943110  11.7209370  58.3327860
  51.3668760  12.5255140  59.5948510  66.4953540  16.5259220  55.6719340
  66.3852820  16.3715260  56.6101610  67.2561130  15.9980160  55.4294750
  64.8419260  12.4653350  62.1302340  65.4791480  13.0787490  62.4961530
  64.9894150  12.5014010  61.1851570  67.3843810  14.3567140  48.9125480
  68.3093120  14.2248320  48.7043770  67.3619600  14.4359960  49.8661930
  67.4582300  15.1277800  51.5382190  66.6633800  15.0622920  52.0675100
  67.6625580  16.0628440  51.5267540  64.4000720  29.1669350  55.5320580
  64.9959790  28.8453920  54.8555000  64.6578870  28.6941170  56.3233850
  50.6998920  12.4267660  61.5158020  50.3513740  12.8831480  62.2816200
  50.3686620  11.5324790  61.5980450  56.0069320  27.1546850  61.2820930
  55.7660680  27.4221410  60.3951450  56.9471960  27.3252580  61.3371790
  58.2123740  13.6179540  65.0377440  58.1512630  14.2101370  65.7872850
  59.1524120  13.5105500  64.8927700  60.8498300  13.2749600  64.6769730
  61.4638710  13.5928890  64.0150810  61.3947860  12.7898190  65.2965590
  67.2673480  29.1741230  62.0831570  66.7731760  29.5710100  61.3658700
  66.6586770  28.5490440  62.4768850  51.3719560  11.9543860  64.7908790
  51.9202550  11.7731910  64.0274900  51.4374870  11.1637970  65.3265100
  52.1451320  28.5449510  62.8008990  51.5511640  28.4134210  63.5399030
  52.1375160  27.7087650  62.3351090  61.5906340  11.8381740  61.0039020
  60.7166180  12.1716850  60.8011950  61.4817090  11.3654920  61.8290890
  62.4978320  14.0452610  62.3880740  62.1691680  13.2304370  62.0082470
  63.4460620  14.0022420  62.2646430  64.9512930  29.8164650  59.3618310
  64.4915900  30.5680460  58.9876330  64.3225390  29.0971120  59.3033110
  51.7763550  25.9107890  61.7517030  51.0497610  25.2913180  61.6842980
  51.8372700  26.3048500  60.8815110  55.3808650  28.1252890  58.5366440
  55.8973670  27.5140250  58.0114700  56.0306030  28.6281670  59.0277450
  58.1204150  29.0161380  59.3635420  58.4081960  28.7615680  58.4868430
  58.6327370  28.4638740  59.9540990  59.3381160  12.7551580  59.9431930
  58.5552950  13.2297080  60.2228690  59.0444090  11.8506410  59.8345110
  63.8902230  13.4574680  57.9881020  64.3310320  13.4019780  57.1402620
  63.6209820  14.3732690  58.0591200  65.7540800  13.0889920  55.9989840
  65.6929200  12.1451140  55.8520860  66.5332830  13.1970010  56.5443300
  50.0593550  29.2282280  54.9613790  49.8915590  28.5952960  55.6595680
  49.1928060  29.4341680  54.6107980  50.6821570  13.0599060  52.4645650
  51.4400930  13.1727940  51.8909680  50.2198740  13.8968260  52.4189080
  57.2235380  15.1738330  55.4547960  56.4109890  14.7995220  55.1143840
  57.7277020  14.4183410  55.7569150  61.7260360  11.8380780  56.6931030
  62.3289730  12.4100990  57.1679550  60.9853350  12.4020220  56.4704930
  64.8694960  12.2402340  51.9671310  65.0645590  13.1385790  52.2338740
  64.0824830  12.0089420  52.4604260  51.6656250  27.9215510  52.4063930
  51.1403870  28.3023540  51.7025890  51.5900830  28.5466280  53.1273640
  53.0546720  13.5863110  51.0047620  53.5839480  12.7992910  50.8755570
  53.6875040  14.2654300  51.2383150  55.2484560  13.3238250  54.0593010
  54.6187300  12.6225560  54.2263140  54.7089700  14.0842380  53.8426170
  58.1876510  29.9377480  66.7303620  59.1143820  29.7021750  66.7739580
  58.1726940  30.7649480  66.2489650  66.4221570  29.4803050  53.7277870
  66.5973760  28.7940790  53.0838790  65.7243140  30.0050100  53.3354540
  55.3740120  12.6022230  66.4945500  55.0924390  13.1055830  65.7306320
  55.7559820  11.8043980  66.1287630  53.4264010  25.9862620  51.2859510
  52.7972890  26.4547720  51.8345340  53.5411840  25.1411840  51.7205700
  61.9755580  12.0175810  67.0725970  61.8621030  12.3370420  67.9677490
  62.7925320  12.4188320  66.7763250  64.7554070  29.1647340  66.5544660
  65.5479390  28.6696570  66.3470620  65.0487220  29.8437480  67.1620270
  60.8813730  20.0368280  37.4360710  60.8007780  19.1222890  37.1652420
  60.4678150  20.5335350  36.7300420  59.0131770  21.8147300  39.3169980
  58.2373870  21.3347740  39.6068550  59.6644700  21.1352950  39.1426140
  53.0297600  22.1267110  40.1945740  52.1982480  21.8715820  40.5942250
  53.6378580  22.1977880  40.9303660  63.0339200  26.2207490  38.0969110
  62.5720730  25.4494730  38.4256280  63.8464750  26.2473560  38.6021560
  53.0098860  26.1607200  40.3903760  53.3126900  25.2704940  40.2113980
  53.7542450  26.7177420  40.1626010  51.4389550  17.0869000  33.9788130
  50.5506250  17.4284970  33.8768010  51.7230740  16.8869320  33.0868960
  49.4022560  19.6874650  39.8627830  49.9738670  18.9196850  39.8631470
  49.4024100  19.9863410  38.9534440  59.2602510  28.5065500  37.7173100
  58.6413950  28.9623000  37.1467540  60.1154290  28.6616960  37.3162800
  58.4540760  24.4904490  39.3240140  58.3849040  23.5494430  39.1629270
  59.2160620  24.5805900  39.8962710  50.6447430  15.0959010  41.6496760
  50.4650270  14.1984760  41.9299520  50.2427510  15.6430880  42.3243710
  59.4845930  17.2974870  39.5509070  59.8610750  16.4246750  39.4382740
  59.3865440  17.6333570  38.6599510  53.6150940  15.6700500  35.0126510
  53.7217690  16.5704230  35.3195270  52.7043300  15.6218470  34.7221160
  63.2670050  14.7925310  36.4837410  64.0879670  14.3021880  36.5262890
  63.3004130  15.3822970  37.2369250  51.2634100  17.5919510  40.2579100
  51.9444210  17.8557880  40.8766500  50.9482150  16.7520380  40.5917110
  55.4558670  18.6386870  39.3451690  55.9636890  19.1367840  39.9856710
  55.9871910  17.8622070  39.1691050  67.5569600  16.8092060  43.0481040
  66.8521770  17.1973770  42.5296150  67.8227520  17.5042350  43.6501970
  53.7394770  13.2785430  43.6115110  53.7413210  13.7957820  42.8061010
  52.9099080  12.8015610  43.5885040  60.1265860  23.3904740  35.1105010
  59.5083130  23.8554190  34.5467730  60.6389110  24.0832220  35.5274520
  54.9897620  22.9180610  41.7888610  54.6567000  23.5449530  42.4309680
  55.1664300  23.4442490  41.0090280  63.5031530  16.7325690  39.2564950
  62.7987100  17.0210580  39.8368060  63.8643690  17.5425800  38.8964510
  53.4210100  14.9895390  41.6185560  53.7626910  15.8337440  41.3239430
  52.4825910  15.1379130  41.7350900  54.2016720  24.8861410  43.6037790
  54.8190720  25.5612490  43.3222240  53.3409840  25.2949390  43.5125290
  49.4949060  24.0761270  32.4844640  49.1177040  24.5648370  31.7529540
  49.7522130  24.7486550  33.1151170  66.5718450  16.1780480  39.6474160
  65.6243360  16.2119460  39.7789590  66.8968440  16.9919430  40.0323520
  57.1037990  12.4777660  37.9430150  57.4112970  11.9224550  37.2265650
  56.1738690  12.6122120  37.7603140  62.6553050  28.1944950  40.2337610
  62.6680210  27.7907240  39.3659870  62.1028270  28.9692240  40.1299040
  63.9498470  24.9161170  35.3227780  63.8394800  23.9735500  35.4477200
  63.9466720  25.2776810  36.2090540  62.0538490  23.0974790  41.5620220
  62.4707280  22.8834900  40.7273680  62.7778310  23.3547580  42.1328840
  59.4918750  20.5426490  34.6790270  58.5648030  20.4763870  34.9078740
  59.6443570  21.4806620  34.5645510  59.4787830  16.8143490  31.6757430
  58.5391500  16.9757450  31.7609890  59.7971090  17.5329170  31.1293420
  66.0000590  21.4962010  41.6536460  65.1719220  21.5655100  41.1786590
  66.5951070  22.0816320  41.1852290  63.5216040  22.1046790  35.1825520
  62.9028460  21.7666340  34.5351820  63.5040490  21.4606550  35.8904710
  62.9642600  18.2831330  42.5991330  62.5513780  19.1085040  42.8531320
  62.2318550  17.6976370  42.4067690  55.0975390  21.0691230  37.4610000
  54.6932390  20.3568480  36.9655900  55.1838510  20.7244470  38.3498040
  55.5657090  24.7558790  39.6249210  55.2685380  24.1504260  38.9456990
  56.5156910  24.7936100  39.5138570  53.8104010  17.8434440  41.2409040
  54.3618600  17.9529780  40.4662290  54.3247520  18.2172040  41.9564270
  63.6542700  28.3290660  43.2872310  63.1773260  29.1362850  43.0944920
  62.9704490  27.6768990  43.4398520  54.6575520  24.4940480  46.2757010
  53.7604050  24.7180450  46.5230410  54.6828390  24.6175420  45.3268410
  61.6980740  21.3433600  32.1898270  62.1374020  20.5056030  32.0436090
  62.4109160  21.9763000  32.2762410  53.4846740  21.3653800  44.8514380
  53.3454510  22.2376600  45.2201780  52.6028100  21.0226610  44.7062320
  59.8076120  26.2829670  36.1579510  60.2472030  27.0254000  35.7434900
  59.7463010  26.5256240  37.0818470  65.2797880  12.5976410  30.5039310
  64.9670540  12.6903240  31.4038380  66.0410350  13.1757440  30.4536740
  51.7980020  19.9636210  34.9616650  51.6777620  20.6898300  34.3497920
  51.4880910  19.1939120  34.4844560  67.2341910  28.0902600  48.3563700
  67.7101630  28.5685490  49.0352780  67.8549070  28.0220090  47.6309200
  49.4365390  23.1351350  40.7685290  49.5145810  23.2700120  39.8241010
  50.0507070  22.4267240  40.9613410  50.6813020  24.8351540  37.1791470
  50.2741100  24.9766130  36.3245070  51.5726030  24.5511700  36.9762680
  66.6375160  25.2815450  45.5163710  66.7638220  25.0427330  44.5980890
  66.6796540  24.4499990  45.9885790  60.4991900  28.9843450  44.0858520
  61.0136570  28.8951460  44.8880950  59.6560980  29.3303150  44.3786430
  54.9534680  29.0497320  35.2914140  54.7777160  28.1332860  35.0781940
  54.0990420  29.4084610  35.5311940  62.1772430  26.7786350  32.0740520
  61.4837590  26.7763640  31.4142800  62.9195290  26.3545670  31.6434690
  61.7422360  28.4049060  36.1489010  62.1979310  27.6238440  36.4627630
  62.0814880  29.1155880  36.6930190  66.4899170  17.3347910  46.4813450
  65.8743440  17.8427580  45.9528910  66.1695590  16.4346240  46.4239390
  49.4924910  24.1765520  43.3079750  49.6555950  23.7070880  42.4899120
  49.9577360  23.6689080  43.9728590  54.2643680  13.3071280  38.3440320
  53.8211830  14.0880820  38.0124840  54.8228670  13.6301170  39.0511260
  58.5513490  16.1739800  43.9475640  58.0892860  16.3822820  44.7595580
  58.1491600  15.3599150  43.6446310  63.5518000  17.3948750  45.0772300
  62.7011590  17.0954500  45.3981370  63.3919790  17.6390760  44.1656120
  57.3802500  12.9281980  33.2246150  56.7556680  12.9241850  33.9499460
  57.2932620  12.0612940  32.8282120  56.3019580  13.8518610  40.2029920
  56.5991910  14.7581440  40.1221940  56.8505140  13.3637390  39.5889490
  54.0557900  18.4304850  36.0721570  53.8298820  18.2142020  36.9768190
  53.2750430  18.8633310  35.7267540  61.2855660  18.4368220  34.6712220
  60.6864550  19.1604020  34.4875840  61.8335270  18.3745000  33.8888670
  56.4957110  19.3290430  46.7381840  56.4000710  18.3885160  46.5882240
  57.3389090  19.5505500  46.3429910  59.8920530  17.0731760  36.7015500
  60.2850100  17.3903960  35.8884190  60.2537380  16.1943640  36.8160020
  51.6267650  15.7404100  44.8915620  51.2331040  16.5879310  45.0988400
  50.9386050  15.1030470  45.0824260  58.2012700  15.8239070  47.9612360
  57.5111020  15.6311270  48.5958450  58.9445000  16.1073710  48.4936660
  48.9284700  13.6632560  38.9245700  48.6397750  14.2335420  39.6370680
  49.6730460  13.1837010  39.2876930  49.1154930  17.6052680  30.1348420
  49.0329600  18.5483440  30.2763410  48.7637990  17.4627590  29.2560770
  60.4775670  19.6637510  40.7966280  59.7456790  20.1724320  41.1456380
  60.0800010  18.8467490  40.4955060  56.9153060  16.3391710  39.2018770
  56.9189120  15.8981660  38.3523310  57.8104180  16.6609040  39.3090590
  52.7655440  16.2218200  38.1612980  52.4255490  16.6993430  38.9180030
  52.0032760  15.7683320  37.8014080  56.9773210  17.3403790  32.1925530
  57.0986030  17.2990270  33.1411350  56.5921720  18.2027940  32.0372260
  60.9401580  15.1171190  40.2089220  60.9574320  15.5679840  41.0531070
  60.6917160  14.2176830  40.4222660  55.9894710  19.6504930  31.5908830
  55.4211610  19.2023180  30.9644740  56.6983710  20.0097710  31.0573980
  64.3672330  12.5303370  46.0475600  64.6918100  11.7993030  46.5733580
  64.4028840  12.2117010  45.1456590  51.0663890  23.5516950  45.4675560
  50.6818680  22.9110620  46.0658520  51.3776080  24.2553070  46.0370290
  57.2161030  20.3993490  40.9484180  57.5831160  19.9252060  41.6945520
  57.0266090  21.2735060  41.2892520  50.0801520  15.1437180  37.0777650
  49.7948440  14.7792850  37.9156270  50.0180380  14.4117640  36.4640790
  55.0060400  19.4402130  43.2668390  54.7017470  20.3194110  43.4918750
  55.9606860  19.5001920  43.3025830  53.5342190  23.6463120  33.8635240
  52.7604450  23.1060740  33.7033960  54.2636820  23.1269730  33.5253000
  64.2930170  22.6428480  39.6561630  65.0129290  23.1383770  39.2657740
  64.0911990  21.9646370  39.0115500  59.7540110  14.0366440  33.7991020
  58.9404720  13.5379610  33.7236330  59.5602060  14.8764690  33.3827370
  62.4688500  18.4086090  32.0953180  63.3568120  18.7203320  31.9204520
  62.4393590  17.5358340  31.7033760  53.5779590  23.3143500  37.5014050
  54.0958260  22.5111760  37.4470940  53.1263610  23.2522640  38.3430880
  58.4649090  24.5809780  32.7741350  58.8064790  25.3252010  32.2784670
  57.6361800  24.8940900  33.1366180  51.0624130  20.2804870  44.4139750
  50.7039070  20.9458720  45.0013090  50.7678690  19.4488420  44.7852370
  54.2637250  20.7389110  47.2979300  53.9637390  20.8846290  46.4007120
  55.0348490  20.1794400  47.2052690  59.6065700  25.5358110  45.2934430
  59.6210240  24.6039070  45.0753340  58.8990800  25.6217870  45.9324200
  64.7402770  19.7197930  31.5633040  64.6566490  20.1512150  30.7129480
  65.4596960  20.1796280  31.9959860  65.8176910  22.1765450  44.6403010
  65.0925100  22.7694230  44.4432400  66.3452370  22.1688990  43.8416380
  65.7690020  26.5740190  34.2915170  65.1266180  25.9195810  34.5658890
  65.3820680  26.9795280  33.5155840  61.3476500  23.9025620  38.1386860
  61.7000320  23.3053750  37.4788230  60.4638830  23.5769850  38.3095110
  57.4339780  24.6623310  35.5457270  58.1210910  25.2092520  35.9264860
  56.6472200  25.2064040  35.5806880  49.5732180  20.2796130  31.0374350
  50.4427030  20.5620930  31.3210270  49.0822500  21.0932000  30.9223160
  56.7366990  21.6669340  35.1582630  57.1929770  22.4774590  35.3842820
  56.3855200  21.3492480  35.9901120  59.0399600  27.1775680  42.3874930
  59.6841820  27.3835060  43.0648350  59.4029040  26.4164080  41.9345780
  52.6378770  12.0106990  35.6305150  52.5093400  12.0024890  36.5790070
  51.8140790  12.3490080  35.2796160  60.3131680  25.1808030  41.1052380
  60.9553910  24.4801190  41.2184550  60.8381030  25.9606470  40.9249270
  64.1587400  25.4656650  30.8291520  63.9324980  24.7487090  31.4216160
  63.7683600  25.2169090  29.9913270  62.0869300  25.9802930  44.3088440
  62.4225540  26.5669620  44.9866360  61.1669640  25.8495640  44.5386230
  49.9403430  29.4923510  31.6035980  50.3001070  30.0912850  30.9493250
  49.7995770  30.0383400  32.3771010  49.6372700  13.7698110  45.0911850
  48.9231220  13.9695030  45.6964460  50.0567740  12.9937680  45.4626650
  63.7403650  23.3828590  32.4905680  63.4525350  23.8441280  33.2783560
  64.5355820  22.9226360  32.7589900  49.9245290  27.7578370  46.0778380
  50.0336410  26.8173110  45.9373770  49.2725850  28.0233120  45.4292110
  57.9157880  26.0294260  47.4776500  57.5954750  25.3103500  48.0222190
  57.2416240  26.7049330  47.5512560  55.9572050  26.8754710  32.4209650
  55.9482150  27.6084400  31.8054160  55.0370410  26.6286290  32.5136610
  51.5578690  22.0969600  33.1656410  50.9506640  22.8368500  33.1751710
  52.0328040  22.1868960  32.3394610  61.1311480  16.2620420  42.8413300
  61.4992300  15.4415630  43.1692870  60.2709680  16.3222310  43.2568950
  64.4973510  15.2177360  33.6500860  63.8686670  15.3223030  32.9359090
  64.0025430  15.4374140  34.4394740  58.9431650  26.9382950  31.0834840
  59.0443630  26.7346940  30.1536820  58.0433390  26.6841230  31.2882620
  56.4657540  17.4963310  35.0658740  55.7573690  17.9649650  35.5072350
  56.7502020  16.8385320  35.7003930  58.0913470  18.9160010  43.0651270
  58.5898720  19.3905830  43.7303120  58.2336420  17.9923530  43.2721300
  60.4972970  14.2213970  36.5054530  60.3740750  14.2400100  35.5564040
  61.4457530  14.2692910  36.6252930  57.5849760  29.4569270  35.7782510
  57.8391260  29.4190660  34.8561880  56.6362240  29.3302600  35.7710760
  54.6692560  15.8048390  32.4409450  55.5183090  16.2418540  32.3749640
  54.3023830  16.1168650  33.2681510  65.2980330  15.1327970  43.9079660
  64.7953930  15.8733370  44.2473470  66.1136990  15.5211970  43.5916450
  63.5902340  20.3761150  37.3541020  62.6492480  20.3911380  37.5288710
  63.9046410  19.5897110  37.8001320  53.5683980  22.0580750  30.9144980
  54.3347250  21.9462110  31.4770410  53.6458670  21.3618720  30.2621750
  52.2630740  19.4905820  31.5977870  52.3434330  18.5433330  31.7095270
  53.1550490  19.8212700  31.7038530  49.9490930  25.7074780  34.5753920
  49.0230710  25.9495920  34.5659330  50.4147360  26.5349040  34.4538670
  56.1747760  28.8131520  30.5237980  56.9676370  29.1020350  30.0719770
  55.6552110  28.3823690  29.8450460  62.3368730  28.6607440  46.4482810
  63.2890480  28.5765460  46.3983050  62.1896950  29.3249150  47.1216600
  65.2277930  28.0401650  31.9474720  64.9419440  27.6266790  31.1328900
  65.0297480  28.9689360  31.8275240  49.7901540  21.3120740  46.8334040
  50.2940560  20.7328020  47.4050270  49.0508960  21.5960970  47.3710410
  56.6925160  24.0334930  30.3880330  56.5875800  23.4187280  31.1141710
  56.5249380  23.5100820  29.6043340  59.9327890  23.0954960  30.9922320
  59.3837990  23.5424260  31.6365060  60.5547150  22.5904210  31.5159990
  51.8224620  19.4550330  47.7284110  51.8629960  19.1564200  48.6369340
  52.6770120  19.8557940  47.5691630  55.6003010  22.0545880  32.8887620
  56.0219430  21.8885750  33.7319010  55.7253850  21.2446110  32.3942760
  53.7630430  18.0342430  45.6958600  53.2326890  17.5433380  45.0681940
  54.4318500  18.4626630  45.1616530  58.1130650  21.0783490  30.1364720
  58.6336310  20.3632510  29.7705870  58.7599050  21.7169360  30.4365230
  63.1330660  19.8408050  47.4638940  63.7151430  19.0860370  47.3759420
  63.3092430  20.3715490  46.6870420  54.2502730  15.0004800  45.7755890
  54.1559600  14.3825550  45.0506760  53.6700120  15.7271090  45.5485800
  57.0164170  13.5578040  42.8083280  56.5681470  13.5802300  41.9628830
  56.3829370  13.1597060  43.4053580  57.4223720  22.4532370  43.4295720
  57.8411830  23.2965100  43.2571960  56.5032350  22.5904410  43.2002500
  59.7587620  20.1848550  44.8133560  59.8783830  19.5889690  45.5528400
  60.6181620  20.2218240  44.3934860  62.0975520  20.7385740  43.3896070
  61.5710740  21.2628360  42.7861210  62.4406860  21.3713130  44.0205800
  54.4961910  18.1279110  29.8345780  54.2950970  17.2646470  30.1959120
  54.3253960  18.0412470  28.8967380  55.2731140  28.7585380  44.5453450
  54.7352230  29.4831440  44.2262150  55.5265100  28.2815720  43.7550790
  56.5256390  16.7269900  46.0709380  57.1156080  16.4185750  46.7587200
  55.7076630  16.2549650  46.2269280  61.3449820  16.3435710  46.3042400
  60.6565340  15.6817250  46.2392390  62.0655840  15.8973980  46.7490860
  61.9750220  12.9387340  32.3632660  62.2552510  12.0955240  32.7192080
  61.2015950  13.1710450  32.8771410  53.2944710  15.2279730  29.8223660
  53.5970610  15.2347160  28.9142810  54.0339300  14.8777590  30.3191320
  56.5129640  14.1714350  30.8079860  56.1651640  13.4938340  30.2282310
  56.7142410  13.7103860  31.6223250  58.6778680  29.1595100  32.4266460
  59.5729470  29.4980070  32.4485220  58.7096310  28.4374510  31.7990740
  52.3174840  24.5322150  30.6553460  52.7549710  25.0751820  31.3111040
  52.8022570  23.7069100  30.6649800  49.5320640  27.3211180  38.1073720
  49.8623650  26.4532240  37.8752360  49.9611640  27.5269700  38.9378680
  54.1282560  25.6520190  35.7675690  53.8278100  25.5285160  36.6679600
  54.0220050  24.7928780  35.3591420  65.6573030  27.6898770  45.1332660
  65.0575020  27.7491330  44.3896580  65.7866930  26.7503750  45.2629510
  66.8974480  25.4316590  30.4702370  66.0667440  25.4993240  30.9409600
  67.0746310  26.3220710  30.1669230  66.3530940  22.1764070  32.9736570
  67.1149850  22.7460720  33.0796260  66.3685310  21.6091270  33.7444880
  49.8535280  20.7002000  37.2044230  49.1984120  20.4313640  36.5603930
  50.6913230  20.5906480  36.7546210  67.3590910  23.0314170  37.8178500
  67.7299740  22.2481490  37.4114470  67.9992840  23.7203270  37.6395800
  64.3424670  24.4150750  43.2308820  63.5284510  24.8447910  43.4934610
  64.7498870  25.0269160  42.6177870  66.4050110  22.4698440  30.1309090
  66.6798950  23.3777320  30.0028310  66.2160850  22.4060970  31.0671080
  62.8025720  15.4943290  31.4262720  63.2210600  15.3074270  30.5859380
  62.4961780  14.6422340  31.7365650  66.3015450  20.4067430  35.1238520
  65.9259050  19.6395360  34.6919810  65.5718570  20.7890130  35.6113450
  50.8911210  21.0854570  41.7447570  51.2584250  20.9981970  42.6243590
  50.3222030  20.3221120  41.6454430  65.6915070  19.5538950  44.7578040
  65.4601160  19.3251700  43.8575990  65.9519620  20.4738500  44.7122930
  50.4427210  17.9963660  45.6505990  49.5483260  17.9630420  45.9899700
  50.9824760  18.1950450  46.4157240  64.1303140  14.7795380  47.5357740
  65.0073320  14.7878780  47.9191740  64.1423980  14.0426220  46.9250090
  49.0673360  17.9100930  33.1469560  48.1637440  18.1731130  32.9721220
  49.5513980  18.1812100  32.3669520  65.5766410  18.6324920  38.4245760
  66.1003890  18.1387570  37.7935930  66.1625830  18.7675280  39.1693330
  65.7556130  18.7164790  41.9465310  64.8058840  18.6828330  42.0610300
  65.9369140  19.6264900  41.7115080  51.6100570  16.9666470  31.0563940
  52.3192270  16.5449690  30.5711220  50.8940510  17.0341700  30.4247290
  51.2574730  13.0205800  30.0966590  51.9802860  13.5614740  30.4147810
  51.5299250  12.7469220  29.2208130  65.0666380  17.8898270  34.3638170
  65.5625500  17.6569140  35.1487050  64.8682450  17.0510110  33.9475810
  50.9466920  12.2711990  39.9989210  51.5943110  11.7209370  39.5584370
  51.3668760  12.5255140  40.8205020  66.4953540  16.5259220  36.8975850
  66.3852820  16.3715260  37.8358120  67.2561130  15.9980160  36.6551260
  64.8419260  12.4653350  43.3558850  65.4791480  13.0787490  43.7218040
  64.9894150  12.5014010  42.4108080  67.3843810  14.3567140  30.1381990
  68.3093120  14.2248320  29.9300280  67.3619600  14.4359960  31.0918440
  67.4582300  15.1277800  32.7638700  66.6633800  15.0622920  33.2931610
  67.6625580  16.0628440  32.7524050  50.6998920  12.4267660  42.7414530
  50.3513740  12.8831480  43.5072710  50.3686620  11.5324790  42.8236960
  52.3063290  25.5987260  46.9067720  52.2632920  25.2280170  47.7882180
  52.4374300  26.5364830  47.0469540  56.0069320  27.1546850  42.5077440
  55.7660680  27.4221410  41.6207960  56.9471960  27.3252580  42.5628300
  58.2123740  13.6179540  46.2633950  58.1512630  14.2101370  47.0129360
  59.1524120  13.5105500  46.1184210  60.8498300  13.2749600  45.9026240
  61.4638710  13.5928890  45.2407320  61.3947860  12.7898190  46.5222100
  51.3719560  11.9543860  46.0165300  51.9202550  11.7731910  45.2531410
  51.4374870  11.1637970  46.5521610  52.1451320  28.5449510  44.0265500
  51.5511640  28.4134210  44.7655540  52.1375160  27.7087650  43.5607600
  61.5906340  11.8381740  42.2295530  60.7166180  12.1716850  42.0268460
  61.4817090  11.3654920  43.0547400  62.4978320  14.0452610  43.6137250
  62.1691680  13.2304370  43.2338980  63.4460620  14.0022420  43.4902940
  51.7763550  25.9107890  42.9773540  51.0497610  25.2913180  42.9099490
  51.8372700  26.3048500  42.1071620  55.3808650  28.1252890  39.7622950
  55.8973670  27.5140250  39.2371210  56.0306030  28.6281670  40.2533960
  58.1204150  29.0161380  40.5891930  58.4081960  28.7615680  39.7124940
  58.6327370  28.4638740  41.1797500  59.3381160  12.7551580  41.1688440
  58.5552950  13.2297080  41.4485200  59.0444090  11.8506410  41.0601620
  63.8902230  13.4574680  39.2137530  64.3310320  13.4019780  38.3659130
  63.6209820  14.3732690  39.2847710  65.7540800  13.0889920  37.2246350
  65.6929200  12.1451140  37.0777370  66.5332830  13.1970010  37.7699810
  50.0593550  29.2282280  36.1870300  49.8915590  28.5952960  36.8852190
  49.1928060  29.4341680  35.8364490  50.6821570  13.0599060  33.6902160
  51.4400930  13.1727940  33.1166190  50.2198740  13.8968260  33.6445590
  57.2235380  15.1738330  36.6804470  56.4109890  14.7995220  36.3400350
  57.7277020  14.4183410  36.9825660  61.7260360  11.8380780  37.9187540
  62.3289730  12.4100990  38.3936060  60.9853350  12.4020220  37.6961440
  64.8694960  12.2402340  33.1927820  65.0645590  13.1385790  33.4595250
  64.0824830  12.0089420  33.6860770  51.6656250  27.9215510  33.6320440
  51.1403870  28.3023540  32.9282400  51.5900830  28.5466280  34.3530150
  53.0546720  13.5863110  32.2304130  53.5839480  12.7992910  32.1012080
  53.6875040  14.2654300  32.4639660  55.2484560  13.3238250  35.2849520
  54.6187300  12.6225560  35.4519650  54.7089700  14.0842380  35.0682680
  55.3740120  12.6022230  47.7202010  55.0924390  13.1055830  46.9562830
  55.7559820  11.8043980  47.3544140  54.2649220  29.8697890  32.5069690
  54.9968040  29.5857170  31.9593580  54.5242890  29.6311170  33.3969070
  53.4264010  25.9862620  32.5116020  52.7972890  26.4547720  33.0601850
  53.5411840  25.1411840  32.9462210  61.9755580  12.0175810  48.2982480
  61.8621030  12.3370420  49.1934000  62.7925320  12.4188320  48.0019760
  64.7554070  29.1647340  47.7801170  65.5479390  28.6696570  47.5727130
  65.0487220  29.8437480  48.3876780  60.8813730  20.0368280  18.6617220
  60.8007780  19.1222890  18.3908930  60.4678150  20.5335350  17.9556930
  59.0131770  21.8147300  20.5426490  58.2373870  21.3347740  20.8325060
  59.6644700  21.1352950  20.3682650  53.0297600  22.1267110  21.4202250
  52.1982480  21.8715820  21.8198760  53.6378580  22.1977880  22.1560170
  63.0339200  26.2207490  19.3225620  62.5720730  25.4494730  19.6512790
  63.8464750  26.2473560  19.8278070  53.0098860  26.1607200  21.6160270
  53.3126900  25.2704940  21.4370490  53.7542450  26.7177420  21.3882520
  51.4389550  17.0869000  15.2044640  50.5506250  17.4284970  15.1024520
  51.7230740  16.8869320  14.3125470  49.4022560  19.6874650  21.0884340
  49.9738670  18.9196850  21.0887980  49.4024100  19.9863410  20.1790950
  59.2602510  28.5065500  18.9429610  58.6413950  28.9623000  18.3724050
  60.1154290  28.6616960  18.5419310  58.4540760  24.4904490  20.5496650
  58.3849040  23.5494430  20.3885780  59.2160620  24.5805900  21.1219220
  50.6447430  15.0959010  22.8753270  50.4650270  14.1984760  23.1556030
  50.2427510  15.6430880  23.5500220  59.4845930  17.2974870  20.7765580
  59.8610750  16.4246750  20.6639250  59.3865440  17.6333570  19.8856020
  53.6150940  15.6700500  16.2383020  53.7217690  16.5704230  16.5451780
  52.7043300  15.6218470  15.9477670  63.2670050  14.7925310  17.7093920
  64.0879670  14.3021880  17.7519400  63.3004130  15.3822970  18.4625760
  51.2634100  17.5919510  21.4835610  51.9444210  17.8557880  22.1023010
  50.9482150  16.7520380  21.8173620  55.4558670  18.6386870  20.5708200
  55.9636890  19.1367840  21.2113220  55.9871910  17.8622070  20.3947560
  67.5569600  16.8092060  24.2737550  66.8521770  17.1973770  23.7552660
  67.8227520  17.5042350  24.8758480  53.7394770  13.2785430  24.8371620
  53.7413210  13.7957820  24.0317520  52.9099080  12.8015610  24.8141550
  60.1265860  23.3904740  16.3361520  59.5083130  23.8554190  15.7724240
  60.6389110  24.0832220  16.7531030  54.9897620  22.9180610  23.0145120
  54.6567000  23.5449530  23.6566190  55.1664300  23.4442490  22.2346790
  63.5031530  16.7325690  20.4821460  62.7987100  17.0210580  21.0624570
  63.8643690  17.5425800  20.1221020  53.4210100  14.9895390  22.8442070
  53.7626910  15.8337440  22.5495940  52.4825910  15.1379130  22.9607410
  54.2016720  24.8861410  24.8294300  54.8190720  25.5612490  24.5478750
  53.3409840  25.2949390  24.7381800  49.4949060  24.0761270  13.7101150
  49.1177040  24.5648370  12.9786050  49.7522130  24.7486550  14.3407680
  65.1194310  26.3500820  22.7448940  64.4357830  27.0199930  22.7365610
  65.6588600  26.5481470  21.9793800  66.5718450  16.1780480  20.8730670
  65.6243360  16.2119460  21.0046100  66.8968440  16.9919430  21.2580030
  57.1037990  12.4777660  19.1686660  57.4112970  11.9224550  18.4522160
  56.1738690  12.6122120  18.9859650  62.6553050  28.1944950  21.4594120
  62.6680210  27.7907240  20.5916380  62.1028270  28.9692240  21.3555550
  63.9498470  24.9161170  16.5484290  63.8394800  23.9735500  16.6733710
  63.9466720  25.2776810  17.4347050  62.0538490  23.0974790  22.7876730
  62.4707280  22.8834900  21.9530190  62.7778310  23.3547580  23.3585350
  59.4918750  20.5426490  15.9046780  58.5648030  20.4763870  16.1335250
  59.6443570  21.4806620  15.7902020  59.4787830  16.8143490  12.9013940
  58.5391500  16.9757450  12.9866400  59.7971090  17.5329170  12.3549930
  66.0000590  21.4962010  22.8792970  65.1719220  21.5655100  22.4043100
  66.5951070  22.0816320  22.4108800  63.5216040  22.1046790  16.4082030
  62.9028460  21.7666340  15.7608330  63.5040490  21.4606550  17.1161220
  62.9642600  18.2831330  23.8247840  62.5513780  19.1085040  24.0787830
  62.2318550  17.6976370  23.6324200  55.0975390  21.0691230  18.6866510
  54.6932390  20.3568480  18.1912410  55.1838510  20.7244470  19.5754550
  55.5657090  24.7558790  20.8505720  55.2685380  24.1504260  20.1713500
  56.5156910  24.7936100  20.7395080  53.8104010  17.8434440  22.4665550
  54.3618600  17.9529780  21.6918800  54.3247520  18.2172040  23.1820780
  63.6542700  28.3290660  24.5128820  63.1773260  29.1362850  24.3201430
  62.9704490  27.6768990  24.6655030  54.6575520  24.4940480  27.5013520
  53.7604050  24.7180450  27.7486920  54.6828390  24.6175420  26.5524920
  61.6980740  21.3433600  13.4154780  62.1374020  20.5056030  13.2692600
  62.4109160  21.9763000  13.5018920  53.4846740  21.3653800  26.0770890
  53.3454510  22.2376600  26.4458290  52.6028100  21.0226610  25.9318830
  59.8076120  26.2829670  17.3836020  60.2472030  27.0254000  16.9691410
  59.7463010  26.5256240  18.3074980  55.2827090  27.3075500  28.2856040
  55.2542520  27.7118450  27.4184470  55.1192060  26.3785860  28.1227640
  65.2797880  12.5976410  11.7295820  64.9670540  12.6903240  12.6294890
  66.0410350  13.1757440  11.6793250  51.7980020  19.9636210  16.1873160
  51.6777620  20.6898300  15.5754430  51.4880910  19.1939120  15.7101070
  67.2341910  28.0902600  29.5820210  67.7101630  28.5685490  30.2609290
  67.8549070  28.0220090  28.8565710  49.4365390  23.1351350  21.9941800
  49.5145810  23.2700120  21.0497520  50.0507070  22.4267240  22.1869920
  50.6813020  24.8351540  18.4047980  50.2741100  24.9766130  17.5501580
  51.5726030  24.5511700  18.2019190  66.6375160  25.2815450  26.7420220
  66.7638220  25.0427330  25.8237400  66.6796540  24.4499990  27.2142300
  60.4991900  28.9843450  25.3115030  61.0136570  28.8951460  26.1137460
  59.6560980  29.3303150  25.6042940  62.4746300  29.2698790  14.7399030
  62.3147440  28.9801730  15.6380860  62.3093010  28.4938920  14.2044260
  54.9534680  29.0497320  16.5170650  54.7777160  28.1332860  16.3038450
  54.0990420  29.4084610  16.7568450  62.1772430  26.7786350  13.2997030
  61.4837590  26.7763640  12.6399310  62.9195290  26.3545670  12.8691200
  61.7422360  28.4049060  17.3745520  62.1979310  27.6238440  17.6884140
  62.0814880  29.1155880  17.9186700  66.4899170  17.3347910  27.7069960
  65.8743440  17.8427580  27.1785420  66.1695590  16.4346240  27.6495900
  49.4924910  24.1765520  24.5336260  49.6555950  23.7070880  23.7155630
  49.9577360  23.6689080  25.1985100  54.2643680  13.3071280  19.5696830
  53.8211830  14.0880820  19.2381350  54.8228670  13.6301170  20.2767770
  58.5513490  16.1739800  25.1732150  58.0892860  16.3822820  25.9852090
  58.1491600  15.3599150  24.8702820  63.5518000  17.3948750  26.3028810
  62.7011590  17.0954500  26.6237880  63.3919790  17.6390760  25.3912630
  60.6467710  18.8950500  28.4027600  60.9721120  18.0614250  28.0629830
  61.4348040  19.4179020  28.5505930  57.3802500  12.9281980  14.4502660
  56.7556680  12.9241850  15.1755970  57.2932620  12.0612940  14.0538630
  56.3019580  13.8518610  21.4286430  56.5991910  14.7581440  21.3478450
  56.8505140  13.3637390  20.8146000  54.0557900  18.4304850  17.2978080
  53.8298820  18.2142020  18.2024700  53.2750430  18.8633310  16.9524050
  61.2855660  18.4368220  15.8968730  60.6864550  19.1604020  15.7132350
  61.8335270  18.3745000  15.1145180  56.4957110  19.3290430  27.9638350
  56.4000710  18.3885160  27.8138750  57.3389090  19.5505500  27.5686420
  59.8920530  17.0731760  17.9272010  60.2850100  17.3903960  17.1140700
  60.2537380  16.1943640  18.0416530  51.6267650  15.7404100  26.1172130
  51.2331040  16.5879310  26.3244910  50.9386050  15.1030470  26.3080770
  58.2012700  15.8239070  29.1868870  57.5111020  15.6311270  29.8214960
  58.9445000  16.1073710  29.7193170  48.9284700  13.6632560  20.1502210
  48.6397750  14.2335420  20.8627190  49.6730460  13.1837010  20.5133440
  49.1154930  17.6052680  11.3604930  49.0329600  18.5483440  11.5019920
  48.7637990  17.4627590  10.4817280  60.4775670  19.6637510  22.0222790
  59.7456790  20.1724320  22.3712890  60.0800010  18.8467490  21.7211570
  56.9153060  16.3391710  20.4275280  56.9189120  15.8981660  19.5779820
  57.8104180  16.6609040  20.5347100  52.7655440  16.2218200  19.3869490
  52.4255490  16.6993430  20.1436540  52.0032760  15.7683320  19.0270590
  56.9773210  17.3403790  13.4182040  57.0986030  17.2990270  14.3667860
  56.5921720  18.2027940  13.2628770  60.9401580  15.1171190  21.4345730
  60.9574320  15.5679840  22.2787580  60.6917160  14.2176830  21.6479170
  55.9894710  19.6504930  12.8165340  55.4211610  19.2023180  12.1901250
  56.6983710  20.0097710  12.2830490  64.3672330  12.5303370  27.2732110
  64.6918100  11.7993030  27.7990090  64.4028840  12.2117010  26.3713100
  51.0663890  23.5516950  26.6932070  50.6818680  22.9110620  27.2915030
  51.3776080  24.2553070  27.2626800  57.2161030  20.3993490  22.1740690
  57.5831160  19.9252060  22.9202030  57.0266090  21.2735060  22.5149030
  50.0801520  15.1437180  18.3034160  49.7948440  14.7792850  19.1412780
  50.0180380  14.4117640  17.6897300  55.0060400  19.4402130  24.4924900
  54.7017470  20.3194110  24.7175260  55.9606860  19.5001920  24.5282340
  53.5342190  23.6463120  15.0891750  52.7604450  23.1060740  14.9290470
  54.2636820  23.1269730  14.7509510  64.2930170  22.6428480  20.8818140
  65.0129290  23.1383770  20.4914250  64.0911990  21.9646370  20.2372010
  59.7540110  14.0366440  15.0247530  58.9404720  13.5379610  14.9492840
  59.5602060  14.8764690  14.6083880  59.6748970  22.7137540  26.7687140
  59.6086280  21.7933210  26.5144730  59.0454110  22.8112980  27.4831780
  62.4688500  18.4086090  13.3209690  63.3568120  18.7203320  13.1461030
  62.4393590  17.5358340  12.9290270  53.5779590  23.3143500  18.7270560
  54.0958260  22.5111760  18.6727450  53.1263610  23.2522640  19.5687390
  58.4649090  24.5809780  13.9997860  58.8064790  25.3252010  13.5041180
  57.6361800  24.8940900  14.3622690  51.0624130  20.2804870  25.6396260
  50.7039070  20.9458720  26.2269600  50.7678690  19.4488420  26.0108880
  54.2637250  20.7389110  28.5235810  53.9637390  20.8846290  27.6263630
  55.0348490  20.1794400  28.4309200  59.6065700  25.5358110  26.5190940
  59.6210240  24.6039070  26.3009850  58.8990800  25.6217870  27.1580710
  64.7402770  19.7197930  12.7889550  64.6566490  20.1512150  11.9385990
  65.4596960  20.1796280  13.2216370  65.8176910  22.1765450  25.8659520
  65.0925100  22.7694230  25.6688910  66.3452370  22.1688990  25.0672890
  65.7690020  26.5740190  15.5171680  65.1266180  25.9195810  15.7915400
  65.3820680  26.9795280  14.7412350  61.3476500  23.9025620  19.3643370
  61.7000320  23.3053750  18.7044740  60.4638830  23.5769850  19.5351620
  57.4339780  24.6623310  16.7713780  58.1210910  25.2092520  17.1521370
  56.6472200  25.2064040  16.8063390  49.5732180  20.2796130  12.2630860
  50.4427030  20.5620930  12.5466780  49.0822500  21.0932000  12.1479670
  56.7366990  21.6669340  16.3839140  57.1929770  22.4774590  16.6099330
  56.3855200  21.3492480  17.2157630  59.0399600  27.1775680  23.6131440
  59.6841820  27.3835060  24.2904860  59.4029040  26.4164080  23.1602290
  52.6378770  12.0106990  16.8561660  52.5093400  12.0024890  17.8046580
  51.8140790  12.3490080  16.5052670  60.3131680  25.1808030  22.3308890
  60.9553910  24.4801190  22.4441060  60.8381030  25.9606470  22.1505780
  64.1587400  25.4656650  12.0548030  63.9324980  24.7487090  12.6472670
  63.7683600  25.2169090  11.2169780  62.0869300  25.9802930  25.5344950
  62.4225540  26.5669620  26.2122870  61.1669640  25.8495640  25.7642740
  49.9403430  29.4923510  12.8292490  50.3001070  30.0912850  12.1749760
  49.7995770  30.0383400  13.6027520  49.6372700  13.7698110  26.3168360
  48.9231220  13.9695030  26.9220970  50.0567740  12.9937680  26.6883160
  63.7403650  23.3828590  13.7162190  63.4525350  23.8441280  14.5040070
  64.5355820  22.9226360  13.9846410  49.9245290  27.7578370  27.3034890
  50.0336410  26.8173110  27.1630280  49.2725850  28.0233120  26.6548620
  57.9157880  26.0294260  28.7033010  57.5954750  25.3103500  29.2478700
  57.2416240  26.7049330  28.7769070  55.9572050  26.8754710  13.6466160
  55.9482150  27.6084400  13.0310670  55.0370410  26.6286290  13.7393120
  51.5578690  22.0969600  14.3912920  50.9506640  22.8368500  14.4008220
  52.0328040  22.1868960  13.5651120  61.1311480  16.2620420  24.0669810
  61.4992300  15.4415630  24.3949380  60.2709680  16.3222310  24.4825460
  64.4973510  15.2177360  14.8757370  63.8686670  15.3223030  14.1615600
  64.0025430  15.4374140  15.6651250  58.9431650  26.9382950  12.3091350
  59.0443630  26.7346940  11.3793330  58.0433390  26.6841230  12.5139130
  56.4657540  17.4963310  16.2915250  55.7573690  17.9649650  16.7328860
  56.7502020  16.8385320  16.9260440  58.0913470  18.9160010  24.2907780
  58.5898720  19.3905830  24.9559630  58.2336420  17.9923530  24.4977810
  60.4972970  14.2213970  17.7311040  60.3740750  14.2400100  16.7820550
  61.4457530  14.2692910  17.8509440  57.5849760  29.4569270  17.0039020
  57.8391260  29.4190660  16.0818390  56.6362240  29.3302600  16.9967270
  54.6692560  15.8048390  13.6665960  55.5183090  16.2418540  13.6006150
  54.3023830  16.1168650  14.4938020  65.2980330  15.1327970  25.1336170
  64.7953930  15.8733370  25.4729980  66.1136990  15.5211970  24.8172960
  63.5902340  20.3761150  18.5797530  62.6492480  20.3911380  18.7545220
  63.9046410  19.5897110  19.0257830  53.5683980  22.0580750  12.1401490
  54.3347250  21.9462110  12.7026920  53.6458670  21.3618720  11.4878260
  52.2630740  19.4905820  12.8234380  52.3434330  18.5433330  12.9351780
  53.1550490  19.8212700  12.9295040  65.5927920  27.5470000  20.2551790
  65.7175340  28.3701170  20.7275600  66.4593480  27.3360730  19.9075940
  53.0645450  29.6401210  19.9268920  53.8007930  29.0916670  20.1977490
  53.4486370  30.5057220  19.7874910  49.9490930  25.7074780  15.8010430
  49.0230710  25.9495920  15.7915840  50.4147360  26.5349040  15.6795180
  52.0703730  28.8247280  29.1154500  52.8716460  29.1459330  29.5289900
  51.5555550  28.4642860  29.8374410  56.1747760  28.8131520  11.7494490
  56.9676370  29.1020350  11.2976280  55.6552110  28.3823690  11.0706970
  60.9068360  24.9327150  29.0629910  60.3006520  24.9558750  28.3225660
  60.6022470  24.2010190  29.5997160  62.3368730  28.6607440  27.6739320
  63.2890480  28.5765460  27.6239560  62.1896950  29.3249150  28.3473110
  65.2277930  28.0401650  13.1731230  64.9419440  27.6266790  12.3585410
  65.0297480  28.9689360  13.0531750  49.7901540  21.3120740  28.0590550
  50.2940560  20.7328020  28.6306780  49.0508960  21.5960970  28.5966920
  56.6925160  24.0334930  11.6136840  56.5875800  23.4187280  12.3398220
  56.5249380  23.5100820  10.8299850  56.8439480  22.7191730  27.5926070
  56.0785150  23.2876730  27.5080740  57.0255440  22.4267940  26.6994300
  59.9327890  23.0954960  12.2178830  59.3837990  23.5424260  12.8621570
  60.5547150  22.5904210  12.7416500  63.9862830  24.4497060  28.1501090
  64.7272300  24.7872820  27.6468550  63.2235510  24.6189120  27.5970860
  51.8224620  19.4550330  28.9540620  51.8629960  19.1564200  29.8625850
  52.6770120  19.8557940  28.7948140  55.6003010  22.0545880  14.1144130
  56.0219430  21.8885750  14.9575520  55.7253850  21.2446110  13.6199270
  53.7630430  18.0342430  26.9215110  53.2326890  17.5433380  26.2938450
  54.4318500  18.4626630  26.3873040  58.1130650  21.0783490  11.3621230
  58.6336310  20.3632510  10.9962380  58.7599050  21.7169360  11.6621740
  62.6608490  22.5011890  26.6856300  63.0749510  22.6556970  27.5346720
  61.7259490  22.6267110  26.8482080  63.1330660  19.8408050  28.6895450
  63.7151430  19.0860370  28.6015930  63.3092430  20.3715490  27.9126930
  54.2502730  15.0004800  27.0012400  54.1559600  14.3825550  26.2763270
  53.6700120  15.7271090  26.7742310  57.0164170  13.5578040  24.0339790
  56.5681470  13.5802300  23.1885340  56.3829370  13.1597060  24.6310090
  57.4223720  22.4532370  24.6552230  57.8411830  23.2965100  24.4828470
  56.5032350  22.5904410  24.4259010  59.7587620  20.1848550  26.0390070
  59.8783830  19.5889690  26.7784910  60.6181620  20.2218240  25.6191370
  62.0975520  20.7385740  24.6152580  61.5710740  21.2628360  24.0117720
  62.4406860  21.3713130  25.2462310  54.4961910  18.1279110  11.0602290
  54.2950970  17.2646470  11.4215630  54.3253960  18.0412470  10.1223890
  55.2731140  28.7585380  25.7709960  54.7352230  29.4831440  25.4518660
  55.5265100  28.2815720  24.9807300  56.5256390  16.7269900  27.2965890
  57.1156080  16.4185750  27.9843710  55.7076630  16.2549650  27.4525790
  61.3449820  16.3435710  27.5298910  60.6565340  15.6817250  27.4648900
  62.0655840  15.8973980  27.9747370  61.9750220  12.9387340  13.5889170
  62.2552510  12.0955240  13.9448590  61.2015950  13.1710450  14.1027920
  53.2944710  15.2279730  11.0480170  53.5970610  15.2347160  10.1399320
  54.0339300  14.8777590  11.5447830  58.1293350  29.9936590  26.0296610
  58.0552050  30.8971730  26.3368980  57.2272190  29.6748490  26.0018680
  56.5129640  14.1714350  12.0336370  56.1651640  13.4938340  11.4538820
  56.7142410  13.7103860  12.8479760  58.6778680  29.1595100  13.6522970
  59.5729470  29.4980070  13.6741730  58.7096310  28.4374510  13.0247250
  52.3174840  24.5322150  11.8809970  52.7549710  25.0751820  12.5367550
  52.8022570  23.7069100  11.8906310  49.5320640  27.3211180  19.3330230
  49.8623650  26.4532240  19.1008870  49.9611640  27.5269700  20.1635190
  54.1282560  25.6520190  16.9932200  53.8278100  25.5285160  17.8936110
  54.0220050  24.7928780  16.5847930  50.0210850  28.1881770  22.0711860
  49.5841840  28.3682570  22.9036010  50.5888530  28.9456390  21.9293580
  65.6573030  27.6898770  26.3589170  65.0575020  27.7491330  25.6153090
  65.7866930  26.7503750  26.4886020  66.8974480  25.4316590  11.6958880
  66.0667440  25.4993240  12.1666110  67.0746310  26.3220710  11.3925740
  66.3530940  22.1764070  14.1993080  67.1149850  22.7460720  14.3052770
  66.3685310  21.6091270  14.9701390  49.8535280  20.7002000  18.4300740
  49.1984120  20.4313640  17.7860440  50.6913230  20.5906480  17.9802720
  67.3590910  23.0314170  19.0435010  67.7299740  22.2481490  18.6370980
  67.9992840  23.7203270  18.8652310  64.3424670  24.4150750  24.4565330
  63.5284510  24.8447910  24.7191120  64.7498870  25.0269160  23.8434380
  66.4050110  22.4698440  11.3565600  66.6798950  23.3777320  11.2284820
  66.2160850  22.4060970  12.2927590  62.8025720  15.4943290  12.6519230
  63.2210600  15.3074270  11.8115890  62.4961780  14.6422340  12.9622160
  66.3015450  20.4067430  16.3495030  65.9259050  19.6395360  15.9176320
  65.5718570  20.7890130  16.8369960  50.8911210  21.0854570  22.9704080
  51.2584250  20.9981970  23.8500100  50.3222030  20.3221120  22.8710940
  65.6915070  19.5538950  25.9834550  65.4601160  19.3251700  25.0832500
  65.9519620  20.4738500  25.9379440  50.4427210  17.9963660  26.8762500
  49.5483260  17.9630420  27.2156210  50.9824760  18.1950450  27.6413750
  64.1303140  14.7795380  28.7614250  65.0073320  14.7878780  29.1448250
  64.1423980  14.0426220  28.1506600  49.0673360  17.9100930  14.3726070
  48.1637440  18.1731130  14.1977730  49.5513980  18.1812100  13.5926030
  65.5766410  18.6324920  19.6502270  66.1003890  18.1387570  19.0192440
  66.1625830  18.7675280  20.3949840  65.7556130  18.7164790  23.1721820
  64.8058840  18.6828330  23.2866810  65.9369140  19.6264900  22.9371590
  51.6100570  16.9666470  12.2820450  52.3192270  16.5449690  11.7967730
  50.8940510  17.0341700  11.6503800  51.2574730  13.0205800  11.3223100
  51.9802860  13.5614740  11.6404320  51.5299250  12.7469220  10.4464640
  65.0666380  17.8898270  15.5894680  65.5625500  17.6569140  16.3743560
  64.8682450  17.0510110  15.1732320  50.9466920  12.2711990  21.2245720
  51.5943110  11.7209370  20.7840880  51.3668760  12.5255140  22.0461530
  66.4953540  16.5259220  18.1232360  66.3852820  16.3715260  19.0614630
  67.2561130  15.9980160  17.8807770  64.8419260  12.4653350  24.5815360
  65.4791480  13.0787490  24.9474550  64.9894150  12.5014010  23.6364590
  67.3843810  14.3567140  11.3638500  68.3093120  14.2248320  11.1556790
  67.3619600  14.4359960  12.3174950  67.4582300  15.1277800  13.9895210
  66.6633800  15.0622920  14.5188120  67.6625580  16.0628440  13.9780560
  64.4000720  29.1669350  17.9833600  64.9959790  28.8453920  17.3068020
  64.6578870  28.6941170  18.7746870  50.6998920  12.4267660  23.9671040
  50.3513740  12.8831480  24.7329220  50.3686620  11.5324790  24.0493470
  52.3063290  25.5987260  28.1324230  52.2632920  25.2280170  29.0138690
  52.4374300  26.5364830  28.2726050  56.0069320  27.1546850  23.7333950
  55.7660680  27.4221410  22.8464470  56.9471960  27.3252580  23.7884810
  58.2123740  13.6179540  27.4890460  58.1512630  14.2101370  28.2385870
  59.1524120  13.5105500  27.3440720  60.8498300  13.2749600  27.1282750
  61.4638710  13.5928890  26.4663830  61.3947860  12.7898190  27.7478610
  67.2673480  29.1741230  24.5344590  66.7731760  29.5710100  23.8171720
  66.6586770  28.5490440  24.9281870  51.3719560  11.9543860  27.2421810
  51.9202550  11.7731910  26.4787920  51.4374870  11.1637970  27.7778120
  52.1451320  28.5449510  25.2522010  51.5511640  28.4134210  25.9912050
  52.1375160  27.7087650  24.7864110  61.5906340  11.8381740  23.4552040
  60.7166180  12.1716850  23.2524970  61.4817090  11.3654920  24.2803910
  62.4978320  14.0452610  24.8393760  62.1691680  13.2304370  24.4595490
  63.4460620  14.0022420  24.7159450  64.9512930  29.8164650  21.8131330
  64.4915900  30.5680460  21.4389350  64.3225390  29.0971120  21.7546130
  51.7763550  25.9107890  24.2030050  51.0497610  25.2913180  24.1356000
  51.8372700  26.3048500  23.3328130  55.3808650  28.1252890  20.9879460
  55.8973670  27.5140250  20.4627720  56.0306030  28.6281670  21.4790470
  58.1204150  29.0161380  21.8148440  58.4081960  28.7615680  20.9381450
  58.6327370  28.4638740  22.4054010  59.3381160  12.7551580  22.3944950
  58.5552950  13.2297080  22.6741710  59.0444090  11.8506410  22.2858130
  63.8902230  13.4574680  20.4394040  64.3310320  13.4019780  19.5915640
  63.6209820  14.3732690  20.5104220  65.7540800  13.0889920  18.4502860
  65.6929200  12.1451140  18.3033880  66.5332830  13.1970010  18.9956320
  50.0593550  29.2282280  17.4126810  49.8915590  28.5952960  18.1108700
  49.1928060  29.4341680  17.0621000  50.6821570  13.0599060  14.9158670
  51.4400930  13.1727940  14.3422700  50.2198740  13.8968260  14.8702100
  57.2235380  15.1738330  17.9060980  56.4109890  14.7995220  17.5656860
  57.7277020  14.4183410  18.2082170  61.7260360  11.8380780  19.1444050
  62.3289730  12.4100990  19.6192570  60.9853350  12.4020220  18.9217950
  64.8694960  12.2402340  14.4184330  65.0645590  13.1385790  14.6851760
  64.0824830  12.0089420  14.9117280  51.6656250  27.9215510  14.8576950
  51.1403870  28.3023540  14.1538910  51.5900830  28.5466280  15.5786660
  53.0546720  13.5863110  13.4560640  53.5839480  12.7992910  13.3268590
  53.6875040  14.2654300  13.6896170  55.2484560  13.3238250  16.5106030
  54.6187300  12.6225560  16.6776160  54.7089700  14.0842380  16.2939190
  58.1876510  29.9377480  29.1816640  59.1143820  29.7021750  29.2252600
  58.1726940  30.7649480  28.7002670  66.4221570  29.4803050  16.1790890
  66.5973760  28.7940790  15.5351810  65.7243140  30.0050100  15.7867560
  55.3740120  12.6022230  28.9458520  55.0924390  13.1055830  28.1819340
  55.7559820  11.8043980  28.5800650  54.2649220  29.8697890  13.7326200
  54.9968040  29.5857170  13.1850090  54.5242890  29.6311170  14.6225580
  53.4264010  25.9862620  13.7372530  52.7972890  26.4547720  14.2858360
  53.5411840  25.1411840  14.1718720  61.9755580  12.0175810  29.5238990
  61.8621030  12.3370420  30.4190510  62.7925320  12.4188320  29.2276270
  64.7554070  29.1647340  29.0057680  65.5479390  28.6696570  28.7983640
  65.0487220  29.8437480  29.6133290  59.0131770  21.8147300   1.7683000
  58.2373870  21.3347740   2.0581570  59.6644700  21.1352950   1.5939160
  53.0297600  22.1267110   2.6458760  52.1982480  21.8715820   3.0455270
  53.6378580  22.1977880   3.3816680  53.0098860  26.1607200   2.8416780
  53.3126900  25.2704940   2.6627000  53.7542450  26.7177420   2.6139030
  58.4540760  24.4904490   1.7753160  58.3849040  23.5494430   1.6142290
  59.2160620  24.5805900   2.3475730  50.6447430  15.0959010   4.1009780
  50.4650270  14.1984760   4.3812540  50.2427510  15.6430880   4.7756730
  51.2634100  17.5919510   2.7092120  51.9444210  17.8557880   3.3279520
  50.9482150  16.7520380   3.0430130  55.4558670  18.6386870   1.7964710
  55.9636890  19.1367840   2.4369730  55.9871910  17.8622070   1.6204070
  67.5569600  16.8092060   5.4994060  66.8521770  17.1973770   4.9809170
  67.8227520  17.5042350   6.1014990  53.7394770  13.2785430   6.0628130
  53.7413210  13.7957820   5.2574030  52.9099080  12.8015610   6.0398060
  54.9897620  22.9180610   4.2401630  54.6567000  23.5449530   4.8822700
  55.1664300  23.4442490   3.4603300  53.4210100  14.9895390   4.0698580
  53.7626910  15.8337440   3.7752450  52.4825910  15.1379130   4.1863920
  54.2016720  24.8861410   6.0550810  54.8190720  25.5612490   5.7735260
  53.3409840  25.2949390   5.9638310  65.1194310  26.3500820   3.9705450
  64.4357830  27.0199930   3.9622120  65.6588600  26.5481470   3.2050310
  66.5718450  16.1780480   2.0987180  65.6243360  16.2119460   2.2302610
  66.8968440  16.9919430   2.4836540  62.6553050  28.1944950   2.6850630
  62.6680210  27.7907240   1.8172890  62.1028270  28.9692240   2.5812060
  62.0538490  23.0974790   4.0133240  62.4707280  22.8834900   3.1786700
  62.7778310  23.3547580   4.5841860  66.0000590  21.4962010   4.1049480
  65.1719220  21.5655100   3.6299610  66.5951070  22.0816320   3.6365310
  62.9642600  18.2831330   5.0504350  62.5513780  19.1085040   5.3044340
  62.2318550  17.6976370   4.8580710  53.8104010  17.8434440   3.6922060
  54.3618600  17.9529780   2.9175310  54.3247520  18.2172040   4.4077290
  63.6542700  28.3290660   5.7385330  63.1773260  29.1362850   5.5457940
  62.9704490  27.6768990   5.8911540  54.6575520  24.4940480   8.7270030
  53.7604050  24.7180450   8.9743430  54.6828390  24.6175420   7.7781430
  53.4846740  21.3653800   7.3027400  53.3454510  22.2376600   7.6714800
  52.6028100  21.0226610   7.1575340  55.2827090  27.3075500   9.5112550
  55.2542520  27.7118450   8.6440980  55.1192060  26.3785860   9.3484150
  67.2341910  28.0902600  10.8076720  67.7101630  28.5685490  11.4865800
  67.8549070  28.0220090  10.0822220  49.4365390  23.1351350   3.2198310
  49.5145810  23.2700120   2.2754030  50.0507070  22.4267240   3.4126430
  66.6375160  25.2815450   7.9676730  66.7638220  25.0427330   7.0493910
  66.6796540  24.4499990   8.4398810  60.4991900  28.9843450   6.5371540
  61.0136570  28.8951460   7.3393970  59.6560980  29.3303150   6.8299450
  66.4899170  17.3347910   8.9326470  65.8743440  17.8427580   8.4041930
  66.1695590  16.4346240   8.8752410  49.4924910  24.1765520   5.7592770
  49.6555950  23.7070880   4.9412140  49.9577360  23.6689080   6.4241610
  58.5513490  16.1739800   6.3988660  58.0892860  16.3822820   7.2108600
  58.1491600  15.3599150   6.0959330  63.5518000  17.3948750   7.5285320
  62.7011590  17.0954500   7.8494390  63.3919790  17.6390760   6.6169140
  60.6467710  18.8950500   9.6284110  60.9721120  18.0614250   9.2886340
  61.4348040  19.4179020   9.7762440  56.3019580  13.8518610   2.6542940
  56.5991910  14.7581440   2.5734960  56.8505140  13.3637390   2.0402510
  56.4957110  19.3290430   9.1894860  56.4000710  18.3885160   9.0395260
  57.3389090  19.5505500   8.7942930  51.6267650  15.7404100   7.3428640
  51.2331040  16.5879310   7.5501420  50.9386050  15.1030470   7.5337280
  58.2012700  15.8239070  10.4125380  57.5111020  15.6311270  11.0471470
  58.9445000  16.1073710  10.9449680  60.4775670  19.6637510   3.2479300
  59.7456790  20.1724320   3.5969400  60.0800010  18.8467490   2.9468080
  60.9401580  15.1171190   2.6602240  60.9574320  15.5679840   3.5044090
  60.6917160  14.2176830   2.8735680  64.3672330  12.5303370   8.4988620
  64.6918100  11.7993030   9.0246600  64.4028840  12.2117010   7.5969610
  51.0663890  23.5516950   7.9188580  50.6818680  22.9110620   8.5171540
  51.3776080  24.2553070   8.4883310  57.2161030  20.3993490   3.3997200
  57.5831160  19.9252060   4.1458540  57.0266090  21.2735060   3.7405540
  55.0060400  19.4402130   5.7181410  54.7017470  20.3194110   5.9431770
  55.9606860  19.5001920   5.7538850  64.2930170  22.6428480   2.1074650
  65.0129290  23.1383770   1.7170760  64.0911990  21.9646370   1.4628520
  59.6748970  22.7137540   7.9943650  59.6086280  21.7933210   7.7401240
  59.0454110  22.8112980   8.7088290  51.0624130  20.2804870   6.8652770
  50.7039070  20.9458720   7.4526110  50.7678690  19.4488420   7.2365390
  54.2637250  20.7389110   9.7492320  53.9637390  20.8846290   8.8520140
  55.0348490  20.1794400   9.6565710  59.6065700  25.5358110   7.7447450
  59.6210240  24.6039070   7.5266360  58.8990800  25.6217870   8.3837220
  65.8176910  22.1765450   7.0916030  65.0925100  22.7694230   6.8945420
  66.3452370  22.1688990   6.2929400  59.0399600  27.1775680   4.8387950
  59.6841820  27.3835060   5.5161370  59.4029040  26.4164080   4.3858800
  60.3131680  25.1808030   3.5565400  60.9553910  24.4801190   3.6697570
  60.8381030  25.9606470   3.3762290  62.0869300  25.9802930   6.7601460
  62.4225540  26.5669620   7.4379380  61.1669640  25.8495640   6.9899250
  49.6372700  13.7698110   7.5424870  48.9231220  13.9695030   8.1477480
  50.0567740  12.9937680   7.9139670  49.9245290  27.7578370   8.5291400
  50.0336410  26.8173110   8.3886790  49.2725850  28.0233120   7.8805130
  57.9157880  26.0294260   9.9289520  57.5954750  25.3103500  10.4735210
  57.2416240  26.7049330  10.0025580  61.1311480  16.2620420   5.2926320
  61.4992300  15.4415630   5.6205890  60.2709680  16.3222310   5.7081970
  58.0913470  18.9160010   5.5164290  58.5898720  19.3905830   6.1816140
  58.2336420  17.9923530   5.7234320  65.2980330  15.1327970   6.3592680
  64.7953930  15.8733370   6.6986490  66.1136990  15.5211970   6.0429470
  52.0703730  28.8247280  10.3411010  52.8716460  29.1459330  10.7546410
  51.5555550  28.4642860  11.0630920  60.9068360  24.9327150  10.2886420
  60.3006520  24.9558750   9.5482170  60.6022470  24.2010190  10.8253670
  62.3368730  28.6607440   8.8995830  63.2890480  28.5765460   8.8496070
  62.1896950  29.3249150   9.5729620  49.7901540  21.3120740   9.2847060
  50.2940560  20.7328020   9.8563290  49.0508960  21.5960970   9.8223430
  56.8439480  22.7191730   8.8182580  56.0785150  23.2876730   8.7337250
  57.0255440  22.4267940   7.9250810  63.9862830  24.4497060   9.3757600
  64.7272300  24.7872820   8.8725060  63.2235510  24.6189120   8.8227370
  51.8224620  19.4550330  10.1797130  51.8629960  19.1564200  11.0882360
  52.6770120  19.8557940  10.0204650  53.7630430  18.0342430   8.1471620
  53.2326890  17.5433380   7.5194960  54.4318500  18.4626630   7.6129550
  62.6608490  22.5011890   7.9112810  63.0749510  22.6556970   8.7603230
  61.7259490  22.6267110   8.0738590  63.1330660  19.8408050   9.9151960
  63.7151430  19.0860370   9.8272440  63.3092430  20.3715490   9.1383440
  54.2502730  15.0004800   8.2268910  54.1559600  14.3825550   7.5019780
  53.6700120  15.7271090   7.9998820  57.0164170  13.5578040   5.2596300
  56.5681470  13.5802300   4.4141850  56.3829370  13.1597060   5.8566600
  57.4223720  22.4532370   5.8808740  57.8411830  23.2965100   5.7084980
  56.5032350  22.5904410   5.6515520  59.7587620  20.1848550   7.2646580
  59.8783830  19.5889690   8.0041420  60.6181620  20.2218240   6.8447880
  62.0975520  20.7385740   5.8409090  61.5710740  21.2628360   5.2374230
  62.4406860  21.3713130   6.4718820  55.2731140  28.7585380   6.9966470
  54.7352230  29.4831440   6.6775170  55.5265100  28.2815720   6.2063810
  56.5256390  16.7269900   8.5222400  57.1156080  16.4185750   9.2100220
  55.7076630  16.2549650   8.6782300  61.3449820  16.3435710   8.7555420
  60.6565340  15.6817250   8.6905410  62.0655840  15.8973980   9.2003880
  58.1293350  29.9936590   7.2553120  58.0552050  30.8971730   7.5625490
  57.2272190  29.6748490   7.2275190  50.0210850  28.1881770   3.2968370
  49.5841840  28.3682570   4.1292520  50.5888530  28.9456390   3.1550090
  65.6573030  27.6898770   7.5845680  65.0575020  27.7491330   6.8409600
  65.7866930  26.7503750   7.7142530  64.3424670  24.4150750   5.6821840
  63.5284510  24.8447910   5.9447630  64.7498870  25.0269160   5.0690890
  50.8911210  21.0854570   4.1960590  51.2584250  20.9981970   5.0756610
  50.3222030  20.3221120   4.0967450  65.6915070  19.5538950   7.2091060
  65.4601160  19.3251700   6.3089010  65.9519620  20.4738500   7.1635950
  50.4427210  17.9963660   8.1019010  49.5483260  17.9630420   8.4412720
  50.9824760  18.1950450   8.8670260  64.1303140  14.7795380   9.9870760
  65.0073320  14.7878780  10.3704760  64.1423980  14.0426220   9.3763110
  65.7556130  18.7164790   4.3978330  64.8058840  18.6828330   4.5123320
  65.9369140  19.6264900   4.1628100  50.9466920  12.2711990   2.4502230
  51.5943110  11.7209370   2.0097390  51.3668760  12.5255140   3.2718040
  64.8419260  12.4653350   5.8071870  65.4791480  13.0787490   6.1731060
  64.9894150  12.5014010   4.8621100  50.6998920  12.4267660   5.1927550
  50.3513740  12.8831480   5.9585730  50.3686620  11.5324790   5.2749980
  52.3063290  25.5987260   9.3580740  52.2632920  25.2280170  10.2395200
  52.4374300  26.5364830   9.4982560  56.0069320  27.1546850   4.9590460
  55.7660680  27.4221410   4.0720980  56.9471960  27.3252580   5.0141320
  58.2123740  13.6179540   8.7146970  58.1512630  14.2101370   9.4642380
  59.1524120  13.5105500   8.5697230  60.8498300  13.2749600   8.3539260
  61.4638710  13.5928890   7.6920340  61.3947860  12.7898190   8.9735120
  67.2673480  29.1741230   5.7601100  66.7731760  29.5710100   5.0428230
  66.6586770  28.5490440   6.1538380  51.3719560  11.9543860   8.4678320
  51.9202550  11.7731910   7.7044430  51.4374870  11.1637970   9.0034630
  52.1451320  28.5449510   6.4778520  51.5511640  28.4134210   7.2168560
  52.1375160  27.7087650   6.0120620  61.5906340  11.8381740   4.6808550
  60.7166180  12.1716850   4.4781480  61.4817090  11.3654920   5.5060420
  62.4978320  14.0452610   6.0650270  62.1691680  13.2304370   5.6852000
  63.4460620  14.0022420   5.9415960  64.9512930  29.8164650   3.0387840
  64.4915900  30.5680460   2.6645860  64.3225390  29.0971120   2.9802640
  51.7763550  25.9107890   5.4286560  51.0497610  25.2913180   5.3612510
  51.8372700  26.3048500   4.5584640  55.3808650  28.1252890   2.2135970
  55.8973670  27.5140250   1.6884230  56.0306030  28.6281670   2.7046980
  58.1204150  29.0161380   3.0404950  58.4081960  28.7615680   2.1637960
  58.6327370  28.4638740   3.6310520  59.3381160  12.7551580   3.6201460
  58.5552950  13.2297080   3.8998220  59.0444090  11.8506410   3.5114640
  58.1876510  29.9377480  10.4073150  59.1143820  29.7021750  10.4509110
  58.1726940  30.7649480   9.9259180  55.3740120  12.6022230  10.1715030
  55.0924390  13.1055830   9.4075850  55.7559820  11.8043980   9.8057160
  61.9755580  12.0175810  10.7495500  61.8621030  12.3370420  11.6447020
  62.7925320  12.4188320  10.4532780  64.7554070  29.1647340  10.2314190
  65.5479390  28.6696570  10.0240150  65.0487220  29.8437480  10.8389800
  63.0339200   7.4464000 150.7430050  62.5720730   6.6751240 151.0717220
  63.8464750   7.4730070 151.2482500  59.2602510   9.7322010 150.3634040
  58.6413950  10.1879510 149.7928480  60.1154290   9.8873470 149.9623740
  60.1265860   4.6161250 147.7565950  59.5083130   5.0810700 147.1928670
  60.6389110   5.3088730 148.1735460  49.4949060   5.3017780 145.1305580
  49.1177040   5.7904880 144.3990480  49.7522130   5.9743060 145.7612110
  63.9498470   6.1417680 147.9688720  63.8394800   5.1992010 148.0938140
  63.9466720   6.5033320 148.8551480  59.4918750   1.7683000 147.3251210
  58.5648030   1.7020380 147.5539680  59.6443570   2.7063130 147.2106450
  63.5216040   3.3303300 147.8286460  62.9028460   2.9922850 147.1812760
  63.5040490   2.6863060 148.5365650  61.6980740   2.5690110 144.8359210
  62.1374020   1.7312540 144.6897030  62.4109160   3.2019510 144.9223350
  59.8076120   7.5086180 148.8040450  60.2472030   8.2510510 148.3895840
  59.7463010   7.7512750 149.7279410  50.6813020   6.0608050 149.8252410
  50.2741100   6.2022640 148.9706010  51.5726030   5.7768210 149.6223620
  62.4746300  10.4955300 146.1603460  62.3147440  10.2058240 147.0585290
  62.3093010   9.7195430 145.6248690  54.9534680  10.2753830 147.9375080
  54.7777160   9.3589370 147.7242880  54.0990420  10.6341120 148.1772880
  62.1772430   8.0042860 144.7201460  61.4837590   8.0020150 144.0603740
  62.9195290   7.5802180 144.2895630  61.7422360   9.6305570 148.7949950
  62.1979310   8.8494950 149.1088570  62.0814880  10.3412390 149.3391130
  53.5342190   4.8719630 146.5096180  52.7604450   4.3317250 146.3494900
  54.2636820   4.3526240 146.1713940  53.5779590   4.5400010 150.1474990
  54.0958260   3.7368270 150.0931880  53.1263610   4.4779150 150.9891820
  58.4649090   5.8066290 145.4202290  58.8064790   6.5508520 144.9245610
  57.6361800   6.1197410 145.7827120  65.7690020   7.7996700 146.9376110
  65.1266180   7.1452320 147.2119830  65.3820680   8.2051790 146.1616780
  61.3476500   5.1282130 150.7847800  61.7000320   4.5310260 150.1249170
  60.4638830   4.8026360 150.9556050  57.4339780   5.8879820 148.1918210
  58.1210910   6.4349030 148.5725800  56.6472200   6.4320550 148.2267820
  56.7366990   2.8925850 147.8043570  57.1929770   3.7031100 148.0303760
  56.3855200   2.5748990 148.6362060  64.1587400   6.6913160 143.4752460
  63.9324980   5.9743600 144.0677100  63.7683600   6.4425600 142.6374210
  49.9403430  10.7180020 144.2496920  50.3001070  11.3169360 143.5954190
  49.7995770  11.2639910 145.0231950  63.7403650   4.6085100 145.1366620
  63.4525350   5.0697790 145.9244500  64.5355820   4.1482870 145.4050840
  55.9572050   8.1011220 145.0670590  55.9482150   8.8340910 144.4515100
  55.0370410   7.8542800 145.1597550  51.5578690   3.3226110 145.8117350
  50.9506640   4.0625010 145.8212650  52.0328040   3.4125470 144.9855550
  58.9431650   8.1639460 143.7295780  59.0443630   7.9603450 142.7997760
  58.0433390   7.9097740 143.9343560  57.5849760  10.6825780 148.4243450
  57.8391260  10.6447170 147.5022820  56.6362240  10.5559110 148.4171700
  53.5683980   3.2837260 143.5605920  54.3347250   3.1718620 144.1231350
  53.6458670   2.5875230 142.9082690  53.0645450  10.8657720 151.3473350
  53.8007930  10.3173180 151.6181920  53.4486370  11.7313730 151.2079340
  49.9490930   6.9331290 147.2214860  49.0230710   7.1752430 147.2120270
  50.4147360   7.7605550 147.0999610  56.1747760  10.0388030 143.1698920
  56.9676370  10.3276860 142.7180710  55.6552110   9.6080200 142.4911400
  65.2277930   9.2658160 144.5935660  64.9419440   8.8523300 143.7789840
  65.0297480  10.1945870 144.4736180  56.6925160   5.2591440 143.0341270
  56.5875800   4.6443790 143.7602650  56.5249380   4.7357330 142.2504280
  59.9327890   4.3211470 143.6383260  59.3837990   4.7680770 144.2826000
  60.5547150   3.8160720 144.1620930  55.6003010   3.2802390 145.5348560
  56.0219430   3.1142260 146.3779950  55.7253850   2.4702620 145.0403700
  58.6778680  10.3851610 145.0727400  59.5729470  10.7236580 145.0946160
  58.7096310   9.6631020 144.4451680  52.3174840   5.7578660 143.3014400
  52.7549710   6.3008330 143.9571980  52.8022570   4.9325610 143.3110740
  49.5320640   8.5467690 150.7534660  49.8623650   7.6788750 150.5213300
  49.9611640   8.7526210 151.5839620  54.1282560   6.8776700 148.4136630
  53.8278100   6.7541670 149.3140540  54.0220050   6.0185290 148.0052360
  66.8974480   6.6573100 143.1163310  66.0667440   6.7249750 143.5870540
  67.0746310   7.5477220 142.8130170  66.3530940   3.4020580 145.6197510
  67.1149850   3.9717230 145.7257200  66.3685310   2.8347780 146.3905820
  49.8535280   1.9258510 149.8505170  49.1984120   1.6570150 149.2064870
  50.6913230   1.8162990 149.4007150  67.3590910   4.2570680 150.4639440
  67.7299740   3.4738000 150.0575410  67.9992840   4.9459780 150.2856740
  66.4050110   3.6954950 142.7770030  66.6798950   4.6033830 142.6489250
  66.2160850   3.6317480 143.7132020  64.4000720  10.3925860 149.4038030
  64.9959790  10.0710430 148.7272450  64.6578870   9.9197680 150.1951300
  50.0593550  10.4538790 148.8331240  49.8915590   9.8209470 149.5313130
  49.1928060  10.6598190 148.4825430  51.6656250   9.1472020 146.2781380
  51.1403870   9.5280050 145.5743340  51.5900830   9.7722790 146.9991090
  66.4221570  10.7059560 147.5995320  66.5973760  10.0197300 146.9556240
  65.7243140  11.2306610 147.2071990  54.2649220  11.0954400 145.1530630
  54.9968040  10.8113680 144.6054520  54.5242890  10.8567680 146.0430010
  53.4264010   7.2119130 145.1576960  52.7972890   7.6804230 145.7062790
  53.5411840   6.3668350 145.5923150  59.0131770   3.0403810 133.1887430
  58.2373870   2.5604250 133.4786000  59.6644700   2.3609460 133.0143590
  53.0297600   3.3523620 134.0663190  52.1982480   3.0972330 134.4659700
  53.6378580   3.4234390 134.8021110  63.0339200   7.4464000 131.9686560
  62.5720730   6.6751240 132.2973730  63.8464750   7.4730070 132.4739010
  53.0098860   7.3863710 134.2621210  53.3126900   6.4961450 134.0831430
  53.7542450   7.9433930 134.0343460  59.2602510   9.7322010 131.5890550
  58.6413950  10.1879510 131.0184990  60.1154290   9.8873470 131.1880250
  58.4540760   5.7161000 133.1957590  58.3849040   4.7750940 133.0346720
  59.2160620   5.8062410 133.7680160  60.1265860   4.6161250 128.9822460
  59.5083130   5.0810700 128.4185180  60.6389110   5.3088730 129.3991970
  54.9897620   4.1437120 135.6606060  54.6567000   4.7706040 136.3027130
  55.1664300   4.6699000 134.8807730  54.2016720   6.1117920 137.4755240
  54.8190720   6.7869000 137.1939690  53.3409840   6.5205900 137.3842740
  49.4949060   5.3017780 126.3562090  49.1177040   5.7904880 125.6246990
  49.7522130   5.9743060 126.9868620  65.1194310   7.5757330 135.3909880
  64.4357830   8.2456440 135.3826550  65.6588600   7.7737980 134.6254740
  62.6553050   9.4201460 134.1055060  62.6680210   9.0163750 133.2377320
  62.1028270  10.1948750 134.0016490  63.9498470   6.1417680 129.1945230
  63.8394800   5.1992010 129.3194650  63.9466720   6.5033320 130.0807990
  62.0538490   4.3231300 135.4337670  62.4707280   4.1091410 134.5991130
  62.7778310   4.5804090 136.0046290  59.4918750   1.7683000 128.5507720
  58.5648030   1.7020380 128.7796190  59.6443570   2.7063130 128.4362960
  66.0000590   2.7218520 135.5253910  65.1719220   2.7911610 135.0504040
  66.5951070   3.3072830 135.0569740  63.5216040   3.3303300 129.0542970
  62.9028460   2.9922850 128.4069270  63.5040490   2.6863060 129.7622160
  55.5657090   5.9815300 133.4966660  55.2685380   5.3760770 132.8174440
  56.5156910   6.0192610 133.3856020  63.6542700   9.5547170 137.1589760
  63.1773260  10.3619360 136.9662370  62.9704490   8.9025500 137.3115970
  54.6575520   5.7196990 140.1474460  53.7604050   5.9436960 140.3947860
  54.6828390   5.8431930 139.1985860  61.6980740   2.5690110 126.0615720
  62.1374020   1.7312540 125.9153540  62.4109160   3.2019510 126.1479860
  53.4846740   2.5910310 138.7231830  53.3454510   3.4633110 139.0919230
  52.6028100   2.2483120 138.5779770  59.8076120   7.5086180 130.0296960
  60.2472030   8.2510510 129.6152350  59.7463010   7.7512750 130.9535920
  55.2827090   8.5332010 140.9316980  55.2542520   8.9374960 140.0645410
  55.1192060   7.6042370 140.7688580  67.2341910   9.3159110 142.2281150
  67.7101630   9.7942000 142.9070230  67.8549070   9.2476600 141.5026650
  49.4365390   4.3607860 134.6402740  49.5145810   4.4956630 133.6958460
  50.0507070   3.6523750 134.8330860  50.6813020   6.0608050 131.0508920
  50.2741100   6.2022640 130.1962520  51.5726030   5.7768210 130.8480130
  66.6375160   6.5071960 139.3881160  66.7638220   6.2683840 138.4698340
  66.6796540   5.6756500 139.8603240  60.4991900  10.2099960 137.9575970
  61.0136570  10.1207970 138.7598400  59.6560980  10.5559660 138.2503880
  62.4746300  10.4955300 127.3859970  62.3147440  10.2058240 128.2841800
  62.3093010   9.7195430 126.8505200  54.9534680  10.2753830 129.1631590
  54.7777160   9.3589370 128.9499390  54.0990420  10.6341120 129.4029390
  62.1772430   8.0042860 125.9457970  61.4837590   8.0020150 125.2860250
  62.9195290   7.5802180 125.5152140  61.7422360   9.6305570 130.0206460
  62.1979310   8.8494950 130.3345080  62.0814880  10.3412390 130.5647640
  49.4924910   5.4022030 137.1797200  49.6555950   4.9327390 136.3616570
  49.9577360   4.8945590 137.8446040  51.0663890   4.7773460 139.3393010
  50.6818680   4.1367130 139.9375970  51.3776080   5.4809580 139.9087740
  53.5342190   4.8719630 127.7352690  52.7604450   4.3317250 127.5751410
  54.2636820   4.3526240 127.3970450  64.2930170   3.8684990 133.5279080
  65.0129290   4.3640280 133.1375190  64.0911990   3.1902880 132.8832950
  59.6748970   3.9394050 139.4148080  59.6086280   3.0189720 139.1605670
  59.0454110   4.0369490 140.1292720  53.5779590   4.5400010 131.3731500
  54.0958260   3.7368270 131.3188390  53.1263610   4.4779150 132.2148330
  58.4649090   5.8066290 126.6458800  58.8064790   6.5508520 126.1502120
  57.6361800   6.1197410 127.0083630  59.6065700   6.7614620 139.1651880
  59.6210240   5.8295580 138.9470790  58.8990800   6.8474380 139.8041650
  65.8176910   3.4021960 138.5120460  65.0925100   3.9950740 138.3149850
  66.3452370   3.3945500 137.7133830  65.7690020   7.7996700 128.1632620
  65.1266180   7.1452320 128.4376340  65.3820680   8.2051790 127.3873290
  61.3476500   5.1282130 132.0104310  61.7000320   4.5310260 131.3505680
  60.4638830   4.8026360 132.1812560  57.4339780   5.8879820 129.4174720
  58.1210910   6.4349030 129.7982310  56.6472200   6.4320550 129.4524330
  56.7366990   2.8925850 129.0300080  57.1929770   3.7031100 129.2560270
  56.3855200   2.5748990 129.8618570  59.0399600   8.4032190 136.2592380
  59.6841820   8.6091570 136.9365800  59.4029040   7.6420590 135.8063230
  60.3131680   6.4064540 134.9769830  60.9553910   5.7057700 135.0902000
  60.8381030   7.1862980 134.7966720  64.1587400   6.6913160 124.7008970
  63.9324980   5.9743600 125.2933610  63.7683600   6.4425600 123.8630720
  62.0869300   7.2059440 138.1805890  62.4225540   7.7926130 138.8583810
  61.1669640   7.0752150 138.4103680  49.9403430  10.7180020 125.4753430
  50.3001070  11.3169360 124.8210700  49.7995770  11.2639910 126.2488460
  63.7403650   4.6085100 126.3623130  63.4525350   5.0697790 127.1501010
  64.5355820   4.1482870 126.6307350  49.9245290   8.9834880 139.9495830
  50.0336410   8.0429620 139.8091220  49.2725850   9.2489630 139.3009560
  57.9157880   7.2550770 141.3493950  57.5954750   6.5360010 141.8939640
  57.2416240   7.9305840 141.4230010  55.9572050   8.1011220 126.2927100
  55.9482150   8.8340910 125.6771610  55.0370410   7.8542800 126.3854060
  51.5578690   3.3226110 127.0373860  50.9506640   4.0625010 127.0469160
  52.0328040   3.4125470 126.2112060  58.9431650   8.1639460 124.9552290
  59.0443630   7.9603450 124.0254270  58.0433390   7.9097740 125.1600070
  57.5849760  10.6825780 129.6499960  57.8391260  10.6447170 128.7279330
  56.6362240  10.5559110 129.6428210  53.5683980   3.2837260 124.7862430
  54.3347250   3.1718620 125.3487860  53.6458670   2.5875230 124.1339200
  65.5927920   8.7726510 132.9012730  65.7175340   9.5957680 133.3736540
  66.4593480   8.5617240 132.5536880  53.0645450  10.8657720 132.5729860
  53.8007930  10.3173180 132.8438430  53.4486370  11.7313730 132.4335850
  49.9490930   6.9331290 128.4471370  49.0230710   7.1752430 128.4376780
  50.4147360   7.7605550 128.3256120  52.0703730  10.0503790 141.7615440
  52.8716460  10.3715840 142.1750840  51.5555550   9.6899370 142.4835350
  56.1747760  10.0388030 124.3955430  56.9676370  10.3276860 123.9437220
  55.6552110   9.6080200 123.7167910  60.9068360   6.1583660 141.7090850
  60.3006520   6.1815260 140.9686600  60.6022470   5.4266700 142.2458100
  62.3368730   9.8863950 140.3200260  63.2890480   9.8021970 140.2700500
  62.1896950  10.5505660 140.9934050  65.2277930   9.2658160 125.8192170
  64.9419440   8.8523300 125.0046350  65.0297480  10.1945870 125.6992690
  49.7901540   2.5377250 140.7051490  50.2940560   1.9584530 141.2767720
  49.0508960   2.8217480 141.2427860  56.6925160   5.2591440 124.2597780
  56.5875800   4.6443790 124.9859160  56.5249380   4.7357330 123.4760790
  56.8439480   3.9448240 140.2387010  56.0785150   4.5133240 140.1541680
  57.0255440   3.6524450 139.3455240  59.9327890   4.3211470 124.8639770
  59.3837990   4.7680770 125.5082510  60.5547150   3.8160720 125.3877440
  63.9862830   5.6753570 140.7962030  64.7272300   6.0129330 140.2929490
  63.2235510   5.8445630 140.2431800  55.6003010   3.2802390 126.7605070
  56.0219430   3.1142260 127.6036460  55.7253850   2.4702620 126.2660210
  62.6608490   3.7268400 139.3317240  63.0749510   3.8813480 140.1807660
  61.7259490   3.8523620 139.4943020  57.4223720   3.6788880 137.3013170
  57.8411830   4.5221610 137.1289410  56.5032350   3.8160920 137.0719950
  62.0975520   1.9642250 137.2613520  61.5710740   2.4884870 136.6578660
  62.4406860   2.5969640 137.8923250  55.2731140   9.9841890 138.4170900
  54.7352230  10.7087950 138.0979600  55.5265100   9.5072230 137.6268240
  58.1293350  11.2193100 138.6757550  58.0552050  12.1228240 138.9829920
  57.2272190  10.9005000 138.6479620  58.6778680  10.3851610 126.2983910
  59.5729470  10.7236580 126.3202670  58.7096310   9.6631020 125.6708190
  52.3174840   5.7578660 124.5270910  52.7549710   6.3008330 125.1828490
  52.8022570   4.9325610 124.5367250  49.5320640   8.5467690 131.9791170
  49.8623650   7.6788750 131.7469810  49.9611640   8.7526210 132.8096130
  54.1282560   6.8776700 129.6393140  53.8278100   6.7541670 130.5397050
  54.0220050   6.0185290 129.2308870  50.0210850   9.4138280 134.7172800
  49.5841840   9.5939080 135.5496950  50.5888530  10.1712900 134.5754520
  65.6573030   8.9155280 139.0050110  65.0575020   8.9747840 138.2614030
  65.7866930   7.9760260 139.1346960  66.8974480   6.6573100 124.3419820
  66.0667440   6.7249750 124.8127050  67.0746310   7.5477220 124.0386680
  66.3530940   3.4020580 126.8454020  67.1149850   3.9717230 126.9513710
  66.3685310   2.8347780 127.6162330  49.8535280   1.9258510 131.0761680
  49.1984120   1.6570150 130.4321380  50.6913230   1.8162990 130.6263660
  67.3590910   4.2570680 131.6895950  67.7299740   3.4738000 131.2831920
  67.9992840   4.9459780 131.5113250  64.3424670   5.6407260 137.1026270
  63.5284510   6.0704420 137.3652060  64.7498870   6.2525670 136.4895320
  66.4050110   3.6954950 124.0026540  66.6798950   4.6033830 123.8745760
  66.2160850   3.6317480 124.9388530  64.4000720  10.3925860 130.6294540
  64.9959790  10.0710430 129.9528960  64.6578870   9.9197680 131.4207810
  52.3063290   6.8243770 140.7785170  52.2632920   6.4536680 141.6599630
  52.4374300   7.7621340 140.9186990  56.0069320   8.3803360 136.3794890
  55.7660680   8.6477920 135.4925410  56.9471960   8.5509090 136.4345750
  67.2673480  10.3997740 137.1805530  66.7731760  10.7966610 136.4632660
  66.6586770   9.7746950 137.5742810  52.1451320   9.7706020 137.8982950
  51.5511640   9.6390720 138.6372990  52.1375160   8.9344160 137.4325050
  64.9512930  11.0421160 134.4592270  64.4915900  11.7936970 134.0850290
  64.3225390  10.3227630 134.4007070  51.7763550   7.1364400 136.8490990
  51.0497610   6.5169690 136.7816940  51.8372700   7.5305010 135.9789070
  55.3808650   9.3509400 133.6340400  55.8973670   8.7396760 133.1088660
  56.0306030   9.8538180 134.1251410  58.1204150  10.2417890 134.4609380
  58.4081960   9.9872190 133.5842390  58.6327370   9.6895250 135.0514950
  50.0593550  10.4538790 130.0587750  49.8915590   9.8209470 130.7569640
  49.1928060  10.6598190 129.7081940  51.6656250   9.1472020 127.5037890
  51.1403870   9.5280050 126.7999850  51.5900830   9.7722790 128.2247600
  58.1876510  11.1633990 141.8277580  59.1143820  10.9278260 141.8713540
  58.1726940  11.9905990 141.3463610  66.4221570  10.7059560 128.8251830
  66.5973760  10.0197300 128.1812750  65.7243140  11.2306610 128.4328500
  54.2649220  11.0954400 126.3787140  54.9968040  10.8113680 125.8311030
  54.5242890  10.8567680 127.2686520  53.4264010   7.2119130 126.3833470
  52.7972890   7.6804230 126.9319300  53.5411840   6.3668350 126.8179660
  64.7554070  10.3903850 141.6518620  65.5479390   9.8953080 141.4444580
  65.0487220  11.0693990 142.2594230  59.0131770   3.0403810 114.4143940
  58.2373870   2.5604250 114.7042510  59.6644700   2.3609460 114.2400100
  53.0297600   3.3523620 115.2919700  52.1982480   3.0972330 115.6916210
  53.6378580   3.4234390 116.0277620  63.0339200   7.4464000 113.1943070
  62.5720730   6.6751240 113.5230240  63.8464750   7.4730070 113.6995520
  53.0098860   7.3863710 115.4877720  53.3126900   6.4961450 115.3087940
  53.7542450   7.9433930 115.2599970  59.2602510   9.7322010 112.8147060
  58.6413950  10.1879510 112.2441500  60.1154290   9.8873470 112.4136760
  58.4540760   5.7161000 114.4214100  58.3849040   4.7750940 114.2603230
  59.2160620   5.8062410 114.9936670  60.1265860   4.6161250 110.2078970
  59.5083130   5.0810700 109.6441690  60.6389110   5.3088730 110.6248480
  54.9897620   4.1437120 116.8862570  54.6567000   4.7706040 117.5283640
  55.1664300   4.6699000 116.1064240  54.2016720   6.1117920 118.7011750
  54.8190720   6.7869000 118.4196200  53.3409840   6.5205900 118.6099250
  49.4949060   5.3017780 107.5818600  49.1177040   5.7904880 106.8503500
  49.7522130   5.9743060 108.2125130  65.1194310   7.5757330 116.6166390
  64.4357830   8.2456440 116.6083060  65.6588600   7.7737980 115.8511250
  62.6553050   9.4201460 115.3311570  62.6680210   9.0163750 114.4633830
  62.1028270  10.1948750 115.2273000  63.9498470   6.1417680 110.4201740
  63.8394800   5.1992010 110.5451160  63.9466720   6.5033320 111.3064500
  62.0538490   4.3231300 116.6594180  62.4707280   4.1091410 115.8247640
  62.7778310   4.5804090 117.2302800  59.4918750   1.7683000 109.7764230
  58.5648030   1.7020380 110.0052700  59.6443570   2.7063130 109.6619470
  66.0000590   2.7218520 116.7510420  65.1719220   2.7911610 116.2760550
  66.5951070   3.3072830 116.2826250  63.5216040   3.3303300 110.2799480
  62.9028460   2.9922850 109.6325780  63.5040490   2.6863060 110.9878670
  55.5657090   5.9815300 114.7223170  55.2685380   5.3760770 114.0430950
  56.5156910   6.0192610 114.6112530  63.6542700   9.5547170 118.3846270
  63.1773260  10.3619360 118.1918880  62.9704490   8.9025500 118.5372480
  54.6575520   5.7196990 121.3730970  53.7604050   5.9436960 121.6204370
  54.6828390   5.8431930 120.4242370  61.6980740   2.5690110 107.2872230
  62.1374020   1.7312540 107.1410050  62.4109160   3.2019510 107.3736370
  53.4846740   2.5910310 119.9488340  53.3454510   3.4633110 120.3175740
  52.6028100   2.2483120 119.8036280  59.8076120   7.5086180 111.2553470
  60.2472030   8.2510510 110.8408860  59.7463010   7.7512750 112.1792430
  55.2827090   8.5332010 122.1573490  55.2542520   8.9374960 121.2901920
  55.1192060   7.6042370 121.9945090  67.2341910   9.3159110 123.4537660
  67.7101630   9.7942000 124.1326740  67.8549070   9.2476600 122.7283160
  49.4365390   4.3607860 115.8659250  49.5145810   4.4956630 114.9214970
  50.0507070   3.6523750 116.0587370  50.6813020   6.0608050 112.2765430
  50.2741100   6.2022640 111.4219030  51.5726030   5.7768210 112.0736640
  66.6375160   6.5071960 120.6137670  66.7638220   6.2683840 119.6954850
  66.6796540   5.6756500 121.0859750  60.4991900  10.2099960 119.1832480
  61.0136570  10.1207970 119.9854910  59.6560980  10.5559660 119.4760390
  62.4746300  10.4955300 108.6116480  62.3147440  10.2058240 109.5098310
  62.3093010   9.7195430 108.0761710  54.9534680  10.2753830 110.3888100
  54.7777160   9.3589370 110.1755900  54.0990420  10.6341120 110.6285900
  62.1772430   8.0042860 107.1714480  61.4837590   8.0020150 106.5116760
  62.9195290   7.5802180 106.7408650  61.7422360   9.6305570 111.2462970
  62.1979310   8.8494950 111.5601590  62.0814880  10.3412390 111.7904150
  49.4924910   5.4022030 118.4053710  49.6555950   4.9327390 117.5873080
  49.9577360   4.8945590 119.0702550  51.0663890   4.7773460 120.5649520
  50.6818680   4.1367130 121.1632480  51.3776080   5.4809580 121.1344250
  53.5342190   4.8719630 108.9609200  52.7604450   4.3317250 108.8007920
  54.2636820   4.3526240 108.6226960  64.2930170   3.8684990 114.7535590
  65.0129290   4.3640280 114.3631700  64.0911990   3.1902880 114.1089460
  59.6748970   3.9394050 120.6404590  59.6086280   3.0189720 120.3862180
  59.0454110   4.0369490 121.3549230  53.5779590   4.5400010 112.5988010
  54.0958260   3.7368270 112.5444900  53.1263610   4.4779150 113.4404840
  58.4649090   5.8066290 107.8715310  58.8064790   6.5508520 107.3758630
  57.6361800   6.1197410 108.2340140  59.6065700   6.7614620 120.3908390
  59.6210240   5.8295580 120.1727300  58.8990800   6.8474380 121.0298160
  65.8176910   3.4021960 119.7376970  65.0925100   3.9950740 119.5406360
  66.3452370   3.3945500 118.9390340  65.7690020   7.7996700 109.3889130
  65.1266180   7.1452320 109.6632850  65.3820680   8.2051790 108.6129800
  61.3476500   5.1282130 113.2360820  61.7000320   4.5310260 112.5762190
  60.4638830   4.8026360 113.4069070  57.4339780   5.8879820 110.6431230
  58.1210910   6.4349030 111.0238820  56.6472200   6.4320550 110.6780840
  56.7366990   2.8925850 110.2556590  57.1929770   3.7031100 110.4816780
  56.3855200   2.5748990 111.0875080  59.0399600   8.4032190 117.4848890
  59.6841820   8.6091570 118.1622310  59.4029040   7.6420590 117.0319740
  60.3131680   6.4064540 116.2026340  60.9553910   5.7057700 116.3158510
  60.8381030   7.1862980 116.0223230  64.1587400   6.6913160 105.9265480
  63.9324980   5.9743600 106.5190120  63.7683600   6.4425600 105.0887230
  62.0869300   7.2059440 119.4062400  62.4225540   7.7926130 120.0840320
  61.1669640   7.0752150 119.6360190  49.9403430  10.7180020 106.7009940
  50.3001070  11.3169360 106.0467210  49.7995770  11.2639910 107.4744970
  63.7403650   4.6085100 107.5879640  63.4525350   5.0697790 108.3757520
  64.5355820   4.1482870 107.8563860  49.9245290   8.9834880 121.1752340
  50.0336410   8.0429620 121.0347730  49.2725850   9.2489630 120.5266070
  57.9157880   7.2550770 122.5750460  57.5954750   6.5360010 123.1196150
  57.2416240   7.9305840 122.6486520  55.9572050   8.1011220 107.5183610
  55.9482150   8.8340910 106.9028120  55.0370410   7.8542800 107.6110570
  51.5578690   3.3226110 108.2630370  50.9506640   4.0625010 108.2725670
  52.0328040   3.4125470 107.4368570  58.9431650   8.1639460 106.1808800
  59.0443630   7.9603450 105.2510780  58.0433390   7.9097740 106.3856580
  57.5849760  10.6825780 110.8756470  57.8391260  10.6447170 109.9535840
  56.6362240  10.5559110 110.8684720  53.5683980   3.2837260 106.0118940
  54.3347250   3.1718620 106.5744370  53.6458670   2.5875230 105.3595710
  65.5927920   8.7726510 114.1269240  65.7175340   9.5957680 114.5993050
  66.4593480   8.5617240 113.7793390  53.0645450  10.8657720 113.7986370
  53.8007930  10.3173180 114.0694940  53.4486370  11.7313730 113.6592360
  49.9490930   6.9331290 109.6727880  49.0230710   7.1752430 109.6633290
  50.4147360   7.7605550 109.5512630  52.0703730  10.0503790 122.9871950
  52.8716460  10.3715840 123.4007350  51.5555550   9.6899370 123.7091860
  56.1747760  10.0388030 105.6211940  56.9676370  10.3276860 105.1693730
  55.6552110   9.6080200 104.9424420  60.9068360   6.1583660 122.9347360
  60.3006520   6.1815260 122.1943110  60.6022470   5.4266700 123.4714610
  62.3368730   9.8863950 121.5456770  63.2890480   9.8021970 121.4957010
  62.1896950  10.5505660 122.2190560  65.2277930   9.2658160 107.0448680
  64.9419440   8.8523300 106.2302860  65.0297480  10.1945870 106.9249200
  49.7901540   2.5377250 121.9308000  50.2940560   1.9584530 122.5024230
  49.0508960   2.8217480 122.4684370  56.6925160   5.2591440 105.4854290
  56.5875800   4.6443790 106.2115670  56.5249380   4.7357330 104.7017300
  56.8439480   3.9448240 121.4643520  56.0785150   4.5133240 121.3798190
  57.0255440   3.6524450 120.5711750  59.9327890   4.3211470 106.0896280
  59.3837990   4.7680770 106.7339020  60.5547150   3.8160720 106.6133950
  63.9862830   5.6753570 122.0218540  64.7272300   6.0129330 121.5186000
  63.2235510   5.8445630 121.4688310  55.6003010   3.2802390 107.9861580
  56.0219430   3.1142260 108.8292970  55.7253850   2.4702620 107.4916720
  62.6608490   3.7268400 120.5573750  63.0749510   3.8813480 121.4064170
  61.7259490   3.8523620 120.7199530  57.4223720   3.6788880 118.5269680
  57.8411830   4.5221610 118.3545920  56.5032350   3.8160920 118.2976460
  62.0975520   1.9642250 118.4870030  61.5710740   2.4884870 117.8835170
  62.4406860   2.5969640 119.1179760  55.2731140   9.9841890 119.6427410
  54.7352230  10.7087950 119.3236110  55.5265100   9.5072230 118.8524750
  58.1293350  11.2193100 119.9014060  58.0552050  12.1228240 120.2086430
  57.2272190  10.9005000 119.8736130  58.6778680  10.3851610 107.5240420
  59.5729470  10.7236580 107.5459180  58.7096310   9.6631020 106.8964700
  52.3174840   5.7578660 105.7527420  52.7549710   6.3008330 106.4085000
  52.8022570   4.9325610 105.7623760  49.5320640   8.5467690 113.2047680
  49.8623650   7.6788750 112.9726320  49.9611640   8.7526210 114.0352640
  54.1282560   6.8776700 110.8649650  53.8278100   6.7541670 111.7653560
  54.0220050   6.0185290 110.4565380  50.0210850   9.4138280 115.9429310
  49.5841840   9.5939080 116.7753460  50.5888530  10.1712900 115.8011030
  65.6573030   8.9155280 120.2306620  65.0575020   8.9747840 119.4870540
  65.7866930   7.9760260 120.3603470  66.8974480   6.6573100 105.5676330
  66.0667440   6.7249750 106.0383560  67.0746310   7.5477220 105.2643190
  66.3530940   3.4020580 108.0710530  67.1149850   3.9717230 108.1770220
  66.3685310   2.8347780 108.8418840  49.8535280   1.9258510 112.3018190
  49.1984120   1.6570150 111.6577890  50.6913230   1.8162990 111.8520170
  67.3590910   4.2570680 112.9152460  67.7299740   3.4738000 112.5088430
  67.9992840   4.9459780 112.7369760  64.3424670   5.6407260 118.3282780
  63.5284510   6.0704420 118.5908570  64.7498870   6.2525670 117.7151830
  66.4050110   3.6954950 105.2283050  66.6798950   4.6033830 105.1002270
  66.2160850   3.6317480 106.1645040  64.4000720  10.3925860 111.8551050
  64.9959790  10.0710430 111.1785470  64.6578870   9.9197680 112.6464320
  52.3063290   6.8243770 122.0041680  52.2632920   6.4536680 122.8856140
  52.4374300   7.7621340 122.1443500  56.0069320   8.3803360 117.6051400
  55.7660680   8.6477920 116.7181920  56.9471960   8.5509090 117.6602260
  67.2673480  10.3997740 118.4062040  66.7731760  10.7966610 117.6889170
  66.6586770   9.7746950 118.7999320  52.1451320   9.7706020 119.1239460
  51.5511640   9.6390720 119.8629500  52.1375160   8.9344160 118.6581560
  64.9512930  11.0421160 115.6848780  64.4915900  11.7936970 115.3106800
  64.3225390  10.3227630 115.6263580  51.7763550   7.1364400 118.0747500
  51.0497610   6.5169690 118.0073450  51.8372700   7.5305010 117.2045580
  55.3808650   9.3509400 114.8596910  55.8973670   8.7396760 114.3345170
  56.0306030   9.8538180 115.3507920  58.1204150  10.2417890 115.6865890
  58.4081960   9.9872190 114.8098900  58.6327370   9.6895250 116.2771460
  50.0593550  10.4538790 111.2844260  49.8915590   9.8209470 111.9826150
  49.1928060  10.6598190 110.9338450  51.6656250   9.1472020 108.7294400
  51.1403870   9.5280050 108.0256360  51.5900830   9.7722790 109.4504110
  58.1876510  11.1633990 123.0534090  59.1143820  10.9278260 123.0970050
  58.1726940  11.9905990 122.5720120  66.4221570  10.7059560 110.0508340
  66.5973760  10.0197300 109.4069260  65.7243140  11.2306610 109.6585010
  54.2649220  11.0954400 107.6043650  54.9968040  10.8113680 107.0567540
  54.5242890  10.8567680 108.4943030  53.4264010   7.2119130 107.6089980
  52.7972890   7.6804230 108.1575810  53.5411840   6.3668350 108.0436170
  64.7554070  10.3903850 122.8775130  65.5479390   9.8953080 122.6701090
  65.0487220  11.0693990 123.4850740  59.0131770   3.0403810  95.6400450
  58.2373870   2.5604250  95.9299020  59.6644700   2.3609460  95.4656610
  53.0297600   3.3523620  96.5176210  52.1982480   3.0972330  96.9172720
  53.6378580   3.4234390  97.2534130  63.0339200   7.4464000  94.4199580
  62.5720730   6.6751240  94.7486750  63.8464750   7.4730070  94.9252030
  53.0098860   7.3863710  96.7134230  53.3126900   6.4961450  96.5344450
  53.7542450   7.9433930  96.4856480  59.2602510   9.7322010  94.0403570
  58.6413950  10.1879510  93.4698010  60.1154290   9.8873470  93.6393270
  58.4540760   5.7161000  95.6470610  58.3849040   4.7750940  95.4859740
  59.2160620   5.8062410  96.2193180  60.1265860   4.6161250  91.4335480
  59.5083130   5.0810700  90.8698200  60.6389110   5.3088730  91.8504990
  54.9897620   4.1437120  98.1119080  54.6567000   4.7706040  98.7540150
  55.1664300   4.6699000  97.3320750  54.2016720   6.1117920  99.9268260
  54.8190720   6.7869000  99.6452710  53.3409840   6.5205900  99.8355760
  49.4949060   5.3017780  88.8075110  49.1177040   5.7904880  88.0760010
  49.7522130   5.9743060  89.4381640  65.1194310   7.5757330  97.8422900
  64.4357830   8.2456440  97.8339570  65.6588600   7.7737980  97.0767760
  62.6553050   9.4201460  96.5568080  62.6680210   9.0163750  95.6890340
  62.1028270  10.1948750  96.4529510  63.9498470   6.1417680  91.6458250
  63.8394800   5.1992010  91.7707670  63.9466720   6.5033320  92.5321010
  62.0538490   4.3231300  97.8850690  62.4707280   4.1091410  97.0504150
  62.7778310   4.5804090  98.4559310  59.4918750   1.7683000  91.0020740
  58.5648030   1.7020380  91.2309210  59.6443570   2.7063130  90.8875980
  66.0000590   2.7218520  97.9766930  65.1719220   2.7911610  97.5017060
  66.5951070   3.3072830  97.5082760  63.5216040   3.3303300  91.5055990
  62.9028460   2.9922850  90.8582290  63.5040490   2.6863060  92.2135180
  55.5657090   5.9815300  95.9479680  55.2685380   5.3760770  95.2687460
  56.5156910   6.0192610  95.8369040  63.6542700   9.5547170  99.6102780
  63.1773260  10.3619360  99.4175390  62.9704490   8.9025500  99.7628990
  54.6575520   5.7196990 102.5987480  53.7604050   5.9436960 102.8460880
  54.6828390   5.8431930 101.6498880  61.6980740   2.5690110  88.5128740
  62.1374020   1.7312540  88.3666560  62.4109160   3.2019510  88.5992880
  53.4846740   2.5910310 101.1744850  53.3454510   3.4633110 101.5432250
  52.6028100   2.2483120 101.0292790  59.8076120   7.5086180  92.4809980
  60.2472030   8.2510510  92.0665370  59.7463010   7.7512750  93.4048940
  55.2827090   8.5332010 103.3830000  55.2542520   8.9374960 102.5158430
  55.1192060   7.6042370 103.2201600  67.2341910   9.3159110 104.6794170
  67.7101630   9.7942000 105.3583250  67.8549070   9.2476600 103.9539670
  49.4365390   4.3607860  97.0915760  49.5145810   4.4956630  96.1471480
  50.0507070   3.6523750  97.2843880  50.6813020   6.0608050  93.5021940
  50.2741100   6.2022640  92.6475540  51.5726030   5.7768210  93.2993150
  66.6375160   6.5071960 101.8394180  66.7638220   6.2683840 100.9211360
  66.6796540   5.6756500 102.3116260  60.4991900  10.2099960 100.4088990
  61.0136570  10.1207970 101.2111420  59.6560980  10.5559660 100.7016900
  62.4746300  10.4955300  89.8372990  62.3147440  10.2058240  90.7354820
  62.3093010   9.7195430  89.3018220  54.9534680  10.2753830  91.6144610
  54.7777160   9.3589370  91.4012410  54.0990420  10.6341120  91.8542410
  62.1772430   8.0042860  88.3970990  61.4837590   8.0020150  87.7373270
  62.9195290   7.5802180  87.9665160  61.7422360   9.6305570  92.4719480
  62.1979310   8.8494950  92.7858100  62.0814880  10.3412390  93.0160660
  49.4924910   5.4022030  99.6310220  49.6555950   4.9327390  98.8129590
  49.9577360   4.8945590 100.2959060  51.0663890   4.7773460 101.7906030
  50.6818680   4.1367130 102.3888990  51.3776080   5.4809580 102.3600760
  53.5342190   4.8719630  90.1865710  52.7604450   4.3317250  90.0264430
  54.2636820   4.3526240  89.8483470  64.2930170   3.8684990  95.9792100
  65.0129290   4.3640280  95.5888210  64.0911990   3.1902880  95.3345970
  59.6748970   3.9394050 101.8661100  59.6086280   3.0189720 101.6118690
  59.0454110   4.0369490 102.5805740  53.5779590   4.5400010  93.8244520
  54.0958260   3.7368270  93.7701410  53.1263610   4.4779150  94.6661350
  58.4649090   5.8066290  89.0971820  58.8064790   6.5508520  88.6015140
  57.6361800   6.1197410  89.4596650  59.6065700   6.7614620 101.6164900
  59.6210240   5.8295580 101.3983810  58.8990800   6.8474380 102.2554670
  65.8176910   3.4021960 100.9633480  65.0925100   3.9950740 100.7662870
  66.3452370   3.3945500 100.1646850  65.7690020   7.7996700  90.6145640
  65.1266180   7.1452320  90.8889360  65.3820680   8.2051790  89.8386310
  61.3476500   5.1282130  94.4617330  61.7000320   4.5310260  93.8018700
  60.4638830   4.8026360  94.6325580  57.4339780   5.8879820  91.8687740
  58.1210910   6.4349030  92.2495330  56.6472200   6.4320550  91.9037350
  56.7366990   2.8925850  91.4813100  57.1929770   3.7031100  91.7073290
  56.3855200   2.5748990  92.3131590  59.0399600   8.4032190  98.7105400
  59.6841820   8.6091570  99.3878820  59.4029040   7.6420590  98.2576250
  60.3131680   6.4064540  97.4282850  60.9553910   5.7057700  97.5415020
  60.8381030   7.1862980  97.2479740  64.1587400   6.6913160  87.1521990
  63.9324980   5.9743600  87.7446630  63.7683600   6.4425600  86.3143740
  62.0869300   7.2059440 100.6318910  62.4225540   7.7926130 101.3096830
  61.1669640   7.0752150 100.8616700  49.9403430  10.7180020  87.9266450
  50.3001070  11.3169360  87.2723720  49.7995770  11.2639910  88.7001480
  63.7403650   4.6085100  88.8136150  63.4525350   5.0697790  89.6014030
  64.5355820   4.1482870  89.0820370  49.9245290   8.9834880 102.4008850
  50.0336410   8.0429620 102.2604240  49.2725850   9.2489630 101.7522580
  57.9157880   7.2550770 103.8006970  57.5954750   6.5360010 104.3452660
  57.2416240   7.9305840 103.8743030  55.9572050   8.1011220  88.7440120
  55.9482150   8.8340910  88.1284630  55.0370410   7.8542800  88.8367080
  51.5578690   3.3226110  89.4886880  50.9506640   4.0625010  89.4982180
  52.0328040   3.4125470  88.6625080  58.9431650   8.1639460  87.4065310
  59.0443630   7.9603450  86.4767290  58.0433390   7.9097740  87.6113090
  57.5849760  10.6825780  92.1012980  57.8391260  10.6447170  91.1792350
  56.6362240  10.5559110  92.0941230  53.5683980   3.2837260  87.2375450
  54.3347250   3.1718620  87.8000880  53.6458670   2.5875230  86.5852220
  65.5927920   8.7726510  95.3525750  65.7175340   9.5957680  95.8249560
  66.4593480   8.5617240  95.0049900  53.0645450  10.8657720  95.0242880
  53.8007930  10.3173180  95.2951450  53.4486370  11.7313730  94.8848870
  49.9490930   6.9331290  90.8984390  49.0230710   7.1752430  90.8889800
  50.4147360   7.7605550  90.7769140  52.0703730  10.0503790 104.2128460
  52.8716460  10.3715840 104.6263860  51.5555550   9.6899370 104.9348370
  56.1747760  10.0388030  86.8468450  56.9676370  10.3276860  86.3950240
  55.6552110   9.6080200  86.1680930  60.9068360   6.1583660 104.1603870
  60.3006520   6.1815260 103.4199620  60.6022470   5.4266700 104.6971120
  62.3368730   9.8863950 102.7713280  63.2890480   9.8021970 102.7213520
  62.1896950  10.5505660 103.4447070  65.2277930   9.2658160  88.2705190
  64.9419440   8.8523300  87.4559370  65.0297480  10.1945870  88.1505710
  49.7901540   2.5377250 103.1564510  50.2940560   1.9584530 103.7280740
  49.0508960   2.8217480 103.6940880  56.6925160   5.2591440  86.7110800
  56.5875800   4.6443790  87.4372180  56.5249380   4.7357330  85.9273810
  56.8439480   3.9448240 102.6900030  56.0785150   4.5133240 102.6054700
  57.0255440   3.6524450 101.7968260  59.9327890   4.3211470  87.3152790
  59.3837990   4.7680770  87.9595530  60.5547150   3.8160720  87.8390460
  63.9862830   5.6753570 103.2475050  64.7272300   6.0129330 102.7442510
  63.2235510   5.8445630 102.6944820  55.6003010   3.2802390  89.2118090
  56.0219430   3.1142260  90.0549480  55.7253850   2.4702620  88.7173230
  62.6608490   3.7268400 101.7830260  63.0749510   3.8813480 102.6320680
  61.7259490   3.8523620 101.9456040  57.4223720   3.6788880  99.7526190
  57.8411830   4.5221610  99.5802430  56.5032350   3.8160920  99.5232970
  62.0975520   1.9642250  99.7126540  61.5710740   2.4884870  99.1091680
  62.4406860   2.5969640 100.3436270  55.2731140   9.9841890 100.8683920
  54.7352230  10.7087950 100.5492620  55.5265100   9.5072230 100.0781260
  58.1293350  11.2193100 101.1270570  58.0552050  12.1228240 101.4342940
  57.2272190  10.9005000 101.0992640  58.6778680  10.3851610  88.7496930
  59.5729470  10.7236580  88.7715690  58.7096310   9.6631020  88.1221210
  52.3174840   5.7578660  86.9783930  52.7549710   6.3008330  87.6341510
  52.8022570   4.9325610  86.9880270  49.5320640   8.5467690  94.4304190
  49.8623650   7.6788750  94.1982830  49.9611640   8.7526210  95.2609150
  54.1282560   6.8776700  92.0906160  53.8278100   6.7541670  92.9910070
  54.0220050   6.0185290  91.6821890  50.0210850   9.4138280  97.1685820
  49.5841840   9.5939080  98.0009970  50.5888530  10.1712900  97.0267540
  65.6573030   8.9155280 101.4563130  65.0575020   8.9747840 100.7127050
  65.7866930   7.9760260 101.5859980  66.8974480   6.6573100  86.7932840
  66.0667440   6.7249750  87.2640070  67.0746310   7.5477220  86.4899700
  66.3530940   3.4020580  89.2967040  67.1149850   3.9717230  89.4026730
  66.3685310   2.8347780  90.0675350  49.8535280   1.9258510  93.5274700
  49.1984120   1.6570150  92.8834400  50.6913230   1.8162990  93.0776680
  67.3590910   4.2570680  94.1408970  67.7299740   3.4738000  93.7344940
  67.9992840   4.9459780  93.9626270  64.3424670   5.6407260  99.5539290
  63.5284510   6.0704420  99.8165080  64.7498870   6.2525670  98.9408340
  66.4050110   3.6954950  86.4539560  66.6798950   4.6033830  86.3258780
  66.2160850   3.6317480  87.3901550  64.4000720  10.3925860  93.0807560
  64.9959790  10.0710430  92.4041980  64.6578870   9.9197680  93.8720830
  52.3063290   6.8243770 103.2298190  52.2632920   6.4536680 104.1112650
  52.4374300   7.7621340 103.3700010  56.0069320   8.3803360  98.8307910
  55.7660680   8.6477920  97.9438430  56.9471960   8.5509090  98.8858770
  67.2673480  10.3997740  99.6318550  66.7731760  10.7966610  98.9145680
  66.6586770   9.7746950 100.0255830  52.1451320   9.7706020 100.3495970
  51.5511640   9.6390720 101.0886010  52.1375160   8.9344160  99.8838070
  64.9512930  11.0421160  96.9105290  64.4915900  11.7936970  96.5363310
  64.3225390  10.3227630  96.8520090  51.7763550   7.1364400  99.3004010
  51.0497610   6.5169690  99.2329960  51.8372700   7.5305010  98.4302090
  55.3808650   9.3509400  96.0853420  55.8973670   8.7396760  95.5601680
  56.0306030   9.8538180  96.5764430  58.1204150  10.2417890  96.9122400
  58.4081960   9.9872190  96.0355410  58.6327370   9.6895250  97.5027970
  50.0593550  10.4538790  92.5100770  49.8915590   9.8209470  93.2082660
  49.1928060  10.6598190  92.1594960  51.6656250   9.1472020  89.9550910
  51.1403870   9.5280050  89.2512870  51.5900830   9.7722790  90.6760620
  58.1876510  11.1633990 104.2790600  59.1143820  10.9278260 104.3226560
  58.1726940  11.9905990 103.7976630  66.4221570  10.7059560  91.2764850
  66.5973760  10.0197300  90.6325770  65.7243140  11.2306610  90.8841520
  54.2649220  11.0954400  88.8300160  54.9968040  10.8113680  88.2824050
  54.5242890  10.8567680  89.7199540  53.4264010   7.2119130  88.8346490
  52.7972890   7.6804230  89.3832320  53.5411840   6.3668350  89.2692680
  64.7554070  10.3903850 104.1031640  65.5479390   9.8953080 103.8957600
  65.0487220  11.0693990 104.7107250  59.0131770   3.0403810  76.8656960
  58.2373870   2.5604250  77.1555530  59.6644700   2.3609460  76.6913120
  53.0297600   3.3523620  77.7432720  52.1982480   3.0972330  78.1429230
  53.6378580   3.4234390  78.4790640  63.0339200   7.4464000  75.6456090
  62.5720730   6.6751240  75.9743260  63.8464750   7.4730070  76.1508540
  53.0098860   7.3863710  77.9390740  53.3126900   6.4961450  77.7600960
  53.7542450   7.9433930  77.7112990  59.2602510   9.7322010  75.2660080
  58.6413950  10.1879510  74.6954520  60.1154290   9.8873470  74.8649780
  58.4540760   5.7161000  76.8727120  58.3849040   4.7750940  76.7116250
  59.2160620   5.8062410  77.4449690  60.1265860   4.6161250  72.6591990
  59.5083130   5.0810700  72.0954710  60.6389110   5.3088730  73.0761500
  54.9897620   4.1437120  79.3375590  54.6567000   4.7706040  79.9796660
  55.1664300   4.6699000  78.5577260  54.2016720   6.1117920  81.1524770
  54.8190720   6.7869000  80.8709220  53.3409840   6.5205900  81.0612270
  49.4949060   5.3017780  70.0331620  49.1177040   5.7904880  69.3016520
  49.7522130   5.9743060  70.6638150  65.1194310   7.5757330  79.0679410
  64.4357830   8.2456440  79.0596080  65.6588600   7.7737980  78.3024270
  62.6553050   9.4201460  77.7824590  62.6680210   9.0163750  76.9146850
  62.1028270  10.1948750  77.6786020  63.9498470   6.1417680  72.8714760
  63.8394800   5.1992010  72.9964180  63.9466720   6.5033320  73.7577520
  62.0538490   4.3231300  79.1107200  62.4707280   4.1091410  78.2760660
  62.7778310   4.5804090  79.6815820  59.4918750   1.7683000  72.2277250
  58.5648030   1.7020380  72.4565720  59.6443570   2.7063130  72.1132490
  66.0000590   2.7218520  79.2023440  65.1719220   2.7911610  78.7273570
  66.5951070   3.3072830  78.7339270  63.5216040   3.3303300  72.7312500
  62.9028460   2.9922850  72.0838800  63.5040490   2.6863060  73.4391690
  55.5657090   5.9815300  77.1736190  55.2685380   5.3760770  76.4943970
  56.5156910   6.0192610  77.0625550  63.6542700   9.5547170  80.8359290
  63.1773260  10.3619360  80.6431900  62.9704490   8.9025500  80.9885500
  54.6575520   5.7196990  83.8243990  53.7604050   5.9436960  84.0717390
  54.6828390   5.8431930  82.8755390  61.6980740   2.5690110  69.7385250
  62.1374020   1.7312540  69.5923070  62.4109160   3.2019510  69.8249390
  53.4846740   2.5910310  82.4001360  53.3454510   3.4633110  82.7688760
  52.6028100   2.2483120  82.2549300  59.8076120   7.5086180  73.7066490
  60.2472030   8.2510510  73.2921880  59.7463010   7.7512750  74.6305450
  55.2827090   8.5332010  84.6086510  55.2542520   8.9374960  83.7414940
  55.1192060   7.6042370  84.4458110  67.2341910   9.3159110  85.9050680
  67.7101630   9.7942000  86.5839760  67.8549070   9.2476600  85.1796180
  49.4365390   4.3607860  78.3172270  49.5145810   4.4956630  77.3727990
  50.0507070   3.6523750  78.5100390  50.6813020   6.0608050  74.7278450
  50.2741100   6.2022640  73.8732050  51.5726030   5.7768210  74.5249660
  66.6375160   6.5071960  83.0650690  66.7638220   6.2683840  82.1467870
  66.6796540   5.6756500  83.5372770  60.4991900  10.2099960  81.6345500
  61.0136570  10.1207970  82.4367930  59.6560980  10.5559660  81.9273410
  62.4746300  10.4955300  71.0629500  62.3147440  10.2058240  71.9611330
  62.3093010   9.7195430  70.5274730  54.9534680  10.2753830  72.8401120
  54.7777160   9.3589370  72.6268920  54.0990420  10.6341120  73.0798920
  62.1772430   8.0042860  69.6227500  61.4837590   8.0020150  68.9629780
  62.9195290   7.5802180  69.1921670  61.7422360   9.6305570  73.6975990
  62.1979310   8.8494950  74.0114610  62.0814880  10.3412390  74.2417170
  49.4924910   5.4022030  80.8566730  49.6555950   4.9327390  80.0386100
  49.9577360   4.8945590  81.5215570  51.0663890   4.7773460  83.0162540
  50.6818680   4.1367130  83.6145500  51.3776080   5.4809580  83.5857270
  53.5342190   4.8719630  71.4122220  52.7604450   4.3317250  71.2520940
  54.2636820   4.3526240  71.0739980  64.2930170   3.8684990  77.2048610
  65.0129290   4.3640280  76.8144720  64.0911990   3.1902880  76.5602480
  59.6748970   3.9394050  83.0917610  59.6086280   3.0189720  82.8375200
  59.0454110   4.0369490  83.8062250  53.5779590   4.5400010  75.0501030
  54.0958260   3.7368270  74.9957920  53.1263610   4.4779150  75.8917860
  58.4649090   5.8066290  70.3228330  58.8064790   6.5508520  69.8271650
  57.6361800   6.1197410  70.6853160  59.6065700   6.7614620  82.8421410
  59.6210240   5.8295580  82.6240320  58.8990800   6.8474380  83.4811180
  65.8176910   3.4021960  82.1889990  65.0925100   3.9950740  81.9919380
  66.3452370   3.3945500  81.3903360  65.7690020   7.7996700  71.8402150
  65.1266180   7.1452320  72.1145870  65.3820680   8.2051790  71.0642820
  61.3476500   5.1282130  75.6873840  61.7000320   4.5310260  75.0275210
  60.4638830   4.8026360  75.8582090  57.4339780   5.8879820  73.0944250
  58.1210910   6.4349030  73.4751840  56.6472200   6.4320550  73.1293860
  56.7366990   2.8925850  72.7069610  57.1929770   3.7031100  72.9329800
  56.3855200   2.5748990  73.5388100  59.0399600   8.4032190  79.9361910
  59.6841820   8.6091570  80.6135330  59.4029040   7.6420590  79.4832760
  60.3131680   6.4064540  78.6539360  60.9553910   5.7057700  78.7671530
  60.8381030   7.1862980  78.4736250  64.1587400   6.6913160  68.3778500
  63.9324980   5.9743600  68.9703140  63.7683600   6.4425600  67.5400250
  62.0869300   7.2059440  81.8575420  62.4225540   7.7926130  82.5353340
  61.1669640   7.0752150  82.0873210  49.9403430  10.7180020  69.1522960
  50.3001070  11.3169360  68.4980230  49.7995770  11.2639910  69.9257990
  63.7403650   4.6085100  70.0392660  63.4525350   5.0697790  70.8270540
  64.5355820   4.1482870  70.3076880  49.9245290   8.9834880  83.6265360
  50.0336410   8.0429620  83.4860750  49.2725850   9.2489630  82.9779090
  57.9157880   7.2550770  85.0263480  57.5954750   6.5360010  85.5709170
  57.2416240   7.9305840  85.0999540  55.9572050   8.1011220  69.9696630
  55.9482150   8.8340910  69.3541140  55.0370410   7.8542800  70.0623590
  51.5578690   3.3226110  70.7143390  50.9506640   4.0625010  70.7238690
  52.0328040   3.4125470  69.8881590  58.9431650   8.1639460  68.6321820
  59.0443630   7.9603450  67.7023800  58.0433390   7.9097740  68.8369600
  57.5849760  10.6825780  73.3269490  57.8391260  10.6447170  72.4048860
  56.6362240  10.5559110  73.3197740  53.5683980   3.2837260  68.4631960
  54.3347250   3.1718620  69.0257390  53.6458670   2.5875230  67.8108730
  65.5927920   8.7726510  76.5782260  65.7175340   9.5957680  77.0506070
  66.4593480   8.5617240  76.2306410  53.0645450  10.8657720  76.2499390
  53.8007930  10.3173180  76.5207960  53.4486370  11.7313730  76.1105380
  49.9490930   6.9331290  72.1240900  49.0230710   7.1752430  72.1146310
  50.4147360   7.7605550  72.0025650  52.0703730  10.0503790  85.4384970
  52.8716460  10.3715840  85.8520370  51.5555550   9.6899370  86.1604880
  56.1747760  10.0388030  68.0724960  56.9676370  10.3276860  67.6206750
  55.6552110   9.6080200  67.3937440  60.9068360   6.1583660  85.3860380
  60.3006520   6.1815260  84.6456130  60.6022470   5.4266700  85.9227630
  62.3368730   9.8863950  83.9969790  63.2890480   9.8021970  83.9470030
  62.1896950  10.5505660  84.6703580  65.2277930   9.2658160  69.4961700
  64.9419440   8.8523300  68.6815880  65.0297480  10.1945870  69.3762220
  49.7901540   2.5377250  84.3821020  50.2940560   1.9584530  84.9537250
  49.0508960   2.8217480  84.9197390  56.6925160   5.2591440  67.9367310
  56.5875800   4.6443790  68.6628690  56.5249380   4.7357330  67.1530320
  56.8439480   3.9448240  83.9156540  56.0785150   4.5133240  83.8311210
  57.0255440   3.6524450  83.0224770  59.9327890   4.3211470  68.5409300
  59.3837990   4.7680770  69.1852040  60.5547150   3.8160720  69.0646970
  63.9862830   5.6753570  84.4731560  64.7272300   6.0129330  83.9699020
  63.2235510   5.8445630  83.9201330  55.6003010   3.2802390  70.4374600
  56.0219430   3.1142260  71.2805990  55.7253850   2.4702620  69.9429740
  62.6608490   3.7268400  83.0086770  63.0749510   3.8813480  83.8577190
  61.7259490   3.8523620  83.1712550  57.4223720   3.6788880  80.9782700
  57.8411830   4.5221610  80.8058940  56.5032350   3.8160920  80.7489480
  62.0975520   1.9642250  80.9383050  61.5710740   2.4884870  80.3348190
  62.4406860   2.5969640  81.5692780  55.2731140   9.9841890  82.0940430
  54.7352230  10.7087950  81.7749130  55.5265100   9.5072230  81.3037770
  58.1293350  11.2193100  82.3527080  58.0552050  12.1228240  82.6599450
  57.2272190  10.9005000  82.3249150  58.6778680  10.3851610  69.9753440
  59.5729470  10.7236580  69.9972200  58.7096310   9.6631020  69.3477720
  52.3174840   5.7578660  68.2040440  52.7549710   6.3008330  68.8598020
  52.8022570   4.9325610  68.2136780  49.5320640   8.5467690  75.6560700
  49.8623650   7.6788750  75.4239340  49.9611640   8.7526210  76.4865660
  54.1282560   6.8776700  73.3162670  53.8278100   6.7541670  74.2166580
  54.0220050   6.0185290  72.9078400  50.0210850   9.4138280  78.3942330
  49.5841840   9.5939080  79.2266480  50.5888530  10.1712900  78.2524050
  65.6573030   8.9155280  82.6819640  65.0575020   8.9747840  81.9383560
  65.7866930   7.9760260  82.8116490  66.8974480   6.6573100  68.0189350
  66.0667440   6.7249750  68.4896580  67.0746310   7.5477220  67.7156210
  66.3530940   3.4020580  70.5223550  67.1149850   3.9717230  70.6283240
  66.3685310   2.8347780  71.2931860  49.8535280   1.9258510  74.7531210
  49.1984120   1.6570150  74.1090910  50.6913230   1.8162990  74.3033190
  67.3590910   4.2570680  75.3665480  67.7299740   3.4738000  74.9601450
  67.9992840   4.9459780  75.1882780  64.3424670   5.6407260  80.7795800
  63.5284510   6.0704420  81.0421590  64.7498870   6.2525670  80.1664850
  66.4050110   3.6954950  67.6796070  66.6798950   4.6033830  67.5515290
  66.2160850   3.6317480  68.6158060  64.4000720  10.3925860  74.3064070
  64.9959790  10.0710430  73.6298490  64.6578870   9.9197680  75.0977340
  52.3063290   6.8243770  84.4554700  52.2632920   6.4536680  85.3369160
  52.4374300   7.7621340  84.5956520  56.0069320   8.3803360  80.0564420
  55.7660680   8.6477920  79.1694940  56.9471960   8.5509090  80.1115280
  67.2673480  10.3997740  80.8575060  66.7731760  10.7966610  80.1402190
  66.6586770   9.7746950  81.2512340  52.1451320   9.7706020  81.5752480
  51.5511640   9.6390720  82.3142520  52.1375160   8.9344160  81.1094580
  64.9512930  11.0421160  78.1361800  64.4915900  11.7936970  77.7619820
  64.3225390  10.3227630  78.0776600  51.7763550   7.1364400  80.5260520
  51.0497610   6.5169690  80.4586470  51.8372700   7.5305010  79.6558600
  55.3808650   9.3509400  77.3109930  55.8973670   8.7396760  76.7858190
  56.0306030   9.8538180  77.8020940  58.1204150  10.2417890  78.1378910
  58.4081960   9.9872190  77.2611920  58.6327370   9.6895250  78.7284480
  50.0593550  10.4538790  73.7357280  49.8915590   9.8209470  74.4339170
  49.1928060  10.6598190  73.3851470  51.6656250   9.1472020  71.1807420
  51.1403870   9.5280050  70.4769380  51.5900830   9.7722790  71.9017130
  58.1876510  11.1633990  85.5047110  59.1143820  10.9278260  85.5483070
  58.1726940  11.9905990  85.0233140  66.4221570  10.7059560  72.5021360
  66.5973760  10.0197300  71.8582280  65.7243140  11.2306610  72.1098030
  54.2649220  11.0954400  70.0556670  54.9968040  10.8113680  69.5080560
  54.5242890  10.8567680  70.9456050  53.4264010   7.2119130  70.0603000
  52.7972890   7.6804230  70.6088830  53.5411840   6.3668350  70.4949190
  64.7554070  10.3903850  85.3288150  65.5479390   9.8953080  85.1214110
  65.0487220  11.0693990  85.9363760  59.0131770   3.0403810  58.0913470
  58.2373870   2.5604250  58.3812040  59.6644700   2.3609460  57.9169630
  53.0297600   3.3523620  58.9689230  52.1982480   3.0972330  59.3685740
  53.6378580   3.4234390  59.7047150  63.0339200   7.4464000  56.8712600
  62.5720730   6.6751240  57.1999770  63.8464750   7.4730070  57.3765050
  53.0098860   7.3863710  59.1647250  53.3126900   6.4961450  58.9857470
  53.7542450   7.9433930  58.9369500  59.2602510   9.7322010  56.4916590
  58.6413950  10.1879510  55.9211030  60.1154290   9.8873470  56.0906290
  58.4540760   5.7161000  58.0983630  58.3849040   4.7750940  57.9372760
  59.2160620   5.8062410  58.6706200  60.1265860   4.6161250  53.8848500
  59.5083130   5.0810700  53.3211220  60.6389110   5.3088730  54.3018010
  54.9897620   4.1437120  60.5632100  54.6567000   4.7706040  61.2053170
  55.1664300   4.6699000  59.7833770  54.2016720   6.1117920  62.3781280
  54.8190720   6.7869000  62.0965730  53.3409840   6.5205900  62.2868780
  49.4949060   5.3017780  51.2588130  49.1177040   5.7904880  50.5273030
  49.7522130   5.9743060  51.8894660  65.1194310   7.5757330  60.2935920
  64.4357830   8.2456440  60.2852590  65.6588600   7.7737980  59.5280780
  62.6553050   9.4201460  59.0081100  62.6680210   9.0163750  58.1403360
  62.1028270  10.1948750  58.9042530  63.9498470   6.1417680  54.0971270
  63.8394800   5.1992010  54.2220690  63.9466720   6.5033320  54.9834030
  62.0538490   4.3231300  60.3363710  62.4707280   4.1091410  59.5017170
  62.7778310   4.5804090  60.9072330  59.4918750   1.7683000  53.4533760
  58.5648030   1.7020380  53.6822230  59.6443570   2.7063130  53.3389000
  66.0000590   2.7218520  60.4279950  65.1719220   2.7911610  59.9530080
  66.5951070   3.3072830  59.9595780  63.5216040   3.3303300  53.9569010
  62.9028460   2.9922850  53.3095310  63.5040490   2.6863060  54.6648200
  55.5657090   5.9815300  58.3992700  55.2685380   5.3760770  57.7200480
  56.5156910   6.0192610  58.2882060  63.6542700   9.5547170  62.0615800
  63.1773260  10.3619360  61.8688410  62.9704490   8.9025500  62.2142010
  54.6575520   5.7196990  65.0500500  53.7604050   5.9436960  65.2973900
  54.6828390   5.8431930  64.1011900  61.6980740   2.5690110  50.9641760
  62.1374020   1.7312540  50.8179580  62.4109160   3.2019510  51.0505900
  53.4846740   2.5910310  63.6257870  53.3454510   3.4633110  63.9945270
  52.6028100   2.2483120  63.4805810  59.8076120   7.5086180  54.9323000
  60.2472030   8.2510510  54.5178390  59.7463010   7.7512750  55.8561960
  55.2827090   8.5332010  65.8343020  55.2542520   8.9374960  64.9671450
  55.1192060   7.6042370  65.6714620  67.2341910   9.3159110  67.1307190
  67.7101630   9.7942000  67.8096270  67.8549070   9.2476600  66.4052690
  49.4365390   4.3607860  59.5428780  49.5145810   4.4956630  58.5984500
  50.0507070   3.6523750  59.7356900  50.6813020   6.0608050  55.9534960
  50.2741100   6.2022640  55.0988560  51.5726030   5.7768210  55.7506170
  66.6375160   6.5071960  64.2907200  66.7638220   6.2683840  63.3724380
  66.6796540   5.6756500  64.7629280  60.4991900  10.2099960  62.8602010
  61.0136570  10.1207970  63.6624440  59.6560980  10.5559660  63.1529920
  62.4746300  10.4955300  52.2886010  62.3147440  10.2058240  53.1867840
  62.3093010   9.7195430  51.7531240  54.9534680  10.2753830  54.0657630
  54.7777160   9.3589370  53.8525430  54.0990420  10.6341120  54.3055430
  62.1772430   8.0042860  50.8484010  61.4837590   8.0020150  50.1886290
  62.9195290   7.5802180  50.4178180  61.7422360   9.6305570  54.9232500
  62.1979310   8.8494950  55.2371120  62.0814880  10.3412390  55.4673680
  49.4924910   5.4022030  62.0823240  49.6555950   4.9327390  61.2642610
  49.9577360   4.8945590  62.7472080  51.0663890   4.7773460  64.2419050
  50.6818680   4.1367130  64.8402010  51.3776080   5.4809580  64.8113780
  53.5342190   4.8719630  52.6378730  52.7604450   4.3317250  52.4777450
  54.2636820   4.3526240  52.2996490  64.2930170   3.8684990  58.4305120
  65.0129290   4.3640280  58.0401230  64.0911990   3.1902880  57.7858990
  59.6748970   3.9394050  64.3174120  59.6086280   3.0189720  64.0631710
  59.0454110   4.0369490  65.0318760  53.5779590   4.5400010  56.2757540
  54.0958260   3.7368270  56.2214430  53.1263610   4.4779150  57.1174370
  58.4649090   5.8066290  51.5484840  58.8064790   6.5508520  51.0528160
  57.6361800   6.1197410  51.9109670  59.6065700   6.7614620  64.0677920
  59.6210240   5.8295580  63.8496830  58.8990800   6.8474380  64.7067690
  65.8176910   3.4021960  63.4146500  65.0925100   3.9950740  63.2175890
  66.3452370   3.3945500  62.6159870  65.7690020   7.7996700  53.0658660
  65.1266180   7.1452320  53.3402380  65.3820680   8.2051790  52.2899330
  61.3476500   5.1282130  56.9130350  61.7000320   4.5310260  56.2531720
  60.4638830   4.8026360  57.0838600  57.4339780   5.8879820  54.3200760
  58.1210910   6.4349030  54.7008350  56.6472200   6.4320550  54.3550370
  56.7366990   2.8925850  53.9326120  57.1929770   3.7031100  54.1586310
  56.3855200   2.5748990  54.7644610  59.0399600   8.4032190  61.1618420
  59.6841820   8.6091570  61.8391840  59.4029040   7.6420590  60.7089270
  60.3131680   6.4064540  59.8795870  60.9553910   5.7057700  59.9928040
  60.8381030   7.1862980  59.6992760  64.1587400   6.6913160  49.6035010
  63.9324980   5.9743600  50.1959650  63.7683600   6.4425600  48.7656760
  62.0869300   7.2059440  63.0831930  62.4225540   7.7926130  63.7609850
  61.1669640   7.0752150  63.3129720  49.9403430  10.7180020  50.3779470
  50.3001070  11.3169360  49.7236740  49.7995770  11.2639910  51.1514500
  63.7403650   4.6085100  51.2649170  63.4525350   5.0697790  52.0527050
  64.5355820   4.1482870  51.5333390  49.9245290   8.9834880  64.8521870
  50.0336410   8.0429620  64.7117260  49.2725850   9.2489630  64.2035600
  57.9157880   7.2550770  66.2519990  57.5954750   6.5360010  66.7965680
  57.2416240   7.9305840  66.3256050  55.9572050   8.1011220  51.1953140
  55.9482150   8.8340910  50.5797650  55.0370410   7.8542800  51.2880100
  51.5578690   3.3226110  51.9399900  50.9506640   4.0625010  51.9495200
  52.0328040   3.4125470  51.1138100  58.9431650   8.1639460  49.8578330
  59.0443630   7.9603450  48.9280310  58.0433390   7.9097740  50.0626110
  57.5849760  10.6825780  54.5526000  57.8391260  10.6447170  53.6305370
  56.6362240  10.5559110  54.5454250  53.5683980   3.2837260  49.6888470
  54.3347250   3.1718620  50.2513900  53.6458670   2.5875230  49.0365240
  65.5927920   8.7726510  57.8038770  65.7175340   9.5957680  58.2762580
  66.4593480   8.5617240  57.4562920  53.0645450  10.8657720  57.4755900
  53.8007930  10.3173180  57.7464470  53.4486370  11.7313730  57.3361890
  49.9490930   6.9331290  53.3497410  49.0230710   7.1752430  53.3402820
  50.4147360   7.7605550  53.2282160  52.0703730  10.0503790  66.6641480
  52.8716460  10.3715840  67.0776880  51.5555550   9.6899370  67.3861390
  56.1747760  10.0388030  49.2981470  56.9676370  10.3276860  48.8463260
  55.6552110   9.6080200  48.6193950  60.9068360   6.1583660  66.6116890
  60.3006520   6.1815260  65.8712640  60.6022470   5.4266700  67.1484140
  62.3368730   9.8863950  65.2226300  63.2890480   9.8021970  65.1726540
  62.1896950  10.5505660  65.8960090  65.2277930   9.2658160  50.7218210
  64.9419440   8.8523300  49.9072390  65.0297480  10.1945870  50.6018730
  49.7901540   2.5377250  65.6077530  50.2940560   1.9584530  66.1793760
  49.0508960   2.8217480  66.1453900  56.6925160   5.2591440  49.1623820
  56.5875800   4.6443790  49.8885200  56.5249380   4.7357330  48.3786830
  56.8439480   3.9448240  65.1413050  56.0785150   4.5133240  65.0567720
  57.0255440   3.6524450  64.2481280  59.9327890   4.3211470  49.7665810
  59.3837990   4.7680770  50.4108550  60.5547150   3.8160720  50.2903480
  63.9862830   5.6753570  65.6988070  64.7272300   6.0129330  65.1955530
  63.2235510   5.8445630  65.1457840  55.6003010   3.2802390  51.6631110
  56.0219430   3.1142260  52.5062500  55.7253850   2.4702620  51.1686250
  62.6608490   3.7268400  64.2343280  63.0749510   3.8813480  65.0833700
  61.7259490   3.8523620  64.3969060  57.4223720   3.6788880  62.2039210
  57.8411830   4.5221610  62.0315450  56.5032350   3.8160920  61.9745990
  62.0975520   1.9642250  62.1639560  61.5710740   2.4884870  61.5604700
  62.4406860   2.5969640  62.7949290  55.2731140   9.9841890  63.3196940
  54.7352230  10.7087950  63.0005640  55.5265100   9.5072230  62.5294280
  58.1293350  11.2193100  63.5783590  58.0552050  12.1228240  63.8855960
  57.2272190  10.9005000  63.5505660  58.6778680  10.3851610  51.2009950
  59.5729470  10.7236580  51.2228710  58.7096310   9.6631020  50.5734230
  52.3174840   5.7578660  49.4296950  52.7549710   6.3008330  50.0854530
  52.8022570   4.9325610  49.4393290  49.5320640   8.5467690  56.8817210
  49.8623650   7.6788750  56.6495850  49.9611640   8.7526210  57.7122170
  54.1282560   6.8776700  54.5419180  53.8278100   6.7541670  55.4423090
  54.0220050   6.0185290  54.1334910  50.0210850   9.4138280  59.6198840
  49.5841840   9.5939080  60.4522990  50.5888530  10.1712900  59.4780560
  65.6573030   8.9155280  63.9076150  65.0575020   8.9747840  63.1640070
  65.7866930   7.9760260  64.0373000  66.8974480   6.6573100  49.2445860
  66.0667440   6.7249750  49.7153090  67.0746310   7.5477220  48.9412720
  66.3530940   3.4020580  51.7480060  67.1149850   3.9717230  51.8539750
  66.3685310   2.8347780  52.5188370  49.8535280   1.9258510  55.9787720
  49.1984120   1.6570150  55.3347420  50.6913230   1.8162990  55.5289700
  67.3590910   4.2570680  56.5921990  67.7299740   3.4738000  56.1857960
  67.9992840   4.9459780  56.4139290  64.3424670   5.6407260  62.0052310
  63.5284510   6.0704420  62.2678100  64.7498870   6.2525670  61.3921360
  66.4050110   3.6954950  48.9052580  66.6798950   4.6033830  48.7771800
  66.2160850   3.6317480  49.8414570  64.4000720  10.3925860  55.5320580
  64.9959790  10.0710430  54.8555000  64.6578870   9.9197680  56.3233850
  52.3063290   6.8243770  65.6811210  52.2632920   6.4536680  66.5625670
  52.4374300   7.7621340  65.8213030  56.0069320   8.3803360  61.2820930
  55.7660680   8.6477920  60.3951450  56.9471960   8.5509090  61.3371790
  67.2673480  10.3997740  62.0831570  66.7731760  10.7966610  61.3658700
  66.6586770   9.7746950  62.4768850  52.1451320   9.7706020  62.8008990
  51.5511640   9.6390720  63.5399030  52.1375160   8.9344160  62.3351090
  64.9512930  11.0421160  59.3618310  64.4915900  11.7936970  58.9876330
  64.3225390  10.3227630  59.3033110  51.7763550   7.1364400  61.7517030
  51.0497610   6.5169690  61.6842980  51.8372700   7.5305010  60.8815110
  55.3808650   9.3509400  58.5366440  55.8973670   8.7396760  58.0114700
  56.0306030   9.8538180  59.0277450  58.1204150  10.2417890  59.3635420
  58.4081960   9.9872190  58.4868430  58.6327370   9.6895250  59.9540990
  50.0593550  10.4538790  54.9613790  49.8915590   9.8209470  55.6595680
  49.1928060  10.6598190  54.6107980  51.6656250   9.1472020  52.4063930
  51.1403870   9.5280050  51.7025890  51.5900830   9.7722790  53.1273640
  58.1876510  11.1633990  66.7303620  59.1143820  10.9278260  66.7739580
  58.1726940  11.9905990  66.2489650  66.4221570  10.7059560  53.7277870
  66.5973760  10.0197300  53.0838790  65.7243140  11.2306610  53.3354540
  54.2649220  11.0954400  51.2813180  54.9968040  10.8113680  50.7337070
  54.5242890  10.8567680  52.1712560  53.4264010   7.2119130  51.2859510
  52.7972890   7.6804230  51.8345340  53.5411840   6.3668350  51.7205700
  64.7554070  10.3903850  66.5544660  65.5479390   9.8953080  66.3470620
  65.0487220  11.0693990  67.1620270  59.0131770   3.0403810  39.3169980
  58.2373870   2.5604250  39.6068550  59.6644700   2.3609460  39.1426140
  53.0297600   3.3523620  40.1945740  52.1982480   3.0972330  40.5942250
  53.6378580   3.4234390  40.9303660  63.0339200   7.4464000  38.0969110
  62.5720730   6.6751240  38.4256280  63.8464750   7.4730070  38.6021560
  53.0098860   7.3863710  40.3903760  53.3126900   6.4961450  40.2113980
  53.7542450   7.9433930  40.1626010  59.2602510   9.7322010  37.7173100
  58.6413950  10.1879510  37.1467540  60.1154290   9.8873470  37.3162800
  58.4540760   5.7161000  39.3240140  58.3849040   4.7750940  39.1629270
  59.2160620   5.8062410  39.8962710  60.1265860   4.6161250  35.1105010
  59.5083130   5.0810700  34.5467730  60.6389110   5.3088730  35.5274520
  54.9897620   4.1437120  41.7888610  54.6567000   4.7706040  42.4309680
  55.1664300   4.6699000  41.0090280  54.2016720   6.1117920  43.6037790
  54.8190720   6.7869000  43.3222240  53.3409840   6.5205900  43.5125290
  49.4949060   5.3017780  32.4844640  49.1177040   5.7904880  31.7529540
  49.7522130   5.9743060  33.1151170  65.1194310   7.5757330  41.5192430
  64.4357830   8.2456440  41.5109100  65.6588600   7.7737980  40.7537290
  62.6553050   9.4201460  40.2337610  62.6680210   9.0163750  39.3659870
  62.1028270  10.1948750  40.1299040  63.9498470   6.1417680  35.3227780
  63.8394800   5.1992010  35.4477200  63.9466720   6.5033320  36.2090540
  62.0538490   4.3231300  41.5620220  62.4707280   4.1091410  40.7273680
  62.7778310   4.5804090  42.1328840  59.4918750   1.7683000  34.6790270
  58.5648030   1.7020380  34.9078740  59.6443570   2.7063130  34.5645510
  66.0000590   2.7218520  41.6536460  65.1719220   2.7911610  41.1786590
  66.5951070   3.3072830  41.1852290  63.5216040   3.3303300  35.1825520
  62.9028460   2.9922850  34.5351820  63.5040490   2.6863060  35.8904710
  55.5657090   5.9815300  39.6249210  55.2685380   5.3760770  38.9456990
  56.5156910   6.0192610  39.5138570  63.6542700   9.5547170  43.2872310
  63.1773260  10.3619360  43.0944920  62.9704490   8.9025500  43.4398520
  54.6575520   5.7196990  46.2757010  53.7604050   5.9436960  46.5230410
  54.6828390   5.8431930  45.3268410  61.6980740   2.5690110  32.1898270
  62.1374020   1.7312540  32.0436090  62.4109160   3.2019510  32.2762410
  53.4846740   2.5910310  44.8514380  53.3454510   3.4633110  45.2201780
  52.6028100   2.2483120  44.7062320  59.8076120   7.5086180  36.1579510
  60.2472030   8.2510510  35.7434900  59.7463010   7.7512750  37.0818470
  55.2827090   8.5332010  47.0599530  55.2542520   8.9374960  46.1927960
  55.1192060   7.6042370  46.8971130  67.2341910   9.3159110  48.3563700
  67.7101630   9.7942000  49.0352780  67.8549070   9.2476600  47.6309200
  49.4365390   4.3607860  40.7685290  49.5145810   4.4956630  39.8241010
  50.0507070   3.6523750  40.9613410  50.6813020   6.0608050  37.1791470
  50.2741100   6.2022640  36.3245070  51.5726030   5.7768210  36.9762680
  66.6375160   6.5071960  45.5163710  66.7638220   6.2683840  44.5980890
  66.6796540   5.6756500  45.9885790  60.4991900  10.2099960  44.0858520
  61.0136570  10.1207970  44.8880950  59.6560980  10.5559660  44.3786430
  62.4746300  10.4955300  33.5142520  62.3147440  10.2058240  34.4124350
  62.3093010   9.7195430  32.9787750  54.9534680  10.2753830  35.2914140
  54.7777160   9.3589370  35.0781940  54.0990420  10.6341120  35.5311940
  62.1772430   8.0042860  32.0740520  61.4837590   8.0020150  31.4142800
  62.9195290   7.5802180  31.6434690  61.7422360   9.6305570  36.1489010
  62.1979310   8.8494950  36.4627630  62.0814880  10.3412390  36.6930190
  49.4924910   5.4022030  43.3079750  49.6555950   4.9327390  42.4899120
  49.9577360   4.8945590  43.9728590  51.0663890   4.7773460  45.4675560
  50.6818680   4.1367130  46.0658520  51.3776080   5.4809580  46.0370290
  53.5342190   4.8719630  33.8635240  52.7604450   4.3317250  33.7033960
  54.2636820   4.3526240  33.5253000  64.2930170   3.8684990  39.6561630
  65.0129290   4.3640280  39.2657740  64.0911990   3.1902880  39.0115500
  59.6748970   3.9394050  45.5430630  59.6086280   3.0189720  45.2888220
  59.0454110   4.0369490  46.2575270  53.5779590   4.5400010  37.5014050
  54.0958260   3.7368270  37.4470940  53.1263610   4.4779150  38.3430880
  58.4649090   5.8066290  32.7741350  58.8064790   6.5508520  32.2784670
  57.6361800   6.1197410  33.1366180  59.6065700   6.7614620  45.2934430
  59.6210240   5.8295580  45.0753340  58.8990800   6.8474380  45.9324200
  65.8176910   3.4021960  44.6403010  65.0925100   3.9950740  44.4432400
  66.3452370   3.3945500  43.8416380  65.7690020   7.7996700  34.2915170
  65.1266180   7.1452320  34.5658890  65.3820680   8.2051790  33.5155840
  61.3476500   5.1282130  38.1386860  61.7000320   4.5310260  37.4788230
  60.4638830   4.8026360  38.3095110  57.4339780   5.8879820  35.5457270
  58.1210910   6.4349030  35.9264860  56.6472200   6.4320550  35.5806880
  56.7366990   2.8925850  35.1582630  57.1929770   3.7031100  35.3842820
  56.3855200   2.5748990  35.9901120  59.0399600   8.4032190  42.3874930
  59.6841820   8.6091570  43.0648350  59.4029040   7.6420590  41.9345780
  60.3131680   6.4064540  41.1052380  60.9553910   5.7057700  41.2184550
  60.8381030   7.1862980  40.9249270  64.1587400   6.6913160  30.8291520
  63.9324980   5.9743600  31.4216160  63.7683600   6.4425600  29.9913270
  62.0869300   7.2059440  44.3088440  62.4225540   7.7926130  44.9866360
  61.1669640   7.0752150  44.5386230  49.9403430  10.7180020  31.6035980
  50.3001070  11.3169360  30.9493250  49.7995770  11.2639910  32.3771010
  63.7403650   4.6085100  32.4905680  63.4525350   5.0697790  33.2783560
  64.5355820   4.1482870  32.7589900  49.9245290   8.9834880  46.0778380
  50.0336410   8.0429620  45.9373770  49.2725850   9.2489630  45.4292110
  57.9157880   7.2550770  47.4776500  57.5954750   6.5360010  48.0222190
  57.2416240   7.9305840  47.5512560  55.9572050   8.1011220  32.4209650
  55.9482150   8.8340910  31.8054160  55.0370410   7.8542800  32.5136610
  51.5578690   3.3226110  33.1656410  50.9506640   4.0625010  33.1751710
  52.0328040   3.4125470  32.3394610  58.9431650   8.1639460  31.0834840
  59.0443630   7.9603450  30.1536820  58.0433390   7.9097740  31.2882620
  57.5849760  10.6825780  35.7782510  57.8391260  10.6447170  34.8561880
  56.6362240  10.5559110  35.7710760  53.5683980   3.2837260  30.9144980
  54.3347250   3.1718620  31.4770410  53.6458670   2.5875230  30.2621750
  65.5927920   8.7726510  39.0295280  65.7175340   9.5957680  39.5019090
  66.4593480   8.5617240  38.6819430  53.0645450  10.8657720  38.7012410
  53.8007930  10.3173180  38.9720980  53.4486370  11.7313730  38.5618400
  49.9490930   6.9331290  34.5753920  49.0230710   7.1752430  34.5659330
  50.4147360   7.7605550  34.4538670  52.0703730  10.0503790  47.8897990
  52.8716460  10.3715840  48.3033390  51.5555550   9.6899370  48.6117900
  56.1747760  10.0388030  30.5237980  56.9676370  10.3276860  30.0719770
  55.6552110   9.6080200  29.8450460  60.9068360   6.1583660  47.8373400
  60.3006520   6.1815260  47.0969150  60.6022470   5.4266700  48.3740650
  62.3368730   9.8863950  46.4482810  63.2890480   9.8021970  46.3983050
  62.1896950  10.5505660  47.1216600  65.2277930   9.2658160  31.9474720
  64.9419440   8.8523300  31.1328900  65.0297480  10.1945870  31.8275240
  49.7901540   2.5377250  46.8334040  50.2940560   1.9584530  47.4050270
  49.0508960   2.8217480  47.3710410  56.6925160   5.2591440  30.3880330
  56.5875800   4.6443790  31.1141710  56.5249380   4.7357330  29.6043340
  56.8439480   3.9448240  46.3669560  56.0785150   4.5133240  46.2824230
  57.0255440   3.6524450  45.4737790  59.9327890   4.3211470  30.9922320
  59.3837990   4.7680770  31.6365060  60.5547150   3.8160720  31.5159990
  63.9862830   5.6753570  46.9244580  64.7272300   6.0129330  46.4212040
  63.2235510   5.8445630  46.3714350  55.6003010   3.2802390  32.8887620
  56.0219430   3.1142260  33.7319010  55.7253850   2.4702620  32.3942760
  62.6608490   3.7268400  45.4599790  63.0749510   3.8813480  46.3090210
  61.7259490   3.8523620  45.6225570  57.4223720   3.6788880  43.4295720
  57.8411830   4.5221610  43.2571960  56.5032350   3.8160920  43.2002500
  62.0975520   1.9642250  43.3896070  61.5710740   2.4884870  42.7861210
  62.4406860   2.5969640  44.0205800  55.2731140   9.9841890  44.5453450
  54.7352230  10.7087950  44.2262150  55.5265100   9.5072230  43.7550790
  58.1293350  11.2193100  44.8040100  58.0552050  12.1228240  45.1112470
  57.2272190  10.9005000  44.7762170  58.6778680  10.3851610  32.4266460
  59.5729470  10.7236580  32.4485220  58.7096310   9.6631020  31.7990740
  52.3174840   5.7578660  30.6553460  52.7549710   6.3008330  31.3111040
  52.8022570   4.9325610  30.6649800  49.5320640   8.5467690  38.1073720
  49.8623650   7.6788750  37.8752360  49.9611640   8.7526210  38.9378680
  54.1282560   6.8776700  35.7675690  53.8278100   6.7541670  36.6679600
  54.0220050   6.0185290  35.3591420  50.0210850   9.4138280  40.8455350
  49.5841840   9.5939080  41.6779500  50.5888530  10.1712900  40.7037070
  65.6573030   8.9155280  45.1332660  65.0575020   8.9747840  44.3896580
  65.7866930   7.9760260  45.2629510  66.8974480   6.6573100  30.4702370
  66.0667440   6.7249750  30.9409600  67.0746310   7.5477220  30.1669230
  66.3530940   3.4020580  32.9736570  67.1149850   3.9717230  33.0796260
  66.3685310   2.8347780  33.7444880  49.8535280   1.9258510  37.2044230
  49.1984120   1.6570150  36.5603930  50.6913230   1.8162990  36.7546210
  67.3590910   4.2570680  37.8178500  67.7299740   3.4738000  37.4114470
  67.9992840   4.9459780  37.6395800  64.3424670   5.6407260  43.2308820
  63.5284510   6.0704420  43.4934610  64.7498870   6.2525670  42.6177870
  66.4050110   3.6954950  30.1309090  66.6798950   4.6033830  30.0028310
  66.2160850   3.6317480  31.0671080  64.4000720  10.3925860  36.7577090
  64.9959790  10.0710430  36.0811510  64.6578870   9.9197680  37.5490360
  52.3063290   6.8243770  46.9067720  52.2632920   6.4536680  47.7882180
  52.4374300   7.7621340  47.0469540  56.0069320   8.3803360  42.5077440
  55.7660680   8.6477920  41.6207960  56.9471960   8.5509090  42.5628300
  67.2673480  10.3997740  43.3088080  66.7731760  10.7966610  42.5915210
  66.6586770   9.7746950  43.7025360  52.1451320   9.7706020  44.0265500
  51.5511640   9.6390720  44.7655540  52.1375160   8.9344160  43.5607600
  64.9512930  11.0421160  40.5874820  64.4915900  11.7936970  40.2132840
  64.3225390  10.3227630  40.5289620  51.7763550   7.1364400  42.9773540
  51.0497610   6.5169690  42.9099490  51.8372700   7.5305010  42.1071620
  55.3808650   9.3509400  39.7622950  55.8973670   8.7396760  39.2371210
  56.0306030   9.8538180  40.2533960  58.1204150  10.2417890  40.5891930
  58.4081960   9.9872190  39.7124940  58.6327370   9.6895250  41.1797500
  50.0593550  10.4538790  36.1870300  49.8915590   9.8209470  36.8852190
  49.1928060  10.6598190  35.8364490  51.6656250   9.1472020  33.6320440
  51.1403870   9.5280050  32.9282400  51.5900830   9.7722790  34.3530150
  58.1876510  11.1633990  47.9560130  59.1143820  10.9278260  47.9996090
  58.1726940  11.9905990  47.4746160  66.4221570  10.7059560  34.9534380
  66.5973760  10.0197300  34.3095300  65.7243140  11.2306610  34.5611050
  54.2649220  11.0954400  32.5069690  54.9968040  10.8113680  31.9593580
  54.5242890  10.8567680  33.3969070  53.4264010   7.2119130  32.5116020
  52.7972890   7.6804230  33.0601850  53.5411840   6.3668350  32.9462210
  64.7554070  10.3903850  47.7801170  65.5479390   9.8953080  47.5727130
  65.0487220  11.0693990  48.3876780  59.0131770   3.0403810  20.5426490
  58.2373870   2.5604250  20.8325060  59.6644700   2.3609460  20.3682650
  53.0297600   3.3523620  21.4202250  52.1982480   3.0972330  21.8198760
  53.6378580   3.4234390  22.1560170  63.0339200   7.4464000  19.3225620
  62.5720730   6.6751240  19.6512790  63.8464750   7.4730070  19.8278070
  53.0098860   7.3863710  21.6160270  53.3126900   6.4961450  21.4370490
  53.7542450   7.9433930  21.3882520  59.2602510   9.7322010  18.9429610
  58.6413950  10.1879510  18.3724050  60.1154290   9.8873470  18.5419310
  58.4540760   5.7161000  20.5496650  58.3849040   4.7750940  20.3885780
  59.2160620   5.8062410  21.1219220  60.1265860   4.6161250  16.3361520
  59.5083130   5.0810700  15.7724240  60.6389110   5.3088730  16.7531030
  54.9897620   4.1437120  23.0145120  54.6567000   4.7706040  23.6566190
  55.1664300   4.6699000  22.2346790  54.2016720   6.1117920  24.8294300
  54.8190720   6.7869000  24.5478750  53.3409840   6.5205900  24.7381800
  49.4949060   5.3017780  13.7101150  49.1177040   5.7904880  12.9786050
  49.7522130   5.9743060  14.3407680  65.1194310   7.5757330  22.7448940
  64.4357830   8.2456440  22.7365610  65.6588600   7.7737980  21.9793800
  62.6553050   9.4201460  21.4594120  62.6680210   9.0163750  20.5916380
  62.1028270  10.1948750  21.3555550  63.9498470   6.1417680  16.5484290
  63.8394800   5.1992010  16.6733710  63.9466720   6.5033320  17.4347050
  62.0538490   4.3231300  22.7876730  62.4707280   4.1091410  21.9530190
  62.7778310   4.5804090  23.3585350  59.4918750   1.7683000  15.9046780
  58.5648030   1.7020380  16.1335250  59.6443570   2.7063130  15.7902020
  66.0000590   2.7218520  22.8792970  65.1719220   2.7911610  22.4043100
  66.5951070   3.3072830  22.4108800  63.5216040   3.3303300  16.4082030
  62.9028460   2.9922850  15.7608330  63.5040490   2.6863060  17.1161220
  55.5657090   5.9815300  20.8505720  55.2685380   5.3760770  20.1713500
  56.5156910   6.0192610  20.7395080  63.6542700   9.5547170  24.5128820
  63.1773260  10.3619360  24.3201430  62.9704490   8.9025500  24.6655030
  54.6575520   5.7196990  27.5013520  53.7604050   5.9436960  27.7486920
  54.6828390   5.8431930  26.5524920  61.6980740   2.5690110  13.4154780
  62.1374020   1.7312540  13.2692600  62.4109160   3.2019510  13.5018920
  53.4846740   2.5910310  26.0770890  53.3454510   3.4633110  26.4458290
  52.6028100   2.2483120  25.9318830  59.8076120   7.5086180  17.3836020
  60.2472030   8.2510510  16.9691410  59.7463010   7.7512750  18.3074980
  55.2827090   8.5332010  28.2856040  55.2542520   8.9374960  27.4184470
  55.1192060   7.6042370  28.1227640  67.2341910   9.3159110  29.5820210
  67.7101630   9.7942000  30.2609290  67.8549070   9.2476600  28.8565710
  49.4365390   4.3607860  21.9941800  49.5145810   4.4956630  21.0497520
  50.0507070   3.6523750  22.1869920  50.6813020   6.0608050  18.4047980
  50.2741100   6.2022640  17.5501580  51.5726030   5.7768210  18.2019190
  66.6375160   6.5071960  26.7420220  66.7638220   6.2683840  25.8237400
  66.6796540   5.6756500  27.2142300  60.4991900  10.2099960  25.3115030
  61.0136570  10.1207970  26.1137460  59.6560980  10.5559660  25.6042940
  62.4746300  10.4955300  14.7399030  62.3147440  10.2058240  15.6380860
  62.3093010   9.7195430  14.2044260  54.9534680  10.2753830  16.5170650
  54.7777160   9.3589370  16.3038450  54.0990420  10.6341120  16.7568450
  62.1772430   8.0042860  13.2997030  61.4837590   8.0020150  12.6399310
  62.9195290   7.5802180  12.8691200  61.7422360   9.6305570  17.3745520
  62.1979310   8.8494950  17.6884140  62.0814880  10.3412390  17.9186700
  49.4924910   5.4022030  24.5336260  49.6555950   4.9327390  23.7155630
  49.9577360   4.8945590  25.1985100  51.0663890   4.7773460  26.6932070
  50.6818680   4.1367130  27.2915030  51.3776080   5.4809580  27.2626800
  53.5342190   4.8719630  15.0891750  52.7604450   4.3317250  14.9290470
  54.2636820   4.3526240  14.7509510  64.2930170   3.8684990  20.8818140
  65.0129290   4.3640280  20.4914250  64.0911990   3.1902880  20.2372010
  59.6748970   3.9394050  26.7687140  59.6086280   3.0189720  26.5144730
  59.0454110   4.0369490  27.4831780  53.5779590   4.5400010  18.7270560
  54.0958260   3.7368270  18.6727450  53.1263610   4.4779150  19.5687390
  58.4649090   5.8066290  13.9997860  58.8064790   6.5508520  13.5041180
  57.6361800   6.1197410  14.3622690  59.6065700   6.7614620  26.5190940
  59.6210240   5.8295580  26.3009850  58.8990800   6.8474380  27.1580710
  65.8176910   3.4021960  25.8659520  65.0925100   3.9950740  25.6688910
  66.3452370   3.3945500  25.0672890  65.7690020   7.7996700  15.5171680
  65.1266180   7.1452320  15.7915400  65.3820680   8.2051790  14.7412350
  61.3476500   5.1282130  19.3643370  61.7000320   4.5310260  18.7044740
  60.4638830   4.8026360  19.5351620  57.4339780   5.8879820  16.7713780
  58.1210910   6.4349030  17.1521370  56.6472200   6.4320550  16.8063390
  56.7366990   2.8925850  16.3839140  57.1929770   3.7031100  16.6099330
  56.3855200   2.5748990  17.2157630  59.0399600   8.4032190  23.6131440
  59.6841820   8.6091570  24.2904860  59.4029040   7.6420590  23.1602290
  60.3131680   6.4064540  22.3308890  60.9553910   5.7057700  22.4441060
  60.8381030   7.1862980  22.1505780  64.1587400   6.6913160  12.0548030
  63.9324980   5.9743600  12.6472670  63.7683600   6.4425600  11.2169780
  62.0869300   7.2059440  25.5344950  62.4225540   7.7926130  26.2122870
  61.1669640   7.0752150  25.7642740  49.9403430  10.7180020  12.8292490
  50.3001070  11.3169360  12.1749760  49.7995770  11.2639910  13.6027520
  63.7403650   4.6085100  13.7162190  63.4525350   5.0697790  14.5040070
  64.5355820   4.1482870  13.9846410  49.9245290   8.9834880  27.3034890
  50.0336410   8.0429620  27.1630280  49.2725850   9.2489630  26.6548620
  57.9157880   7.2550770  28.7033010  57.5954750   6.5360010  29.2478700
  57.2416240   7.9305840  28.7769070  55.9572050   8.1011220  13.6466160
  55.9482150   8.8340910  13.0310670  55.0370410   7.8542800  13.7393120
  51.5578690   3.3226110  14.3912920  50.9506640   4.0625010  14.4008220
  52.0328040   3.4125470  13.5651120  58.9431650   8.1639460  12.3091350
  59.0443630   7.9603450  11.3793330  58.0433390   7.9097740  12.5139130
  57.5849760  10.6825780  17.0039020  57.8391260  10.6447170  16.0818390
  56.6362240  10.5559110  16.9967270  53.5683980   3.2837260  12.1401490
  54.3347250   3.1718620  12.7026920  53.6458670   2.5875230  11.4878260
  65.5927920   8.7726510  20.2551790  65.7175340   9.5957680  20.7275600
  66.4593480   8.5617240  19.9075940  53.0645450  10.8657720  19.9268920
  53.8007930  10.3173180  20.1977490  53.4486370  11.7313730  19.7874910
  49.9490930   6.9331290  15.8010430  49.0230710   7.1752430  15.7915840
  50.4147360   7.7605550  15.6795180  52.0703730  10.0503790  29.1154500
  52.8716460  10.3715840  29.5289900  51.5555550   9.6899370  29.8374410
  56.1747760  10.0388030  11.7494490  56.9676370  10.3276860  11.2976280
  55.6552110   9.6080200  11.0706970  60.9068360   6.1583660  29.0629910
  60.3006520   6.1815260  28.3225660  60.6022470   5.4266700  29.5997160
  62.3368730   9.8863950  27.6739320  63.2890480   9.8021970  27.6239560
  62.1896950  10.5505660  28.3473110  65.2277930   9.2658160  13.1731230
  64.9419440   8.8523300  12.3585410  65.0297480  10.1945870  13.0531750
  49.7901540   2.5377250  28.0590550  50.2940560   1.9584530  28.6306780
  49.0508960   2.8217480  28.5966920  56.6925160   5.2591440  11.6136840
  56.5875800   4.6443790  12.3398220  56.5249380   4.7357330  10.8299850
  56.8439480   3.9448240  27.5926070  56.0785150   4.5133240  27.5080740
  57.0255440   3.6524450  26.6994300  59.9327890   4.3211470  12.2178830
  59.3837990   4.7680770  12.8621570  60.5547150   3.8160720  12.7416500
  63.9862830   5.6753570  28.1501090  64.7272300   6.0129330  27.6468550
  63.2235510   5.8445630  27.5970860  55.6003010   3.2802390  14.1144130
  56.0219430   3.1142260  14.9575520  55.7253850   2.4702620  13.6199270
  62.6608490   3.7268400  26.6856300  63.0749510   3.8813480  27.5346720
  61.7259490   3.8523620  26.8482080  57.4223720   3.6788880  24.6552230
  57.8411830   4.5221610  24.4828470  56.5032350   3.8160920  24.4259010
  62.0975520   1.9642250  24.6152580  61.5710740   2.4884870  24.0117720
  62.4406860   2.5969640  25.2462310  55.2731140   9.9841890  25.7709960
  54.7352230  10.7087950  25.4518660  55.5265100   9.5072230  24.9807300
  58.1293350  11.2193100  26.0296610  58.0552050  12.1228240  26.3368980
  57.2272190  10.9005000  26.0018680  58.6778680  10.3851610  13.6522970
  59.5729470  10.7236580  13.6741730  58.7096310   9.6631020  13.0247250
  52.3174840   5.7578660  11.8809970  52.7549710   6.3008330  12.5367550
  52.8022570   4.9325610  11.8906310  49.5320640   8.5467690  19.3330230
  49.8623650   7.6788750  19.1008870  49.9611640   8.7526210  20.1635190
  54.1282560   6.8776700  16.9932200  53.8278100   6.7541670  17.8936110
  54.0220050   6.0185290  16.5847930  50.0210850   9.4138280  22.0711860
  49.5841840   9.5939080  22.9036010  50.5888530  10.1712900  21.9293580
  65.6573030   8.9155280  26.3589170  65.0575020   8.9747840  25.6153090
  65.7866930   7.9760260  26.4886020  66.8974480   6.6573100  11.6958880
  66.0667440   6.7249750  12.1666110  67.0746310   7.5477220  11.3925740
  66.3530940   3.4020580  14.1993080  67.1149850   3.9717230  14.3052770
  66.3685310   2.8347780  14.9701390  49.8535280   1.9258510  18.4300740
  49.1984120   1.6570150  17.7860440  50.6913230   1.8162990  17.9802720
  67.3590910   4.2570680  19.0435010  67.7299740   3.4738000  18.6370980
  67.9992840   4.9459780  18.8652310  64.3424670   5.6407260  24.4565330
  63.5284510   6.0704420  24.7191120  64.7498870   6.2525670  23.8434380
  66.4050110   3.6954950  11.3565600  66.6798950   4.6033830  11.2284820
  66.2160850   3.6317480  12.2927590  64.4000720  10.3925860  17.9833600
  64.9959790  10.0710430  17.3068020  64.6578870   9.9197680  18.7746870
  52.3063290   6.8243770  28.1324230  52.2632920   6.4536680  29.0138690
  52.4374300   7.7621340  28.2726050  56.0069320   8.3803360  23.7333950
  55.7660680   8.6477920  22.8464470  56.9471960   8.5509090  23.7884810
  67.2673480  10.3997740  24.5344590  66.7731760  10.7966610  23.8171720
  66.6586770   9.7746950  24.9281870  52.1451320   9.7706020  25.2522010
  51.5511640   9.6390720  25.9912050  52.1375160   8.9344160  24.7864110
  64.9512930  11.0421160  21.8131330  64.4915900  11.7936970  21.4389350
  64.3225390  10.3227630  21.7546130  51.7763550   7.1364400  24.2030050
  51.0497610   6.5169690  24.1356000  51.8372700   7.5305010  23.3328130
  55.3808650   9.3509400  20.9879460  55.8973670   8.7396760  20.4627720
  56.0306030   9.8538180  21.4790470  58.1204150  10.2417890  21.8148440
  58.4081960   9.9872190  20.9381450  58.6327370   9.6895250  22.4054010
  50.0593550  10.4538790  17.4126810  49.8915590   9.8209470  18.1108700
  49.1928060  10.6598190  17.0621000  51.6656250   9.1472020  14.8576950
  51.1403870   9.5280050  14.1538910  51.5900830   9.7722790  15.5786660
  58.1876510  11.1633990  29.1816640  59.1143820  10.9278260  29.2252600
  58.1726940  11.9905990  28.7002670  66.4221570  10.7059560  16.1790890
  66.5973760  10.0197300  15.5351810  65.7243140  11.2306610  15.7867560
  54.2649220  11.0954400  13.7326200  54.9968040  10.8113680  13.1850090
  54.5242890  10.8567680  14.6225580  53.4264010   7.2119130  13.7372530
  52.7972890   7.6804230  14.2858360  53.5411840   6.3668350  14.1718720
  64.7554070  10.3903850  29.0057680  65.5479390   9.8953080  28.7983640
  65.0487220  11.0693990  29.6133290  59.0131770   3.0403810   1.7683000
  58.2373870   2.5604250   2.0581570  59.6644700   2.3609460   1.5939160
  53.0297600   3.3523620   2.6458760  52.1982480   3.0972330   3.0455270
  53.6378580   3.4234390   3.3816680  53.0098860   7.3863710   2.8416780
  53.3126900   6.4961450   2.6627000  53.7542450   7.9433930   2.6139030
  58.4540760   5.7161000   1.7753160  58.3849040   4.7750940   1.6142290
  59.2160620   5.8062410   2.3475730  54.9897620   4.1437120   4.2401630
  54.6567000   4.7706040   4.8822700  55.1664300   4.6699000   3.4603300
  54.2016720   6.1117920   6.0550810  54.8190720   6.7869000   5.7735260
  53.3409840   6.5205900   5.9638310  65.1194310   7.5757330   3.9705450
  64.4357830   8.2456440   3.9622120  65.6588600   7.7737980   3.2050310
  62.6553050   9.4201460   2.6850630  62.6680210   9.0163750   1.8172890
  62.1028270  10.1948750   2.5812060  62.0538490   4.3231300   4.0133240
  62.4707280   4.1091410   3.1786700  62.7778310   4.5804090   4.5841860
  66.0000590   2.7218520   4.1049480  65.1719220   2.7911610   3.6299610
  66.5951070   3.3072830   3.6365310  63.6542700   9.5547170   5.7385330
  63.1773260  10.3619360   5.5457940  62.9704490   8.9025500   5.8911540
  54.6575520   5.7196990   8.7270030  53.7604050   5.9436960   8.9743430
  54.6828390   5.8431930   7.7781430  53.4846740   2.5910310   7.3027400
  53.3454510   3.4633110   7.6714800  52.6028100   2.2483120   7.1575340
  55.2827090   8.5332010   9.5112550  55.2542520   8.9374960   8.6440980
  55.1192060   7.6042370   9.3484150  67.2341910   9.3159110  10.8076720
  67.7101630   9.7942000  11.4865800  67.8549070   9.2476600  10.0822220
  49.4365390   4.3607860   3.2198310  49.5145810   4.4956630   2.2754030
  50.0507070   3.6523750   3.4126430  66.6375160   6.5071960   7.9676730
  66.7638220   6.2683840   7.0493910  66.6796540   5.6756500   8.4398810
  60.4991900  10.2099960   6.5371540  61.0136570  10.1207970   7.3393970
  59.6560980  10.5559660   6.8299450  49.4924910   5.4022030   5.7592770
  49.6555950   4.9327390   4.9412140  49.9577360   4.8945590   6.4241610
  51.0663890   4.7773460   7.9188580  50.6818680   4.1367130   8.5171540
  51.3776080   5.4809580   8.4883310  64.2930170   3.8684990   2.1074650
  65.0129290   4.3640280   1.7170760  64.0911990   3.1902880   1.4628520
  59.6748970   3.9394050   7.9943650  59.6086280   3.0189720   7.7401240
  59.0454110   4.0369490   8.7088290  59.6065700   6.7614620   7.7447450
  59.6210240   5.8295580   7.5266360  58.8990800   6.8474380   8.3837220
  65.8176910   3.4021960   7.0916030  65.0925100   3.9950740   6.8945420
  66.3452370   3.3945500   6.2929400  59.0399600   8.4032190   4.8387950
  59.6841820   8.6091570   5.5161370  59.4029040   7.6420590   4.3858800
  60.3131680   6.4064540   3.5565400  60.9553910   5.7057700   3.6697570
  60.8381030   7.1862980   3.3762290  62.0869300   7.2059440   6.7601460
  62.4225540   7.7926130   7.4379380  61.1669640   7.0752150   6.9899250
  49.9245290   8.9834880   8.5291400  50.0336410   8.0429620   8.3886790
  49.2725850   9.2489630   7.8805130  57.9157880   7.2550770   9.9289520
  57.5954750   6.5360010  10.4735210  57.2416240   7.9305840  10.0025580
  52.0703730  10.0503790  10.3411010  52.8716460  10.3715840  10.7546410
  51.5555550   9.6899370  11.0630920  60.9068360   6.1583660  10.2886420
  60.3006520   6.1815260   9.5482170  60.6022470   5.4266700  10.8253670
  62.3368730   9.8863950   8.8995830  63.2890480   9.8021970   8.8496070
  62.1896950  10.5505660   9.5729620  49.7901540   2.5377250   9.2847060
  50.2940560   1.9584530   9.8563290  49.0508960   2.8217480   9.8223430
  56.8439480   3.9448240   8.8182580  56.0785150   4.5133240   8.7337250
  57.0255440   3.6524450   7.9250810  63.9862830   5.6753570   9.3757600
  64.7272300   6.0129330   8.8725060  63.2235510   5.8445630   8.8227370
  62.6608490   3.7268400   7.9112810  63.0749510   3.8813480   8.7603230
  61.7259490   3.8523620   8.0738590  57.4223720   3.6788880   5.8808740
  57.8411830   4.5221610   5.7084980  56.5032350   3.8160920   5.6515520
  62.0975520   1.9642250   5.8409090  61.5710740   2.4884870   5.2374230
  62.4406860   2.5969640   6.4718820  55.2731140   9.9841890   6.9966470
  54.7352230  10.7087950   6.6775170  55.5265100   9.5072230   6.2063810
  58.1293350  11.2193100   7.2553120  58.0552050  12.1228240   7.5625490
  57.2272190  10.9005000   7.2275190  50.0210850   9.4138280   3.2968370
  49.5841840   9.5939080   4.1292520  50.5888530  10.1712900   3.1550090
  65.6573030   8.9155280   7.5845680  65.0575020   8.9747840   6.8409600
  65.7866930   7.9760260   7.7142530  64.3424670   5.6407260   5.6821840
  63.5284510   6.0704420   5.9447630  64.7498870   6.2525670   5.0690890
  52.3063290   6.8243770   9.3580740  52.2632920   6.4536680  10.2395200
  52.4374300   7.7621340   9.4982560  56.0069320   8.3803360   4.9590460
  55.7660680   8.6477920   4.0720980  56.9471960   8.5509090   5.0141320
  67.2673480  10.3997740   5.7601100  66.7731760  10.7966610   5.0428230
  66.6586770   9.7746950   6.1538380  52.1451320   9.7706020   6.4778520
  51.5511640   9.6390720   7.2168560  52.1375160   8.9344160   6.0120620
  64.9512930  11.0421160   3.0387840  64.4915900  11.7936970   2.6645860
  64.3225390  10.3227630   2.9802640  51.7763550   7.1364400   5.4286560
  51.0497610   6.5169690   5.3612510  51.8372700   7.5305010   4.5584640
  55.3808650   9.3509400   2.2135970  55.8973670   8.7396760   1.6884230
  56.0306030   9.8538180   2.7046980  58.1204150  10.2417890   3.0404950
  58.4081960   9.9872190   2.1637960  58.6327370   9.6895250   3.6310520
  58.1876510  11.1633990  10.4073150  59.1143820  10.9278260  10.4509110
  58.1726940  11.9905990   9.9259180  64.7554070  10.3903850  10.2314190
  65.5479390   9.8953080  10.0240150  65.0487220  11.0693990  10.8389800
  42.1070240 151.4572710 150.0821650  42.0264290 150.5427320 149.8113360
  41.6934660 151.9539780 149.3761360  32.6646060 148.5073430 146.6249070
  31.7762760 148.8489400 146.5228950  32.9487250 148.3073750 145.7329900
  34.8407450 147.0904930 147.6587450  34.9474200 147.9908660 147.9656210
  33.9299810 147.0422900 147.3682100  44.4926560 146.2129740 149.1298350
  45.3136180 145.7226310 149.1723830  44.5260640 146.8027400 149.8830190
  38.3294500 143.8982090 150.5891090  38.6369480 143.3428980 149.8726590
  37.3995200 144.0326550 150.4064080  40.7044340 148.2347920 144.3218370
  39.7648010 148.3961880 144.4070830  41.0227600 148.9533600 143.7754360
  36.3231900 152.4895660 150.1070940  35.9188900 151.7772910 149.6116840
  36.4095020 152.1448900 150.9958980  46.5054390 144.0180840 143.1500250
  46.1927050 144.1107670 144.0499320  47.2666860 144.5961870 143.0997680
  33.0236530 151.3840640 147.6077590  32.9034130 152.1102730 146.9958860
  32.7137420 150.6143550 147.1305500  35.4900190 144.7275710 150.9901260
  35.0468340 145.5085250 150.6585780  36.0485180 145.0505600 151.6972200
  38.6059010 144.3486410 145.8707090  37.9813190 144.3446280 146.5960400
  38.5189130 143.4817370 145.4743060  35.2814410 149.8509280 148.7182510
  35.0555330 149.6346450 149.6229130  34.5006940 150.2837740 148.3728480
  42.5112170 149.8572650 147.3173160  41.9121060 150.5808450 147.1336780
  43.0591780 149.7949430 146.5349610  41.1177040 148.4936190 149.3476440
  41.5106610 148.8108390 148.5345130  41.4793890 147.6148070 149.4620960
  30.3411440 149.0257110 142.7809360  30.2586110 149.9687870 142.9224350
  29.9894500 148.8832020 141.9021710  33.9911950 147.6422630 150.8073920
  33.6512000 148.1197860 151.5640970  33.2289270 147.1887750 150.4475020
  38.2029720 148.7608220 144.8386470  38.3242540 148.7194700 145.7872290
  37.8178230 149.6232370 144.6833200  37.2151220 151.0709360 144.2369770
  36.6468120 150.6227610 143.6105680  37.9240220 151.4302140 143.7034920
  31.3058030 146.5641610 149.7238590  31.0204950 146.1997280 150.5617210
  31.2436890 145.8322070 149.1101730  40.9796620 145.4570870 146.4451960
  40.1661230 144.9584040 146.3697270  40.7858570 146.2969120 146.0288310
  43.6945010 149.8290520 144.7414120  44.5824630 150.1407750 144.5665460
  43.6650100 148.9562770 144.3494700  45.9659280 151.1402360 144.2093980
  45.8823000 151.5716580 143.3590420  46.6853470 151.6000710 144.6420800
  30.7988690 151.7000560 143.6835290  31.6683540 151.9825360 143.9671210
  30.3079010 152.5136430 143.5684100  33.8635280 143.4311420 148.2766090
  33.7349910 143.4229320 149.2251010  33.0397300 143.7694510 147.9257100
  45.7230020 146.6381790 146.2961800  45.0943180 146.7427460 145.5820030
  45.2281940 146.8578570 147.0855680  37.6914050 148.9167740 147.7119680
  36.9830200 149.3854080 148.1533290  37.9758530 148.2589750 148.3464870
  41.7229480 145.6418400 149.1515470  41.5997260 145.6604530 148.2024980
  42.6714040 145.6897340 149.2713870  35.8949070 147.2252820 145.0870390
  36.7439600 147.6622970 145.0210580  35.5280340 147.5373080 145.9142450
  44.8158850 151.7965580 150.0001960  43.8748990 151.8115810 150.1749650
  45.1302920 151.0101540 150.4462260  33.4887250 150.9110250 144.2438810
  33.5690840 149.9637760 144.3556210  34.3807000 151.2417130 144.3499470
  35.7218420 149.5483540 142.4806720  35.5207480 148.6850900 142.8420060
  35.5510470 149.4616900 141.5428320  43.2006730 144.3591770 145.0093600
  43.4809020 143.5159670 145.3653020  42.4272460 144.5914880 145.5232350
  34.5201220 146.6484160 142.4684600  34.8227120 146.6551590 141.5603750
  35.2595810 146.2982020 142.9652260  37.7386150 145.5918780 143.4540800
  37.3908150 144.9142770 142.8743250  37.9398920 145.1308290 144.2684190
  31.0791790 152.1206430 149.8505170  30.4240630 151.8518070 149.2064870
  31.9169740 152.0110910 149.4007150  44.0282230 146.9147720 144.0723660
  44.4467110 146.7278700 143.2320320  43.7218290 146.0626770 144.3826590
  47.5271960 151.8271860 147.7699460  47.1515560 151.0599790 147.3380750
  46.7975080 152.2094560 148.2574390  30.2929870 149.3305360 145.7930500
  29.3893950 149.5935560 145.6182160  30.7770490 149.6016530 145.0130460
  32.8357080 148.3870900 143.7024880  33.5448780 147.9654120 143.2172160
  32.1197020 148.4546130 143.0708230  32.4831240 144.4410230 142.7427530
  33.2059370 144.9819170 143.0608750  32.7555760 144.1673650 141.8669070
  46.2922890 149.3102700 147.0099110  46.7882010 149.0773570 147.7947990
  46.0938960 148.4714540 146.5936750  47.7210050 147.9463650 149.5436790
  47.6109330 147.7919690 150.4819060  48.4817640 147.4184590 149.3012200
  48.6100320 145.7771570 142.7842930  49.5349630 145.6452750 142.5761220
  48.5876110 145.8564390 143.7379380  48.6838810 146.5482230 145.4099640
  47.8890310 146.4827350 145.9392550  48.8882090 147.4832870 145.3984990
  46.9797310 144.5094350 149.8707290  46.9185710 143.5655570 149.7238310
  47.7589340 144.6174440 150.4160750  31.9078080 144.4803490 146.3363100
  32.6657440 144.5932370 145.7627130  31.4455250 145.3172690 146.2906530
  38.4491890 146.5942760 149.3265410  37.6366400 146.2199650 148.9861290
  38.9533530 145.8387840 149.6286600  42.9516870 143.2585210 150.5648480
  43.5546240 143.8305420 151.0397000  42.2109860 143.8224650 150.3422380
  46.0951470 143.6606770 145.8388760  46.2902100 144.5590220 146.1056190
  45.3081340 143.4293850 146.3321710  34.2803230 145.0067540 144.8765070
  34.8095990 144.2197340 144.7473020  34.9131550 145.6858730 145.1100600
  36.4741070 144.7442680 147.9310460  35.8443810 144.0429990 148.0980590
  35.9346210 145.5046810 147.7143620  42.1070240 151.4572710 131.3078160
  42.0264290 150.5427320 131.0369870  41.6934660 151.9539780 130.6017870
  32.6646060 148.5073430 127.8505580  31.7762760 148.8489400 127.7485460
  32.9487250 148.3073750 126.9586410  30.6279070 151.1079080 133.7345280
  31.1995180 150.3401280 133.7348920  30.6280610 151.4067840 132.8251890
  31.8703940 146.5163440 135.5214210  31.6906780 145.6189190 135.8016970
  31.4684020 147.0635310 136.1961160  40.7102440 148.7179300 133.4226520
  41.0867260 147.8451180 133.3100190  40.6121950 149.0538000 132.5316960
  34.8407450 147.0904930 128.8843960  34.9474200 147.9908660 129.1912720
  33.9299810 147.0422900 128.5938610  44.4926560 146.2129740 130.3554860
  45.3136180 145.7226310 130.3980340  44.5260640 146.8027400 131.1086700
  32.4890610 149.0123940 134.1296550  33.1700720 149.2762310 134.7483950
  32.1738660 148.1724810 134.4634560  36.6815180 150.0591300 133.2169140
  37.1893400 150.5572270 133.8574160  37.2128420 149.2826500 133.0408500
  48.7826110 148.2296490 136.9198490  48.0778280 148.6178200 136.4013600
  49.0484030 148.9246780 137.5219420  34.9651280 144.6989860 137.4832560
  34.9669720 145.2162250 136.6778460  34.1355590 144.2220040 137.4602490
  44.7288040 148.1530120 133.1282400  44.0243610 148.4415010 133.7085510
  45.0900200 148.9630230 132.7681960  34.6466610 146.4099820 135.4903010
  34.9883420 147.2541870 135.1956880  33.7082420 146.5583560 135.6068350
  47.7974960 147.5984910 133.5191610  46.8499870 147.6323890 133.6507040
  48.1224950 148.4123860 133.9040970  38.3294500 143.8982090 131.8147600
  38.6369480 143.3428980 131.0983100  37.3995200 144.0326550 131.6320590
  40.7044340 148.2347920 125.5474880  39.7648010 148.3961880 125.6327340
  41.0227600 148.9533600 125.0010870  44.1899110 149.7035760 136.4708780
  43.7770290 150.5289470 136.7248770  43.4575060 149.1180800 136.2785140
  36.3231900 152.4895660 131.3327450  35.9188900 151.7772910 130.8373350
  36.4095020 152.1448900 132.2215490  35.0360520 149.2638870 135.1126490
  35.5875110 149.3734210 134.3379740  35.5504030 149.6376470 135.8281720
  46.5054390 144.0180840 124.3756760  46.1927050 144.1107670 125.2755830
  47.2666860 144.5961870 124.3254190  33.0236530 151.3840640 128.8334100
  32.9034130 152.1102730 128.2215370  32.7137420 150.6143550 128.3562010
  47.7155680 148.7552340 140.3530900  47.0999950 149.2632010 139.8246360
  47.3952100 147.8550670 140.2956840  35.4900190 144.7275710 132.2157770
  35.0468340 145.5085250 131.8842290  36.0485180 145.0505600 132.9228710
  39.7770000 147.5944230 137.8193090  39.3149370 147.8027250 138.6313030
  39.3748110 146.7803580 137.5163760  44.7774510 148.8153180 138.9489750
  43.9268100 148.5158930 139.2698820  44.6176300 149.0595190 138.0373570
  41.8724220 150.3154930 141.0488540  42.1977630 149.4818680 140.7090770
  42.6604550 150.8383450 141.1966870  38.6059010 144.3486410 127.0963600
  37.9813190 144.3446280 127.8216910  38.5189130 143.4817370 126.6999570
  37.5276090 145.2723040 134.0747370  37.8248420 146.1785870 133.9939390
  38.0761650 144.7841820 133.4606940  35.2814410 149.8509280 129.9439020
  35.0555330 149.6346450 130.8485640  34.5006940 150.2837740 129.5984990
  42.5112170 149.8572650 128.5429670  41.9121060 150.5808450 128.3593290
  43.0591780 149.7949430 127.7606120  37.7213620 150.7494860 140.6099290
  37.6257220 149.8089590 140.4599690  38.5645600 150.9709930 140.2147360
  41.1177040 148.4936190 130.5732950  41.5106610 148.8108390 129.7601640
  41.4793890 147.6148070 130.6877470  32.8524160 147.1608530 138.7633070
  32.4587550 148.0083740 138.9705850  32.1642560 146.5234900 138.9541710
  39.4269210 147.2443500 141.8329810  38.7367530 147.0515700 142.4675900
  40.1701510 147.5278140 142.3654110  30.1541210 145.0836990 132.7963150
  29.8654260 145.6539850 133.5088130  30.8986970 144.6041440 133.1594380
  30.3411440 149.0257110 124.0065870  30.2586110 149.9687870 124.1480860
  29.9894500 148.8832020 123.1278220  41.7032180 151.0841940 134.6683730
  40.9713300 151.5928750 135.0173830  41.3056520 150.2671920 134.3672510
  38.1409570 147.7596140 133.0736220  38.1445630 147.3186090 132.2240760
  39.0360690 148.0813470 133.1808040  33.9911950 147.6422630 132.0330430
  33.6512000 148.1197860 132.7897480  33.2289270 147.1887750 131.6731530
  38.2029720 148.7608220 126.0642980  38.3242540 148.7194700 127.0128800
  37.8178230 149.6232370 125.9089710  42.1658090 146.5375620 134.0806670
  42.1830830 146.9884270 134.9248520  41.9173670 145.6381260 134.2940110
  37.2151220 151.0709360 125.4626280  36.6468120 150.6227610 124.8362190
  37.9240220 151.4302140 124.9291430  45.5928840 143.9507800 139.9193050
  45.9174610 143.2197460 140.4451030  45.6285350 143.6321440 139.0174040
  31.3058030 146.5641610 130.9495100  31.0204950 146.1997280 131.7873720
  31.2436890 145.8322070 130.3358240  36.2316910 150.8606560 137.1385840
  35.9273980 151.7398540 137.3636200  37.1863370 150.9206350 137.1743280
  40.9796620 145.4570870 127.6708470  40.1661230 144.9584040 127.5953780
  40.7858570 146.2969120 127.2544820  43.6945010 149.8290520 125.9670630
  44.5824630 150.1407750 125.7921970  43.6650100 148.9562770 125.5751210
  32.2880640 151.7009300 138.2857200  31.9295580 152.3663150 138.8730540
  31.9935200 150.8692850 138.6569820  35.4893760 152.1593540 141.1696750
  35.1893900 152.3050720 140.2724570  36.2605000 151.5998830 141.0770140
  45.9659280 151.1402360 125.4350490  45.8823000 151.5716580 124.5846930
  46.6853470 151.6000710 125.8677310  30.7988690 151.7000560 124.9091800
  31.6683540 151.9825360 125.1927720  30.3079010 152.5136430 124.7940610
  33.8635280 143.4311420 129.5022600  33.7349910 143.4229320 130.4507520
  33.0397300 143.7694510 129.1513610  30.8629210 145.1902540 138.9629300
  30.1487730 145.3899460 139.5681910  31.2824250 144.4142110 139.3344100
  42.3567990 147.6824850 136.7130750  42.7248810 146.8620060 137.0410320
  41.4966190 147.7426740 137.1286400  45.7230020 146.6381790 127.5218310
  45.0943180 146.7427460 126.8076540  45.2281940 146.8578570 128.3112190
  37.6914050 148.9167740 128.9376190  36.9830200 149.3854080 129.3789800
  37.9758530 148.2589750 129.5721380  39.3169980 150.3364440 136.9368720
  39.8155230 150.8110260 137.6020570  39.4592930 149.4127960 137.1438750
  41.7229480 145.6418400 130.3771980  41.5997260 145.6604530 129.4281490
  42.6714040 145.6897340 130.4970380  35.8949070 147.2252820 126.3126900
  36.7439600 147.6622970 126.2467090  35.5280340 147.5373080 127.1398960
  46.5236840 146.5532400 137.7797110  46.0210440 147.2937800 138.1190920
  47.3393500 146.9416400 137.4633900  44.8158850 151.7965580 131.2258470
  43.8748990 151.8115810 131.4006160  45.1302920 151.0101540 131.6718770
  33.4887250 150.9110250 125.4695320  33.5690840 149.9637760 125.5812720
  34.3807000 151.2417130 125.5755980  33.0481130 150.8754760 141.6001560
  33.0886470 150.5768630 142.5086790  33.9026630 151.2762370 141.4409080
  34.9886940 149.4546860 139.5676050  34.4583400 148.9637810 138.9399390
  35.6575010 149.8831060 139.0333980  44.3587170 151.2612480 141.3356390
  44.9407940 150.5064800 141.2476870  44.5348940 151.7919920 140.5587870
  35.4759240 146.4209230 139.6473340  35.3816110 145.8029980 138.9224210
  34.8956630 147.1475520 139.4203250  38.2420680 144.9782470 136.6800730
  37.7937980 145.0006730 135.8346280  37.6085880 144.5801490 137.2771030
  40.9844130 151.6052980 138.6851010  41.1040340 151.0094120 139.4245850
  41.8438130 151.6422670 138.2652310  35.7218420 149.5483540 123.7063230
  35.5207480 148.6850900 124.0676570  35.5510470 149.4616900 122.7684830
  37.7512900 148.1474330 139.9426830  38.3412590 147.8390180 140.6304650
  36.9333140 147.6754080 140.0986730  42.5706330 147.7640140 140.1759850
  41.8821850 147.1021680 140.1109840  43.2912350 147.3178410 140.6208310
  43.2006730 144.3591770 126.2350110  43.4809020 143.5159670 126.5909530
  42.4272460 144.5914880 126.7488860  34.5201220 146.6484160 123.6941110
  34.8227120 146.6551590 122.7860260  35.2595810 146.2982020 124.1908770
  37.7386150 145.5918780 124.6797310  37.3908150 144.9142770 124.0999760
  37.9398920 145.1308290 125.4940700  31.0791790 152.1206430 131.0761680
  30.4240630 151.8518070 130.4321380  31.9169740 152.0110910 130.6263660
  44.0282230 146.9147720 125.2980170  44.4467110 146.7278700 124.4576830
  43.7218290 146.0626770 125.6083100  47.5271960 151.8271860 128.9955970
  47.1515560 151.0599790 128.5637260  46.7975080 152.2094560 129.4830900
  32.1167720 152.5059000 135.6165020  32.4840760 152.4186400 136.4961040
  31.5478540 151.7425550 135.5171880  46.9171580 150.9743380 138.6295490
  46.6857670 150.7456130 137.7293440  47.1776130 151.8942930 138.5840380
  31.6683720 149.4168090 139.5223440  30.7739770 149.3834850 139.8617150
  32.2081270 149.6154880 140.2874690  45.3559650 146.1999810 141.4075190
  46.2329830 146.2083210 141.7909190  45.3680490 145.4630650 140.7967540
  30.2929870 149.3305360 127.0187010  29.3893950 149.5935560 126.8438670
  30.7770490 149.6016530 126.2386970  46.8022920 150.0529350 132.2963210
  47.3260400 149.5592000 131.6653380  47.3882340 150.1879710 133.0410780
  46.9812640 150.1369220 135.8182760  46.0315350 150.1032760 135.9327750
  47.1625650 151.0469330 135.5832530  32.8357080 148.3870900 124.9281390
  33.5448780 147.9654120 124.4428670  32.1197020 148.4546130 124.2964740
  32.4831240 144.4410230 123.9684040  33.2059370 144.9819170 124.2865260
  32.7555760 144.1673650 123.0925580  46.2922890 149.3102700 128.2355620
  46.7882010 149.0773570 129.0204500  46.0938960 148.4714540 127.8193260
  32.1723430 143.6916420 133.8706660  32.8199620 143.1413800 133.4301820
  32.5925270 143.9459570 134.6922470  47.7210050 147.9463650 130.7693300
  47.6109330 147.7919690 131.7075570  48.4817640 147.4184590 130.5268710
  46.0675770 143.8857780 137.2276300  46.7047990 144.4991920 137.5935490
  46.2150660 143.9218440 136.2825530  48.6100320 145.7771570 124.0099440
  49.5349630 145.6452750 123.8017730  48.5876110 145.8564390 124.9635890
  48.6838810 146.5482230 126.6356150  47.8890310 146.4827350 127.1649060
  48.8882090 147.4832870 126.6241500  31.9255430 143.8472090 136.6131980
  31.5770250 144.3035910 137.3790160  31.5943130 142.9529220 136.6954410
  39.4380250 145.0383970 140.1351400  39.3769140 145.6305800 140.8846810
  40.3780630 144.9309930 139.9901660  42.0754810 144.6954030 139.7743690
  42.6895220 145.0133320 139.1124770  42.6204370 144.2102620 140.3939550
  32.5976070 143.3748290 139.8882750  33.1459060 143.1936340 139.1248860
  32.6631380 142.5842400 140.4239060  42.8162850 143.2586170 136.1012980
  41.9422690 143.5921280 135.8985910  42.7073600 142.7859350 136.9264850
  43.7234830 145.4657040 137.4854700  43.3948190 144.6508800 137.1056430
  44.6717130 145.4226850 137.3620390  40.5637670 144.1756010 135.0405890
  39.7809460 144.6501510 135.3202650  40.2700600 143.2710840 134.9319070
  45.1158740 144.8779110 133.0854980  45.5566830 144.8224210 132.2376580
  44.8466330 145.7937120 133.1565160  46.9797310 144.5094350 131.0963800
  46.9185710 143.5655570 130.9494820  47.7589340 144.6174440 131.6417260
  31.9078080 144.4803490 127.5619610  32.6657440 144.5932370 126.9883640
  31.4455250 145.3172690 127.5163040  38.4491890 146.5942760 130.5521920
  37.6366400 146.2199650 130.2117800  38.9533530 145.8387840 130.8543110
  42.9516870 143.2585210 131.7904990  43.5546240 143.8305420 132.2653510
  42.2109860 143.8224650 131.5678890  46.0951470 143.6606770 127.0645270
  46.2902100 144.5590220 127.3312700  45.3081340 143.4293850 127.5578220
  34.2803230 145.0067540 126.1021580  34.8095990 144.2197340 125.9729530
  34.9131550 145.6858730 126.3357110  36.4741070 144.7442680 129.1566970
  35.8443810 144.0429990 129.3237100  35.9346210 145.5046810 128.9400130
  36.5996630 144.0226660 141.5919460  36.3180900 144.5260260 140.8280280
  36.9816330 143.2248410 141.2261590  43.2012090 143.4380240 142.1699930
  43.0877540 143.7574850 143.0651450  44.0181830 143.8392750 141.8737210
  42.1070240 151.4572710 112.5334670  42.0264290 150.5427320 112.2626380
  41.6934660 151.9539780 111.8274380  32.6646060 148.5073430 109.0762090
  31.7762760 148.8489400 108.9741970  32.9487250 148.3073750 108.1842920
  30.6279070 151.1079080 114.9601790  31.1995180 150.3401280 114.9605430
  30.6280610 151.4067840 114.0508400  31.8703940 146.5163440 116.7470720
  31.6906780 145.6189190 117.0273480  31.4684020 147.0635310 117.4217670
  40.7102440 148.7179300 114.6483030  41.0867260 147.8451180 114.5356700
  40.6121950 149.0538000 113.7573470  34.8407450 147.0904930 110.1100470
  34.9474200 147.9908660 110.4169230  33.9299810 147.0422900 109.8195120
  44.4926560 146.2129740 111.5811370  45.3136180 145.7226310 111.6236850
  44.5260640 146.8027400 112.3343210  32.4890610 149.0123940 115.3553060
  33.1700720 149.2762310 115.9740460  32.1738660 148.1724810 115.6891070
  36.6815180 150.0591300 114.4425650  37.1893400 150.5572270 115.0830670
  37.2128420 149.2826500 114.2665010  48.7826110 148.2296490 118.1455000
  48.0778280 148.6178200 117.6270110  49.0484030 148.9246780 118.7475930
  34.9651280 144.6989860 118.7089070  34.9669720 145.2162250 117.9034970
  34.1355590 144.2220040 118.6859000  44.7288040 148.1530120 114.3538910
  44.0243610 148.4415010 114.9342020  45.0900200 148.9630230 113.9938470
  34.6466610 146.4099820 116.7159520  34.9883420 147.2541870 116.4213390
  33.7082420 146.5583560 116.8324860  47.7974960 147.5984910 114.7448120
  46.8499870 147.6323890 114.8763550  48.1224950 148.4123860 115.1297480
  38.3294500 143.8982090 113.0404110  38.6369480 143.3428980 112.3239610
  37.3995200 144.0326550 112.8577100  40.7044340 148.2347920 106.7731390
  39.7648010 148.3961880 106.8583850  41.0227600 148.9533600 106.2267380
  44.1899110 149.7035760 117.6965290  43.7770290 150.5289470 117.9505280
  43.4575060 149.1180800 117.5041650  36.3231900 152.4895660 112.5583960
  35.9188900 151.7772910 112.0629860  36.4095020 152.1448900 113.4472000
  35.0360520 149.2638870 116.3383000  35.5875110 149.3734210 115.5636250
  35.5504030 149.6376470 117.0538230  46.5054390 144.0180840 105.6013270
  46.1927050 144.1107670 106.5012340  47.2666860 144.5961870 105.5510700
  33.0236530 151.3840640 110.0590610  32.9034130 152.1102730 109.4471880
  32.7137420 150.6143550 109.5818520  47.7155680 148.7552340 121.5787410
  47.0999950 149.2632010 121.0502870  47.3952100 147.8550670 121.5213350
  35.4900190 144.7275710 113.4414280  35.0468340 145.5085250 113.1098800
  36.0485180 145.0505600 114.1485220  39.7770000 147.5944230 119.0449600
  39.3149370 147.8027250 119.8569540  39.3748110 146.7803580 118.7420270
  44.7774510 148.8153180 120.1746260  43.9268100 148.5158930 120.4955330
  44.6176300 149.0595190 119.2630080  41.8724220 150.3154930 122.2745050
  42.1977630 149.4818680 121.9347280  42.6604550 150.8383450 122.4223380
  38.6059010 144.3486410 108.3220110  37.9813190 144.3446280 109.0473420
  38.5189130 143.4817370 107.9256080  37.5276090 145.2723040 115.3003880
  37.8248420 146.1785870 115.2195900  38.0761650 144.7841820 114.6863450
  35.2814410 149.8509280 111.1695530  35.0555330 149.6346450 112.0742150
  34.5006940 150.2837740 110.8241500  42.5112170 149.8572650 109.7686180
  41.9121060 150.5808450 109.5849800  43.0591780 149.7949430 108.9862630
  37.7213620 150.7494860 121.8355800  37.6257220 149.8089590 121.6856200
  38.5645600 150.9709930 121.4403870  41.1177040 148.4936190 111.7989460
  41.5106610 148.8108390 110.9858150  41.4793890 147.6148070 111.9133980
  32.8524160 147.1608530 119.9889580  32.4587550 148.0083740 120.1962360
  32.1642560 146.5234900 120.1798220  39.4269210 147.2443500 123.0586320
  38.7367530 147.0515700 123.6932410  40.1701510 147.5278140 123.5910620
  30.1541210 145.0836990 114.0219660  29.8654260 145.6539850 114.7344640
  30.8986970 144.6041440 114.3850890  30.3411440 149.0257110 105.2322380
  30.2586110 149.9687870 105.3737370  29.9894500 148.8832020 104.3534730
  41.7032180 151.0841940 115.8940240  40.9713300 151.5928750 116.2430340
  41.3056520 150.2671920 115.5929020  38.1409570 147.7596140 114.2992730
  38.1445630 147.3186090 113.4497270  39.0360690 148.0813470 114.4064550
  33.9911950 147.6422630 113.2586940  33.6512000 148.1197860 114.0153990
  33.2289270 147.1887750 112.8988040  38.2029720 148.7608220 107.2899490
  38.3242540 148.7194700 108.2385310  37.8178230 149.6232370 107.1346220
  42.1658090 146.5375620 115.3063180  42.1830830 146.9884270 116.1505030
  41.9173670 145.6381260 115.5196620  37.2151220 151.0709360 106.6882790
  36.6468120 150.6227610 106.0618700  37.9240220 151.4302140 106.1547940
  45.5928840 143.9507800 121.1449560  45.9174610 143.2197460 121.6707540
  45.6285350 143.6321440 120.2430550  31.3058030 146.5641610 112.1751610
  31.0204950 146.1997280 113.0130230  31.2436890 145.8322070 111.5614750
  36.2316910 150.8606560 118.3642350  35.9273980 151.7398540 118.5892710
  37.1863370 150.9206350 118.3999790  40.9796620 145.4570870 108.8964980
  40.1661230 144.9584040 108.8210290  40.7858570 146.2969120 108.4801330
  43.6945010 149.8290520 107.1927140  44.5824630 150.1407750 107.0178480
  43.6650100 148.9562770 106.8007720  32.2880640 151.7009300 119.5113710
  31.9295580 152.3663150 120.0987050  31.9935200 150.8692850 119.8826330
  35.4893760 152.1593540 122.3953260  35.1893900 152.3050720 121.4981080
  36.2605000 151.5998830 122.3026650  45.9659280 151.1402360 106.6607000
  45.8823000 151.5716580 105.8103440  46.6853470 151.6000710 107.0933820
  30.7988690 151.7000560 106.1348310  31.6683540 151.9825360 106.4184230
  30.3079010 152.5136430 106.0197120  33.8635280 143.4311420 110.7279110
  33.7349910 143.4229320 111.6764030  33.0397300 143.7694510 110.3770120
  30.8629210 145.1902540 120.1885810  30.1487730 145.3899460 120.7938420
  31.2824250 144.4142110 120.5600610  42.3567990 147.6824850 117.9387260
  42.7248810 146.8620060 118.2666830  41.4966190 147.7426740 118.3542910
  45.7230020 146.6381790 108.7474820  45.0943180 146.7427460 108.0333050
  45.2281940 146.8578570 109.5368700  37.6914050 148.9167740 110.1632700
  36.9830200 149.3854080 110.6046310  37.9758530 148.2589750 110.7977890
  39.3169980 150.3364440 118.1625230  39.8155230 150.8110260 118.8277080
  39.4592930 149.4127960 118.3695260  41.7229480 145.6418400 111.6028490
  41.5997260 145.6604530 110.6538000  42.6714040 145.6897340 111.7226890
  35.8949070 147.2252820 107.5383410  36.7439600 147.6622970 107.4723600
  35.5280340 147.5373080 108.3655470  46.5236840 146.5532400 119.0053620
  46.0210440 147.2937800 119.3447430  47.3393500 146.9416400 118.6890410
  44.8158850 151.7965580 112.4514980  43.8748990 151.8115810 112.6262670
  45.1302920 151.0101540 112.8975280  33.4887250 150.9110250 106.6951830
  33.5690840 149.9637760 106.8069230  34.3807000 151.2417130 106.8012490
  33.0481130 150.8754760 122.8258070  33.0886470 150.5768630 123.7343300
  33.9026630 151.2762370 122.6665590  34.9886940 149.4546860 120.7932560
  34.4583400 148.9637810 120.1655900  35.6575010 149.8831060 120.2590490
  44.3587170 151.2612480 122.5612900  44.9407940 150.5064800 122.4733380
  44.5348940 151.7919920 121.7844380  35.4759240 146.4209230 120.8729850
  35.3816110 145.8029980 120.1480720  34.8956630 147.1475520 120.6459760
  38.2420680 144.9782470 117.9057240  37.7937980 145.0006730 117.0602790
  37.6085880 144.5801490 118.5027540  40.9844130 151.6052980 119.9107520
  41.1040340 151.0094120 120.6502360  41.8438130 151.6422670 119.4908820
  35.7218420 149.5483540 104.9319740  35.5207480 148.6850900 105.2933080
  35.5510470 149.4616900 103.9941340  37.7512900 148.1474330 121.1683340
  38.3412590 147.8390180 121.8561160  36.9333140 147.6754080 121.3243240
  42.5706330 147.7640140 121.4016360  41.8821850 147.1021680 121.3366350
  43.2912350 147.3178410 121.8464820  43.2006730 144.3591770 107.4606620
  43.4809020 143.5159670 107.8166040  42.4272460 144.5914880 107.9745370
  34.5201220 146.6484160 104.9197620  34.8227120 146.6551590 104.0116770
  35.2595810 146.2982020 105.4165280  37.7386150 145.5918780 105.9053820
  37.3908150 144.9142770 105.3256270  37.9398920 145.1308290 106.7197210
  31.0791790 152.1206430 112.3018190  30.4240630 151.8518070 111.6577890
  31.9169740 152.0110910 111.8520170  44.0282230 146.9147720 106.5236680
  44.4467110 146.7278700 105.6833340  43.7218290 146.0626770 106.8339610
  47.5271960 151.8271860 110.2212480  47.1515560 151.0599790 109.7893770
  46.7975080 152.2094560 110.7087410  32.1167720 152.5059000 116.8421530
  32.4840760 152.4186400 117.7217550  31.5478540 151.7425550 116.7428390
  46.9171580 150.9743380 119.8552000  46.6857670 150.7456130 118.9549950
  47.1776130 151.8942930 119.8096890  31.6683720 149.4168090 120.7479950
  30.7739770 149.3834850 121.0873660  32.2081270 149.6154880 121.5131200
  45.3559650 146.1999810 122.6331700  46.2329830 146.2083210 123.0165700
  45.3680490 145.4630650 122.0224050  30.2929870 149.3305360 108.2443520
  29.3893950 149.5935560 108.0695180  30.7770490 149.6016530 107.4643480
  46.8022920 150.0529350 113.5219720  47.3260400 149.5592000 112.8909890
  47.3882340 150.1879710 114.2667290  46.9812640 150.1369220 117.0439270
  46.0315350 150.1032760 117.1584260  47.1625650 151.0469330 116.8089040
  32.8357080 148.3870900 106.1537900  33.5448780 147.9654120 105.6685180
  32.1197020 148.4546130 105.5221250  32.4831240 144.4410230 105.1940550
  33.2059370 144.9819170 105.5121770  32.7555760 144.1673650 104.3182090
  46.2922890 149.3102700 109.4612130  46.7882010 149.0773570 110.2461010
  46.0938960 148.4714540 109.0449770  32.1723430 143.6916420 115.0963170
  32.8199620 143.1413800 114.6558330  32.5925270 143.9459570 115.9178980
  47.7210050 147.9463650 111.9949810  47.6109330 147.7919690 112.9332080
  48.4817640 147.4184590 111.7525220  46.0675770 143.8857780 118.4532810
  46.7047990 144.4991920 118.8192000  46.2150660 143.9218440 117.5082040
  48.6100320 145.7771570 105.2355950  49.5349630 145.6452750 105.0274240
  48.5876110 145.8564390 106.1892400  48.6838810 146.5482230 107.8612660
  47.8890310 146.4827350 108.3905570  48.8882090 147.4832870 107.8498010
  31.9255430 143.8472090 117.8388490  31.5770250 144.3035910 118.6046670
  31.5943130 142.9529220 117.9210920  39.4380250 145.0383970 121.3607910
  39.3769140 145.6305800 122.1103320  40.3780630 144.9309930 121.2158170
  42.0754810 144.6954030 121.0000200  42.6895220 145.0133320 120.3381280
  42.6204370 144.2102620 121.6196060  32.5976070 143.3748290 121.1139260
  33.1459060 143.1936340 120.3505370  32.6631380 142.5842400 121.6495570
  42.8162850 143.2586170 117.3269490  41.9422690 143.5921280 117.1242420
  42.7073600 142.7859350 118.1521360  43.7234830 145.4657040 118.7111210
  43.3948190 144.6508800 118.3312940  44.6717130 145.4226850 118.5876900
  40.5637670 144.1756010 116.2662400  39.7809460 144.6501510 116.5459160
  40.2700600 143.2710840 116.1575580  45.1158740 144.8779110 114.3111490
  45.5566830 144.8224210 113.4633090  44.8466330 145.7937120 114.3821670
  46.9797310 144.5094350 112.3220310  46.9185710 143.5655570 112.1751330
  47.7589340 144.6174440 112.8673770  31.9078080 144.4803490 108.7876120
  32.6657440 144.5932370 108.2140150  31.4455250 145.3172690 108.7419550
  38.4491890 146.5942760 111.7778430  37.6366400 146.2199650 111.4374310
  38.9533530 145.8387840 112.0799620  42.9516870 143.2585210 113.0161500
  43.5546240 143.8305420 113.4910020  42.2109860 143.8224650 112.7935400
  46.0951470 143.6606770 108.2901780  46.2902100 144.5590220 108.5569210
  45.3081340 143.4293850 108.7834730  34.2803230 145.0067540 107.3278090
  34.8095990 144.2197340 107.1986040  34.9131550 145.6858730 107.5613620
  36.4741070 144.7442680 110.3823480  35.8443810 144.0429990 110.5493610
  35.9346210 145.5046810 110.1656640  36.5996630 144.0226660 122.8175970
  36.3180900 144.5260260 122.0536790  36.9816330 143.2248410 122.4518100
  43.2012090 143.4380240 123.3956440  43.0877540 143.7574850 124.2907960
  44.0181830 143.8392750 123.0993720  42.1070240 151.4572710  93.7591180
  42.0264290 150.5427320  93.4882890  41.6934660 151.9539780  93.0530890
  32.6646060 148.5073430  90.3018600  31.7762760 148.8489400  90.1998480
  32.9487250 148.3073750  89.4099430  30.6279070 151.1079080  96.1858300
  31.1995180 150.3401280  96.1861940  30.6280610 151.4067840  95.2764910
  31.8703940 146.5163440  97.9727230  31.6906780 145.6189190  98.2529990
  31.4684020 147.0635310  98.6474180  40.7102440 148.7179300  95.8739540
  41.0867260 147.8451180  95.7613210  40.6121950 149.0538000  94.9829980
  34.8407450 147.0904930  91.3356980  34.9474200 147.9908660  91.6425740
  33.9299810 147.0422900  91.0451630  44.4926560 146.2129740  92.8067880
  45.3136180 145.7226310  92.8493360  44.5260640 146.8027400  93.5599720
  32.4890610 149.0123940  96.5809570  33.1700720 149.2762310  97.1996970
  32.1738660 148.1724810  96.9147580  36.6815180 150.0591300  95.6682160
  37.1893400 150.5572270  96.3087180  37.2128420 149.2826500  95.4921520
  48.7826110 148.2296490  99.3711510  48.0778280 148.6178200  98.8526620
  49.0484030 148.9246780  99.9732440  34.9651280 144.6989860  99.9345580
  34.9669720 145.2162250  99.1291480  34.1355590 144.2220040  99.9115510
  44.7288040 148.1530120  95.5795420  44.0243610 148.4415010  96.1598530
  45.0900200 148.9630230  95.2194980  34.6466610 146.4099820  97.9416030
  34.9883420 147.2541870  97.6469900  33.7082420 146.5583560  98.0581370
  47.7974960 147.5984910  95.9704630  46.8499870 147.6323890  96.1020060
  48.1224950 148.4123860  96.3553990  38.3294500 143.8982090  94.2660620
  38.6369480 143.3428980  93.5496120  37.3995200 144.0326550  94.0833610
  40.7044340 148.2347920  87.9987900  39.7648010 148.3961880  88.0840360
  41.0227600 148.9533600  87.4523890  44.1899110 149.7035760  98.9221800
  43.7770290 150.5289470  99.1761790  43.4575060 149.1180800  98.7298160
  36.3231900 152.4895660  93.7840470  35.9188900 151.7772910  93.2886370
  36.4095020 152.1448900  94.6728510  35.0360520 149.2638870  97.5639510
  35.5875110 149.3734210  96.7892760  35.5504030 149.6376470  98.2794740
  46.5054390 144.0180840  86.8269780  46.1927050 144.1107670  87.7268850
  47.2666860 144.5961870  86.7767210  33.0236530 151.3840640  91.2847120
  32.9034130 152.1102730  90.6728390  32.7137420 150.6143550  90.8075030
  47.7155680 148.7552340 102.8043920  47.0999950 149.2632010 102.2759380
  47.3952100 147.8550670 102.7469860  35.4900190 144.7275710  94.6670790
  35.0468340 145.5085250  94.3355310  36.0485180 145.0505600  95.3741730
  39.7770000 147.5944230 100.2706110  39.3149370 147.8027250 101.0826050
  39.3748110 146.7803580  99.9676780  44.7774510 148.8153180 101.4002770
  43.9268100 148.5158930 101.7211840  44.6176300 149.0595190 100.4886590
  41.8724220 150.3154930 103.5001560  42.1977630 149.4818680 103.1603790
  42.6604550 150.8383450 103.6479890  38.6059010 144.3486410  89.5476620
  37.9813190 144.3446280  90.2729930  38.5189130 143.4817370  89.1512590
  37.5276090 145.2723040  96.5260390  37.8248420 146.1785870  96.4452410
  38.0761650 144.7841820  95.9119960  35.2814410 149.8509280  92.3952040
  35.0555330 149.6346450  93.2998660  34.5006940 150.2837740  92.0498010
  42.5112170 149.8572650  90.9942690  41.9121060 150.5808450  90.8106310
  43.0591780 149.7949430  90.2119140  37.7213620 150.7494860 103.0612310
  37.6257220 149.8089590 102.9112710  38.5645600 150.9709930 102.6660380
  41.1177040 148.4936190  93.0245970  41.5106610 148.8108390  92.2114660
  41.4793890 147.6148070  93.1390490  32.8524160 147.1608530 101.2146090
  32.4587550 148.0083740 101.4218870  32.1642560 146.5234900 101.4054730
  39.4269210 147.2443500 104.2842830  38.7367530 147.0515700 104.9188920
  40.1701510 147.5278140 104.8167130  30.1541210 145.0836990  95.2476170
  29.8654260 145.6539850  95.9601150  30.8986970 144.6041440  95.6107400
  30.3411440 149.0257110  86.4578890  30.2586110 149.9687870  86.5993880
  29.9894500 148.8832020  85.5791240  41.7032180 151.0841940  97.1196750
  40.9713300 151.5928750  97.4686850  41.3056520 150.2671920  96.8185530
  38.1409570 147.7596140  95.5249240  38.1445630 147.3186090  94.6753780
  39.0360690 148.0813470  95.6321060  33.9911950 147.6422630  94.4843450
  33.6512000 148.1197860  95.2410500  33.2289270 147.1887750  94.1244550
  38.2029720 148.7608220  88.5156000  38.3242540 148.7194700  89.4641820
  37.8178230 149.6232370  88.3602730  42.1658090 146.5375620  96.5319690
  42.1830830 146.9884270  97.3761540  41.9173670 145.6381260  96.7453130
  37.2151220 151.0709360  87.9139300  36.6468120 150.6227610  87.2875210
  37.9240220 151.4302140  87.3804450  45.5928840 143.9507800 102.3706070
  45.9174610 143.2197460 102.8964050  45.6285350 143.6321440 101.4687060
  31.3058030 146.5641610  93.4008120  31.0204950 146.1997280  94.2386740
  31.2436890 145.8322070  92.7871260  36.2316910 150.8606560  99.5898860
  35.9273980 151.7398540  99.8149220  37.1863370 150.9206350  99.6256300
  40.9796620 145.4570870  90.1221490  40.1661230 144.9584040  90.0466800
  40.7858570 146.2969120  89.7057840  43.6945010 149.8290520  88.4183650
  44.5824630 150.1407750  88.2434990  43.6650100 148.9562770  88.0264230
  32.2880640 151.7009300 100.7370220  31.9295580 152.3663150 101.3243560
  31.9935200 150.8692850 101.1082840  35.4893760 152.1593540 103.6209770
  35.1893900 152.3050720 102.7237590  36.2605000 151.5998830 103.5283160
  45.9659280 151.1402360  87.8863510  45.8823000 151.5716580  87.0359950
  46.6853470 151.6000710  88.3190330  30.7988690 151.7000560  87.3604820
  31.6683540 151.9825360  87.6440740  30.3079010 152.5136430  87.2453630
  33.8635280 143.4311420  91.9535620  33.7349910 143.4229320  92.9020540
  33.0397300 143.7694510  91.6026630  30.8629210 145.1902540 101.4142320
  30.1487730 145.3899460 102.0194930  31.2824250 144.4142110 101.7857120
  42.3567990 147.6824850  99.1643770  42.7248810 146.8620060  99.4923340
  41.4966190 147.7426740  99.5799420  45.7230020 146.6381790  89.9731330
  45.0943180 146.7427460  89.2589560  45.2281940 146.8578570  90.7625210
  37.6914050 148.9167740  91.3889210  36.9830200 149.3854080  91.8302820
  37.9758530 148.2589750  92.0234400  39.3169980 150.3364440  99.3881740
  39.8155230 150.8110260 100.0533590  39.4592930 149.4127960  99.5951770
  41.7229480 145.6418400  92.8285000  41.5997260 145.6604530  91.8794510
  42.6714040 145.6897340  92.9483400  35.8949070 147.2252820  88.7639920
  36.7439600 147.6622970  88.6980110  35.5280340 147.5373080  89.5911980
  46.5236840 146.5532400 100.2310130  46.0210440 147.2937800 100.5703940
  47.3393500 146.9416400  99.9146920  44.8158850 151.7965580  93.6771490
  43.8748990 151.8115810  93.8519180  45.1302920 151.0101540  94.1231790
  33.4887250 150.9110250  87.9208340  33.5690840 149.9637760  88.0325740
  34.3807000 151.2417130  88.0269000  33.0481130 150.8754760 104.0514580
  33.0886470 150.5768630 104.9599810  33.9026630 151.2762370 103.8922100
  34.9886940 149.4546860 102.0189070  34.4583400 148.9637810 101.3912410
  35.6575010 149.8831060 101.4847000  44.3587170 151.2612480 103.7869410
  44.9407940 150.5064800 103.6989890  44.5348940 151.7919920 103.0100890
  35.4759240 146.4209230 102.0986360  35.3816110 145.8029980 101.3737230
  34.8956630 147.1475520 101.8716270  38.2420680 144.9782470  99.1313750
  37.7937980 145.0006730  98.2859300  37.6085880 144.5801490  99.7284050
  40.9844130 151.6052980 101.1364030  41.1040340 151.0094120 101.8758870
  41.8438130 151.6422670 100.7165330  35.7218420 149.5483540  86.1576250
  35.5207480 148.6850900  86.5189590  35.5510470 149.4616900  85.2197850
  37.7512900 148.1474330 102.3939850  38.3412590 147.8390180 103.0817670
  36.9333140 147.6754080 102.5499750  42.5706330 147.7640140 102.6272870
  41.8821850 147.1021680 102.5622860  43.2912350 147.3178410 103.0721330
  43.2006730 144.3591770  88.6863130  43.4809020 143.5159670  89.0422550
  42.4272460 144.5914880  89.2001880  34.5201220 146.6484160  86.1454130
  34.8227120 146.6551590  85.2373280  35.2595810 146.2982020  86.6421790
  37.7386150 145.5918780  87.1310330  37.3908150 144.9142770  86.5512780
  37.9398920 145.1308290  87.9453720  31.0791790 152.1206430  93.5274700
  30.4240630 151.8518070  92.8834400  31.9169740 152.0110910  93.0776680
  44.0282230 146.9147720  87.7493190  44.4467110 146.7278700  86.9089850
  43.7218290 146.0626770  88.0596120  47.5271960 151.8271860  91.4468990
  47.1515560 151.0599790  91.0150280  46.7975080 152.2094560  91.9343920
  32.1167720 152.5059000  98.0678040  32.4840760 152.4186400  98.9474060
  31.5478540 151.7425550  97.9684900  46.9171580 150.9743380 101.0808510
  46.6857670 150.7456130 100.1806460  47.1776130 151.8942930 101.0353400
  31.6683720 149.4168090 101.9736460  30.7739770 149.3834850 102.3130170
  32.2081270 149.6154880 102.7387710  45.3559650 146.1999810 103.8588210
  46.2329830 146.2083210 104.2422210  45.3680490 145.4630650 103.2480560
  30.2929870 149.3305360  89.4700030  29.3893950 149.5935560  89.2951690
  30.7770490 149.6016530  88.6899990  46.8022920 150.0529350  94.7476230
  47.3260400 149.5592000  94.1166400  47.3882340 150.1879710  95.4923800
  46.9812640 150.1369220  98.2695780  46.0315350 150.1032760  98.3840770
  47.1625650 151.0469330  98.0345550  32.8357080 148.3870900  87.3794410
  33.5448780 147.9654120  86.8941690  32.1197020 148.4546130  86.7477760
  32.4831240 144.4410230  86.4197060  33.2059370 144.9819170  86.7378280
  32.7555760 144.1673650  85.5438600  46.2922890 149.3102700  90.6868640
  46.7882010 149.0773570  91.4717520  46.0938960 148.4714540  90.2706280
  32.1723430 143.6916420  96.3219680  32.8199620 143.1413800  95.8814840
  32.5925270 143.9459570  97.1435490  47.7210050 147.9463650  93.2206320
  47.6109330 147.7919690  94.1588590  48.4817640 147.4184590  92.9781730
  46.0675770 143.8857780  99.6789320  46.7047990 144.4991920 100.0448510
  46.2150660 143.9218440  98.7338550  48.6100320 145.7771570  86.4612460
  49.5349630 145.6452750  86.2530750  48.5876110 145.8564390  87.4148910
  48.6838810 146.5482230  89.0869170  47.8890310 146.4827350  89.6162080
  48.8882090 147.4832870  89.0754520  31.9255430 143.8472090  99.0645000
  31.5770250 144.3035910  99.8303180  31.5943130 142.9529220  99.1467430
  39.4380250 145.0383970 102.5864420  39.3769140 145.6305800 103.3359830
  40.3780630 144.9309930 102.4414680  42.0754810 144.6954030 102.2256710
  42.6895220 145.0133320 101.5637790  42.6204370 144.2102620 102.8452570
  32.5976070 143.3748290 102.3395770  33.1459060 143.1936340 101.5761880
  32.6631380 142.5842400 102.8752080  42.8162850 143.2586170  98.5526000
  41.9422690 143.5921280  98.3498930  42.7073600 142.7859350  99.3777870
  43.7234830 145.4657040  99.9367720  43.3948190 144.6508800  99.5569450
  44.6717130 145.4226850  99.8133410  40.5637670 144.1756010  97.4918910
  39.7809460 144.6501510  97.7715670  40.2700600 143.2710840  97.3832090
  45.1158740 144.8779110  95.5368000  45.5566830 144.8224210  94.6889600
  44.8466330 145.7937120  95.6078180  46.9797310 144.5094350  93.5476820
  46.9185710 143.5655570  93.4007840  47.7589340 144.6174440  94.0930280
  31.9078080 144.4803490  90.0132630  32.6657440 144.5932370  89.4396660
  31.4455250 145.3172690  89.9676060  38.4491890 146.5942760  93.0034940
  37.6366400 146.2199650  92.6630820  38.9533530 145.8387840  93.3056130
  42.9516870 143.2585210  94.2418010  43.5546240 143.8305420  94.7166530
  42.2109860 143.8224650  94.0191910  46.0951470 143.6606770  89.5158290
  46.2902100 144.5590220  89.7825720  45.3081340 143.4293850  90.0091240
  34.2803230 145.0067540  88.5534600  34.8095990 144.2197340  88.4242550
  34.9131550 145.6858730  88.7870130  36.4741070 144.7442680  91.6079990
  35.8443810 144.0429990  91.7750120  35.9346210 145.5046810  91.3913150
  36.5996630 144.0226660 104.0432480  36.3180900 144.5260260 103.2793300
  36.9816330 143.2248410 103.6774610  43.2012090 143.4380240 104.6212950
  43.0877540 143.7574850 105.5164470  44.0181830 143.8392750 104.3250230
  42.1070240 151.4572710  74.9847690  42.0264290 150.5427320  74.7139400
  41.6934660 151.9539780  74.2787400  32.6646060 148.5073430  71.5275110
  31.7762760 148.8489400  71.4254990  32.9487250 148.3073750  70.6355940
  30.6279070 151.1079080  77.4114810  31.1995180 150.3401280  77.4118450
  30.6280610 151.4067840  76.5021420  31.8703940 146.5163440  79.1983740
  31.6906780 145.6189190  79.4786500  31.4684020 147.0635310  79.8730690
  40.7102440 148.7179300  77.0996050  41.0867260 147.8451180  76.9869720
  40.6121950 149.0538000  76.2086490  34.8407450 147.0904930  72.5613490
  34.9474200 147.9908660  72.8682250  33.9299810 147.0422900  72.2708140
  44.4926560 146.2129740  74.0324390  45.3136180 145.7226310  74.0749870
  44.5260640 146.8027400  74.7856230  32.4890610 149.0123940  77.8066080
  33.1700720 149.2762310  78.4253480  32.1738660 148.1724810  78.1404090
  36.6815180 150.0591300  76.8938670  37.1893400 150.5572270  77.5343690
  37.2128420 149.2826500  76.7178030  48.7826110 148.2296490  80.5968020
  48.0778280 148.6178200  80.0783130  49.0484030 148.9246780  81.1988950
  34.9651280 144.6989860  81.1602090  34.9669720 145.2162250  80.3547990
  34.1355590 144.2220040  81.1372020  44.7288040 148.1530120  76.8051930
  44.0243610 148.4415010  77.3855040  45.0900200 148.9630230  76.4451490
  34.6466610 146.4099820  79.1672540  34.9883420 147.2541870  78.8726410
  33.7082420 146.5583560  79.2837880  47.7974960 147.5984910  77.1961140
  46.8499870 147.6323890  77.3276570  48.1224950 148.4123860  77.5810500
  38.3294500 143.8982090  75.4917130  38.6369480 143.3428980  74.7752630
  37.3995200 144.0326550  75.3090120  40.7044340 148.2347920  69.2244410
  39.7648010 148.3961880  69.3096870  41.0227600 148.9533600  68.6780400
  44.1899110 149.7035760  80.1478310  43.7770290 150.5289470  80.4018300
  43.4575060 149.1180800  79.9554670  36.3231900 152.4895660  75.0096980
  35.9188900 151.7772910  74.5142880  36.4095020 152.1448900  75.8985020
  35.0360520 149.2638870  78.7896020  35.5875110 149.3734210  78.0149270
  35.5504030 149.6376470  79.5051250  46.5054390 144.0180840  68.0526290
  46.1927050 144.1107670  68.9525360  47.2666860 144.5961870  68.0023720
  33.0236530 151.3840640  72.5103630  32.9034130 152.1102730  71.8984900
  32.7137420 150.6143550  72.0331540  47.7155680 148.7552340  84.0300430
  47.0999950 149.2632010  83.5015890  47.3952100 147.8550670  83.9726370
  35.4900190 144.7275710  75.8927300  35.0468340 145.5085250  75.5611820
  36.0485180 145.0505600  76.5998240  39.7770000 147.5944230  81.4962620
  39.3149370 147.8027250  82.3082560  39.3748110 146.7803580  81.1933290
  44.7774510 148.8153180  82.6259280  43.9268100 148.5158930  82.9468350
  44.6176300 149.0595190  81.7143100  41.8724220 150.3154930  84.7258070
  42.1977630 149.4818680  84.3860300  42.6604550 150.8383450  84.8736400
  38.6059010 144.3486410  70.7733130  37.9813190 144.3446280  71.4986440
  38.5189130 143.4817370  70.3769100  37.5276090 145.2723040  77.7516900
  37.8248420 146.1785870  77.6708920  38.0761650 144.7841820  77.1376470
  35.2814410 149.8509280  73.6208550  35.0555330 149.6346450  74.5255170
  34.5006940 150.2837740  73.2754520  42.5112170 149.8572650  72.2199200
  41.9121060 150.5808450  72.0362820  43.0591780 149.7949430  71.4375650
  37.7213620 150.7494860  84.2868820  37.6257220 149.8089590  84.1369220
  38.5645600 150.9709930  83.8916890  41.1177040 148.4936190  74.2502480
  41.5106610 148.8108390  73.4371170  41.4793890 147.6148070  74.3647000
  32.8524160 147.1608530  82.4402600  32.4587550 148.0083740  82.6475380
  32.1642560 146.5234900  82.6311240  39.4269210 147.2443500  85.5099340
  38.7367530 147.0515700  86.1445430  40.1701510 147.5278140  86.0423640
  30.1541210 145.0836990  76.4732680  29.8654260 145.6539850  77.1857660
  30.8986970 144.6041440  76.8363910  30.3411440 149.0257110  67.6835400
  30.2586110 149.9687870  67.8250390  29.9894500 148.8832020  66.8047750
  41.7032180 151.0841940  78.3453260  40.9713300 151.5928750  78.6943360
  41.3056520 150.2671920  78.0442040  38.1409570 147.7596140  76.7505750
  38.1445630 147.3186090  75.9010290  39.0360690 148.0813470  76.8577570
  33.9911950 147.6422630  75.7099960  33.6512000 148.1197860  76.4667010
  33.2289270 147.1887750  75.3501060  38.2029720 148.7608220  69.7412510
  38.3242540 148.7194700  70.6898330  37.8178230 149.6232370  69.5859240
  42.1658090 146.5375620  77.7576200  42.1830830 146.9884270  78.6018050
  41.9173670 145.6381260  77.9709640  37.2151220 151.0709360  69.1395810
  36.6468120 150.6227610  68.5131720  37.9240220 151.4302140  68.6060960
  45.5928840 143.9507800  83.5962580  45.9174610 143.2197460  84.1220560
  45.6285350 143.6321440  82.6943570  31.3058030 146.5641610  74.6264630
  31.0204950 146.1997280  75.4643250  31.2436890 145.8322070  74.0127770
  36.2316910 150.8606560  80.8155370  35.9273980 151.7398540  81.0405730
  37.1863370 150.9206350  80.8512810  40.9796620 145.4570870  71.3478000
  40.1661230 144.9584040  71.2723310  40.7858570 146.2969120  70.9314350
  43.6945010 149.8290520  69.6440160  44.5824630 150.1407750  69.4691500
  43.6650100 148.9562770  69.2520740  32.2880640 151.7009300  81.9626730
  31.9295580 152.3663150  82.5500070  31.9935200 150.8692850  82.3339350
  35.4893760 152.1593540  84.8466280  35.1893900 152.3050720  83.9494100
  36.2605000 151.5998830  84.7539670  45.9659280 151.1402360  69.1120020
  45.8823000 151.5716580  68.2616460  46.6853470 151.6000710  69.5446840
  30.7988690 151.7000560  68.5861330  31.6683540 151.9825360  68.8697250
  30.3079010 152.5136430  68.4710140  33.8635280 143.4311420  73.1792130
  33.7349910 143.4229320  74.1277050  33.0397300 143.7694510  72.8283140
  30.8629210 145.1902540  82.6398830  30.1487730 145.3899460  83.2451440
  31.2824250 144.4142110  83.0113630  42.3567990 147.6824850  80.3900280
  42.7248810 146.8620060  80.7179850  41.4966190 147.7426740  80.8055930
  45.7230020 146.6381790  71.1987840  45.0943180 146.7427460  70.4846070
  45.2281940 146.8578570  71.9881720  37.6914050 148.9167740  72.6145720
  36.9830200 149.3854080  73.0559330  37.9758530 148.2589750  73.2490910
  39.3169980 150.3364440  80.6138250  39.8155230 150.8110260  81.2790100
  39.4592930 149.4127960  80.8208280  41.7229480 145.6418400  74.0541510
  41.5997260 145.6604530  73.1051020  42.6714040 145.6897340  74.1739910
  35.8949070 147.2252820  69.9896430  36.7439600 147.6622970  69.9236620
  35.5280340 147.5373080  70.8168490  46.5236840 146.5532400  81.4566640
  46.0210440 147.2937800  81.7960450  47.3393500 146.9416400  81.1403430
  44.8158850 151.7965580  74.9028000  43.8748990 151.8115810  75.0775690
  45.1302920 151.0101540  75.3488300  33.4887250 150.9110250  69.1464850
  33.5690840 149.9637760  69.2582250  34.3807000 151.2417130  69.2525510
  33.0481130 150.8754760  85.2771090  33.0886470 150.5768630  86.1856320
  33.9026630 151.2762370  85.1178610  34.9886940 149.4546860  83.2445580
  34.4583400 148.9637810  82.6168920  35.6575010 149.8831060  82.7103510
  44.3587170 151.2612480  85.0125920  44.9407940 150.5064800  84.9246400
  44.5348940 151.7919920  84.2357400  35.4759240 146.4209230  83.3242870
  35.3816110 145.8029980  82.5993740  34.8956630 147.1475520  83.0972780
  38.2420680 144.9782470  80.3570260  37.7937980 145.0006730  79.5115810
  37.6085880 144.5801490  80.9540560  40.9844130 151.6052980  82.3620540
  41.1040340 151.0094120  83.1015380  41.8438130 151.6422670  81.9421840
  35.7218420 149.5483540  67.3832760  35.5207480 148.6850900  67.7446100
  35.5510470 149.4616900  66.4454360  37.7512900 148.1474330  83.6196360
  38.3412590 147.8390180  84.3074180  36.9333140 147.6754080  83.7756260
  42.5706330 147.7640140  83.8529380  41.8821850 147.1021680  83.7879370
  43.2912350 147.3178410  84.2977840  43.2006730 144.3591770  69.9119640
  43.4809020 143.5159670  70.2679060  42.4272460 144.5914880  70.4258390
  34.5201220 146.6484160  67.3710640  34.8227120 146.6551590  66.4629790
  35.2595810 146.2982020  67.8678300  37.7386150 145.5918780  68.3566840
  37.3908150 144.9142770  67.7769290  37.9398920 145.1308290  69.1710230
  31.0791790 152.1206430  74.7531210  30.4240630 151.8518070  74.1090910
  31.9169740 152.0110910  74.3033190  44.0282230 146.9147720  68.9749700
  44.4467110 146.7278700  68.1346360  43.7218290 146.0626770  69.2852630
  47.5271960 151.8271860  72.6725500  47.1515560 151.0599790  72.2406790
  46.7975080 152.2094560  73.1600430  32.1167720 152.5059000  79.2934550
  32.4840760 152.4186400  80.1730570  31.5478540 151.7425550  79.1941410
  46.9171580 150.9743380  82.3065020  46.6857670 150.7456130  81.4062970
  47.1776130 151.8942930  82.2609910  31.6683720 149.4168090  83.1992970
  30.7739770 149.3834850  83.5386680  32.2081270 149.6154880  83.9644220
  45.3559650 146.1999810  85.0844720  46.2329830 146.2083210  85.4678720
  45.3680490 145.4630650  84.4737070  30.2929870 149.3305360  70.6956540
  29.3893950 149.5935560  70.5208200  30.7770490 149.6016530  69.9156500
  46.8022920 150.0529350  75.9732740  47.3260400 149.5592000  75.3422910
  47.3882340 150.1879710  76.7180310  46.9812640 150.1369220  79.4952290
  46.0315350 150.1032760  79.6097280  47.1625650 151.0469330  79.2602060
  32.8357080 148.3870900  68.6050920  33.5448780 147.9654120  68.1198200
  32.1197020 148.4546130  67.9734270  32.4831240 144.4410230  67.6453570
  33.2059370 144.9819170  67.9634790  32.7555760 144.1673650  66.7695110
  46.2922890 149.3102700  71.9125150  46.7882010 149.0773570  72.6974030
  46.0938960 148.4714540  71.4962790  32.1723430 143.6916420  77.5476190
  32.8199620 143.1413800  77.1071350  32.5925270 143.9459570  78.3692000
  47.7210050 147.9463650  74.4462830  47.6109330 147.7919690  75.3845100
  48.4817640 147.4184590  74.2038240  46.0675770 143.8857780  80.9045830
  46.7047990 144.4991920  81.2705020  46.2150660 143.9218440  79.9595060
  48.6100320 145.7771570  67.6868970  49.5349630 145.6452750  67.4787260
  48.5876110 145.8564390  68.6405420  48.6838810 146.5482230  70.3125680
  47.8890310 146.4827350  70.8418590  48.8882090 147.4832870  70.3011030
  31.9255430 143.8472090  80.2901510  31.5770250 144.3035910  81.0559690
  31.5943130 142.9529220  80.3723940  39.4380250 145.0383970  83.8120930
  39.3769140 145.6305800  84.5616340  40.3780630 144.9309930  83.6671190
  42.0754810 144.6954030  83.4513220  42.6895220 145.0133320  82.7894300
  42.6204370 144.2102620  84.0709080  32.5976070 143.3748290  83.5652280
  33.1459060 143.1936340  82.8018390  32.6631380 142.5842400  84.1008590
  42.8162850 143.2586170  79.7782510  41.9422690 143.5921280  79.5755440
  42.7073600 142.7859350  80.6034380  43.7234830 145.4657040  81.1624230
  43.3948190 144.6508800  80.7825960  44.6717130 145.4226850  81.0389920
  40.5637670 144.1756010  78.7175420  39.7809460 144.6501510  78.9972180
  40.2700600 143.2710840  78.6088600  45.1158740 144.8779110  76.7624510
  45.5566830 144.8224210  75.9146110  44.8466330 145.7937120  76.8334690
  46.9797310 144.5094350  74.7733330  46.9185710 143.5655570  74.6264350
  47.7589340 144.6174440  75.3186790  31.9078080 144.4803490  71.2389140
  32.6657440 144.5932370  70.6653170  31.4455250 145.3172690  71.1932570
  38.4491890 146.5942760  74.2291450  37.6366400 146.2199650  73.8887330
  38.9533530 145.8387840  74.5312640  42.9516870 143.2585210  75.4674520
  43.5546240 143.8305420  75.9423040  42.2109860 143.8224650  75.2448420
  46.0951470 143.6606770  70.7414800  46.2902100 144.5590220  71.0082230
  45.3081340 143.4293850  71.2347750  34.2803230 145.0067540  69.7791110
  34.8095990 144.2197340  69.6499060  34.9131550 145.6858730  70.0126640
  36.4741070 144.7442680  72.8336500  35.8443810 144.0429990  73.0006630
  35.9346210 145.5046810  72.6169660  36.5996630 144.0226660  85.2688990
  36.3180900 144.5260260  84.5049810  36.9816330 143.2248410  84.9031120
  43.2012090 143.4380240  85.8469460  43.0877540 143.7574850  86.7420980
  44.0181830 143.8392750  85.5506740  42.1070240 151.4572710  56.2104200
  42.0264290 150.5427320  55.9395910  41.6934660 151.9539780  55.5043910
  32.6646060 148.5073430  52.7531620  31.7762760 148.8489400  52.6511500
  32.9487250 148.3073750  51.8612450  30.6279070 151.1079080  58.6371320
  31.1995180 150.3401280  58.6374960  30.6280610 151.4067840  57.7277930
  31.8703940 146.5163440  60.4240250  31.6906780 145.6189190  60.7043010
  31.4684020 147.0635310  61.0987200  40.7102440 148.7179300  58.3252560
  41.0867260 147.8451180  58.2126230  40.6121950 149.0538000  57.4343000
  34.8407450 147.0904930  53.7870000  34.9474200 147.9908660  54.0938760
  33.9299810 147.0422900  53.4964650  44.4926560 146.2129740  55.2580900
  45.3136180 145.7226310  55.3006380  44.5260640 146.8027400  56.0112740
  32.4890610 149.0123940  59.0322590  33.1700720 149.2762310  59.6509990
  32.1738660 148.1724810  59.3660600  36.6815180 150.0591300  58.1195180
  37.1893400 150.5572270  58.7600200  37.2128420 149.2826500  57.9434540
  48.7826110 148.2296490  61.8224530  48.0778280 148.6178200  61.3039640
  49.0484030 148.9246780  62.4245460  34.9651280 144.6989860  62.3858600
  34.9669720 145.2162250  61.5804500  34.1355590 144.2220040  62.3628530
  44.7288040 148.1530120  58.0308440  44.0243610 148.4415010  58.6111550
  45.0900200 148.9630230  57.6708000  34.6466610 146.4099820  60.3929050
  34.9883420 147.2541870  60.0982920  33.7082420 146.5583560  60.5094390
  47.7974960 147.5984910  58.4217650  46.8499870 147.6323890  58.5533080
  48.1224950 148.4123860  58.8067010  38.3294500 143.8982090  56.7173640
  38.6369480 143.3428980  56.0009140  37.3995200 144.0326550  56.5346630
  40.7044340 148.2347920  50.4500920  39.7648010 148.3961880  50.5353380
  41.0227600 148.9533600  49.9036910  44.1899110 149.7035760  61.3734820
  43.7770290 150.5289470  61.6274810  43.4575060 149.1180800  61.1811180
  36.3231900 152.4895660  56.2353490  35.9188900 151.7772910  55.7399390
  36.4095020 152.1448900  57.1241530  35.0360520 149.2638870  60.0152530
  35.5875110 149.3734210  59.2405780  35.5504030 149.6376470  60.7307760
  46.5054390 144.0180840  49.2782800  46.1927050 144.1107670  50.1781870
  47.2666860 144.5961870  49.2280230  33.0236530 151.3840640  53.7360140
  32.9034130 152.1102730  53.1241410  32.7137420 150.6143550  53.2588050
  47.7155680 148.7552340  65.2556940  47.0999950 149.2632010  64.7272400
  47.3952100 147.8550670  65.1982880  35.4900190 144.7275710  57.1183810
  35.0468340 145.5085250  56.7868330  36.0485180 145.0505600  57.8254750
  39.7770000 147.5944230  62.7219130  39.3149370 147.8027250  63.5339070
  39.3748110 146.7803580  62.4189800  44.7774510 148.8153180  63.8515790
  43.9268100 148.5158930  64.1724860  44.6176300 149.0595190  62.9399610
  41.8724220 150.3154930  65.9514580  42.1977630 149.4818680  65.6116810
  42.6604550 150.8383450  66.0992910  38.6059010 144.3486410  51.9989640
  37.9813190 144.3446280  52.7242950  38.5189130 143.4817370  51.6025610
  37.5276090 145.2723040  58.9773410  37.8248420 146.1785870  58.8965430
  38.0761650 144.7841820  58.3632980  35.2814410 149.8509280  54.8465060
  35.0555330 149.6346450  55.7511680  34.5006940 150.2837740  54.5011030
  42.5112170 149.8572650  53.4455710  41.9121060 150.5808450  53.2619330
  43.0591780 149.7949430  52.6632160  37.7213620 150.7494860  65.5125330
  37.6257220 149.8089590  65.3625730  38.5645600 150.9709930  65.1173400
  41.1177040 148.4936190  55.4758990  41.5106610 148.8108390  54.6627680
  41.4793890 147.6148070  55.5903510  32.8524160 147.1608530  63.6659110
  32.4587550 148.0083740  63.8731890  32.1642560 146.5234900  63.8567750
  39.4269210 147.2443500  66.7355850  38.7367530 147.0515700  67.3701940
  40.1701510 147.5278140  67.2680150  30.1541210 145.0836990  57.6989190
  29.8654260 145.6539850  58.4114170  30.8986970 144.6041440  58.0620420
  30.3411440 149.0257110  48.9091910  30.2586110 149.9687870  49.0506900
  29.9894500 148.8832020  48.0304260  41.7032180 151.0841940  59.5709770
  40.9713300 151.5928750  59.9199870  41.3056520 150.2671920  59.2698550
  38.1409570 147.7596140  57.9762260  38.1445630 147.3186090  57.1266800
  39.0360690 148.0813470  58.0834080  33.9911950 147.6422630  56.9356470
  33.6512000 148.1197860  57.6923520  33.2289270 147.1887750  56.5757570
  38.2029720 148.7608220  50.9669020  38.3242540 148.7194700  51.9154840
  37.8178230 149.6232370  50.8115750  42.1658090 146.5375620  58.9832710
  42.1830830 146.9884270  59.8274560  41.9173670 145.6381260  59.1966150
  37.2151220 151.0709360  50.3652320  36.6468120 150.6227610  49.7388230
  37.9240220 151.4302140  49.8317470  45.5928840 143.9507800  64.8219090
  45.9174610 143.2197460  65.3477070  45.6285350 143.6321440  63.9200080
  31.3058030 146.5641610  55.8521140  31.0204950 146.1997280  56.6899760
  31.2436890 145.8322070  55.2384280  36.2316910 150.8606560  62.0411880
  35.9273980 151.7398540  62.2662240  37.1863370 150.9206350  62.0769320
  40.9796620 145.4570870  52.5734510  40.1661230 144.9584040  52.4979820
  40.7858570 146.2969120  52.1570860  43.6945010 149.8290520  50.8696670
  44.5824630 150.1407750  50.6948010  43.6650100 148.9562770  50.4777250
  32.2880640 151.7009300  63.1883240  31.9295580 152.3663150  63.7756580
  31.9935200 150.8692850  63.5595860  35.4893760 152.1593540  66.0722790
  35.1893900 152.3050720  65.1750610  36.2605000 151.5998830  65.9796180
  45.9659280 151.1402360  50.3376530  45.8823000 151.5716580  49.4872970
  46.6853470 151.6000710  50.7703350  30.7988690 151.7000560  49.8117840
  31.6683540 151.9825360  50.0953760  30.3079010 152.5136430  49.6966650
  33.8635280 143.4311420  54.4048640  33.7349910 143.4229320  55.3533560
  33.0397300 143.7694510  54.0539650  30.8629210 145.1902540  63.8655340
  30.1487730 145.3899460  64.4707950  31.2824250 144.4142110  64.2370140
  42.3567990 147.6824850  61.6156790  42.7248810 146.8620060  61.9436360
  41.4966190 147.7426740  62.0312440  45.7230020 146.6381790  52.4244350
  45.0943180 146.7427460  51.7102580  45.2281940 146.8578570  53.2138230
  37.6914050 148.9167740  53.8402230  36.9830200 149.3854080  54.2815840
  37.9758530 148.2589750  54.4747420  39.3169980 150.3364440  61.8394760
  39.8155230 150.8110260  62.5046610  39.4592930 149.4127960  62.0464790
  41.7229480 145.6418400  55.2798020  41.5997260 145.6604530  54.3307530
  42.6714040 145.6897340  55.3996420  35.8949070 147.2252820  51.2152940
  36.7439600 147.6622970  51.1493130  35.5280340 147.5373080  52.0425000
  46.5236840 146.5532400  62.6823150  46.0210440 147.2937800  63.0216960
  47.3393500 146.9416400  62.3659940  44.8158850 151.7965580  56.1284510
  43.8748990 151.8115810  56.3032200  45.1302920 151.0101540  56.5744810
  33.4887250 150.9110250  50.3721360  33.5690840 149.9637760  50.4838760
  34.3807000 151.2417130  50.4782020  33.0481130 150.8754760  66.5027600
  33.0886470 150.5768630  67.4112830  33.9026630 151.2762370  66.3435120
  34.9886940 149.4546860  64.4702090  34.4583400 148.9637810  63.8425430
  35.6575010 149.8831060  63.9360020  44.3587170 151.2612480  66.2382430
  44.9407940 150.5064800  66.1502910  44.5348940 151.7919920  65.4613910
  35.4759240 146.4209230  64.5499380  35.3816110 145.8029980  63.8250250
  34.8956630 147.1475520  64.3229290  38.2420680 144.9782470  61.5826770
  37.7937980 145.0006730  60.7372320  37.6085880 144.5801490  62.1797070
  40.9844130 151.6052980  63.5877050  41.1040340 151.0094120  64.3271890
  41.8438130 151.6422670  63.1678350  35.7218420 149.5483540  48.6089270
  35.5207480 148.6850900  48.9702610  35.5510470 149.4616900  47.6710870
  37.7512900 148.1474330  64.8452870  38.3412590 147.8390180  65.5330690
  36.9333140 147.6754080  65.0012770  42.5706330 147.7640140  65.0785890
  41.8821850 147.1021680  65.0135880  43.2912350 147.3178410  65.5234350
  43.2006730 144.3591770  51.1376150  43.4809020 143.5159670  51.4935570
  42.4272460 144.5914880  51.6514900  34.5201220 146.6484160  48.5967150
  34.8227120 146.6551590  47.6886300  35.2595810 146.2982020  49.0934810
  37.7386150 145.5918780  49.5823350  37.3908150 144.9142770  49.0025800
  37.9398920 145.1308290  50.3966740  31.0791790 152.1206430  55.9787720
  30.4240630 151.8518070  55.3347420  31.9169740 152.0110910  55.5289700
  44.0282230 146.9147720  50.2006210  44.4467110 146.7278700  49.3602870
  43.7218290 146.0626770  50.5109140  47.5271960 151.8271860  53.8982010
  47.1515560 151.0599790  53.4663300  46.7975080 152.2094560  54.3856940
  32.1167720 152.5059000  60.5191060  32.4840760 152.4186400  61.3987080
  31.5478540 151.7425550  60.4197920  46.9171580 150.9743380  63.5321530
  46.6857670 150.7456130  62.6319480  47.1776130 151.8942930  63.4866420
  31.6683720 149.4168090  64.4249480  30.7739770 149.3834850  64.7643190
  32.2081270 149.6154880  65.1900730  45.3559650 146.1999810  66.3101230
  46.2329830 146.2083210  66.6935230  45.3680490 145.4630650  65.6993580
  30.2929870 149.3305360  51.9213050  29.3893950 149.5935560  51.7464710
  30.7770490 149.6016530  51.1413010  46.8022920 150.0529350  57.1989250
  47.3260400 149.5592000  56.5679420  47.3882340 150.1879710  57.9436820
  46.9812640 150.1369220  60.7208800  46.0315350 150.1032760  60.8353790
  47.1625650 151.0469330  60.4858570  32.8357080 148.3870900  49.8307430
  33.5448780 147.9654120  49.3454710  32.1197020 148.4546130  49.1990780
  32.4831240 144.4410230  48.8710080  33.2059370 144.9819170  49.1891300
  32.7555760 144.1673650  47.9951620  46.2922890 149.3102700  53.1381660
  46.7882010 149.0773570  53.9230540  46.0938960 148.4714540  52.7219300
  32.1723430 143.6916420  58.7732700  32.8199620 143.1413800  58.3327860
  32.5925270 143.9459570  59.5948510  47.7210050 147.9463650  55.6719340
  47.6109330 147.7919690  56.6101610  48.4817640 147.4184590  55.4294750
  46.0675770 143.8857780  62.1302340  46.7047990 144.4991920  62.4961530
  46.2150660 143.9218440  61.1851570  48.6100320 145.7771570  48.9125480
  49.5349630 145.6452750  48.7043770  48.5876110 145.8564390  49.8661930
  48.6838810 146.5482230  51.5382190  47.8890310 146.4827350  52.0675100
  48.8882090 147.4832870  51.5267540  31.9255430 143.8472090  61.5158020
  31.5770250 144.3035910  62.2816200  31.5943130 142.9529220  61.5980450
  39.4380250 145.0383970  65.0377440  39.3769140 145.6305800  65.7872850
  40.3780630 144.9309930  64.8927700  42.0754810 144.6954030  64.6769730
  42.6895220 145.0133320  64.0150810  42.6204370 144.2102620  65.2965590
  32.5976070 143.3748290  64.7908790  33.1459060 143.1936340  64.0274900
  32.6631380 142.5842400  65.3265100  42.8162850 143.2586170  61.0039020
  41.9422690 143.5921280  60.8011950  42.7073600 142.7859350  61.8290890
  43.7234830 145.4657040  62.3880740  43.3948190 144.6508800  62.0082470
  44.6717130 145.4226850  62.2646430  40.5637670 144.1756010  59.9431930
  39.7809460 144.6501510  60.2228690  40.2700600 143.2710840  59.8345110
  45.1158740 144.8779110  57.9881020  45.5566830 144.8224210  57.1402620
  44.8466330 145.7937120  58.0591200  46.9797310 144.5094350  55.9989840
  46.9185710 143.5655570  55.8520860  47.7589340 144.6174440  56.5443300
  31.9078080 144.4803490  52.4645650  32.6657440 144.5932370  51.8909680
  31.4455250 145.3172690  52.4189080  38.4491890 146.5942760  55.4547960
  37.6366400 146.2199650  55.1143840  38.9533530 145.8387840  55.7569150
  42.9516870 143.2585210  56.6931030  43.5546240 143.8305420  57.1679550
  42.2109860 143.8224650  56.4704930  46.0951470 143.6606770  51.9671310
  46.2902100 144.5590220  52.2338740  45.3081340 143.4293850  52.4604260
  34.2803230 145.0067540  51.0047620  34.8095990 144.2197340  50.8755570
  34.9131550 145.6858730  51.2383150  36.4741070 144.7442680  54.0593010
  35.8443810 144.0429990  54.2263140  35.9346210 145.5046810  53.8426170
  36.5996630 144.0226660  66.4945500  36.3180900 144.5260260  65.7306320
  36.9816330 143.2248410  66.1287630  43.2012090 143.4380240  67.0725970
  43.0877540 143.7574850  67.9677490  44.0181830 143.8392750  66.7763250
  42.1070240 151.4572710  37.4360710  42.0264290 150.5427320  37.1652420
  41.6934660 151.9539780  36.7300420  32.6646060 148.5073430  33.9788130
  31.7762760 148.8489400  33.8768010  32.9487250 148.3073750  33.0868960
  30.6279070 151.1079080  39.8627830  31.1995180 150.3401280  39.8631470
  30.6280610 151.4067840  38.9534440  31.8703940 146.5163440  41.6496760
  31.6906780 145.6189190  41.9299520  31.4684020 147.0635310  42.3243710
  40.7102440 148.7179300  39.5509070  41.0867260 147.8451180  39.4382740
  40.6121950 149.0538000  38.6599510  34.8407450 147.0904930  35.0126510
  34.9474200 147.9908660  35.3195270  33.9299810 147.0422900  34.7221160
  44.4926560 146.2129740  36.4837410  45.3136180 145.7226310  36.5262890
  44.5260640 146.8027400  37.2369250  32.4890610 149.0123940  40.2579100
  33.1700720 149.2762310  40.8766500  32.1738660 148.1724810  40.5917110
  36.6815180 150.0591300  39.3451690  37.1893400 150.5572270  39.9856710
  37.2128420 149.2826500  39.1691050  48.7826110 148.2296490  43.0481040
  48.0778280 148.6178200  42.5296150  49.0484030 148.9246780  43.6501970
  34.9651280 144.6989860  43.6115110  34.9669720 145.2162250  42.8061010
  34.1355590 144.2220040  43.5885040  44.7288040 148.1530120  39.2564950
  44.0243610 148.4415010  39.8368060  45.0900200 148.9630230  38.8964510
  34.6466610 146.4099820  41.6185560  34.9883420 147.2541870  41.3239430
  33.7082420 146.5583560  41.7350900  47.7974960 147.5984910  39.6474160
  46.8499870 147.6323890  39.7789590  48.1224950 148.4123860  40.0323520
  38.3294500 143.8982090  37.9430150  38.6369480 143.3428980  37.2265650
  37.3995200 144.0326550  37.7603140  40.7044340 148.2347920  31.6757430
  39.7648010 148.3961880  31.7609890  41.0227600 148.9533600  31.1293420
  44.1899110 149.7035760  42.5991330  43.7770290 150.5289470  42.8531320
  43.4575060 149.1180800  42.4067690  36.3231900 152.4895660  37.4610000
  35.9188900 151.7772910  36.9655900  36.4095020 152.1448900  38.3498040
  35.0360520 149.2638870  41.2409040  35.5875110 149.3734210  40.4662290
  35.5504030 149.6376470  41.9564270  46.5054390 144.0180840  30.5039310
  46.1927050 144.1107670  31.4038380  47.2666860 144.5961870  30.4536740
  33.0236530 151.3840640  34.9616650  32.9034130 152.1102730  34.3497920
  32.7137420 150.6143550  34.4844560  47.7155680 148.7552340  46.4813450
  47.0999950 149.2632010  45.9528910  47.3952100 147.8550670  46.4239390
  35.4900190 144.7275710  38.3440320  35.0468340 145.5085250  38.0124840
  36.0485180 145.0505600  39.0511260  39.7770000 147.5944230  43.9475640
  39.3149370 147.8027250  44.7595580  39.3748110 146.7803580  43.6446310
  44.7774510 148.8153180  45.0772300  43.9268100 148.5158930  45.3981370
  44.6176300 149.0595190  44.1656120  41.8724220 150.3154930  47.1771090
  42.1977630 149.4818680  46.8373320  42.6604550 150.8383450  47.3249420
  38.6059010 144.3486410  33.2246150  37.9813190 144.3446280  33.9499460
  38.5189130 143.4817370  32.8282120  37.5276090 145.2723040  40.2029920
  37.8248420 146.1785870  40.1221940  38.0761650 144.7841820  39.5889490
  35.2814410 149.8509280  36.0721570  35.0555330 149.6346450  36.9768190
  34.5006940 150.2837740  35.7267540  42.5112170 149.8572650  34.6712220
  41.9121060 150.5808450  34.4875840  43.0591780 149.7949430  33.8888670
  37.7213620 150.7494860  46.7381840  37.6257220 149.8089590  46.5882240
  38.5645600 150.9709930  46.3429910  41.1177040 148.4936190  36.7015500
  41.5106610 148.8108390  35.8884190  41.4793890 147.6148070  36.8160020
  32.8524160 147.1608530  44.8915620  32.4587550 148.0083740  45.0988400
  32.1642560 146.5234900  45.0824260  39.4269210 147.2443500  47.9612360
  38.7367530 147.0515700  48.5958450  40.1701510 147.5278140  48.4936660
  30.1541210 145.0836990  38.9245700  29.8654260 145.6539850  39.6370680
  30.8986970 144.6041440  39.2876930  30.3411440 149.0257110  30.1348420
  30.2586110 149.9687870  30.2763410  29.9894500 148.8832020  29.2560770
  41.7032180 151.0841940  40.7966280  40.9713300 151.5928750  41.1456380
  41.3056520 150.2671920  40.4955060  38.1409570 147.7596140  39.2018770
  38.1445630 147.3186090  38.3523310  39.0360690 148.0813470  39.3090590
  33.9911950 147.6422630  38.1612980  33.6512000 148.1197860  38.9180030
  33.2289270 147.1887750  37.8014080  38.2029720 148.7608220  32.1925530
  38.3242540 148.7194700  33.1411350  37.8178230 149.6232370  32.0372260
  42.1658090 146.5375620  40.2089220  42.1830830 146.9884270  41.0531070
  41.9173670 145.6381260  40.4222660  37.2151220 151.0709360  31.5908830
  36.6468120 150.6227610  30.9644740  37.9240220 151.4302140  31.0573980
  45.5928840 143.9507800  46.0475600  45.9174610 143.2197460  46.5733580
  45.6285350 143.6321440  45.1456590  31.3058030 146.5641610  37.0777650
  31.0204950 146.1997280  37.9156270  31.2436890 145.8322070  36.4640790
  36.2316910 150.8606560  43.2668390  35.9273980 151.7398540  43.4918750
  37.1863370 150.9206350  43.3025830  40.9796620 145.4570870  33.7991020
  40.1661230 144.9584040  33.7236330  40.7858570 146.2969120  33.3827370
  43.6945010 149.8290520  32.0953180  44.5824630 150.1407750  31.9204520
  43.6650100 148.9562770  31.7033760  32.2880640 151.7009300  44.4139750
  31.9295580 152.3663150  45.0013090  31.9935200 150.8692850  44.7852370
  35.4893760 152.1593540  47.2979300  35.1893900 152.3050720  46.4007120
  36.2605000 151.5998830  47.2052690  45.9659280 151.1402360  31.5633040
  45.8823000 151.5716580  30.7129480  46.6853470 151.6000710  31.9959860
  30.7988690 151.7000560  31.0374350  31.6683540 151.9825360  31.3210270
  30.3079010 152.5136430  30.9223160  33.8635280 143.4311420  35.6305150
  33.7349910 143.4229320  36.5790070  33.0397300 143.7694510  35.2796160
  30.8629210 145.1902540  45.0911850  30.1487730 145.3899460  45.6964460
  31.2824250 144.4142110  45.4626650  42.3567990 147.6824850  42.8413300
  42.7248810 146.8620060  43.1692870  41.4966190 147.7426740  43.2568950
  45.7230020 146.6381790  33.6500860  45.0943180 146.7427460  32.9359090
  45.2281940 146.8578570  34.4394740  37.6914050 148.9167740  35.0658740
  36.9830200 149.3854080  35.5072350  37.9758530 148.2589750  35.7003930
  39.3169980 150.3364440  43.0651270  39.8155230 150.8110260  43.7303120
  39.4592930 149.4127960  43.2721300  41.7229480 145.6418400  36.5054530
  41.5997260 145.6604530  35.5564040  42.6714040 145.6897340  36.6252930
  35.8949070 147.2252820  32.4409450  36.7439600 147.6622970  32.3749640
  35.5280340 147.5373080  33.2681510  46.5236840 146.5532400  43.9079660
  46.0210440 147.2937800  44.2473470  47.3393500 146.9416400  43.5916450
  44.8158850 151.7965580  37.3541020  43.8748990 151.8115810  37.5288710
  45.1302920 151.0101540  37.8001320  33.4887250 150.9110250  31.5977870
  33.5690840 149.9637760  31.7095270  34.3807000 151.2417130  31.7038530
  33.0481130 150.8754760  47.7284110  33.0886470 150.5768630  48.6369340
  33.9026630 151.2762370  47.5691630  34.9886940 149.4546860  45.6958600
  34.4583400 148.9637810  45.0681940  35.6575010 149.8831060  45.1616530
  44.3587170 151.2612480  47.4638940  44.9407940 150.5064800  47.3759420
  44.5348940 151.7919920  46.6870420  35.4759240 146.4209230  45.7755890
  35.3816110 145.8029980  45.0506760  34.8956630 147.1475520  45.5485800
  38.2420680 144.9782470  42.8083280  37.7937980 145.0006730  41.9628830
  37.6085880 144.5801490  43.4053580  40.9844130 151.6052980  44.8133560
  41.1040340 151.0094120  45.5528400  41.8438130 151.6422670  44.3934860
  35.7218420 149.5483540  29.8345780  35.5207480 148.6850900  30.1959120
  35.5510470 149.4616900  28.8967380  37.7512900 148.1474330  46.0709380
  38.3412590 147.8390180  46.7587200  36.9333140 147.6754080  46.2269280
  42.5706330 147.7640140  46.3042400  41.8821850 147.1021680  46.2392390
  43.2912350 147.3178410  46.7490860  43.2006730 144.3591770  32.3632660
  43.4809020 143.5159670  32.7192080  42.4272460 144.5914880  32.8771410
  34.5201220 146.6484160  29.8223660  34.8227120 146.6551590  28.9142810
  35.2595810 146.2982020  30.3191320  37.7386150 145.5918780  30.8079860
  37.3908150 144.9142770  30.2282310  37.9398920 145.1308290  31.6223250
  31.0791790 152.1206430  37.2044230  30.4240630 151.8518070  36.5603930
  31.9169740 152.0110910  36.7546210  44.0282230 146.9147720  31.4262720
  44.4467110 146.7278700  30.5859380  43.7218290 146.0626770  31.7365650
  47.5271960 151.8271860  35.1238520  47.1515560 151.0599790  34.6919810
  46.7975080 152.2094560  35.6113450  32.1167720 152.5059000  41.7447570
  32.4840760 152.4186400  42.6243590  31.5478540 151.7425550  41.6454430
  46.9171580 150.9743380  44.7578040  46.6857670 150.7456130  43.8575990
  47.1776130 151.8942930  44.7122930  31.6683720 149.4168090  45.6505990
  30.7739770 149.3834850  45.9899700  32.2081270 149.6154880  46.4157240
  45.3559650 146.1999810  47.5357740  46.2329830 146.2083210  47.9191740
  45.3680490 145.4630650  46.9250090  30.2929870 149.3305360  33.1469560
  29.3893950 149.5935560  32.9721220  30.7770490 149.6016530  32.3669520
  46.8022920 150.0529350  38.4245760  47.3260400 149.5592000  37.7935930
  47.3882340 150.1879710  39.1693330  46.9812640 150.1369220  41.9465310
  46.0315350 150.1032760  42.0610300  47.1625650 151.0469330  41.7115080
  32.8357080 148.3870900  31.0563940  33.5448780 147.9654120  30.5711220
  32.1197020 148.4546130  30.4247290  32.4831240 144.4410230  30.0966590
  33.2059370 144.9819170  30.4147810  32.7555760 144.1673650  29.2208130
  46.2922890 149.3102700  34.3638170  46.7882010 149.0773570  35.1487050
  46.0938960 148.4714540  33.9475810  32.1723430 143.6916420  39.9989210
  32.8199620 143.1413800  39.5584370  32.5925270 143.9459570  40.8205020
  47.7210050 147.9463650  36.8975850  47.6109330 147.7919690  37.8358120
  48.4817640 147.4184590  36.6551260  46.0675770 143.8857780  43.3558850
  46.7047990 144.4991920  43.7218040  46.2150660 143.9218440  42.4108080
  48.6100320 145.7771570  30.1381990  49.5349630 145.6452750  29.9300280
  48.5876110 145.8564390  31.0918440  48.6838810 146.5482230  32.7638700
  47.8890310 146.4827350  33.2931610  48.8882090 147.4832870  32.7524050
  31.9255430 143.8472090  42.7414530  31.5770250 144.3035910  43.5072710
  31.5943130 142.9529220  42.8236960  39.4380250 145.0383970  46.2633950
  39.3769140 145.6305800  47.0129360  40.3780630 144.9309930  46.1184210
  42.0754810 144.6954030  45.9026240  42.6895220 145.0133320  45.2407320
  42.6204370 144.2102620  46.5222100  32.5976070 143.3748290  46.0165300
  33.1459060 143.1936340  45.2531410  32.6631380 142.5842400  46.5521610
  42.8162850 143.2586170  42.2295530  41.9422690 143.5921280  42.0268460
  42.7073600 142.7859350  43.0547400  43.7234830 145.4657040  43.6137250
  43.3948190 144.6508800  43.2338980  44.6717130 145.4226850  43.4902940
  40.5637670 144.1756010  41.1688440  39.7809460 144.6501510  41.4485200
  40.2700600 143.2710840  41.0601620  45.1158740 144.8779110  39.2137530
  45.5566830 144.8224210  38.3659130  44.8466330 145.7937120  39.2847710
  46.9797310 144.5094350  37.2246350  46.9185710 143.5655570  37.0777370
  47.7589340 144.6174440  37.7699810  31.9078080 144.4803490  33.6902160
  32.6657440 144.5932370  33.1166190  31.4455250 145.3172690  33.6445590
  38.4491890 146.5942760  36.6804470  37.6366400 146.2199650  36.3400350
  38.9533530 145.8387840  36.9825660  42.9516870 143.2585210  37.9187540
  43.5546240 143.8305420  38.3936060  42.2109860 143.8224650  37.6961440
  46.0951470 143.6606770  33.1927820  46.2902100 144.5590220  33.4595250
  45.3081340 143.4293850  33.6860770  34.2803230 145.0067540  32.2304130
  34.8095990 144.2197340  32.1012080  34.9131550 145.6858730  32.4639660
  36.4741070 144.7442680  35.2849520  35.8443810 144.0429990  35.4519650
  35.9346210 145.5046810  35.0682680  36.5996630 144.0226660  47.7202010
  36.3180900 144.5260260  46.9562830  36.9816330 143.2248410  47.3544140
  43.2012090 143.4380240  48.2982480  43.0877540 143.7574850  49.1934000
  44.0181830 143.8392750  48.0019760  42.1070240 151.4572710  18.6617220
  42.0264290 150.5427320  18.3908930  41.6934660 151.9539780  17.9556930
  32.6646060 148.5073430  15.2044640  31.7762760 148.8489400  15.1024520
  32.9487250 148.3073750  14.3125470  30.6279070 151.1079080  21.0884340
  31.1995180 150.3401280  21.0887980  30.6280610 151.4067840  20.1790950
  31.8703940 146.5163440  22.8753270  31.6906780 145.6189190  23.1556030
  31.4684020 147.0635310  23.5500220  40.7102440 148.7179300  20.7765580
  41.0867260 147.8451180  20.6639250  40.6121950 149.0538000  19.8856020
  34.8407450 147.0904930  16.2383020  34.9474200 147.9908660  16.5451780
  33.9299810 147.0422900  15.9477670  44.4926560 146.2129740  17.7093920
  45.3136180 145.7226310  17.7519400  44.5260640 146.8027400  18.4625760
  32.4890610 149.0123940  21.4835610  33.1700720 149.2762310  22.1023010
  32.1738660 148.1724810  21.8173620  36.6815180 150.0591300  20.5708200
  37.1893400 150.5572270  21.2113220  37.2128420 149.2826500  20.3947560
  48.7826110 148.2296490  24.2737550  48.0778280 148.6178200  23.7552660
  49.0484030 148.9246780  24.8758480  34.9651280 144.6989860  24.8371620
  34.9669720 145.2162250  24.0317520  34.1355590 144.2220040  24.8141550
  44.7288040 148.1530120  20.4821460  44.0243610 148.4415010  21.0624570
  45.0900200 148.9630230  20.1221020  34.6466610 146.4099820  22.8442070
  34.9883420 147.2541870  22.5495940  33.7082420 146.5583560  22.9607410
  47.7974960 147.5984910  20.8730670  46.8499870 147.6323890  21.0046100
  48.1224950 148.4123860  21.2580030  38.3294500 143.8982090  19.1686660
  38.6369480 143.3428980  18.4522160  37.3995200 144.0326550  18.9859650
  40.7044340 148.2347920  12.9013940  39.7648010 148.3961880  12.9866400
  41.0227600 148.9533600  12.3549930  44.1899110 149.7035760  23.8247840
  43.7770290 150.5289470  24.0787830  43.4575060 149.1180800  23.6324200
  36.3231900 152.4895660  18.6866510  35.9188900 151.7772910  18.1912410
  36.4095020 152.1448900  19.5754550  35.0360520 149.2638870  22.4665550
  35.5875110 149.3734210  21.6918800  35.5504030 149.6376470  23.1820780
  46.5054390 144.0180840  11.7295820  46.1927050 144.1107670  12.6294890
  47.2666860 144.5961870  11.6793250  33.0236530 151.3840640  16.1873160
  32.9034130 152.1102730  15.5754430  32.7137420 150.6143550  15.7101070
  47.7155680 148.7552340  27.7069960  47.0999950 149.2632010  27.1785420
  47.3952100 147.8550670  27.6495900  35.4900190 144.7275710  19.5696830
  35.0468340 145.5085250  19.2381350  36.0485180 145.0505600  20.2767770
  39.7770000 147.5944230  25.1732150  39.3149370 147.8027250  25.9852090
  39.3748110 146.7803580  24.8702820  44.7774510 148.8153180  26.3028810
  43.9268100 148.5158930  26.6237880  44.6176300 149.0595190  25.3912630
  41.8724220 150.3154930  28.4027600  42.1977630 149.4818680  28.0629830
  42.6604550 150.8383450  28.5505930  38.6059010 144.3486410  14.4502660
  37.9813190 144.3446280  15.1755970  38.5189130 143.4817370  14.0538630
  37.5276090 145.2723040  21.4286430  37.8248420 146.1785870  21.3478450
  38.0761650 144.7841820  20.8146000  35.2814410 149.8509280  17.2978080
  35.0555330 149.6346450  18.2024700  34.5006940 150.2837740  16.9524050
  42.5112170 149.8572650  15.8968730  41.9121060 150.5808450  15.7132350
  43.0591780 149.7949430  15.1145180  37.7213620 150.7494860  27.9638350
  37.6257220 149.8089590  27.8138750  38.5645600 150.9709930  27.5686420
  41.1177040 148.4936190  17.9272010  41.5106610 148.8108390  17.1140700
  41.4793890 147.6148070  18.0416530  32.8524160 147.1608530  26.1172130
  32.4587550 148.0083740  26.3244910  32.1642560 146.5234900  26.3080770
  39.4269210 147.2443500  29.1868870  38.7367530 147.0515700  29.8214960
  40.1701510 147.5278140  29.7193170  30.1541210 145.0836990  20.1502210
  29.8654260 145.6539850  20.8627190  30.8986970 144.6041440  20.5133440
  30.3411440 149.0257110  11.3604930  30.2586110 149.9687870  11.5019920
  29.9894500 148.8832020  10.4817280  41.7032180 151.0841940  22.0222790
  40.9713300 151.5928750  22.3712890  41.3056520 150.2671920  21.7211570
  38.1409570 147.7596140  20.4275280  38.1445630 147.3186090  19.5779820
  39.0360690 148.0813470  20.5347100  33.9911950 147.6422630  19.3869490
  33.6512000 148.1197860  20.1436540  33.2289270 147.1887750  19.0270590
  38.2029720 148.7608220  13.4182040  38.3242540 148.7194700  14.3667860
  37.8178230 149.6232370  13.2628770  42.1658090 146.5375620  21.4345730
  42.1830830 146.9884270  22.2787580  41.9173670 145.6381260  21.6479170
  37.2151220 151.0709360  12.8165340  36.6468120 150.6227610  12.1901250
  37.9240220 151.4302140  12.2830490  45.5928840 143.9507800  27.2732110
  45.9174610 143.2197460  27.7990090  45.6285350 143.6321440  26.3713100
  31.3058030 146.5641610  18.3034160  31.0204950 146.1997280  19.1412780
  31.2436890 145.8322070  17.6897300  36.2316910 150.8606560  24.4924900
  35.9273980 151.7398540  24.7175260  37.1863370 150.9206350  24.5282340
  40.9796620 145.4570870  15.0247530  40.1661230 144.9584040  14.9492840
  40.7858570 146.2969120  14.6083880  43.6945010 149.8290520  13.3209690
  44.5824630 150.1407750  13.1461030  43.6650100 148.9562770  12.9290270
  32.2880640 151.7009300  25.6396260  31.9295580 152.3663150  26.2269600
  31.9935200 150.8692850  26.0108880  35.4893760 152.1593540  28.5235810
  35.1893900 152.3050720  27.6263630  36.2605000 151.5998830  28.4309200
  45.9659280 151.1402360  12.7889550  45.8823000 151.5716580  11.9385990
  46.6853470 151.6000710  13.2216370  30.7988690 151.7000560  12.2630860
  31.6683540 151.9825360  12.5466780  30.3079010 152.5136430  12.1479670
  33.8635280 143.4311420  16.8561660  33.7349910 143.4229320  17.8046580
  33.0397300 143.7694510  16.5052670  30.8629210 145.1902540  26.3168360
  30.1487730 145.3899460  26.9220970  31.2824250 144.4142110  26.6883160
  42.3567990 147.6824850  24.0669810  42.7248810 146.8620060  24.3949380
  41.4966190 147.7426740  24.4825460  45.7230020 146.6381790  14.8757370
  45.0943180 146.7427460  14.1615600  45.2281940 146.8578570  15.6651250
  37.6914050 148.9167740  16.2915250  36.9830200 149.3854080  16.7328860
  37.9758530 148.2589750  16.9260440  39.3169980 150.3364440  24.2907780
  39.8155230 150.8110260  24.9559630  39.4592930 149.4127960  24.4977810
  41.7229480 145.6418400  17.7311040  41.5997260 145.6604530  16.7820550
  42.6714040 145.6897340  17.8509440  35.8949070 147.2252820  13.6665960
  36.7439600 147.6622970  13.6006150  35.5280340 147.5373080  14.4938020
  46.5236840 146.5532400  25.1336170  46.0210440 147.2937800  25.4729980
  47.3393500 146.9416400  24.8172960  44.8158850 151.7965580  18.5797530
  43.8748990 151.8115810  18.7545220  45.1302920 151.0101540  19.0257830
  33.4887250 150.9110250  12.8234380  33.5690840 149.9637760  12.9351780
  34.3807000 151.2417130  12.9295040  33.0481130 150.8754760  28.9540620
  33.0886470 150.5768630  29.8625850  33.9026630 151.2762370  28.7948140
  34.9886940 149.4546860  26.9215110  34.4583400 148.9637810  26.2938450
  35.6575010 149.8831060  26.3873040  44.3587170 151.2612480  28.6895450
  44.9407940 150.5064800  28.6015930  44.5348940 151.7919920  27.9126930
  35.4759240 146.4209230  27.0012400  35.3816110 145.8029980  26.2763270
  34.8956630 147.1475520  26.7742310  38.2420680 144.9782470  24.0339790
  37.7937980 145.0006730  23.1885340  37.6085880 144.5801490  24.6310090
  40.9844130 151.6052980  26.0390070  41.1040340 151.0094120  26.7784910
  41.8438130 151.6422670  25.6191370  35.7218420 149.5483540  11.0602290
  35.5207480 148.6850900  11.4215630  35.5510470 149.4616900  10.1223890
  37.7512900 148.1474330  27.2965890  38.3412590 147.8390180  27.9843710
  36.9333140 147.6754080  27.4525790  42.5706330 147.7640140  27.5298910
  41.8821850 147.1021680  27.4648900  43.2912350 147.3178410  27.9747370
  43.2006730 144.3591770  13.5889170  43.4809020 143.5159670  13.9448590
  42.4272460 144.5914880  14.1027920  34.5201220 146.6484160  11.0480170
  34.8227120 146.6551590  10.1399320  35.2595810 146.2982020  11.5447830
  37.7386150 145.5918780  12.0336370  37.3908150 144.9142770  11.4538820
  37.9398920 145.1308290  12.8479760  31.0791790 152.1206430  18.4300740
  30.4240630 151.8518070  17.7860440  31.9169740 152.0110910  17.9802720
  44.0282230 146.9147720  12.6519230  44.4467110 146.7278700  11.8115890
  43.7218290 146.0626770  12.9622160  47.5271960 151.8271860  16.3495030
  47.1515560 151.0599790  15.9176320  46.7975080 152.2094560  16.8369960
  32.1167720 152.5059000  22.9704080  32.4840760 152.4186400  23.8500100
  31.5478540 151.7425550  22.8710940  46.9171580 150.9743380  25.9834550
  46.6857670 150.7456130  25.0832500  47.1776130 151.8942930  25.9379440
  31.6683720 149.4168090  26.8762500  30.7739770 149.3834850  27.2156210
  32.2081270 149.6154880  27.6413750  45.3559650 146.1999810  28.7614250
  46.2329830 146.2083210  29.1448250  45.3680490 145.4630650  28.1506600
  30.2929870 149.3305360  14.3726070  29.3893950 149.5935560  14.1977730
  30.7770490 149.6016530  13.5926030  46.8022920 150.0529350  19.6502270
  47.3260400 149.5592000  19.0192440  47.3882340 150.1879710  20.3949840
  46.9812640 150.1369220  23.1721820  46.0315350 150.1032760  23.2866810
  47.1625650 151.0469330  22.9371590  32.8357080 148.3870900  12.2820450
  33.5448780 147.9654120  11.7967730  32.1197020 148.4546130  11.6503800
  32.4831240 144.4410230  11.3223100  33.2059370 144.9819170  11.6404320
  32.7555760 144.1673650  10.4464640  46.2922890 149.3102700  15.5894680
  46.7882010 149.0773570  16.3743560  46.0938960 148.4714540  15.1732320
  32.1723430 143.6916420  21.2245720  32.8199620 143.1413800  20.7840880
  32.5925270 143.9459570  22.0461530  47.7210050 147.9463650  18.1232360
  47.6109330 147.7919690  19.0614630  48.4817640 147.4184590  17.8807770
  46.0675770 143.8857780  24.5815360  46.7047990 144.4991920  24.9474550
  46.2150660 143.9218440  23.6364590  48.6100320 145.7771570  11.3638500
  49.5349630 145.6452750  11.1556790  48.5876110 145.8564390  12.3174950
  48.6838810 146.5482230  13.9895210  47.8890310 146.4827350  14.5188120
  48.8882090 147.4832870  13.9780560  31.9255430 143.8472090  23.9671040
  31.5770250 144.3035910  24.7329220  31.5943130 142.9529220  24.0493470
  39.4380250 145.0383970  27.4890460  39.3769140 145.6305800  28.2385870
  40.3780630 144.9309930  27.3440720  42.0754810 144.6954030  27.1282750
  42.6895220 145.0133320  26.4663830  42.6204370 144.2102620  27.7478610
  32.5976070 143.3748290  27.2421810  33.1459060 143.1936340  26.4787920
  32.6631380 142.5842400  27.7778120  42.8162850 143.2586170  23.4552040
  41.9422690 143.5921280  23.2524970  42.7073600 142.7859350  24.2803910
  43.7234830 145.4657040  24.8393760  43.3948190 144.6508800  24.4595490
  44.6717130 145.4226850  24.7159450  40.5637670 144.1756010  22.3944950
  39.7809460 144.6501510  22.6741710  40.2700600 143.2710840  22.2858130
  45.1158740 144.8779110  20.4394040  45.5566830 144.8224210  19.5915640
  44.8466330 145.7937120  20.5104220  46.9797310 144.5094350  18.4502860
  46.9185710 143.5655570  18.3033880  47.7589340 144.6174440  18.9956320
  31.9078080 144.4803490  14.9158670  32.6657440 144.5932370  14.3422700
  31.4455250 145.3172690  14.8702100  38.4491890 146.5942760  17.9060980
  37.6366400 146.2199650  17.5656860  38.9533530 145.8387840  18.2082170
  42.9516870 143.2585210  19.1444050  43.5546240 143.8305420  19.6192570
  42.2109860 143.8224650  18.9217950  46.0951470 143.6606770  14.4184330
  46.2902100 144.5590220  14.6851760  45.3081340 143.4293850  14.9117280
  34.2803230 145.0067540  13.4560640  34.8095990 144.2197340  13.3268590
  34.9131550 145.6858730  13.6896170  36.4741070 144.7442680  16.5106030
  35.8443810 144.0429990  16.6776160  35.9346210 145.5046810  16.2939190
  36.5996630 144.0226660  28.9458520  36.3180900 144.5260260  28.1819340
  36.9816330 143.2248410  28.5800650  43.2012090 143.4380240  29.5238990
  43.0877540 143.7574850  30.4190510  44.0181830 143.8392750  29.2276270
  31.8703940 146.5163440   4.1009780  31.6906780 145.6189190   4.3812540
  31.4684020 147.0635310   4.7756730  32.4890610 149.0123940   2.7092120
  33.1700720 149.2762310   3.3279520  32.1738660 148.1724810   3.0430130
  36.6815180 150.0591300   1.7964710  37.1893400 150.5572270   2.4369730
  37.2128420 149.2826500   1.6204070  48.7826110 148.2296490   5.4994060
  48.0778280 148.6178200   4.9809170  49.0484030 148.9246780   6.1014990
  34.9651280 144.6989860   6.0628130  34.9669720 145.2162250   5.2574030
  34.1355590 144.2220040   6.0398060  34.6466610 146.4099820   4.0698580
  34.9883420 147.2541870   3.7752450  33.7082420 146.5583560   4.1863920
  47.7974960 147.5984910   2.0987180  46.8499870 147.6323890   2.2302610
  48.1224950 148.4123860   2.4836540  44.1899110 149.7035760   5.0504350
  43.7770290 150.5289470   5.3044340  43.4575060 149.1180800   4.8580710
  35.0360520 149.2638870   3.6922060  35.5875110 149.3734210   2.9175310
  35.5504030 149.6376470   4.4077290  47.7155680 148.7552340   8.9326470
  47.0999950 149.2632010   8.4041930  47.3952100 147.8550670   8.8752410
  39.7770000 147.5944230   6.3988660  39.3149370 147.8027250   7.2108600
  39.3748110 146.7803580   6.0959330  44.7774510 148.8153180   7.5285320
  43.9268100 148.5158930   7.8494390  44.6176300 149.0595190   6.6169140
  41.8724220 150.3154930   9.6284110  42.1977630 149.4818680   9.2886340
  42.6604550 150.8383450   9.7762440  37.5276090 145.2723040   2.6542940
  37.8248420 146.1785870   2.5734960  38.0761650 144.7841820   2.0402510
  37.7213620 150.7494860   9.1894860  37.6257220 149.8089590   9.0395260
  38.5645600 150.9709930   8.7942930  32.8524160 147.1608530   7.3428640
  32.4587550 148.0083740   7.5501420  32.1642560 146.5234900   7.5337280
  39.4269210 147.2443500  10.4125380  38.7367530 147.0515700  11.0471470
  40.1701510 147.5278140  10.9449680  41.7032180 151.0841940   3.2479300
  40.9713300 151.5928750   3.5969400  41.3056520 150.2671920   2.9468080
  42.1658090 146.5375620   2.6602240  42.1830830 146.9884270   3.5044090
  41.9173670 145.6381260   2.8735680  45.5928840 143.9507800   8.4988620
  45.9174610 143.2197460   9.0246600  45.6285350 143.6321440   7.5969610
  36.2316910 150.8606560   5.7181410  35.9273980 151.7398540   5.9431770
  37.1863370 150.9206350   5.7538850  32.2880640 151.7009300   6.8652770
  31.9295580 152.3663150   7.4526110  31.9935200 150.8692850   7.2365390
  35.4893760 152.1593540   9.7492320  35.1893900 152.3050720   8.8520140
  36.2605000 151.5998830   9.6565710  30.8629210 145.1902540   7.5424870
  30.1487730 145.3899460   8.1477480  31.2824250 144.4142110   7.9139670
  42.3567990 147.6824850   5.2926320  42.7248810 146.8620060   5.6205890
  41.4966190 147.7426740   5.7081970  39.3169980 150.3364440   5.5164290
  39.8155230 150.8110260   6.1816140  39.4592930 149.4127960   5.7234320
  46.5236840 146.5532400   6.3592680  46.0210440 147.2937800   6.6986490
  47.3393500 146.9416400   6.0429470  33.0481130 150.8754760  10.1797130
  33.0886470 150.5768630  11.0882360  33.9026630 151.2762370  10.0204650
  34.9886940 149.4546860   8.1471620  34.4583400 148.9637810   7.5194960
  35.6575010 149.8831060   7.6129550  44.3587170 151.2612480   9.9151960
  44.9407940 150.5064800   9.8272440  44.5348940 151.7919920   9.1383440
  35.4759240 146.4209230   8.2268910  35.3816110 145.8029980   7.5019780
  34.8956630 147.1475520   7.9998820  38.2420680 144.9782470   5.2596300
  37.7937980 145.0006730   4.4141850  37.6085880 144.5801490   5.8566600
  40.9844130 151.6052980   7.2646580  41.1040340 151.0094120   8.0041420
  41.8438130 151.6422670   6.8447880  37.7512900 148.1474330   8.5222400
  38.3412590 147.8390180   9.2100220  36.9333140 147.6754080   8.6782300
  42.5706330 147.7640140   8.7555420  41.8821850 147.1021680   8.6905410
  43.2912350 147.3178410   9.2003880  32.1167720 152.5059000   4.1960590
  32.4840760 152.4186400   5.0756610  31.5478540 151.7425550   4.0967450
  46.9171580 150.9743380   7.2091060  46.6857670 150.7456130   6.3089010
  47.1776130 151.8942930   7.1635950  31.6683720 149.4168090   8.1019010
  30.7739770 149.3834850   8.4412720  32.2081270 149.6154880   8.8670260
  45.3559650 146.1999810   9.9870760  46.2329830 146.2083210  10.3704760
  45.3680490 145.4630650   9.3763110  46.9812640 150.1369220   4.3978330
  46.0315350 150.1032760   4.5123320  47.1625650 151.0469330   4.1628100
  32.1723430 143.6916420   2.4502230  32.8199620 143.1413800   2.0097390
  32.5925270 143.9459570   3.2718040  46.0675770 143.8857780   5.8071870
  46.7047990 144.4991920   6.1731060  46.2150660 143.9218440   4.8621100
  31.9255430 143.8472090   5.1927550  31.5770250 144.3035910   5.9585730
  31.5943130 142.9529220   5.2749980  39.4380250 145.0383970   8.7146970
  39.3769140 145.6305800   9.4642380  40.3780630 144.9309930   8.5697230
  42.0754810 144.6954030   8.3539260  42.6895220 145.0133320   7.6920340
  42.6204370 144.2102620   8.9735120  32.5976070 143.3748290   8.4678320
  33.1459060 143.1936340   7.7044430  32.6631380 142.5842400   9.0034630
  42.8162850 143.2586170   4.6808550  41.9422690 143.5921280   4.4781480
  42.7073600 142.7859350   5.5060420  43.7234830 145.4657040   6.0650270
  43.3948190 144.6508800   5.6852000  44.6717130 145.4226850   5.9415960
  40.5637670 144.1756010   3.6201460  39.7809460 144.6501510   3.8998220
  40.2700600 143.2710840   3.5114640  36.5996630 144.0226660  10.1715030
  36.3180900 144.5260260   9.4075850  36.9816330 143.2248410   9.8057160
  43.2012090 143.4380240  10.7495500  43.0877540 143.7574850  11.6447020
  44.0181830 143.8392750  10.4532780  42.1070240 132.6829220 150.0821650
  42.0264290 131.7683830 149.8113360  41.6934660 133.1796290 149.3761360
  44.2595710 138.8668430 150.7430050  43.7977240 138.0955670 151.0717220
  45.0721260 138.8934500 151.2482500  32.6646060 129.7329940 146.6249070
  31.7762760 130.0745910 146.5228950  32.9487250 129.5330260 145.7329900
  40.4859020 141.1526440 150.3634040  39.8670460 141.6083940 149.7928480
  41.3410800 141.3077900 149.9623740  34.8407450 128.3161440 147.6587450
  34.9474200 129.2165170 147.9656210  33.9299810 128.2679410 147.3682100
  44.4926560 127.4386250 149.1298350  45.3136180 126.9482820 149.1723830
  44.5260640 128.0283910 149.8830190  41.3522370 136.0365680 147.7565950
  40.7339640 136.5015130 147.1928670  41.8645620 136.7293160 148.1735460
  30.7205570 136.7222210 145.1305580  30.3433550 137.2109310 144.3990480
  30.9778640 137.3947490 145.7612110  38.3294500 125.1238600 150.5891090
  38.6369480 124.5685490 149.8726590  37.3995200 125.2583060 150.4064080
  45.1754980 137.5622110 147.9688720  45.0651310 136.6196440 148.0938140
  45.1723230 137.9237750 148.8551480  40.7175260 133.1887430 147.3251210
  39.7904540 133.1224810 147.5539680  40.8700080 134.1267560 147.2106450
  40.7044340 129.4604430 144.3218370  39.7648010 129.6218390 144.4070830
  41.0227600 130.1790110 143.7754360  44.7472550 134.7507730 147.8286460
  44.1284970 134.4127280 147.1812760  44.7297000 134.1067490 148.5365650
  36.3231900 133.7152170 150.1070940  35.9188900 133.0029420 149.6116840
  36.4095020 133.3705410 150.9958980  42.9237250 133.9894540 144.8359210
  43.3630530 133.1516970 144.6897030  43.6365670 134.6223940 144.9223350
  41.0332630 138.9290610 148.8040450  41.4728540 139.6714940 148.3895840
  40.9719520 139.1717180 149.7279410  46.5054390 125.2437350 143.1500250
  46.1927050 125.3364180 144.0499320  47.2666860 125.8218380 143.0997680
  33.0236530 132.6097150 147.6077590  32.9034130 133.3359240 146.9958860
  32.7137420 131.8400060 147.1305500  31.9069530 137.4812480 149.8252410
  31.4997610 137.6227070 148.9706010  32.7982540 137.1972640 149.6223620
  43.7002810 141.9159730 146.1603460  43.5403950 141.6262670 147.0585290
  43.5349520 141.1399860 145.6248690  36.1791190 141.6958260 147.9375080
  36.0033670 140.7793800 147.7242880  35.3246930 142.0545550 148.1772880
  43.4028940 139.4247290 144.7201460  42.7094100 139.4224580 144.0603740
  44.1451800 139.0006610 144.2895630  42.9678870 141.0510000 148.7949950
  43.4235820 140.2699380 149.1088570  43.3071390 141.7616820 149.3391130
  35.4900190 125.9532220 150.9901260  35.0468340 126.7341760 150.6585780
  36.0485180 126.2762110 151.6972200  38.6059010 125.5742920 145.8707090
  37.9813190 125.5702790 146.5960400  38.5189130 124.7073880 145.4743060
  35.2814410 131.0765790 148.7182510  35.0555330 130.8602960 149.6229130
  34.5006940 131.5094250 148.3728480  42.5112170 131.0829160 147.3173160
  41.9121060 131.8064960 147.1336780  43.0591780 131.0205940 146.5349610
  41.1177040 129.7192700 149.3476440  41.5106610 130.0364900 148.5345130
  41.4793890 128.8404580 149.4620960  30.3411440 130.2513620 142.7809360
  30.2586110 131.1944380 142.9224350  29.9894500 130.1088530 141.9021710
  33.9911950 128.8679140 150.8073920  33.6512000 129.3454370 151.5640970
  33.2289270 128.4144260 150.4475020  38.2029720 129.9864730 144.8386470
  38.3242540 129.9451210 145.7872290  37.8178230 130.8488880 144.6833200
  37.2151220 132.2965870 144.2369770  36.6468120 131.8484120 143.6105680
  37.9240220 132.6558650 143.7034920  31.3058030 127.7898120 149.7238590
  31.0204950 127.4253790 150.5617210  31.2436890 127.0578580 149.1101730
  34.7598700 136.2924060 146.5096180  33.9860960 135.7521680 146.3494900
  35.4893330 135.7730670 146.1713940  40.9796620 126.6827380 146.4451960
  40.1661230 126.1840550 146.3697270  40.7858570 127.5225630 146.0288310
  43.6945010 131.0547030 144.7414120  44.5824630 131.3664260 144.5665460
  43.6650100 130.1819280 144.3494700  34.8036100 135.9604440 150.1474990
  35.3214770 135.1572700 150.0931880  34.3520120 135.8983580 150.9891820
  39.6905600 137.2270720 145.4202290  40.0321300 137.9712950 144.9245610
  38.8618310 137.5401840 145.7827120  45.9659280 132.3658870 144.2093980
  45.8823000 132.7973090 143.3590420  46.6853470 132.8257220 144.6420800
  46.9946530 139.2201130 146.9376110  46.3522690 138.5656750 147.2119830
  46.6077190 139.6256220 146.1616780  42.5733010 136.5486560 150.7847800
  42.9256830 135.9514690 150.1249170  41.6895340 136.2230790 150.9556050
  38.6596290 137.3084250 148.1918210  39.3467420 137.8553460 148.5725800
  37.8728710 137.8524980 148.2267820  30.7988690 132.9257070 143.6835290
  31.6683540 133.2081870 143.9671210  30.3079010 133.7392940 143.5684100
  37.9623500 134.3130280 147.8043570  38.4186280 135.1235530 148.0303760
  37.6111710 133.9953420 148.6362060  33.8635280 124.6567930 148.2766090
  33.7349910 124.6485830 149.2251010  33.0397300 124.9951020 147.9257100
  45.3843910 138.1117590 143.4752460  45.1581490 137.3948030 144.0677100
  44.9940110 137.8630030 142.6374210  31.1659940 142.1384450 144.2496920
  31.5257580 142.7373790 143.5954190  31.0252280 142.6844340 145.0231950
  44.9660160 136.0289530 145.1366620  44.6781860 136.4902220 145.9244500
  45.7612330 135.5687300 145.4050840  37.1828560 139.5215650 145.0670590
  37.1738660 140.2545340 144.4515100  36.2626920 139.2747230 145.1597550
  32.7835200 134.7430540 145.8117350  32.1763150 135.4829440 145.8212650
  33.2584550 134.8329900 144.9855550  45.7230020 127.8638300 146.2961800
  45.0943180 127.9683970 145.5820030  45.2281940 128.0835080 147.0855680
  40.1688160 139.5843890 143.7295780  40.2700140 139.3807880 142.7997760
  39.2689900 139.3302170 143.9343560  37.6914050 130.1424250 147.7119680
  36.9830200 130.6110590 148.1533290  37.9758530 129.4846260 148.3464870
  41.7229480 126.8674910 149.1515470  41.5997260 126.8861040 148.2024980
  42.6714040 126.9153850 149.2713870  38.8106270 142.1030210 148.4243450
  39.0647770 142.0651600 147.5022820  37.8618750 141.9763540 148.4171700
  35.8949070 128.4509330 145.0870390  36.7439600 128.8879480 145.0210580
  35.5280340 128.7629590 145.9142450  44.8158850 133.0222090 150.0001960
  43.8748990 133.0372320 150.1749650  45.1302920 132.2358050 150.4462260
  34.7940490 134.7041690 143.5605920  35.5603760 134.5923050 144.1231350
  34.8715180 134.0079660 142.9082690  33.4887250 132.1366760 144.2438810
  33.5690840 131.1894270 144.3556210  34.3807000 132.4673640 144.3499470
  34.2901960 142.2862150 151.3473350  35.0264440 141.7377610 151.6181920
  34.6742880 143.1518160 151.2079340  31.1747440 138.3535720 147.2214860
  30.2487220 138.5956860 147.2120270  31.6403870 139.1809980 147.0999610
  37.4004270 141.4592460 143.1698920  38.1932880 141.7481290 142.7180710
  36.8808620 141.0284630 142.4911400  46.4534440 140.6862590 144.5935660
  46.1675950 140.2727730 143.7789840  46.2553990 141.6150300 144.4736180
  37.9181670 136.6795870 143.0341270  37.8132310 136.0648220 143.7602650
  37.7505890 136.1561760 142.2504280  41.1584400 135.7415900 143.6383260
  40.6094500 136.1885200 144.2826000  41.7803660 135.2365150 144.1620930
  36.8259520 134.7006820 145.5348560  37.2475940 134.5346690 146.3779950
  36.9510360 133.8907050 145.0403700  39.3387160 133.7244430 142.7825660
  39.8592820 133.0093450 142.4166810  39.9855560 134.3630300 143.0826170
  35.7218420 130.7740050 142.4806720  35.5207480 129.9107410 142.8420060
  35.5510470 130.6873410 141.5428320  43.2006730 125.5848280 145.0093600
  43.4809020 124.7416180 145.3653020  42.4272460 125.8171390 145.5232350
  34.5201220 127.8740670 142.4684600  34.8227120 127.8808100 141.5603750
  35.2595810 127.5238530 142.9652260  37.7386150 126.8175290 143.4540800
  37.3908150 126.1399280 142.8743250  37.9398920 126.3564800 144.2684190
  39.9035190 141.8056040 145.0727400  40.7985980 142.1441010 145.0946160
  39.9352820 141.0835450 144.4451680  33.5431350 137.1783090 143.3014400
  33.9806220 137.7212760 143.9571980  34.0279080 136.3530040 143.3110740
  30.7577150 139.9672120 150.7534660  31.0880160 139.0993180 150.5213300
  31.1868150 140.1730640 151.5839620  35.3539070 138.2981130 148.4136630
  35.0534610 138.1746100 149.3140540  35.2476560 137.4389720 148.0052360
  48.1230990 138.0777530 143.1163310  47.2923950 138.1454180 143.5870540
  48.3002820 138.9681650 142.8130170  47.5787450 134.8225010 145.6197510
  48.3406360 135.3921660 145.7257200  47.5941820 134.2552210 146.3905820
  31.0791790 133.3462940 149.8505170  30.4240630 133.0774580 149.2064870
  31.9169740 133.2367420 149.4007150  48.5847420 135.6775110 150.4639440
  48.9556250 134.8942430 150.0575410  49.2249350 136.3664210 150.2856740
  47.6306620 135.1159380 142.7770030  47.9055460 136.0238260 142.6489250
  47.4417360 135.0521910 143.7132020  44.0282230 128.1404230 144.0723660
  44.4467110 127.9535210 143.2320320  43.7218290 127.2883280 144.3826590
  47.5271960 133.0528370 147.7699460  47.1515560 132.2856300 147.3380750
  46.7975080 133.4351070 148.2574390  30.2929870 130.5561870 145.7930500
  29.3893950 130.8192070 145.6182160  30.7770490 130.8273040 145.0130460
  32.8357080 129.6127410 143.7024880  33.5448780 129.1910630 143.2172160
  32.1197020 129.6802640 143.0708230  32.4831240 125.6666740 142.7427530
  33.2059370 126.2075680 143.0608750  32.7555760 125.3930160 141.8669070
  46.2922890 130.5359210 147.0099110  46.7882010 130.3030080 147.7947990
  46.0938960 129.6971050 146.5936750  47.7210050 129.1720160 149.5436790
  47.6109330 129.0176200 150.4819060  48.4817640 128.6441100 149.3012200
  48.6100320 127.0028080 142.7842930  49.5349630 126.8709260 142.5761220
  48.5876110 127.0820900 143.7379380  48.6838810 127.7738740 145.4099640
  47.8890310 127.7083860 145.9392550  48.8882090 128.7089380 145.3984990
  45.6257230 141.8130290 149.4038030  46.2216300 141.4914860 148.7272450
  45.8835380 141.3402110 150.1951300  46.9797310 125.7350860 149.8707290
  46.9185710 124.7912080 149.7238310  47.7589340 125.8430950 150.4160750
  31.2850060 141.8743220 148.8331240  31.1172100 141.2413900 149.5313130
  30.4184570 142.0802620 148.4825430  31.9078080 125.7060000 146.3363100
  32.6657440 125.8188880 145.7627130  31.4455250 126.5429200 146.2906530
  38.4491890 127.8199270 149.3265410  37.6366400 127.4456160 148.9861290
  38.9533530 127.0644350 149.6286600  42.9516870 124.4841720 150.5648480
  43.5546240 125.0561930 151.0397000  42.2109860 125.0481160 150.3422380
  46.0951470 124.8863280 145.8388760  46.2902100 125.7846730 146.1056190
  45.3081340 124.6550360 146.3321710  32.8912760 140.5676450 146.2781380
  32.3660380 140.9484480 145.5743340  32.8157340 141.1927220 146.9991090
  34.2803230 126.2324050 144.8765070  34.8095990 125.4453850 144.7473020
  34.9131550 126.9115240 145.1100600  36.4741070 125.9699190 147.9310460
  35.8443810 125.2686500 148.0980590  35.9346210 126.7303320 147.7143620
  47.6478080 142.1263990 147.5995320  47.8230270 141.4401730 146.9556240
  46.9499650 142.6511040 147.2071990  35.4905730 142.5158830 145.1530630
  36.2224550 142.2318110 144.6054520  35.7499400 142.2772110 146.0430010
  34.6520520 138.6323560 145.1576960  34.0229400 139.1008660 145.7062790
  34.7668350 137.7872780 145.5923150  42.1070240 132.6829220 131.3078160
  42.0264290 131.7683830 131.0369870  41.6934660 133.1796290 130.6017870
  40.2388280 134.4608240 133.1887430  39.4630380 133.9808680 133.4786000
  40.8901210 133.7813890 133.0143590  34.2554110 134.7728050 134.0663190
  33.4238990 134.5176760 134.4659700  34.8635090 134.8438820 134.8021110
  44.2595710 138.8668430 131.9686560  43.7977240 138.0955670 132.2973730
  45.0721260 138.8934500 132.4739010  34.2355370 138.8068140 134.2621210
  34.5383410 137.9165880 134.0831430  34.9798960 139.3638360 134.0343460
  32.6646060 129.7329940 127.8505580  31.7762760 130.0745910 127.7485460
  32.9487250 129.5330260 126.9586410  30.6279070 132.3335590 133.7345280
  31.1995180 131.5657790 133.7348920  30.6280610 132.6324350 132.8251890
  40.4859020 141.1526440 131.5890550  39.8670460 141.6083940 131.0184990
  41.3410800 141.3077900 131.1880250  39.6797270 137.1365430 133.1957590
  39.6105550 136.1955370 133.0346720  40.4417130 137.2266840 133.7680160
  31.8703940 127.7419950 135.5214210  31.6906780 126.8445700 135.8016970
  31.4684020 128.2891820 136.1961160  40.7102440 129.9435810 133.4226520
  41.0867260 129.0707690 133.3100190  40.6121950 130.2794510 132.5316960
  34.8407450 128.3161440 128.8843960  34.9474200 129.2165170 129.1912720
  33.9299810 128.2679410 128.5938610  44.4926560 127.4386250 130.3554860
  45.3136180 126.9482820 130.3980340  44.5260640 128.0283910 131.1086700
  32.4890610 130.2380450 134.1296550  33.1700720 130.5018820 134.7483950
  32.1738660 129.3981320 134.4634560  36.6815180 131.2847810 133.2169140
  37.1893400 131.7828780 133.8574160  37.2128420 130.5083010 133.0408500
  48.7826110 129.4553000 136.9198490  48.0778280 129.8434710 136.4013600
  49.0484030 130.1503290 137.5219420  34.9651280 125.9246370 137.4832560
  34.9669720 126.4418760 136.6778460  34.1355590 125.4476550 137.4602490
  41.3522370 136.0365680 128.9822460  40.7339640 136.5015130 128.4185180
  41.8645620 136.7293160 129.3991970  36.2154130 135.5641550 135.6606060
  35.8823510 136.1910470 136.3027130  36.3920810 136.0903430 134.8807730
  44.7288040 129.3786630 133.1282400  44.0243610 129.6671520 133.7085510
  45.0900200 130.1886740 132.7681960  34.6466610 127.6356330 135.4903010
  34.9883420 128.4798380 135.1956880  33.7082420 127.7840070 135.6068350
  35.4273230 137.5322350 137.4755240  36.0447230 138.2073430 137.1939690
  34.5666350 137.9410330 137.3842740  30.7205570 136.7222210 126.3562090
  30.3433550 137.2109310 125.6246990  30.9778640 137.3947490 126.9868620
  46.3450820 138.9961760 135.3909880  45.6614340 139.6660870 135.3826550
  46.8845110 139.1942410 134.6254740  47.7974960 128.8241420 133.5191610
  46.8499870 128.8580400 133.6507040  48.1224950 129.6380370 133.9040970
  38.3294500 125.1238600 131.8147600  38.6369480 124.5685490 131.0983100
  37.3995200 125.2583060 131.6320590  43.8809560 140.8405890 134.1055060
  43.8936720 140.4368180 133.2377320  43.3284780 141.6153180 134.0016490
  45.1754980 137.5622110 129.1945230  45.0651310 136.6196440 129.3194650
  45.1723230 137.9237750 130.0807990  43.2795000 135.7435730 135.4337670
  43.6963790 135.5295840 134.5991130  44.0034820 136.0008520 136.0046290
  40.7175260 133.1887430 128.5507720  39.7904540 133.1224810 128.7796190
  40.8700080 134.1267560 128.4362960  40.7044340 129.4604430 125.5474880
  39.7648010 129.6218390 125.6327340  41.0227600 130.1790110 125.0010870
  47.2257100 134.1422950 135.5253910  46.3975730 134.2116040 135.0504040
  47.8207580 134.7277260 135.0569740  44.7472550 134.7507730 129.0542970
  44.1284970 134.4127280 128.4069270  44.7297000 134.1067490 129.7622160
  44.1899110 130.9292270 136.4708780  43.7770290 131.7545980 136.7248770
  43.4575060 130.3437310 136.2785140  36.3231900 133.7152170 131.3327450
  35.9188900 133.0029420 130.8373350  36.4095020 133.3705410 132.2215490
  36.7913600 137.4019730 133.4966660  36.4941890 136.7965200 132.8174440
  37.7413420 137.4397040 133.3856020  35.0360520 130.4895380 135.1126490
  35.5875110 130.5990720 134.3379740  35.5504030 130.8632980 135.8281720
  44.8799210 140.9751600 137.1589760  44.4029770 141.7823790 136.9662370
  44.1961000 140.3229930 137.3115970  35.8832030 137.1401420 140.1474460
  34.9860560 137.3641390 140.3947860  35.9084900 137.2636360 139.1985860
  42.9237250 133.9894540 126.0615720  43.3630530 133.1516970 125.9153540
  43.6365670 134.6223940 126.1479860  34.7103250 134.0114740 138.7231830
  34.5711020 134.8837540 139.0919230  33.8284610 133.6687550 138.5779770
  41.0332630 138.9290610 130.0296960  41.4728540 139.6714940 129.6152350
  40.9719520 139.1717180 130.9535920  36.5083600 139.9536440 140.9316980
  36.4799030 140.3579390 140.0645410  36.3448570 139.0246800 140.7688580
  46.5054390 125.2437350 124.3756760  46.1927050 125.3364180 125.2755830
  47.2666860 125.8218380 124.3254190  33.0236530 132.6097150 128.8334100
  32.9034130 133.3359240 128.2215370  32.7137420 131.8400060 128.3562010
  48.4598420 140.7363540 142.2281150  48.9358140 141.2146430 142.9070230
  49.0805580 140.6681030 141.5026650  30.6621900 135.7812290 134.6402740
  30.7402320 135.9161060 133.6958460  31.2763580 135.0728180 134.8330860
  31.9069530 137.4812480 131.0508920  31.4997610 137.6227070 130.1962520
  32.7982540 137.1972640 130.8480130  47.8631670 137.9276390 139.3881160
  47.9894730 137.6888270 138.4698340  47.9053050 137.0960930 139.8603240
  41.7248410 141.6304390 137.9575970  42.2393080 141.5412400 138.7598400
  40.8817490 141.9764090 138.2503880  43.7002810 141.9159730 127.3859970
  43.5403950 141.6262670 128.2841800  43.5349520 141.1399860 126.8505200
  36.1791190 141.6958260 129.1631590  36.0033670 140.7793800 128.9499390
  35.3246930 142.0545550 129.4029390  43.4028940 139.4247290 125.9457970
  42.7094100 139.4224580 125.2860250  44.1451800 139.0006610 125.5152140
  42.9678870 141.0510000 130.0206460  43.4235820 140.2699380 130.3345080
  43.3071390 141.7616820 130.5647640  47.7155680 129.9808850 140.3530900
  47.0999950 130.4888520 139.8246360  47.3952100 129.0807180 140.2956840
  30.7181420 136.8226460 137.1797200  30.8812460 136.3531820 136.3616570
  31.1833870 136.3150020 137.8446040  35.4900190 125.9532220 132.2157770
  35.0468340 126.7341760 131.8842290  36.0485180 126.2762110 132.9228710
  39.7770000 128.8200740 137.8193090  39.3149370 129.0283760 138.6313030
  39.3748110 128.0060090 137.5163760  44.7774510 130.0409690 138.9489750
  43.9268100 129.7415440 139.2698820  44.6176300 130.2851700 138.0373570
  41.8724220 131.5411440 141.0488540  42.1977630 130.7075190 140.7090770
  42.6604550 132.0639960 141.1966870  38.6059010 125.5742920 127.0963600
  37.9813190 125.5702790 127.8216910  38.5189130 124.7073880 126.6999570
  37.5276090 126.4979550 134.0747370  37.8248420 127.4042380 133.9939390
  38.0761650 126.0098330 133.4606940  35.2814410 131.0765790 129.9439020
  35.0555330 130.8602960 130.8485640  34.5006940 131.5094250 129.5984990
  42.5112170 131.0829160 128.5429670  41.9121060 131.8064960 128.3593290
  43.0591780 131.0205940 127.7606120  37.7213620 131.9751370 140.6099290
  37.6257220 131.0346100 140.4599690  38.5645600 132.1966440 140.2147360
  41.1177040 129.7192700 130.5732950  41.5106610 130.0364900 129.7601640
  41.4793890 128.8404580 130.6877470  32.8524160 128.3865040 138.7633070
  32.4587550 129.2340250 138.9705850  32.1642560 127.7491410 138.9541710
  39.4269210 128.4700010 141.8329810  38.7367530 128.2772210 142.4675900
  40.1701510 128.7534650 142.3654110  30.1541210 126.3093500 132.7963150
  29.8654260 126.8796360 133.5088130  30.8986970 125.8297950 133.1594380
  30.3411440 130.2513620 124.0065870  30.2586110 131.1944380 124.1480860
  29.9894500 130.1088530 123.1278220  41.7032180 132.3098450 134.6683730
  40.9713300 132.8185260 135.0173830  41.3056520 131.4928430 134.3672510
  38.1409570 128.9852650 133.0736220  38.1445630 128.5442600 132.2240760
  39.0360690 129.3069980 133.1808040  33.9911950 128.8679140 132.0330430
  33.6512000 129.3454370 132.7897480  33.2289270 128.4144260 131.6731530
  38.2029720 129.9864730 126.0642980  38.3242540 129.9451210 127.0128800
  37.8178230 130.8488880 125.9089710  42.1658090 127.7632130 134.0806670
  42.1830830 128.2140780 134.9248520  41.9173670 126.8637770 134.2940110
  37.2151220 132.2965870 125.4626280  36.6468120 131.8484120 124.8362190
  37.9240220 132.6558650 124.9291430  45.5928840 125.1764310 139.9193050
  45.9174610 124.4453970 140.4451030  45.6285350 124.8577950 139.0174040
  32.2920400 136.1977890 139.3393010  31.9075190 135.5571560 139.9375970
  32.6032590 136.9014010 139.9087740  38.4417540 133.0454430 134.8201630
  38.8087670 132.5713000 135.5662970  38.2522600 133.9196000 135.1609970
  31.3058030 127.7898120 130.9495100  31.0204950 127.4253790 131.7873720
  31.2436890 127.0578580 130.3358240  36.2316910 132.0863070 137.1385840
  35.9273980 132.9655050 137.3636200  37.1863370 132.1462860 137.1743280
  34.7598700 136.2924060 127.7352690  33.9860960 135.7521680 127.5751410
  35.4893330 135.7730670 127.3970450  45.5186680 135.2889420 133.5279080
  46.2385800 135.7844710 133.1375190  45.3168500 134.6107310 132.8832950
  40.9796620 126.6827380 127.6708470  40.1661230 126.1840550 127.5953780
  40.7858570 127.5225630 127.2544820  40.9005480 135.3598480 139.4148080
  40.8342790 134.4394150 139.1605670  40.2710620 135.4573920 140.1292720
  43.6945010 131.0547030 125.9670630  44.5824630 131.3664260 125.7921970
  43.6650100 130.1819280 125.5751210  34.8036100 135.9604440 131.3731500
  35.3214770 135.1572700 131.3188390  34.3520120 135.8983580 132.2148330
  39.6905600 137.2270720 126.6458800  40.0321300 137.9712950 126.1502120
  38.8618310 137.5401840 127.0083630  32.2880640 132.9265810 138.2857200
  31.9295580 133.5919660 138.8730540  31.9935200 132.0949360 138.6569820
  35.4893760 133.3850050 141.1696750  35.1893900 133.5307230 140.2724570
  36.2605000 132.8255340 141.0770140  40.8322210 138.1819050 139.1651880
  40.8466750 137.2500010 138.9470790  40.1247310 138.2678810 139.8041650
  45.9659280 132.3658870 125.4350490  45.8823000 132.7973090 124.5846930
  46.6853470 132.8257220 125.8677310  47.0433420 134.8226390 138.5120460
  46.3181610 135.4155170 138.3149850  47.5708880 134.8149930 137.7133830
  46.9946530 139.2201130 128.1632620  46.3522690 138.5656750 128.4376340
  46.6077190 139.6256220 127.3873290  42.5733010 136.5486560 132.0104310
  42.9256830 135.9514690 131.3505680  41.6895340 136.2230790 132.1812560
  38.6596290 137.3084250 129.4174720  39.3467420 137.8553460 129.7982310
  37.8728710 137.8524980 129.4524330  30.7988690 132.9257070 124.9091800
  31.6683540 133.2081870 125.1927720  30.3079010 133.7392940 124.7940610
  37.9623500 134.3130280 129.0300080  38.4186280 135.1235530 129.2560270
  37.6111710 133.9953420 129.8618570  40.2656110 139.8236620 136.2592380
  40.9098330 140.0296000 136.9365800  40.6285550 139.0625020 135.8063230
  33.8635280 124.6567930 129.5022600  33.7349910 124.6485830 130.4507520
  33.0397300 124.9951020 129.1513610  41.5388190 137.8268970 134.9769830
  42.1810420 137.1262130 135.0902000  42.0637540 138.6067410 134.7966720
  45.3843910 138.1117590 124.7008970  45.1581490 137.3948030 125.2933610
  44.9940110 137.8630030 123.8630720  43.3125810 138.6263870 138.1805890
  43.6482050 139.2130560 138.8583810  42.3926150 138.4956580 138.4103680
  31.1659940 142.1384450 125.4753430  31.5257580 142.7373790 124.8210700
  31.0252280 142.6844340 126.2488460  30.8629210 126.4159050 138.9629300
  30.1487730 126.6155970 139.5681910  31.2824250 125.6398620 139.3344100
  44.9660160 136.0289530 126.3623130  44.6781860 136.4902220 127.1501010
  45.7612330 135.5687300 126.6307350  31.1501800 140.4039310 139.9495830
  31.2592920 139.4634050 139.8091220  30.4982360 140.6694060 139.3009560
  39.1414390 138.6755200 141.3493950  38.8211260 137.9564440 141.8939640
  38.4672750 139.3510270 141.4230010  37.1828560 139.5215650 126.2927100
  37.1738660 140.2545340 125.6771610  36.2626920 139.2747230 126.3854060
  32.7835200 134.7430540 127.0373860  32.1763150 135.4829440 127.0469160
  33.2584550 134.8329900 126.2112060  42.3567990 128.9081360 136.7130750
  42.7248810 128.0876570 137.0410320  41.4966190 128.9683250 137.1286400
  45.7230020 127.8638300 127.5218310  45.0943180 127.9683970 126.8076540
  45.2281940 128.0835080 128.3112190  40.1688160 139.5843890 124.9552290
  40.2700140 139.3807880 124.0254270  39.2689900 139.3302170 125.1600070
  37.6914050 130.1424250 128.9376190  36.9830200 130.6110590 129.3789800
  37.9758530 129.4846260 129.5721380  39.3169980 131.5620950 136.9368720
  39.8155230 132.0366770 137.6020570  39.4592930 130.6384470 137.1438750
  41.7229480 126.8674910 130.3771980  41.5997260 126.8861040 129.4281490
  42.6714040 126.9153850 130.4970380  38.8106270 142.1030210 129.6499960
  39.0647770 142.0651600 128.7279330  37.8618750 141.9763540 129.6428210
  35.8949070 128.4509330 126.3126900  36.7439600 128.8879480 126.2467090
  35.5280340 128.7629590 127.1398960  46.5236840 127.7788910 137.7797110
  46.0210440 128.5194310 138.1190920  47.3393500 128.1672910 137.4633900
  44.8158850 133.0222090 131.2258470  43.8748990 133.0372320 131.4006160
  45.1302920 132.2358050 131.6718770  34.7940490 134.7041690 124.7862430
  35.5603760 134.5923050 125.3487860  34.8715180 134.0079660 124.1339200
  33.4887250 132.1366760 125.4695320  33.5690840 131.1894270 125.5812720
  34.3807000 132.4673640 125.5755980  46.8184430 140.1930940 132.9012730
  46.9431850 141.0162110 133.3736540  47.6849990 139.9821670 132.5536880
  34.2901960 142.2862150 132.5729860  35.0264440 141.7377610 132.8438430
  34.6742880 143.1518160 132.4335850  31.1747440 138.3535720 128.4471370
  30.2487220 138.5956860 128.4376780  31.6403870 139.1809980 128.3256120
  33.2960240 141.4708220 141.7615440  34.0972970 141.7920270 142.1750840
  32.7812060 141.1103800 142.4835350  37.4004270 141.4592460 124.3955430
  38.1932880 141.7481290 123.9437220  36.8808620 141.0284630 123.7167910
  42.1324870 137.5788090 141.7090850  41.5263030 137.6019690 140.9686600
  41.8278980 136.8471130 142.2458100  43.5625240 141.3068380 140.3200260
  44.5146990 141.2226400 140.2700500  43.4153460 141.9710090 140.9934050
  46.4534440 140.6862590 125.8192170  46.1675950 140.2727730 125.0046350
  46.2553990 141.6150300 125.6992690  31.0158050 133.9581680 140.7051490
  31.5197070 133.3788960 141.2767720  30.2765470 134.2421910 141.2427860
  37.9181670 136.6795870 124.2597780  37.8132310 136.0648220 124.9859160
  37.7505890 136.1561760 123.4760790  38.0695990 135.3652670 140.2387010
  37.3041660 135.9337670 140.1541680  38.2511950 135.0728880 139.3455240
  41.1584400 135.7415900 124.8639770  40.6094500 136.1885200 125.5082510
  41.7803660 135.2365150 125.3877440  45.2119340 137.0958000 140.7962030
  45.9528810 137.4333760 140.2929490  44.4492020 137.2650060 140.2431800
  33.0481130 132.1011270 141.6001560  33.0886470 131.8025140 142.5086790
  33.9026630 132.5018880 141.4409080  36.8259520 134.7006820 126.7605070
  37.2475940 134.5346690 127.6036460  36.9510360 133.8907050 126.2660210
  34.9886940 130.6803370 139.5676050  34.4583400 130.1894320 138.9399390
  35.6575010 131.1087570 139.0333980  39.3387160 133.7244430 124.0082170
  39.8592820 133.0093450 123.6423320  39.9855560 134.3630300 124.3082680
  43.8865000 135.1472830 139.3317240  44.3006020 135.3017910 140.1807660
  42.9516000 135.2728050 139.4943020  44.3587170 132.4868990 141.3356390
  44.9407940 131.7321310 141.2476870  44.5348940 133.0176430 140.5587870
  35.4759240 127.6465740 139.6473340  35.3816110 127.0286490 138.9224210
  34.8956630 128.3732030 139.4203250  38.2420680 126.2038980 136.6800730
  37.7937980 126.2263240 135.8346280  37.6085880 125.8058000 137.2771030
  38.6480230 135.0993310 137.3013170  39.0668340 135.9426040 137.1289410
  37.7288860 135.2365350 137.0719950  40.9844130 132.8309490 138.6851010
  41.1040340 132.2350630 139.4245850  41.8438130 132.8679180 138.2652310
  43.3232030 133.3846680 137.2613520  42.7967250 133.9089300 136.6578660
  43.6663370 134.0174070 137.8923250  35.7218420 130.7740050 123.7063230
  35.5207480 129.9107410 124.0676570  35.5510470 130.6873410 122.7684830
  36.4987650 141.4046320 138.4170900  35.9608740 142.1292380 138.0979600
  36.7521610 140.9276660 137.6268240  37.7512900 129.3730840 139.9426830
  38.3412590 129.0646690 140.6304650  36.9333140 128.9010590 140.0986730
  42.5706330 128.9896650 140.1759850  41.8821850 128.3278190 140.1109840
  43.2912350 128.5434920 140.6208310  43.2006730 125.5848280 126.2350110
  43.4809020 124.7416180 126.5909530  42.4272460 125.8171390 126.7488860
  34.5201220 127.8740670 123.6941110  34.8227120 127.8808100 122.7860260
  35.2595810 127.5238530 124.1908770  39.3549860 142.6397530 138.6757550
  39.2808560 143.5432670 138.9829920  38.4528700 142.3209430 138.6479620
  37.7386150 126.8175290 124.6797310  37.3908150 126.1399280 124.0999760
  37.9398920 126.3564800 125.4940700  39.9035190 141.8056040 126.2983910
  40.7985980 142.1441010 126.3202670  39.9352820 141.0835450 125.6708190
  33.5431350 137.1783090 124.5270910  33.9806220 137.7212760 125.1828490
  34.0279080 136.3530040 124.5367250  30.7577150 139.9672120 131.9791170
  31.0880160 139.0993180 131.7469810  31.1868150 140.1730640 132.8096130
  35.3539070 138.2981130 129.6393140  35.0534610 138.1746100 130.5397050
  35.2476560 137.4389720 129.2308870  31.2467360 140.8342710 134.7172800
  30.8098350 141.0143510 135.5496950  31.8145040 141.5917330 134.5754520
  46.8829540 140.3359710 139.0050110  46.2831530 140.3952270 138.2614030
  47.0123440 139.3964690 139.1346960  48.1230990 138.0777530 124.3419820
  47.2923950 138.1454180 124.8127050  48.3002820 138.9681650 124.0386680
  47.5787450 134.8225010 126.8454020  48.3406360 135.3921660 126.9513710
  47.5941820 134.2552210 127.6162330  31.0791790 133.3462940 131.0761680
  30.4240630 133.0774580 130.4321380  31.9169740 133.2367420 130.6263660
  48.5847420 135.6775110 131.6895950  48.9556250 134.8942430 131.2831920
  49.2249350 136.3664210 131.5113250  45.5681180 137.0611690 137.1026270
  44.7541020 137.4908850 137.3652060  45.9755380 137.6730100 136.4895320
  47.6306620 135.1159380 124.0026540  47.9055460 136.0238260 123.8745760
  47.4417360 135.0521910 124.9388530  44.0282230 128.1404230 125.2980170
  44.4467110 127.9535210 124.4576830  43.7218290 127.2883280 125.6083100
  47.5271960 133.0528370 128.9955970  47.1515560 132.2856300 128.5637260
  46.7975080 133.4351070 129.4830900  32.1167720 133.7315510 135.6165020
  32.4840760 133.6442910 136.4961040  31.5478540 132.9682060 135.5171880
  46.9171580 132.1999890 138.6295490  46.6857670 131.9712640 137.7293440
  47.1776130 133.1199440 138.5840380  31.6683720 130.6424600 139.5223440
  30.7739770 130.6091360 139.8617150  32.2081270 130.8411390 140.2874690
  45.3559650 127.4256320 141.4075190  46.2329830 127.4339720 141.7909190
  45.3680490 126.6887160 140.7967540  30.2929870 130.5561870 127.0187010
  29.3893950 130.8192070 126.8438670  30.7770490 130.8273040 126.2386970
  46.8022920 131.2785860 132.2963210  47.3260400 130.7848510 131.6653380
  47.3882340 131.4136220 133.0410780  46.9812640 131.3625730 135.8182760
  46.0315350 131.3289270 135.9327750  47.1625650 132.2725840 135.5832530
  32.8357080 129.6127410 124.9281390  33.5448780 129.1910630 124.4428670
  32.1197020 129.6802640 124.2964740  32.4831240 125.6666740 123.9684040
  33.2059370 126.2075680 124.2865260  32.7555760 125.3930160 123.0925580
  46.2922890 130.5359210 128.2355620  46.7882010 130.3030080 129.0204500
  46.0938960 129.6971050 127.8193260  32.1723430 124.9172930 133.8706660
  32.8199620 124.3670310 133.4301820  32.5925270 125.1716080 134.6922470
  47.7210050 129.1720160 130.7693300  47.6109330 129.0176200 131.7075570
  48.4817640 128.6441100 130.5268710  46.0675770 125.1114290 137.2276300
  46.7047990 125.7248430 137.5935490  46.2150660 125.1474950 136.2825530
  48.6100320 127.0028080 124.0099440  49.5349630 126.8709260 123.8017730
  48.5876110 127.0820900 124.9635890  48.6838810 127.7738740 126.6356150
  47.8890310 127.7083860 127.1649060  48.8882090 128.7089380 126.6241500
  45.6257230 141.8130290 130.6294540  46.2216300 141.4914860 129.9528960
  45.8835380 141.3402110 131.4207810  31.9255430 125.0728600 136.6131980
  31.5770250 125.5292420 137.3790160  31.5943130 124.1785730 136.6954410
  33.5319800 138.2448200 140.7785170  33.4889430 137.8741110 141.6599630
  33.6630810 139.1825770 140.9186990  37.2325830 139.8007790 136.3794890
  36.9917190 140.0682350 135.4925410  38.1728470 139.9713520 136.4345750
  39.4380250 126.2640480 140.1351400  39.3769140 126.8562310 140.8846810
  40.3780630 126.1566440 139.9901660  42.0754810 125.9210540 139.7743690
  42.6895220 126.2389830 139.1124770  42.6204370 125.4359130 140.3939550
  48.4929990 141.8202170 137.1805530  47.9988270 142.2171040 136.4632660
  47.8843280 141.1951380 137.5742810  32.5976070 124.6004800 139.8882750
  33.1459060 124.4192850 139.1248860  32.6631380 123.8098910 140.4239060
  33.3707830 141.1910450 137.8982950  32.7768150 141.0595150 138.6372990
  33.3631670 140.3548590 137.4325050  42.8162850 124.4842680 136.1012980
  41.9422690 124.8177790 135.8985910  42.7073600 124.0115860 136.9264850
  43.7234830 126.6913550 137.4854700  43.3948190 125.8765310 137.1056430
  44.6717130 126.6483360 137.3620390  46.1769440 142.4625590 134.4592270
  45.7172410 143.2141400 134.0850290  45.5481900 141.7432060 134.4007070
  33.0020060 138.5568830 136.8490990  32.2754120 137.9374120 136.7816940
  33.0629210 138.9509440 135.9789070  36.6065160 140.7713830 133.6340400
  37.1230180 140.1601190 133.1088660  37.2562540 141.2742610 134.1251410
  39.3460660 141.6622320 134.4609380  39.6338470 141.4076620 133.5842390
  39.8583880 141.1099680 135.0514950  40.5637670 125.4012520 135.0405890
  39.7809460 125.8758020 135.3202650  40.2700600 124.4967350 134.9319070
  45.1158740 126.1035620 133.0854980  45.5566830 126.0480720 132.2376580
  44.8466330 127.0193630 133.1565160  46.9797310 125.7350860 131.0963800
  46.9185710 124.7912080 130.9494820  47.7589340 125.8430950 131.6417260
  31.2850060 141.8743220 130.0587750  31.1172100 141.2413900 130.7569640
  30.4184570 142.0802620 129.7081940  31.9078080 125.7060000 127.5619610
  32.6657440 125.8188880 126.9883640  31.4455250 126.5429200 127.5163040
  38.4491890 127.8199270 130.5521920  37.6366400 127.4456160 130.2117800
  38.9533530 127.0644350 130.8543110  42.9516870 124.4841720 131.7904990
  43.5546240 125.0561930 132.2653510  42.2109860 125.0481160 131.5678890
  46.0951470 124.8863280 127.0645270  46.2902100 125.7846730 127.3312700
  45.3081340 124.6550360 127.5578220  32.8912760 140.5676450 127.5037890
  32.3660380 140.9484480 126.7999850  32.8157340 141.1927220 128.2247600
  34.2803230 126.2324050 126.1021580  34.8095990 125.4453850 125.9729530
  34.9131550 126.9115240 126.3357110  36.4741070 125.9699190 129.1566970
  35.8443810 125.2686500 129.3237100  35.9346210 126.7303320 128.9400130
  39.4133020 142.5838420 141.8277580  40.3400330 142.3482690 141.8713540
  39.3983450 143.4110420 141.3463610  47.6478080 142.1263990 128.8251830
  47.8230270 141.4401730 128.1812750  46.9499650 142.6511040 128.4328500
  36.5996630 125.2483170 141.5919460  36.3180900 125.7516770 140.8280280
  36.9816330 124.4504920 141.2261590  35.4905730 142.5158830 126.3787140
  36.2224550 142.2318110 125.8311030  35.7499400 142.2772110 127.2686520
  34.6520520 138.6323560 126.3833470  34.0229400 139.1008660 126.9319300
  34.7668350 137.7872780 126.8179660  43.2012090 124.6636750 142.1699930
  43.0877540 124.9831360 143.0651450  44.0181830 125.0649260 141.8737210
  45.9810580 141.8108280 141.6518620  46.7735900 141.3157510 141.4444580
  46.2743730 142.4898420 142.2594230  42.1070240 132.6829220 112.5334670
  42.0264290 131.7683830 112.2626380  41.6934660 133.1796290 111.8274380
  40.2388280 134.4608240 114.4143940  39.4630380 133.9808680 114.7042510
  40.8901210 133.7813890 114.2400100  34.2554110 134.7728050 115.2919700
  33.4238990 134.5176760 115.6916210  34.8635090 134.8438820 116.0277620
  44.2595710 138.8668430 113.1943070  43.7977240 138.0955670 113.5230240
  45.0721260 138.8934500 113.6995520  34.2355370 138.8068140 115.4877720
  34.5383410 137.9165880 115.3087940  34.9798960 139.3638360 115.2599970
  32.6646060 129.7329940 109.0762090  31.7762760 130.0745910 108.9741970
  32.9487250 129.5330260 108.1842920  30.6279070 132.3335590 114.9601790
  31.1995180 131.5657790 114.9605430  30.6280610 132.6324350 114.0508400
  40.4859020 141.1526440 112.8147060  39.8670460 141.6083940 112.2441500
  41.3410800 141.3077900 112.4136760  39.6797270 137.1365430 114.4214100
  39.6105550 136.1955370 114.2603230  40.4417130 137.2266840 114.9936670
  31.8703940 127.7419950 116.7470720  31.6906780 126.8445700 117.0273480
  31.4684020 128.2891820 117.4217670  40.7102440 129.9435810 114.6483030
  41.0867260 129.0707690 114.5356700  40.6121950 130.2794510 113.7573470
  34.8407450 128.3161440 110.1100470  34.9474200 129.2165170 110.4169230
  33.9299810 128.2679410 109.8195120  44.4926560 127.4386250 111.5811370
  45.3136180 126.9482820 111.6236850  44.5260640 128.0283910 112.3343210
  32.4890610 130.2380450 115.3553060  33.1700720 130.5018820 115.9740460
  32.1738660 129.3981320 115.6891070  36.6815180 131.2847810 114.4425650
  37.1893400 131.7828780 115.0830670  37.2128420 130.5083010 114.2665010
  48.7826110 129.4553000 118.1455000  48.0778280 129.8434710 117.6270110
  49.0484030 130.1503290 118.7475930  34.9651280 125.9246370 118.7089070
  34.9669720 126.4418760 117.9034970  34.1355590 125.4476550 118.6859000
  41.3522370 136.0365680 110.2078970  40.7339640 136.5015130 109.6441690
  41.8645620 136.7293160 110.6248480  36.2154130 135.5641550 116.8862570
  35.8823510 136.1910470 117.5283640  36.3920810 136.0903430 116.1064240
  44.7288040 129.3786630 114.3538910  44.0243610 129.6671520 114.9342020
  45.0900200 130.1886740 113.9938470  34.6466610 127.6356330 116.7159520
  34.9883420 128.4798380 116.4213390  33.7082420 127.7840070 116.8324860
  35.4273230 137.5322350 118.7011750  36.0447230 138.2073430 118.4196200
  34.5666350 137.9410330 118.6099250  30.7205570 136.7222210 107.5818600
  30.3433550 137.2109310 106.8503500  30.9778640 137.3947490 108.2125130
  46.3450820 138.9961760 116.6166390  45.6614340 139.6660870 116.6083060
  46.8845110 139.1942410 115.8511250  47.7974960 128.8241420 114.7448120
  46.8499870 128.8580400 114.8763550  48.1224950 129.6380370 115.1297480
  38.3294500 125.1238600 113.0404110  38.6369480 124.5685490 112.3239610
  37.3995200 125.2583060 112.8577100  43.8809560 140.8405890 115.3311570
  43.8936720 140.4368180 114.4633830  43.3284780 141.6153180 115.2273000
  45.1754980 137.5622110 110.4201740  45.0651310 136.6196440 110.5451160
  45.1723230 137.9237750 111.3064500  43.2795000 135.7435730 116.6594180
  43.6963790 135.5295840 115.8247640  44.0034820 136.0008520 117.2302800
  40.7175260 133.1887430 109.7764230  39.7904540 133.1224810 110.0052700
  40.8700080 134.1267560 109.6619470  40.7044340 129.4604430 106.7731390
  39.7648010 129.6218390 106.8583850  41.0227600 130.1790110 106.2267380
  47.2257100 134.1422950 116.7510420  46.3975730 134.2116040 116.2760550
  47.8207580 134.7277260 116.2826250  44.7472550 134.7507730 110.2799480
  44.1284970 134.4127280 109.6325780  44.7297000 134.1067490 110.9878670
  44.1899110 130.9292270 117.6965290  43.7770290 131.7545980 117.9505280
  43.4575060 130.3437310 117.5041650  36.3231900 133.7152170 112.5583960
  35.9188900 133.0029420 112.0629860  36.4095020 133.3705410 113.4472000
  36.7913600 137.4019730 114.7223170  36.4941890 136.7965200 114.0430950
  37.7413420 137.4397040 114.6112530  35.0360520 130.4895380 116.3383000
  35.5875110 130.5990720 115.5636250  35.5504030 130.8632980 117.0538230
  44.8799210 140.9751600 118.3846270  44.4029770 141.7823790 118.1918880
  44.1961000 140.3229930 118.5372480  35.8832030 137.1401420 121.3730970
  34.9860560 137.3641390 121.6204370  35.9084900 137.2636360 120.4242370
  42.9237250 133.9894540 107.2872230  43.3630530 133.1516970 107.1410050
  43.6365670 134.6223940 107.3736370  34.7103250 134.0114740 119.9488340
  34.5711020 134.8837540 120.3175740  33.8284610 133.6687550 119.8036280
  41.0332630 138.9290610 111.2553470  41.4728540 139.6714940 110.8408860
  40.9719520 139.1717180 112.1792430  36.5083600 139.9536440 122.1573490
  36.4799030 140.3579390 121.2901920  36.3448570 139.0246800 121.9945090
  46.5054390 125.2437350 105.6013270  46.1927050 125.3364180 106.5012340
  47.2666860 125.8218380 105.5510700  33.0236530 132.6097150 110.0590610
  32.9034130 133.3359240 109.4471880  32.7137420 131.8400060 109.5818520
  48.4598420 140.7363540 123.4537660  48.9358140 141.2146430 124.1326740
  49.0805580 140.6681030 122.7283160  30.6621900 135.7812290 115.8659250
  30.7402320 135.9161060 114.9214970  31.2763580 135.0728180 116.0587370
  31.9069530 137.4812480 112.2765430  31.4997610 137.6227070 111.4219030
  32.7982540 137.1972640 112.0736640  47.8631670 137.9276390 120.6137670
  47.9894730 137.6888270 119.6954850  47.9053050 137.0960930 121.0859750
  41.7248410 141.6304390 119.1832480  42.2393080 141.5412400 119.9854910
  40.8817490 141.9764090 119.4760390  43.7002810 141.9159730 108.6116480
  43.5403950 141.6262670 109.5098310  43.5349520 141.1399860 108.0761710
  36.1791190 141.6958260 110.3888100  36.0033670 140.7793800 110.1755900
  35.3246930 142.0545550 110.6285900  43.4028940 139.4247290 107.1714480
  42.7094100 139.4224580 106.5116760  44.1451800 139.0006610 106.7408650
  42.9678870 141.0510000 111.2462970  43.4235820 140.2699380 111.5601590
  43.3071390 141.7616820 111.7904150  47.7155680 129.9808850 121.5787410
  47.0999950 130.4888520 121.0502870  47.3952100 129.0807180 121.5213350
  30.7181420 136.8226460 118.4053710  30.8812460 136.3531820 117.5873080
  31.1833870 136.3150020 119.0702550  35.4900190 125.9532220 113.4414280
  35.0468340 126.7341760 113.1098800  36.0485180 126.2762110 114.1485220
  39.7770000 128.8200740 119.0449600  39.3149370 129.0283760 119.8569540
  39.3748110 128.0060090 118.7420270  44.7774510 130.0409690 120.1746260
  43.9268100 129.7415440 120.4955330  44.6176300 130.2851700 119.2630080
  41.8724220 131.5411440 122.2745050  42.1977630 130.7075190 121.9347280
  42.6604550 132.0639960 122.4223380  38.6059010 125.5742920 108.3220110
  37.9813190 125.5702790 109.0473420  38.5189130 124.7073880 107.9256080
  37.5276090 126.4979550 115.3003880  37.8248420 127.4042380 115.2195900
  38.0761650 126.0098330 114.6863450  35.2814410 131.0765790 111.1695530
  35.0555330 130.8602960 112.0742150  34.5006940 131.5094250 110.8241500
  42.5112170 131.0829160 109.7686180  41.9121060 131.8064960 109.5849800
  43.0591780 131.0205940 108.9862630  37.7213620 131.9751370 121.8355800
  37.6257220 131.0346100 121.6856200  38.5645600 132.1966440 121.4403870
  41.1177040 129.7192700 111.7989460  41.5106610 130.0364900 110.9858150
  41.4793890 128.8404580 111.9133980  32.8524160 128.3865040 119.9889580
  32.4587550 129.2340250 120.1962360  32.1642560 127.7491410 120.1798220
  39.4269210 128.4700010 123.0586320  38.7367530 128.2772210 123.6932410
  40.1701510 128.7534650 123.5910620  30.1541210 126.3093500 114.0219660
  29.8654260 126.8796360 114.7344640  30.8986970 125.8297950 114.3850890
  30.3411440 130.2513620 105.2322380  30.2586110 131.1944380 105.3737370
  29.9894500 130.1088530 104.3534730  41.7032180 132.3098450 115.8940240
  40.9713300 132.8185260 116.2430340  41.3056520 131.4928430 115.5929020
  38.1409570 128.9852650 114.2992730  38.1445630 128.5442600 113.4497270
  39.0360690 129.3069980 114.4064550  33.9911950 128.8679140 113.2586940
  33.6512000 129.3454370 114.0153990  33.2289270 128.4144260 112.8988040
  38.2029720 129.9864730 107.2899490  38.3242540 129.9451210 108.2385310
  37.8178230 130.8488880 107.1346220  42.1658090 127.7632130 115.3063180
  42.1830830 128.2140780 116.1505030  41.9173670 126.8637770 115.5196620
  37.2151220 132.2965870 106.6882790  36.6468120 131.8484120 106.0618700
  37.9240220 132.6558650 106.1547940  45.5928840 125.1764310 121.1449560
  45.9174610 124.4453970 121.6707540  45.6285350 124.8577950 120.2430550
  32.2920400 136.1977890 120.5649520  31.9075190 135.5571560 121.1632480
  32.6032590 136.9014010 121.1344250  38.4417540 133.0454430 116.0458140
  38.8087670 132.5713000 116.7919480  38.2522600 133.9196000 116.3866480
  31.3058030 127.7898120 112.1751610  31.0204950 127.4253790 113.0130230
  31.2436890 127.0578580 111.5614750  36.2316910 132.0863070 118.3642350
  35.9273980 132.9655050 118.5892710  37.1863370 132.1462860 118.3999790
  34.7598700 136.2924060 108.9609200  33.9860960 135.7521680 108.8007920
  35.4893330 135.7730670 108.6226960  45.5186680 135.2889420 114.7535590
  46.2385800 135.7844710 114.3631700  45.3168500 134.6107310 114.1089460
  40.9796620 126.6827380 108.8964980  40.1661230 126.1840550 108.8210290
  40.7858570 127.5225630 108.4801330  40.9005480 135.3598480 120.6404590
  40.8342790 134.4394150 120.3862180  40.2710620 135.4573920 121.3549230
  43.6945010 131.0547030 107.1927140  44.5824630 131.3664260 107.0178480
  43.6650100 130.1819280 106.8007720  34.8036100 135.9604440 112.5988010
  35.3214770 135.1572700 112.5444900  34.3520120 135.8983580 113.4404840
  39.6905600 137.2270720 107.8715310  40.0321300 137.9712950 107.3758630
  38.8618310 137.5401840 108.2340140  32.2880640 132.9265810 119.5113710
  31.9295580 133.5919660 120.0987050  31.9935200 132.0949360 119.8826330
  35.4893760 133.3850050 122.3953260  35.1893900 133.5307230 121.4981080
  36.2605000 132.8255340 122.3026650  40.8322210 138.1819050 120.3908390
  40.8466750 137.2500010 120.1727300  40.1247310 138.2678810 121.0298160
  45.9659280 132.3658870 106.6607000  45.8823000 132.7973090 105.8103440
  46.6853470 132.8257220 107.0933820  47.0433420 134.8226390 119.7376970
  46.3181610 135.4155170 119.5406360  47.5708880 134.8149930 118.9390340
  46.9946530 139.2201130 109.3889130  46.3522690 138.5656750 109.6632850
  46.6077190 139.6256220 108.6129800  42.5733010 136.5486560 113.2360820
  42.9256830 135.9514690 112.5762190  41.6895340 136.2230790 113.4069070
  38.6596290 137.3084250 110.6431230  39.3467420 137.8553460 111.0238820
  37.8728710 137.8524980 110.6780840  30.7988690 132.9257070 106.1348310
  31.6683540 133.2081870 106.4184230  30.3079010 133.7392940 106.0197120
  37.9623500 134.3130280 110.2556590  38.4186280 135.1235530 110.4816780
  37.6111710 133.9953420 111.0875080  40.2656110 139.8236620 117.4848890
  40.9098330 140.0296000 118.1622310  40.6285550 139.0625020 117.0319740
  33.8635280 124.6567930 110.7279110  33.7349910 124.6485830 111.6764030
  33.0397300 124.9951020 110.3770120  41.5388190 137.8268970 116.2026340
  42.1810420 137.1262130 116.3158510  42.0637540 138.6067410 116.0223230
  45.3843910 138.1117590 105.9265480  45.1581490 137.3948030 106.5190120
  44.9940110 137.8630030 105.0887230  43.3125810 138.6263870 119.4062400
  43.6482050 139.2130560 120.0840320  42.3926150 138.4956580 119.6360190
  31.1659940 142.1384450 106.7009940  31.5257580 142.7373790 106.0467210
  31.0252280 142.6844340 107.4744970  30.8629210 126.4159050 120.1885810
  30.1487730 126.6155970 120.7938420  31.2824250 125.6398620 120.5600610
  44.9660160 136.0289530 107.5879640  44.6781860 136.4902220 108.3757520
  45.7612330 135.5687300 107.8563860  31.1501800 140.4039310 121.1752340
  31.2592920 139.4634050 121.0347730  30.4982360 140.6694060 120.5266070
  39.1414390 138.6755200 122.5750460  38.8211260 137.9564440 123.1196150
  38.4672750 139.3510270 122.6486520  37.1828560 139.5215650 107.5183610
  37.1738660 140.2545340 106.9028120  36.2626920 139.2747230 107.6110570
  32.7835200 134.7430540 108.2630370  32.1763150 135.4829440 108.2725670
  33.2584550 134.8329900 107.4368570  42.3567990 128.9081360 117.9387260
  42.7248810 128.0876570 118.2666830  41.4966190 128.9683250 118.3542910
  45.7230020 127.8638300 108.7474820  45.0943180 127.9683970 108.0333050
  45.2281940 128.0835080 109.5368700  40.1688160 139.5843890 106.1808800
  40.2700140 139.3807880 105.2510780  39.2689900 139.3302170 106.3856580
  37.6914050 130.1424250 110.1632700  36.9830200 130.6110590 110.6046310
  37.9758530 129.4846260 110.7977890  39.3169980 131.5620950 118.1625230
  39.8155230 132.0366770 118.8277080  39.4592930 130.6384470 118.3695260
  41.7229480 126.8674910 111.6028490  41.5997260 126.8861040 110.6538000
  42.6714040 126.9153850 111.7226890  38.8106270 142.1030210 110.8756470
  39.0647770 142.0651600 109.9535840  37.8618750 141.9763540 110.8684720
  35.8949070 128.4509330 107.5383410  36.7439600 128.8879480 107.4723600
  35.5280340 128.7629590 108.3655470  46.5236840 127.7788910 119.0053620
  46.0210440 128.5194310 119.3447430  47.3393500 128.1672910 118.6890410
  44.8158850 133.0222090 112.4514980  43.8748990 133.0372320 112.6262670
  45.1302920 132.2358050 112.8975280  34.7940490 134.7041690 106.0118940
  35.5603760 134.5923050 106.5744370  34.8715180 134.0079660 105.3595710
  33.4887250 132.1366760 106.6951830  33.5690840 131.1894270 106.8069230
  34.3807000 132.4673640 106.8012490  46.8184430 140.1930940 114.1269240
  46.9431850 141.0162110 114.5993050  47.6849990 139.9821670 113.7793390
  34.2901960 142.2862150 113.7986370  35.0264440 141.7377610 114.0694940
  34.6742880 143.1518160 113.6592360  31.1747440 138.3535720 109.6727880
  30.2487220 138.5956860 109.6633290  31.6403870 139.1809980 109.5512630
  33.2960240 141.4708220 122.9871950  34.0972970 141.7920270 123.4007350
  32.7812060 141.1103800 123.7091860  37.4004270 141.4592460 105.6211940
  38.1932880 141.7481290 105.1693730  36.8808620 141.0284630 104.9424420
  42.1324870 137.5788090 122.9347360  41.5263030 137.6019690 122.1943110
  41.8278980 136.8471130 123.4714610  43.5625240 141.3068380 121.5456770
  44.5146990 141.2226400 121.4957010  43.4153460 141.9710090 122.2190560
  46.4534440 140.6862590 107.0448680  46.1675950 140.2727730 106.2302860
  46.2553990 141.6150300 106.9249200  31.0158050 133.9581680 121.9308000
  31.5197070 133.3788960 122.5024230  30.2765470 134.2421910 122.4684370
  37.9181670 136.6795870 105.4854290  37.8132310 136.0648220 106.2115670
  37.7505890 136.1561760 104.7017300  38.0695990 135.3652670 121.4643520
  37.3041660 135.9337670 121.3798190  38.2511950 135.0728880 120.5711750
  41.1584400 135.7415900 106.0896280  40.6094500 136.1885200 106.7339020
  41.7803660 135.2365150 106.6133950  45.2119340 137.0958000 122.0218540
  45.9528810 137.4333760 121.5186000  44.4492020 137.2650060 121.4688310
  33.0481130 132.1011270 122.8258070  33.0886470 131.8025140 123.7343300
  33.9026630 132.5018880 122.6665590  36.8259520 134.7006820 107.9861580
  37.2475940 134.5346690 108.8292970  36.9510360 133.8907050 107.4916720
  34.9886940 130.6803370 120.7932560  34.4583400 130.1894320 120.1655900
  35.6575010 131.1087570 120.2590490  39.3387160 133.7244430 105.2338680
  39.8592820 133.0093450 104.8679830  39.9855560 134.3630300 105.5339190
  43.8865000 135.1472830 120.5573750  44.3006020 135.3017910 121.4064170
  42.9516000 135.2728050 120.7199530  44.3587170 132.4868990 122.5612900
  44.9407940 131.7321310 122.4733380  44.5348940 133.0176430 121.7844380
  35.4759240 127.6465740 120.8729850  35.3816110 127.0286490 120.1480720
  34.8956630 128.3732030 120.6459760  38.2420680 126.2038980 117.9057240
  37.7937980 126.2263240 117.0602790  37.6085880 125.8058000 118.5027540
  38.6480230 135.0993310 118.5269680  39.0668340 135.9426040 118.3545920
  37.7288860 135.2365350 118.2976460  40.9844130 132.8309490 119.9107520
  41.1040340 132.2350630 120.6502360  41.8438130 132.8679180 119.4908820
  43.3232030 133.3846680 118.4870030  42.7967250 133.9089300 117.8835170
  43.6663370 134.0174070 119.1179760  35.7218420 130.7740050 104.9319740
  35.5207480 129.9107410 105.2933080  35.5510470 130.6873410 103.9941340
  36.4987650 141.4046320 119.6427410  35.9608740 142.1292380 119.3236110
  36.7521610 140.9276660 118.8524750  37.7512900 129.3730840 121.1683340
  38.3412590 129.0646690 121.8561160  36.9333140 128.9010590 121.3243240
  42.5706330 128.9896650 121.4016360  41.8821850 128.3278190 121.3366350
  43.2912350 128.5434920 121.8464820  43.2006730 125.5848280 107.4606620
  43.4809020 124.7416180 107.8166040  42.4272460 125.8171390 107.9745370
  34.5201220 127.8740670 104.9197620  34.8227120 127.8808100 104.0116770
  35.2595810 127.5238530 105.4165280  39.3549860 142.6397530 119.9014060
  39.2808560 143.5432670 120.2086430  38.4528700 142.3209430 119.8736130
  37.7386150 126.8175290 105.9053820  37.3908150 126.1399280 105.3256270
  37.9398920 126.3564800 106.7197210  39.9035190 141.8056040 107.5240420
  40.7985980 142.1441010 107.5459180  39.9352820 141.0835450 106.8964700
  33.5431350 137.1783090 105.7527420  33.9806220 137.7212760 106.4085000
  34.0279080 136.3530040 105.7623760  30.7577150 139.9672120 113.2047680
  31.0880160 139.0993180 112.9726320  31.1868150 140.1730640 114.0352640
  35.3539070 138.2981130 110.8649650  35.0534610 138.1746100 111.7653560
  35.2476560 137.4389720 110.4565380  31.2467360 140.8342710 115.9429310
  30.8098350 141.0143510 116.7753460  31.8145040 141.5917330 115.8011030
  46.8829540 140.3359710 120.2306620  46.2831530 140.3952270 119.4870540
  47.0123440 139.3964690 120.3603470  48.1230990 138.0777530 105.5676330
  47.2923950 138.1454180 106.0383560  48.3002820 138.9681650 105.2643190
  47.5787450 134.8225010 108.0710530  48.3406360 135.3921660 108.1770220
  47.5941820 134.2552210 108.8418840  31.0791790 133.3462940 112.3018190
  30.4240630 133.0774580 111.6577890  31.9169740 133.2367420 111.8520170
  48.5847420 135.6775110 112.9152460  48.9556250 134.8942430 112.5088430
  49.2249350 136.3664210 112.7369760  45.5681180 137.0611690 118.3282780
  44.7541020 137.4908850 118.5908570  45.9755380 137.6730100 117.7151830
  47.6306620 135.1159380 105.2283050  47.9055460 136.0238260 105.1002270
  47.4417360 135.0521910 106.1645040  44.0282230 128.1404230 106.5236680
  44.4467110 127.9535210 105.6833340  43.7218290 127.2883280 106.8339610
  47.5271960 133.0528370 110.2212480  47.1515560 132.2856300 109.7893770
  46.7975080 133.4351070 110.7087410  32.1167720 133.7315510 116.8421530
  32.4840760 133.6442910 117.7217550  31.5478540 132.9682060 116.7428390
  46.9171580 132.1999890 119.8552000  46.6857670 131.9712640 118.9549950
  47.1776130 133.1199440 119.8096890  31.6683720 130.6424600 120.7479950
  30.7739770 130.6091360 121.0873660  32.2081270 130.8411390 121.5131200
  45.3559650 127.4256320 122.6331700  46.2329830 127.4339720 123.0165700
  45.3680490 126.6887160 122.0224050  30.2929870 130.5561870 108.2443520
  29.3893950 130.8192070 108.0695180  30.7770490 130.8273040 107.4643480
  46.8022920 131.2785860 113.5219720  47.3260400 130.7848510 112.8909890
  47.3882340 131.4136220 114.2667290  46.9812640 131.3625730 117.0439270
  46.0315350 131.3289270 117.1584260  47.1625650 132.2725840 116.8089040
  32.8357080 129.6127410 106.1537900  33.5448780 129.1910630 105.6685180
  32.1197020 129.6802640 105.5221250  32.4831240 125.6666740 105.1940550
  33.2059370 126.2075680 105.5121770  32.7555760 125.3930160 104.3182090
  46.2922890 130.5359210 109.4612130  46.7882010 130.3030080 110.2461010
  46.0938960 129.6971050 109.0449770  32.1723430 124.9172930 115.0963170
  32.8199620 124.3670310 114.6558330  32.5925270 125.1716080 115.9178980
  47.7210050 129.1720160 111.9949810  47.6109330 129.0176200 112.9332080
  48.4817640 128.6441100 111.7525220  46.0675770 125.1114290 118.4532810
  46.7047990 125.7248430 118.8192000  46.2150660 125.1474950 117.5082040
  48.6100320 127.0028080 105.2355950  49.5349630 126.8709260 105.0274240
  48.5876110 127.0820900 106.1892400  48.6838810 127.7738740 107.8612660
  47.8890310 127.7083860 108.3905570  48.8882090 128.7089380 107.8498010
  45.6257230 141.8130290 111.8551050  46.2216300 141.4914860 111.1785470
  45.8835380 141.3402110 112.6464320  31.9255430 125.0728600 117.8388490
  31.5770250 125.5292420 118.6046670  31.5943130 124.1785730 117.9210920
  33.5319800 138.2448200 122.0041680  33.4889430 137.8741110 122.8856140
  33.6630810 139.1825770 122.1443500  37.2325830 139.8007790 117.6051400
  36.9917190 140.0682350 116.7181920  38.1728470 139.9713520 117.6602260
  39.4380250 126.2640480 121.3607910  39.3769140 126.8562310 122.1103320
  40.3780630 126.1566440 121.2158170  42.0754810 125.9210540 121.0000200
  42.6895220 126.2389830 120.3381280  42.6204370 125.4359130 121.6196060
  48.4929990 141.8202170 118.4062040  47.9988270 142.2171040 117.6889170
  47.8843280 141.1951380 118.7999320  32.5976070 124.6004800 121.1139260
  33.1459060 124.4192850 120.3505370  32.6631380 123.8098910 121.6495570
  33.3707830 141.1910450 119.1239460  32.7768150 141.0595150 119.8629500
  33.3631670 140.3548590 118.6581560  42.8162850 124.4842680 117.3269490
  41.9422690 124.8177790 117.1242420  42.7073600 124.0115860 118.1521360
  43.7234830 126.6913550 118.7111210  43.3948190 125.8765310 118.3312940
  44.6717130 126.6483360 118.5876900  46.1769440 142.4625590 115.6848780
  45.7172410 143.2141400 115.3106800  45.5481900 141.7432060 115.6263580
  33.0020060 138.5568830 118.0747500  32.2754120 137.9374120 118.0073450
  33.0629210 138.9509440 117.2045580  36.6065160 140.7713830 114.8596910
  37.1230180 140.1601190 114.3345170  37.2562540 141.2742610 115.3507920
  39.3460660 141.6622320 115.6865890  39.6338470 141.4076620 114.8098900
  39.8583880 141.1099680 116.2771460  40.5637670 125.4012520 116.2662400
  39.7809460 125.8758020 116.5459160  40.2700600 124.4967350 116.1575580
  45.1158740 126.1035620 114.3111490  45.5566830 126.0480720 113.4633090
  44.8466330 127.0193630 114.3821670  46.9797310 125.7350860 112.3220310
  46.9185710 124.7912080 112.1751330  47.7589340 125.8430950 112.8673770
  31.2850060 141.8743220 111.2844260  31.1172100 141.2413900 111.9826150
  30.4184570 142.0802620 110.9338450  31.9078080 125.7060000 108.7876120
  32.6657440 125.8188880 108.2140150  31.4455250 126.5429200 108.7419550
  38.4491890 127.8199270 111.7778430  37.6366400 127.4456160 111.4374310
  38.9533530 127.0644350 112.0799620  42.9516870 124.4841720 113.0161500
  43.5546240 125.0561930 113.4910020  42.2109860 125.0481160 112.7935400
  46.0951470 124.8863280 108.2901780  46.2902100 125.7846730 108.5569210
  45.3081340 124.6550360 108.7834730  32.8912760 140.5676450 108.7294400
  32.3660380 140.9484480 108.0256360  32.8157340 141.1927220 109.4504110
  34.2803230 126.2324050 107.3278090  34.8095990 125.4453850 107.1986040
  34.9131550 126.9115240 107.5613620  36.4741070 125.9699190 110.3823480
  35.8443810 125.2686500 110.5493610  35.9346210 126.7303320 110.1656640
  39.4133020 142.5838420 123.0534090  40.3400330 142.3482690 123.0970050
  39.3983450 143.4110420 122.5720120  47.6478080 142.1263990 110.0508340
  47.8230270 141.4401730 109.4069260  46.9499650 142.6511040 109.6585010
  36.5996630 125.2483170 122.8175970  36.3180900 125.7516770 122.0536790
  36.9816330 124.4504920 122.4518100  35.4905730 142.5158830 107.6043650
  36.2224550 142.2318110 107.0567540  35.7499400 142.2772110 108.4943030
  34.6520520 138.6323560 107.6089980  34.0229400 139.1008660 108.1575810
  34.7668350 137.7872780 108.0436170  43.2012090 124.6636750 123.3956440
  43.0877540 124.9831360 124.2907960  44.0181830 125.0649260 123.0993720
  45.9810580 141.8108280 122.8775130  46.7735900 141.3157510 122.6701090
  46.2743730 142.4898420 123.4850740  42.1070240 132.6829220  93.7591180
  42.0264290 131.7683830  93.4882890  41.6934660 133.1796290  93.0530890
  40.2388280 134.4608240  95.6400450  39.4630380 133.9808680  95.9299020
  40.8901210 133.7813890  95.4656610  34.2554110 134.7728050  96.5176210
  33.4238990 134.5176760  96.9172720  34.8635090 134.8438820  97.2534130
  44.2595710 138.8668430  94.4199580  43.7977240 138.0955670  94.7486750
  45.0721260 138.8934500  94.9252030  34.2355370 138.8068140  96.7134230
  34.5383410 137.9165880  96.5344450  34.9798960 139.3638360  96.4856480
  32.6646060 129.7329940  90.3018600  31.7762760 130.0745910  90.1998480
  32.9487250 129.5330260  89.4099430  30.6279070 132.3335590  96.1858300
  31.1995180 131.5657790  96.1861940  30.6280610 132.6324350  95.2764910
  40.4859020 141.1526440  94.0403570  39.8670460 141.6083940  93.4698010
  41.3410800 141.3077900  93.6393270  39.6797270 137.1365430  95.6470610
  39.6105550 136.1955370  95.4859740  40.4417130 137.2266840  96.2193180
  31.8703940 127.7419950  97.9727230  31.6906780 126.8445700  98.2529990
  31.4684020 128.2891820  98.6474180  40.7102440 129.9435810  95.8739540
  41.0867260 129.0707690  95.7613210  40.6121950 130.2794510  94.9829980
  34.8407450 128.3161440  91.3356980  34.9474200 129.2165170  91.6425740
  33.9299810 128.2679410  91.0451630  44.4926560 127.4386250  92.8067880
  45.3136180 126.9482820  92.8493360  44.5260640 128.0283910  93.5599720
  32.4890610 130.2380450  96.5809570  33.1700720 130.5018820  97.1996970
  32.1738660 129.3981320  96.9147580  36.6815180 131.2847810  95.6682160
  37.1893400 131.7828780  96.3087180  37.2128420 130.5083010  95.4921520
  48.7826110 129.4553000  99.3711510  48.0778280 129.8434710  98.8526620
  49.0484030 130.1503290  99.9732440  34.9651280 125.9246370  99.9345580
  34.9669720 126.4418760  99.1291480  34.1355590 125.4476550  99.9115510
  41.3522370 136.0365680  91.4335480  40.7339640 136.5015130  90.8698200
  41.8645620 136.7293160  91.8504990  36.2154130 135.5641550  98.1119080
  35.8823510 136.1910470  98.7540150  36.3920810 136.0903430  97.3320750
  44.7288040 129.3786630  95.5795420  44.0243610 129.6671520  96.1598530
  45.0900200 130.1886740  95.2194980  34.6466610 127.6356330  97.9416030
  34.9883420 128.4798380  97.6469900  33.7082420 127.7840070  98.0581370
  35.4273230 137.5322350  99.9268260  36.0447230 138.2073430  99.6452710
  34.5666350 137.9410330  99.8355760  30.7205570 136.7222210  88.8075110
  30.3433550 137.2109310  88.0760010  30.9778640 137.3947490  89.4381640
  46.3450820 138.9961760  97.8422900  45.6614340 139.6660870  97.8339570
  46.8845110 139.1942410  97.0767760  47.7974960 128.8241420  95.9704630
  46.8499870 128.8580400  96.1020060  48.1224950 129.6380370  96.3553990
  38.3294500 125.1238600  94.2660620  38.6369480 124.5685490  93.5496120
  37.3995200 125.2583060  94.0833610  43.8809560 140.8405890  96.5568080
  43.8936720 140.4368180  95.6890340  43.3284780 141.6153180  96.4529510
  45.1754980 137.5622110  91.6458250  45.0651310 136.6196440  91.7707670
  45.1723230 137.9237750  92.5321010  43.2795000 135.7435730  97.8850690
  43.6963790 135.5295840  97.0504150  44.0034820 136.0008520  98.4559310
  40.7175260 133.1887430  91.0020740  39.7904540 133.1224810  91.2309210
  40.8700080 134.1267560  90.8875980  40.7044340 129.4604430  87.9987900
  39.7648010 129.6218390  88.0840360  41.0227600 130.1790110  87.4523890
  47.2257100 134.1422950  97.9766930  46.3975730 134.2116040  97.5017060
  47.8207580 134.7277260  97.5082760  44.7472550 134.7507730  91.5055990
  44.1284970 134.4127280  90.8582290  44.7297000 134.1067490  92.2135180
  44.1899110 130.9292270  98.9221800  43.7770290 131.7545980  99.1761790
  43.4575060 130.3437310  98.7298160  36.3231900 133.7152170  93.7840470
  35.9188900 133.0029420  93.2886370  36.4095020 133.3705410  94.6728510
  36.7913600 137.4019730  95.9479680  36.4941890 136.7965200  95.2687460
  37.7413420 137.4397040  95.8369040  35.0360520 130.4895380  97.5639510
  35.5875110 130.5990720  96.7892760  35.5504030 130.8632980  98.2794740
  44.8799210 140.9751600  99.6102780  44.4029770 141.7823790  99.4175390
  44.1961000 140.3229930  99.7628990  35.8832030 137.1401420 102.5987480
  34.9860560 137.3641390 102.8460880  35.9084900 137.2636360 101.6498880
  42.9237250 133.9894540  88.5128740  43.3630530 133.1516970  88.3666560
  43.6365670 134.6223940  88.5992880  34.7103250 134.0114740 101.1744850
  34.5711020 134.8837540 101.5432250  33.8284610 133.6687550 101.0292790
  41.0332630 138.9290610  92.4809980  41.4728540 139.6714940  92.0665370
  40.9719520 139.1717180  93.4048940  36.5083600 139.9536440 103.3830000
  36.4799030 140.3579390 102.5158430  36.3448570 139.0246800 103.2201600
  46.5054390 125.2437350  86.8269780  46.1927050 125.3364180  87.7268850
  47.2666860 125.8218380  86.7767210  33.0236530 132.6097150  91.2847120
  32.9034130 133.3359240  90.6728390  32.7137420 131.8400060  90.8075030
  48.4598420 140.7363540 104.6794170  48.9358140 141.2146430 105.3583250
  49.0805580 140.6681030 103.9539670  30.6621900 135.7812290  97.0915760
  30.7402320 135.9161060  96.1471480  31.2763580 135.0728180  97.2843880
  31.9069530 137.4812480  93.5021940  31.4997610 137.6227070  92.6475540
  32.7982540 137.1972640  93.2993150  47.8631670 137.9276390 101.8394180
  47.9894730 137.6888270 100.9211360  47.9053050 137.0960930 102.3116260
  41.7248410 141.6304390 100.4088990  42.2393080 141.5412400 101.2111420
  40.8817490 141.9764090 100.7016900  43.7002810 141.9159730  89.8372990
  43.5403950 141.6262670  90.7354820  43.5349520 141.1399860  89.3018220
  36.1791190 141.6958260  91.6144610  36.0033670 140.7793800  91.4012410
  35.3246930 142.0545550  91.8542410  43.4028940 139.4247290  88.3970990
  42.7094100 139.4224580  87.7373270  44.1451800 139.0006610  87.9665160
  42.9678870 141.0510000  92.4719480  43.4235820 140.2699380  92.7858100
  43.3071390 141.7616820  93.0160660  47.7155680 129.9808850 102.8043920
  47.0999950 130.4888520 102.2759380  47.3952100 129.0807180 102.7469860
  30.7181420 136.8226460  99.6310220  30.8812460 136.3531820  98.8129590
  31.1833870 136.3150020 100.2959060  35.4900190 125.9532220  94.6670790
  35.0468340 126.7341760  94.3355310  36.0485180 126.2762110  95.3741730
  39.7770000 128.8200740 100.2706110  39.3149370 129.0283760 101.0826050
  39.3748110 128.0060090  99.9676780  44.7774510 130.0409690 101.4002770
  43.9268100 129.7415440 101.7211840  44.6176300 130.2851700 100.4886590
  41.8724220 131.5411440 103.5001560  42.1977630 130.7075190 103.1603790
  42.6604550 132.0639960 103.6479890  38.6059010 125.5742920  89.5476620
  37.9813190 125.5702790  90.2729930  38.5189130 124.7073880  89.1512590
  37.5276090 126.4979550  96.5260390  37.8248420 127.4042380  96.4452410
  38.0761650 126.0098330  95.9119960  35.2814410 131.0765790  92.3952040
  35.0555330 130.8602960  93.2998660  34.5006940 131.5094250  92.0498010
  42.5112170 131.0829160  90.9942690  41.9121060 131.8064960  90.8106310
  43.0591780 131.0205940  90.2119140  37.7213620 131.9751370 103.0612310
  37.6257220 131.0346100 102.9112710  38.5645600 132.1966440 102.6660380
  41.1177040 129.7192700  93.0245970  41.5106610 130.0364900  92.2114660
  41.4793890 128.8404580  93.1390490  32.8524160 128.3865040 101.2146090
  32.4587550 129.2340250 101.4218870  32.1642560 127.7491410 101.4054730
  39.4269210 128.4700010 104.2842830  38.7367530 128.2772210 104.9188920
  40.1701510 128.7534650 104.8167130  30.1541210 126.3093500  95.2476170
  29.8654260 126.8796360  95.9601150  30.8986970 125.8297950  95.6107400
  30.3411440 130.2513620  86.4578890  30.2586110 131.1944380  86.5993880
  29.9894500 130.1088530  85.5791240  41.7032180 132.3098450  97.1196750
  40.9713300 132.8185260  97.4686850  41.3056520 131.4928430  96.8185530
  38.1409570 128.9852650  95.5249240  38.1445630 128.5442600  94.6753780
  39.0360690 129.3069980  95.6321060  33.9911950 128.8679140  94.4843450
  33.6512000 129.3454370  95.2410500  33.2289270 128.4144260  94.1244550
  38.2029720 129.9864730  88.5156000  38.3242540 129.9451210  89.4641820
  37.8178230 130.8488880  88.3602730  42.1658090 127.7632130  96.5319690
  42.1830830 128.2140780  97.3761540  41.9173670 126.8637770  96.7453130
  37.2151220 132.2965870  87.9139300  36.6468120 131.8484120  87.2875210
  37.9240220 132.6558650  87.3804450  45.5928840 125.1764310 102.3706070
  45.9174610 124.4453970 102.8964050  45.6285350 124.8577950 101.4687060
  32.2920400 136.1977890 101.7906030  31.9075190 135.5571560 102.3888990
  32.6032590 136.9014010 102.3600760  38.4417540 133.0454430  97.2714650
  38.8087670 132.5713000  98.0175990  38.2522600 133.9196000  97.6122990
  31.3058030 127.7898120  93.4008120  31.0204950 127.4253790  94.2386740
  31.2436890 127.0578580  92.7871260  36.2316910 132.0863070  99.5898860
  35.9273980 132.9655050  99.8149220  37.1863370 132.1462860  99.6256300
  34.7598700 136.2924060  90.1865710  33.9860960 135.7521680  90.0264430
  35.4893330 135.7730670  89.8483470  45.5186680 135.2889420  95.9792100
  46.2385800 135.7844710  95.5888210  45.3168500 134.6107310  95.3345970
  40.9796620 126.6827380  90.1221490  40.1661230 126.1840550  90.0466800
  40.7858570 127.5225630  89.7057840  40.9005480 135.3598480 101.8661100
  40.8342790 134.4394150 101.6118690  40.2710620 135.4573920 102.5805740
  43.6945010 131.0547030  88.4183650  44.5824630 131.3664260  88.2434990
  43.6650100 130.1819280  88.0264230  34.8036100 135.9604440  93.8244520
  35.3214770 135.1572700  93.7701410  34.3520120 135.8983580  94.6661350
  39.6905600 137.2270720  89.0971820  40.0321300 137.9712950  88.6015140
  38.8618310 137.5401840  89.4596650  32.2880640 132.9265810 100.7370220
  31.9295580 133.5919660 101.3243560  31.9935200 132.0949360 101.1082840
  35.4893760 133.3850050 103.6209770  35.1893900 133.5307230 102.7237590
  36.2605000 132.8255340 103.5283160  40.8322210 138.1819050 101.6164900
  40.8466750 137.2500010 101.3983810  40.1247310 138.2678810 102.2554670
  45.9659280 132.3658870  87.8863510  45.8823000 132.7973090  87.0359950
  46.6853470 132.8257220  88.3190330  47.0433420 134.8226390 100.9633480
  46.3181610 135.4155170 100.7662870  47.5708880 134.8149930 100.1646850
  46.9946530 139.2201130  90.6145640  46.3522690 138.5656750  90.8889360
  46.6077190 139.6256220  89.8386310  42.5733010 136.5486560  94.4617330
  42.9256830 135.9514690  93.8018700  41.6895340 136.2230790  94.6325580
  38.6596290 137.3084250  91.8687740  39.3467420 137.8553460  92.2495330
  37.8728710 137.8524980  91.9037350  30.7988690 132.9257070  87.3604820
  31.6683540 133.2081870  87.6440740  30.3079010 133.7392940  87.2453630
  37.9623500 134.3130280  91.4813100  38.4186280 135.1235530  91.7073290
  37.6111710 133.9953420  92.3131590  40.2656110 139.8236620  98.7105400
  40.9098330 140.0296000  99.3878820  40.6285550 139.0625020  98.2576250
  33.8635280 124.6567930  91.9535620  33.7349910 124.6485830  92.9020540
  33.0397300 124.9951020  91.6026630  41.5388190 137.8268970  97.4282850
  42.1810420 137.1262130  97.5415020  42.0637540 138.6067410  97.2479740
  45.3843910 138.1117590  87.1521990  45.1581490 137.3948030  87.7446630
  44.9940110 137.8630030  86.3143740  43.3125810 138.6263870 100.6318910
  43.6482050 139.2130560 101.3096830  42.3926150 138.4956580 100.8616700
  31.1659940 142.1384450  87.9266450  31.5257580 142.7373790  87.2723720
  31.0252280 142.6844340  88.7001480  30.8629210 126.4159050 101.4142320
  30.1487730 126.6155970 102.0194930  31.2824250 125.6398620 101.7857120
  44.9660160 136.0289530  88.8136150  44.6781860 136.4902220  89.6014030
  45.7612330 135.5687300  89.0820370  31.1501800 140.4039310 102.4008850
  31.2592920 139.4634050 102.2604240  30.4982360 140.6694060 101.7522580
  39.1414390 138.6755200 103.8006970  38.8211260 137.9564440 104.3452660
  38.4672750 139.3510270 103.8743030  37.1828560 139.5215650  88.7440120
  37.1738660 140.2545340  88.1284630  36.2626920 139.2747230  88.8367080
  32.7835200 134.7430540  89.4886880  32.1763150 135.4829440  89.4982180
  33.2584550 134.8329900  88.6625080  42.3567990 128.9081360  99.1643770
  42.7248810 128.0876570  99.4923340  41.4966190 128.9683250  99.5799420
  45.7230020 127.8638300  89.9731330  45.0943180 127.9683970  89.2589560
  45.2281940 128.0835080  90.7625210  40.1688160 139.5843890  87.4065310
  40.2700140 139.3807880  86.4767290  39.2689900 139.3302170  87.6113090
  37.6914050 130.1424250  91.3889210  36.9830200 130.6110590  91.8302820
  37.9758530 129.4846260  92.0234400  39.3169980 131.5620950  99.3881740
  39.8155230 132.0366770 100.0533590  39.4592930 130.6384470  99.5951770
  41.7229480 126.8674910  92.8285000  41.5997260 126.8861040  91.8794510
  42.6714040 126.9153850  92.9483400  38.8106270 142.1030210  92.1012980
  39.0647770 142.0651600  91.1792350  37.8618750 141.9763540  92.0941230
  35.8949070 128.4509330  88.7639920  36.7439600 128.8879480  88.6980110
  35.5280340 128.7629590  89.5911980  46.5236840 127.7788910 100.2310130
  46.0210440 128.5194310 100.5703940  47.3393500 128.1672910  99.9146920
  44.8158850 133.0222090  93.6771490  43.8748990 133.0372320  93.8519180
  45.1302920 132.2358050  94.1231790  34.7940490 134.7041690  87.2375450
  35.5603760 134.5923050  87.8000880  34.8715180 134.0079660  86.5852220
  33.4887250 132.1366760  87.9208340  33.5690840 131.1894270  88.0325740
  34.3807000 132.4673640  88.0269000  46.8184430 140.1930940  95.3525750
  46.9431850 141.0162110  95.8249560  47.6849990 139.9821670  95.0049900
  34.2901960 142.2862150  95.0242880  35.0264440 141.7377610  95.2951450
  34.6742880 143.1518160  94.8848870  31.1747440 138.3535720  90.8984390
  30.2487220 138.5956860  90.8889800  31.6403870 139.1809980  90.7769140
  33.2960240 141.4708220 104.2128460  34.0972970 141.7920270 104.6263860
  32.7812060 141.1103800 104.9348370  37.4004270 141.4592460  86.8468450
  38.1932880 141.7481290  86.3950240  36.8808620 141.0284630  86.1680930
  42.1324870 137.5788090 104.1603870  41.5263030 137.6019690 103.4199620
  41.8278980 136.8471130 104.6971120  43.5625240 141.3068380 102.7713280
  44.5146990 141.2226400 102.7213520  43.4153460 141.9710090 103.4447070
  46.4534440 140.6862590  88.2705190  46.1675950 140.2727730  87.4559370
  46.2553990 141.6150300  88.1505710  31.0158050 133.9581680 103.1564510
  31.5197070 133.3788960 103.7280740  30.2765470 134.2421910 103.6940880
  37.9181670 136.6795870  86.7110800  37.8132310 136.0648220  87.4372180
  37.7505890 136.1561760  85.9273810  38.0695990 135.3652670 102.6900030
  37.3041660 135.9337670 102.6054700  38.2511950 135.0728880 101.7968260
  41.1584400 135.7415900  87.3152790  40.6094500 136.1885200  87.9595530
  41.7803660 135.2365150  87.8390460  45.2119340 137.0958000 103.2475050
  45.9528810 137.4333760 102.7442510  44.4492020 137.2650060 102.6944820
  33.0481130 132.1011270 104.0514580  33.0886470 131.8025140 104.9599810
  33.9026630 132.5018880 103.8922100  36.8259520 134.7006820  89.2118090
  37.2475940 134.5346690  90.0549480  36.9510360 133.8907050  88.7173230
  34.9886940 130.6803370 102.0189070  34.4583400 130.1894320 101.3912410
  35.6575010 131.1087570 101.4847000  39.3387160 133.7244430  86.4595190
  39.8592820 133.0093450  86.0936340  39.9855560 134.3630300  86.7595700
  43.8865000 135.1472830 101.7830260  44.3006020 135.3017910 102.6320680
  42.9516000 135.2728050 101.9456040  44.3587170 132.4868990 103.7869410
  44.9407940 131.7321310 103.6989890  44.5348940 133.0176430 103.0100890
  35.4759240 127.6465740 102.0986360  35.3816110 127.0286490 101.3737230
  34.8956630 128.3732030 101.8716270  38.2420680 126.2038980  99.1313750
  37.7937980 126.2263240  98.2859300  37.6085880 125.8058000  99.7284050
  38.6480230 135.0993310  99.7526190  39.0668340 135.9426040  99.5802430
  37.7288860 135.2365350  99.5232970  40.9844130 132.8309490 101.1364030
  41.1040340 132.2350630 101.8758870  41.8438130 132.8679180 100.7165330
  43.3232030 133.3846680  99.7126540  42.7967250 133.9089300  99.1091680
  43.6663370 134.0174070 100.3436270  35.7218420 130.7740050  86.1576250
  35.5207480 129.9107410  86.5189590  35.5510470 130.6873410  85.2197850
  36.4987650 141.4046320 100.8683920  35.9608740 142.1292380 100.5492620
  36.7521610 140.9276660 100.0781260  37.7512900 129.3730840 102.3939850
  38.3412590 129.0646690 103.0817670  36.9333140 128.9010590 102.5499750
  42.5706330 128.9896650 102.6272870  41.8821850 128.3278190 102.5622860
  43.2912350 128.5434920 103.0721330  43.2006730 125.5848280  88.6863130
  43.4809020 124.7416180  89.0422550  42.4272460 125.8171390  89.2001880
  34.5201220 127.8740670  86.1454130  34.8227120 127.8808100  85.2373280
  35.2595810 127.5238530  86.6421790  39.3549860 142.6397530 101.1270570
  39.2808560 143.5432670 101.4342940  38.4528700 142.3209430 101.0992640
  39.9035190 141.8056040  88.7496930  40.7985980 142.1441010  88.7715690
  39.9352820 141.0835450  88.1221210  33.5431350 137.1783090  86.9783930
  33.9806220 137.7212760  87.6341510  34.0279080 136.3530040  86.9880270
  30.7577150 139.9672120  94.4304190  31.0880160 139.0993180  94.1982830
  31.1868150 140.1730640  95.2609150  35.3539070 138.2981130  92.0906160
  35.0534610 138.1746100  92.9910070  35.2476560 137.4389720  91.6821890
  31.2467360 140.8342710  97.1685820  30.8098350 141.0143510  98.0009970
  31.8145040 141.5917330  97.0267540  46.8829540 140.3359710 101.4563130
  46.2831530 140.3952270 100.7127050  47.0123440 139.3964690 101.5859980
  48.1230990 138.0777530  86.7932840  47.2923950 138.1454180  87.2640070
  48.3002820 138.9681650  86.4899700  47.5787450 134.8225010  89.2967040
  48.3406360 135.3921660  89.4026730  47.5941820 134.2552210  90.0675350
  31.0791790 133.3462940  93.5274700  30.4240630 133.0774580  92.8834400
  31.9169740 133.2367420  93.0776680  48.5847420 135.6775110  94.1408970
  48.9556250 134.8942430  93.7344940  49.2249350 136.3664210  93.9626270
  45.5681180 137.0611690  99.5539290  44.7541020 137.4908850  99.8165080
  45.9755380 137.6730100  98.9408340  47.6306620 135.1159380  86.4539560
  47.9055460 136.0238260  86.3258780  47.4417360 135.0521910  87.3901550
  44.0282230 128.1404230  87.7493190  44.4467110 127.9535210  86.9089850
  43.7218290 127.2883280  88.0596120  47.5271960 133.0528370  91.4468990
  47.1515560 132.2856300  91.0150280  46.7975080 133.4351070  91.9343920
  32.1167720 133.7315510  98.0678040  32.4840760 133.6442910  98.9474060
  31.5478540 132.9682060  97.9684900  46.9171580 132.1999890 101.0808510
  46.6857670 131.9712640 100.1806460  47.1776130 133.1199440 101.0353400
  31.6683720 130.6424600 101.9736460  30.7739770 130.6091360 102.3130170
  32.2081270 130.8411390 102.7387710  45.3559650 127.4256320 103.8588210
  46.2329830 127.4339720 104.2422210  45.3680490 126.6887160 103.2480560
  30.2929870 130.5561870  89.4700030  29.3893950 130.8192070  89.2951690
  30.7770490 130.8273040  88.6899990  46.8022920 131.2785860  94.7476230
  47.3260400 130.7848510  94.1166400  47.3882340 131.4136220  95.4923800
  46.9812640 131.3625730  98.2695780  46.0315350 131.3289270  98.3840770
  47.1625650 132.2725840  98.0345550  32.8357080 129.6127410  87.3794410
  33.5448780 129.1910630  86.8941690  32.1197020 129.6802640  86.7477760
  32.4831240 125.6666740  86.4197060  33.2059370 126.2075680  86.7378280
  32.7555760 125.3930160  85.5438600  46.2922890 130.5359210  90.6868640
  46.7882010 130.3030080  91.4717520  46.0938960 129.6971050  90.2706280
  32.1723430 124.9172930  96.3219680  32.8199620 124.3670310  95.8814840
  32.5925270 125.1716080  97.1435490  47.7210050 129.1720160  93.2206320
  47.6109330 129.0176200  94.1588590  48.4817640 128.6441100  92.9781730
  46.0675770 125.1114290  99.6789320  46.7047990 125.7248430 100.0448510
  46.2150660 125.1474950  98.7338550  48.6838810 127.7738740  89.0869170
  47.8890310 127.7083860  89.6162080  48.8882090 128.7089380  89.0754520
  45.6257230 141.8130290  93.0807560  46.2216300 141.4914860  92.4041980
  45.8835380 141.3402110  93.8720830  31.9255430 125.0728600  99.0645000
  31.5770250 125.5292420  99.8303180  31.5943130 124.1785730  99.1467430
  33.5319800 138.2448200 103.2298190  33.4889430 137.8741110 104.1112650
  33.6630810 139.1825770 103.3700010  37.2325830 139.8007790  98.8307910
  36.9917190 140.0682350  97.9438430  38.1728470 139.9713520  98.8858770
  39.4380250 126.2640480 102.5864420  39.3769140 126.8562310 103.3359830
  40.3780630 126.1566440 102.4414680  42.0754810 125.9210540 102.2256710
  42.6895220 126.2389830 101.5637790  42.6204370 125.4359130 102.8452570
  48.4929990 141.8202170  99.6318550  47.9988270 142.2171040  98.9145680
  47.8843280 141.1951380 100.0255830  32.5976070 124.6004800 102.3395770
  33.1459060 124.4192850 101.5761880  32.6631380 123.8098910 102.8752080
  33.3707830 141.1910450 100.3495970  32.7768150 141.0595150 101.0886010
  33.3631670 140.3548590  99.8838070  42.8162850 124.4842680  98.5526000
  41.9422690 124.8177790  98.3498930  42.7073600 124.0115860  99.3777870
  43.7234830 126.6913550  99.9367720  43.3948190 125.8765310  99.5569450
  44.6717130 126.6483360  99.8133410  46.1769440 142.4625590  96.9105290
  45.7172410 143.2141400  96.5363310  45.5481900 141.7432060  96.8520090
  33.0020060 138.5568830  99.3004010  32.2754120 137.9374120  99.2329960
  33.0629210 138.9509440  98.4302090  36.6065160 140.7713830  96.0853420
  37.1230180 140.1601190  95.5601680  37.2562540 141.2742610  96.5764430
  39.3460660 141.6622320  96.9122400  39.6338470 141.4076620  96.0355410
  39.8583880 141.1099680  97.5027970  40.5637670 125.4012520  97.4918910
  39.7809460 125.8758020  97.7715670  40.2700600 124.4967350  97.3832090
  45.1158740 126.1035620  95.5368000  45.5566830 126.0480720  94.6889600
  44.8466330 127.0193630  95.6078180  46.9797310 125.7350860  93.5476820
  46.9185710 124.7912080  93.4007840  47.7589340 125.8430950  94.0930280
  31.2850060 141.8743220  92.5100770  31.1172100 141.2413900  93.2082660
  30.4184570 142.0802620  92.1594960  31.9078080 125.7060000  90.0132630
  32.6657440 125.8188880  89.4396660  31.4455250 126.5429200  89.9676060
  38.4491890 127.8199270  93.0034940  37.6366400 127.4456160  92.6630820
  38.9533530 127.0644350  93.3056130  42.9516870 124.4841720  94.2418010
  43.5546240 125.0561930  94.7166530  42.2109860 125.0481160  94.0191910
  46.0951470 124.8863280  89.5158290  46.2902100 125.7846730  89.7825720
  45.3081340 124.6550360  90.0091240  32.8912760 140.5676450  89.9550910
  32.3660380 140.9484480  89.2512870  32.8157340 141.1927220  90.6760620
  34.2803230 126.2324050  88.5534600  34.8095990 125.4453850  88.4242550
  34.9131550 126.9115240  88.7870130  36.4741070 125.9699190  91.6079990
  35.8443810 125.2686500  91.7750120  35.9346210 126.7303320  91.3913150
  39.4133020 142.5838420 104.2790600  40.3400330 142.3482690 104.3226560
  39.3983450 143.4110420 103.7976630  47.6478080 142.1263990  91.2764850
  47.8230270 141.4401730  90.6325770  46.9499650 142.6511040  90.8841520
  36.5996630 125.2483170 104.0432480  36.3180900 125.7516770 103.2793300
  36.9816330 124.4504920 103.6774610  35.4905730 142.5158830  88.8300160
  36.2224550 142.2318110  88.2824050  35.7499400 142.2772110  89.7199540
  34.6520520 138.6323560  88.8346490  34.0229400 139.1008660  89.3832320
  34.7668350 137.7872780  89.2692680  43.2012090 124.6636750 104.6212950
  43.0877540 124.9831360 105.5164470  44.0181830 125.0649260 104.3250230
  45.9810580 141.8108280 104.1031640  46.7735900 141.3157510 103.8957600
  46.2743730 142.4898420 104.7107250  42.1070240 132.6829220  74.9847690
  42.0264290 131.7683830  74.7139400  41.6934660 133.1796290  74.2787400
  40.2388280 134.4608240  76.8656960  39.4630380 133.9808680  77.1555530
  40.8901210 133.7813890  76.6913120  34.2554110 134.7728050  77.7432720
  33.4238990 134.5176760  78.1429230  34.8635090 134.8438820  78.4790640
  44.2595710 138.8668430  75.6456090  43.7977240 138.0955670  75.9743260
  45.0721260 138.8934500  76.1508540  34.2355370 138.8068140  77.9390740
  34.5383410 137.9165880  77.7600960  34.9798960 139.3638360  77.7112990
  32.6646060 129.7329940  71.5275110  31.7762760 130.0745910  71.4254990
  32.9487250 129.5330260  70.6355940  30.6279070 132.3335590  77.4114810
  31.1995180 131.5657790  77.4118450  30.6280610 132.6324350  76.5021420
  40.4859020 141.1526440  75.2660080  39.8670460 141.6083940  74.6954520
  41.3410800 141.3077900  74.8649780  39.6797270 137.1365430  76.8727120
  39.6105550 136.1955370  76.7116250  40.4417130 137.2266840  77.4449690
  31.8703940 127.7419950  79.1983740  31.6906780 126.8445700  79.4786500
  31.4684020 128.2891820  79.8730690  40.7102440 129.9435810  77.0996050
  41.0867260 129.0707690  76.9869720  40.6121950 130.2794510  76.2086490
  34.8407450 128.3161440  72.5613490  34.9474200 129.2165170  72.8682250
  33.9299810 128.2679410  72.2708140  32.4890610 130.2380450  77.8066080
  33.1700720 130.5018820  78.4253480  32.1738660 129.3981320  78.1404090
  36.6815180 131.2847810  76.8938670  37.1893400 131.7828780  77.5343690
  37.2128420 130.5083010  76.7178030  34.9651280 125.9246370  81.1602090
  34.9669720 126.4418760  80.3547990  34.1355590 125.4476550  81.1372020
  41.3522370 136.0365680  72.6591990  40.7339640 136.5015130  72.0954710
  41.8645620 136.7293160  73.0761500  36.2154130 135.5641550  79.3375590
  35.8823510 136.1910470  79.9796660  36.3920810 136.0903430  78.5577260
  44.7288040 129.3786630  76.8051930  44.0243610 129.6671520  77.3855040
  45.0900200 130.1886740  76.4451490  34.6466610 127.6356330  79.1672540
  34.9883420 128.4798380  78.8726410  33.7082420 127.7840070  79.2837880
  35.4273230 137.5322350  81.1524770  36.0447230 138.2073430  80.8709220
  34.5666350 137.9410330  81.0612270  30.7205570 136.7222210  70.0331620
  30.3433550 137.2109310  69.3016520  30.9778640 137.3947490  70.6638150
  46.3450820 138.9961760  79.0679410  45.6614340 139.6660870  79.0596080
  46.8845110 139.1942410  78.3024270  47.7974960 128.8241420  77.1961140
  46.8499870 128.8580400  77.3276570  48.1224950 129.6380370  77.5810500
  38.3294500 125.1238600  75.4917130  38.6369480 124.5685490  74.7752630
  37.3995200 125.2583060  75.3090120  43.8809560 140.8405890  77.7824590
  43.8936720 140.4368180  76.9146850  43.3284780 141.6153180  77.6786020
  45.1754980 137.5622110  72.8714760  45.0651310 136.6196440  72.9964180
  45.1723230 137.9237750  73.7577520  43.2795000 135.7435730  79.1107200
  43.6963790 135.5295840  78.2760660  44.0034820 136.0008520  79.6815820
  40.7175260 133.1887430  72.2277250  39.7904540 133.1224810  72.4565720
  40.8700080 134.1267560  72.1132490  40.7044340 129.4604430  69.2244410
  39.7648010 129.6218390  69.3096870  41.0227600 130.1790110  68.6780400
  47.2257100 134.1422950  79.2023440  46.3975730 134.2116040  78.7273570
  47.8207580 134.7277260  78.7339270  44.7472550 134.7507730  72.7312500
  44.1284970 134.4127280  72.0838800  44.7297000 134.1067490  73.4391690
  44.1899110 130.9292270  80.1478310  43.7770290 131.7545980  80.4018300
  43.4575060 130.3437310  79.9554670  36.3231900 133.7152170  75.0096980
  35.9188900 133.0029420  74.5142880  36.4095020 133.3705410  75.8985020
  36.7913600 137.4019730  77.1736190  36.4941890 136.7965200  76.4943970
  37.7413420 137.4397040  77.0625550  35.0360520 130.4895380  78.7896020
  35.5875110 130.5990720  78.0149270  35.5504030 130.8632980  79.5051250
  44.8799210 140.9751600  80.8359290  44.4029770 141.7823790  80.6431900
  44.1961000 140.3229930  80.9885500  35.8832030 137.1401420  83.8243990
  34.9860560 137.3641390  84.0717390  35.9084900 137.2636360  82.8755390
  42.9237250 133.9894540  69.7385250  43.3630530 133.1516970  69.5923070
  43.6365670 134.6223940  69.8249390  34.7103250 134.0114740  82.4001360
  34.5711020 134.8837540  82.7688760  33.8284610 133.6687550  82.2549300
  41.0332630 138.9290610  73.7066490  41.4728540 139.6714940  73.2921880
  40.9719520 139.1717180  74.6305450  36.5083600 139.9536440  84.6086510
  36.4799030 140.3579390  83.7414940  36.3448570 139.0246800  84.4458110
  46.5054390 125.2437350  68.0526290  46.1927050 125.3364180  68.9525360
  47.2666860 125.8218380  68.0023720  33.0236530 132.6097150  72.5103630
  32.9034130 133.3359240  71.8984900  32.7137420 131.8400060  72.0331540
  48.4598420 140.7363540  85.9050680  48.9358140 141.2146430  86.5839760
  49.0805580 140.6681030  85.1796180  30.6621900 135.7812290  78.3172270
  30.7402320 135.9161060  77.3727990  31.2763580 135.0728180  78.5100390
  31.9069530 137.4812480  74.7278450  31.4997610 137.6227070  73.8732050
  32.7982540 137.1972640  74.5249660  47.8631670 137.9276390  83.0650690
  47.9894730 137.6888270  82.1467870  47.9053050 137.0960930  83.5372770
  41.7248410 141.6304390  81.6345500  42.2393080 141.5412400  82.4367930
  40.8817490 141.9764090  81.9273410  43.7002810 141.9159730  71.0629500
  43.5403950 141.6262670  71.9611330  43.5349520 141.1399860  70.5274730
  36.1791190 141.6958260  72.8401120  36.0033670 140.7793800  72.6268920
  35.3246930 142.0545550  73.0798920  43.4028940 139.4247290  69.6227500
  42.7094100 139.4224580  68.9629780  44.1451800 139.0006610  69.1921670
  42.9678870 141.0510000  73.6975990  43.4235820 140.2699380  74.0114610
  43.3071390 141.7616820  74.2417170  30.7181420 136.8226460  80.8566730
  30.8812460 136.3531820  80.0386100  31.1833870 136.3150020  81.5215570
  35.4900190 125.9532220  75.8927300  35.0468340 126.7341760  75.5611820
  36.0485180 126.2762110  76.5998240  39.7770000 128.8200740  81.4962620
  39.3149370 129.0283760  82.3082560  39.3748110 128.0060090  81.1933290
  44.7774510 130.0409690  82.6259280  43.9268100 129.7415440  82.9468350
  44.6176300 130.2851700  81.7143100  41.8724220 131.5411440  84.7258070
  42.1977630 130.7075190  84.3860300  42.6604550 132.0639960  84.8736400
  38.6059010 125.5742920  70.7733130  37.9813190 125.5702790  71.4986440
  38.5189130 124.7073880  70.3769100  37.5276090 126.4979550  77.7516900
  37.8248420 127.4042380  77.6708920  38.0761650 126.0098330  77.1376470
  35.2814410 131.0765790  73.6208550  35.0555330 130.8602960  74.5255170
  34.5006940 131.5094250  73.2754520  42.5112170 131.0829160  72.2199200
  41.9121060 131.8064960  72.0362820  43.0591780 131.0205940  71.4375650
  37.7213620 131.9751370  84.2868820  37.6257220 131.0346100  84.1369220
  38.5645600 132.1966440  83.8916890  41.1177040 129.7192700  74.2502480
  41.5106610 130.0364900  73.4371170  41.4793890 128.8404580  74.3647000
  32.8524160 128.3865040  82.4402600  32.4587550 129.2340250  82.6475380
  32.1642560 127.7491410  82.6311240  30.1541210 126.3093500  76.4732680
  29.8654260 126.8796360  77.1857660  30.8986970 125.8297950  76.8363910
  30.3411440 130.2513620  67.6835400  30.2586110 131.1944380  67.8250390
  29.9894500 130.1088530  66.8047750  41.7032180 132.3098450  78.3453260
  40.9713300 132.8185260  78.6943360  41.3056520 131.4928430  78.0442040
  38.1409570 128.9852650  76.7505750  38.1445630 128.5442600  75.9010290
  39.0360690 129.3069980  76.8577570  33.9911950 128.8679140  75.7099960
  33.6512000 129.3454370  76.4667010  33.2289270 128.4144260  75.3501060
  38.2029720 129.9864730  69.7412510  38.3242540 129.9451210  70.6898330
  37.8178230 130.8488880  69.5859240  37.2151220 132.2965870  69.1395810
  36.6468120 131.8484120  68.5131720  37.9240220 132.6558650  68.6060960
  45.5928840 125.1764310  83.5962580  45.9174610 124.4453970  84.1220560
  45.6285350 124.8577950  82.6943570  32.2920400 136.1977890  83.0162540
  31.9075190 135.5571560  83.6145500  32.6032590 136.9014010  83.5857270
  38.4417540 133.0454430  78.4971160  38.8087670 132.5713000  79.2432500
  38.2522600 133.9196000  78.8379500  31.3058030 127.7898120  74.6264630
  31.0204950 127.4253790  75.4643250  31.2436890 127.0578580  74.0127770
  36.2316910 132.0863070  80.8155370  35.9273980 132.9655050  81.0405730
  37.1863370 132.1462860  80.8512810  34.7598700 136.2924060  71.4122220
  33.9860960 135.7521680  71.2520940  35.4893330 135.7730670  71.0739980
  45.5186680 135.2889420  77.2048610  46.2385800 135.7844710  76.8144720
  45.3168500 134.6107310  76.5602480  40.9796620 126.6827380  71.3478000
  40.1661230 126.1840550  71.2723310  40.7858570 127.5225630  70.9314350
  40.9005480 135.3598480  83.0917610  40.8342790 134.4394150  82.8375200
  40.2710620 135.4573920  83.8062250  43.6945010 131.0547030  69.6440160
  44.5824630 131.3664260  69.4691500  43.6650100 130.1819280  69.2520740
  34.8036100 135.9604440  75.0501030  35.3214770 135.1572700  74.9957920
  34.3520120 135.8983580  75.8917860  39.6905600 137.2270720  70.3228330
  40.0321300 137.9712950  69.8271650  38.8618310 137.5401840  70.6853160
  32.2880640 132.9265810  81.9626730  31.9295580 133.5919660  82.5500070
  31.9935200 132.0949360  82.3339350  35.4893760 133.3850050  84.8466280
  35.1893900 133.5307230  83.9494100  36.2605000 132.8255340  84.7539670
  40.8322210 138.1819050  82.8421410  40.8466750 137.2500010  82.6240320
  40.1247310 138.2678810  83.4811180  45.9659280 132.3658870  69.1120020
  45.8823000 132.7973090  68.2616460  46.6853470 132.8257220  69.5446840
  47.0433420 134.8226390  82.1889990  46.3181610 135.4155170  81.9919380
  47.5708880 134.8149930  81.3903360  46.9946530 139.2201130  71.8402150
  46.3522690 138.5656750  72.1145870  46.6077190 139.6256220  71.0642820
  42.5733010 136.5486560  75.6873840  42.9256830 135.9514690  75.0275210
  41.6895340 136.2230790  75.8582090  38.6596290 137.3084250  73.0944250
  39.3467420 137.8553460  73.4751840  37.8728710 137.8524980  73.1293860
  30.7988690 132.9257070  68.5861330  31.6683540 133.2081870  68.8697250
  30.3079010 133.7392940  68.4710140  37.9623500 134.3130280  72.7069610
  38.4186280 135.1235530  72.9329800  37.6111710 133.9953420  73.5388100
  40.2656110 139.8236620  79.9361910  40.9098330 140.0296000  80.6135330
  40.6285550 139.0625020  79.4832760  33.8635280 124.6567930  73.1792130
  33.7349910 124.6485830  74.1277050  33.0397300 124.9951020  72.8283140
  41.5388190 137.8268970  78.6539360  42.1810420 137.1262130  78.7671530
  42.0637540 138.6067410  78.4736250  45.3843910 138.1117590  68.3778500
  45.1581490 137.3948030  68.9703140  44.9940110 137.8630030  67.5400250
  43.3125810 138.6263870  81.8575420  43.6482050 139.2130560  82.5353340
  42.3926150 138.4956580  82.0873210  31.1659940 142.1384450  69.1522960
  31.5257580 142.7373790  68.4980230  31.0252280 142.6844340  69.9257990
  30.8629210 126.4159050  82.6398830  30.1487730 126.6155970  83.2451440
  31.2824250 125.6398620  83.0113630  44.9660160 136.0289530  70.0392660
  44.6781860 136.4902220  70.8270540  45.7612330 135.5687300  70.3076880
  31.1501800 140.4039310  83.6265360  31.2592920 139.4634050  83.4860750
  30.4982360 140.6694060  82.9779090  39.1414390 138.6755200  85.0263480
  38.8211260 137.9564440  85.5709170  38.4672750 139.3510270  85.0999540
  37.1828560 139.5215650  69.9696630  37.1738660 140.2545340  69.3541140
  36.2626920 139.2747230  70.0623590  32.7835200 134.7430540  70.7143390
  32.1763150 135.4829440  70.7238690  33.2584550 134.8329900  69.8881590
  42.3567990 128.9081360  80.3900280  42.7248810 128.0876570  80.7179850
  41.4966190 128.9683250  80.8055930  45.7230020 127.8638300  71.1987840
  45.0943180 127.9683970  70.4846070  45.2281940 128.0835080  71.9881720
  40.1688160 139.5843890  68.6321820  40.2700140 139.3807880  67.7023800
  39.2689900 139.3302170  68.8369600  37.6914050 130.1424250  72.6145720
  36.9830200 130.6110590  73.0559330  37.9758530 129.4846260  73.2490910
  39.3169980 131.5620950  80.6138250  39.8155230 132.0366770  81.2790100
  39.4592930 130.6384470  80.8208280  38.8106270 142.1030210  73.3269490
  39.0647770 142.0651600  72.4048860  37.8618750 141.9763540  73.3197740
  35.8949070 128.4509330  69.9896430  36.7439600 128.8879480  69.9236620
  35.5280340 128.7629590  70.8168490  44.8158850 133.0222090  74.9028000
  43.8748990 133.0372320  75.0775690  45.1302920 132.2358050  75.3488300
  34.7940490 134.7041690  68.4631960  35.5603760 134.5923050  69.0257390
  34.8715180 134.0079660  67.8108730  33.4887250 132.1366760  69.1464850
  33.5690840 131.1894270  69.2582250  34.3807000 132.4673640  69.2525510
  46.8184430 140.1930940  76.5782260  46.9431850 141.0162110  77.0506070
  47.6849990 139.9821670  76.2306410  34.2901960 142.2862150  76.2499390
  35.0264440 141.7377610  76.5207960  34.6742880 143.1518160  76.1105380
  31.1747440 138.3535720  72.1240900  30.2487220 138.5956860  72.1146310
  31.6403870 139.1809980  72.0025650  33.2960240 141.4708220  85.4384970
  34.0972970 141.7920270  85.8520370  32.7812060 141.1103800  86.1604880
  37.4004270 141.4592460  68.0724960  38.1932880 141.7481290  67.6206750
  36.8808620 141.0284630  67.3937440  42.1324870 137.5788090  85.3860380
  41.5263030 137.6019690  84.6456130  41.8278980 136.8471130  85.9227630
  43.5625240 141.3068380  83.9969790  44.5146990 141.2226400  83.9470030
  43.4153460 141.9710090  84.6703580  46.4534440 140.6862590  69.4961700
  46.1675950 140.2727730  68.6815880  46.2553990 141.6150300  69.3762220
  31.0158050 133.9581680  84.3821020  31.5197070 133.3788960  84.9537250
  30.2765470 134.2421910  84.9197390  37.9181670 136.6795870  67.9367310
  37.8132310 136.0648220  68.6628690  37.7505890 136.1561760  67.1530320
  38.0695990 135.3652670  83.9156540  37.3041660 135.9337670  83.8311210
  38.2511950 135.0728880  83.0224770  41.1584400 135.7415900  68.5409300
  40.6094500 136.1885200  69.1852040  41.7803660 135.2365150  69.0646970
  45.2119340 137.0958000  84.4731560  45.9528810 137.4333760  83.9699020
  44.4492020 137.2650060  83.9201330  33.0481130 132.1011270  85.2771090
  33.0886470 131.8025140  86.1856320  33.9026630 132.5018880  85.1178610
  36.8259520 134.7006820  70.4374600  37.2475940 134.5346690  71.2805990
  36.9510360 133.8907050  69.9429740  34.9886940 130.6803370  83.2445580
  34.4583400 130.1894320  82.6168920  35.6575010 131.1087570  82.7103510
  39.3387160 133.7244430  67.6851700  39.8592820 133.0093450  67.3192850
  39.9855560 134.3630300  67.9852210  43.8865000 135.1472830  83.0086770
  44.3006020 135.3017910  83.8577190  42.9516000 135.2728050  83.1712550
  44.3587170 132.4868990  85.0125920  44.9407940 131.7321310  84.9246400
  44.5348940 133.0176430  84.2357400  35.4759240 127.6465740  83.3242870
  35.3816110 127.0286490  82.5993740  34.8956630 128.3732030  83.0972780
  38.6480230 135.0993310  80.9782700  39.0668340 135.9426040  80.8058940
  37.7288860 135.2365350  80.7489480  40.9844130 132.8309490  82.3620540
  41.1040340 132.2350630  83.1015380  41.8438130 132.8679180  81.9421840
  43.3232030 133.3846680  80.9383050  42.7967250 133.9089300  80.3348190
  43.6663370 134.0174070  81.5692780  35.7218420 130.7740050  67.3832760
  35.5207480 129.9107410  67.7446100  35.5510470 130.6873410  66.4454360
  36.4987650 141.4046320  82.0940430  35.9608740 142.1292380  81.7749130
  36.7521610 140.9276660  81.3037770  37.7512900 129.3730840  83.6196360
  38.3412590 129.0646690  84.3074180  36.9333140 128.9010590  83.7756260
  42.5706330 128.9896650  83.8529380  41.8821850 128.3278190  83.7879370
  43.2912350 128.5434920  84.2977840  34.5201220 127.8740670  67.3710640
  34.8227120 127.8808100  66.4629790  35.2595810 127.5238530  67.8678300
  39.3549860 142.6397530  82.3527080  39.2808560 143.5432670  82.6599450
  38.4528700 142.3209430  82.3249150  37.7386150 126.8175290  68.3566840
  37.3908150 126.1399280  67.7769290  37.9398920 126.3564800  69.1710230
  39.9035190 141.8056040  69.9753440  40.7985980 142.1441010  69.9972200
  39.9352820 141.0835450  69.3477720  33.5431350 137.1783090  68.2040440
  33.9806220 137.7212760  68.8598020  34.0279080 136.3530040  68.2136780
  30.7577150 139.9672120  75.6560700  31.0880160 139.0993180  75.4239340
  31.1868150 140.1730640  76.4865660  35.3539070 138.2981130  73.3162670
  35.0534610 138.1746100  74.2166580  35.2476560 137.4389720  72.9078400
  31.2467360 140.8342710  78.3942330  30.8098350 141.0143510  79.2266480
  31.8145040 141.5917330  78.2524050  46.8829540 140.3359710  82.6819640
  46.2831530 140.3952270  81.9383560  47.0123440 139.3964690  82.8116490
  48.1230990 138.0777530  68.0189350  47.2923950 138.1454180  68.4896580
  48.3002820 138.9681650  67.7156210  47.5787450 134.8225010  70.5223550
  48.3406360 135.3921660  70.6283240  47.5941820 134.2552210  71.2931860
  31.0791790 133.3462940  74.7531210  30.4240630 133.0774580  74.1090910
  31.9169740 133.2367420  74.3033190  48.5847420 135.6775110  75.3665480
  48.9556250 134.8942430  74.9601450  49.2249350 136.3664210  75.1882780
  45.5681180 137.0611690  80.7795800  44.7541020 137.4908850  81.0421590
  45.9755380 137.6730100  80.1664850  47.6306620 135.1159380  67.6796070
  47.9055460 136.0238260  67.5515290  47.4417360 135.0521910  68.6158060
  44.0282230 128.1404230  68.9749700  44.4467110 127.9535210  68.1346360
  43.7218290 127.2883280  69.2852630  47.5271960 133.0528370  72.6725500
  47.1515560 132.2856300  72.2406790  46.7975080 133.4351070  73.1600430
  32.1167720 133.7315510  79.2934550  32.4840760 133.6442910  80.1730570
  31.5478540 132.9682060  79.1941410  46.9171580 132.1999890  82.3065020
  46.6857670 131.9712640  81.4062970  47.1776130 133.1199440  82.2609910
  31.6683720 130.6424600  83.1992970  30.7739770 130.6091360  83.5386680
  32.2081270 130.8411390  83.9644220  30.2929870 130.5561870  70.6956540
  29.3893950 130.8192070  70.5208200  30.7770490 130.8273040  69.9156500
  46.8022920 131.2785860  75.9732740  47.3260400 130.7848510  75.3422910
  47.3882340 131.4136220  76.7180310  46.9812640 131.3625730  79.4952290
  46.0315350 131.3289270  79.6097280  47.1625650 132.2725840  79.2602060
  32.8357080 129.6127410  68.6050920  33.5448780 129.1910630  68.1198200
  32.1197020 129.6802640  67.9734270  32.4831240 125.6666740  67.6453570
  33.2059370 126.2075680  67.9634790  32.7555760 125.3930160  66.7695110
  46.2922890 130.5359210  71.9125150  46.7882010 130.3030080  72.6974030
  46.0938960 129.6971050  71.4962790  32.1723430 124.9172930  77.5476190
  32.8199620 124.3670310  77.1071350  32.5925270 125.1716080  78.3692000
  47.7210050 129.1720160  74.4462830  47.6109330 129.0176200  75.3845100
  48.4817640 128.6441100  74.2038240  46.0675770 125.1114290  80.9045830
  46.7047990 125.7248430  81.2705020  46.2150660 125.1474950  79.9595060
  45.6257230 141.8130290  74.3064070  46.2216300 141.4914860  73.6298490
  45.8835380 141.3402110  75.0977340  31.9255430 125.0728600  80.2901510
  31.5770250 125.5292420  81.0559690  31.5943130 124.1785730  80.3723940
  33.5319800 138.2448200  84.4554700  33.4889430 137.8741110  85.3369160
  33.6630810 139.1825770  84.5956520  37.2325830 139.8007790  80.0564420
  36.9917190 140.0682350  79.1694940  38.1728470 139.9713520  80.1115280
  48.4929990 141.8202170  80.8575060  47.9988270 142.2171040  80.1402190
  47.8843280 141.1951380  81.2512340  32.5976070 124.6004800  83.5652280
  33.1459060 124.4192850  82.8018390  32.6631380 123.8098910  84.1008590
  33.3707830 141.1910450  81.5752480  32.7768150 141.0595150  82.3142520
  33.3631670 140.3548590  81.1094580  42.8162850 124.4842680  79.7782510
  41.9422690 124.8177790  79.5755440  42.7073600 124.0115860  80.6034380
  43.7234830 126.6913550  81.1624230  43.3948190 125.8765310  80.7825960
  44.6717130 126.6483360  81.0389920  46.1769440 142.4625590  78.1361800
  45.7172410 143.2141400  77.7619820  45.5481900 141.7432060  78.0776600
  33.0020060 138.5568830  80.5260520  32.2754120 137.9374120  80.4586470
  33.0629210 138.9509440  79.6558600  36.6065160 140.7713830  77.3109930
  37.1230180 140.1601190  76.7858190  37.2562540 141.2742610  77.8020940
  39.3460660 141.6622320  78.1378910  39.6338470 141.4076620  77.2611920
  39.8583880 141.1099680  78.7284480  40.5637670 125.4012520  78.7175420
  39.7809460 125.8758020  78.9972180  40.2700600 124.4967350  78.6088600
  31.2850060 141.8743220  73.7357280  31.1172100 141.2413900  74.4339170
  30.4184570 142.0802620  73.3851470  31.9078080 125.7060000  71.2389140
  32.6657440 125.8188880  70.6653170  31.4455250 126.5429200  71.1932570
  38.4491890 127.8199270  74.2291450  37.6366400 127.4456160  73.8887330
  38.9533530 127.0644350  74.5312640  32.8912760 140.5676450  71.1807420
  32.3660380 140.9484480  70.4769380  32.8157340 141.1927220  71.9017130
  34.2803230 126.2324050  69.7791110  34.8095990 125.4453850  69.6499060
  34.9131550 126.9115240  70.0126640  36.4741070 125.9699190  72.8336500
  35.8443810 125.2686500  73.0006630  35.9346210 126.7303320  72.6169660
  39.4133020 142.5838420  85.5047110  40.3400330 142.3482690  85.5483070
  39.3983450 143.4110420  85.0233140  47.6478080 142.1263990  72.5021360
  47.8230270 141.4401730  71.8582280  46.9499650 142.6511040  72.1098030
  35.4905730 142.5158830  70.0556670  36.2224550 142.2318110  69.5080560
  35.7499400 142.2772110  70.9456050  34.6520520 138.6323560  70.0603000
  34.0229400 139.1008660  70.6088830  34.7668350 137.7872780  70.4949190
  43.2012090 124.6636750  85.8469460  43.0877540 124.9831360  86.7420980
  44.0181830 125.0649260  85.5506740  45.9810580 141.8108280  85.3288150
  46.7735900 141.3157510  85.1214110  46.2743730 142.4898420  85.9363760
  42.1070240 132.6829220  56.2104200  42.0264290 131.7683830  55.9395910
  41.6934660 133.1796290  55.5043910  40.2388280 134.4608240  58.0913470
  39.4630380 133.9808680  58.3812040  40.8901210 133.7813890  57.9169630
  34.2554110 134.7728050  58.9689230  33.4238990 134.5176760  59.3685740
  34.8635090 134.8438820  59.7047150  44.2595710 138.8668430  56.8712600
  43.7977240 138.0955670  57.1999770  45.0721260 138.8934500  57.3765050
  34.2355370 138.8068140  59.1647250  34.5383410 137.9165880  58.9857470
  34.9798960 139.3638360  58.9369500  32.6646060 129.7329940  52.7531620
  31.7762760 130.0745910  52.6511500  32.9487250 129.5330260  51.8612450
  30.6279070 132.3335590  58.6371320  31.1995180 131.5657790  58.6374960
  30.6280610 132.6324350  57.7277930  40.4859020 141.1526440  56.4916590
  39.8670460 141.6083940  55.9211030  41.3410800 141.3077900  56.0906290
  39.6797270 137.1365430  58.0983630  39.6105550 136.1955370  57.9372760
  40.4417130 137.2266840  58.6706200  31.8703940 127.7419950  60.4240250
  31.6906780 126.8445700  60.7043010  31.4684020 128.2891820  61.0987200
  40.7102440 129.9435810  58.3252560  41.0867260 129.0707690  58.2126230
  40.6121950 130.2794510  57.4343000  34.8407450 128.3161440  53.7870000
  34.9474200 129.2165170  54.0938760  33.9299810 128.2679410  53.4964650
  44.4926560 127.4386250  55.2580900  45.3136180 126.9482820  55.3006380
  44.5260640 128.0283910  56.0112740  32.4890610 130.2380450  59.0322590
  33.1700720 130.5018820  59.6509990  32.1738660 129.3981320  59.3660600
  36.6815180 131.2847810  58.1195180  37.1893400 131.7828780  58.7600200
  37.2128420 130.5083010  57.9434540  48.7826110 129.4553000  61.8224530
  48.0778280 129.8434710  61.3039640  49.0484030 130.1503290  62.4245460
  34.9651280 125.9246370  62.3858600  34.9669720 126.4418760  61.5804500
  34.1355590 125.4476550  62.3628530  41.3522370 136.0365680  53.8848500
  40.7339640 136.5015130  53.3211220  41.8645620 136.7293160  54.3018010
  36.2154130 135.5641550  60.5632100  35.8823510 136.1910470  61.2053170
  36.3920810 136.0903430  59.7833770  44.7288040 129.3786630  58.0308440
  44.0243610 129.6671520  58.6111550  45.0900200 130.1886740  57.6708000
  34.6466610 127.6356330  60.3929050  34.9883420 128.4798380  60.0982920
  33.7082420 127.7840070  60.5094390  35.4273230 137.5322350  62.3781280
  36.0447230 138.2073430  62.0965730  34.5666350 137.9410330  62.2868780
  30.7205570 136.7222210  51.2588130  30.3433550 137.2109310  50.5273030
  30.9778640 137.3947490  51.8894660  46.3450820 138.9961760  60.2935920
  45.6614340 139.6660870  60.2852590  46.8845110 139.1942410  59.5280780
  47.7974960 128.8241420  58.4217650  46.8499870 128.8580400  58.5533080
  48.1224950 129.6380370  58.8067010  38.3294500 125.1238600  56.7173640
  38.6369480 124.5685490  56.0009140  37.3995200 125.2583060  56.5346630
  43.8809560 140.8405890  59.0081100  43.8936720 140.4368180  58.1403360
  43.3284780 141.6153180  58.9042530  45.1754980 137.5622110  54.0971270
  45.0651310 136.6196440  54.2220690  45.1723230 137.9237750  54.9834030
  43.2795000 135.7435730  60.3363710  43.6963790 135.5295840  59.5017170
  44.0034820 136.0008520  60.9072330  40.7175260 133.1887430  53.4533760
  39.7904540 133.1224810  53.6822230  40.8700080 134.1267560  53.3389000
  40.7044340 129.4604430  50.4500920  39.7648010 129.6218390  50.5353380
  41.0227600 130.1790110  49.9036910  47.2257100 134.1422950  60.4279950
  46.3975730 134.2116040  59.9530080  47.8207580 134.7277260  59.9595780
  44.7472550 134.7507730  53.9569010  44.1284970 134.4127280  53.3095310
  44.7297000 134.1067490  54.6648200  44.1899110 130.9292270  61.3734820
  43.7770290 131.7545980  61.6274810  43.4575060 130.3437310  61.1811180
  36.3231900 133.7152170  56.2353490  35.9188900 133.0029420  55.7399390
  36.4095020 133.3705410  57.1241530  36.7913600 137.4019730  58.3992700
  36.4941890 136.7965200  57.7200480  37.7413420 137.4397040  58.2882060
  35.0360520 130.4895380  60.0152530  35.5875110 130.5990720  59.2405780
  35.5504030 130.8632980  60.7307760  44.8799210 140.9751600  62.0615800
  44.4029770 141.7823790  61.8688410  44.1961000 140.3229930  62.2142010
  35.8832030 137.1401420  65.0500500  34.9860560 137.3641390  65.2973900
  35.9084900 137.2636360  64.1011900  42.9237250 133.9894540  50.9641760
  43.3630530 133.1516970  50.8179580  43.6365670 134.6223940  51.0505900
  34.7103250 134.0114740  63.6257870  34.5711020 134.8837540  63.9945270
  33.8284610 133.6687550  63.4805810  41.0332630 138.9290610  54.9323000
  41.4728540 139.6714940  54.5178390  40.9719520 139.1717180  55.8561960
  36.5083600 139.9536440  65.8343020  36.4799030 140.3579390  64.9671450
  36.3448570 139.0246800  65.6714620  46.5054390 125.2437350  49.2782800
  46.1927050 125.3364180  50.1781870  47.2666860 125.8218380  49.2280230
  33.0236530 132.6097150  53.7360140  32.9034130 133.3359240  53.1241410
  32.7137420 131.8400060  53.2588050  48.4598420 140.7363540  67.1307190
  48.9358140 141.2146430  67.8096270  49.0805580 140.6681030  66.4052690
  30.6621900 135.7812290  59.5428780  30.7402320 135.9161060  58.5984500
  31.2763580 135.0728180  59.7356900  31.9069530 137.4812480  55.9534960
  31.4997610 137.6227070  55.0988560  32.7982540 137.1972640  55.7506170
  47.8631670 137.9276390  64.2907200  47.9894730 137.6888270  63.3724380
  47.9053050 137.0960930  64.7629280  41.7248410 141.6304390  62.8602010
  42.2393080 141.5412400  63.6624440  40.8817490 141.9764090  63.1529920
  43.7002810 141.9159730  52.2886010  43.5403950 141.6262670  53.1867840
  43.5349520 141.1399860  51.7531240  36.1791190 141.6958260  54.0657630
  36.0033670 140.7793800  53.8525430  35.3246930 142.0545550  54.3055430
  43.4028940 139.4247290  50.8484010  42.7094100 139.4224580  50.1886290
  44.1451800 139.0006610  50.4178180  42.9678870 141.0510000  54.9232500
  43.4235820 140.2699380  55.2371120  43.3071390 141.7616820  55.4673680
  47.7155680 129.9808850  65.2556940  47.0999950 130.4888520  64.7272400
  47.3952100 129.0807180  65.1982880  30.7181420 136.8226460  62.0823240
  30.8812460 136.3531820  61.2642610  31.1833870 136.3150020  62.7472080
  35.4900190 125.9532220  57.1183810  35.0468340 126.7341760  56.7868330
  36.0485180 126.2762110  57.8254750  39.7770000 128.8200740  62.7219130
  39.3149370 129.0283760  63.5339070  39.3748110 128.0060090  62.4189800
  44.7774510 130.0409690  63.8515790  43.9268100 129.7415440  64.1724860
  44.6176300 130.2851700  62.9399610  41.8724220 131.5411440  65.9514580
  42.1977630 130.7075190  65.6116810  42.6604550 132.0639960  66.0992910
  38.6059010 125.5742920  51.9989640  37.9813190 125.5702790  52.7242950
  38.5189130 124.7073880  51.6025610  37.5276090 126.4979550  58.9773410
  37.8248420 127.4042380  58.8965430  38.0761650 126.0098330  58.3632980
  35.2814410 131.0765790  54.8465060  35.0555330 130.8602960  55.7511680
  34.5006940 131.5094250  54.5011030  42.5112170 131.0829160  53.4455710
  41.9121060 131.8064960  53.2619330  43.0591780 131.0205940  52.6632160
  37.7213620 131.9751370  65.5125330  37.6257220 131.0346100  65.3625730
  38.5645600 132.1966440  65.1173400  41.1177040 129.7192700  55.4758990
  41.5106610 130.0364900  54.6627680  41.4793890 128.8404580  55.5903510
  32.8524160 128.3865040  63.6659110  32.4587550 129.2340250  63.8731890
  32.1642560 127.7491410  63.8567750  39.4269210 128.4700010  66.7355850
  38.7367530 128.2772210  67.3701940  40.1701510 128.7534650  67.2680150
  30.1541210 126.3093500  57.6989190  29.8654260 126.8796360  58.4114170
  30.8986970 125.8297950  58.0620420  30.3411440 130.2513620  48.9091910
  30.2586110 131.1944380  49.0506900  29.9894500 130.1088530  48.0304260
  41.7032180 132.3098450  59.5709770  40.9713300 132.8185260  59.9199870
  41.3056520 131.4928430  59.2698550  38.1409570 128.9852650  57.9762260
  38.1445630 128.5442600  57.1266800  39.0360690 129.3069980  58.0834080
  33.9911950 128.8679140  56.9356470  33.6512000 129.3454370  57.6923520
  33.2289270 128.4144260  56.5757570  38.2029720 129.9864730  50.9669020
  38.3242540 129.9451210  51.9154840  37.8178230 130.8488880  50.8115750
  37.2151220 132.2965870  50.3652320  36.6468120 131.8484120  49.7388230
  37.9240220 132.6558650  49.8317470  45.5928840 125.1764310  64.8219090
  45.9174610 124.4453970  65.3477070  45.6285350 124.8577950  63.9200080
  32.2920400 136.1977890  64.2419050  31.9075190 135.5571560  64.8402010
  32.6032590 136.9014010  64.8113780  38.4417540 133.0454430  59.7227670
  38.8087670 132.5713000  60.4689010  38.2522600 133.9196000  60.0636010
  31.3058030 127.7898120  55.8521140  31.0204950 127.4253790  56.6899760
  31.2436890 127.0578580  55.2384280  36.2316910 132.0863070  62.0411880
  35.9273980 132.9655050  62.2662240  37.1863370 132.1462860  62.0769320
  34.7598700 136.2924060  52.6378730  33.9860960 135.7521680  52.4777450
  35.4893330 135.7730670  52.2996490  45.5186680 135.2889420  58.4305120
  46.2385800 135.7844710  58.0401230  45.3168500 134.6107310  57.7858990
  40.9796620 126.6827380  52.5734510  40.1661230 126.1840550  52.4979820
  40.7858570 127.5225630  52.1570860  40.9005480 135.3598480  64.3174120
  40.8342790 134.4394150  64.0631710  40.2710620 135.4573920  65.0318760
  43.6945010 131.0547030  50.8696670  44.5824630 131.3664260  50.6948010
  43.6650100 130.1819280  50.4777250  34.8036100 135.9604440  56.2757540
  35.3214770 135.1572700  56.2214430  34.3520120 135.8983580  57.1174370
  39.6905600 137.2270720  51.5484840  40.0321300 137.9712950  51.0528160
  38.8618310 137.5401840  51.9109670  32.2880640 132.9265810  63.1883240
  31.9295580 133.5919660  63.7756580  31.9935200 132.0949360  63.5595860
  35.4893760 133.3850050  66.0722790  35.1893900 133.5307230  65.1750610
  36.2605000 132.8255340  65.9796180  40.8322210 138.1819050  64.0677920
  40.8466750 137.2500010  63.8496830  40.1247310 138.2678810  64.7067690
  45.9659280 132.3658870  50.3376530  45.8823000 132.7973090  49.4872970
  46.6853470 132.8257220  50.7703350  47.0433420 134.8226390  63.4146500
  46.3181610 135.4155170  63.2175890  47.5708880 134.8149930  62.6159870
  46.9946530 139.2201130  53.0658660  46.3522690 138.5656750  53.3402380
  46.6077190 139.6256220  52.2899330  42.5733010 136.5486560  56.9130350
  42.9256830 135.9514690  56.2531720  41.6895340 136.2230790  57.0838600
  38.6596290 137.3084250  54.3200760  39.3467420 137.8553460  54.7008350
  37.8728710 137.8524980  54.3550370  30.7988690 132.9257070  49.8117840
  31.6683540 133.2081870  50.0953760  30.3079010 133.7392940  49.6966650
  37.9623500 134.3130280  53.9326120  38.4186280 135.1235530  54.1586310
  37.6111710 133.9953420  54.7644610  40.2656110 139.8236620  61.1618420
  40.9098330 140.0296000  61.8391840  40.6285550 139.0625020  60.7089270
  33.8635280 124.6567930  54.4048640  33.7349910 124.6485830  55.3533560
  33.0397300 124.9951020  54.0539650  41.5388190 137.8268970  59.8795870
  42.1810420 137.1262130  59.9928040  42.0637540 138.6067410  59.6992760
  45.3843910 138.1117590  49.6035010  45.1581490 137.3948030  50.1959650
  44.9940110 137.8630030  48.7656760  43.3125810 138.6263870  63.0831930
  43.6482050 139.2130560  63.7609850  42.3926150 138.4956580  63.3129720
  31.1659940 142.1384450  50.3779470  31.5257580 142.7373790  49.7236740
  31.0252280 142.6844340  51.1514500  30.8629210 126.4159050  63.8655340
  30.1487730 126.6155970  64.4707950  31.2824250 125.6398620  64.2370140
  44.9660160 136.0289530  51.2649170  44.6781860 136.4902220  52.0527050
  45.7612330 135.5687300  51.5333390  31.1501800 140.4039310  64.8521870
  31.2592920 139.4634050  64.7117260  30.4982360 140.6694060  64.2035600
  39.1414390 138.6755200  66.2519990  38.8211260 137.9564440  66.7965680
  38.4672750 139.3510270  66.3256050  37.1828560 139.5215650  51.1953140
  37.1738660 140.2545340  50.5797650  36.2626920 139.2747230  51.2880100
  32.7835200 134.7430540  51.9399900  32.1763150 135.4829440  51.9495200
  33.2584550 134.8329900  51.1138100  42.3567990 128.9081360  61.6156790
  42.7248810 128.0876570  61.9436360  41.4966190 128.9683250  62.0312440
  45.7230020 127.8638300  52.4244350  45.0943180 127.9683970  51.7102580
  45.2281940 128.0835080  53.2138230  40.1688160 139.5843890  49.8578330
  40.2700140 139.3807880  48.9280310  39.2689900 139.3302170  50.0626110
  37.6914050 130.1424250  53.8402230  36.9830200 130.6110590  54.2815840
  37.9758530 129.4846260  54.4747420  39.3169980 131.5620950  61.8394760
  39.8155230 132.0366770  62.5046610  39.4592930 130.6384470  62.0464790
  41.7229480 126.8674910  55.2798020  41.5997260 126.8861040  54.3307530
  42.6714040 126.9153850  55.3996420  38.8106270 142.1030210  54.5526000
  39.0647770 142.0651600  53.6305370  37.8618750 141.9763540  54.5454250
  35.8949070 128.4509330  51.2152940  36.7439600 128.8879480  51.1493130
  35.5280340 128.7629590  52.0425000  46.5236840 127.7788910  62.6823150
  46.0210440 128.5194310  63.0216960  47.3393500 128.1672910  62.3659940
  44.8158850 133.0222090  56.1284510  43.8748990 133.0372320  56.3032200
  45.1302920 132.2358050  56.5744810  34.7940490 134.7041690  49.6888470
  35.5603760 134.5923050  50.2513900  34.8715180 134.0079660  49.0365240
  33.4887250 132.1366760  50.3721360  33.5690840 131.1894270  50.4838760
  34.3807000 132.4673640  50.4782020  46.8184430 140.1930940  57.8038770
  46.9431850 141.0162110  58.2762580  47.6849990 139.9821670  57.4562920
  34.2901960 142.2862150  57.4755900  35.0264440 141.7377610  57.7464470
  34.6742880 143.1518160  57.3361890  31.1747440 138.3535720  53.3497410
  30.2487220 138.5956860  53.3402820  31.6403870 139.1809980  53.2282160
  33.2960240 141.4708220  66.6641480  34.0972970 141.7920270  67.0776880
  32.7812060 141.1103800  67.3861390  37.4004270 141.4592460  49.2981470
  38.1932880 141.7481290  48.8463260  36.8808620 141.0284630  48.6193950
  42.1324870 137.5788090  66.6116890  41.5263030 137.6019690  65.8712640
  41.8278980 136.8471130  67.1484140  43.5625240 141.3068380  65.2226300
  44.5146990 141.2226400  65.1726540  43.4153460 141.9710090  65.8960090
  46.4534440 140.6862590  50.7218210  46.1675950 140.2727730  49.9072390
  46.2553990 141.6150300  50.6018730  31.0158050 133.9581680  65.6077530
  31.5197070 133.3788960  66.1793760  30.2765470 134.2421910  66.1453900
  37.9181670 136.6795870  49.1623820  37.8132310 136.0648220  49.8885200
  37.7505890 136.1561760  48.3786830  38.0695990 135.3652670  65.1413050
  37.3041660 135.9337670  65.0567720  38.2511950 135.0728880  64.2481280
  41.1584400 135.7415900  49.7665810  40.6094500 136.1885200  50.4108550
  41.7803660 135.2365150  50.2903480  45.2119340 137.0958000  65.6988070
  45.9528810 137.4333760  65.1955530  44.4492020 137.2650060  65.1457840
  33.0481130 132.1011270  66.5027600  33.0886470 131.8025140  67.4112830
  33.9026630 132.5018880  66.3435120  36.8259520 134.7006820  51.6631110
  37.2475940 134.5346690  52.5062500  36.9510360 133.8907050  51.1686250
  34.9886940 130.6803370  64.4702090  34.4583400 130.1894320  63.8425430
  35.6575010 131.1087570  63.9360020  39.3387160 133.7244430  48.9108210
  39.8592820 133.0093450  48.5449360  39.9855560 134.3630300  49.2108720
  43.8865000 135.1472830  64.2343280  44.3006020 135.3017910  65.0833700
  42.9516000 135.2728050  64.3969060  44.3587170 132.4868990  66.2382430
  44.9407940 131.7321310  66.1502910  44.5348940 133.0176430  65.4613910
  35.4759240 127.6465740  64.5499380  35.3816110 127.0286490  63.8250250
  34.8956630 128.3732030  64.3229290  38.2420680 126.2038980  61.5826770
  37.7937980 126.2263240  60.7372320  37.6085880 125.8058000  62.1797070
  38.6480230 135.0993310  62.2039210  39.0668340 135.9426040  62.0315450
  37.7288860 135.2365350  61.9745990  40.9844130 132.8309490  63.5877050
  41.1040340 132.2350630  64.3271890  41.8438130 132.8679180  63.1678350
  43.3232030 133.3846680  62.1639560  42.7967250 133.9089300  61.5604700
  43.6663370 134.0174070  62.7949290  35.7218420 130.7740050  48.6089270
  35.5207480 129.9107410  48.9702610  35.5510470 130.6873410  47.6710870
  36.4987650 141.4046320  63.3196940  35.9608740 142.1292380  63.0005640
  36.7521610 140.9276660  62.5294280  37.7512900 129.3730840  64.8452870
  38.3412590 129.0646690  65.5330690  36.9333140 128.9010590  65.0012770
  42.5706330 128.9896650  65.0785890  41.8821850 128.3278190  65.0135880
  43.2912350 128.5434920  65.5234350  43.2006730 125.5848280  51.1376150
  43.4809020 124.7416180  51.4935570  42.4272460 125.8171390  51.6514900
  34.5201220 127.8740670  48.5967150  34.8227120 127.8808100  47.6886300
  35.2595810 127.5238530  49.0934810  39.3549860 142.6397530  63.5783590
  39.2808560 143.5432670  63.8855960  38.4528700 142.3209430  63.5505660
  37.7386150 126.8175290  49.5823350  37.3908150 126.1399280  49.0025800
  37.9398920 126.3564800  50.3966740  39.9035190 141.8056040  51.2009950
  40.7985980 142.1441010  51.2228710  39.9352820 141.0835450  50.5734230
  33.5431350 137.1783090  49.4296950  33.9806220 137.7212760  50.0854530
  34.0279080 136.3530040  49.4393290  30.7577150 139.9672120  56.8817210
  31.0880160 139.0993180  56.6495850  31.1868150 140.1730640  57.7122170
  35.3539070 138.2981130  54.5419180  35.0534610 138.1746100  55.4423090
  35.2476560 137.4389720  54.1334910  31.2467360 140.8342710  59.6198840
  30.8098350 141.0143510  60.4522990  31.8145040 141.5917330  59.4780560
  46.8829540 140.3359710  63.9076150  46.2831530 140.3952270  63.1640070
  47.0123440 139.3964690  64.0373000  48.1230990 138.0777530  49.2445860
  47.2923950 138.1454180  49.7153090  48.3002820 138.9681650  48.9412720
  47.5787450 134.8225010  51.7480060  48.3406360 135.3921660  51.8539750
  47.5941820 134.2552210  52.5188370  31.0791790 133.3462940  55.9787720
  30.4240630 133.0774580  55.3347420  31.9169740 133.2367420  55.5289700
  48.5847420 135.6775110  56.5921990  48.9556250 134.8942430  56.1857960
  49.2249350 136.3664210  56.4139290  45.5681180 137.0611690  62.0052310
  44.7541020 137.4908850  62.2678100  45.9755380 137.6730100  61.3921360
  47.6306620 135.1159380  48.9052580  47.9055460 136.0238260  48.7771800
  47.4417360 135.0521910  49.8414570  44.0282230 128.1404230  50.2006210
  44.4467110 127.9535210  49.3602870  43.7218290 127.2883280  50.5109140
  47.5271960 133.0528370  53.8982010  47.1515560 132.2856300  53.4663300
  46.7975080 133.4351070  54.3856940  32.1167720 133.7315510  60.5191060
  32.4840760 133.6442910  61.3987080  31.5478540 132.9682060  60.4197920
  46.9171580 132.1999890  63.5321530  46.6857670 131.9712640  62.6319480
  47.1776130 133.1199440  63.4866420  31.6683720 130.6424600  64.4249480
  30.7739770 130.6091360  64.7643190  32.2081270 130.8411390  65.1900730
  45.3559650 127.4256320  66.3101230  46.2329830 127.4339720  66.6935230
  45.3680490 126.6887160  65.6993580  30.2929870 130.5561870  51.9213050
  29.3893950 130.8192070  51.7464710  30.7770490 130.8273040  51.1413010
  46.8022920 131.2785860  57.1989250  47.3260400 130.7848510  56.5679420
  47.3882340 131.4136220  57.9436820  46.9812640 131.3625730  60.7208800
  46.0315350 131.3289270  60.8353790  47.1625650 132.2725840  60.4858570
  32.8357080 129.6127410  49.8307430  33.5448780 129.1910630  49.3454710
  32.1197020 129.6802640  49.1990780  32.4831240 125.6666740  48.8710080
  33.2059370 126.2075680  49.1891300  32.7555760 125.3930160  47.9951620
  46.2922890 130.5359210  53.1381660  46.7882010 130.3030080  53.9230540
  46.0938960 129.6971050  52.7219300  32.1723430 124.9172930  58.7732700
  32.8199620 124.3670310  58.3327860  32.5925270 125.1716080  59.5948510
  47.7210050 129.1720160  55.6719340  47.6109330 129.0176200  56.6101610
  48.4817640 128.6441100  55.4294750  48.6100320 127.0028080  48.9125480
  49.5349630 126.8709260  48.7043770  48.5876110 127.0820900  49.8661930
  48.6838810 127.7738740  51.5382190  47.8890310 127.7083860  52.0675100
  48.8882090 128.7089380  51.5267540  45.6257230 141.8130290  55.5320580
  46.2216300 141.4914860  54.8555000  45.8835380 141.3402110  56.3233850
  31.9255430 125.0728600  61.5158020  31.5770250 125.5292420  62.2816200
  31.5943130 124.1785730  61.5980450  33.5319800 138.2448200  65.6811210
  33.4889430 137.8741110  66.5625670  33.6630810 139.1825770  65.8213030
  37.2325830 139.8007790  61.2820930  36.9917190 140.0682350  60.3951450
  38.1728470 139.9713520  61.3371790  39.4380250 126.2640480  65.0377440
  39.3769140 126.8562310  65.7872850  40.3780630 126.1566440  64.8927700
  42.0754810 125.9210540  64.6769730  42.6895220 126.2389830  64.0150810
  42.6204370 125.4359130  65.2965590  48.4929990 141.8202170  62.0831570
  47.9988270 142.2171040  61.3658700  47.8843280 141.1951380  62.4768850
  32.5976070 124.6004800  64.7908790  33.1459060 124.4192850  64.0274900
  32.6631380 123.8098910  65.3265100  33.3707830 141.1910450  62.8008990
  32.7768150 141.0595150  63.5399030  33.3631670 140.3548590  62.3351090
  46.1769440 142.4625590  59.3618310  45.7172410 143.2141400  58.9876330
  45.5481900 141.7432060  59.3033110  33.0020060 138.5568830  61.7517030
  32.2754120 137.9374120  61.6842980  33.0629210 138.9509440  60.8815110
  36.6065160 140.7713830  58.5366440  37.1230180 140.1601190  58.0114700
  37.2562540 141.2742610  59.0277450  39.3460660 141.6622320  59.3635420
  39.6338470 141.4076620  58.4868430  39.8583880 141.1099680  59.9540990
  46.9797310 125.7350860  55.9989840  46.9185710 124.7912080  55.8520860
  47.7589340 125.8430950  56.5443300  31.2850060 141.8743220  54.9613790
  31.1172100 141.2413900  55.6595680  30.4184570 142.0802620  54.6107980
  31.9078080 125.7060000  52.4645650  32.6657440 125.8188880  51.8909680
  31.4455250 126.5429200  52.4189080  38.4491890 127.8199270  55.4547960
  37.6366400 127.4456160  55.1143840  38.9533530 127.0644350  55.7569150
  46.0951470 124.8863280  51.9671310  46.2902100 125.7846730  52.2338740
  45.3081340 124.6550360  52.4604260  32.8912760 140.5676450  52.4063930
  32.3660380 140.9484480  51.7025890  32.8157340 141.1927220  53.1273640
  34.2803230 126.2324050  51.0047620  34.8095990 125.4453850  50.8755570
  34.9131550 126.9115240  51.2383150  36.4741070 125.9699190  54.0593010
  35.8443810 125.2686500  54.2263140  35.9346210 126.7303320  53.8426170
  39.4133020 142.5838420  66.7303620  40.3400330 142.3482690  66.7739580
  39.3983450 143.4110420  66.2489650  47.6478080 142.1263990  53.7277870
  47.8230270 141.4401730  53.0838790  46.9499650 142.6511040  53.3354540
  36.5996630 125.2483170  66.4945500  36.3180900 125.7516770  65.7306320
  36.9816330 124.4504920  66.1287630  35.4905730 142.5158830  51.2813180
  36.2224550 142.2318110  50.7337070  35.7499400 142.2772110  52.1712560
  34.6520520 138.6323560  51.2859510  34.0229400 139.1008660  51.8345340
  34.7668350 137.7872780  51.7205700  43.2012090 124.6636750  67.0725970
  43.0877540 124.9831360  67.9677490  44.0181830 125.0649260  66.7763250
  45.9810580 141.8108280  66.5544660  46.7735900 141.3157510  66.3470620
  46.2743730 142.4898420  67.1620270  42.1070240 132.6829220  37.4360710
  42.0264290 131.7683830  37.1652420  41.6934660 133.1796290  36.7300420
  40.2388280 134.4608240  39.3169980  39.4630380 133.9808680  39.6068550
  40.8901210 133.7813890  39.1426140  34.2554110 134.7728050  40.1945740
  33.4238990 134.5176760  40.5942250  34.8635090 134.8438820  40.9303660
  44.2595710 138.8668430  38.0969110  43.7977240 138.0955670  38.4256280
  45.0721260 138.8934500  38.6021560  34.2355370 138.8068140  40.3903760
  34.5383410 137.9165880  40.2113980  34.9798960 139.3638360  40.1626010
  32.6646060 129.7329940  33.9788130  31.7762760 130.0745910  33.8768010
  32.9487250 129.5330260  33.0868960  30.6279070 132.3335590  39.8627830
  31.1995180 131.5657790  39.8631470  30.6280610 132.6324350  38.9534440
  40.4859020 141.1526440  37.7173100  39.8670460 141.6083940  37.1467540
  41.3410800 141.3077900  37.3162800  39.6797270 137.1365430  39.3240140
  39.6105550 136.1955370  39.1629270  40.4417130 137.2266840  39.8962710
  31.8703940 127.7419950  41.6496760  31.6906780 126.8445700  41.9299520
  31.4684020 128.2891820  42.3243710  40.7102440 129.9435810  39.5509070
  41.0867260 129.0707690  39.4382740  40.6121950 130.2794510  38.6599510
  34.8407450 128.3161440  35.0126510  34.9474200 129.2165170  35.3195270
  33.9299810 128.2679410  34.7221160  44.4926560 127.4386250  36.4837410
  45.3136180 126.9482820  36.5262890  44.5260640 128.0283910  37.2369250
  32.4890610 130.2380450  40.2579100  33.1700720 130.5018820  40.8766500
  32.1738660 129.3981320  40.5917110  36.6815180 131.2847810  39.3451690
  37.1893400 131.7828780  39.9856710  37.2128420 130.5083010  39.1691050
  48.7826110 129.4553000  43.0481040  48.0778280 129.8434710  42.5296150
  49.0484030 130.1503290  43.6501970  34.9651280 125.9246370  43.6115110
  34.9669720 126.4418760  42.8061010  34.1355590 125.4476550  43.5885040
  41.3522370 136.0365680  35.1105010  40.7339640 136.5015130  34.5467730
  41.8645620 136.7293160  35.5274520  36.2154130 135.5641550  41.7888610
  35.8823510 136.1910470  42.4309680  36.3920810 136.0903430  41.0090280
  44.7288040 129.3786630  39.2564950  44.0243610 129.6671520  39.8368060
  45.0900200 130.1886740  38.8964510  34.6466610 127.6356330  41.6185560
  34.9883420 128.4798380  41.3239430  33.7082420 127.7840070  41.7350900
  35.4273230 137.5322350  43.6037790  36.0447230 138.2073430  43.3222240
  34.5666350 137.9410330  43.5125290  30.7205570 136.7222210  32.4844640
  30.3433550 137.2109310  31.7529540  30.9778640 137.3947490  33.1151170
  46.3450820 138.9961760  41.5192430  45.6614340 139.6660870  41.5109100
  46.8845110 139.1942410  40.7537290  47.7974960 128.8241420  39.6474160
  46.8499870 128.8580400  39.7789590  48.1224950 129.6380370  40.0323520
  38.3294500 125.1238600  37.9430150  38.6369480 124.5685490  37.2265650
  37.3995200 125.2583060  37.7603140  43.8809560 140.8405890  40.2337610
  43.8936720 140.4368180  39.3659870  43.3284780 141.6153180  40.1299040
  45.1754980 137.5622110  35.3227780  45.0651310 136.6196440  35.4477200
  45.1723230 137.9237750  36.2090540  43.2795000 135.7435730  41.5620220
  43.6963790 135.5295840  40.7273680  44.0034820 136.0008520  42.1328840
  40.7175260 133.1887430  34.6790270  39.7904540 133.1224810  34.9078740
  40.8700080 134.1267560  34.5645510  40.7044340 129.4604430  31.6757430
  39.7648010 129.6218390  31.7609890  41.0227600 130.1790110  31.1293420
  47.2257100 134.1422950  41.6536460  46.3975730 134.2116040  41.1786590
  47.8207580 134.7277260  41.1852290  44.7472550 134.7507730  35.1825520
  44.1284970 134.4127280  34.5351820  44.7297000 134.1067490  35.8904710
  44.1899110 130.9292270  42.5991330  43.7770290 131.7545980  42.8531320
  43.4575060 130.3437310  42.4067690  36.3231900 133.7152170  37.4610000
  35.9188900 133.0029420  36.9655900  36.4095020 133.3705410  38.3498040
  36.7913600 137.4019730  39.6249210  36.4941890 136.7965200  38.9456990
  37.7413420 137.4397040  39.5138570  35.0360520 130.4895380  41.2409040
  35.5875110 130.5990720  40.4662290  35.5504030 130.8632980  41.9564270
  44.8799210 140.9751600  43.2872310  44.4029770 141.7823790  43.0944920
  44.1961000 140.3229930  43.4398520  35.8832030 137.1401420  46.2757010
  34.9860560 137.3641390  46.5230410  35.9084900 137.2636360  45.3268410
  42.9237250 133.9894540  32.1898270  43.3630530 133.1516970  32.0436090
  43.6365670 134.6223940  32.2762410  34.7103250 134.0114740  44.8514380
  34.5711020 134.8837540  45.2201780  33.8284610 133.6687550  44.7062320
  41.0332630 138.9290610  36.1579510  41.4728540 139.6714940  35.7434900
  40.9719520 139.1717180  37.0818470  36.5083600 139.9536440  47.0599530
  36.4799030 140.3579390  46.1927960  36.3448570 139.0246800  46.8971130
  46.5054390 125.2437350  30.5039310  46.1927050 125.3364180  31.4038380
  47.2666860 125.8218380  30.4536740  33.0236530 132.6097150  34.9616650
  32.9034130 133.3359240  34.3497920  32.7137420 131.8400060  34.4844560
  48.4598420 140.7363540  48.3563700  48.9358140 141.2146430  49.0352780
  49.0805580 140.6681030  47.6309200  30.6621900 135.7812290  40.7685290
  30.7402320 135.9161060  39.8241010  31.2763580 135.0728180  40.9613410
  31.9069530 137.4812480  37.1791470  31.4997610 137.6227070  36.3245070
  32.7982540 137.1972640  36.9762680  47.8631670 137.9276390  45.5163710
  47.9894730 137.6888270  44.5980890  47.9053050 137.0960930  45.9885790
  41.7248410 141.6304390  44.0858520  42.2393080 141.5412400  44.8880950
  40.8817490 141.9764090  44.3786430  43.7002810 141.9159730  33.5142520
  43.5403950 141.6262670  34.4124350  43.5349520 141.1399860  32.9787750
  36.1791190 141.6958260  35.2914140  36.0033670 140.7793800  35.0781940
  35.3246930 142.0545550  35.5311940  43.4028940 139.4247290  32.0740520
  42.7094100 139.4224580  31.4142800  44.1451800 139.0006610  31.6434690
  42.9678870 141.0510000  36.1489010  43.4235820 140.2699380  36.4627630
  43.3071390 141.7616820  36.6930190  47.7155680 129.9808850  46.4813450
  47.0999950 130.4888520  45.9528910  47.3952100 129.0807180  46.4239390
  30.7181420 136.8226460  43.3079750  30.8812460 136.3531820  42.4899120
  31.1833870 136.3150020  43.9728590  35.4900190 125.9532220  38.3440320
  35.0468340 126.7341760  38.0124840  36.0485180 126.2762110  39.0511260
  39.7770000 128.8200740  43.9475640  39.3149370 129.0283760  44.7595580
  39.3748110 128.0060090  43.6446310  44.7774510 130.0409690  45.0772300
  43.9268100 129.7415440  45.3981370  44.6176300 130.2851700  44.1656120
  41.8724220 131.5411440  47.1771090  42.1977630 130.7075190  46.8373320
  42.6604550 132.0639960  47.3249420  38.6059010 125.5742920  33.2246150
  37.9813190 125.5702790  33.9499460  38.5189130 124.7073880  32.8282120
  37.5276090 126.4979550  40.2029920  37.8248420 127.4042380  40.1221940
  38.0761650 126.0098330  39.5889490  35.2814410 131.0765790  36.0721570
  35.0555330 130.8602960  36.9768190  34.5006940 131.5094250  35.7267540
  42.5112170 131.0829160  34.6712220  41.9121060 131.8064960  34.4875840
  43.0591780 131.0205940  33.8888670  37.7213620 131.9751370  46.7381840
  37.6257220 131.0346100  46.5882240  38.5645600 132.1966440  46.3429910
  41.1177040 129.7192700  36.7015500  41.5106610 130.0364900  35.8884190
  41.4793890 128.8404580  36.8160020  32.8524160 128.3865040  44.8915620
  32.4587550 129.2340250  45.0988400  32.1642560 127.7491410  45.0824260
  39.4269210 128.4700010  47.9612360  38.7367530 128.2772210  48.5958450
  40.1701510 128.7534650  48.4936660  30.1541210 126.3093500  38.9245700
  29.8654260 126.8796360  39.6370680  30.8986970 125.8297950  39.2876930
  30.3411440 130.2513620  30.1348420  30.2586110 131.1944380  30.2763410
  29.9894500 130.1088530  29.2560770  41.7032180 132.3098450  40.7966280
  40.9713300 132.8185260  41.1456380  41.3056520 131.4928430  40.4955060
  38.1409570 128.9852650  39.2018770  38.1445630 128.5442600  38.3523310
  39.0360690 129.3069980  39.3090590  33.9911950 128.8679140  38.1612980
  33.6512000 129.3454370  38.9180030  33.2289270 128.4144260  37.8014080
  38.2029720 129.9864730  32.1925530  38.3242540 129.9451210  33.1411350
  37.8178230 130.8488880  32.0372260  42.1658090 127.7632130  40.2089220
  42.1830830 128.2140780  41.0531070  41.9173670 126.8637770  40.4222660
  37.2151220 132.2965870  31.5908830  36.6468120 131.8484120  30.9644740
  37.9240220 132.6558650  31.0573980  45.5928840 125.1764310  46.0475600
  45.9174610 124.4453970  46.5733580  45.6285350 124.8577950  45.1456590
  32.2920400 136.1977890  45.4675560  31.9075190 135.5571560  46.0658520
  32.6032590 136.9014010  46.0370290  38.4417540 133.0454430  40.9484180
  38.8087670 132.5713000  41.6945520  38.2522600 133.9196000  41.2892520
  31.3058030 127.7898120  37.0777650  31.0204950 127.4253790  37.9156270
  31.2436890 127.0578580  36.4640790  36.2316910 132.0863070  43.2668390
  35.9273980 132.9655050  43.4918750  37.1863370 132.1462860  43.3025830
  34.7598700 136.2924060  33.8635240  33.9860960 135.7521680  33.7033960
  35.4893330 135.7730670  33.5253000  45.5186680 135.2889420  39.6561630
  46.2385800 135.7844710  39.2657740  45.3168500 134.6107310  39.0115500
  40.9796620 126.6827380  33.7991020  40.1661230 126.1840550  33.7236330
  40.7858570 127.5225630  33.3827370  40.9005480 135.3598480  45.5430630
  40.8342790 134.4394150  45.2888220  40.2710620 135.4573920  46.2575270
  43.6945010 131.0547030  32.0953180  44.5824630 131.3664260  31.9204520
  43.6650100 130.1819280  31.7033760  34.8036100 135.9604440  37.5014050
  35.3214770 135.1572700  37.4470940  34.3520120 135.8983580  38.3430880
  39.6905600 137.2270720  32.7741350  40.0321300 137.9712950  32.2784670
  38.8618310 137.5401840  33.1366180  32.2880640 132.9265810  44.4139750
  31.9295580 133.5919660  45.0013090  31.9935200 132.0949360  44.7852370
  35.4893760 133.3850050  47.2979300  35.1893900 133.5307230  46.4007120
  36.2605000 132.8255340  47.2052690  40.8322210 138.1819050  45.2934430
  40.8466750 137.2500010  45.0753340  40.1247310 138.2678810  45.9324200
  45.9659280 132.3658870  31.5633040  45.8823000 132.7973090  30.7129480
  46.6853470 132.8257220  31.9959860  47.0433420 134.8226390  44.6403010
  46.3181610 135.4155170  44.4432400  47.5708880 134.8149930  43.8416380
  46.9946530 139.2201130  34.2915170  46.3522690 138.5656750  34.5658890
  46.6077190 139.6256220  33.5155840  42.5733010 136.5486560  38.1386860
  42.9256830 135.9514690  37.4788230  41.6895340 136.2230790  38.3095110
  38.6596290 137.3084250  35.5457270  39.3467420 137.8553460  35.9264860
  37.8728710 137.8524980  35.5806880  30.7988690 132.9257070  31.0374350
  31.6683540 133.2081870  31.3210270  30.3079010 133.7392940  30.9223160
  37.9623500 134.3130280  35.1582630  38.4186280 135.1235530  35.3842820
  37.6111710 133.9953420  35.9901120  40.2656110 139.8236620  42.3874930
  40.9098330 140.0296000  43.0648350  40.6285550 139.0625020  41.9345780
  33.8635280 124.6567930  35.6305150  33.7349910 124.6485830  36.5790070
  33.0397300 124.9951020  35.2796160  41.5388190 137.8268970  41.1052380
  42.1810420 137.1262130  41.2184550  42.0637540 138.6067410  40.9249270
  45.3843910 138.1117590  30.8291520  45.1581490 137.3948030  31.4216160
  44.9940110 137.8630030  29.9913270  43.3125810 138.6263870  44.3088440
  43.6482050 139.2130560  44.9866360  42.3926150 138.4956580  44.5386230
  31.1659940 142.1384450  31.6035980  31.5257580 142.7373790  30.9493250
  31.0252280 142.6844340  32.3771010  30.8629210 126.4159050  45.0911850
  30.1487730 126.6155970  45.6964460  31.2824250 125.6398620  45.4626650
  44.9660160 136.0289530  32.4905680  44.6781860 136.4902220  33.2783560
  45.7612330 135.5687300  32.7589900  31.1501800 140.4039310  46.0778380
  31.2592920 139.4634050  45.9373770  30.4982360 140.6694060  45.4292110
  39.1414390 138.6755200  47.4776500  38.8211260 137.9564440  48.0222190
  38.4672750 139.3510270  47.5512560  37.1828560 139.5215650  32.4209650
  37.1738660 140.2545340  31.8054160  36.2626920 139.2747230  32.5136610
  32.7835200 134.7430540  33.1656410  32.1763150 135.4829440  33.1751710
  33.2584550 134.8329900  32.3394610  42.3567990 128.9081360  42.8413300
  42.7248810 128.0876570  43.1692870  41.4966190 128.9683250  43.2568950
  45.7230020 127.8638300  33.6500860  45.0943180 127.9683970  32.9359090
  45.2281940 128.0835080  34.4394740  40.1688160 139.5843890  31.0834840
  40.2700140 139.3807880  30.1536820  39.2689900 139.3302170  31.2882620
  37.6914050 130.1424250  35.0658740  36.9830200 130.6110590  35.5072350
  37.9758530 129.4846260  35.7003930  39.3169980 131.5620950  43.0651270
  39.8155230 132.0366770  43.7303120  39.4592930 130.6384470  43.2721300
  41.7229480 126.8674910  36.5054530  41.5997260 126.8861040  35.5564040
  42.6714040 126.9153850  36.6252930  38.8106270 142.1030210  35.7782510
  39.0647770 142.0651600  34.8561880  37.8618750 141.9763540  35.7710760
  35.8949070 128.4509330  32.4409450  36.7439600 128.8879480  32.3749640
  35.5280340 128.7629590  33.2681510  46.5236840 127.7788910  43.9079660
  46.0210440 128.5194310  44.2473470  47.3393500 128.1672910  43.5916450
  44.8158850 133.0222090  37.3541020  43.8748990 133.0372320  37.5288710
  45.1302920 132.2358050  37.8001320  34.7940490 134.7041690  30.9144980
  35.5603760 134.5923050  31.4770410  34.8715180 134.0079660  30.2621750
  33.4887250 132.1366760  31.5977870  33.5690840 131.1894270  31.7095270
  34.3807000 132.4673640  31.7038530  46.8184430 140.1930940  39.0295280
  46.9431850 141.0162110  39.5019090  47.6849990 139.9821670  38.6819430
  34.2901960 142.2862150  38.7012410  35.0264440 141.7377610  38.9720980
  34.6742880 143.1518160  38.5618400  31.1747440 138.3535720  34.5753920
  30.2487220 138.5956860  34.5659330  31.6403870 139.1809980  34.4538670
  33.2960240 141.4708220  47.8897990  34.0972970 141.7920270  48.3033390
  32.7812060 141.1103800  48.6117900  37.4004270 141.4592460  30.5237980
  38.1932880 141.7481290  30.0719770  36.8808620 141.0284630  29.8450460
  42.1324870 137.5788090  47.8373400  41.5263030 137.6019690  47.0969150
  41.8278980 136.8471130  48.3740650  43.5625240 141.3068380  46.4482810
  44.5146990 141.2226400  46.3983050  43.4153460 141.9710090  47.1216600
  46.4534440 140.6862590  31.9474720  46.1675950 140.2727730  31.1328900
  46.2553990 141.6150300  31.8275240  31.0158050 133.9581680  46.8334040
  31.5197070 133.3788960  47.4050270  30.2765470 134.2421910  47.3710410
  37.9181670 136.6795870  30.3880330  37.8132310 136.0648220  31.1141710
  37.7505890 136.1561760  29.6043340  38.0695990 135.3652670  46.3669560
  37.3041660 135.9337670  46.2824230  38.2511950 135.0728880  45.4737790
  41.1584400 135.7415900  30.9922320  40.6094500 136.1885200  31.6365060
  41.7803660 135.2365150  31.5159990  45.2119340 137.0958000  46.9244580
  45.9528810 137.4333760  46.4212040  44.4492020 137.2650060  46.3714350
  33.0481130 132.1011270  47.7284110  33.0886470 131.8025140  48.6369340
  33.9026630 132.5018880  47.5691630  36.8259520 134.7006820  32.8887620
  37.2475940 134.5346690  33.7319010  36.9510360 133.8907050  32.3942760
  34.9886940 130.6803370  45.6958600  34.4583400 130.1894320  45.0681940
  35.6575010 131.1087570  45.1616530  39.3387160 133.7244430  30.1364720
  39.8592820 133.0093450  29.7705870  39.9855560 134.3630300  30.4365230
  43.8865000 135.1472830  45.4599790  44.3006020 135.3017910  46.3090210
  42.9516000 135.2728050  45.6225570  44.3587170 132.4868990  47.4638940
  44.9407940 131.7321310  47.3759420  44.5348940 133.0176430  46.6870420
  35.4759240 127.6465740  45.7755890  35.3816110 127.0286490  45.0506760
  34.8956630 128.3732030  45.5485800  38.2420680 126.2038980  42.8083280
  37.7937980 126.2263240  41.9628830  37.6085880 125.8058000  43.4053580
  38.6480230 135.0993310  43.4295720  39.0668340 135.9426040  43.2571960
  37.7288860 135.2365350  43.2002500  40.9844130 132.8309490  44.8133560
  41.1040340 132.2350630  45.5528400  41.8438130 132.8679180  44.3934860
  43.3232030 133.3846680  43.3896070  42.7967250 133.9089300  42.7861210
  43.6663370 134.0174070  44.0205800  35.7218420 130.7740050  29.8345780
  35.5207480 129.9107410  30.1959120  35.5510470 130.6873410  28.8967380
  36.4987650 141.4046320  44.5453450  35.9608740 142.1292380  44.2262150
  36.7521610 140.9276660  43.7550790  37.7512900 129.3730840  46.0709380
  38.3412590 129.0646690  46.7587200  36.9333140 128.9010590  46.2269280
  42.5706330 128.9896650  46.3042400  41.8821850 128.3278190  46.2392390
  43.2912350 128.5434920  46.7490860  43.2006730 125.5848280  32.3632660
  43.4809020 124.7416180  32.7192080  42.4272460 125.8171390  32.8771410
  34.5201220 127.8740670  29.8223660  34.8227120 127.8808100  28.9142810
  35.2595810 127.5238530  30.3191320  39.3549860 142.6397530  44.8040100
  39.2808560 143.5432670  45.1112470  38.4528700 142.3209430  44.7762170
  37.7386150 126.8175290  30.8079860  37.3908150 126.1399280  30.2282310
  37.9398920 126.3564800  31.6223250  39.9035190 141.8056040  32.4266460
  40.7985980 142.1441010  32.4485220  39.9352820 141.0835450  31.7990740
  33.5431350 137.1783090  30.6553460  33.9806220 137.7212760  31.3111040
  34.0279080 136.3530040  30.6649800  30.7577150 139.9672120  38.1073720
  31.0880160 139.0993180  37.8752360  31.1868150 140.1730640  38.9378680
  35.3539070 138.2981130  35.7675690  35.0534610 138.1746100  36.6679600
  35.2476560 137.4389720  35.3591420  31.2467360 140.8342710  40.8455350
  30.8098350 141.0143510  41.6779500  31.8145040 141.5917330  40.7037070
  46.8829540 140.3359710  45.1332660  46.2831530 140.3952270  44.3896580
  47.0123440 139.3964690  45.2629510  48.1230990 138.0777530  30.4702370
  47.2923950 138.1454180  30.9409600  48.3002820 138.9681650  30.1669230
  47.5787450 134.8225010  32.9736570  48.3406360 135.3921660  33.0796260
  47.5941820 134.2552210  33.7444880  31.0791790 133.3462940  37.2044230
  30.4240630 133.0774580  36.5603930  31.9169740 133.2367420  36.7546210
  48.5847420 135.6775110  37.8178500  48.9556250 134.8942430  37.4114470
  49.2249350 136.3664210  37.6395800  45.5681180 137.0611690  43.2308820
  44.7541020 137.4908850  43.4934610  45.9755380 137.6730100  42.6177870
  47.6306620 135.1159380  30.1309090  47.9055460 136.0238260  30.0028310
  47.4417360 135.0521910  31.0671080  44.0282230 128.1404230  31.4262720
  44.4467110 127.9535210  30.5859380  43.7218290 127.2883280  31.7365650
  47.5271960 133.0528370  35.1238520  47.1515560 132.2856300  34.6919810
  46.7975080 133.4351070  35.6113450  32.1167720 133.7315510  41.7447570
  32.4840760 133.6442910  42.6243590  31.5478540 132.9682060  41.6454430
  46.9171580 132.1999890  44.7578040  46.6857670 131.9712640  43.8575990
  47.1776130 133.1199440  44.7122930  31.6683720 130.6424600  45.6505990
  30.7739770 130.6091360  45.9899700  32.2081270 130.8411390  46.4157240
  45.3559650 127.4256320  47.5357740  46.2329830 127.4339720  47.9191740
  45.3680490 126.6887160  46.9250090  30.2929870 130.5561870  33.1469560
  29.3893950 130.8192070  32.9721220  30.7770490 130.8273040  32.3669520
  46.8022920 131.2785860  38.4245760  47.3260400 130.7848510  37.7935930
  47.3882340 131.4136220  39.1693330  46.9812640 131.3625730  41.9465310
  46.0315350 131.3289270  42.0610300  47.1625650 132.2725840  41.7115080
  32.8357080 129.6127410  31.0563940  33.5448780 129.1910630  30.5711220
  32.1197020 129.6802640  30.4247290  32.4831240 125.6666740  30.0966590
  33.2059370 126.2075680  30.4147810  32.7555760 125.3930160  29.2208130
  46.2922890 130.5359210  34.3638170  46.7882010 130.3030080  35.1487050
  46.0938960 129.6971050  33.9475810  32.1723430 124.9172930  39.9989210
  32.8199620 124.3670310  39.5584370  32.5925270 125.1716080  40.8205020
  47.7210050 129.1720160  36.8975850  47.6109330 129.0176200  37.8358120
  48.4817640 128.6441100  36.6551260  46.0675770 125.1114290  43.3558850
  46.7047990 125.7248430  43.7218040  46.2150660 125.1474950  42.4108080
  48.6100320 127.0028080  30.1381990  49.5349630 126.8709260  29.9300280
  48.5876110 127.0820900  31.0918440  48.6838810 127.7738740  32.7638700
  47.8890310 127.7083860  33.2931610  48.8882090 128.7089380  32.7524050
  45.6257230 141.8130290  36.7577090  46.2216300 141.4914860  36.0811510
  45.8835380 141.3402110  37.5490360  31.9255430 125.0728600  42.7414530
  31.5770250 125.5292420  43.5072710  31.5943130 124.1785730  42.8236960
  33.5319800 138.2448200  46.9067720  33.4889430 137.8741110  47.7882180
  33.6630810 139.1825770  47.0469540  37.2325830 139.8007790  42.5077440
  36.9917190 140.0682350  41.6207960  38.1728470 139.9713520  42.5628300
  39.4380250 126.2640480  46.2633950  39.3769140 126.8562310  47.0129360
  40.3780630 126.1566440  46.1184210  42.0754810 125.9210540  45.9026240
  42.6895220 126.2389830  45.2407320  42.6204370 125.4359130  46.5222100
  48.4929990 141.8202170  43.3088080  47.9988270 142.2171040  42.5915210
  47.8843280 141.1951380  43.7025360  32.5976070 124.6004800  46.0165300
  33.1459060 124.4192850  45.2531410  32.6631380 123.8098910  46.5521610
  33.3707830 141.1910450  44.0265500  32.7768150 141.0595150  44.7655540
  33.3631670 140.3548590  43.5607600  42.8162850 124.4842680  42.2295530
  41.9422690 124.8177790  42.0268460  42.7073600 124.0115860  43.0547400
  43.7234830 126.6913550  43.6137250  43.3948190 125.8765310  43.2338980
  44.6717130 126.6483360  43.4902940  46.1769440 142.4625590  40.5874820
  45.7172410 143.2141400  40.2132840  45.5481900 141.7432060  40.5289620
  33.0020060 138.5568830  42.9773540  32.2754120 137.9374120  42.9099490
  33.0629210 138.9509440  42.1071620  36.6065160 140.7713830  39.7622950
  37.1230180 140.1601190  39.2371210  37.2562540 141.2742610  40.2533960
  39.3460660 141.6622320  40.5891930  39.6338470 141.4076620  39.7124940
  39.8583880 141.1099680  41.1797500  40.5637670 125.4012520  41.1688440
  39.7809460 125.8758020  41.4485200  40.2700600 124.4967350  41.0601620
  45.1158740 126.1035620  39.2137530  45.5566830 126.0480720  38.3659130
  44.8466330 127.0193630  39.2847710  46.9797310 125.7350860  37.2246350
  46.9185710 124.7912080  37.0777370  47.7589340 125.8430950  37.7699810
  31.2850060 141.8743220  36.1870300  31.1172100 141.2413900  36.8852190
  30.4184570 142.0802620  35.8364490  31.9078080 125.7060000  33.6902160
  32.6657440 125.8188880  33.1166190  31.4455250 126.5429200  33.6445590
  38.4491890 127.8199270  36.6804470  37.6366400 127.4456160  36.3400350
  38.9533530 127.0644350  36.9825660  42.9516870 124.4841720  37.9187540
  43.5546240 125.0561930  38.3936060  42.2109860 125.0481160  37.6961440
  46.0951470 124.8863280  33.1927820  46.2902100 125.7846730  33.4595250
  45.3081340 124.6550360  33.6860770  32.8912760 140.5676450  33.6320440
  32.3660380 140.9484480  32.9282400  32.8157340 141.1927220  34.3530150
  34.2803230 126.2324050  32.2304130  34.8095990 125.4453850  32.1012080
  34.9131550 126.9115240  32.4639660  36.4741070 125.9699190  35.2849520
  35.8443810 125.2686500  35.4519650  35.9346210 126.7303320  35.0682680
  39.4133020 142.5838420  47.9560130  40.3400330 142.3482690  47.9996090
  39.3983450 143.4110420  47.4746160  47.6478080 142.1263990  34.9534380
  47.8230270 141.4401730  34.3095300  46.9499650 142.6511040  34.5611050
  36.5996630 125.2483170  47.7202010  36.3180900 125.7516770  46.9562830
  36.9816330 124.4504920  47.3544140  35.4905730 142.5158830  32.5069690
  36.2224550 142.2318110  31.9593580  35.7499400 142.2772110  33.3969070
  34.6520520 138.6323560  32.5116020  34.0229400 139.1008660  33.0601850
  34.7668350 137.7872780  32.9462210  43.2012090 124.6636750  48.2982480
  43.0877540 124.9831360  49.1934000  44.0181830 125.0649260  48.0019760
  45.9810580 141.8108280  47.7801170  46.7735900 141.3157510  47.5727130
  46.2743730 142.4898420  48.3876780  42.1070240 132.6829220  18.6617220
  42.0264290 131.7683830  18.3908930  41.6934660 133.1796290  17.9556930
  40.2388280 134.4608240  20.5426490  39.4630380 133.9808680  20.8325060
  40.8901210 133.7813890  20.3682650  34.2554110 134.7728050  21.4202250
  33.4238990 134.5176760  21.8198760  34.8635090 134.8438820  22.1560170
  44.2595710 138.8668430  19.3225620  43.7977240 138.0955670  19.6512790
  45.0721260 138.8934500  19.8278070  34.2355370 138.8068140  21.6160270
  34.5383410 137.9165880  21.4370490  34.9798960 139.3638360  21.3882520
  32.6646060 129.7329940  15.2044640  31.7762760 130.0745910  15.1024520
  32.9487250 129.5330260  14.3125470  30.6279070 132.3335590  21.0884340
  31.1995180 131.5657790  21.0887980  30.6280610 132.6324350  20.1790950
  40.4859020 141.1526440  18.9429610  39.8670460 141.6083940  18.3724050
  41.3410800 141.3077900  18.5419310  39.6797270 137.1365430  20.5496650
  39.6105550 136.1955370  20.3885780  40.4417130 137.2266840  21.1219220
  31.8703940 127.7419950  22.8753270  31.6906780 126.8445700  23.1556030
  31.4684020 128.2891820  23.5500220  40.7102440 129.9435810  20.7765580
  41.0867260 129.0707690  20.6639250  40.6121950 130.2794510  19.8856020
  34.8407450 128.3161440  16.2383020  34.9474200 129.2165170  16.5451780
  33.9299810 128.2679410  15.9477670  44.4926560 127.4386250  17.7093920
  45.3136180 126.9482820  17.7519400  44.5260640 128.0283910  18.4625760
  32.4890610 130.2380450  21.4835610  33.1700720 130.5018820  22.1023010
  32.1738660 129.3981320  21.8173620  36.6815180 131.2847810  20.5708200
  37.1893400 131.7828780  21.2113220  37.2128420 130.5083010  20.3947560
  48.7826110 129.4553000  24.2737550  48.0778280 129.8434710  23.7552660
  49.0484030 130.1503290  24.8758480  34.9651280 125.9246370  24.8371620
  34.9669720 126.4418760  24.0317520  34.1355590 125.4476550  24.8141550
  41.3522370 136.0365680  16.3361520  40.7339640 136.5015130  15.7724240
  41.8645620 136.7293160  16.7531030  36.2154130 135.5641550  23.0145120
  35.8823510 136.1910470  23.6566190  36.3920810 136.0903430  22.2346790
  44.7288040 129.3786630  20.4821460  44.0243610 129.6671520  21.0624570
  45.0900200 130.1886740  20.1221020  34.6466610 127.6356330  22.8442070
  34.9883420 128.4798380  22.5495940  33.7082420 127.7840070  22.9607410
  35.4273230 137.5322350  24.8294300  36.0447230 138.2073430  24.5478750
  34.5666350 137.9410330  24.7381800  30.7205570 136.7222210  13.7101150
  30.3433550 137.2109310  12.9786050  30.9778640 137.3947490  14.3407680
  46.3450820 138.9961760  22.7448940  45.6614340 139.6660870  22.7365610
  46.8845110 139.1942410  21.9793800  47.7974960 128.8241420  20.8730670
  46.8499870 128.8580400  21.0046100  48.1224950 129.6380370  21.2580030
  38.3294500 125.1238600  19.1686660  38.6369480 124.5685490  18.4522160
  37.3995200 125.2583060  18.9859650  43.8809560 140.8405890  21.4594120
  43.8936720 140.4368180  20.5916380  43.3284780 141.6153180  21.3555550
  45.1754980 137.5622110  16.5484290  45.0651310 136.6196440  16.6733710
  45.1723230 137.9237750  17.4347050  43.2795000 135.7435730  22.7876730
  43.6963790 135.5295840  21.9530190  44.0034820 136.0008520  23.3585350
  40.7175260 133.1887430  15.9046780  39.7904540 133.1224810  16.1335250
  40.8700080 134.1267560  15.7902020  40.7044340 129.4604430  12.9013940
  39.7648010 129.6218390  12.9866400  41.0227600 130.1790110  12.3549930
  47.2257100 134.1422950  22.8792970  46.3975730 134.2116040  22.4043100
  47.8207580 134.7277260  22.4108800  44.7472550 134.7507730  16.4082030
  44.1284970 134.4127280  15.7608330  44.7297000 134.1067490  17.1161220
  44.1899110 130.9292270  23.8247840  43.7770290 131.7545980  24.0787830
  43.4575060 130.3437310  23.6324200  36.3231900 133.7152170  18.6866510
  35.9188900 133.0029420  18.1912410  36.4095020 133.3705410  19.5754550
  36.7913600 137.4019730  20.8505720  36.4941890 136.7965200  20.1713500
  37.7413420 137.4397040  20.7395080  35.0360520 130.4895380  22.4665550
  35.5875110 130.5990720  21.6918800  35.5504030 130.8632980  23.1820780
  44.8799210 140.9751600  24.5128820  44.4029770 141.7823790  24.3201430
  44.1961000 140.3229930  24.6655030  35.8832030 137.1401420  27.5013520
  34.9860560 137.3641390  27.7486920  35.9084900 137.2636360  26.5524920
  42.9237250 133.9894540  13.4154780  43.3630530 133.1516970  13.2692600
  43.6365670 134.6223940  13.5018920  34.7103250 134.0114740  26.0770890
  34.5711020 134.8837540  26.4458290  33.8284610 133.6687550  25.9318830
  41.0332630 138.9290610  17.3836020  41.4728540 139.6714940  16.9691410
  40.9719520 139.1717180  18.3074980  36.5083600 139.9536440  28.2856040
  36.4799030 140.3579390  27.4184470  36.3448570 139.0246800  28.1227640
  46.5054390 125.2437350  11.7295820  46.1927050 125.3364180  12.6294890
  47.2666860 125.8218380  11.6793250  33.0236530 132.6097150  16.1873160
  32.9034130 133.3359240  15.5754430  32.7137420 131.8400060  15.7101070
  48.4598420 140.7363540  29.5820210  48.9358140 141.2146430  30.2609290
  49.0805580 140.6681030  28.8565710  30.6621900 135.7812290  21.9941800
  30.7402320 135.9161060  21.0497520  31.2763580 135.0728180  22.1869920
  31.9069530 137.4812480  18.4047980  31.4997610 137.6227070  17.5501580
  32.7982540 137.1972640  18.2019190  47.8631670 137.9276390  26.7420220
  47.9894730 137.6888270  25.8237400  47.9053050 137.0960930  27.2142300
  41.7248410 141.6304390  25.3115030  42.2393080 141.5412400  26.1137460
  40.8817490 141.9764090  25.6042940  43.7002810 141.9159730  14.7399030
  43.5403950 141.6262670  15.6380860  43.5349520 141.1399860  14.2044260
  36.1791190 141.6958260  16.5170650  36.0033670 140.7793800  16.3038450
  35.3246930 142.0545550  16.7568450  43.4028940 139.4247290  13.2997030
  42.7094100 139.4224580  12.6399310  44.1451800 139.0006610  12.8691200
  42.9678870 141.0510000  17.3745520  43.4235820 140.2699380  17.6884140
  43.3071390 141.7616820  17.9186700  47.7155680 129.9808850  27.7069960
  47.0999950 130.4888520  27.1785420  47.3952100 129.0807180  27.6495900
  30.7181420 136.8226460  24.5336260  30.8812460 136.3531820  23.7155630
  31.1833870 136.3150020  25.1985100  35.4900190 125.9532220  19.5696830
  35.0468340 126.7341760  19.2381350  36.0485180 126.2762110  20.2767770
  39.7770000 128.8200740  25.1732150  39.3149370 129.0283760  25.9852090
  39.3748110 128.0060090  24.8702820  44.7774510 130.0409690  26.3028810
  43.9268100 129.7415440  26.6237880  44.6176300 130.2851700  25.3912630
  41.8724220 131.5411440  28.4027600  42.1977630 130.7075190  28.0629830
  42.6604550 132.0639960  28.5505930  38.6059010 125.5742920  14.4502660
  37.9813190 125.5702790  15.1755970  38.5189130 124.7073880  14.0538630
  37.5276090 126.4979550  21.4286430  37.8248420 127.4042380  21.3478450
  38.0761650 126.0098330  20.8146000  35.2814410 131.0765790  17.2978080
  35.0555330 130.8602960  18.2024700  34.5006940 131.5094250  16.9524050
  42.5112170 131.0829160  15.8968730  41.9121060 131.8064960  15.7132350
  43.0591780 131.0205940  15.1145180  37.7213620 131.9751370  27.9638350
  37.6257220 131.0346100  27.8138750  38.5645600 132.1966440  27.5686420
  41.1177040 129.7192700  17.9272010  41.5106610 130.0364900  17.1140700
  41.4793890 128.8404580  18.0416530  32.8524160 128.3865040  26.1172130
  32.4587550 129.2340250  26.3244910  32.1642560 127.7491410  26.3080770
  39.4269210 128.4700010  29.1868870  38.7367530 128.2772210  29.8214960
  40.1701510 128.7534650  29.7193170  30.1541210 126.3093500  20.1502210
  29.8654260 126.8796360  20.8627190  30.8986970 125.8297950  20.5133440
  30.3411440 130.2513620  11.3604930  30.2586110 131.1944380  11.5019920
  29.9894500 130.1088530  10.4817280  41.7032180 132.3098450  22.0222790
  40.9713300 132.8185260  22.3712890  41.3056520 131.4928430  21.7211570
  38.1409570 128.9852650  20.4275280  38.1445630 128.5442600  19.5779820
  39.0360690 129.3069980  20.5347100  33.9911950 128.8679140  19.3869490
  33.6512000 129.3454370  20.1436540  33.2289270 128.4144260  19.0270590
  38.2029720 129.9864730  13.4182040  38.3242540 129.9451210  14.3667860
  37.8178230 130.8488880  13.2628770  42.1658090 127.7632130  21.4345730
  42.1830830 128.2140780  22.2787580  41.9173670 126.8637770  21.6479170
  37.2151220 132.2965870  12.8165340  36.6468120 131.8484120  12.1901250
  37.9240220 132.6558650  12.2830490  45.5928840 125.1764310  27.2732110
  45.9174610 124.4453970  27.7990090  45.6285350 124.8577950  26.3713100
  32.2920400 136.1977890  26.6932070  31.9075190 135.5571560  27.2915030
  32.6032590 136.9014010  27.2626800  38.4417540 133.0454430  22.1740690
  38.8087670 132.5713000  22.9202030  38.2522600 133.9196000  22.5149030
  31.3058030 127.7898120  18.3034160  31.0204950 127.4253790  19.1412780
  31.2436890 127.0578580  17.6897300  36.2316910 132.0863070  24.4924900
  35.9273980 132.9655050  24.7175260  37.1863370 132.1462860  24.5282340
  34.7598700 136.2924060  15.0891750  33.9860960 135.7521680  14.9290470
  35.4893330 135.7730670  14.7509510  45.5186680 135.2889420  20.8818140
  46.2385800 135.7844710  20.4914250  45.3168500 134.6107310  20.2372010
  40.9796620 126.6827380  15.0247530  40.1661230 126.1840550  14.9492840
  40.7858570 127.5225630  14.6083880  40.9005480 135.3598480  26.7687140
  40.8342790 134.4394150  26.5144730  40.2710620 135.4573920  27.4831780
  43.6945010 131.0547030  13.3209690  44.5824630 131.3664260  13.1461030
  43.6650100 130.1819280  12.9290270  34.8036100 135.9604440  18.7270560
  35.3214770 135.1572700  18.6727450  34.3520120 135.8983580  19.5687390
  39.6905600 137.2270720  13.9997860  40.0321300 137.9712950  13.5041180
  38.8618310 137.5401840  14.3622690  32.2880640 132.9265810  25.6396260
  31.9295580 133.5919660  26.2269600  31.9935200 132.0949360  26.0108880
  35.4893760 133.3850050  28.5235810  35.1893900 133.5307230  27.6263630
  36.2605000 132.8255340  28.4309200  40.8322210 138.1819050  26.5190940
  40.8466750 137.2500010  26.3009850  40.1247310 138.2678810  27.1580710
  45.9659280 132.3658870  12.7889550  45.8823000 132.7973090  11.9385990
  46.6853470 132.8257220  13.2216370  47.0433420 134.8226390  25.8659520
  46.3181610 135.4155170  25.6688910  47.5708880 134.8149930  25.0672890
  46.9946530 139.2201130  15.5171680  46.3522690 138.5656750  15.7915400
  46.6077190 139.6256220  14.7412350  42.5733010 136.5486560  19.3643370
  42.9256830 135.9514690  18.7044740  41.6895340 136.2230790  19.5351620
  38.6596290 137.3084250  16.7713780  39.3467420 137.8553460  17.1521370
  37.8728710 137.8524980  16.8063390  30.7988690 132.9257070  12.2630860
  31.6683540 133.2081870  12.5466780  30.3079010 133.7392940  12.1479670
  37.9623500 134.3130280  16.3839140  38.4186280 135.1235530  16.6099330
  37.6111710 133.9953420  17.2157630  40.2656110 139.8236620  23.6131440
  40.9098330 140.0296000  24.2904860  40.6285550 139.0625020  23.1602290
  33.8635280 124.6567930  16.8561660  33.7349910 124.6485830  17.8046580
  33.0397300 124.9951020  16.5052670  41.5388190 137.8268970  22.3308890
  42.1810420 137.1262130  22.4441060  42.0637540 138.6067410  22.1505780
  45.3843910 138.1117590  12.0548030  45.1581490 137.3948030  12.6472670
  44.9940110 137.8630030  11.2169780  43.3125810 138.6263870  25.5344950
  43.6482050 139.2130560  26.2122870  42.3926150 138.4956580  25.7642740
  31.1659940 142.1384450  12.8292490  31.5257580 142.7373790  12.1749760
  31.0252280 142.6844340  13.6027520  30.8629210 126.4159050  26.3168360
  30.1487730 126.6155970  26.9220970  31.2824250 125.6398620  26.6883160
  44.9660160 136.0289530  13.7162190  44.6781860 136.4902220  14.5040070
  45.7612330 135.5687300  13.9846410  31.1501800 140.4039310  27.3034890
  31.2592920 139.4634050  27.1630280  30.4982360 140.6694060  26.6548620
  39.1414390 138.6755200  28.7033010  38.8211260 137.9564440  29.2478700
  38.4672750 139.3510270  28.7769070  37.1828560 139.5215650  13.6466160
  37.1738660 140.2545340  13.0310670  36.2626920 139.2747230  13.7393120
  32.7835200 134.7430540  14.3912920  32.1763150 135.4829440  14.4008220
  33.2584550 134.8329900  13.5651120  42.3567990 128.9081360  24.0669810
  42.7248810 128.0876570  24.3949380  41.4966190 128.9683250  24.4825460
  45.7230020 127.8638300  14.8757370  45.0943180 127.9683970  14.1615600
  45.2281940 128.0835080  15.6651250  40.1688160 139.5843890  12.3091350
  40.2700140 139.3807880  11.3793330  39.2689900 139.3302170  12.5139130
  37.6914050 130.1424250  16.2915250  36.9830200 130.6110590  16.7328860
  37.9758530 129.4846260  16.9260440  39.3169980 131.5620950  24.2907780
  39.8155230 132.0366770  24.9559630  39.4592930 130.6384470  24.4977810
  41.7229480 126.8674910  17.7311040  41.5997260 126.8861040  16.7820550
  42.6714040 126.9153850  17.8509440  38.8106270 142.1030210  17.0039020
  39.0647770 142.0651600  16.0818390  37.8618750 141.9763540  16.9967270
  35.8949070 128.4509330  13.6665960  36.7439600 128.8879480  13.6006150
  35.5280340 128.7629590  14.4938020  46.5236840 127.7788910  25.1336170
  46.0210440 128.5194310  25.4729980  47.3393500 128.1672910  24.8172960
  44.8158850 133.0222090  18.5797530  43.8748990 133.0372320  18.7545220
  45.1302920 132.2358050  19.0257830  34.7940490 134.7041690  12.1401490
  35.5603760 134.5923050  12.7026920  34.8715180 134.0079660  11.4878260
  33.4887250 132.1366760  12.8234380  33.5690840 131.1894270  12.9351780
  34.3807000 132.4673640  12.9295040  46.8184430 140.1930940  20.2551790
  46.9431850 141.0162110  20.7275600  47.6849990 139.9821670  19.9075940
  34.2901960 142.2862150  19.9268920  35.0264440 141.7377610  20.1977490
  34.6742880 143.1518160  19.7874910  31.1747440 138.3535720  15.8010430
  30.2487220 138.5956860  15.7915840  31.6403870 139.1809980  15.6795180
  33.2960240 141.4708220  29.1154500  34.0972970 141.7920270  29.5289900
  32.7812060 141.1103800  29.8374410  37.4004270 141.4592460  11.7494490
  38.1932880 141.7481290  11.2976280  36.8808620 141.0284630  11.0706970
  42.1324870 137.5788090  29.0629910  41.5263030 137.6019690  28.3225660
  41.8278980 136.8471130  29.5997160  43.5625240 141.3068380  27.6739320
  44.5146990 141.2226400  27.6239560  43.4153460 141.9710090  28.3473110
  46.4534440 140.6862590  13.1731230  46.1675950 140.2727730  12.3585410
  46.2553990 141.6150300  13.0531750  31.0158050 133.9581680  28.0590550
  31.5197070 133.3788960  28.6306780  30.2765470 134.2421910  28.5966920
  37.9181670 136.6795870  11.6136840  37.8132310 136.0648220  12.3398220
  37.7505890 136.1561760  10.8299850  38.0695990 135.3652670  27.5926070
  37.3041660 135.9337670  27.5080740  38.2511950 135.0728880  26.6994300
  41.1584400 135.7415900  12.2178830  40.6094500 136.1885200  12.8621570
  41.7803660 135.2365150  12.7416500  45.2119340 137.0958000  28.1501090
  45.9528810 137.4333760  27.6468550  44.4492020 137.2650060  27.5970860
  33.0481130 132.1011270  28.9540620  33.0886470 131.8025140  29.8625850
  33.9026630 132.5018880  28.7948140  36.8259520 134.7006820  14.1144130
  37.2475940 134.5346690  14.9575520  36.9510360 133.8907050  13.6199270
  34.9886940 130.6803370  26.9215110  34.4583400 130.1894320  26.2938450
  35.6575010 131.1087570  26.3873040  39.3387160 133.7244430  11.3621230
  39.8592820 133.0093450  10.9962380  39.9855560 134.3630300  11.6621740
  43.8865000 135.1472830  26.6856300  44.3006020 135.3017910  27.5346720
  42.9516000 135.2728050  26.8482080  44.3587170 132.4868990  28.6895450
  44.9407940 131.7321310  28.6015930  44.5348940 133.0176430  27.9126930
  35.4759240 127.6465740  27.0012400  35.3816110 127.0286490  26.2763270
  34.8956630 128.3732030  26.7742310  38.2420680 126.2038980  24.0339790
  37.7937980 126.2263240  23.1885340  37.6085880 125.8058000  24.6310090
  38.6480230 135.0993310  24.6552230  39.0668340 135.9426040  24.4828470
  37.7288860 135.2365350  24.4259010  40.9844130 132.8309490  26.0390070
  41.1040340 132.2350630  26.7784910  41.8438130 132.8679180  25.6191370
  43.3232030 133.3846680  24.6152580  42.7967250 133.9089300  24.0117720
  43.6663370 134.0174070  25.2462310  35.7218420 130.7740050  11.0602290
  35.5207480 129.9107410  11.4215630  35.5510470 130.6873410  10.1223890
  36.4987650 141.4046320  25.7709960  35.9608740 142.1292380  25.4518660
  36.7521610 140.9276660  24.9807300  37.7512900 129.3730840  27.2965890
  38.3412590 129.0646690  27.9843710  36.9333140 128.9010590  27.4525790
  42.5706330 128.9896650  27.5298910  41.8821850 128.3278190  27.4648900
  43.2912350 128.5434920  27.9747370  43.2006730 125.5848280  13.5889170
  43.4809020 124.7416180  13.9448590  42.4272460 125.8171390  14.1027920
  34.5201220 127.8740670  11.0480170  34.8227120 127.8808100  10.1399320
  35.2595810 127.5238530  11.5447830  39.3549860 142.6397530  26.0296610
  39.2808560 143.5432670  26.3368980  38.4528700 142.3209430  26.0018680
  37.7386150 126.8175290  12.0336370  37.3908150 126.1399280  11.4538820
  37.9398920 126.3564800  12.8479760  39.9035190 141.8056040  13.6522970
  40.7985980 142.1441010  13.6741730  39.9352820 141.0835450  13.0247250
  33.5431350 137.1783090  11.8809970  33.9806220 137.7212760  12.5367550
  34.0279080 136.3530040  11.8906310  30.7577150 139.9672120  19.3330230
  31.0880160 139.0993180  19.1008870  31.1868150 140.1730640  20.1635190
  35.3539070 138.2981130  16.9932200  35.0534610 138.1746100  17.8936110
  35.2476560 137.4389720  16.5847930  31.2467360 140.8342710  22.0711860
  30.8098350 141.0143510  22.9036010  31.8145040 141.5917330  21.9293580
  46.8829540 140.3359710  26.3589170  46.2831530 140.3952270  25.6153090
  47.0123440 139.3964690  26.4886020  48.1230990 138.0777530  11.6958880
  47.2923950 138.1454180  12.1666110  48.3002820 138.9681650  11.3925740
  47.5787450 134.8225010  14.1993080  48.3406360 135.3921660  14.3052770
  47.5941820 134.2552210  14.9701390  31.0791790 133.3462940  18.4300740
  30.4240630 133.0774580  17.7860440  31.9169740 133.2367420  17.9802720
  48.5847420 135.6775110  19.0435010  48.9556250 134.8942430  18.6370980
  49.2249350 136.3664210  18.8652310  45.5681180 137.0611690  24.4565330
  44.7541020 137.4908850  24.7191120  45.9755380 137.6730100  23.8434380
  47.6306620 135.1159380  11.3565600  47.9055460 136.0238260  11.2284820
  47.4417360 135.0521910  12.2927590  44.0282230 128.1404230  12.6519230
  44.4467110 127.9535210  11.8115890  43.7218290 127.2883280  12.9622160
  47.5271960 133.0528370  16.3495030  47.1515560 132.2856300  15.9176320
  46.7975080 133.4351070  16.8369960  32.1167720 133.7315510  22.9704080
  32.4840760 133.6442910  23.8500100  31.5478540 132.9682060  22.8710940
  46.9171580 132.1999890  25.9834550  46.6857670 131.9712640  25.0832500
  47.1776130 133.1199440  25.9379440  31.6683720 130.6424600  26.8762500
  30.7739770 130.6091360  27.2156210  32.2081270 130.8411390  27.6413750
  45.3559650 127.4256320  28.7614250  46.2329830 127.4339720  29.1448250
  45.3680490 126.6887160  28.1506600  30.2929870 130.5561870  14.3726070
  29.3893950 130.8192070  14.1977730  30.7770490 130.8273040  13.5926030
  46.8022920 131.2785860  19.6502270  47.3260400 130.7848510  19.0192440
  47.3882340 131.4136220  20.3949840  46.9812640 131.3625730  23.1721820
  46.0315350 131.3289270  23.2866810  47.1625650 132.2725840  22.9371590
  32.8357080 129.6127410  12.2820450  33.5448780 129.1910630  11.7967730
  32.1197020 129.6802640  11.6503800  32.4831240 125.6666740  11.3223100
  33.2059370 126.2075680  11.6404320  32.7555760 125.3930160  10.4464640
  46.2922890 130.5359210  15.5894680  46.7882010 130.3030080  16.3743560
  46.0938960 129.6971050  15.1732320  32.1723430 124.9172930  21.2245720
  32.8199620 124.3670310  20.7840880  32.5925270 125.1716080  22.0461530
  47.7210050 129.1720160  18.1232360  47.6109330 129.0176200  19.0614630
  48.4817640 128.6441100  17.8807770  46.0675770 125.1114290  24.5815360
  46.7047990 125.7248430  24.9474550  46.2150660 125.1474950  23.6364590
  48.6100320 127.0028080  11.3638500  49.5349630 126.8709260  11.1556790
  48.5876110 127.0820900  12.3174950  48.6838810 127.7738740  13.9895210
  47.8890310 127.7083860  14.5188120  48.8882090 128.7089380  13.9780560
  45.6257230 141.8130290  17.9833600  46.2216300 141.4914860  17.3068020
  45.8835380 141.3402110  18.7746870  31.9255430 125.0728600  23.9671040
  31.5770250 125.5292420  24.7329220  31.5943130 124.1785730  24.0493470
  33.5319800 138.2448200  28.1324230  33.4889430 137.8741110  29.0138690
  33.6630810 139.1825770  28.2726050  37.2325830 139.8007790  23.7333950
  36.9917190 140.0682350  22.8464470  38.1728470 139.9713520  23.7884810
  39.4380250 126.2640480  27.4890460  39.3769140 126.8562310  28.2385870
  40.3780630 126.1566440  27.3440720  42.0754810 125.9210540  27.1282750
  42.6895220 126.2389830  26.4663830  42.6204370 125.4359130  27.7478610
  48.4929990 141.8202170  24.5344590  47.9988270 142.2171040  23.8171720
  47.8843280 141.1951380  24.9281870  32.5976070 124.6004800  27.2421810
  33.1459060 124.4192850  26.4787920  32.6631380 123.8098910  27.7778120
  33.3707830 141.1910450  25.2522010  32.7768150 141.0595150  25.9912050
  33.3631670 140.3548590  24.7864110  42.8162850 124.4842680  23.4552040
  41.9422690 124.8177790  23.2524970  42.7073600 124.0115860  24.2803910
  43.7234830 126.6913550  24.8393760  43.3948190 125.8765310  24.4595490
  44.6717130 126.6483360  24.7159450  46.1769440 142.4625590  21.8131330
  45.7172410 143.2141400  21.4389350  45.5481900 141.7432060  21.7546130
  33.0020060 138.5568830  24.2030050  32.2754120 137.9374120  24.1356000
  33.0629210 138.9509440  23.3328130  36.6065160 140.7713830  20.9879460
  37.1230180 140.1601190  20.4627720  37.2562540 141.2742610  21.4790470
  39.3460660 141.6622320  21.8148440  39.6338470 141.4076620  20.9381450
  39.8583880 141.1099680  22.4054010  40.5637670 125.4012520  22.3944950
  39.7809460 125.8758020  22.6741710  40.2700600 124.4967350  22.2858130
  45.1158740 126.1035620  20.4394040  45.5566830 126.0480720  19.5915640
  44.8466330 127.0193630  20.5104220  46.9797310 125.7350860  18.4502860
  46.9185710 124.7912080  18.3033880  47.7589340 125.8430950  18.9956320
  31.2850060 141.8743220  17.4126810  31.1172100 141.2413900  18.1108700
  30.4184570 142.0802620  17.0621000  31.9078080 125.7060000  14.9158670
  32.6657440 125.8188880  14.3422700  31.4455250 126.5429200  14.8702100
  38.4491890 127.8199270  17.9060980  37.6366400 127.4456160  17.5656860
  38.9533530 127.0644350  18.2082170  42.9516870 124.4841720  19.1444050
  43.5546240 125.0561930  19.6192570  42.2109860 125.0481160  18.9217950
  46.0951470 124.8863280  14.4184330  46.2902100 125.7846730  14.6851760
  45.3081340 124.6550360  14.9117280  32.8912760 140.5676450  14.8576950
  32.3660380 140.9484480  14.1538910  32.8157340 141.1927220  15.5786660
  34.2803230 126.2324050  13.4560640  34.8095990 125.4453850  13.3268590
  34.9131550 126.9115240  13.6896170  36.4741070 125.9699190  16.5106030
  35.8443810 125.2686500  16.6776160  35.9346210 126.7303320  16.2939190
  39.4133020 142.5838420  29.1816640  40.3400330 142.3482690  29.2252600
  39.3983450 143.4110420  28.7002670  47.6478080 142.1263990  16.1790890
  47.8230270 141.4401730  15.5351810  46.9499650 142.6511040  15.7867560
  36.5996630 125.2483170  28.9458520  36.3180900 125.7516770  28.1819340
  36.9816330 124.4504920  28.5800650  35.4905730 142.5158830  13.7326200
  36.2224550 142.2318110  13.1850090  35.7499400 142.2772110  14.6225580
  34.6520520 138.6323560  13.7372530  34.0229400 139.1008660  14.2858360
  34.7668350 137.7872780  14.1718720  43.2012090 124.6636750  29.5238990
  43.0877540 124.9831360  30.4190510  44.0181830 125.0649260  29.2276270
  45.9810580 141.8108280  29.0057680  46.7735900 141.3157510  28.7983640
  46.2743730 142.4898420  29.6133290  40.2388280 134.4608240   1.7683000
  39.4630380 133.9808680   2.0581570  40.8901210 133.7813890   1.5939160
  34.2554110 134.7728050   2.6458760  33.4238990 134.5176760   3.0455270
  34.8635090 134.8438820   3.3816680  34.2355370 138.8068140   2.8416780
  34.5383410 137.9165880   2.6627000  34.9798960 139.3638360   2.6139030
  39.6797270 137.1365430   1.7753160  39.6105550 136.1955370   1.6142290
  40.4417130 137.2266840   2.3475730  31.8703940 127.7419950   4.1009780
  31.6906780 126.8445700   4.3812540  31.4684020 128.2891820   4.7756730
  32.4890610 130.2380450   2.7092120  33.1700720 130.5018820   3.3279520
  32.1738660 129.3981320   3.0430130  36.6815180 131.2847810   1.7964710
  37.1893400 131.7828780   2.4369730  37.2128420 130.5083010   1.6204070
  48.7826110 129.4553000   5.4994060  48.0778280 129.8434710   4.9809170
  49.0484030 130.1503290   6.1014990  34.9651280 125.9246370   6.0628130
  34.9669720 126.4418760   5.2574030  34.1355590 125.4476550   6.0398060
  36.2154130 135.5641550   4.2401630  35.8823510 136.1910470   4.8822700
  36.3920810 136.0903430   3.4603300  34.6466610 127.6356330   4.0698580
  34.9883420 128.4798380   3.7752450  33.7082420 127.7840070   4.1863920
  35.4273230 137.5322350   6.0550810  36.0447230 138.2073430   5.7735260
  34.5666350 137.9410330   5.9638310  46.3450820 138.9961760   3.9705450
  45.6614340 139.6660870   3.9622120  46.8845110 139.1942410   3.2050310
  47.7974960 128.8241420   2.0987180  46.8499870 128.8580400   2.2302610
  48.1224950 129.6380370   2.4836540  43.8809560 140.8405890   2.6850630
  43.8936720 140.4368180   1.8172890  43.3284780 141.6153180   2.5812060
  43.2795000 135.7435730   4.0133240  43.6963790 135.5295840   3.1786700
  44.0034820 136.0008520   4.5841860  47.2257100 134.1422950   4.1049480
  46.3975730 134.2116040   3.6299610  47.8207580 134.7277260   3.6365310
  44.1899110 130.9292270   5.0504350  43.7770290 131.7545980   5.3044340
  43.4575060 130.3437310   4.8580710  35.0360520 130.4895380   3.6922060
  35.5875110 130.5990720   2.9175310  35.5504030 130.8632980   4.4077290
  44.8799210 140.9751600   5.7385330  44.4029770 141.7823790   5.5457940
  44.1961000 140.3229930   5.8911540  35.8832030 137.1401420   8.7270030
  34.9860560 137.3641390   8.9743430  35.9084900 137.2636360   7.7781430
  34.7103250 134.0114740   7.3027400  34.5711020 134.8837540   7.6714800
  33.8284610 133.6687550   7.1575340  36.5083600 139.9536440   9.5112550
  36.4799030 140.3579390   8.6440980  36.3448570 139.0246800   9.3484150
  48.4598420 140.7363540  10.8076720  48.9358140 141.2146430  11.4865800
  49.0805580 140.6681030  10.0822220  30.6621900 135.7812290   3.2198310
  30.7402320 135.9161060   2.2754030  31.2763580 135.0728180   3.4126430
  47.8631670 137.9276390   7.9676730  47.9894730 137.6888270   7.0493910
  47.9053050 137.0960930   8.4398810  41.7248410 141.6304390   6.5371540
  42.2393080 141.5412400   7.3393970  40.8817490 141.9764090   6.8299450
  47.7155680 129.9808850   8.9326470  47.0999950 130.4888520   8.4041930
  47.3952100 129.0807180   8.8752410  30.7181420 136.8226460   5.7592770
  30.8812460 136.3531820   4.9412140  31.1833870 136.3150020   6.4241610
  39.7770000 128.8200740   6.3988660  39.3149370 129.0283760   7.2108600
  39.3748110 128.0060090   6.0959330  44.7774510 130.0409690   7.5285320
  43.9268100 129.7415440   7.8494390  44.6176300 130.2851700   6.6169140
  41.8724220 131.5411440   9.6284110  42.1977630 130.7075190   9.2886340
  42.6604550 132.0639960   9.7762440  37.5276090 126.4979550   2.6542940
  37.8248420 127.4042380   2.5734960  38.0761650 126.0098330   2.0402510
  37.7213620 131.9751370   9.1894860  37.6257220 131.0346100   9.0395260
  38.5645600 132.1966440   8.7942930  32.8524160 128.3865040   7.3428640
  32.4587550 129.2340250   7.5501420  32.1642560 127.7491410   7.5337280
  39.4269210 128.4700010  10.4125380  38.7367530 128.2772210  11.0471470
  40.1701510 128.7534650  10.9449680  41.7032180 132.3098450   3.2479300
  40.9713300 132.8185260   3.5969400  41.3056520 131.4928430   2.9468080
  42.1658090 127.7632130   2.6602240  42.1830830 128.2140780   3.5044090
  41.9173670 126.8637770   2.8735680  45.5928840 125.1764310   8.4988620
  45.9174610 124.4453970   9.0246600  45.6285350 124.8577950   7.5969610
  32.2920400 136.1977890   7.9188580  31.9075190 135.5571560   8.5171540
  32.6032590 136.9014010   8.4883310  38.4417540 133.0454430   3.3997200
  38.8087670 132.5713000   4.1458540  38.2522600 133.9196000   3.7405540
  36.2316910 132.0863070   5.7181410  35.9273980 132.9655050   5.9431770
  37.1863370 132.1462860   5.7538850  45.5186680 135.2889420   2.1074650
  46.2385800 135.7844710   1.7170760  45.3168500 134.6107310   1.4628520
  40.9005480 135.3598480   7.9943650  40.8342790 134.4394150   7.7401240
  40.2710620 135.4573920   8.7088290  32.2880640 132.9265810   6.8652770
  31.9295580 133.5919660   7.4526110  31.9935200 132.0949360   7.2365390
  35.4893760 133.3850050   9.7492320  35.1893900 133.5307230   8.8520140
  36.2605000 132.8255340   9.6565710  40.8322210 138.1819050   7.7447450
  40.8466750 137.2500010   7.5266360  40.1247310 138.2678810   8.3837220
  47.0433420 134.8226390   7.0916030  46.3181610 135.4155170   6.8945420
  47.5708880 134.8149930   6.2929400  40.2656110 139.8236620   4.8387950
  40.9098330 140.0296000   5.5161370  40.6285550 139.0625020   4.3858800
  41.5388190 137.8268970   3.5565400  42.1810420 137.1262130   3.6697570
  42.0637540 138.6067410   3.3762290  43.3125810 138.6263870   6.7601460
  43.6482050 139.2130560   7.4379380  42.3926150 138.4956580   6.9899250
  30.8629210 126.4159050   7.5424870  30.1487730 126.6155970   8.1477480
  31.2824250 125.6398620   7.9139670  31.1501800 140.4039310   8.5291400
  31.2592920 139.4634050   8.3886790  30.4982360 140.6694060   7.8805130
  39.1414390 138.6755200   9.9289520  38.8211260 137.9564440  10.4735210
  38.4672750 139.3510270  10.0025580  42.3567990 128.9081360   5.2926320
  42.7248810 128.0876570   5.6205890  41.4966190 128.9683250   5.7081970
  39.3169980 131.5620950   5.5164290  39.8155230 132.0366770   6.1816140
  39.4592930 130.6384470   5.7234320  46.5236840 127.7788910   6.3592680
  46.0210440 128.5194310   6.6986490  47.3393500 128.1672910   6.0429470
  33.2960240 141.4708220  10.3411010  34.0972970 141.7920270  10.7546410
  32.7812060 141.1103800  11.0630920  42.1324870 137.5788090  10.2886420
  41.5263030 137.6019690   9.5482170  41.8278980 136.8471130  10.8253670
  43.5625240 141.3068380   8.8995830  44.5146990 141.2226400   8.8496070
  43.4153460 141.9710090   9.5729620  31.0158050 133.9581680   9.2847060
  31.5197070 133.3788960   9.8563290  30.2765470 134.2421910   9.8223430
  38.0695990 135.3652670   8.8182580  37.3041660 135.9337670   8.7337250
  38.2511950 135.0728880   7.9250810  45.2119340 137.0958000   9.3757600
  45.9528810 137.4333760   8.8725060  44.4492020 137.2650060   8.8227370
  33.0481130 132.1011270  10.1797130  33.0886470 131.8025140  11.0882360
  33.9026630 132.5018880  10.0204650  34.9886940 130.6803370   8.1471620
  34.4583400 130.1894320   7.5194960  35.6575010 131.1087570   7.6129550
  43.8865000 135.1472830   7.9112810  44.3006020 135.3017910   8.7603230
  42.9516000 135.2728050   8.0738590  44.3587170 132.4868990   9.9151960
  44.9407940 131.7321310   9.8272440  44.5348940 133.0176430   9.1383440
  35.4759240 127.6465740   8.2268910  35.3816110 127.0286490   7.5019780
  34.8956630 128.3732030   7.9998820  38.2420680 126.2038980   5.2596300
  37.7937980 126.2263240   4.4141850  37.6085880 125.8058000   5.8566600
  38.6480230 135.0993310   5.8808740  39.0668340 135.9426040   5.7084980
  37.7288860 135.2365350   5.6515520  40.9844130 132.8309490   7.2646580
  41.1040340 132.2350630   8.0041420  41.8438130 132.8679180   6.8447880
  43.3232030 133.3846680   5.8409090  42.7967250 133.9089300   5.2374230
  43.6663370 134.0174070   6.4718820  36.4987650 141.4046320   6.9966470
  35.9608740 142.1292380   6.6775170  36.7521610 140.9276660   6.2063810
  37.7512900 129.3730840   8.5222400  38.3412590 129.0646690   9.2100220
  36.9333140 128.9010590   8.6782300  42.5706330 128.9896650   8.7555420
  41.8821850 128.3278190   8.6905410  43.2912350 128.5434920   9.2003880
  39.3549860 142.6397530   7.2553120  39.2808560 143.5432670   7.5625490
  38.4528700 142.3209430   7.2275190  31.2467360 140.8342710   3.2968370
  30.8098350 141.0143510   4.1292520  31.8145040 141.5917330   3.1550090
  46.8829540 140.3359710   7.5845680  46.2831530 140.3952270   6.8409600
  47.0123440 139.3964690   7.7142530  45.5681180 137.0611690   5.6821840
  44.7541020 137.4908850   5.9447630  45.9755380 137.6730100   5.0690890
  32.1167720 133.7315510   4.1960590  32.4840760 133.6442910   5.0756610
  31.5478540 132.9682060   4.0967450  46.9171580 132.1999890   7.2091060
  46.6857670 131.9712640   6.3089010  47.1776130 133.1199440   7.1635950
  31.6683720 130.6424600   8.1019010  30.7739770 130.6091360   8.4412720
  32.2081270 130.8411390   8.8670260  45.3559650 127.4256320   9.9870760
  46.2329830 127.4339720  10.3704760  45.3680490 126.6887160   9.3763110
  46.9812640 131.3625730   4.3978330  46.0315350 131.3289270   4.5123320
  47.1625650 132.2725840   4.1628100  32.1723430 124.9172930   2.4502230
  32.8199620 124.3670310   2.0097390  32.5925270 125.1716080   3.2718040
  46.0675770 125.1114290   5.8071870  46.7047990 125.7248430   6.1731060
  46.2150660 125.1474950   4.8621100  31.9255430 125.0728600   5.1927550
  31.5770250 125.5292420   5.9585730  31.5943130 124.1785730   5.2749980
  33.5319800 138.2448200   9.3580740  33.4889430 137.8741110  10.2395200
  33.6630810 139.1825770   9.4982560  37.2325830 139.8007790   4.9590460
  36.9917190 140.0682350   4.0720980  38.1728470 139.9713520   5.0141320
  39.4380250 126.2640480   8.7146970  39.3769140 126.8562310   9.4642380
  40.3780630 126.1566440   8.5697230  42.0754810 125.9210540   8.3539260
  42.6895220 126.2389830   7.6920340  42.6204370 125.4359130   8.9735120
  48.4929990 141.8202170   5.7601100  47.9988270 142.2171040   5.0428230
  47.8843280 141.1951380   6.1538380  32.5976070 124.6004800   8.4678320
  33.1459060 124.4192850   7.7044430  32.6631380 123.8098910   9.0034630
  33.3707830 141.1910450   6.4778520  32.7768150 141.0595150   7.2168560
  33.3631670 140.3548590   6.0120620  42.8162850 124.4842680   4.6808550
  41.9422690 124.8177790   4.4781480  42.7073600 124.0115860   5.5060420
  43.7234830 126.6913550   6.0650270  43.3948190 125.8765310   5.6852000
  44.6717130 126.6483360   5.9415960  46.1769440 142.4625590   3.0387840
  45.7172410 143.2141400   2.6645860  45.5481900 141.7432060   2.9802640
  33.0020060 138.5568830   5.4286560  32.2754120 137.9374120   5.3612510
  33.0629210 138.9509440   4.5584640  36.6065160 140.7713830   2.2135970
  37.1230180 140.1601190   1.6884230  37.2562540 141.2742610   2.7046980
  39.3460660 141.6622320   3.0404950  39.6338470 141.4076620   2.1637960
  39.8583880 141.1099680   3.6310520  40.5637670 125.4012520   3.6201460
  39.7809460 125.8758020   3.8998220  40.2700600 124.4967350   3.5114640
  39.4133020 142.5838420  10.4073150  40.3400330 142.3482690  10.4509110
  39.3983450 143.4110420   9.9259180  36.5996630 125.2483170  10.1715030
  36.3180900 125.7516770   9.4075850  36.9816330 124.4504920   9.8057160
  43.2012090 124.6636750  10.7495500  43.0877540 124.9831360  11.6447020
  44.0181830 125.0649260  10.4532780  45.9810580 141.8108280  10.2314190
  46.7735900 141.3157510  10.0240150  46.2743730 142.4898420  10.8389800
  42.1070240 113.9085730 150.0821650  42.0264290 112.9940340 149.8113360
  41.6934660 114.4052800 149.3761360  44.2595710 120.0924940 150.7430050
  43.7977240 119.3212180 151.0717220  45.0721260 120.1191010 151.2482500
  32.6646060 110.9586450 146.6249070  31.7762760 111.3002420 146.5228950
  32.9487250 110.7586770 145.7329900  40.4859020 122.3782950 150.3634040
  39.8670460 122.8340450 149.7928480  41.3410800 122.5334410 149.9623740
  34.8407450 109.5417950 147.6587450  34.9474200 110.4421680 147.9656210
  33.9299810 109.4935920 147.3682100  44.4926560 108.6642760 149.1298350
  45.3136180 108.1739330 149.1723830  44.5260640 109.2540420 149.8830190
  41.3522370 117.2622190 147.7565950  40.7339640 117.7271640 147.1928670
  41.8645620 117.9549670 148.1735460  30.7205570 117.9478720 145.1305580
  30.3433550 118.4365820 144.3990480  30.9778640 118.6204000 145.7612110
  38.3294500 106.3495110 150.5891090  38.6369480 105.7942000 149.8726590
  37.3995200 106.4839570 150.4064080  45.1754980 118.7878620 147.9688720
  45.0651310 117.8452950 148.0938140  45.1723230 119.1494260 148.8551480
  40.7175260 114.4143940 147.3251210  39.7904540 114.3481320 147.5539680
  40.8700080 115.3524070 147.2106450  40.7044340 110.6860940 144.3218370
  39.7648010 110.8474900 144.4070830  41.0227600 111.4046620 143.7754360
  44.7472550 115.9764240 147.8286460  44.1284970 115.6383790 147.1812760
  44.7297000 115.3324000 148.5365650  36.3231900 114.9408680 150.1070940
  35.9188900 114.2285930 149.6116840  36.4095020 114.5961920 150.9958980
  42.9237250 115.2151050 144.8359210  43.3630530 114.3773480 144.6897030
  43.6365670 115.8480450 144.9223350  41.0332630 120.1547120 148.8040450
  41.4728540 120.8971450 148.3895840  40.9719520 120.3973690 149.7279410
  46.5054390 106.4693860 143.1500250  46.1927050 106.5620690 144.0499320
  47.2666860 107.0474890 143.0997680  33.0236530 113.8353660 147.6077590
  32.9034130 114.5615750 146.9958860  32.7137420 113.0656570 147.1305500
  31.9069530 118.7068990 149.8252410  31.4997610 118.8483580 148.9706010
  32.7982540 118.4229150 149.6223620  43.7002810 123.1416240 146.1603460
  43.5403950 122.8519180 147.0585290  43.5349520 122.3656370 145.6248690
  36.1791190 122.9214770 147.9375080  36.0033670 122.0050310 147.7242880
  35.3246930 123.2802060 148.1772880  43.4028940 120.6503800 144.7201460
  42.7094100 120.6481090 144.0603740  44.1451800 120.2263120 144.2895630
  42.9678870 122.2766510 148.7949950  43.4235820 121.4955890 149.1088570
  43.3071390 122.9873330 149.3391130  35.4900190 107.1788730 150.9901260
  35.0468340 107.9598270 150.6585780  36.0485180 107.5018620 151.6972200
  38.6059010 106.7999430 145.8707090  37.9813190 106.7959300 146.5960400
  38.5189130 105.9330390 145.4743060  35.2814410 112.3022300 148.7182510
  35.0555330 112.0859470 149.6229130  34.5006940 112.7350760 148.3728480
  42.5112170 112.3085670 147.3173160  41.9121060 113.0321470 147.1336780
  43.0591780 112.2462450 146.5349610  41.1177040 110.9449210 149.3476440
  41.5106610 111.2621410 148.5345130  41.4793890 110.0661090 149.4620960
  30.3411440 111.4770130 142.7809360  30.2586110 112.4200890 142.9224350
  29.9894500 111.3345040 141.9021710  33.9911950 110.0935650 150.8073920
  33.6512000 110.5710880 151.5640970  33.2289270 109.6400770 150.4475020
  38.2029720 111.2121240 144.8386470  38.3242540 111.1707720 145.7872290
  37.8178230 112.0745390 144.6833200  37.2151220 113.5222380 144.2369770
  36.6468120 113.0740630 143.6105680  37.9240220 113.8815160 143.7034920
  31.3058030 109.0154630 149.7238590  31.0204950 108.6510300 150.5617210
  31.2436890 108.2835090 149.1101730  34.7598700 117.5180570 146.5096180
  33.9860960 116.9778190 146.3494900  35.4893330 116.9987180 146.1713940
  40.9796620 107.9083890 146.4451960  40.1661230 107.4097060 146.3697270
  40.7858570 108.7482140 146.0288310  43.6945010 112.2803540 144.7414120
  44.5824630 112.5920770 144.5665460  43.6650100 111.4075790 144.3494700
  34.8036100 117.1860950 150.1474990  35.3214770 116.3829210 150.0931880
  34.3520120 117.1240090 150.9891820  39.6905600 118.4527230 145.4202290
  40.0321300 119.1969460 144.9245610  38.8618310 118.7658350 145.7827120
  45.9659280 113.5915380 144.2093980  45.8823000 114.0229600 143.3590420
  46.6853470 114.0513730 144.6420800  46.9946530 120.4457640 146.9376110
  46.3522690 119.7913260 147.2119830  46.6077190 120.8512730 146.1616780
  42.5733010 117.7743070 150.7847800  42.9256830 117.1771200 150.1249170
  41.6895340 117.4487300 150.9556050  38.6596290 118.5340760 148.1918210
  39.3467420 119.0809970 148.5725800  37.8728710 119.0781490 148.2267820
  30.7988690 114.1513580 143.6835290  31.6683540 114.4338380 143.9671210
  30.3079010 114.9649450 143.5684100  37.9623500 115.5386790 147.8043570
  38.4186280 116.3492040 148.0303760  37.6111710 115.2209930 148.6362060
  33.8635280 105.8824440 148.2766090  33.7349910 105.8742340 149.2251010
  33.0397300 106.2207530 147.9257100  45.3843910 119.3374100 143.4752460
  45.1581490 118.6204540 144.0677100  44.9940110 119.0886540 142.6374210
  31.1659940 123.3640960 144.2496920  31.5257580 123.9630300 143.5954190
  31.0252280 123.9100850 145.0231950  44.9660160 117.2546040 145.1366620
  44.6781860 117.7158730 145.9244500  45.7612330 116.7943810 145.4050840
  37.1828560 120.7472160 145.0670590  37.1738660 121.4801850 144.4515100
  36.2626920 120.5003740 145.1597550  32.7835200 115.9687050 145.8117350
  32.1763150 116.7085950 145.8212650  33.2584550 116.0586410 144.9855550
  45.7230020 109.0894810 146.2961800  45.0943180 109.1940480 145.5820030
  45.2281940 109.3091590 147.0855680  40.1688160 120.8100400 143.7295780
  40.2700140 120.6064390 142.7997760  39.2689900 120.5558680 143.9343560
  37.6914050 111.3680760 147.7119680  36.9830200 111.8367100 148.1533290
  37.9758530 110.7102770 148.3464870  41.7229480 108.0931420 149.1515470
  41.5997260 108.1117550 148.2024980  42.6714040 108.1410360 149.2713870
  38.8106270 123.3286720 148.4243450  39.0647770 123.2908110 147.5022820
  37.8618750 123.2020050 148.4171700  35.8949070 109.6765840 145.0870390
  36.7439600 110.1135990 145.0210580  35.5280340 109.9886100 145.9142450
  44.8158850 114.2478600 150.0001960  43.8748990 114.2628830 150.1749650
  45.1302920 113.4614560 150.4462260  34.7940490 115.9298200 143.5605920
  35.5603760 115.8179560 144.1231350  34.8715180 115.2336170 142.9082690
  33.4887250 113.3623270 144.2438810  33.5690840 112.4150780 144.3556210
  34.3807000 113.6930150 144.3499470  34.2901960 123.5118660 151.3473350
  35.0264440 122.9634120 151.6181920  34.6742880 124.3774670 151.2079340
  31.1747440 119.5792230 147.2214860  30.2487220 119.8213370 147.2120270
  31.6403870 120.4066490 147.0999610  37.4004270 122.6848970 143.1698920
  38.1932880 122.9737800 142.7180710  36.8808620 122.2541140 142.4911400
  46.4534440 121.9119100 144.5935660  46.1675950 121.4984240 143.7789840
  46.2553990 122.8406810 144.4736180  37.9181670 117.9052380 143.0341270
  37.8132310 117.2904730 143.7602650  37.7505890 117.3818270 142.2504280
  41.1584400 116.9672410 143.6383260  40.6094500 117.4141710 144.2826000
  41.7803660 116.4621660 144.1620930  36.8259520 115.9263330 145.5348560
  37.2475940 115.7603200 146.3779950  36.9510360 115.1163560 145.0403700
  39.3387160 114.9500940 142.7825660  39.8592820 114.2349960 142.4166810
  39.9855560 115.5886810 143.0826170  35.7218420 111.9996560 142.4806720
  35.5207480 111.1363920 142.8420060  35.5510470 111.9129920 141.5428320
  43.2006730 106.8104790 145.0093600  43.4809020 105.9672690 145.3653020
  42.4272460 107.0427900 145.5232350  34.5201220 109.0997180 142.4684600
  34.8227120 109.1064610 141.5603750  35.2595810 108.7495040 142.9652260
  37.7386150 108.0431800 143.4540800  37.3908150 107.3655790 142.8743250
  37.9398920 107.5821310 144.2684190  39.9035190 123.0312550 145.0727400
  40.7985980 123.3697520 145.0946160  39.9352820 122.3091960 144.4451680
  33.5431350 118.4039600 143.3014400  33.9806220 118.9469270 143.9571980
  34.0279080 117.5786550 143.3110740  30.7577150 121.1928630 150.7534660
  31.0880160 120.3249690 150.5213300  31.1868150 121.3987150 151.5839620
  35.3539070 119.5237640 148.4136630  35.0534610 119.4002610 149.3140540
  35.2476560 118.6646230 148.0052360  48.1230990 119.3034040 143.1163310
  47.2923950 119.3710690 143.5870540  48.3002820 120.1938160 142.8130170
  47.5787450 116.0481520 145.6197510  48.3406360 116.6178170 145.7257200
  47.5941820 115.4808720 146.3905820  31.0791790 114.5719450 149.8505170
  30.4240630 114.3031090 149.2064870  31.9169740 114.4623930 149.4007150
  48.5847420 116.9031620 150.4639440  48.9556250 116.1198940 150.0575410
  49.2249350 117.5920720 150.2856740  47.6306620 116.3415890 142.7770030
  47.9055460 117.2494770 142.6489250  47.4417360 116.2778420 143.7132020
  44.0282230 109.3660740 144.0723660  44.4467110 109.1791720 143.2320320
  43.7218290 108.5139790 144.3826590  47.5271960 114.2784880 147.7699460
  47.1515560 113.5112810 147.3380750  46.7975080 114.6607580 148.2574390
  30.2929870 111.7818380 145.7930500  29.3893950 112.0448580 145.6182160
  30.7770490 112.0529550 145.0130460  32.8357080 110.8383920 143.7024880
  33.5448780 110.4167140 143.2172160  32.1197020 110.9059150 143.0708230
  32.4831240 106.8923250 142.7427530  33.2059370 107.4332190 143.0608750
  32.7555760 106.6186670 141.8669070  46.2922890 111.7615720 147.0099110
  46.7882010 111.5286590 147.7947990  46.0938960 110.9227560 146.5936750
  47.7210050 110.3976670 149.5436790  47.6109330 110.2432710 150.4819060
  48.4817640 109.8697610 149.3012200  48.6100320 108.2284590 142.7842930
  49.5349630 108.0965770 142.5761220  48.5876110 108.3077410 143.7379380
  48.6838810 108.9995250 145.4099640  47.8890310 108.9340370 145.9392550
  48.8882090 109.9345890 145.3984990  45.6257230 123.0386800 149.4038030
  46.2216300 122.7171370 148.7272450  45.8835380 122.5658620 150.1951300
  46.9797310 106.9607370 149.8707290  46.9185710 106.0168590 149.7238310
  47.7589340 107.0687460 150.4160750  31.2850060 123.0999730 148.8331240
  31.1172100 122.4670410 149.5313130  30.4184570 123.3059130 148.4825430
  31.9078080 106.9316510 146.3363100  32.6657440 107.0445390 145.7627130
  31.4455250 107.7685710 146.2906530  38.4491890 109.0455780 149.3265410
  37.6366400 108.6712670 148.9861290  38.9533530 108.2900860 149.6286600
  42.9516870 105.7098230 150.5648480  43.5546240 106.2818440 151.0397000
  42.2109860 106.2737670 150.3422380  46.0951470 106.1119790 145.8388760
  46.2902100 107.0103240 146.1056190  45.3081340 105.8806870 146.3321710
  32.8912760 121.7932960 146.2781380  32.3660380 122.1740990 145.5743340
  32.8157340 122.4183730 146.9991090  34.2803230 107.4580560 144.8765070
  34.8095990 106.6710360 144.7473020  34.9131550 108.1371750 145.1100600
  36.4741070 107.1955700 147.9310460  35.8443810 106.4943010 148.0980590
  35.9346210 107.9559830 147.7143620  47.6478080 123.3520500 147.5995320
  47.8230270 122.6658240 146.9556240  46.9499650 123.8767550 147.2071990
  35.4905730 123.7415340 145.1530630  36.2224550 123.4574620 144.6054520
  35.7499400 123.5028620 146.0430010  34.6520520 119.8580070 145.1576960
  34.0229400 120.3265170 145.7062790  34.7668350 119.0129290 145.5923150
  42.1070240 113.9085730 131.3078160  42.0264290 112.9940340 131.0369870
  41.6934660 114.4052800 130.6017870  40.2388280 115.6864750 133.1887430
  39.4630380 115.2065190 133.4786000  40.8901210 115.0070400 133.0143590
  34.2554110 115.9984560 134.0663190  33.4238990 115.7433270 134.4659700
  34.8635090 116.0695330 134.8021110  44.2595710 120.0924940 131.9686560
  43.7977240 119.3212180 132.2973730  45.0721260 120.1191010 132.4739010
  34.2355370 120.0324650 134.2621210  34.5383410 119.1422390 134.0831430
  34.9798960 120.5894870 134.0343460  32.6646060 110.9586450 127.8505580
  31.7762760 111.3002420 127.7485460  32.9487250 110.7586770 126.9586410
  30.6279070 113.5592100 133.7345280  31.1995180 112.7914300 133.7348920
  30.6280610 113.8580860 132.8251890  40.4859020 122.3782950 131.5890550
  39.8670460 122.8340450 131.0184990  41.3410800 122.5334410 131.1880250
  39.6797270 118.3621940 133.1957590  39.6105550 117.4211880 133.0346720
  40.4417130 118.4523350 133.7680160  31.8703940 108.9676460 135.5214210
  31.6906780 108.0702210 135.8016970  31.4684020 109.5148330 136.1961160
  40.7102440 111.1692320 133.4226520  41.0867260 110.2964200 133.3100190
  40.6121950 111.5051020 132.5316960  34.8407450 109.5417950 128.8843960
  34.9474200 110.4421680 129.1912720  33.9299810 109.4935920 128.5938610
  44.4926560 108.6642760 130.3554860  45.3136180 108.1739330 130.3980340
  44.5260640 109.2540420 131.1086700  32.4890610 111.4636960 134.1296550
  33.1700720 111.7275330 134.7483950  32.1738660 110.6237830 134.4634560
  36.6815180 112.5104320 133.2169140  37.1893400 113.0085290 133.8574160
  37.2128420 111.7339520 133.0408500  48.7826110 110.6809510 136.9198490
  48.0778280 111.0691220 136.4013600  49.0484030 111.3759800 137.5219420
  34.9651280 107.1502880 137.4832560  34.9669720 107.6675270 136.6778460
  34.1355590 106.6733060 137.4602490  41.3522370 117.2622190 128.9822460
  40.7339640 117.7271640 128.4185180  41.8645620 117.9549670 129.3991970
  36.2154130 116.7898060 135.6606060  35.8823510 117.4166980 136.3027130
  36.3920810 117.3159940 134.8807730  44.7288040 110.6043140 133.1282400
  44.0243610 110.8928030 133.7085510  45.0900200 111.4143250 132.7681960
  34.6466610 108.8612840 135.4903010  34.9883420 109.7054890 135.1956880
  33.7082420 109.0096580 135.6068350  35.4273230 118.7578860 137.4755240
  36.0447230 119.4329940 137.1939690  34.5666350 119.1666840 137.3842740
  30.7205570 117.9478720 126.3562090  30.3433550 118.4365820 125.6246990
  30.9778640 118.6204000 126.9868620  46.3450820 120.2218270 135.3909880
  45.6614340 120.8917380 135.3826550  46.8845110 120.4198920 134.6254740
  47.7974960 110.0497930 133.5191610  46.8499870 110.0836910 133.6507040
  48.1224950 110.8636880 133.9040970  38.3294500 106.3495110 131.8147600
  38.6369480 105.7942000 131.0983100  37.3995200 106.4839570 131.6320590
  43.8809560 122.0662400 134.1055060  43.8936720 121.6624690 133.2377320
  43.3284780 122.8409690 134.0016490  45.1754980 118.7878620 129.1945230
  45.0651310 117.8452950 129.3194650  45.1723230 119.1494260 130.0807990
  43.2795000 116.9692240 135.4337670  43.6963790 116.7552350 134.5991130
  44.0034820 117.2265030 136.0046290  40.7175260 114.4143940 128.5507720
  39.7904540 114.3481320 128.7796190  40.8700080 115.3524070 128.4362960
  40.7044340 110.6860940 125.5474880  39.7648010 110.8474900 125.6327340
  41.0227600 111.4046620 125.0010870  47.2257100 115.3679460 135.5253910
  46.3975730 115.4372550 135.0504040  47.8207580 115.9533770 135.0569740
  44.7472550 115.9764240 129.0542970  44.1284970 115.6383790 128.4069270
  44.7297000 115.3324000 129.7622160  44.1899110 112.1548780 136.4708780
  43.7770290 112.9802490 136.7248770  43.4575060 111.5693820 136.2785140
  36.3231900 114.9408680 131.3327450  35.9188900 114.2285930 130.8373350
  36.4095020 114.5961920 132.2215490  36.7913600 118.6276240 133.4966660
  36.4941890 118.0221710 132.8174440  37.7413420 118.6653550 133.3856020
  35.0360520 111.7151890 135.1126490  35.5875110 111.8247230 134.3379740
  35.5504030 112.0889490 135.8281720  44.8799210 122.2008110 137.1589760
  44.4029770 123.0080300 136.9662370  44.1961000 121.5486440 137.3115970
  35.8832030 118.3657930 140.1474460  34.9860560 118.5897900 140.3947860
  35.9084900 118.4892870 139.1985860  42.9237250 115.2151050 126.0615720
  43.3630530 114.3773480 125.9153540  43.6365670 115.8480450 126.1479860
  34.7103250 115.2371250 138.7231830  34.5711020 116.1094050 139.0919230
  33.8284610 114.8944060 138.5779770  41.0332630 120.1547120 130.0296960
  41.4728540 120.8971450 129.6152350  40.9719520 120.3973690 130.9535920
  36.5083600 121.1792950 140.9316980  36.4799030 121.5835900 140.0645410
  36.3448570 120.2503310 140.7688580  46.5054390 106.4693860 124.3756760
  46.1927050 106.5620690 125.2755830  47.2666860 107.0474890 124.3254190
  33.0236530 113.8353660 128.8334100  32.9034130 114.5615750 128.2215370
  32.7137420 113.0656570 128.3562010  48.4598420 121.9620050 142.2281150
  48.9358140 122.4402940 142.9070230  49.0805580 121.8937540 141.5026650
  30.6621900 117.0068800 134.6402740  30.7402320 117.1417570 133.6958460
  31.2763580 116.2984690 134.8330860  31.9069530 118.7068990 131.0508920
  31.4997610 118.8483580 130.1962520  32.7982540 118.4229150 130.8480130
  47.8631670 119.1532900 139.3881160  47.9894730 118.9144780 138.4698340
  47.9053050 118.3217440 139.8603240  41.7248410 122.8560900 137.9575970
  42.2393080 122.7668910 138.7598400  40.8817490 123.2020600 138.2503880
  43.7002810 123.1416240 127.3859970  43.5403950 122.8519180 128.2841800
  43.5349520 122.3656370 126.8505200  36.1791190 122.9214770 129.1631590
  36.0033670 122.0050310 128.9499390  35.3246930 123.2802060 129.4029390
  43.4028940 120.6503800 125.9457970  42.7094100 120.6481090 125.2860250
  44.1451800 120.2263120 125.5152140  42.9678870 122.2766510 130.0206460
  43.4235820 121.4955890 130.3345080  43.3071390 122.9873330 130.5647640
  47.7155680 111.2065360 140.3530900  47.0999950 111.7145030 139.8246360
  47.3952100 110.3063690 140.2956840  30.7181420 118.0482970 137.1797200
  30.8812460 117.5788330 136.3616570  31.1833870 117.5406530 137.8446040
  35.4900190 107.1788730 132.2157770  35.0468340 107.9598270 131.8842290
  36.0485180 107.5018620 132.9228710  39.7770000 110.0457250 137.8193090
  39.3149370 110.2540270 138.6313030  39.3748110 109.2316600 137.5163760
  44.7774510 111.2666200 138.9489750  43.9268100 110.9671950 139.2698820
  44.6176300 111.5108210 138.0373570  41.8724220 112.7667950 141.0488540
  42.1977630 111.9331700 140.7090770  42.6604550 113.2896470 141.1966870
  38.6059010 106.7999430 127.0963600  37.9813190 106.7959300 127.8216910
  38.5189130 105.9330390 126.6999570  37.5276090 107.7236060 134.0747370
  37.8248420 108.6298890 133.9939390  38.0761650 107.2354840 133.4606940
  35.2814410 112.3022300 129.9439020  35.0555330 112.0859470 130.8485640
  34.5006940 112.7350760 129.5984990  42.5112170 112.3085670 128.5429670
  41.9121060 113.0321470 128.3593290  43.0591780 112.2462450 127.7606120
  37.7213620 113.2007880 140.6099290  37.6257220 112.2602610 140.4599690
  38.5645600 113.4222950 140.2147360  41.1177040 110.9449210 130.5732950
  41.5106610 111.2621410 129.7601640  41.4793890 110.0661090 130.6877470
  32.8524160 109.6121550 138.7633070  32.4587550 110.4596760 138.9705850
  32.1642560 108.9747920 138.9541710  39.4269210 109.6956520 141.8329810
  38.7367530 109.5028720 142.4675900  40.1701510 109.9791160 142.3654110
  30.1541210 107.5350010 132.7963150  29.8654260 108.1052870 133.5088130
  30.8986970 107.0554460 133.1594380  30.3411440 111.4770130 124.0065870
  30.2586110 112.4200890 124.1480860  29.9894500 111.3345040 123.1278220
  41.7032180 113.5354960 134.6683730  40.9713300 114.0441770 135.0173830
  41.3056520 112.7184940 134.3672510  38.1409570 110.2109160 133.0736220
  38.1445630 109.7699110 132.2240760  39.0360690 110.5326490 133.1808040
  33.9911950 110.0935650 132.0330430  33.6512000 110.5710880 132.7897480
  33.2289270 109.6400770 131.6731530  38.2029720 111.2121240 126.0642980
  38.3242540 111.1707720 127.0128800  37.8178230 112.0745390 125.9089710
  42.1658090 108.9888640 134.0806670  42.1830830 109.4397290 134.9248520
  41.9173670 108.0894280 134.2940110  37.2151220 113.5222380 125.4626280
  36.6468120 113.0740630 124.8362190  37.9240220 113.8815160 124.9291430
  45.5928840 106.4020820 139.9193050  45.9174610 105.6710480 140.4451030
  45.6285350 106.0834460 139.0174040  32.2920400 117.4234400 139.3393010
  31.9075190 116.7828070 139.9375970  32.6032590 118.1270520 139.9087740
  38.4417540 114.2710940 134.8201630  38.8087670 113.7969510 135.5662970
  38.2522600 115.1452510 135.1609970  31.3058030 109.0154630 130.9495100
  31.0204950 108.6510300 131.7873720  31.2436890 108.2835090 130.3358240
  36.2316910 113.3119580 137.1385840  35.9273980 114.1911560 137.3636200
  37.1863370 113.3719370 137.1743280  34.7598700 117.5180570 127.7352690
  33.9860960 116.9778190 127.5751410  35.4893330 116.9987180 127.3970450
  45.5186680 116.5145930 133.5279080  46.2385800 117.0101220 133.1375190
  45.3168500 115.8363820 132.8832950  40.9796620 107.9083890 127.6708470
  40.1661230 107.4097060 127.5953780  40.7858570 108.7482140 127.2544820
  40.9005480 116.5854990 139.4148080  40.8342790 115.6650660 139.1605670
  40.2710620 116.6830430 140.1292720  43.6945010 112.2803540 125.9670630
  44.5824630 112.5920770 125.7921970  43.6650100 111.4075790 125.5751210
  34.8036100 117.1860950 131.3731500  35.3214770 116.3829210 131.3188390
  34.3520120 117.1240090 132.2148330  39.6905600 118.4527230 126.6458800
  40.0321300 119.1969460 126.1502120  38.8618310 118.7658350 127.0083630
  32.2880640 114.1522320 138.2857200  31.9295580 114.8176170 138.8730540
  31.9935200 113.3205870 138.6569820  35.4893760 114.6106560 141.1696750
  35.1893900 114.7563740 140.2724570  36.2605000 114.0511850 141.0770140
  40.8322210 119.4075560 139.1651880  40.8466750 118.4756520 138.9470790
  40.1247310 119.4935320 139.8041650  45.9659280 113.5915380 125.4350490
  45.8823000 114.0229600 124.5846930  46.6853470 114.0513730 125.8677310
  47.0433420 116.0482900 138.5120460  46.3181610 116.6411680 138.3149850
  47.5708880 116.0406440 137.7133830  46.9946530 120.4457640 128.1632620
  46.3522690 119.7913260 128.4376340  46.6077190 120.8512730 127.3873290
  42.5733010 117.7743070 132.0104310  42.9256830 117.1771200 131.3505680
  41.6895340 117.4487300 132.1812560  38.6596290 118.5340760 129.4174720
  39.3467420 119.0809970 129.7982310  37.8728710 119.0781490 129.4524330
  30.7988690 114.1513580 124.9091800  31.6683540 114.4338380 125.1927720
  30.3079010 114.9649450 124.7940610  37.9623500 115.5386790 129.0300080
  38.4186280 116.3492040 129.2560270  37.6111710 115.2209930 129.8618570
  40.2656110 121.0493130 136.2592380  40.9098330 121.2552510 136.9365800
  40.6285550 120.2881530 135.8063230  33.8635280 105.8824440 129.5022600
  33.7349910 105.8742340 130.4507520  33.0397300 106.2207530 129.1513610
  41.5388190 119.0525480 134.9769830  42.1810420 118.3518640 135.0902000
  42.0637540 119.8323920 134.7966720  45.3843910 119.3374100 124.7008970
  45.1581490 118.6204540 125.2933610  44.9940110 119.0886540 123.8630720
  43.3125810 119.8520380 138.1805890  43.6482050 120.4387070 138.8583810
  42.3926150 119.7213090 138.4103680  31.1659940 123.3640960 125.4753430
  31.5257580 123.9630300 124.8210700  31.0252280 123.9100850 126.2488460
  30.8629210 107.6415560 138.9629300  30.1487730 107.8412480 139.5681910
  31.2824250 106.8655130 139.3344100  44.9660160 117.2546040 126.3623130
  44.6781860 117.7158730 127.1501010  45.7612330 116.7943810 126.6307350
  31.1501800 121.6295820 139.9495830  31.2592920 120.6890560 139.8091220
  30.4982360 121.8950570 139.3009560  39.1414390 119.9011710 141.3493950
  38.8211260 119.1820950 141.8939640  38.4672750 120.5766780 141.4230010
  37.1828560 120.7472160 126.2927100  37.1738660 121.4801850 125.6771610
  36.2626920 120.5003740 126.3854060  32.7835200 115.9687050 127.0373860
  32.1763150 116.7085950 127.0469160  33.2584550 116.0586410 126.2112060
  42.3567990 110.1337870 136.7130750  42.7248810 109.3133080 137.0410320
  41.4966190 110.1939760 137.1286400  45.7230020 109.0894810 127.5218310
  45.0943180 109.1940480 126.8076540  45.2281940 109.3091590 128.3112190
  40.1688160 120.8100400 124.9552290  40.2700140 120.6064390 124.0254270
  39.2689900 120.5558680 125.1600070  37.6914050 111.3680760 128.9376190
  36.9830200 111.8367100 129.3789800  37.9758530 110.7102770 129.5721380
  39.3169980 112.7877460 136.9368720  39.8155230 113.2623280 137.6020570
  39.4592930 111.8640980 137.1438750  41.7229480 108.0931420 130.3771980
  41.5997260 108.1117550 129.4281490  42.6714040 108.1410360 130.4970380
  38.8106270 123.3286720 129.6499960  39.0647770 123.2908110 128.7279330
  37.8618750 123.2020050 129.6428210  35.8949070 109.6765840 126.3126900
  36.7439600 110.1135990 126.2467090  35.5280340 109.9886100 127.1398960
  46.5236840 109.0045420 137.7797110  46.0210440 109.7450820 138.1190920
  47.3393500 109.3929420 137.4633900  44.8158850 114.2478600 131.2258470
  43.8748990 114.2628830 131.4006160  45.1302920 113.4614560 131.6718770
  34.7940490 115.9298200 124.7862430  35.5603760 115.8179560 125.3487860
  34.8715180 115.2336170 124.1339200  33.4887250 113.3623270 125.4695320
  33.5690840 112.4150780 125.5812720  34.3807000 113.6930150 125.5755980
  46.8184430 121.4187450 132.9012730  46.9431850 122.2418620 133.3736540
  47.6849990 121.2078180 132.5536880  34.2901960 123.5118660 132.5729860
  35.0264440 122.9634120 132.8438430  34.6742880 124.3774670 132.4335850
  31.1747440 119.5792230 128.4471370  30.2487220 119.8213370 128.4376780
  31.6403870 120.4066490 128.3256120  33.2960240 122.6964730 141.7615440
  34.0972970 123.0176780 142.1750840  32.7812060 122.3360310 142.4835350
  37.4004270 122.6848970 124.3955430  38.1932880 122.9737800 123.9437220
  36.8808620 122.2541140 123.7167910  42.1324870 118.8044600 141.7090850
  41.5263030 118.8276200 140.9686600  41.8278980 118.0727640 142.2458100
  43.5625240 122.5324890 140.3200260  44.5146990 122.4482910 140.2700500
  43.4153460 123.1966600 140.9934050  46.4534440 121.9119100 125.8192170
  46.1675950 121.4984240 125.0046350  46.2553990 122.8406810 125.6992690
  31.0158050 115.1838190 140.7051490  31.5197070 114.6045470 141.2767720
  30.2765470 115.4678420 141.2427860  37.9181670 117.9052380 124.2597780
  37.8132310 117.2904730 124.9859160  37.7505890 117.3818270 123.4760790
  38.0695990 116.5909180 140.2387010  37.3041660 117.1594180 140.1541680
  38.2511950 116.2985390 139.3455240  41.1584400 116.9672410 124.8639770
  40.6094500 117.4141710 125.5082510  41.7803660 116.4621660 125.3877440
  45.2119340 118.3214510 140.7962030  45.9528810 118.6590270 140.2929490
  44.4492020 118.4906570 140.2431800  33.0481130 113.3267780 141.6001560
  33.0886470 113.0281650 142.5086790  33.9026630 113.7275390 141.4409080
  36.8259520 115.9263330 126.7605070  37.2475940 115.7603200 127.6036460
  36.9510360 115.1163560 126.2660210  34.9886940 111.9059880 139.5676050
  34.4583400 111.4150830 138.9399390  35.6575010 112.3344080 139.0333980
  39.3387160 114.9500940 124.0082170  39.8592820 114.2349960 123.6423320
  39.9855560 115.5886810 124.3082680  43.8865000 116.3729340 139.3317240
  44.3006020 116.5274420 140.1807660  42.9516000 116.4984560 139.4943020
  44.3587170 113.7125500 141.3356390  44.9407940 112.9577820 141.2476870
  44.5348940 114.2432940 140.5587870  35.4759240 108.8722250 139.6473340
  35.3816110 108.2543000 138.9224210  34.8956630 109.5988540 139.4203250
  38.2420680 107.4295490 136.6800730  37.7937980 107.4519750 135.8346280
  37.6085880 107.0314510 137.2771030  38.6480230 116.3249820 137.3013170
  39.0668340 117.1682550 137.1289410  37.7288860 116.4621860 137.0719950
  40.9844130 114.0566000 138.6851010  41.1040340 113.4607140 139.4245850
  41.8438130 114.0935690 138.2652310  43.3232030 114.6103190 137.2613520
  42.7967250 115.1345810 136.6578660  43.6663370 115.2430580 137.8923250
  35.7218420 111.9996560 123.7063230  35.5207480 111.1363920 124.0676570
  35.5510470 111.9129920 122.7684830  36.4987650 122.6302830 138.4170900
  35.9608740 123.3548890 138.0979600  36.7521610 122.1533170 137.6268240
  37.7512900 110.5987350 139.9426830  38.3412590 110.2903200 140.6304650
  36.9333140 110.1267100 140.0986730  42.5706330 110.2153160 140.1759850
  41.8821850 109.5534700 140.1109840  43.2912350 109.7691430 140.6208310
  43.2006730 106.8104790 126.2350110  43.4809020 105.9672690 126.5909530
  42.4272460 107.0427900 126.7488860  34.5201220 109.0997180 123.6941110
  34.8227120 109.1064610 122.7860260  35.2595810 108.7495040 124.1908770
  39.3549860 123.8654040 138.6757550  39.2808560 124.7689180 138.9829920
  38.4528700 123.5465940 138.6479620  37.7386150 108.0431800 124.6797310
  37.3908150 107.3655790 124.0999760  37.9398920 107.5821310 125.4940700
  39.9035190 123.0312550 126.2983910  40.7985980 123.3697520 126.3202670
  39.9352820 122.3091960 125.6708190  33.5431350 118.4039600 124.5270910
  33.9806220 118.9469270 125.1828490  34.0279080 117.5786550 124.5367250
  30.7577150 121.1928630 131.9791170  31.0880160 120.3249690 131.7469810
  31.1868150 121.3987150 132.8096130  35.3539070 119.5237640 129.6393140
  35.0534610 119.4002610 130.5397050  35.2476560 118.6646230 129.2308870
  31.2467360 122.0599220 134.7172800  30.8098350 122.2400020 135.5496950
  31.8145040 122.8173840 134.5754520  46.8829540 121.5616220 139.0050110
  46.2831530 121.6208780 138.2614030  47.0123440 120.6221200 139.1346960
  48.1230990 119.3034040 124.3419820  47.2923950 119.3710690 124.8127050
  48.3002820 120.1938160 124.0386680  47.5787450 116.0481520 126.8454020
  48.3406360 116.6178170 126.9513710  47.5941820 115.4808720 127.6162330
  31.0791790 114.5719450 131.0761680  30.4240630 114.3031090 130.4321380
  31.9169740 114.4623930 130.6263660  48.5847420 116.9031620 131.6895950
  48.9556250 116.1198940 131.2831920  49.2249350 117.5920720 131.5113250
  45.5681180 118.2868200 137.1026270  44.7541020 118.7165360 137.3652060
  45.9755380 118.8986610 136.4895320  47.6306620 116.3415890 124.0026540
  47.9055460 117.2494770 123.8745760  47.4417360 116.2778420 124.9388530
  44.0282230 109.3660740 125.2980170  44.4467110 109.1791720 124.4576830
  43.7218290 108.5139790 125.6083100  47.5271960 114.2784880 128.9955970
  47.1515560 113.5112810 128.5637260  46.7975080 114.6607580 129.4830900
  32.1167720 114.9572020 135.6165020  32.4840760 114.8699420 136.4961040
  31.5478540 114.1938570 135.5171880  46.9171580 113.4256400 138.6295490
  46.6857670 113.1969150 137.7293440  47.1776130 114.3455950 138.5840380
  31.6683720 111.8681110 139.5223440  30.7739770 111.8347870 139.8617150
  32.2081270 112.0667900 140.2874690  45.3559650 108.6512830 141.4075190
  46.2329830 108.6596230 141.7909190  45.3680490 107.9143670 140.7967540
  30.2929870 111.7818380 127.0187010  29.3893950 112.0448580 126.8438670
  30.7770490 112.0529550 126.2386970  46.8022920 112.5042370 132.2963210
  47.3260400 112.0105020 131.6653380  47.3882340 112.6392730 133.0410780
  46.9812640 112.5882240 135.8182760  46.0315350 112.5545780 135.9327750
  47.1625650 113.4982350 135.5832530  32.8357080 110.8383920 124.9281390
  33.5448780 110.4167140 124.4428670  32.1197020 110.9059150 124.2964740
  32.4831240 106.8923250 123.9684040  33.2059370 107.4332190 124.2865260
  32.7555760 106.6186670 123.0925580  46.2922890 111.7615720 128.2355620
  46.7882010 111.5286590 129.0204500  46.0938960 110.9227560 127.8193260
  32.1723430 106.1429440 133.8706660  32.8199620 105.5926820 133.4301820
  32.5925270 106.3972590 134.6922470  47.7210050 110.3976670 130.7693300
  47.6109330 110.2432710 131.7075570  48.4817640 109.8697610 130.5268710
  46.0675770 106.3370800 137.2276300  46.7047990 106.9504940 137.5935490
  46.2150660 106.3731460 136.2825530  48.6100320 108.2284590 124.0099440
  49.5349630 108.0965770 123.8017730  48.5876110 108.3077410 124.9635890
  48.6838810 108.9995250 126.6356150  47.8890310 108.9340370 127.1649060
  48.8882090 109.9345890 126.6241500  45.6257230 123.0386800 130.6294540
  46.2216300 122.7171370 129.9528960  45.8835380 122.5658620 131.4207810
  31.9255430 106.2985110 136.6131980  31.5770250 106.7548930 137.3790160
  31.5943130 105.4042240 136.6954410  33.5319800 119.4704710 140.7785170
  33.4889430 119.0997620 141.6599630  33.6630810 120.4082280 140.9186990
  37.2325830 121.0264300 136.3794890  36.9917190 121.2938860 135.4925410
  38.1728470 121.1970030 136.4345750  39.4380250 107.4896990 140.1351400
  39.3769140 108.0818820 140.8846810  40.3780630 107.3822950 139.9901660
  42.0754810 107.1467050 139.7743690  42.6895220 107.4646340 139.1124770
  42.6204370 106.6615640 140.3939550  48.4929990 123.0458680 137.1805530
  47.9988270 123.4427550 136.4632660  47.8843280 122.4207890 137.5742810
  32.5976070 105.8261310 139.8882750  33.1459060 105.6449360 139.1248860
  32.6631380 105.0355420 140.4239060  33.3707830 122.4166960 137.8982950
  32.7768150 122.2851660 138.6372990  33.3631670 121.5805100 137.4325050
  42.8162850 105.7099190 136.1012980  41.9422690 106.0434300 135.8985910
  42.7073600 105.2372370 136.9264850  43.7234830 107.9170060 137.4854700
  43.3948190 107.1021820 137.1056430  44.6717130 107.8739870 137.3620390
  46.1769440 123.6882100 134.4592270  45.7172410 124.4397910 134.0850290
  45.5481900 122.9688570 134.4007070  33.0020060 119.7825340 136.8490990
  32.2754120 119.1630630 136.7816940  33.0629210 120.1765950 135.9789070
  36.6065160 121.9970340 133.6340400  37.1230180 121.3857700 133.1088660
  37.2562540 122.4999120 134.1251410  39.3460660 122.8878830 134.4609380
  39.6338470 122.6333130 133.5842390  39.8583880 122.3356190 135.0514950
  40.5637670 106.6269030 135.0405890  39.7809460 107.1014530 135.3202650
  40.2700600 105.7223860 134.9319070  45.1158740 107.3292130 133.0854980
  45.5566830 107.2737230 132.2376580  44.8466330 108.2450140 133.1565160
  46.9797310 106.9607370 131.0963800  46.9185710 106.0168590 130.9494820
  47.7589340 107.0687460 131.6417260  31.2850060 123.0999730 130.0587750
  31.1172100 122.4670410 130.7569640  30.4184570 123.3059130 129.7081940
  31.9078080 106.9316510 127.5619610  32.6657440 107.0445390 126.9883640
  31.4455250 107.7685710 127.5163040  38.4491890 109.0455780 130.5521920
  37.6366400 108.6712670 130.2117800  38.9533530 108.2900860 130.8543110
  42.9516870 105.7098230 131.7904990  43.5546240 106.2818440 132.2653510
  42.2109860 106.2737670 131.5678890  46.0951470 106.1119790 127.0645270
  46.2902100 107.0103240 127.3312700  45.3081340 105.8806870 127.5578220
  32.8912760 121.7932960 127.5037890  32.3660380 122.1740990 126.7999850
  32.8157340 122.4183730 128.2247600  34.2803230 107.4580560 126.1021580
  34.8095990 106.6710360 125.9729530  34.9131550 108.1371750 126.3357110
  36.4741070 107.1955700 129.1566970  35.8443810 106.4943010 129.3237100
  35.9346210 107.9559830 128.9400130  39.4133020 123.8094930 141.8277580
  40.3400330 123.5739200 141.8713540  39.3983450 124.6366930 141.3463610
  47.6478080 123.3520500 128.8251830  47.8230270 122.6658240 128.1812750
  46.9499650 123.8767550 128.4328500  36.5996630 106.4739680 141.5919460
  36.3180900 106.9773280 140.8280280  36.9816330 105.6761430 141.2261590
  35.4905730 123.7415340 126.3787140  36.2224550 123.4574620 125.8311030
  35.7499400 123.5028620 127.2686520  34.6520520 119.8580070 126.3833470
  34.0229400 120.3265170 126.9319300  34.7668350 119.0129290 126.8179660
  43.2012090 105.8893260 142.1699930  43.0877540 106.2087870 143.0651450
  44.0181830 106.2905770 141.8737210  45.9810580 123.0364790 141.6518620
  46.7735900 122.5414020 141.4444580  46.2743730 123.7154930 142.2594230
  42.1070240 113.9085730 112.5334670  42.0264290 112.9940340 112.2626380
  41.6934660 114.4052800 111.8274380  40.2388280 115.6864750 114.4143940
  39.4630380 115.2065190 114.7042510  40.8901210 115.0070400 114.2400100
  34.2554110 115.9984560 115.2919700  33.4238990 115.7433270 115.6916210
  34.8635090 116.0695330 116.0277620  34.2355370 120.0324650 115.4877720
  34.5383410 119.1422390 115.3087940  34.9798960 120.5894870 115.2599970
  32.6646060 110.9586450 109.0762090  31.7762760 111.3002420 108.9741970
  32.9487250 110.7586770 108.1842920  30.6279070 113.5592100 114.9601790
  31.1995180 112.7914300 114.9605430  30.6280610 113.8580860 114.0508400
  40.4859020 122.3782950 112.8147060  39.8670460 122.8340450 112.2441500
  41.3410800 122.5334410 112.4136760  39.6797270 118.3621940 114.4214100
  39.6105550 117.4211880 114.2603230  40.4417130 118.4523350 114.9936670
  31.8703940 108.9676460 116.7470720  31.6906780 108.0702210 117.0273480
  31.4684020 109.5148330 117.4217670  40.7102440 111.1692320 114.6483030
  41.0867260 110.2964200 114.5356700  40.6121950 111.5051020 113.7573470
  34.8407450 109.5417950 110.1100470  34.9474200 110.4421680 110.4169230
  33.9299810 109.4935920 109.8195120  44.4926560 108.6642760 111.5811370
  45.3136180 108.1739330 111.6236850  44.5260640 109.2540420 112.3343210
  32.4890610 111.4636960 115.3553060  33.1700720 111.7275330 115.9740460
  32.1738660 110.6237830 115.6891070  36.6815180 112.5104320 114.4425650
  37.1893400 113.0085290 115.0830670  37.2128420 111.7339520 114.2665010
  34.9651280 107.1502880 118.7089070  34.9669720 107.6675270 117.9034970
  34.1355590 106.6733060 118.6859000  41.3522370 117.2622190 110.2078970
  40.7339640 117.7271640 109.6441690  41.8645620 117.9549670 110.6248480
  36.2154130 116.7898060 116.8862570  35.8823510 117.4166980 117.5283640
  36.3920810 117.3159940 116.1064240  34.6466610 108.8612840 116.7159520
  34.9883420 109.7054890 116.4213390  33.7082420 109.0096580 116.8324860
  35.4273230 118.7578860 118.7011750  36.0447230 119.4329940 118.4196200
  34.5666350 119.1666840 118.6099250  30.7205570 117.9478720 107.5818600
  30.3433550 118.4365820 106.8503500  30.9778640 118.6204000 108.2125130
  38.3294500 106.3495110 113.0404110  38.6369480 105.7942000 112.3239610
  37.3995200 106.4839570 112.8577100  43.8809560 122.0662400 115.3311570
  43.8936720 121.6624690 114.4633830  43.3284780 122.8409690 115.2273000
  40.7175260 114.4143940 109.7764230  39.7904540 114.3481320 110.0052700
  40.8700080 115.3524070 109.6619470  40.7044340 110.6860940 106.7731390
  39.7648010 110.8474900 106.8583850  41.0227600 111.4046620 106.2267380
  44.1899110 112.1548780 117.6965290  43.7770290 112.9802490 117.9505280
  43.4575060 111.5693820 117.5041650  36.3231900 114.9408680 112.5583960
  35.9188900 114.2285930 112.0629860  36.4095020 114.5961920 113.4472000
  36.7913600 118.6276240 114.7223170  36.4941890 118.0221710 114.0430950
  37.7413420 118.6653550 114.6112530  35.0360520 111.7151890 116.3383000
  35.5875110 111.8247230 115.5636250  35.5504030 112.0889490 117.0538230
  44.8799210 122.2008110 118.3846270  44.4029770 123.0080300 118.1918880
  44.1961000 121.5486440 118.5372480  35.8832030 118.3657930 121.3730970
  34.9860560 118.5897900 121.6204370  35.9084900 118.4892870 120.4242370
  42.9237250 115.2151050 107.2872230  43.3630530 114.3773480 107.1410050
  43.6365670 115.8480450 107.3736370  34.7103250 115.2371250 119.9488340
  34.5711020 116.1094050 120.3175740  33.8284610 114.8944060 119.8036280
  41.0332630 120.1547120 111.2553470  41.4728540 120.8971450 110.8408860
  40.9719520 120.3973690 112.1792430  36.5083600 121.1792950 122.1573490
  36.4799030 121.5835900 121.2901920  36.3448570 120.2503310 121.9945090
  33.0236530 113.8353660 110.0590610  32.9034130 114.5615750 109.4471880
  32.7137420 113.0656570 109.5818520  48.4598420 121.9620050 123.4537660
  48.9358140 122.4402940 124.1326740  49.0805580 121.8937540 122.7283160
  30.6621900 117.0068800 115.8659250  30.7402320 117.1417570 114.9214970
  31.2763580 116.2984690 116.0587370  31.9069530 118.7068990 112.2765430
  31.4997610 118.8483580 111.4219030  32.7982540 118.4229150 112.0736640
  47.8631670 119.1532900 120.6137670  47.9894730 118.9144780 119.6954850
  47.9053050 118.3217440 121.0859750  41.7248410 122.8560900 119.1832480
  42.2393080 122.7668910 119.9854910  40.8817490 123.2020600 119.4760390
  43.7002810 123.1416240 108.6116480  43.5403950 122.8519180 109.5098310
  43.5349520 122.3656370 108.0761710  36.1791190 122.9214770 110.3888100
  36.0033670 122.0050310 110.1755900  35.3246930 123.2802060 110.6285900
  43.4028940 120.6503800 107.1714480  42.7094100 120.6481090 106.5116760
  44.1451800 120.2263120 106.7408650  42.9678870 122.2766510 111.2462970
  43.4235820 121.4955890 111.5601590  43.3071390 122.9873330 111.7904150
  47.7155680 111.2065360 121.5787410  47.0999950 111.7145030 121.0502870
  47.3952100 110.3063690 121.5213350  30.7181420 118.0482970 118.4053710
  30.8812460 117.5788330 117.5873080  31.1833870 117.5406530 119.0702550
  35.4900190 107.1788730 113.4414280  35.0468340 107.9598270 113.1098800
  36.0485180 107.5018620 114.1485220  39.7770000 110.0457250 119.0449600
  39.3149370 110.2540270 119.8569540  39.3748110 109.2316600 118.7420270
  44.7774510 111.2666200 120.1746260  43.9268100 110.9671950 120.4955330
  44.6176300 111.5108210 119.2630080  41.8724220 112.7667950 122.2745050
  42.1977630 111.9331700 121.9347280  42.6604550 113.2896470 122.4223380
  37.5276090 107.7236060 115.3003880  37.8248420 108.6298890 115.2195900
  38.0761650 107.2354840 114.6863450  35.2814410 112.3022300 111.1695530
  35.0555330 112.0859470 112.0742150  34.5006940 112.7350760 110.8241500
  42.5112170 112.3085670 109.7686180  41.9121060 113.0321470 109.5849800
  43.0591780 112.2462450 108.9862630  37.7213620 113.2007880 121.8355800
  37.6257220 112.2602610 121.6856200  38.5645600 113.4222950 121.4403870
  41.1177040 110.9449210 111.7989460  41.5106610 111.2621410 110.9858150
  41.4793890 110.0661090 111.9133980  32.8524160 109.6121550 119.9889580
  32.4587550 110.4596760 120.1962360  32.1642560 108.9747920 120.1798220
  39.4269210 109.6956520 123.0586320  38.7367530 109.5028720 123.6932410
  40.1701510 109.9791160 123.5910620  30.1541210 107.5350010 114.0219660
  29.8654260 108.1052870 114.7344640  30.8986970 107.0554460 114.3850890
  30.3411440 111.4770130 105.2322380  30.2586110 112.4200890 105.3737370
  29.9894500 111.3345040 104.3534730  41.7032180 113.5354960 115.8940240
  40.9713300 114.0441770 116.2430340  41.3056520 112.7184940 115.5929020
  38.1409570 110.2109160 114.2992730  38.1445630 109.7699110 113.4497270
  39.0360690 110.5326490 114.4064550  33.9911950 110.0935650 113.2586940
  33.6512000 110.5710880 114.0153990  33.2289270 109.6400770 112.8988040
  38.2029720 111.2121240 107.2899490  38.3242540 111.1707720 108.2385310
  37.8178230 112.0745390 107.1346220  42.1658090 108.9888640 115.3063180
  42.1830830 109.4397290 116.1505030  41.9173670 108.0894280 115.5196620
  37.2151220 113.5222380 106.6882790  36.6468120 113.0740630 106.0618700
  37.9240220 113.8815160 106.1547940  32.2920400 117.4234400 120.5649520
  31.9075190 116.7828070 121.1632480  32.6032590 118.1270520 121.1344250
  38.4417540 114.2710940 116.0458140  38.8087670 113.7969510 116.7919480
  38.2522600 115.1452510 116.3866480  31.3058030 109.0154630 112.1751610
  31.0204950 108.6510300 113.0130230  31.2436890 108.2835090 111.5614750
  36.2316910 113.3119580 118.3642350  35.9273980 114.1911560 118.5892710
  37.1863370 113.3719370 118.3999790  34.7598700 117.5180570 108.9609200
  33.9860960 116.9778190 108.8007920  35.4893330 116.9987180 108.6226960
  40.9005480 116.5854990 120.6404590  40.8342790 115.6650660 120.3862180
  40.2710620 116.6830430 121.3549230  43.6945010 112.2803540 107.1927140
  44.5824630 112.5920770 107.0178480  43.6650100 111.4075790 106.8007720
  34.8036100 117.1860950 112.5988010  35.3214770 116.3829210 112.5444900
  34.3520120 117.1240090 113.4404840  39.6905600 118.4527230 107.8715310
  40.0321300 119.1969460 107.3758630  38.8618310 118.7658350 108.2340140
  32.2880640 114.1522320 119.5113710  31.9295580 114.8176170 120.0987050
  31.9935200 113.3205870 119.8826330  35.4893760 114.6106560 122.3953260
  35.1893900 114.7563740 121.4981080  36.2605000 114.0511850 122.3026650
  40.8322210 119.4075560 120.3908390  40.8466750 118.4756520 120.1727300
  40.1247310 119.4935320 121.0298160  45.9659280 113.5915380 106.6607000
  45.8823000 114.0229600 105.8103440  46.6853470 114.0513730 107.0933820
  38.6596290 118.5340760 110.6431230  39.3467420 119.0809970 111.0238820
  37.8728710 119.0781490 110.6780840  30.7988690 114.1513580 106.1348310
  31.6683540 114.4338380 106.4184230  30.3079010 114.9649450 106.0197120
  37.9623500 115.5386790 110.2556590  38.4186280 116.3492040 110.4816780
  37.6111710 115.2209930 111.0875080  40.2656110 121.0493130 117.4848890
  40.9098330 121.2552510 118.1622310  40.6285550 120.2881530 117.0319740
  33.8635280 105.8824440 110.7279110  33.7349910 105.8742340 111.6764030
  33.0397300 106.2207530 110.3770120  41.5388190 119.0525480 116.2026340
  42.1810420 118.3518640 116.3158510  42.0637540 119.8323920 116.0223230
  45.3843910 119.3374100 105.9265480  45.1581490 118.6204540 106.5190120
  44.9940110 119.0886540 105.0887230  43.3125810 119.8520380 119.4062400
  43.6482050 120.4387070 120.0840320  42.3926150 119.7213090 119.6360190
  31.1659940 123.3640960 106.7009940  31.5257580 123.9630300 106.0467210
  31.0252280 123.9100850 107.4744970  30.8629210 107.6415560 120.1885810
  30.1487730 107.8412480 120.7938420  31.2824250 106.8655130 120.5600610
  31.1501800 121.6295820 121.1752340  31.2592920 120.6890560 121.0347730
  30.4982360 121.8950570 120.5266070  39.1414390 119.9011710 122.5750460
  38.8211260 119.1820950 123.1196150  38.4672750 120.5766780 122.6486520
  37.1828560 120.7472160 107.5183610  37.1738660 121.4801850 106.9028120
  36.2626920 120.5003740 107.6110570  32.7835200 115.9687050 108.2630370
  32.1763150 116.7085950 108.2725670  33.2584550 116.0586410 107.4368570
  42.3567990 110.1337870 117.9387260  42.7248810 109.3133080 118.2666830
  41.4966190 110.1939760 118.3542910  40.1688160 120.8100400 106.1808800
  40.2700140 120.6064390 105.2510780  39.2689900 120.5558680 106.3856580
  37.6914050 111.3680760 110.1632700  36.9830200 111.8367100 110.6046310
  37.9758530 110.7102770 110.7977890  39.3169980 112.7877460 118.1625230
  39.8155230 113.2623280 118.8277080  39.4592930 111.8640980 118.3695260
  41.7229480 108.0931420 111.6028490  41.5997260 108.1117550 110.6538000
  42.6714040 108.1410360 111.7226890  38.8106270 123.3286720 110.8756470
  39.0647770 123.2908110 109.9535840  37.8618750 123.2020050 110.8684720
  35.8949070 109.6765840 107.5383410  36.7439600 110.1135990 107.4723600
  35.5280340 109.9886100 108.3655470  34.7940490 115.9298200 106.0118940
  35.5603760 115.8179560 106.5744370  34.8715180 115.2336170 105.3595710
  33.4887250 113.3623270 106.6951830  33.5690840 112.4150780 106.8069230
  34.3807000 113.6930150 106.8012490  34.2901960 123.5118660 113.7986370
  35.0264440 122.9634120 114.0694940  34.6742880 124.3774670 113.6592360
  31.1747440 119.5792230 109.6727880  30.2487220 119.8213370 109.6633290
  31.6403870 120.4066490 109.5512630  33.2960240 122.6964730 122.9871950
  34.0972970 123.0176780 123.4007350  32.7812060 122.3360310 123.7091860
  37.4004270 122.6848970 105.6211940  38.1932880 122.9737800 105.1693730
  36.8808620 122.2541140 104.9424420  42.1324870 118.8044600 122.9347360
  41.5263030 118.8276200 122.1943110  41.8278980 118.0727640 123.4714610
  43.5625240 122.5324890 121.5456770  44.5146990 122.4482910 121.4957010
  43.4153460 123.1966600 122.2190560  46.4534440 121.9119100 107.0448680
  46.1675950 121.4984240 106.2302860  46.2553990 122.8406810 106.9249200
  31.0158050 115.1838190 121.9308000  31.5197070 114.6045470 122.5024230
  30.2765470 115.4678420 122.4684370  37.9181670 117.9052380 105.4854290
  37.8132310 117.2904730 106.2115670  37.7505890 117.3818270 104.7017300
  38.0695990 116.5909180 121.4643520  37.3041660 117.1594180 121.3798190
  38.2511950 116.2985390 120.5711750  41.1584400 116.9672410 106.0896280
  40.6094500 117.4141710 106.7339020  41.7803660 116.4621660 106.6133950
  45.2119340 118.3214510 122.0218540  45.9528810 118.6590270 121.5186000
  44.4492020 118.4906570 121.4688310  33.0481130 113.3267780 122.8258070
  33.0886470 113.0281650 123.7343300  33.9026630 113.7275390 122.6665590
  36.8259520 115.9263330 107.9861580  37.2475940 115.7603200 108.8292970
  36.9510360 115.1163560 107.4916720  34.9886940 111.9059880 120.7932560
  34.4583400 111.4150830 120.1655900  35.6575010 112.3344080 120.2590490
  39.3387160 114.9500940 105.2338680  39.8592820 114.2349960 104.8679830
  39.9855560 115.5886810 105.5339190  43.8865000 116.3729340 120.5573750
  44.3006020 116.5274420 121.4064170  42.9516000 116.4984560 120.7199530
  44.3587170 113.7125500 122.5612900  44.9407940 112.9577820 122.4733380
  44.5348940 114.2432940 121.7844380  35.4759240 108.8722250 120.8729850
  35.3816110 108.2543000 120.1480720  34.8956630 109.5988540 120.6459760
  38.2420680 107.4295490 117.9057240  37.7937980 107.4519750 117.0602790
  37.6085880 107.0314510 118.5027540  38.6480230 116.3249820 118.5269680
  39.0668340 117.1682550 118.3545920  37.7288860 116.4621860 118.2976460
  40.9844130 114.0566000 119.9107520  41.1040340 113.4607140 120.6502360
  41.8438130 114.0935690 119.4908820  43.3232030 114.6103190 118.4870030
  42.7967250 115.1345810 117.8835170  43.6663370 115.2430580 119.1179760
  35.7218420 111.9996560 104.9319740  35.5207480 111.1363920 105.2933080
  35.5510470 111.9129920 103.9941340  36.4987650 122.6302830 119.6427410
  35.9608740 123.3548890 119.3236110  36.7521610 122.1533170 118.8524750
  37.7512900 110.5987350 121.1683340  38.3412590 110.2903200 121.8561160
  36.9333140 110.1267100 121.3243240  34.5201220 109.0997180 104.9197620
  34.8227120 109.1064610 104.0116770  35.2595810 108.7495040 105.4165280
  39.3549860 123.8654040 119.9014060  39.2808560 124.7689180 120.2086430
  38.4528700 123.5465940 119.8736130  37.7386150 108.0431800 105.9053820
  37.3908150 107.3655790 105.3256270  37.9398920 107.5821310 106.7197210
  39.9035190 123.0312550 107.5240420  40.7985980 123.3697520 107.5459180
  39.9352820 122.3091960 106.8964700  33.5431350 118.4039600 105.7527420
  33.9806220 118.9469270 106.4085000  34.0279080 117.5786550 105.7623760
  30.7577150 121.1928630 113.2047680  31.0880160 120.3249690 112.9726320
  31.1868150 121.3987150 114.0352640  35.3539070 119.5237640 110.8649650
  35.0534610 119.4002610 111.7653560  35.2476560 118.6646230 110.4565380
  31.2467360 122.0599220 115.9429310  30.8098350 122.2400020 116.7753460
  31.8145040 122.8173840 115.8011030  46.8829540 121.5616220 120.2306620
  46.2831530 121.6208780 119.4870540  47.0123440 120.6221200 120.3603470
  48.1230990 119.3034040 105.5676330  47.2923950 119.3710690 106.0383560
  48.3002820 120.1938160 105.2643190  47.5787450 116.0481520 108.0710530
  48.3406360 116.6178170 108.1770220  47.5941820 115.4808720 108.8418840
  31.0791790 114.5719450 112.3018190  30.4240630 114.3031090 111.6577890
  31.9169740 114.4623930 111.8520170  47.6306620 116.3415890 105.2283050
  47.9055460 117.2494770 105.1002270  47.4417360 116.2778420 106.1645040
  32.1167720 114.9572020 116.8421530  32.4840760 114.8699420 117.7217550
  31.5478540 114.1938570 116.7428390  46.9171580 113.4256400 119.8552000
  46.6857670 113.1969150 118.9549950  47.1776130 114.3455950 119.8096890
  31.6683720 111.8681110 120.7479950  30.7739770 111.8347870 121.0873660
  32.2081270 112.0667900 121.5131200  30.2929870 111.7818380 108.2443520
  29.3893950 112.0448580 108.0695180  30.7770490 112.0529550 107.4643480
  32.8357080 110.8383920 106.1537900  33.5448780 110.4167140 105.6685180
  32.1197020 110.9059150 105.5221250  32.4831240 106.8923250 105.1940550
  33.2059370 107.4332190 105.5121770  32.7555760 106.6186670 104.3182090
  32.1723430 106.1429440 115.0963170  32.8199620 105.5926820 114.6558330
  32.5925270 106.3972590 115.9178980  31.9255430 106.2985110 117.8388490
  31.5770250 106.7548930 118.6046670  31.5943130 105.4042240 117.9210920
  33.5319800 119.4704710 122.0041680  33.4889430 119.0997620 122.8856140
  33.6630810 120.4082280 122.1443500  37.2325830 121.0264300 117.6051400
  36.9917190 121.2938860 116.7181920  38.1728470 121.1970030 117.6602260
  48.4929990 123.0458680 118.4062040  47.9988270 123.4427550 117.6889170
  47.8843280 122.4207890 118.7999320  32.5976070 105.8261310 121.1139260
  33.1459060 105.6449360 120.3505370  32.6631380 105.0355420 121.6495570
  33.3707830 122.4166960 119.1239460  32.7768150 122.2851660 119.8629500
  33.3631670 121.5805100 118.6581560  46.1769440 123.6882100 115.6848780
  45.7172410 124.4397910 115.3106800  45.5481900 122.9688570 115.6263580
  33.0020060 119.7825340 118.0747500  32.2754120 119.1630630 118.0073450
  33.0629210 120.1765950 117.2045580  36.6065160 121.9970340 114.8596910
  37.1230180 121.3857700 114.3345170  37.2562540 122.4999120 115.3507920
  39.3460660 122.8878830 115.6865890  39.6338470 122.6333130 114.8098900
  39.8583880 122.3356190 116.2771460  40.5637670 106.6269030 116.2662400
  39.7809460 107.1014530 116.5459160  40.2700600 105.7223860 116.1575580
  31.2850060 123.0999730 111.2844260  31.1172100 122.4670410 111.9826150
  30.4184570 123.3059130 110.9338450  31.9078080 106.9316510 108.7876120
  32.6657440 107.0445390 108.2140150  31.4455250 107.7685710 108.7419550
  38.4491890 109.0455780 111.7778430  37.6366400 108.6712670 111.4374310
  38.9533530 108.2900860 112.0799620  42.9516870 105.7098230 113.0161500
  43.5546240 106.2818440 113.4910020  42.2109860 106.2737670 112.7935400
  32.8912760 121.7932960 108.7294400  32.3660380 122.1740990 108.0256360
  32.8157340 122.4183730 109.4504110  34.2803230 107.4580560 107.3278090
  34.8095990 106.6710360 107.1986040  34.9131550 108.1371750 107.5613620
  36.4741070 107.1955700 110.3823480  35.8443810 106.4943010 110.5493610
  35.9346210 107.9559830 110.1656640  39.4133020 123.8094930 123.0534090
  40.3400330 123.5739200 123.0970050  39.3983450 124.6366930 122.5720120
  36.5996630 106.4739680 122.8175970  36.3180900 106.9773280 122.0536790
  36.9816330 105.6761430 122.4518100  35.4905730 123.7415340 107.6043650
  36.2224550 123.4574620 107.0567540  35.7499400 123.5028620 108.4943030
  34.6520520 119.8580070 107.6089980  34.0229400 120.3265170 108.1575810
  34.7668350 119.0129290 108.0436170  45.9810580 123.0364790 122.8775130
  46.7735900 122.5414020 122.6701090  46.2743730 123.7154930 123.4850740
  32.6646060 110.9586450  90.3018600  31.7762760 111.3002420  90.1998480
  32.9487250 110.7586770  89.4099430  30.6279070 113.5592100  96.1858300
  31.1995180 112.7914300  96.1861940  30.6280610 113.8580860  95.2764910
  40.4859020 122.3782950  94.0403570  39.8670460 122.8340450  93.4698010
  41.3410800 122.5334410  93.6393270  31.8703940 108.9676460  97.9727230
  31.6906780 108.0702210  98.2529990  31.4684020 109.5148330  98.6474180
  40.7102440 111.1692320  95.8739540  41.0867260 110.2964200  95.7613210
  40.6121950 111.5051020  94.9829980  34.8407450 109.5417950  91.3356980
  34.9474200 110.4421680  91.6425740  33.9299810 109.4935920  91.0451630
  32.4890610 111.4636960  96.5809570  33.1700720 111.7275330  97.1996970
  32.1738660 110.6237830  96.9147580  48.7826110 110.6809510  99.3711510
  48.0778280 111.0691220  98.8526620  49.0484030 111.3759800  99.9732440
  34.9651280 107.1502880  99.9345580  34.9669720 107.6675270  99.1291480
  34.1355590 106.6733060  99.9115510  41.3522370 117.2622190  91.4335480
  40.7339640 117.7271640  90.8698200  41.8645620 117.9549670  91.8504990
  34.6466610 108.8612840  97.9416030  34.9883420 109.7054890  97.6469900
  33.7082420 109.0096580  98.0581370  35.4273230 118.7578860  99.9268260
  36.0447230 119.4329940  99.6452710  34.5666350 119.1666840  99.8355760
  30.7205570 117.9478720  88.8075110  30.3433550 118.4365820  88.0760010
  30.9778640 118.6204000  89.4381640  38.3294500 106.3495110  94.2660620
  38.6369480 105.7942000  93.5496120  37.3995200 106.4839570  94.0833610
  43.8809560 122.0662400  96.5568080  43.8936720 121.6624690  95.6890340
  43.3284780 122.8409690  96.4529510  45.1754980 118.7878620  91.6458250
  45.0651310 117.8452950  91.7707670  45.1723230 119.1494260  92.5321010
  40.7175260 114.4143940  91.0020740  39.7904540 114.3481320  91.2309210
  40.8700080 115.3524070  90.8875980  44.7472550 115.9764240  91.5055990
  44.1284970 115.6383790  90.8582290  44.7297000 115.3324000  92.2135180
  44.1899110 112.1548780  98.9221800  43.7770290 112.9802490  99.1761790
  43.4575060 111.5693820  98.7298160  35.0360520 111.7151890  97.5639510
  35.5875110 111.8247230  96.7892760  35.5504030 112.0889490  98.2794740
  44.8799210 122.2008110  99.6102780  44.4029770 123.0080300  99.4175390
  44.1961000 121.5486440  99.7628990  35.8832030 118.3657930 102.5987480
  34.9860560 118.5897900 102.8460880  35.9084900 118.4892870 101.6498880
  42.9237250 115.2151050  88.5128740  43.3630530 114.3773480  88.3666560
  43.6365670 115.8480450  88.5992880  34.7103250 115.2371250 101.1744850
  34.5711020 116.1094050 101.5432250  33.8284610 114.8944060 101.0292790
  41.0332630 120.1547120  92.4809980  41.4728540 120.8971450  92.0665370
  40.9719520 120.3973690  93.4048940  36.5083600 121.1792950 103.3830000
  36.4799030 121.5835900 102.5158430  36.3448570 120.2503310 103.2201600
  33.0236530 113.8353660  91.2847120  32.9034130 114.5615750  90.6728390
  32.7137420 113.0656570  90.8075030  48.4598420 121.9620050 104.6794170
  48.9358140 122.4402940 105.3583250  49.0805580 121.8937540 103.9539670
  30.6621900 117.0068800  97.0915760  30.7402320 117.1417570  96.1471480
  31.2763580 116.2984690  97.2843880  41.7248410 122.8560900 100.4088990
  42.2393080 122.7668910 101.2111420  40.8817490 123.2020600 100.7016900
  43.7002810 123.1416240  89.8372990  43.5403950 122.8519180  90.7354820
  43.5349520 122.3656370  89.3018220  36.1791190 122.9214770  91.6144610
  36.0033670 122.0050310  91.4012410  35.3246930 123.2802060  91.8542410
  43.4028940 120.6503800  88.3970990  42.7094100 120.6481090  87.7373270
  44.1451800 120.2263120  87.9665160  42.9678870 122.2766510  92.4719480
  43.4235820 121.4955890  92.7858100  43.3071390 122.9873330  93.0160660
  30.7181420 118.0482970  99.6310220  30.8812460 117.5788330  98.8129590
  31.1833870 117.5406530 100.2959060  35.4900190 107.1788730  94.6670790
  35.0468340 107.9598270  94.3355310  36.0485180 107.5018620  95.3741730
  39.7770000 110.0457250 100.2706110  39.3149370 110.2540270 101.0826050
  39.3748110 109.2316600  99.9676780  41.8724220 112.7667950 103.5001560
  42.1977630 111.9331700 103.1603790  42.6604550 113.2896470 103.6479890
  38.6059010 106.7999430  89.5476620  37.9813190 106.7959300  90.2729930
  38.5189130 105.9330390  89.1512590  37.5276090 107.7236060  96.5260390
  37.8248420 108.6298890  96.4452410  38.0761650 107.2354840  95.9119960
  35.2814410 112.3022300  92.3952040  35.0555330 112.0859470  93.2998660
  34.5006940 112.7350760  92.0498010  42.5112170 112.3085670  90.9942690
  41.9121060 113.0321470  90.8106310  43.0591780 112.2462450  90.2119140
  37.7213620 113.2007880 103.0612310  37.6257220 112.2602610 102.9112710
  38.5645600 113.4222950 102.6660380  41.1177040 110.9449210  93.0245970
  41.5106610 111.2621410  92.2114660  41.4793890 110.0661090  93.1390490
  32.8524160 109.6121550 101.2146090  32.4587550 110.4596760 101.4218870
  32.1642560 108.9747920 101.4054730  39.4269210 109.6956520 104.2842830
  38.7367530 109.5028720 104.9188920  40.1701510 109.9791160 104.8167130
  30.1541210 107.5350010  95.2476170  29.8654260 108.1052870  95.9601150
  30.8986970 107.0554460  95.6107400  30.3411440 111.4770130  86.4578890
  30.2586110 112.4200890  86.5993880  29.9894500 111.3345040  85.5791240
  38.1409570 110.2109160  95.5249240  38.1445630 109.7699110  94.6753780
  39.0360690 110.5326490  95.6321060  33.9911950 110.0935650  94.4843450
  33.6512000 110.5710880  95.2410500  33.2289270 109.6400770  94.1244550
  37.2151220 113.5222380  87.9139300  36.6468120 113.0740630  87.2875210
  37.9240220 113.8815160  87.3804450  32.2920400 117.4234400 101.7906030
  31.9075190 116.7828070 102.3888990  32.6032590 118.1270520 102.3600760
  31.3058030 109.0154630  93.4008120  31.0204950 108.6510300  94.2386740
  31.2436890 108.2835090  92.7871260  36.2316910 113.3119580  99.5898860
  35.9273980 114.1911560  99.8149220  37.1863370 113.3719370  99.6256300
  34.7598700 117.5180570  90.1865710  33.9860960 116.9778190  90.0264430
  35.4893330 116.9987180  89.8483470  40.9005480 116.5854990 101.8661100
  40.8342790 115.6650660 101.6118690  40.2710620 116.6830430 102.5805740
  43.6945010 112.2803540  88.4183650  44.5824630 112.5920770  88.2434990
  43.6650100 111.4075790  88.0264230  39.6905600 118.4527230  89.0971820
  40.0321300 119.1969460  88.6015140  38.8618310 118.7658350  89.4596650
  32.2880640 114.1522320 100.7370220  31.9295580 114.8176170 101.3243560
  31.9935200 113.3205870 101.1082840  35.4893760 114.6106560 103.6209770
  35.1893900 114.7563740 102.7237590  36.2605000 114.0511850 103.5283160
  40.8322210 119.4075560 101.6164900  40.8466750 118.4756520 101.3983810
  40.1247310 119.4935320 102.2554670  46.9946530 120.4457640  90.6145640
  46.3522690 119.7913260  90.8889360  46.6077190 120.8512730  89.8386310
  30.7988690 114.1513580  87.3604820  31.6683540 114.4338380  87.6440740
  30.3079010 114.9649450  87.2453630  37.9623500 115.5386790  91.4813100
  38.4186280 116.3492040  91.7073290  37.6111710 115.2209930  92.3131590
  40.2656110 121.0493130  98.7105400  40.9098330 121.2552510  99.3878820
  40.6285550 120.2881530  98.2576250  33.8635280 105.8824440  91.9535620
  33.7349910 105.8742340  92.9020540  33.0397300 106.2207530  91.6026630
  45.3843910 119.3374100  87.1521990  45.1581490 118.6204540  87.7446630
  44.9940110 119.0886540  86.3143740  43.3125810 119.8520380 100.6318910
  43.6482050 120.4387070 101.3096830  42.3926150 119.7213090 100.8616700
  31.1659940 123.3640960  87.9266450  31.5257580 123.9630300  87.2723720
  31.0252280 123.9100850  88.7001480  30.8629210 107.6415560 101.4142320
  30.1487730 107.8412480 102.0194930  31.2824250 106.8655130 101.7857120
  44.9660160 117.2546040  88.8136150  44.6781860 117.7158730  89.6014030
  45.7612330 116.7943810  89.0820370  31.1501800 121.6295820 102.4008850
  31.2592920 120.6890560 102.2604240  30.4982360 121.8950570 101.7522580
  39.1414390 119.9011710 103.8006970  38.8211260 119.1820950 104.3452660
  38.4672750 120.5766780 103.8743030  37.1828560 120.7472160  88.7440120
  37.1738660 121.4801850  88.1284630  36.2626920 120.5003740  88.8367080
  32.7835200 115.9687050  89.4886880  32.1763150 116.7085950  89.4982180
  33.2584550 116.0586410  88.6625080  42.3567990 110.1337870  99.1643770
  42.7248810 109.3133080  99.4923340  41.4966190 110.1939760  99.5799420
  37.6914050 111.3680760  91.3889210  36.9830200 111.8367100  91.8302820
  37.9758530 110.7102770  92.0234400  39.3169980 112.7877460  99.3881740
  39.8155230 113.2623280 100.0533590  39.4592930 111.8640980  99.5951770
  41.7229480 108.0931420  92.8285000  41.5997260 108.1117550  91.8794510
  42.6714040 108.1410360  92.9483400  38.8106270 123.3286720  92.1012980
  39.0647770 123.2908110  91.1792350  37.8618750 123.2020050  92.0941230
  35.8949070 109.6765840  88.7639920  36.7439600 110.1135990  88.6980110
  35.5280340 109.9886100  89.5911980  34.7940490 115.9298200  87.2375450
  35.5603760 115.8179560  87.8000880  34.8715180 115.2336170  86.5852220
  33.4887250 113.3623270  87.9208340  33.5690840 112.4150780  88.0325740
  34.3807000 113.6930150  88.0269000  34.2901960 123.5118660  95.0242880
  35.0264440 122.9634120  95.2951450  34.6742880 124.3774670  94.8848870
  31.1747440 119.5792230  90.8984390  30.2487220 119.8213370  90.8889800
  31.6403870 120.4066490  90.7769140  33.2960240 122.6964730 104.2128460
  34.0972970 123.0176780 104.6263860  32.7812060 122.3360310 104.9348370
  42.1324870 118.8044600 104.1603870  41.5263030 118.8276200 103.4199620
  41.8278980 118.0727640 104.6971120  43.5625240 122.5324890 102.7713280
  44.5146990 122.4482910 102.7213520  43.4153460 123.1966600 103.4447070
  46.4534440 121.9119100  88.2705190  46.1675950 121.4984240  87.4559370
  46.2553990 122.8406810  88.1505710  31.0158050 115.1838190 103.1564510
  31.5197070 114.6045470 103.7280740  30.2765470 115.4678420 103.6940880
  37.9181670 117.9052380  86.7110800  37.8132310 117.2904730  87.4372180
  37.7505890 117.3818270  85.9273810  38.0695990 116.5909180 102.6900030
  37.3041660 117.1594180 102.6054700  38.2511950 116.2985390 101.7968260
  41.1584400 116.9672410  87.3152790  40.6094500 117.4141710  87.9595530
  41.7803660 116.4621660  87.8390460  45.2119340 118.3214510 103.2475050
  45.9528810 118.6590270 102.7442510  44.4492020 118.4906570 102.6944820
  33.0481130 113.3267780 104.0514580  33.0886470 113.0281650 104.9599810
  33.9026630 113.7275390 103.8922100  36.8259520 115.9263330  89.2118090
  37.2475940 115.7603200  90.0549480  36.9510360 115.1163560  88.7173230
  34.9886940 111.9059880 102.0189070  34.4583400 111.4150830 101.3912410
  35.6575010 112.3344080 101.4847000  39.3387160 114.9500940  86.4595190
  39.8592820 114.2349960  86.0936340  39.9855560 115.5886810  86.7595700
  44.3587170 113.7125500 103.7869410  44.9407940 112.9577820 103.6989890
  44.5348940 114.2432940 103.0100890  35.4759240 108.8722250 102.0986360
  35.3816110 108.2543000 101.3737230  34.8956630 109.5988540 101.8716270
  38.2420680 107.4295490  99.1313750  37.7937980 107.4519750  98.2859300
  37.6085880 107.0314510  99.7284050  38.6480230 116.3249820  99.7526190
  39.0668340 117.1682550  99.5802430  37.7288860 116.4621860  99.5232970
  40.9844130 114.0566000 101.1364030  41.1040340 113.4607140 101.8758870
  41.8438130 114.0935690 100.7165330  35.7218420 111.9996560  86.1576250
  35.5207480 111.1363920  86.5189590  35.5510470 111.9129920  85.2197850
  36.4987650 122.6302830 100.8683920  35.9608740 123.3548890 100.5492620
  36.7521610 122.1533170 100.0781260  37.7512900 110.5987350 102.3939850
  38.3412590 110.2903200 103.0817670  36.9333140 110.1267100 102.5499750
  34.5201220 109.0997180  86.1454130  34.8227120 109.1064610  85.2373280
  35.2595810 108.7495040  86.6421790  39.3549860 123.8654040 101.1270570
  39.2808560 124.7689180 101.4342940  38.4528700 123.5465940 101.0992640
  33.5431350 118.4039600  86.9783930  33.9806220 118.9469270  87.6341510
  34.0279080 117.5786550  86.9880270  30.7577150 121.1928630  94.4304190
  31.0880160 120.3249690  94.1982830  31.1868150 121.3987150  95.2609150
  31.2467360 122.0599220  97.1685820  30.8098350 122.2400020  98.0009970
  31.8145040 122.8173840  97.0267540  47.5787450 116.0481520  89.2967040
  48.3406360 116.6178170  89.4026730  47.5941820 115.4808720  90.0675350
  31.0791790 114.5719450  93.5274700  30.4240630 114.3031090  92.8834400
  31.9169740 114.4623930  93.0776680  32.1167720 114.9572020  98.0678040
  32.4840760 114.8699420  98.9474060  31.5478540 114.1938570  97.9684900
  46.9171580 113.4256400 101.0808510  46.6857670 113.1969150 100.1806460
  47.1776130 114.3455950 101.0353400  31.6683720 111.8681110 101.9736460
  30.7739770 111.8347870 102.3130170  32.2081270 112.0667900 102.7387710
  30.2929870 111.7818380  89.4700030  29.3893950 112.0448580  89.2951690
  30.7770490 112.0529550  88.6899990  46.9812640 112.5882240  98.2695780
  46.0315350 112.5545780  98.3840770  47.1625650 113.4982350  98.0345550
  32.8357080 110.8383920  87.3794410  33.5448780 110.4167140  86.8941690
  32.1197020 110.9059150  86.7477760  32.4831240 106.8923250  86.4197060
  33.2059370 107.4332190  86.7378280  32.7555760 106.6186670  85.5438600
  32.1723430 106.1429440  96.3219680  32.8199620 105.5926820  95.8814840
  32.5925270 106.3972590  97.1435490  48.6838810 108.9995250  89.0869170
  47.8890310 108.9340370  89.6162080  48.8882090 109.9345890  89.0754520
  45.6257230 123.0386800  93.0807560  46.2216300 122.7171370  92.4041980
  45.8835380 122.5658620  93.8720830  31.9255430 106.2985110  99.0645000
  31.5770250 106.7548930  99.8303180  31.5943130 105.4042240  99.1467430
  33.5319800 119.4704710 103.2298190  33.4889430 119.0997620 104.1112650
  33.6630810 120.4082280 103.3700010  37.2325830 121.0264300  98.8307910
  36.9917190 121.2938860  97.9438430  38.1728470 121.1970030  98.8858770
  39.4380250 107.4896990 102.5864420  39.3769140 108.0818820 103.3359830
  40.3780630 107.3822950 102.4414680  32.5976070 105.8261310 102.3395770
  33.1459060 105.6449360 101.5761880  32.6631380 105.0355420 102.8752080
  33.3707830 122.4166960 100.3495970  32.7768150 122.2851660 101.0886010
  33.3631670 121.5805100  99.8838070  33.0020060 119.7825340  99.3004010
  32.2754120 119.1630630  99.2329960  33.0629210 120.1765950  98.4302090
  39.3460660 122.8878830  96.9122400  39.6338470 122.6333130  96.0355410
  39.8583880 122.3356190  97.5027970  46.9797310 106.9607370  93.5476820
  46.9185710 106.0168590  93.4007840  47.7589340 107.0687460  94.0930280
  31.2850060 123.0999730  92.5100770  31.1172100 122.4670410  93.2082660
  30.4184570 123.3059130  92.1594960  31.9078080 106.9316510  90.0132630
  32.6657440 107.0445390  89.4396660  31.4455250 107.7685710  89.9676060
  38.4491890 109.0455780  93.0034940  37.6366400 108.6712670  92.6630820
  38.9533530 108.2900860  93.3056130  32.8912760 121.7932960  89.9550910
  32.3660380 122.1740990  89.2512870  32.8157340 122.4183730  90.6760620
  34.2803230 107.4580560  88.5534600  34.8095990 106.6710360  88.4242550
  34.9131550 108.1371750  88.7870130  36.4741070 107.1955700  91.6079990
  35.8443810 106.4943010  91.7750120  35.9346210 107.9559830  91.3913150
  39.4133020 123.8094930 104.2790600  40.3400330 123.5739200 104.3226560
  39.3983450 124.6366930 103.7976630  47.6478080 123.3520500  91.2764850
  47.8230270 122.6658240  90.6325770  46.9499650 123.8767550  90.8841520
  36.5996630 106.4739680 104.0432480  36.3180900 106.9773280 103.2793300
  36.9816330 105.6761430 103.6774610  35.4905730 123.7415340  88.8300160
  36.2224550 123.4574620  88.2824050  35.7499400 123.5028620  89.7199540
  34.6520520 119.8580070  88.8346490  34.0229400 120.3265170  89.3832320
  34.7668350 119.0129290  89.2692680  45.9810580 123.0364790 104.1031640
  46.7735900 122.5414020 103.8957600  46.2743730 123.7154930 104.7107250
  32.6646060 110.9586450  71.5275110  31.7762760 111.3002420  71.4254990
  32.9487250 110.7586770  70.6355940  30.6279070 113.5592100  77.4114810
  31.1995180 112.7914300  77.4118450  30.6280610 113.8580860  76.5021420
  31.8703940 108.9676460  79.1983740  31.6906780 108.0702210  79.4786500
  31.4684020 109.5148330  79.8730690  34.8407450 109.5417950  72.5613490
  34.9474200 110.4421680  72.8682250  33.9299810 109.4935920  72.2708140
  44.4926560 108.6642760  74.0324390  45.3136180 108.1739330  74.0749870
  44.5260640 109.2540420  74.7856230  32.4890610 111.4636960  77.8066080
  33.1700720 111.7275330  78.4253480  32.1738660 110.6237830  78.1404090
  36.6815180 112.5104320  76.8938670  37.1893400 113.0085290  77.5343690
  37.2128420 111.7339520  76.7178030  34.9651280 107.1502880  81.1602090
  34.9669720 107.6675270  80.3547990  34.1355590 106.6733060  81.1372020
  34.6466610 108.8612840  79.1672540  34.9883420 109.7054890  78.8726410
  33.7082420 109.0096580  79.2837880  35.4273230 118.7578860  81.1524770
  36.0447230 119.4329940  80.8709220  34.5666350 119.1666840  81.0612270
  43.2795000 116.9692240  79.1107200  43.6963790 116.7552350  78.2760660
  44.0034820 117.2265030  79.6815820  35.0360520 111.7151890  78.7896020
  35.5875110 111.8247230  78.0149270  35.5504030 112.0889490  79.5051250
  44.8799210 122.2008110  80.8359290  44.4029770 123.0080300  80.6431900
  44.1961000 121.5486440  80.9885500  35.8832030 118.3657930  83.8243990
  34.9860560 118.5897900  84.0717390  35.9084900 118.4892870  82.8755390
  34.7103250 115.2371250  82.4001360  34.5711020 116.1094050  82.7688760
  33.8284610 114.8944060  82.2549300  36.5083600 121.1792950  84.6086510
  36.4799030 121.5835900  83.7414940  36.3448570 120.2503310  84.4458110
  30.6621900 117.0068800  78.3172270  30.7402320 117.1417570  77.3727990
  31.2763580 116.2984690  78.5100390  47.8631670 119.1532900  83.0650690
  47.9894730 118.9144780  82.1467870  47.9053050 118.3217440  83.5372770
  43.4028940 120.6503800  69.6227500  42.7094100 120.6481090  68.9629780
  44.1451800 120.2263120  69.1921670  30.7181420 118.0482970  80.8566730
  30.8812460 117.5788330  80.0386100  31.1833870 117.5406530  81.5215570
  35.4900190 107.1788730  75.8927300  35.0468340 107.9598270  75.5611820
  36.0485180 107.5018620  76.5998240  35.2814410 112.3022300  73.6208550
  35.0555330 112.0859470  74.5255170  34.5006940 112.7350760  73.2754520
  37.7213620 113.2007880  84.2868820  37.6257220 112.2602610  84.1369220
  38.5645600 113.4222950  83.8916890  32.8524160 109.6121550  82.4402600
  32.4587550 110.4596760  82.6475380  32.1642560 108.9747920  82.6311240
  30.1541210 107.5350010  76.4732680  29.8654260 108.1052870  77.1857660
  30.8986970 107.0554460  76.8363910  33.9911950 110.0935650  75.7099960
  33.6512000 110.5710880  76.4667010  33.2289270 109.6400770  75.3501060
  38.2029720 111.2121240  69.7412510  38.3242540 111.1707720  70.6898330
  37.8178230 112.0745390  69.5859240  32.2920400 117.4234400  83.0162540
  31.9075190 116.7828070  83.6145500  32.6032590 118.1270520  83.5857270
  38.4417540 114.2710940  78.4971160  38.8087670 113.7969510  79.2432500
  38.2522600 115.1452510  78.8379500  31.3058030 109.0154630  74.6264630
  31.0204950 108.6510300  75.4643250  31.2436890 108.2835090  74.0127770
  36.2316910 113.3119580  80.8155370  35.9273980 114.1911560  81.0405730
  37.1863370 113.3719370  80.8512810  40.9005480 116.5854990  83.0917610
  40.8342790 115.6650660  82.8375200  40.2710620 116.6830430  83.8062250
  32.2880640 114.1522320  81.9626730  31.9295580 114.8176170  82.5500070
  31.9935200 113.3205870  82.3339350  35.4893760 114.6106560  84.8466280
  35.1893900 114.7563740  83.9494100  36.2605000 114.0511850  84.7539670
  33.8635280 105.8824440  73.1792130  33.7349910 105.8742340  74.1277050
  33.0397300 106.2207530  72.8283140  41.5388190 119.0525480  78.6539360
  42.1810420 118.3518640  78.7671530  42.0637540 119.8323920  78.4736250
  45.3843910 119.3374100  68.3778500  45.1581490 118.6204540  68.9703140
  44.9940110 119.0886540  67.5400250  43.3125810 119.8520380  81.8575420
  43.6482050 120.4387070  82.5353340  42.3926150 119.7213090  82.0873210
  31.1659940 123.3640960  69.1522960  31.5257580 123.9630300  68.4980230
  31.0252280 123.9100850  69.9257990  30.8629210 107.6415560  82.6398830
  30.1487730 107.8412480  83.2451440  31.2824250 106.8655130  83.0113630
  31.1501800 121.6295820  83.6265360  31.2592920 120.6890560  83.4860750
  30.4982360 121.8950570  82.9779090  40.1688160 120.8100400  68.6321820
  40.2700140 120.6064390  67.7023800  39.2689900 120.5558680  68.8369600
  39.3169980 112.7877460  80.6138250  39.8155230 113.2623280  81.2790100
  39.4592930 111.8640980  80.8208280  38.8106270 123.3286720  73.3269490
  39.0647770 123.2908110  72.4048860  37.8618750 123.2020050  73.3197740
  35.8949070 109.6765840  69.9896430  36.7439600 110.1135990  69.9236620
  35.5280340 109.9886100  70.8168490  34.2901960 123.5118660  76.2499390
  35.0264440 122.9634120  76.5207960  34.6742880 124.3774670  76.1105380
  33.2960240 122.6964730  85.4384970  34.0972970 123.0176780  85.8520370
  32.7812060 122.3360310  86.1604880  37.4004270 122.6848970  68.0724960
  38.1932880 122.9737800  67.6206750  36.8808620 122.2541140  67.3937440
  46.4534440 121.9119100  69.4961700  46.1675950 121.4984240  68.6815880
  46.2553990 122.8406810  69.3762220  31.0158050 115.1838190  84.3821020
  31.5197070 114.6045470  84.9537250  30.2765470 115.4678420  84.9197390
  38.0695990 116.5909180  83.9156540  37.3041660 117.1594180  83.8311210
  38.2511950 116.2985390  83.0224770  45.2119340 118.3214510  84.4731560
  45.9528810 118.6590270  83.9699020  44.4492020 118.4906570  83.9201330
  33.0481130 113.3267780  85.2771090  33.0886470 113.0281650  86.1856320
  33.9026630 113.7275390  85.1178610  34.9886940 111.9059880  83.2445580
  34.4583400 111.4150830  82.6168920  35.6575010 112.3344080  82.7103510
  43.8865000 116.3729340  83.0086770  44.3006020 116.5274420  83.8577190
  42.9516000 116.4984560  83.1712550  35.4759240 108.8722250  83.3242870
  35.3816110 108.2543000  82.5993740  34.8956630 109.5988540  83.0972780
  38.2420680 107.4295490  80.3570260  37.7937980 107.4519750  79.5115810
  37.6085880 107.0314510  80.9540560  38.6480230 116.3249820  80.9782700
  39.0668340 117.1682550  80.8058940  37.7288860 116.4621860  80.7489480
  40.9844130 114.0566000  82.3620540  41.1040340 113.4607140  83.1015380
  41.8438130 114.0935690  81.9421840  43.3232030 114.6103190  80.9383050
  42.7967250 115.1345810  80.3348190  43.6663370 115.2430580  81.5692780
  35.7218420 111.9996560  67.3832760  35.5207480 111.1363920  67.7446100
  35.5510470 111.9129920  66.4454360  37.7386150 108.0431800  68.3566840
  37.3908150 107.3655790  67.7769290  37.9398920 107.5821310  69.1710230
  39.9035190 123.0312550  69.9753440  40.7985980 123.3697520  69.9972200
  39.9352820 122.3091960  69.3477720  30.7577150 121.1928630  75.6560700
  31.0880160 120.3249690  75.4239340  31.1868150 121.3987150  76.4865660
  31.2467360 122.0599220  78.3942330  30.8098350 122.2400020  79.2266480
  31.8145040 122.8173840  78.2524050  46.8829540 121.5616220  82.6819640
  46.2831530 121.6208780  81.9383560  47.0123440 120.6221200  82.8116490
  47.5787450 116.0481520  70.5223550  48.3406360 116.6178170  70.6283240
  47.5941820 115.4808720  71.2931860  45.5681180 118.2868200  80.7795800
  44.7541020 118.7165360  81.0421590  45.9755380 118.8986610  80.1664850
  47.5271960 114.2784880  72.6725500  47.1515560 113.5112810  72.2406790
  46.7975080 114.6607580  73.1600430  32.1167720 114.9572020  79.2934550
  32.4840760 114.8699420  80.1730570  31.5478540 114.1938570  79.1941410
  31.6683720 111.8681110  83.1992970  30.7739770 111.8347870  83.5386680
  32.2081270 112.0667900  83.9644220  32.8357080 110.8383920  68.6050920
  33.5448780 110.4167140  68.1198200  32.1197020 110.9059150  67.9734270
  46.2922890 111.7615720  71.9125150  46.7882010 111.5286590  72.6974030
  46.0938960 110.9227560  71.4962790  32.1723430 106.1429440  77.5476190
  32.8199620 105.5926820  77.1071350  32.5925270 106.3972590  78.3692000
  48.6838810 108.9995250  70.3125680  47.8890310 108.9340370  70.8418590
  48.8882090 109.9345890  70.3011030  31.9255430 106.2985110  80.2901510
  31.5770250 106.7548930  81.0559690  31.5943130 105.4042240  80.3723940
  33.5319800 119.4704710  84.4554700  33.4889430 119.0997620  85.3369160
  33.6630810 120.4082280  84.5956520  37.2325830 121.0264300  80.0564420
  36.9917190 121.2938860  79.1694940  38.1728470 121.1970030  80.1115280
  48.4929990 123.0458680  80.8575060  47.9988270 123.4427550  80.1402190
  47.8843280 122.4207890  81.2512340  32.5976070 105.8261310  83.5652280
  33.1459060 105.6449360  82.8018390  32.6631380 105.0355420  84.1008590
  33.3707830 122.4166960  81.5752480  32.7768150 122.2851660  82.3142520
  33.3631670 121.5805100  81.1094580  33.0020060 119.7825340  80.5260520
  32.2754120 119.1630630  80.4586470  33.0629210 120.1765950  79.6558600
  39.3460660 122.8878830  78.1378910  39.6338470 122.6333130  77.2611920
  39.8583880 122.3356190  78.7284480  46.9797310 106.9607370  74.7733330
  46.9185710 106.0168590  74.6264350  47.7589340 107.0687460  75.3186790
  31.2850060 123.0999730  73.7357280  31.1172100 122.4670410  74.4339170
  30.4184570 123.3059130  73.3851470  31.9078080 106.9316510  71.2389140
  32.6657440 107.0445390  70.6653170  31.4455250 107.7685710  71.1932570
  46.0951470 106.1119790  70.7414800  46.2902100 107.0103240  71.0082230
  45.3081340 105.8806870  71.2347750  34.2803230 107.4580560  69.7791110
  34.8095990 106.6710360  69.6499060  34.9131550 108.1371750  70.0126640
  36.4741070 107.1955700  72.8336500  35.8443810 106.4943010  73.0006630
  35.9346210 107.9559830  72.6169660  35.4905730 123.7415340  70.0556670
  36.2224550 123.4574620  69.5080560  35.7499400 123.5028620  70.9456050
  45.9810580 123.0364790  85.3288150  46.7735900 122.5414020  85.1214110
  46.2743730 123.7154930  85.9363760  42.1070240 113.9085730  56.2104200
  42.0264290 112.9940340  55.9395910  41.6934660 114.4052800  55.5043910
  40.2388280 115.6864750  58.0913470  39.4630380 115.2065190  58.3812040
  40.8901210 115.0070400  57.9169630  34.2554110 115.9984560  58.9689230
  33.4238990 115.7433270  59.3685740  34.8635090 116.0695330  59.7047150
  34.2355370 120.0324650  59.1647250  34.5383410 119.1422390  58.9857470
  34.9798960 120.5894870  58.9369500  30.6279070 113.5592100  58.6371320
  31.1995180 112.7914300  58.6374960  30.6280610 113.8580860  57.7277930
  40.4859020 122.3782950  56.4916590  39.8670460 122.8340450  55.9211030
  41.3410800 122.5334410  56.0906290  39.6797270 118.3621940  58.0983630
  39.6105550 117.4211880  57.9372760  40.4417130 118.4523350  58.6706200
  34.8407450 109.5417950  53.7870000  34.9474200 110.4421680  54.0938760
  33.9299810 109.4935920  53.4964650  32.4890610 111.4636960  59.0322590
  33.1700720 111.7275330  59.6509990  32.1738660 110.6237830  59.3660600
  34.9651280 107.1502880  62.3858600  34.9669720 107.6675270  61.5804500
  34.1355590 106.6733060  62.3628530  41.3522370 117.2622190  53.8848500
  40.7339640 117.7271640  53.3211220  41.8645620 117.9549670  54.3018010
  36.2154130 116.7898060  60.5632100  35.8823510 117.4166980  61.2053170
  36.3920810 117.3159940  59.7833770  44.7288040 110.6043140  58.0308440
  44.0243610 110.8928030  58.6111550  45.0900200 111.4143250  57.6708000
  35.4273230 118.7578860  62.3781280  36.0447230 119.4329940  62.0965730
  34.5666350 119.1666840  62.2868780  30.7205570 117.9478720  51.2588130
  30.3433550 118.4365820  50.5273030  30.9778640 118.6204000  51.8894660
  38.3294500 106.3495110  56.7173640  38.6369480 105.7942000  56.0009140
  37.3995200 106.4839570  56.5346630  43.2795000 116.9692240  60.3363710
  43.6963790 116.7552350  59.5017170  44.0034820 117.2265030  60.9072330
  40.7175260 114.4143940  53.4533760  39.7904540 114.3481320  53.6822230
  40.8700080 115.3524070  53.3389000  40.7044340 110.6860940  50.4500920
  39.7648010 110.8474900  50.5353380  41.0227600 111.4046620  49.9036910
  47.2257100 115.3679460  60.4279950  46.3975730 115.4372550  59.9530080
  47.8207580 115.9533770  59.9595780  44.7472550 115.9764240  53.9569010
  44.1284970 115.6383790  53.3095310  44.7297000 115.3324000  54.6648200
  36.3231900 114.9408680  56.2353490  35.9188900 114.2285930  55.7399390
  36.4095020 114.5961920  57.1241530  36.7913600 118.6276240  58.3992700
  36.4941890 118.0221710  57.7200480  37.7413420 118.6653550  58.2882060
  35.8832030 118.3657930  65.0500500  34.9860560 118.5897900  65.2973900
  35.9084900 118.4892870  64.1011900  42.9237250 115.2151050  50.9641760
  43.3630530 114.3773480  50.8179580  43.6365670 115.8480450  51.0505900
  34.7103250 115.2371250  63.6257870  34.5711020 116.1094050  63.9945270
  33.8284610 114.8944060  63.4805810  41.0332630 120.1547120  54.9323000
  41.4728540 120.8971450  54.5178390  40.9719520 120.3973690  55.8561960
  36.5083600 121.1792950  65.8343020  36.4799030 121.5835900  64.9671450
  36.3448570 120.2503310  65.6714620  33.0236530 113.8353660  53.7360140
  32.9034130 114.5615750  53.1241410  32.7137420 113.0656570  53.2588050
  48.4598420 121.9620050  67.1307190  48.9358140 122.4402940  67.8096270
  49.0805580 121.8937540  66.4052690  30.6621900 117.0068800  59.5428780
  30.7402320 117.1417570  58.5984500  31.2763580 116.2984690  59.7356900
  31.9069530 118.7068990  55.9534960  31.4997610 118.8483580  55.0988560
  32.7982540 118.4229150  55.7506170  41.7248410 122.8560900  62.8602010
  42.2393080 122.7668910  63.6624440  40.8817490 123.2020600  63.1529920
  43.7002810 123.1416240  52.2886010  43.5403950 122.8519180  53.1867840
  43.5349520 122.3656370  51.7531240  36.1791190 122.9214770  54.0657630
  36.0033670 122.0050310  53.8525430  35.3246930 123.2802060  54.3055430
  43.4028940 120.6503800  50.8484010  42.7094100 120.6481090  50.1886290
  44.1451800 120.2263120  50.4178180  30.7181420 118.0482970  62.0823240
  30.8812460 117.5788330  61.2642610  31.1833870 117.5406530  62.7472080
  35.4900190 107.1788730  57.1183810  35.0468340 107.9598270  56.7868330
  36.0485180 107.5018620  57.8254750  38.6059010 106.7999430  51.9989640
  37.9813190 106.7959300  52.7242950  38.5189130 105.9330390  51.6025610
  37.5276090 107.7236060  58.9773410  37.8248420 108.6298890  58.8965430
  38.0761650 107.2354840  58.3632980  35.2814410 112.3022300  54.8465060
  35.0555330 112.0859470  55.7511680  34.5006940 112.7350760  54.5011030
  42.5112170 112.3085670  53.4455710  41.9121060 113.0321470  53.2619330
  43.0591780 112.2462450  52.6632160  41.1177040 110.9449210  55.4758990
  41.5106610 111.2621410  54.6627680  41.4793890 110.0661090  55.5903510
  30.3411440 111.4770130  48.9091910  30.2586110 112.4200890  49.0506900
  29.9894500 111.3345040  48.0304260  33.9911950 110.0935650  56.9356470
  33.6512000 110.5710880  57.6923520  33.2289270 109.6400770  56.5757570
  38.2029720 111.2121240  50.9669020  38.3242540 111.1707720  51.9154840
  37.8178230 112.0745390  50.8115750  42.1658090 108.9888640  58.9832710
  42.1830830 109.4397290  59.8274560  41.9173670 108.0894280  59.1966150
  37.2151220 113.5222380  50.3652320  36.6468120 113.0740630  49.7388230
  37.9240220 113.8815160  49.8317470  32.2920400 117.4234400  64.2419050
  31.9075190 116.7828070  64.8402010  32.6032590 118.1270520  64.8113780
  34.7598700 117.5180570  52.6378730  33.9860960 116.9778190  52.4777450
  35.4893330 116.9987180  52.2996490  45.5186680 116.5145930  58.4305120
  46.2385800 117.0101220  58.0401230  45.3168500 115.8363820  57.7858990
  40.9796620 107.9083890  52.5734510  40.1661230 107.4097060  52.4979820
  40.7858570 108.7482140  52.1570860  43.6945010 112.2803540  50.8696670
  44.5824630 112.5920770  50.6948010  43.6650100 111.4075790  50.4777250
  34.8036100 117.1860950  56.2757540  35.3214770 116.3829210  56.2214430
  34.3520120 117.1240090  57.1174370  39.6905600 118.4527230  51.5484840
  40.0321300 119.1969460  51.0528160  38.8618310 118.7658350  51.9109670
  32.2880640 114.1522320  63.1883240  31.9295580 114.8176170  63.7756580
  31.9935200 113.3205870  63.5595860  35.4893760 114.6106560  66.0722790
  35.1893900 114.7563740  65.1750610  36.2605000 114.0511850  65.9796180
  40.8322210 119.4075560  64.0677920  40.8466750 118.4756520  63.8496830
  40.1247310 119.4935320  64.7067690  45.9659280 113.5915380  50.3376530
  45.8823000 114.0229600  49.4872970  46.6853470 114.0513730  50.7703350
  42.5733010 117.7743070  56.9130350  42.9256830 117.1771200  56.2531720
  41.6895340 117.4487300  57.0838600  38.6596290 118.5340760  54.3200760
  39.3467420 119.0809970  54.7008350  37.8728710 119.0781490  54.3550370
  30.7988690 114.1513580  49.8117840  31.6683540 114.4338380  50.0953760
  30.3079010 114.9649450  49.6966650  37.9623500 115.5386790  53.9326120
  38.4186280 116.3492040  54.1586310  37.6111710 115.2209930  54.7644610
  40.2656110 121.0493130  61.1618420  40.9098330 121.2552510  61.8391840
  40.6285550 120.2881530  60.7089270  41.5388190 119.0525480  59.8795870
  42.1810420 118.3518640  59.9928040  42.0637540 119.8323920  59.6992760
  43.3125810 119.8520380  63.0831930  43.6482050 120.4387070  63.7609850
  42.3926150 119.7213090  63.3129720  31.1659940 123.3640960  50.3779470
  31.5257580 123.9630300  49.7236740  31.0252280 123.9100850  51.1514500
  31.1501800 121.6295820  64.8521870  31.2592920 120.6890560  64.7117260
  30.4982360 121.8950570  64.2035600  39.1414390 119.9011710  66.2519990
  38.8211260 119.1820950  66.7965680  38.4672750 120.5766780  66.3256050
  37.1828560 120.7472160  51.1953140  37.1738660 121.4801850  50.5797650
  36.2626920 120.5003740  51.2880100  32.7835200 115.9687050  51.9399900
  32.1763150 116.7085950  51.9495200  33.2584550 116.0586410  51.1138100
  40.1688160 120.8100400  49.8578330  40.2700140 120.6064390  48.9280310
  39.2689900 120.5558680  50.0626110  37.6914050 111.3680760  53.8402230
  36.9830200 111.8367100  54.2815840  37.9758530 110.7102770  54.4747420
  41.7229480 108.0931420  55.2798020  41.5997260 108.1117550  54.3307530
  42.6714040 108.1410360  55.3996420  38.8106270 123.3286720  54.5526000
  39.0647770 123.2908110  53.6305370  37.8618750 123.2020050  54.5454250
  44.8158850 114.2478600  56.1284510  43.8748990 114.2628830  56.3032200
  45.1302920 113.4614560  56.5744810  34.7940490 115.9298200  49.6888470
  35.5603760 115.8179560  50.2513900  34.8715180 115.2336170  49.0365240
  34.2901960 123.5118660  57.4755900  35.0264440 122.9634120  57.7464470
  34.6742880 124.3774670  57.3361890  31.1747440 119.5792230  53.3497410
  30.2487220 119.8213370  53.3402820  31.6403870 120.4066490  53.2282160
  33.2960240 122.6964730  66.6641480  34.0972970 123.0176780  67.0776880
  32.7812060 122.3360310  67.3861390  37.4004270 122.6848970  49.2981470
  38.1932880 122.9737800  48.8463260  36.8808620 122.2541140  48.6193950
  42.1324870 118.8044600  66.6116890  41.5263030 118.8276200  65.8712640
  41.8278980 118.0727640  67.1484140  43.5625240 122.5324890  65.2226300
  44.5146990 122.4482910  65.1726540  43.4153460 123.1966600  65.8960090
  31.0158050 115.1838190  65.6077530  31.5197070 114.6045470  66.1793760
  30.2765470 115.4678420  66.1453900  37.9181670 117.9052380  49.1623820
  37.8132310 117.2904730  49.8885200  37.7505890 117.3818270  48.3786830
  38.0695990 116.5909180  65.1413050  37.3041660 117.1594180  65.0567720
  38.2511950 116.2985390  64.2481280  41.1584400 116.9672410  49.7665810
  40.6094500 117.4141710  50.4108550  41.7803660 116.4621660  50.2903480
  33.0481130 113.3267780  66.5027600  33.0886470 113.0281650  67.4112830
  33.9026630 113.7275390  66.3435120  36.8259520 115.9263330  51.6631110
  37.2475940 115.7603200  52.5062500  36.9510360 115.1163560  51.1686250
  34.9886940 111.9059880  64.4702090  34.4583400 111.4150830  63.8425430
  35.6575010 112.3344080  63.9360020  39.3387160 114.9500940  48.9108210
  39.8592820 114.2349960  48.5449360  39.9855560 115.5886810  49.2108720
  35.4759240 108.8722250  64.5499380  35.3816110 108.2543000  63.8250250
  34.8956630 109.5988540  64.3229290  38.2420680 107.4295490  61.5826770
  37.7937980 107.4519750  60.7372320  37.6085880 107.0314510  62.1797070
  36.4987650 122.6302830  63.3196940  35.9608740 123.3548890  63.0005640
  36.7521610 122.1533170  62.5294280  43.2006730 106.8104790  51.1376150
  43.4809020 105.9672690  51.4935570  42.4272460 107.0427900  51.6514900
  39.3549860 123.8654040  63.5783590  39.2808560 124.7689180  63.8855960
  38.4528700 123.5465940  63.5505660  37.7386150 108.0431800  49.5823350
  37.3908150 107.3655790  49.0025800  37.9398920 107.5821310  50.3966740
  39.9035190 123.0312550  51.2009950  40.7985980 123.3697520  51.2228710
  39.9352820 122.3091960  50.5734230  33.5431350 118.4039600  49.4296950
  33.9806220 118.9469270  50.0854530  34.0279080 117.5786550  49.4393290
  30.7577150 121.1928630  56.8817210  31.0880160 120.3249690  56.6495850
  31.1868150 121.3987150  57.7122170  35.3539070 119.5237640  54.5419180
  35.0534610 119.4002610  55.4423090  35.2476560 118.6646230  54.1334910
  31.2467360 122.0599220  59.6198840  30.8098350 122.2400020  60.4522990
  31.8145040 122.8173840  59.4780560  46.8829540 121.5616220  63.9076150
  46.2831530 121.6208780  63.1640070  47.0123440 120.6221200  64.0373000
  31.0791790 114.5719450  55.9787720  30.4240630 114.3031090  55.3347420
  31.9169740 114.4623930  55.5289700  48.5847420 116.9031620  56.5921990
  48.9556250 116.1198940  56.1857960  49.2249350 117.5920720  56.4139290
  44.0282230 109.3660740  50.2006210  44.4467110 109.1791720  49.3602870
  43.7218290 108.5139790  50.5109140  47.5271960 114.2784880  53.8982010
  47.1515560 113.5112810  53.4663300  46.7975080 114.6607580  54.3856940
  32.1167720 114.9572020  60.5191060  32.4840760 114.8699420  61.3987080
  31.5478540 114.1938570  60.4197920  30.2929870 111.7818380  51.9213050
  29.3893950 112.0448580  51.7464710  30.7770490 112.0529550  51.1413010
  46.8022920 112.5042370  57.1989250  47.3260400 112.0105020  56.5679420
  47.3882340 112.6392730  57.9436820  46.9812640 112.5882240  60.7208800
  46.0315350 112.5545780  60.8353790  47.1625650 113.4982350  60.4858570
  46.2922890 111.7615720  53.1381660  46.7882010 111.5286590  53.9230540
  46.0938960 110.9227560  52.7219300  33.5319800 119.4704710  65.6811210
  33.4889430 119.0997620  66.5625670  33.6630810 120.4082280  65.8213030
  37.2325830 121.0264300  61.2820930  36.9917190 121.2938860  60.3951450
  38.1728470 121.1970030  61.3371790  33.3707830 122.4166960  62.8008990
  32.7768150 122.2851660  63.5399030  33.3631670 121.5805100  62.3351090
  42.8162850 105.7099190  61.0039020  41.9422690 106.0434300  60.8011950
  42.7073600 105.2372370  61.8290890  33.0020060 119.7825340  61.7517030
  32.2754120 119.1630630  61.6842980  33.0629210 120.1765950  60.8815110
  36.6065160 121.9970340  58.5366440  37.1230180 121.3857700  58.0114700
  37.2562540 122.4999120  59.0277450  39.3460660 122.8878830  59.3635420
  39.6338470 122.6333130  58.4868430  39.8583880 122.3356190  59.9540990
  40.5637670 106.6269030  59.9431930  39.7809460 107.1014530  60.2228690
  40.2700600 105.7223860  59.8345110  31.2850060 123.0999730  54.9613790
  31.1172100 122.4670410  55.6595680  30.4184570 123.3059130  54.6107980
  38.4491890 109.0455780  55.4547960  37.6366400 108.6712670  55.1143840
  38.9533530 108.2900860  55.7569150  32.8912760 121.7932960  52.4063930
  32.3660380 122.1740990  51.7025890  32.8157340 122.4183730  53.1273640
  36.4741070 107.1955700  54.0593010  35.8443810 106.4943010  54.2263140
  35.9346210 107.9559830  53.8426170  39.4133020 123.8094930  66.7303620
  40.3400330 123.5739200  66.7739580  39.3983450 124.6366930  66.2489650
  47.6478080 123.3520500  53.7277870  47.8230270 122.6658240  53.0838790
  46.9499650 123.8767550  53.3354540  36.5996630 106.4739680  66.4945500
  36.3180900 106.9773280  65.7306320  36.9816330 105.6761430  66.1287630
  35.4905730 123.7415340  51.2813180  36.2224550 123.4574620  50.7337070
  35.7499400 123.5028620  52.1712560  34.6520520 119.8580070  51.2859510
  34.0229400 120.3265170  51.8345340  34.7668350 119.0129290  51.7205700
  45.9810580 123.0364790  66.5544660  46.7735900 122.5414020  66.3470620
  46.2743730 123.7154930  67.1620270  42.1070240 113.9085730  37.4360710
  42.0264290 112.9940340  37.1652420  41.6934660 114.4052800  36.7300420
  40.2388280 115.6864750  39.3169980  39.4630380 115.2065190  39.6068550
  40.8901210 115.0070400  39.1426140  34.2554110 115.9984560  40.1945740
  33.4238990 115.7433270  40.5942250  34.8635090 116.0695330  40.9303660
  44.2595710 120.0924940  38.0969110  43.7977240 119.3212180  38.4256280
  45.0721260 120.1191010  38.6021560  34.2355370 120.0324650  40.3903760
  34.5383410 119.1422390  40.2113980  34.9798960 120.5894870  40.1626010
  32.6646060 110.9586450  33.9788130  31.7762760 111.3002420  33.8768010
  32.9487250 110.7586770  33.0868960  30.6279070 113.5592100  39.8627830
  31.1995180 112.7914300  39.8631470  30.6280610 113.8580860  38.9534440
  40.4859020 122.3782950  37.7173100  39.8670460 122.8340450  37.1467540
  41.3410800 122.5334410  37.3162800  39.6797270 118.3621940  39.3240140
  39.6105550 117.4211880  39.1629270  40.4417130 118.4523350  39.8962710
  31.8703940 108.9676460  41.6496760  31.6906780 108.0702210  41.9299520
  31.4684020 109.5148330  42.3243710  40.7102440 111.1692320  39.5509070
  41.0867260 110.2964200  39.4382740  40.6121950 111.5051020  38.6599510
  34.8407450 109.5417950  35.0126510  34.9474200 110.4421680  35.3195270
  33.9299810 109.4935920  34.7221160  44.4926560 108.6642760  36.4837410
  45.3136180 108.1739330  36.5262890  44.5260640 109.2540420  37.2369250
  32.4890610 111.4636960  40.2579100  33.1700720 111.7275330  40.8766500
  32.1738660 110.6237830  40.5917110  36.6815180 112.5104320  39.3451690
  37.1893400 113.0085290  39.9856710  37.2128420 111.7339520  39.1691050
  41.3522370 117.2622190  35.1105010  40.7339640 117.7271640  34.5467730
  41.8645620 117.9549670  35.5274520  36.2154130 116.7898060  41.7888610
  35.8823510 117.4166980  42.4309680  36.3920810 117.3159940  41.0090280
  34.6466610 108.8612840  41.6185560  34.9883420 109.7054890  41.3239430
  33.7082420 109.0096580  41.7350900  35.4273230 118.7578860  43.6037790
  36.0447230 119.4329940  43.3222240  34.5666350 119.1666840  43.5125290
  30.7205570 117.9478720  32.4844640  30.3433550 118.4365820  31.7529540
  30.9778640 118.6204000  33.1151170  46.3450820 120.2218270  41.5192430
  45.6614340 120.8917380  41.5109100  46.8845110 120.4198920  40.7537290
  38.3294500 106.3495110  37.9430150  38.6369480 105.7942000  37.2265650
  37.3995200 106.4839570  37.7603140  43.8809560 122.0662400  40.2337610
  43.8936720 121.6624690  39.3659870  43.3284780 122.8409690  40.1299040
  45.1754980 118.7878620  35.3227780  45.0651310 117.8452950  35.4477200
  45.1723230 119.1494260  36.2090540  43.2795000 116.9692240  41.5620220
  43.6963790 116.7552350  40.7273680  44.0034820 117.2265030  42.1328840
  40.7175260 114.4143940  34.6790270  39.7904540 114.3481320  34.9078740
  40.8700080 115.3524070  34.5645510  40.7044340 110.6860940  31.6757430
  39.7648010 110.8474900  31.7609890  41.0227600 111.4046620  31.1293420
  47.2257100 115.3679460  41.6536460  46.3975730 115.4372550  41.1786590
  47.8207580 115.9533770  41.1852290  44.7472550 115.9764240  35.1825520
  44.1284970 115.6383790  34.5351820  44.7297000 115.3324000  35.8904710
  36.3231900 114.9408680  37.4610000  35.9188900 114.2285930  36.9655900
  36.4095020 114.5961920  38.3498040  36.7913600 118.6276240  39.6249210
  36.4941890 118.0221710  38.9456990  37.7413420 118.6653550  39.5138570
  35.0360520 111.7151890  41.2409040  35.5875110 111.8247230  40.4662290
  35.5504030 112.0889490  41.9564270  44.8799210 122.2008110  43.2872310
  44.4029770 123.0080300  43.0944920  44.1961000 121.5486440  43.4398520
  35.8832030 118.3657930  46.2757010  34.9860560 118.5897900  46.5230410
  35.9084900 118.4892870  45.3268410  42.9237250 115.2151050  32.1898270
  43.3630530 114.3773480  32.0436090  43.6365670 115.8480450  32.2762410
  34.7103250 115.2371250  44.8514380  34.5711020 116.1094050  45.2201780
  33.8284610 114.8944060  44.7062320  41.0332630 120.1547120  36.1579510
  41.4728540 120.8971450  35.7434900  40.9719520 120.3973690  37.0818470
  36.5083600 121.1792950  47.0599530  36.4799030 121.5835900  46.1927960
  36.3448570 120.2503310  46.8971130  46.5054390 106.4693860  30.5039310
  46.1927050 106.5620690  31.4038380  47.2666860 107.0474890  30.4536740
  33.0236530 113.8353660  34.9616650  32.9034130 114.5615750  34.3497920
  32.7137420 113.0656570  34.4844560  30.6621900 117.0068800  40.7685290
  30.7402320 117.1417570  39.8241010  31.2763580 116.2984690  40.9613410
  31.9069530 118.7068990  37.1791470  31.4997610 118.8483580  36.3245070
  32.7982540 118.4229150  36.9762680  41.7248410 122.8560900  44.0858520
  42.2393080 122.7668910  44.8880950  40.8817490 123.2020600  44.3786430
  43.7002810 123.1416240  33.5142520  43.5403950 122.8519180  34.4124350
  43.5349520 122.3656370  32.9787750  36.1791190 122.9214770  35.2914140
  36.0033670 122.0050310  35.0781940  35.3246930 123.2802060  35.5311940
  43.4028940 120.6503800  32.0740520  42.7094100 120.6481090  31.4142800
  44.1451800 120.2263120  31.6434690  42.9678870 122.2766510  36.1489010
  43.4235820 121.4955890  36.4627630  43.3071390 122.9873330  36.6930190
  30.7181420 118.0482970  43.3079750  30.8812460 117.5788330  42.4899120
  31.1833870 117.5406530  43.9728590  35.4900190 107.1788730  38.3440320
  35.0468340 107.9598270  38.0124840  36.0485180 107.5018620  39.0511260
  39.7770000 110.0457250  43.9475640  39.3149370 110.2540270  44.7595580
  39.3748110 109.2316600  43.6446310  41.8724220 112.7667950  47.1771090
  42.1977630 111.9331700  46.8373320  42.6604550 113.2896470  47.3249420
  38.6059010 106.7999430  33.2246150  37.9813190 106.7959300  33.9499460
  38.5189130 105.9330390  32.8282120  37.5276090 107.7236060  40.2029920
  37.8248420 108.6298890  40.1221940  38.0761650 107.2354840  39.5889490
  35.2814410 112.3022300  36.0721570  35.0555330 112.0859470  36.9768190
  34.5006940 112.7350760  35.7267540  42.5112170 112.3085670  34.6712220
  41.9121060 113.0321470  34.4875840  43.0591780 112.2462450  33.8888670
  37.7213620 113.2007880  46.7381840  37.6257220 112.2602610  46.5882240
  38.5645600 113.4222950  46.3429910  41.1177040 110.9449210  36.7015500
  41.5106610 111.2621410  35.8884190  41.4793890 110.0661090  36.8160020
  30.1541210 107.5350010  38.9245700  29.8654260 108.1052870  39.6370680
  30.8986970 107.0554460  39.2876930  30.3411440 111.4770130  30.1348420
  30.2586110 112.4200890  30.2763410  29.9894500 111.3345040  29.2560770
  41.7032180 113.5354960  40.7966280  40.9713300 114.0441770  41.1456380
  41.3056520 112.7184940  40.4955060  38.1409570 110.2109160  39.2018770
  38.1445630 109.7699110  38.3523310  39.0360690 110.5326490  39.3090590
  33.9911950 110.0935650  38.1612980  33.6512000 110.5710880  38.9180030
  33.2289270 109.6400770  37.8014080  38.2029720 111.2121240  32.1925530
  38.3242540 111.1707720  33.1411350  37.8178230 112.0745390  32.0372260
  42.1658090 108.9888640  40.2089220  42.1830830 109.4397290  41.0531070
  41.9173670 108.0894280  40.4222660  37.2151220 113.5222380  31.5908830
  36.6468120 113.0740630  30.9644740  37.9240220 113.8815160  31.0573980
  32.2920400 117.4234400  45.4675560  31.9075190 116.7828070  46.0658520
  32.6032590 118.1270520  46.0370290  38.4417540 114.2710940  40.9484180
  38.8087670 113.7969510  41.6945520  38.2522600 115.1452510  41.2892520
  31.3058030 109.0154630  37.0777650  31.0204950 108.6510300  37.9156270
  31.2436890 108.2835090  36.4640790  36.2316910 113.3119580  43.2668390
  35.9273980 114.1911560  43.4918750  37.1863370 113.3719370  43.3025830
  34.7598700 117.5180570  33.8635240  33.9860960 116.9778190  33.7033960
  35.4893330 116.9987180  33.5253000  45.5186680 116.5145930  39.6561630
  46.2385800 117.0101220  39.2657740  45.3168500 115.8363820  39.0115500
  40.9796620 107.9083890  33.7991020  40.1661230 107.4097060  33.7236330
  40.7858570 108.7482140  33.3827370  40.9005480 116.5854990  45.5430630
  40.8342790 115.6650660  45.2888220  40.2710620 116.6830430  46.2575270
  43.6945010 112.2803540  32.0953180  44.5824630 112.5920770  31.9204520
  43.6650100 111.4075790  31.7033760  34.8036100 117.1860950  37.5014050
  35.3214770 116.3829210  37.4470940  34.3520120 117.1240090  38.3430880
  39.6905600 118.4527230  32.7741350  40.0321300 119.1969460  32.2784670
  38.8618310 118.7658350  33.1366180  32.2880640 114.1522320  44.4139750
  31.9295580 114.8176170  45.0013090  31.9935200 113.3205870  44.7852370
  35.4893760 114.6106560  47.2979300  35.1893900 114.7563740  46.4007120
  36.2605000 114.0511850  47.2052690  40.8322210 119.4075560  45.2934430
  40.8466750 118.4756520  45.0753340  40.1247310 119.4935320  45.9324200
  45.9659280 113.5915380  31.5633040  45.8823000 114.0229600  30.7129480
  46.6853470 114.0513730  31.9959860  47.0433420 116.0482900  44.6403010
  46.3181610 116.6411680  44.4432400  47.5708880 116.0406440  43.8416380
  46.9946530 120.4457640  34.2915170  46.3522690 119.7913260  34.5658890
  46.6077190 120.8512730  33.5155840  42.5733010 117.7743070  38.1386860
  42.9256830 117.1771200  37.4788230  41.6895340 117.4487300  38.3095110
  38.6596290 118.5340760  35.5457270  39.3467420 119.0809970  35.9264860
  37.8728710 119.0781490  35.5806880  30.7988690 114.1513580  31.0374350
  31.6683540 114.4338380  31.3210270  30.3079010 114.9649450  30.9223160
  37.9623500 115.5386790  35.1582630  38.4186280 116.3492040  35.3842820
  37.6111710 115.2209930  35.9901120  40.2656110 121.0493130  42.3874930
  40.9098330 121.2552510  43.0648350  40.6285550 120.2881530  41.9345780
  33.8635280 105.8824440  35.6305150  33.7349910 105.8742340  36.5790070
  33.0397300 106.2207530  35.2796160  41.5388190 119.0525480  41.1052380
  42.1810420 118.3518640  41.2184550  42.0637540 119.8323920  40.9249270
  45.3843910 119.3374100  30.8291520  45.1581490 118.6204540  31.4216160
  44.9940110 119.0886540  29.9913270  43.3125810 119.8520380  44.3088440
  43.6482050 120.4387070  44.9866360  42.3926150 119.7213090  44.5386230
  31.1659940 123.3640960  31.6035980  31.5257580 123.9630300  30.9493250
  31.0252280 123.9100850  32.3771010  30.8629210 107.6415560  45.0911850
  30.1487730 107.8412480  45.6964460  31.2824250 106.8655130  45.4626650
  44.9660160 117.2546040  32.4905680  44.6781860 117.7158730  33.2783560
  45.7612330 116.7943810  32.7589900  31.1501800 121.6295820  46.0778380
  31.2592920 120.6890560  45.9373770  30.4982360 121.8950570  45.4292110
  39.1414390 119.9011710  47.4776500  38.8211260 119.1820950  48.0222190
  38.4672750 120.5766780  47.5512560  37.1828560 120.7472160  32.4209650
  37.1738660 121.4801850  31.8054160  36.2626920 120.5003740  32.5136610
  32.7835200 115.9687050  33.1656410  32.1763150 116.7085950  33.1751710
  33.2584550 116.0586410  32.3394610  42.3567990 110.1337870  42.8413300
  42.7248810 109.3133080  43.1692870  41.4966190 110.1939760  43.2568950
  45.7230020 109.0894810  33.6500860  45.0943180 109.1940480  32.9359090
  45.2281940 109.3091590  34.4394740  40.1688160 120.8100400  31.0834840
  40.2700140 120.6064390  30.1536820  39.2689900 120.5558680  31.2882620
  37.6914050 111.3680760  35.0658740  36.9830200 111.8367100  35.5072350
  37.9758530 110.7102770  35.7003930  39.3169980 112.7877460  43.0651270
  39.8155230 113.2623280  43.7303120  39.4592930 111.8640980  43.2721300
  41.7229480 108.0931420  36.5054530  41.5997260 108.1117550  35.5564040
  42.6714040 108.1410360  36.6252930  38.8106270 123.3286720  35.7782510
  39.0647770 123.2908110  34.8561880  37.8618750 123.2020050  35.7710760
  35.8949070 109.6765840  32.4409450  36.7439600 110.1135990  32.3749640
  35.5280340 109.9886100  33.2681510  44.8158850 114.2478600  37.3541020
  43.8748990 114.2628830  37.5288710  45.1302920 113.4614560  37.8001320
  34.7940490 115.9298200  30.9144980  35.5603760 115.8179560  31.4770410
  34.8715180 115.2336170  30.2621750  33.4887250 113.3623270  31.5977870
  33.5690840 112.4150780  31.7095270  34.3807000 113.6930150  31.7038530
  46.8184430 121.4187450  39.0295280  46.9431850 122.2418620  39.5019090
  47.6849990 121.2078180  38.6819430  34.2901960 123.5118660  38.7012410
  35.0264440 122.9634120  38.9720980  34.6742880 124.3774670  38.5618400
  31.1747440 119.5792230  34.5753920  30.2487220 119.8213370  34.5659330
  31.6403870 120.4066490  34.4538670  33.2960240 122.6964730  47.8897990
  34.0972970 123.0176780  48.3033390  32.7812060 122.3360310  48.6117900
  37.4004270 122.6848970  30.5237980  38.1932880 122.9737800  30.0719770
  36.8808620 122.2541140  29.8450460  42.1324870 118.8044600  47.8373400
  41.5263030 118.8276200  47.0969150  41.8278980 118.0727640  48.3740650
  43.5625240 122.5324890  46.4482810  44.5146990 122.4482910  46.3983050
  43.4153460 123.1966600  47.1216600  46.4534440 121.9119100  31.9474720
  46.1675950 121.4984240  31.1328900  46.2553990 122.8406810  31.8275240
  31.0158050 115.1838190  46.8334040  31.5197070 114.6045470  47.4050270
  30.2765470 115.4678420  47.3710410  37.9181670 117.9052380  30.3880330
  37.8132310 117.2904730  31.1141710  37.7505890 117.3818270  29.6043340
  38.0695990 116.5909180  46.3669560  37.3041660 117.1594180  46.2824230
  38.2511950 116.2985390  45.4737790  41.1584400 116.9672410  30.9922320
  40.6094500 117.4141710  31.6365060  41.7803660 116.4621660  31.5159990
  36.8259520 115.9263330  32.8887620  37.2475940 115.7603200  33.7319010
  36.9510360 115.1163560  32.3942760  39.3387160 114.9500940  30.1364720
  39.8592820 114.2349960  29.7705870  39.9855560 115.5886810  30.4365230
  43.8865000 116.3729340  45.4599790  44.3006020 116.5274420  46.3090210
  42.9516000 116.4984560  45.6225570  44.3587170 113.7125500  47.4638940
  44.9407940 112.9577820  47.3759420  44.5348940 114.2432940  46.6870420
  38.6480230 116.3249820  43.4295720  39.0668340 117.1682550  43.2571960
  37.7288860 116.4621860  43.2002500  40.9844130 114.0566000  44.8133560
  41.1040340 113.4607140  45.5528400  41.8438130 114.0935690  44.3934860
  43.3232030 114.6103190  43.3896070  42.7967250 115.1345810  42.7861210
  43.6663370 115.2430580  44.0205800  35.7218420 111.9996560  29.8345780
  35.5207480 111.1363920  30.1959120  35.5510470 111.9129920  28.8967380
  36.4987650 122.6302830  44.5453450  35.9608740 123.3548890  44.2262150
  36.7521610 122.1533170  43.7550790  37.7512900 110.5987350  46.0709380
  38.3412590 110.2903200  46.7587200  36.9333140 110.1267100  46.2269280
  43.2006730 106.8104790  32.3632660  43.4809020 105.9672690  32.7192080
  42.4272460 107.0427900  32.8771410  34.5201220 109.0997180  29.8223660
  34.8227120 109.1064610  28.9142810  35.2595810 108.7495040  30.3191320
  39.3549860 123.8654040  44.8040100  39.2808560 124.7689180  45.1112470
  38.4528700 123.5465940  44.7762170  37.7386150 108.0431800  30.8079860
  37.3908150 107.3655790  30.2282310  37.9398920 107.5821310  31.6223250
  39.9035190 123.0312550  32.4266460  40.7985980 123.3697520  32.4485220
  39.9352820 122.3091960  31.7990740  33.5431350 118.4039600  30.6553460
  33.9806220 118.9469270  31.3111040  34.0279080 117.5786550  30.6649800
  30.7577150 121.1928630  38.1073720  31.0880160 120.3249690  37.8752360
  31.1868150 121.3987150  38.9378680  35.3539070 119.5237640  35.7675690
  35.0534610 119.4002610  36.6679600  35.2476560 118.6646230  35.3591420
  31.2467360 122.0599220  40.8455350  30.8098350 122.2400020  41.6779500
  31.8145040 122.8173840  40.7037070  46.8829540 121.5616220  45.1332660
  46.2831530 121.6208780  44.3896580  47.0123440 120.6221200  45.2629510
  48.1230990 119.3034040  30.4702370  47.2923950 119.3710690  30.9409600
  48.3002820 120.1938160  30.1669230  47.5787450 116.0481520  32.9736570
  48.3406360 116.6178170  33.0796260  47.5941820 115.4808720  33.7444880
  31.0791790 114.5719450  37.2044230  30.4240630 114.3031090  36.5603930
  31.9169740 114.4623930  36.7546210  48.5847420 116.9031620  37.8178500
  48.9556250 116.1198940  37.4114470  49.2249350 117.5920720  37.6395800
  45.5681180 118.2868200  43.2308820  44.7541020 118.7165360  43.4934610
  45.9755380 118.8986610  42.6177870  47.6306620 116.3415890  30.1309090
  47.9055460 117.2494770  30.0028310  47.4417360 116.2778420  31.0671080
  44.0282230 109.3660740  31.4262720  44.4467110 109.1791720  30.5859380
  43.7218290 108.5139790  31.7365650  47.5271960 114.2784880  35.1238520
  47.1515560 113.5112810  34.6919810  46.7975080 114.6607580  35.6113450
  32.1167720 114.9572020  41.7447570  32.4840760 114.8699420  42.6243590
  31.5478540 114.1938570  41.6454430  31.6683720 111.8681110  45.6505990
  30.7739770 111.8347870  45.9899700  32.2081270 112.0667900  46.4157240
  30.2929870 111.7818380  33.1469560  29.3893950 112.0448580  32.9721220
  30.7770490 112.0529550  32.3669520  46.8022920 112.5042370  38.4245760
  47.3260400 112.0105020  37.7935930  47.3882340 112.6392730  39.1693330
  32.8357080 110.8383920  31.0563940  33.5448780 110.4167140  30.5711220
  32.1197020 110.9059150  30.4247290  32.4831240 106.8923250  30.0966590
  33.2059370 107.4332190  30.4147810  32.7555760 106.6186670  29.2208130
  46.2922890 111.7615720  34.3638170  46.7882010 111.5286590  35.1487050
  46.0938960 110.9227560  33.9475810  32.1723430 106.1429440  39.9989210
  32.8199620 105.5926820  39.5584370  32.5925270 106.3972590  40.8205020
  47.7210050 110.3976670  36.8975850  47.6109330 110.2432710  37.8358120
  48.4817640 109.8697610  36.6551260  48.6100320 108.2284590  30.1381990
  49.5349630 108.0965770  29.9300280  48.5876110 108.3077410  31.0918440
  48.6838810 108.9995250  32.7638700  47.8890310 108.9340370  33.2931610
  48.8882090 109.9345890  32.7524050  45.6257230 123.0386800  36.7577090
  46.2216300 122.7171370  36.0811510  45.8835380 122.5658620  37.5490360
  31.9255430 106.2985110  42.7414530  31.5770250 106.7548930  43.5072710
  31.5943130 105.4042240  42.8236960  33.5319800 119.4704710  46.9067720
  33.4889430 119.0997620  47.7882180  33.6630810 120.4082280  47.0469540
  37.2325830 121.0264300  42.5077440  36.9917190 121.2938860  41.6207960
  38.1728470 121.1970030  42.5628300  48.4929990 123.0458680  43.3088080
  47.9988270 123.4427550  42.5915210  47.8843280 122.4207890  43.7025360
  33.3707830 122.4166960  44.0265500  32.7768150 122.2851660  44.7655540
  33.3631670 121.5805100  43.5607600  46.1769440 123.6882100  40.5874820
  45.7172410 124.4397910  40.2132840  45.5481900 122.9688570  40.5289620
  33.0020060 119.7825340  42.9773540  32.2754120 119.1630630  42.9099490
  33.0629210 120.1765950  42.1071620  36.6065160 121.9970340  39.7622950
  37.1230180 121.3857700  39.2371210  37.2562540 122.4999120  40.2533960
  39.3460660 122.8878830  40.5891930  39.6338470 122.6333130  39.7124940
  39.8583880 122.3356190  41.1797500  40.5637670 106.6269030  41.1688440
  39.7809460 107.1014530  41.4485200  40.2700600 105.7223860  41.0601620
  45.1158740 107.3292130  39.2137530  45.5566830 107.2737230  38.3659130
  44.8466330 108.2450140  39.2847710  46.9797310 106.9607370  37.2246350
  46.9185710 106.0168590  37.0777370  47.7589340 107.0687460  37.7699810
  31.2850060 123.0999730  36.1870300  31.1172100 122.4670410  36.8852190
  30.4184570 123.3059130  35.8364490  31.9078080 106.9316510  33.6902160
  32.6657440 107.0445390  33.1166190  31.4455250 107.7685710  33.6445590
  38.4491890 109.0455780  36.6804470  37.6366400 108.6712670  36.3400350
  38.9533530 108.2900860  36.9825660  46.0951470 106.1119790  33.1927820
  46.2902100 107.0103240  33.4595250  45.3081340 105.8806870  33.6860770
  32.8912760 121.7932960  33.6320440  32.3660380 122.1740990  32.9282400
  32.8157340 122.4183730  34.3530150  34.2803230 107.4580560  32.2304130
  34.8095990 106.6710360  32.1012080  34.9131550 108.1371750  32.4639660
  36.4741070 107.1955700  35.2849520  35.8443810 106.4943010  35.4519650
  35.9346210 107.9559830  35.0682680  39.4133020 123.8094930  47.9560130
  40.3400330 123.5739200  47.9996090  39.3983450 124.6366930  47.4746160
  47.6478080 123.3520500  34.9534380  47.8230270 122.6658240  34.3095300
  46.9499650 123.8767550  34.5611050  35.4905730 123.7415340  32.5069690
  36.2224550 123.4574620  31.9593580  35.7499400 123.5028620  33.3969070
  34.6520520 119.8580070  32.5116020  34.0229400 120.3265170  33.0601850
  34.7668350 119.0129290  32.9462210  45.9810580 123.0364790  47.7801170
  46.7735900 122.5414020  47.5727130  46.2743730 123.7154930  48.3876780
  42.1070240 113.9085730  18.6617220  42.0264290 112.9940340  18.3908930
  41.6934660 114.4052800  17.9556930  40.2388280 115.6864750  20.5426490
  39.4630380 115.2065190  20.8325060  40.8901210 115.0070400  20.3682650
  34.2554110 115.9984560  21.4202250  33.4238990 115.7433270  21.8198760
  34.8635090 116.0695330  22.1560170  44.2595710 120.0924940  19.3225620
  43.7977240 119.3212180  19.6512790  45.0721260 120.1191010  19.8278070
  34.2355370 120.0324650  21.6160270  34.5383410 119.1422390  21.4370490
  34.9798960 120.5894870  21.3882520  32.6646060 110.9586450  15.2044640
  31.7762760 111.3002420  15.1024520  32.9487250 110.7586770  14.3125470
  30.6279070 113.5592100  21.0884340  31.1995180 112.7914300  21.0887980
  30.6280610 113.8580860  20.1790950  40.4859020 122.3782950  18.9429610
  39.8670460 122.8340450  18.3724050  41.3410800 122.5334410  18.5419310
  39.6797270 118.3621940  20.5496650  39.6105550 117.4211880  20.3885780
  40.4417130 118.4523350  21.1219220  31.8703940 108.9676460  22.8753270
  31.6906780 108.0702210  23.1556030  31.4684020 109.5148330  23.5500220
  40.7102440 111.1692320  20.7765580  41.0867260 110.2964200  20.6639250
  40.6121950 111.5051020  19.8856020  34.8407450 109.5417950  16.2383020
  34.9474200 110.4421680  16.5451780  33.9299810 109.4935920  15.9477670
  44.4926560 108.6642760  17.7093920  45.3136180 108.1739330  17.7519400
  44.5260640 109.2540420  18.4625760  32.4890610 111.4636960  21.4835610
  33.1700720 111.7275330  22.1023010  32.1738660 110.6237830  21.8173620
  36.6815180 112.5104320  20.5708200  37.1893400 113.0085290  21.2113220
  37.2128420 111.7339520  20.3947560  48.7826110 110.6809510  24.2737550
  48.0778280 111.0691220  23.7552660  49.0484030 111.3759800  24.8758480
  34.9651280 107.1502880  24.8371620  34.9669720 107.6675270  24.0317520
  34.1355590 106.6733060  24.8141550  41.3522370 117.2622190  16.3361520
  40.7339640 117.7271640  15.7724240  41.8645620 117.9549670  16.7531030
  36.2154130 116.7898060  23.0145120  35.8823510 117.4166980  23.6566190
  36.3920810 117.3159940  22.2346790  44.7288040 110.6043140  20.4821460
  44.0243610 110.8928030  21.0624570  45.0900200 111.4143250  20.1221020
  34.6466610 108.8612840  22.8442070  34.9883420 109.7054890  22.5495940
  33.7082420 109.0096580  22.9607410  35.4273230 118.7578860  24.8294300
  36.0447230 119.4329940  24.5478750  34.5666350 119.1666840  24.7381800
  30.7205570 117.9478720  13.7101150  30.3433550 118.4365820  12.9786050
  30.9778640 118.6204000  14.3407680  46.3450820 120.2218270  22.7448940
  45.6614340 120.8917380  22.7365610  46.8845110 120.4198920  21.9793800
  47.7974960 110.0497930  20.8730670  46.8499870 110.0836910  21.0046100
  48.1224950 110.8636880  21.2580030  38.3294500 106.3495110  19.1686660
  38.6369480 105.7942000  18.4522160  37.3995200 106.4839570  18.9859650
  43.8809560 122.0662400  21.4594120  43.8936720 121.6624690  20.5916380
  43.3284780 122.8409690  21.3555550  45.1754980 118.7878620  16.5484290
  45.0651310 117.8452950  16.6733710  45.1723230 119.1494260  17.4347050
  43.2795000 116.9692240  22.7876730  43.6963790 116.7552350  21.9530190
  44.0034820 117.2265030  23.3585350  40.7175260 114.4143940  15.9046780
  39.7904540 114.3481320  16.1335250  40.8700080 115.3524070  15.7902020
  40.7044340 110.6860940  12.9013940  39.7648010 110.8474900  12.9866400
  41.0227600 111.4046620  12.3549930  47.2257100 115.3679460  22.8792970
  46.3975730 115.4372550  22.4043100  47.8207580 115.9533770  22.4108800
  44.7472550 115.9764240  16.4082030  44.1284970 115.6383790  15.7608330
  44.7297000 115.3324000  17.1161220  44.1899110 112.1548780  23.8247840
  43.7770290 112.9802490  24.0787830  43.4575060 111.5693820  23.6324200
  36.3231900 114.9408680  18.6866510  35.9188900 114.2285930  18.1912410
  36.4095020 114.5961920  19.5754550  36.7913600 118.6276240  20.8505720
  36.4941890 118.0221710  20.1713500  37.7413420 118.6653550  20.7395080
  35.0360520 111.7151890  22.4665550  35.5875110 111.8247230  21.6918800
  35.5504030 112.0889490  23.1820780  44.8799210 122.2008110  24.5128820
  44.4029770 123.0080300  24.3201430  44.1961000 121.5486440  24.6655030
  35.8832030 118.3657930  27.5013520  34.9860560 118.5897900  27.7486920
  35.9084900 118.4892870  26.5524920  42.9237250 115.2151050  13.4154780
  43.3630530 114.3773480  13.2692600  43.6365670 115.8480450  13.5018920
  34.7103250 115.2371250  26.0770890  34.5711020 116.1094050  26.4458290
  33.8284610 114.8944060  25.9318830  41.0332630 120.1547120  17.3836020
  41.4728540 120.8971450  16.9691410  40.9719520 120.3973690  18.3074980
  36.5083600 121.1792950  28.2856040  36.4799030 121.5835900  27.4184470
  36.3448570 120.2503310  28.1227640  46.5054390 106.4693860  11.7295820
  46.1927050 106.5620690  12.6294890  47.2666860 107.0474890  11.6793250
  33.0236530 113.8353660  16.1873160  32.9034130 114.5615750  15.5754430
  32.7137420 113.0656570  15.7101070  48.4598420 121.9620050  29.5820210
  48.9358140 122.4402940  30.2609290  49.0805580 121.8937540  28.8565710
  30.6621900 117.0068800  21.9941800  30.7402320 117.1417570  21.0497520
  31.2763580 116.2984690  22.1869920  31.9069530 118.7068990  18.4047980
  31.4997610 118.8483580  17.5501580  32.7982540 118.4229150  18.2019190
  47.8631670 119.1532900  26.7420220  47.9894730 118.9144780  25.8237400
  47.9053050 118.3217440  27.2142300  41.7248410 122.8560900  25.3115030
  42.2393080 122.7668910  26.1137460  40.8817490 123.2020600  25.6042940
  43.7002810 123.1416240  14.7399030  43.5403950 122.8519180  15.6380860
  43.5349520 122.3656370  14.2044260  36.1791190 122.9214770  16.5170650
  36.0033670 122.0050310  16.3038450  35.3246930 123.2802060  16.7568450
  43.4028940 120.6503800  13.2997030  42.7094100 120.6481090  12.6399310
  44.1451800 120.2263120  12.8691200  42.9678870 122.2766510  17.3745520
  43.4235820 121.4955890  17.6884140  43.3071390 122.9873330  17.9186700
  47.7155680 111.2065360  27.7069960  47.0999950 111.7145030  27.1785420
  47.3952100 110.3063690  27.6495900  30.7181420 118.0482970  24.5336260
  30.8812460 117.5788330  23.7155630  31.1833870 117.5406530  25.1985100
  35.4900190 107.1788730  19.5696830  35.0468340 107.9598270  19.2381350
  36.0485180 107.5018620  20.2767770  39.7770000 110.0457250  25.1732150
  39.3149370 110.2540270  25.9852090  39.3748110 109.2316600  24.8702820
  44.7774510 111.2666200  26.3028810  43.9268100 110.9671950  26.6237880
  44.6176300 111.5108210  25.3912630  41.8724220 112.7667950  28.4027600
  42.1977630 111.9331700  28.0629830  42.6604550 113.2896470  28.5505930
  38.6059010 106.7999430  14.4502660  37.9813190 106.7959300  15.1755970
  38.5189130 105.9330390  14.0538630  37.5276090 107.7236060  21.4286430
  37.8248420 108.6298890  21.3478450  38.0761650 107.2354840  20.8146000
  35.2814410 112.3022300  17.2978080  35.0555330 112.0859470  18.2024700
  34.5006940 112.7350760  16.9524050  42.5112170 112.3085670  15.8968730
  41.9121060 113.0321470  15.7132350  43.0591780 112.2462450  15.1145180
  37.7213620 113.2007880  27.9638350  37.6257220 112.2602610  27.8138750
  38.5645600 113.4222950  27.5686420  41.1177040 110.9449210  17.9272010
  41.5106610 111.2621410  17.1140700  41.4793890 110.0661090  18.0416530
  32.8524160 109.6121550  26.1172130  32.4587550 110.4596760  26.3244910
  32.1642560 108.9747920  26.3080770  39.4269210 109.6956520  29.1868870
  38.7367530 109.5028720  29.8214960  40.1701510 109.9791160  29.7193170
  30.1541210 107.5350010  20.1502210  29.8654260 108.1052870  20.8627190
  30.8986970 107.0554460  20.5133440  30.3411440 111.4770130  11.3604930
  30.2586110 112.4200890  11.5019920  29.9894500 111.3345040  10.4817280
  41.7032180 113.5354960  22.0222790  40.9713300 114.0441770  22.3712890
  41.3056520 112.7184940  21.7211570  38.1409570 110.2109160  20.4275280
  38.1445630 109.7699110  19.5779820  39.0360690 110.5326490  20.5347100
  33.9911950 110.0935650  19.3869490  33.6512000 110.5710880  20.1436540
  33.2289270 109.6400770  19.0270590  38.2029720 111.2121240  13.4182040
  38.3242540 111.1707720  14.3667860  37.8178230 112.0745390  13.2628770
  42.1658090 108.9888640  21.4345730  42.1830830 109.4397290  22.2787580
  41.9173670 108.0894280  21.6479170  37.2151220 113.5222380  12.8165340
  36.6468120 113.0740630  12.1901250  37.9240220 113.8815160  12.2830490
  45.5928840 106.4020820  27.2732110  45.9174610 105.6710480  27.7990090
  45.6285350 106.0834460  26.3713100  32.2920400 117.4234400  26.6932070
  31.9075190 116.7828070  27.2915030  32.6032590 118.1270520  27.2626800
  38.4417540 114.2710940  22.1740690  38.8087670 113.7969510  22.9202030
  38.2522600 115.1452510  22.5149030  31.3058030 109.0154630  18.3034160
  31.0204950 108.6510300  19.1412780  31.2436890 108.2835090  17.6897300
  36.2316910 113.3119580  24.4924900  35.9273980 114.1911560  24.7175260
  37.1863370 113.3719370  24.5282340  34.7598700 117.5180570  15.0891750
  33.9860960 116.9778190  14.9290470  35.4893330 116.9987180  14.7509510
  45.5186680 116.5145930  20.8818140  46.2385800 117.0101220  20.4914250
  45.3168500 115.8363820  20.2372010  40.9796620 107.9083890  15.0247530
  40.1661230 107.4097060  14.9492840  40.7858570 108.7482140  14.6083880
  40.9005480 116.5854990  26.7687140  40.8342790 115.6650660  26.5144730
  40.2710620 116.6830430  27.4831780  43.6945010 112.2803540  13.3209690
  44.5824630 112.5920770  13.1461030  43.6650100 111.4075790  12.9290270
  34.8036100 117.1860950  18.7270560  35.3214770 116.3829210  18.6727450
  34.3520120 117.1240090  19.5687390  39.6905600 118.4527230  13.9997860
  40.0321300 119.1969460  13.5041180  38.8618310 118.7658350  14.3622690
  32.2880640 114.1522320  25.6396260  31.9295580 114.8176170  26.2269600
  31.9935200 113.3205870  26.0108880  35.4893760 114.6106560  28.5235810
  35.1893900 114.7563740  27.6263630  36.2605000 114.0511850  28.4309200
  40.8322210 119.4075560  26.5190940  40.8466750 118.4756520  26.3009850
  40.1247310 119.4935320  27.1580710  45.9659280 113.5915380  12.7889550
  45.8823000 114.0229600  11.9385990  46.6853470 114.0513730  13.2216370
  47.0433420 116.0482900  25.8659520  46.3181610 116.6411680  25.6688910
  47.5708880 116.0406440  25.0672890  46.9946530 120.4457640  15.5171680
  46.3522690 119.7913260  15.7915400  46.6077190 120.8512730  14.7412350
  42.5733010 117.7743070  19.3643370  42.9256830 117.1771200  18.7044740
  41.6895340 117.4487300  19.5351620  38.6596290 118.5340760  16.7713780
  39.3467420 119.0809970  17.1521370  37.8728710 119.0781490  16.8063390
  30.7988690 114.1513580  12.2630860  31.6683540 114.4338380  12.5466780
  30.3079010 114.9649450  12.1479670  37.9623500 115.5386790  16.3839140
  38.4186280 116.3492040  16.6099330  37.6111710 115.2209930  17.2157630
  40.2656110 121.0493130  23.6131440  40.9098330 121.2552510  24.2904860
  40.6285550 120.2881530  23.1602290  33.8635280 105.8824440  16.8561660
  33.7349910 105.8742340  17.8046580  33.0397300 106.2207530  16.5052670
  41.5388190 119.0525480  22.3308890  42.1810420 118.3518640  22.4441060
  42.0637540 119.8323920  22.1505780  45.3843910 119.3374100  12.0548030
  45.1581490 118.6204540  12.6472670  44.9940110 119.0886540  11.2169780
  43.3125810 119.8520380  25.5344950  43.6482050 120.4387070  26.2122870
  42.3926150 119.7213090  25.7642740  31.1659940 123.3640960  12.8292490
  31.5257580 123.9630300  12.1749760  31.0252280 123.9100850  13.6027520
  30.8629210 107.6415560  26.3168360  30.1487730 107.8412480  26.9220970
  31.2824250 106.8655130  26.6883160  44.9660160 117.2546040  13.7162190
  44.6781860 117.7158730  14.5040070  45.7612330 116.7943810  13.9846410
  31.1501800 121.6295820  27.3034890  31.2592920 120.6890560  27.1630280
  30.4982360 121.8950570  26.6548620  39.1414390 119.9011710  28.7033010
  38.8211260 119.1820950  29.2478700  38.4672750 120.5766780  28.7769070
  37.1828560 120.7472160  13.6466160  37.1738660 121.4801850  13.0310670
  36.2626920 120.5003740  13.7393120  32.7835200 115.9687050  14.3912920
  32.1763150 116.7085950  14.4008220  33.2584550 116.0586410  13.5651120
  42.3567990 110.1337870  24.0669810  42.7248810 109.3133080  24.3949380
  41.4966190 110.1939760  24.4825460  45.7230020 109.0894810  14.8757370
  45.0943180 109.1940480  14.1615600  45.2281940 109.3091590  15.6651250
  40.1688160 120.8100400  12.3091350  40.2700140 120.6064390  11.3793330
  39.2689900 120.5558680  12.5139130  37.6914050 111.3680760  16.2915250
  36.9830200 111.8367100  16.7328860  37.9758530 110.7102770  16.9260440
  39.3169980 112.7877460  24.2907780  39.8155230 113.2623280  24.9559630
  39.4592930 111.8640980  24.4977810  41.7229480 108.0931420  17.7311040
  41.5997260 108.1117550  16.7820550  42.6714040 108.1410360  17.8509440
  38.8106270 123.3286720  17.0039020  39.0647770 123.2908110  16.0818390
  37.8618750 123.2020050  16.9967270  35.8949070 109.6765840  13.6665960
  36.7439600 110.1135990  13.6006150  35.5280340 109.9886100  14.4938020
  46.5236840 109.0045420  25.1336170  46.0210440 109.7450820  25.4729980
  47.3393500 109.3929420  24.8172960  44.8158850 114.2478600  18.5797530
  43.8748990 114.2628830  18.7545220  45.1302920 113.4614560  19.0257830
  34.7940490 115.9298200  12.1401490  35.5603760 115.8179560  12.7026920
  34.8715180 115.2336170  11.4878260  33.4887250 113.3623270  12.8234380
  33.5690840 112.4150780  12.9351780  34.3807000 113.6930150  12.9295040
  46.8184430 121.4187450  20.2551790  46.9431850 122.2418620  20.7275600
  47.6849990 121.2078180  19.9075940  34.2901960 123.5118660  19.9268920
  35.0264440 122.9634120  20.1977490  34.6742880 124.3774670  19.7874910
  31.1747440 119.5792230  15.8010430  30.2487220 119.8213370  15.7915840
  31.6403870 120.4066490  15.6795180  33.2960240 122.6964730  29.1154500
  34.0972970 123.0176780  29.5289900  32.7812060 122.3360310  29.8374410
  37.4004270 122.6848970  11.7494490  38.1932880 122.9737800  11.2976280
  36.8808620 122.2541140  11.0706970  42.1324870 118.8044600  29.0629910
  41.5263030 118.8276200  28.3225660  41.8278980 118.0727640  29.5997160
  43.5625240 122.5324890  27.6739320  44.5146990 122.4482910  27.6239560
  43.4153460 123.1966600  28.3473110  46.4534440 121.9119100  13.1731230
  46.1675950 121.4984240  12.3585410  46.2553990 122.8406810  13.0531750
  31.0158050 115.1838190  28.0590550  31.5197070 114.6045470  28.6306780
  30.2765470 115.4678420  28.5966920  37.9181670 117.9052380  11.6136840
  37.8132310 117.2904730  12.3398220  37.7505890 117.3818270  10.8299850
  38.0695990 116.5909180  27.5926070  37.3041660 117.1594180  27.5080740
  38.2511950 116.2985390  26.6994300  41.1584400 116.9672410  12.2178830
  40.6094500 117.4141710  12.8621570  41.7803660 116.4621660  12.7416500
  45.2119340 118.3214510  28.1501090  45.9528810 118.6590270  27.6468550
  44.4492020 118.4906570  27.5970860  33.0481130 113.3267780  28.9540620
  33.0886470 113.0281650  29.8625850  33.9026630 113.7275390  28.7948140
  36.8259520 115.9263330  14.1144130  37.2475940 115.7603200  14.9575520
  36.9510360 115.1163560  13.6199270  34.9886940 111.9059880  26.9215110
  34.4583400 111.4150830  26.2938450  35.6575010 112.3344080  26.3873040
  39.3387160 114.9500940  11.3621230  39.8592820 114.2349960  10.9962380
  39.9855560 115.5886810  11.6621740  43.8865000 116.3729340  26.6856300
  44.3006020 116.5274420  27.5346720  42.9516000 116.4984560  26.8482080
  44.3587170 113.7125500  28.6895450  44.9407940 112.9577820  28.6015930
  44.5348940 114.2432940  27.9126930  35.4759240 108.8722250  27.0012400
  35.3816110 108.2543000  26.2763270  34.8956630 109.5988540  26.7742310
  38.2420680 107.4295490  24.0339790  37.7937980 107.4519750  23.1885340
  37.6085880 107.0314510  24.6310090  38.6480230 116.3249820  24.6552230
  39.0668340 117.1682550  24.4828470  37.7288860 116.4621860  24.4259010
  40.9844130 114.0566000  26.0390070  41.1040340 113.4607140  26.7784910
  41.8438130 114.0935690  25.6191370  43.3232030 114.6103190  24.6152580
  42.7967250 115.1345810  24.0117720  43.6663370 115.2430580  25.2462310
  35.7218420 111.9996560  11.0602290  35.5207480 111.1363920  11.4215630
  35.5510470 111.9129920  10.1223890  36.4987650 122.6302830  25.7709960
  35.9608740 123.3548890  25.4518660  36.7521610 122.1533170  24.9807300
  37.7512900 110.5987350  27.2965890  38.3412590 110.2903200  27.9843710
  36.9333140 110.1267100  27.4525790  42.5706330 110.2153160  27.5298910
  41.8821850 109.5534700  27.4648900  43.2912350 109.7691430  27.9747370
  43.2006730 106.8104790  13.5889170  43.4809020 105.9672690  13.9448590
  42.4272460 107.0427900  14.1027920  34.5201220 109.0997180  11.0480170
  34.8227120 109.1064610  10.1399320  35.2595810 108.7495040  11.5447830
  39.3549860 123.8654040  26.0296610  39.2808560 124.7689180  26.3368980
  38.4528700 123.5465940  26.0018680  37.7386150 108.0431800  12.0336370
  37.3908150 107.3655790  11.4538820  37.9398920 107.5821310  12.8479760
  39.9035190 123.0312550  13.6522970  40.7985980 123.3697520  13.6741730
  39.9352820 122.3091960  13.0247250  33.5431350 118.4039600  11.8809970
  33.9806220 118.9469270  12.5367550  34.0279080 117.5786550  11.8906310
  30.7577150 121.1928630  19.3330230  31.0880160 120.3249690  19.1008870
  31.1868150 121.3987150  20.1635190  35.3539070 119.5237640  16.9932200
  35.0534610 119.4002610  17.8936110  35.2476560 118.6646230  16.5847930
  31.2467360 122.0599220  22.0711860  30.8098350 122.2400020  22.9036010
  31.8145040 122.8173840  21.9293580  46.8829540 121.5616220  26.3589170
  46.2831530 121.6208780  25.6153090  47.0123440 120.6221200  26.4886020
  48.1230990 119.3034040  11.6958880  47.2923950 119.3710690  12.1666110
  48.3002820 120.1938160  11.3925740  47.5787450 116.0481520  14.1993080
  48.3406360 116.6178170  14.3052770  47.5941820 115.4808720  14.9701390
  31.0791790 114.5719450  18.4300740  30.4240630 114.3031090  17.7860440
  31.9169740 114.4623930  17.9802720  48.5847420 116.9031620  19.0435010
  48.9556250 116.1198940  18.6370980  49.2249350 117.5920720  18.8652310
  45.5681180 118.2868200  24.4565330  44.7541020 118.7165360  24.7191120
  45.9755380 118.8986610  23.8434380  47.6306620 116.3415890  11.3565600
  47.9055460 117.2494770  11.2284820  47.4417360 116.2778420  12.2927590
  44.0282230 109.3660740  12.6519230  44.4467110 109.1791720  11.8115890
  43.7218290 108.5139790  12.9622160  47.5271960 114.2784880  16.3495030
  47.1515560 113.5112810  15.9176320  46.7975080 114.6607580  16.8369960
  32.1167720 114.9572020  22.9704080  32.4840760 114.8699420  23.8500100
  31.5478540 114.1938570  22.8710940  46.9171580 113.4256400  25.9834550
  46.6857670 113.1969150  25.0832500  47.1776130 114.3455950  25.9379440
  31.6683720 111.8681110  26.8762500  30.7739770 111.8347870  27.2156210
  32.2081270 112.0667900  27.6413750  45.3559650 108.6512830  28.7614250
  46.2329830 108.6596230  29.1448250  45.3680490 107.9143670  28.1506600
  30.2929870 111.7818380  14.3726070  29.3893950 112.0448580  14.1977730
  30.7770490 112.0529550  13.5926030  46.8022920 112.5042370  19.6502270
  47.3260400 112.0105020  19.0192440  47.3882340 112.6392730  20.3949840
  46.9812640 112.5882240  23.1721820  46.0315350 112.5545780  23.2866810
  47.1625650 113.4982350  22.9371590  32.8357080 110.8383920  12.2820450
  33.5448780 110.4167140  11.7967730  32.1197020 110.9059150  11.6503800
  32.4831240 106.8923250  11.3223100  33.2059370 107.4332190  11.6404320
  32.7555760 106.6186670  10.4464640  46.2922890 111.7615720  15.5894680
  46.7882010 111.5286590  16.3743560  46.0938960 110.9227560  15.1732320
  32.1723430 106.1429440  21.2245720  32.8199620 105.5926820  20.7840880
  32.5925270 106.3972590  22.0461530  47.7210050 110.3976670  18.1232360
  47.6109330 110.2432710  19.0614630  48.4817640 109.8697610  17.8807770
  46.0675770 106.3370800  24.5815360  46.7047990 106.9504940  24.9474550
  46.2150660 106.3731460  23.6364590  48.6100320 108.2284590  11.3638500
  49.5349630 108.0965770  11.1556790  48.5876110 108.3077410  12.3174950
  48.6838810 108.9995250  13.9895210  47.8890310 108.9340370  14.5188120
  48.8882090 109.9345890  13.9780560  45.6257230 123.0386800  17.9833600
  46.2216300 122.7171370  17.3068020  45.8835380 122.5658620  18.7746870
  31.9255430 106.2985110  23.9671040  31.5770250 106.7548930  24.7329220
  31.5943130 105.4042240  24.0493470  33.5319800 119.4704710  28.1324230
  33.4889430 119.0997620  29.0138690  33.6630810 120.4082280  28.2726050
  37.2325830 121.0264300  23.7333950  36.9917190 121.2938860  22.8464470
  38.1728470 121.1970030  23.7884810  39.4380250 107.4896990  27.4890460
  39.3769140 108.0818820  28.2385870  40.3780630 107.3822950  27.3440720
  42.0754810 107.1467050  27.1282750  42.6895220 107.4646340  26.4663830
  42.6204370 106.6615640  27.7478610  48.4929990 123.0458680  24.5344590
  47.9988270 123.4427550  23.8171720  47.8843280 122.4207890  24.9281870
  32.5976070 105.8261310  27.2421810  33.1459060 105.6449360  26.4787920
  32.6631380 105.0355420  27.7778120  33.3707830 122.4166960  25.2522010
  32.7768150 122.2851660  25.9912050  33.3631670 121.5805100  24.7864110
  42.8162850 105.7099190  23.4552040  41.9422690 106.0434300  23.2524970
  42.7073600 105.2372370  24.2803910  43.7234830 107.9170060  24.8393760
  43.3948190 107.1021820  24.4595490  44.6717130 107.8739870  24.7159450
  46.1769440 123.6882100  21.8131330  45.7172410 124.4397910  21.4389350
  45.5481900 122.9688570  21.7546130  33.0020060 119.7825340  24.2030050
  32.2754120 119.1630630  24.1356000  33.0629210 120.1765950  23.3328130
  36.6065160 121.9970340  20.9879460  37.1230180 121.3857700  20.4627720
  37.2562540 122.4999120  21.4790470  39.3460660 122.8878830  21.8148440
  39.6338470 122.6333130  20.9381450  39.8583880 122.3356190  22.4054010
  40.5637670 106.6269030  22.3944950  39.7809460 107.1014530  22.6741710
  40.2700600 105.7223860  22.2858130  45.1158740 107.3292130  20.4394040
  45.5566830 107.2737230  19.5915640  44.8466330 108.2450140  20.5104220
  46.9797310 106.9607370  18.4502860  46.9185710 106.0168590  18.3033880
  47.7589340 107.0687460  18.9956320  31.2850060 123.0999730  17.4126810
  31.1172100 122.4670410  18.1108700  30.4184570 123.3059130  17.0621000
  31.9078080 106.9316510  14.9158670  32.6657440 107.0445390  14.3422700
  31.4455250 107.7685710  14.8702100  38.4491890 109.0455780  17.9060980
  37.6366400 108.6712670  17.5656860  38.9533530 108.2900860  18.2082170
  42.9516870 105.7098230  19.1444050  43.5546240 106.2818440  19.6192570
  42.2109860 106.2737670  18.9217950  46.0951470 106.1119790  14.4184330
  46.2902100 107.0103240  14.6851760  45.3081340 105.8806870  14.9117280
  32.8912760 121.7932960  14.8576950  32.3660380 122.1740990  14.1538910
  32.8157340 122.4183730  15.5786660  34.2803230 107.4580560  13.4560640
  34.8095990 106.6710360  13.3268590  34.9131550 108.1371750  13.6896170
  36.4741070 107.1955700  16.5106030  35.8443810 106.4943010  16.6776160
  35.9346210 107.9559830  16.2939190  39.4133020 123.8094930  29.1816640
  40.3400330 123.5739200  29.2252600  39.3983450 124.6366930  28.7002670
  47.6478080 123.3520500  16.1790890  47.8230270 122.6658240  15.5351810
  46.9499650 123.8767550  15.7867560  36.5996630 106.4739680  28.9458520
  36.3180900 106.9773280  28.1819340  36.9816330 105.6761430  28.5800650
  35.4905730 123.7415340  13.7326200  36.2224550 123.4574620  13.1850090
  35.7499400 123.5028620  14.6225580  34.6520520 119.8580070  13.7372530
  34.0229400 120.3265170  14.2858360  34.7668350 119.0129290  14.1718720
  43.2012090 105.8893260  29.5238990  43.0877540 106.2087870  30.4190510
  44.0181830 106.2905770  29.2276270  45.9810580 123.0364790  29.0057680
  46.7735900 122.5414020  28.7983640  46.2743730 123.7154930  29.6133290
  40.2388280 115.6864750   1.7683000  39.4630380 115.2065190   2.0581570
  40.8901210 115.0070400   1.5939160  34.2554110 115.9984560   2.6458760
  33.4238990 115.7433270   3.0455270  34.8635090 116.0695330   3.3816680
  34.2355370 120.0324650   2.8416780  34.5383410 119.1422390   2.6627000
  34.9798960 120.5894870   2.6139030  39.6797270 118.3621940   1.7753160
  39.6105550 117.4211880   1.6142290  40.4417130 118.4523350   2.3475730
  31.8703940 108.9676460   4.1009780  31.6906780 108.0702210   4.3812540
  31.4684020 109.5148330   4.7756730  32.4890610 111.4636960   2.7092120
  33.1700720 111.7275330   3.3279520  32.1738660 110.6237830   3.0430130
  36.6815180 112.5104320   1.7964710  37.1893400 113.0085290   2.4369730
  37.2128420 111.7339520   1.6204070  48.7826110 110.6809510   5.4994060
  48.0778280 111.0691220   4.9809170  49.0484030 111.3759800   6.1014990
  34.9651280 107.1502880   6.0628130  34.9669720 107.6675270   5.2574030
  34.1355590 106.6733060   6.0398060  36.2154130 116.7898060   4.2401630
  35.8823510 117.4166980   4.8822700  36.3920810 117.3159940   3.4603300
  34.6466610 108.8612840   4.0698580  34.9883420 109.7054890   3.7752450
  33.7082420 109.0096580   4.1863920  35.4273230 118.7578860   6.0550810
  36.0447230 119.4329940   5.7735260  34.5666350 119.1666840   5.9638310
  46.3450820 120.2218270   3.9705450  45.6614340 120.8917380   3.9622120
  46.8845110 120.4198920   3.2050310  47.7974960 110.0497930   2.0987180
  46.8499870 110.0836910   2.2302610  48.1224950 110.8636880   2.4836540
  43.8809560 122.0662400   2.6850630  43.8936720 121.6624690   1.8172890
  43.3284780 122.8409690   2.5812060  43.2795000 116.9692240   4.0133240
  43.6963790 116.7552350   3.1786700  44.0034820 117.2265030   4.5841860
  47.2257100 115.3679460   4.1049480  46.3975730 115.4372550   3.6299610
  47.8207580 115.9533770   3.6365310  44.1899110 112.1548780   5.0504350
  43.7770290 112.9802490   5.3044340  43.4575060 111.5693820   4.8580710
  35.0360520 111.7151890   3.6922060  35.5875110 111.8247230   2.9175310
  35.5504030 112.0889490   4.4077290  44.8799210 122.2008110   5.7385330
  44.4029770 123.0080300   5.5457940  44.1961000 121.5486440   5.8911540
  35.8832030 118.3657930   8.7270030  34.9860560 118.5897900   8.9743430
  35.9084900 118.4892870   7.7781430  34.7103250 115.2371250   7.3027400
  34.5711020 116.1094050   7.6714800  33.8284610 114.8944060   7.1575340
  36.5083600 121.1792950   9.5112550  36.4799030 121.5835900   8.6440980
  36.3448570 120.2503310   9.3484150  48.4598420 121.9620050  10.8076720
  48.9358140 122.4402940  11.4865800  49.0805580 121.8937540  10.0822220
  30.6621900 117.0068800   3.2198310  30.7402320 117.1417570   2.2754030
  31.2763580 116.2984690   3.4126430  47.8631670 119.1532900   7.9676730
  47.9894730 118.9144780   7.0493910  47.9053050 118.3217440   8.4398810
  41.7248410 122.8560900   6.5371540  42.2393080 122.7668910   7.3393970
  40.8817490 123.2020600   6.8299450  47.7155680 111.2065360   8.9326470
  47.0999950 111.7145030   8.4041930  47.3952100 110.3063690   8.8752410
  30.7181420 118.0482970   5.7592770  30.8812460 117.5788330   4.9412140
  31.1833870 117.5406530   6.4241610  39.7770000 110.0457250   6.3988660
  39.3149370 110.2540270   7.2108600  39.3748110 109.2316600   6.0959330
  44.7774510 111.2666200   7.5285320  43.9268100 110.9671950   7.8494390
  44.6176300 111.5108210   6.6169140  41.8724220 112.7667950   9.6284110
  42.1977630 111.9331700   9.2886340  42.6604550 113.2896470   9.7762440
  37.5276090 107.7236060   2.6542940  37.8248420 108.6298890   2.5734960
  38.0761650 107.2354840   2.0402510  37.7213620 113.2007880   9.1894860
  37.6257220 112.2602610   9.0395260  38.5645600 113.4222950   8.7942930
  32.8524160 109.6121550   7.3428640  32.4587550 110.4596760   7.5501420
  32.1642560 108.9747920   7.5337280  39.4269210 109.6956520  10.4125380
  38.7367530 109.5028720  11.0471470  40.1701510 109.9791160  10.9449680
  41.7032180 113.5354960   3.2479300  40.9713300 114.0441770   3.5969400
  41.3056520 112.7184940   2.9468080  42.1658090 108.9888640   2.6602240
  42.1830830 109.4397290   3.5044090  41.9173670 108.0894280   2.8735680
  45.5928840 106.4020820   8.4988620  45.9174610 105.6710480   9.0246600
  45.6285350 106.0834460   7.5969610  32.2920400 117.4234400   7.9188580
  31.9075190 116.7828070   8.5171540  32.6032590 118.1270520   8.4883310
  38.4417540 114.2710940   3.3997200  38.8087670 113.7969510   4.1458540
  38.2522600 115.1452510   3.7405540  36.2316910 113.3119580   5.7181410
  35.9273980 114.1911560   5.9431770  37.1863370 113.3719370   5.7538850
  45.5186680 116.5145930   2.1074650  46.2385800 117.0101220   1.7170760
  45.3168500 115.8363820   1.4628520  40.9005480 116.5854990   7.9943650
  40.8342790 115.6650660   7.7401240  40.2710620 116.6830430   8.7088290
  32.2880640 114.1522320   6.8652770  31.9295580 114.8176170   7.4526110
  31.9935200 113.3205870   7.2365390  35.4893760 114.6106560   9.7492320
  35.1893900 114.7563740   8.8520140  36.2605000 114.0511850   9.6565710
  40.8322210 119.4075560   7.7447450  40.8466750 118.4756520   7.5266360
  40.1247310 119.4935320   8.3837220  47.0433420 116.0482900   7.0916030
  46.3181610 116.6411680   6.8945420  47.5708880 116.0406440   6.2929400
  40.2656110 121.0493130   4.8387950  40.9098330 121.2552510   5.5161370
  40.6285550 120.2881530   4.3858800  41.5388190 119.0525480   3.5565400
  42.1810420 118.3518640   3.6697570  42.0637540 119.8323920   3.3762290
  43.3125810 119.8520380   6.7601460  43.6482050 120.4387070   7.4379380
  42.3926150 119.7213090   6.9899250  30.8629210 107.6415560   7.5424870
  30.1487730 107.8412480   8.1477480  31.2824250 106.8655130   7.9139670
  31.1501800 121.6295820   8.5291400  31.2592920 120.6890560   8.3886790
  30.4982360 121.8950570   7.8805130  39.1414390 119.9011710   9.9289520
  38.8211260 119.1820950  10.4735210  38.4672750 120.5766780  10.0025580
  42.3567990 110.1337870   5.2926320  42.7248810 109.3133080   5.6205890
  41.4966190 110.1939760   5.7081970  39.3169980 112.7877460   5.5164290
  39.8155230 113.2623280   6.1816140  39.4592930 111.8640980   5.7234320
  46.5236840 109.0045420   6.3592680  46.0210440 109.7450820   6.6986490
  47.3393500 109.3929420   6.0429470  33.2960240 122.6964730  10.3411010
  34.0972970 123.0176780  10.7546410  32.7812060 122.3360310  11.0630920
  42.1324870 118.8044600  10.2886420  41.5263030 118.8276200   9.5482170
  41.8278980 118.0727640  10.8253670  43.5625240 122.5324890   8.8995830
  44.5146990 122.4482910   8.8496070  43.4153460 123.1966600   9.5729620
  31.0158050 115.1838190   9.2847060  31.5197070 114.6045470   9.8563290
  30.2765470 115.4678420   9.8223430  38.0695990 116.5909180   8.8182580
  37.3041660 117.1594180   8.7337250  38.2511950 116.2985390   7.9250810
  45.2119340 118.3214510   9.3757600  45.9528810 118.6590270   8.8725060
  44.4492020 118.4906570   8.8227370  33.0481130 113.3267780  10.1797130
  33.0886470 113.0281650  11.0882360  33.9026630 113.7275390  10.0204650
  34.9886940 111.9059880   8.1471620  34.4583400 111.4150830   7.5194960
  35.6575010 112.3344080   7.6129550  43.8865000 116.3729340   7.9112810
  44.3006020 116.5274420   8.7603230  42.9516000 116.4984560   8.0738590
  44.3587170 113.7125500   9.9151960  44.9407940 112.9577820   9.8272440
  44.5348940 114.2432940   9.1383440  35.4759240 108.8722250   8.2268910
  35.3816110 108.2543000   7.5019780  34.8956630 109.5988540   7.9998820
  38.2420680 107.4295490   5.2596300  37.7937980 107.4519750   4.4141850
  37.6085880 107.0314510   5.8566600  38.6480230 116.3249820   5.8808740
  39.0668340 117.1682550   5.7084980  37.7288860 116.4621860   5.6515520
  40.9844130 114.0566000   7.2646580  41.1040340 113.4607140   8.0041420
  41.8438130 114.0935690   6.8447880  43.3232030 114.6103190   5.8409090
  42.7967250 115.1345810   5.2374230  43.6663370 115.2430580   6.4718820
  36.4987650 122.6302830   6.9966470  35.9608740 123.3548890   6.6775170
  36.7521610 122.1533170   6.2063810  37.7512900 110.5987350   8.5222400
  38.3412590 110.2903200   9.2100220  36.9333140 110.1267100   8.6782300
  42.5706330 110.2153160   8.7555420  41.8821850 109.5534700   8.6905410
  43.2912350 109.7691430   9.2003880  39.3549860 123.8654040   7.2553120
  39.2808560 124.7689180   7.5625490  38.4528700 123.5465940   7.2275190
  31.2467360 122.0599220   3.2968370  30.8098350 122.2400020   4.1292520
  31.8145040 122.8173840   3.1550090  46.8829540 121.5616220   7.5845680
  46.2831530 121.6208780   6.8409600  47.0123440 120.6221200   7.7142530
  45.5681180 118.2868200   5.6821840  44.7541020 118.7165360   5.9447630
  45.9755380 118.8986610   5.0690890  32.1167720 114.9572020   4.1960590
  32.4840760 114.8699420   5.0756610  31.5478540 114.1938570   4.0967450
  46.9171580 113.4256400   7.2091060  46.6857670 113.1969150   6.3089010
  47.1776130 114.3455950   7.1635950  31.6683720 111.8681110   8.1019010
  30.7739770 111.8347870   8.4412720  32.2081270 112.0667900   8.8670260
  45.3559650 108.6512830   9.9870760  46.2329830 108.6596230  10.3704760
  45.3680490 107.9143670   9.3763110  46.9812640 112.5882240   4.3978330
  46.0315350 112.5545780   4.5123320  47.1625650 113.4982350   4.1628100
  32.1723430 106.1429440   2.4502230  32.8199620 105.5926820   2.0097390
  32.5925270 106.3972590   3.2718040  46.0675770 106.3370800   5.8071870
  46.7047990 106.9504940   6.1731060  46.2150660 106.3731460   4.8621100
  31.9255430 106.2985110   5.1927550  31.5770250 106.7548930   5.9585730
  31.5943130 105.4042240   5.2749980  33.5319800 119.4704710   9.3580740
  33.4889430 119.0997620  10.2395200  33.6630810 120.4082280   9.4982560
  37.2325830 121.0264300   4.9590460  36.9917190 121.2938860   4.0720980
  38.1728470 121.1970030   5.0141320  39.4380250 107.4896990   8.7146970
  39.3769140 108.0818820   9.4642380  40.3780630 107.3822950   8.5697230
  42.0754810 107.1467050   8.3539260  42.6895220 107.4646340   7.6920340
  42.6204370 106.6615640   8.9735120  48.4929990 123.0458680   5.7601100
  47.9988270 123.4427550   5.0428230  47.8843280 122.4207890   6.1538380
  32.5976070 105.8261310   8.4678320  33.1459060 105.6449360   7.7044430
  32.6631380 105.0355420   9.0034630  33.3707830 122.4166960   6.4778520
  32.7768150 122.2851660   7.2168560  33.3631670 121.5805100   6.0120620
  42.8162850 105.7099190   4.6808550  41.9422690 106.0434300   4.4781480
  42.7073600 105.2372370   5.5060420  43.7234830 107.9170060   6.0650270
  43.3948190 107.1021820   5.6852000  44.6717130 107.8739870   5.9415960
  46.1769440 123.6882100   3.0387840  45.7172410 124.4397910   2.6645860
  45.5481900 122.9688570   2.9802640  33.0020060 119.7825340   5.4286560
  32.2754120 119.1630630   5.3612510  33.0629210 120.1765950   4.5584640
  36.6065160 121.9970340   2.2135970  37.1230180 121.3857700   1.6884230
  37.2562540 122.4999120   2.7046980  39.3460660 122.8878830   3.0404950
  39.6338470 122.6333130   2.1637960  39.8583880 122.3356190   3.6310520
  40.5637670 106.6269030   3.6201460  39.7809460 107.1014530   3.8998220
  40.2700600 105.7223860   3.5114640  39.4133020 123.8094930  10.4073150
  40.3400330 123.5739200  10.4509110  39.3983450 124.6366930   9.9259180
  36.5996630 106.4739680  10.1715030  36.3180900 106.9773280   9.4075850
  36.9816330 105.6761430   9.8057160  43.2012090 105.8893260  10.7495500
  43.0877540 106.2087870  11.6447020  44.0181830 106.2905770  10.4532780
  45.9810580 123.0364790  10.2314190  46.7735900 122.5414020  10.0240150
  46.2743730 123.7154930  10.8389800  42.1070240  95.1342240 150.0821650
  42.0264290  94.2196850 149.8113360  41.6934660  95.6309310 149.3761360
  44.2595710 101.3181450 150.7430050  43.7977240 100.5468690 151.0717220
  45.0721260 101.3447520 151.2482500  32.6646060  92.1842960 146.6249070
  31.7762760  92.5258930 146.5228950  32.9487250  91.9843280 145.7329900
  40.4859020 103.6039460 150.3634040  39.8670460 104.0596960 149.7928480
  41.3410800 103.7590920 149.9623740  34.8407450  90.7674460 147.6587450
  34.9474200  91.6678190 147.9656210  33.9299810  90.7192430 147.3682100
  44.4926560  89.8899270 149.1298350  45.3136180  89.3995840 149.1723830
  44.5260640  90.4796930 149.8830190  41.3522370  98.4878700 147.7565950
  40.7339640  98.9528150 147.1928670  41.8645620  99.1806180 148.1735460
  30.7205570  99.1735230 145.1305580  30.3433550  99.6622330 144.3990480
  30.9778640  99.8460510 145.7612110  38.3294500  87.5751620 150.5891090
  38.6369480  87.0198510 149.8726590  37.3995200  87.7096080 150.4064080
  45.1754980 100.0135130 147.9688720  45.0651310  99.0709460 148.0938140
  45.1723230 100.3750770 148.8551480  40.7175260  95.6400450 147.3251210
  39.7904540  95.5737830 147.5539680  40.8700080  96.5780580 147.2106450
  40.7044340  91.9117450 144.3218370  39.7648010  92.0731410 144.4070830
  41.0227600  92.6303130 143.7754360  44.7472550  97.2020750 147.8286460
  44.1284970  96.8640300 147.1812760  44.7297000  96.5580510 148.5365650
  36.3231900  96.1665190 150.1070940  35.9188900  95.4542440 149.6116840
  36.4095020  95.8218430 150.9958980  42.9237250  96.4407560 144.8359210
  43.3630530  95.6029990 144.6897030  43.6365670  97.0736960 144.9223350
  41.0332630 101.3803630 148.8040450  41.4728540 102.1227960 148.3895840
  40.9719520 101.6230200 149.7279410  46.5054390  87.6950370 143.1500250
  46.1927050  87.7877200 144.0499320  47.2666860  88.2731400 143.0997680
  33.0236530  95.0610170 147.6077590  32.9034130  95.7872260 146.9958860
  32.7137420  94.2913080 147.1305500  31.9069530  99.9325500 149.8252410
  31.4997610 100.0740090 148.9706010  32.7982540  99.6485660 149.6223620
  43.7002810 104.3672750 146.1603460  43.5403950 104.0775690 147.0585290
  43.5349520 103.5912880 145.6248690  36.1791190 104.1471280 147.9375080
  36.0033670 103.2306820 147.7242880  35.3246930 104.5058570 148.1772880
  43.4028940 101.8760310 144.7201460  42.7094100 101.8737600 144.0603740
  44.1451800 101.4519630 144.2895630  42.9678870 103.5023020 148.7949950
  43.4235820 102.7212400 149.1088570  43.3071390 104.2129840 149.3391130
  35.4900190  88.4045240 150.9901260  35.0468340  89.1854780 150.6585780
  36.0485180  88.7275130 151.6972200  38.6059010  88.0255940 145.8707090
  37.9813190  88.0215810 146.5960400  38.5189130  87.1586900 145.4743060
  35.2814410  93.5278810 148.7182510  35.0555330  93.3115980 149.6229130
  34.5006940  93.9607270 148.3728480  42.5112170  93.5342180 147.3173160
  41.9121060  94.2577980 147.1336780  43.0591780  93.4718960 146.5349610
  41.1177040  92.1705720 149.3476440  41.5106610  92.4877920 148.5345130
  41.4793890  91.2917600 149.4620960  30.3411440  92.7026640 142.7809360
  30.2586110  93.6457400 142.9224350  29.9894500  92.5601550 141.9021710
  33.9911950  91.3192160 150.8073920  33.6512000  91.7967390 151.5640970
  33.2289270  90.8657280 150.4475020  38.2029720  92.4377750 144.8386470
  38.3242540  92.3964230 145.7872290  37.8178230  93.3001900 144.6833200
  37.2151220  94.7478890 144.2369770  36.6468120  94.2997140 143.6105680
  37.9240220  95.1071670 143.7034920  31.3058030  90.2411140 149.7238590
  31.0204950  89.8766810 150.5617210  31.2436890  89.5091600 149.1101730
  34.7598700  98.7437080 146.5096180  33.9860960  98.2034700 146.3494900
  35.4893330  98.2243690 146.1713940  40.9796620  89.1340400 146.4451960
  40.1661230  88.6353570 146.3697270  40.7858570  89.9738650 146.0288310
  43.6945010  93.5060050 144.7414120  44.5824630  93.8177280 144.5665460
  43.6650100  92.6332300 144.3494700  34.8036100  98.4117460 150.1474990
  35.3214770  97.6085720 150.0931880  34.3520120  98.3496600 150.9891820
  39.6905600  99.6783740 145.4202290  40.0321300 100.4225970 144.9245610
  38.8618310  99.9914860 145.7827120  45.9659280  94.8171890 144.2093980
  45.8823000  95.2486110 143.3590420  46.6853470  95.2770240 144.6420800
  46.9946530 101.6714150 146.9376110  46.3522690 101.0169770 147.2119830
  46.6077190 102.0769240 146.1616780  42.5733010  98.9999580 150.7847800
  42.9256830  98.4027710 150.1249170  41.6895340  98.6743810 150.9556050
  38.6596290  99.7597270 148.1918210  39.3467420 100.3066480 148.5725800
  37.8728710 100.3038000 148.2267820  30.7988690  95.3770090 143.6835290
  31.6683540  95.6594890 143.9671210  30.3079010  96.1905960 143.5684100
  37.9623500  96.7643300 147.8043570  38.4186280  97.5748550 148.0303760
  37.6111710  96.4466440 148.6362060  33.8635280  87.1080950 148.2766090
  33.7349910  87.0998850 149.2251010  33.0397300  87.4464040 147.9257100
  45.3843910 100.5630610 143.4752460  45.1581490  99.8461050 144.0677100
  44.9940110 100.3143050 142.6374210  31.1659940 104.5897470 144.2496920
  31.5257580 105.1886810 143.5954190  31.0252280 105.1357360 145.0231950
  44.9660160  98.4802550 145.1366620  44.6781860  98.9415240 145.9244500
  45.7612330  98.0200320 145.4050840  37.1828560 101.9728670 145.0670590
  37.1738660 102.7058360 144.4515100  36.2626920 101.7260250 145.1597550
  32.7835200  97.1943560 145.8117350  32.1763150  97.9342460 145.8212650
  33.2584550  97.2842920 144.9855550  45.7230020  90.3151320 146.2961800
  45.0943180  90.4196990 145.5820030  45.2281940  90.5348100 147.0855680
  40.1688160 102.0356910 143.7295780  40.2700140 101.8320900 142.7997760
  39.2689900 101.7815190 143.9343560  37.6914050  92.5937270 147.7119680
  36.9830200  93.0623610 148.1533290  37.9758530  91.9359280 148.3464870
  41.7229480  89.3187930 149.1515470  41.5997260  89.3374060 148.2024980
  42.6714040  89.3666870 149.2713870  38.8106270 104.5543230 148.4243450
  39.0647770 104.5164620 147.5022820  37.8618750 104.4276560 148.4171700
  35.8949070  90.9022350 145.0870390  36.7439600  91.3392500 145.0210580
  35.5280340  91.2142610 145.9142450  44.8158850  95.4735110 150.0001960
  43.8748990  95.4885340 150.1749650  45.1302920  94.6871070 150.4462260
  34.7940490  97.1554710 143.5605920  35.5603760  97.0436070 144.1231350
  34.8715180  96.4592680 142.9082690  33.4887250  94.5879780 144.2438810
  33.5690840  93.6407290 144.3556210  34.3807000  94.9186660 144.3499470
  34.2901960 104.7375170 151.3473350  35.0264440 104.1890630 151.6181920
  34.6742880 105.6031180 151.2079340  31.1747440 100.8048740 147.2214860
  30.2487220 101.0469880 147.2120270  31.6403870 101.6323000 147.0999610
  37.4004270 103.9105480 143.1698920  38.1932880 104.1994310 142.7180710
  36.8808620 103.4797650 142.4911400  46.4534440 103.1375610 144.5935660
  46.1675950 102.7240750 143.7789840  46.2553990 104.0663320 144.4736180
  37.9181670  99.1308890 143.0341270  37.8132310  98.5161240 143.7602650
  37.7505890  98.6074780 142.2504280  41.1584400  98.1928920 143.6383260
  40.6094500  98.6398220 144.2826000  41.7803660  97.6878170 144.1620930
  36.8259520  97.1519840 145.5348560  37.2475940  96.9859710 146.3779950
  36.9510360  96.3420070 145.0403700  39.3387160  96.1757450 142.7825660
  39.8592820  95.4606470 142.4166810  39.9855560  96.8143320 143.0826170
  35.7218420  93.2253070 142.4806720  35.5207480  92.3620430 142.8420060
  35.5510470  93.1386430 141.5428320  43.2006730  88.0361300 145.0093600
  43.4809020  87.1929200 145.3653020  42.4272460  88.2684410 145.5232350
  34.5201220  90.3253690 142.4684600  34.8227120  90.3321120 141.5603750
  35.2595810  89.9751550 142.9652260  37.7386150  89.2688310 143.4540800
  37.3908150  88.5912300 142.8743250  37.9398920  88.8077820 144.2684190
  39.9035190 104.2569060 145.0727400  40.7985980 104.5954030 145.0946160
  39.9352820 103.5348470 144.4451680  33.5431350  99.6296110 143.3014400
  33.9806220 100.1725780 143.9571980  34.0279080  98.8043060 143.3110740
  30.7577150 102.4185140 150.7534660  31.0880160 101.5506200 150.5213300
  31.1868150 102.6243660 151.5839620  35.3539070 100.7494150 148.4136630
  35.0534610 100.6259120 149.3140540  35.2476560  99.8902740 148.0052360
  48.1230990 100.5290550 143.1163310  47.2923950 100.5967200 143.5870540
  48.3002820 101.4194670 142.8130170  47.5787450  97.2738030 145.6197510
  48.3406360  97.8434680 145.7257200  47.5941820  96.7065230 146.3905820
  31.0791790  95.7975960 149.8505170  30.4240630  95.5287600 149.2064870
  31.9169740  95.6880440 149.4007150  48.5847420  98.1288130 150.4639440
  48.9556250  97.3455450 150.0575410  49.2249350  98.8177230 150.2856740
  47.6306620  97.5672400 142.7770030  47.9055460  98.4751280 142.6489250
  47.4417360  97.5034930 143.7132020  44.0282230  90.5917250 144.0723660
  44.4467110  90.4048230 143.2320320  43.7218290  89.7396300 144.3826590
  47.5271960  95.5041390 147.7699460  47.1515560  94.7369320 147.3380750
  46.7975080  95.8864090 148.2574390  30.2929870  93.0074890 145.7930500
  29.3893950  93.2705090 145.6182160  30.7770490  93.2786060 145.0130460
  32.8357080  92.0640430 143.7024880  33.5448780  91.6423650 143.2172160
  32.1197020  92.1315660 143.0708230  32.4831240  88.1179760 142.7427530
  33.2059370  88.6588700 143.0608750  32.7555760  87.8443180 141.8669070
  46.2922890  92.9872230 147.0099110  46.7882010  92.7543100 147.7947990
  46.0938960  92.1484070 146.5936750  47.7210050  91.6233180 149.5436790
  47.6109330  91.4689220 150.4819060  48.4817640  91.0954120 149.3012200
  48.6100320  89.4541100 142.7842930  49.5349630  89.3222280 142.5761220
  48.5876110  89.5333920 143.7379380  48.6838810  90.2251760 145.4099640
  47.8890310  90.1596880 145.9392550  48.8882090  91.1602400 145.3984990
  45.6257230 104.2643310 149.4038030  46.2216300 103.9427880 148.7272450
  45.8835380 103.7915130 150.1951300  46.9797310  88.1863880 149.8707290
  46.9185710  87.2425100 149.7238310  47.7589340  88.2943970 150.4160750
  31.2850060 104.3256240 148.8331240  31.1172100 103.6926920 149.5313130
  30.4184570 104.5315640 148.4825430  31.9078080  88.1573020 146.3363100
  32.6657440  88.2701900 145.7627130  31.4455250  88.9942220 146.2906530
  38.4491890  90.2712290 149.3265410  37.6366400  89.8969180 148.9861290
  38.9533530  89.5157370 149.6286600  42.9516870  86.9354740 150.5648480
  43.5546240  87.5074950 151.0397000  42.2109860  87.4994180 150.3422380
  46.0951470  87.3376300 145.8388760  46.2902100  88.2359750 146.1056190
  45.3081340  87.1063380 146.3321710  32.8912760 103.0189470 146.2781380
  32.3660380 103.3997500 145.5743340  32.8157340 103.6440240 146.9991090
  34.2803230  88.6837070 144.8765070  34.8095990  87.8966870 144.7473020
  34.9131550  89.3628260 145.1100600  36.4741070  88.4212210 147.9310460
  35.8443810  87.7199520 148.0980590  35.9346210  89.1816340 147.7143620
  47.6478080 104.5777010 147.5995320  47.8230270 103.8914750 146.9556240
  46.9499650 105.1024060 147.2071990  35.4905730 104.9671850 145.1530630
  36.2224550 104.6831130 144.6054520  35.7499400 104.7285130 146.0430010
  34.6520520 101.0836580 145.1576960  34.0229400 101.5521680 145.7062790
  34.7668350 100.2385800 145.5923150  42.1070240  95.1342240 131.3078160
  42.0264290  94.2196850 131.0369870  41.6934660  95.6309310 130.6017870
  40.2388280  96.9121260 133.1887430  39.4630380  96.4321700 133.4786000
  40.8901210  96.2326910 133.0143590  34.2554110  97.2241070 134.0663190
  33.4238990  96.9689780 134.4659700  34.8635090  97.2951840 134.8021110
  44.2595710 101.3181450 131.9686560  43.7977240 100.5468690 132.2973730
  45.0721260 101.3447520 132.4739010  34.2355370 101.2581160 134.2621210
  34.5383410 100.3678900 134.0831430  34.9798960 101.8151380 134.0343460
  32.6646060  92.1842960 127.8505580  31.7762760  92.5258930 127.7485460
  32.9487250  91.9843280 126.9586410  30.6279070  94.7848610 133.7345280
  31.1995180  94.0170810 133.7348920  30.6280610  95.0837370 132.8251890
  40.4859020 103.6039460 131.5890550  39.8670460 104.0596960 131.0184990
  41.3410800 103.7590920 131.1880250  39.6797270  99.5878450 133.1957590
  39.6105550  98.6468390 133.0346720  40.4417130  99.6779860 133.7680160
  31.8703940  90.1932970 135.5214210  31.6906780  89.2958720 135.8016970
  31.4684020  90.7404840 136.1961160  40.7102440  92.3948830 133.4226520
  41.0867260  91.5220710 133.3100190  40.6121950  92.7307530 132.5316960
  34.8407450  90.7674460 128.8843960  34.9474200  91.6678190 129.1912720
  33.9299810  90.7192430 128.5938610  32.4890610  92.6893470 134.1296550
  33.1700720  92.9531840 134.7483950  32.1738660  91.8494340 134.4634560
  36.6815180  93.7360830 133.2169140  37.1893400  94.2341800 133.8574160
  37.2128420  92.9596030 133.0408500  48.7826110  91.9066020 136.9198490
  48.0778280  92.2947730 136.4013600  49.0484030  92.6016310 137.5219420
  34.9651280  88.3759390 137.4832560  34.9669720  88.8931780 136.6778460
  34.1355590  87.8989570 137.4602490  36.2154130  98.0154570 135.6606060
  35.8823510  98.6423490 136.3027130  36.3920810  98.5416450 134.8807730
  34.6466610  90.0869350 135.4903010  34.9883420  90.9311400 135.1956880
  33.7082420  90.2353090 135.6068350  35.4273230  99.9835370 137.4755240
  36.0447230 100.6586450 137.1939690  34.5666350 100.3923350 137.3842740
  30.7205570  99.1735230 126.3562090  30.3433550  99.6622330 125.6246990
  30.9778640  99.8460510 126.9868620  46.3450820 101.4474780 135.3909880
  45.6614340 102.1173890 135.3826550  46.8845110 101.6455430 134.6254740
  38.3294500  87.5751620 131.8147600  38.6369480  87.0198510 131.0983100
  37.3995200  87.7096080 131.6320590  43.8809560 103.2918910 134.1055060
  43.8936720 102.8881200 133.2377320  43.3284780 104.0666200 134.0016490
  43.2795000  98.1948750 135.4337670  43.6963790  97.9808860 134.5991130
  44.0034820  98.4521540 136.0046290  47.2257100  96.5935970 135.5253910
  46.3975730  96.6629060 135.0504040  47.8207580  97.1790280 135.0569740
  44.7472550  97.2020750 129.0542970  44.1284970  96.8640300 128.4069270
  44.7297000  96.5580510 129.7622160  44.1899110  93.3805290 136.4708780
  43.7770290  94.2059000 136.7248770  43.4575060  92.7950330 136.2785140
  36.3231900  96.1665190 131.3327450  35.9188900  95.4542440 130.8373350
  36.4095020  95.8218430 132.2215490  36.7913600  99.8532750 133.4966660
  36.4941890  99.2478220 132.8174440  37.7413420  99.8910060 133.3856020
  35.0360520  92.9408400 135.1126490  35.5875110  93.0503740 134.3379740
  35.5504030  93.3146000 135.8281720  44.8799210 103.4264620 137.1589760
  44.4029770 104.2336810 136.9662370  44.1961000 102.7742950 137.3115970
  35.8832030  99.5914440 140.1474460  34.9860560  99.8154410 140.3947860
  35.9084900  99.7149380 139.1985860  34.7103250  96.4627760 138.7231830
  34.5711020  97.3350560 139.0919230  33.8284610  96.1200570 138.5779770
  36.5083600 102.4049460 140.9316980  36.4799030 102.8092410 140.0645410
  36.3448570 101.4759820 140.7688580  33.0236530  95.0610170 128.8334100
  32.9034130  95.7872260 128.2215370  32.7137420  94.2913080 128.3562010
  48.4598420 103.1876560 142.2281150  48.9358140 103.6659450 142.9070230
  49.0805580 103.1194050 141.5026650  30.6621900  98.2325310 134.6402740
  30.7402320  98.3674080 133.6958460  31.2763580  97.5241200 134.8330860
  31.9069530  99.9325500 131.0508920  31.4997610 100.0740090 130.1962520
  32.7982540  99.6485660 130.8480130  47.8631670 100.3789410 139.3881160
  47.9894730 100.1401290 138.4698340  47.9053050  99.5473950 139.8603240
  41.7248410 104.0817410 137.9575970  42.2393080 103.9925420 138.7598400
  40.8817490 104.4277110 138.2503880  43.7002810 104.3672750 127.3859970
  43.5403950 104.0775690 128.2841800  43.5349520 103.5912880 126.8505200
  36.1791190 104.1471280 129.1631590  36.0033670 103.2306820 128.9499390
  35.3246930 104.5058570 129.4029390  42.9678870 103.5023020 130.0206460
  43.4235820 102.7212400 130.3345080  43.3071390 104.2129840 130.5647640
  47.7155680  92.4321870 140.3530900  47.0999950  92.9401540 139.8246360
  47.3952100  91.5320200 140.2956840  30.7181420  99.2739480 137.1797200
  30.8812460  98.8044840 136.3616570  31.1833870  98.7663040 137.8446040
  35.4900190  88.4045240 132.2157770  35.0468340  89.1854780 131.8842290
  36.0485180  88.7275130 132.9228710  39.7770000  91.2713760 137.8193090
  39.3149370  91.4796780 138.6313030  39.3748110  90.4573110 137.5163760
  44.7774510  92.4922710 138.9489750  43.9268100  92.1928460 139.2698820
  44.6176300  92.7364720 138.0373570  41.8724220  93.9924460 141.0488540
  42.1977630  93.1588210 140.7090770  42.6604550  94.5152980 141.1966870
  37.5276090  88.9492570 134.0747370  37.8248420  89.8555400 133.9939390
  38.0761650  88.4611350 133.4606940  35.2814410  93.5278810 129.9439020
  35.0555330  93.3115980 130.8485640  34.5006940  93.9607270 129.5984990
  42.5112170  93.5342180 128.5429670  41.9121060  94.2577980 128.3593290
  43.0591780  93.4718960 127.7606120  37.7213620  94.4264390 140.6099290
  37.6257220  93.4859120 140.4599690  38.5645600  94.6479460 140.2147360
  41.1177040  92.1705720 130.5732950  41.5106610  92.4877920 129.7601640
  41.4793890  91.2917600 130.6877470  32.8524160  90.8378060 138.7633070
  32.4587550  91.6853270 138.9705850  32.1642560  90.2004430 138.9541710
  39.4269210  90.9213030 141.8329810  38.7367530  90.7285230 142.4675900
  40.1701510  91.2047670 142.3654110  30.1541210  88.7606520 132.7963150
  29.8654260  89.3309380 133.5088130  30.8986970  88.2810970 133.1594380
  30.3411440  92.7026640 124.0065870  30.2586110  93.6457400 124.1480860
  29.9894500  92.5601550 123.1278220  41.7032180  94.7611470 134.6683730
  40.9713300  95.2698280 135.0173830  41.3056520  93.9441450 134.3672510
  38.1409570  91.4365670 133.0736220  38.1445630  90.9955620 132.2240760
  39.0360690  91.7583000 133.1808040  33.9911950  91.3192160 132.0330430
  33.6512000  91.7967390 132.7897480  33.2289270  90.8657280 131.6731530
  38.2029720  92.4377750 126.0642980  38.3242540  92.3964230 127.0128800
  37.8178230  93.3001900 125.9089710  42.1658090  90.2145150 134.0806670
  42.1830830  90.6653800 134.9248520  41.9173670  89.3150790 134.2940110
  37.2151220  94.7478890 125.4626280  36.6468120  94.2997140 124.8362190
  37.9240220  95.1071670 124.9291430  45.5928840  87.6277330 139.9193050
  45.9174610  86.8966990 140.4451030  45.6285350  87.3090970 139.0174040
  32.2920400  98.6490910 139.3393010  31.9075190  98.0084580 139.9375970
  32.6032590  99.3527030 139.9087740  38.4417540  95.4967450 134.8201630
  38.8087670  95.0226020 135.5662970  38.2522600  96.3709020 135.1609970
  31.3058030  90.2411140 130.9495100  31.0204950  89.8766810 131.7873720
  31.2436890  89.5091600 130.3358240  36.2316910  94.5376090 137.1385840
  35.9273980  95.4168070 137.3636200  37.1863370  94.5975880 137.1743280
  34.7598700  98.7437080 127.7352690  33.9860960  98.2034700 127.5751410
  35.4893330  98.2243690 127.3970450  45.5186680  97.7402440 133.5279080
  46.2385800  98.2357730 133.1375190  45.3168500  97.0620330 132.8832950
  40.9005480  97.8111500 139.4148080  40.8342790  96.8907170 139.1605670
  40.2710620  97.9086940 140.1292720  34.8036100  98.4117460 131.3731500
  35.3214770  97.6085720 131.3188390  34.3520120  98.3496600 132.2148330
  32.2880640  95.3778830 138.2857200  31.9295580  96.0432680 138.8730540
  31.9935200  94.5462380 138.6569820  35.4893760  95.8363070 141.1696750
  35.1893900  95.9820250 140.2724570  36.2605000  95.2768360 141.0770140
  40.8322210 100.6332070 139.1651880  40.8466750  99.7013030 138.9470790
  40.1247310 100.7191830 139.8041650  45.9659280  94.8171890 125.4350490
  45.8823000  95.2486110 124.5846930  46.6853470  95.2770240 125.8677310
  47.0433420  97.2739410 138.5120460  46.3181610  97.8668190 138.3149850
  47.5708880  97.2662950 137.7133830  46.9946530 101.6714150 128.1632620
  46.3522690 101.0169770 128.4376340  46.6077190 102.0769240 127.3873290
  42.5733010  98.9999580 132.0104310  42.9256830  98.4027710 131.3505680
  41.6895340  98.6743810 132.1812560  30.7988690  95.3770090 124.9091800
  31.6683540  95.6594890 125.1927720  30.3079010  96.1905960 124.7940610
  37.9623500  96.7643300 129.0300080  38.4186280  97.5748550 129.2560270
  37.6111710  96.4466440 129.8618570  40.2656110 102.2749640 136.2592380
  40.9098330 102.4809020 136.9365800  40.6285550 101.5138040 135.8063230
  33.8635280  87.1080950 129.5022600  33.7349910  87.0998850 130.4507520
  33.0397300  87.4464040 129.1513610  41.5388190 100.2781990 134.9769830
  42.1810420  99.5775150 135.0902000  42.0637540 101.0580430 134.7966720
  43.3125810 101.0776890 138.1805890  43.6482050 101.6643580 138.8583810
  42.3926150 100.9469600 138.4103680  31.1659940 104.5897470 125.4753430
  31.5257580 105.1886810 124.8210700  31.0252280 105.1357360 126.2488460
  30.8629210  88.8672070 138.9629300  30.1487730  89.0668990 139.5681910
  31.2824250  88.0911640 139.3344100  31.1501800 102.8552330 139.9495830
  31.2592920 101.9147070 139.8091220  30.4982360 103.1207080 139.3009560
  39.1414390 101.1268220 141.3493950  38.8211260 100.4077460 141.8939640
  38.4672750 101.8023290 141.4230010  37.1828560 101.9728670 126.2927100
  37.1738660 102.7058360 125.6771610  36.2626920 101.7260250 126.3854060
  32.7835200  97.1943560 127.0373860  32.1763150  97.9342460 127.0469160
  33.2584550  97.2842920 126.2112060  42.3567990  91.3594380 136.7130750
  42.7248810  90.5389590 137.0410320  41.4966190  91.4196270 137.1286400
  40.1688160 102.0356910 124.9552290  40.2700140 101.8320900 124.0254270
  39.2689900 101.7815190 125.1600070  37.6914050  92.5937270 128.9376190
  36.9830200  93.0623610 129.3789800  37.9758530  91.9359280 129.5721380
  39.3169980  94.0133970 136.9368720  39.8155230  94.4879790 137.6020570
  39.4592930  93.0897490 137.1438750  38.8106270 104.5543230 129.6499960
  39.0647770 104.5164620 128.7279330  37.8618750 104.4276560 129.6428210
  35.8949070  90.9022350 126.3126900  36.7439600  91.3392500 126.2467090
  35.5280340  91.2142610 127.1398960  46.5236840  90.2301930 137.7797110
  46.0210440  90.9707330 138.1190920  47.3393500  90.6185930 137.4633900
  44.8158850  95.4735110 131.2258470  43.8748990  95.4885340 131.4006160
  45.1302920  94.6871070 131.6718770  34.7940490  97.1554710 124.7862430
  35.5603760  97.0436070 125.3487860  34.8715180  96.4592680 124.1339200
  33.4887250  94.5879780 125.4695320  33.5690840  93.6407290 125.5812720
  34.3807000  94.9186660 125.5755980  46.8184430 102.6443960 132.9012730
  46.9431850 103.4675130 133.3736540  47.6849990 102.4334690 132.5536880
  34.2901960 104.7375170 132.5729860  35.0264440 104.1890630 132.8438430
  34.6742880 105.6031180 132.4335850  31.1747440 100.8048740 128.4471370
  30.2487220 101.0469880 128.4376780  31.6403870 101.6323000 128.3256120
  33.2960240 103.9221240 141.7615440  34.0972970 104.2433290 142.1750840
  32.7812060 103.5616820 142.4835350  37.4004270 103.9105480 124.3955430
  38.1932880 104.1994310 123.9437220  36.8808620 103.4797650 123.7167910
  42.1324870 100.0301110 141.7090850  41.5263030 100.0532710 140.9686600
  41.8278980  99.2984150 142.2458100  43.5625240 103.7581400 140.3200260
  44.5146990 103.6739420 140.2700500  43.4153460 104.4223110 140.9934050
  46.4534440 103.1375610 125.8192170  46.1675950 102.7240750 125.0046350
  46.2553990 104.0663320 125.6992690  31.0158050  96.4094700 140.7051490
  31.5197070  95.8301980 141.2767720  30.2765470  96.6934930 141.2427860
  38.0695990  97.8165690 140.2387010  37.3041660  98.3850690 140.1541680
  38.2511950  97.5241900 139.3455240  45.2119340  99.5471020 140.7962030
  45.9528810  99.8846780 140.2929490  44.4492020  99.7163080 140.2431800
  33.0481130  94.5524290 141.6001560  33.0886470  94.2538160 142.5086790
  33.9026630  94.9531900 141.4409080  34.9886940  93.1316390 139.5676050
  34.4583400  92.6407340 138.9399390  35.6575010  93.5600590 139.0333980
  43.8865000  97.5985850 139.3317240  44.3006020  97.7530930 140.1807660
  42.9516000  97.7241070 139.4943020  44.3587170  94.9382010 141.3356390
  44.9407940  94.1834330 141.2476870  44.5348940  95.4689450 140.5587870
  35.4759240  90.0978760 139.6473340  35.3816110  89.4799510 138.9224210
  34.8956630  90.8245050 139.4203250  38.2420680  88.6552000 136.6800730
  37.7937980  88.6776260 135.8346280  37.6085880  88.2571020 137.2771030
  38.6480230  97.5506330 137.3013170  39.0668340  98.3939060 137.1289410
  37.7288860  97.6878370 137.0719950  40.9844130  95.2822510 138.6851010
  41.1040340  94.6863650 139.4245850  41.8438130  95.3192200 138.2652310
  43.3232030  95.8359700 137.2613520  42.7967250  96.3602320 136.6578660
  43.6663370  96.4687090 137.8923250  35.7218420  93.2253070 123.7063230
  35.5207480  92.3620430 124.0676570  35.5510470  93.1386430 122.7684830
  36.4987650 103.8559340 138.4170900  35.9608740 104.5805400 138.0979600
  36.7521610 103.3789680 137.6268240  37.7512900  91.8243860 139.9426830
  38.3412590  91.5159710 140.6304650  36.9333140  91.3523610 140.0986730
  42.5706330  91.4409670 140.1759850  41.8821850  90.7791210 140.1109840
  43.2912350  90.9947940 140.6208310  34.5201220  90.3253690 123.6941110
  34.8227120  90.3321120 122.7860260  35.2595810  89.9751550 124.1908770
  39.3549860 105.0910550 138.6757550  39.2808560 105.9945690 138.9829920
  38.4528700 104.7722450 138.6479620  37.7386150  89.2688310 124.6797310
  37.3908150  88.5912300 124.0999760  37.9398920  88.8077820 125.4940700
  39.9035190 104.2569060 126.2983910  40.7985980 104.5954030 126.3202670
  39.9352820 103.5348470 125.6708190  33.5431350  99.6296110 124.5270910
  33.9806220 100.1725780 125.1828490  34.0279080  98.8043060 124.5367250
  30.7577150 102.4185140 131.9791170  31.0880160 101.5506200 131.7469810
  31.1868150 102.6243660 132.8096130  35.3539070 100.7494150 129.6393140
  35.0534610 100.6259120 130.5397050  35.2476560  99.8902740 129.2308870
  31.2467360 103.2855730 134.7172800  30.8098350 103.4656530 135.5496950
  31.8145040 104.0430350 134.5754520  46.8829540 102.7872730 139.0050110
  46.2831530 102.8465290 138.2614030  47.0123440 101.8477710 139.1346960
  48.1230990 100.5290550 124.3419820  47.2923950 100.5967200 124.8127050
  48.3002820 101.4194670 124.0386680  47.5787450  97.2738030 126.8454020
  48.3406360  97.8434680 126.9513710  47.5941820  96.7065230 127.6162330
  31.0791790  95.7975960 131.0761680  30.4240630  95.5287600 130.4321380
  31.9169740  95.6880440 130.6263660  48.5847420  98.1288130 131.6895950
  48.9556250  97.3455450 131.2831920  49.2249350  98.8177230 131.5113250
  45.5681180  99.5124710 137.1026270  44.7541020  99.9421870 137.3652060
  45.9755380 100.1243120 136.4895320  47.6306620  97.5672400 124.0026540
  47.9055460  98.4751280 123.8745760  47.4417360  97.5034930 124.9388530
  47.5271960  95.5041390 128.9955970  47.1515560  94.7369320 128.5637260
  46.7975080  95.8864090 129.4830900  32.1167720  96.1828530 135.6165020
  32.4840760  96.0955930 136.4961040  31.5478540  95.4195080 135.5171880
  46.9171580  94.6512910 138.6295490  46.6857670  94.4225660 137.7293440
  47.1776130  95.5712460 138.5840380  31.6683720  93.0937620 139.5223440
  30.7739770  93.0604380 139.8617150  32.2081270  93.2924410 140.2874690
  45.3559650  89.8769340 141.4075190  46.2329830  89.8852740 141.7909190
  45.3680490  89.1400180 140.7967540  30.2929870  93.0074890 127.0187010
  29.3893950  93.2705090 126.8438670  30.7770490  93.2786060 126.2386970
  46.9812640  93.8138750 135.8182760  46.0315350  93.7802290 135.9327750
  47.1625650  94.7238860 135.5832530  32.8357080  92.0640430 124.9281390
  33.5448780  91.6423650 124.4428670  32.1197020  92.1315660 124.2964740
  32.4831240  88.1179760 123.9684040  33.2059370  88.6588700 124.2865260
  32.7555760  87.8443180 123.0925580  32.1723430  87.3685950 133.8706660
  32.8199620  86.8183330 133.4301820  32.5925270  87.6229100 134.6922470
  46.0675770  87.5627310 137.2276300  46.7047990  88.1761450 137.5935490
  46.2150660  87.5987970 136.2825530  45.6257230 104.2643310 130.6294540
  46.2216300 103.9427880 129.9528960  45.8835380 103.7915130 131.4207810
  31.9255430  87.5241620 136.6131980  31.5770250  87.9805440 137.3790160
  31.5943130  86.6298750 136.6954410  33.5319800 100.6961220 140.7785170
  33.4889430 100.3254130 141.6599630  33.6630810 101.6338790 140.9186990
  37.2325830 102.2520810 136.3794890  36.9917190 102.5195370 135.4925410
  38.1728470 102.4226540 136.4345750  39.4380250  88.7153500 140.1351400
  39.3769140  89.3075330 140.8846810  40.3780630  88.6079460 139.9901660
  42.0754810  88.3723560 139.7743690  42.6895220  88.6902850 139.1124770
  42.6204370  87.8872150 140.3939550  48.4929990 104.2715190 137.1805530
  47.9988270 104.6684060 136.4632660  47.8843280 103.6464400 137.5742810
  32.5976070  87.0517820 139.8882750  33.1459060  86.8705870 139.1248860
  32.6631380  86.2611930 140.4239060  33.3707830 103.6423470 137.8982950
  32.7768150 103.5108170 138.6372990  33.3631670 102.8061610 137.4325050
  42.8162850  86.9355700 136.1012980  41.9422690  87.2690810 135.8985910
  42.7073600  86.4628880 136.9264850  43.7234830  89.1426570 137.4854700
  43.3948190  88.3278330 137.1056430  44.6717130  89.0996380 137.3620390
  46.1769440 104.9138610 134.4592270  45.7172410 105.6654420 134.0850290
  45.5481900 104.1945080 134.4007070  33.0020060 101.0081850 136.8490990
  32.2754120 100.3887140 136.7816940  33.0629210 101.4022460 135.9789070
  36.6065160 103.2226850 133.6340400  37.1230180 102.6114210 133.1088660
  37.2562540 103.7255630 134.1251410  39.3460660 104.1135340 134.4609380
  39.6338470 103.8589640 133.5842390  39.8583880 103.5612700 135.0514950
  40.5637670  87.8525540 135.0405890  39.7809460  88.3271040 135.3202650
  40.2700600  86.9480370 134.9319070  31.2850060 104.3256240 130.0587750
  31.1172100 103.6926920 130.7569640  30.4184570 104.5315640 129.7081940
  31.9078080  88.1573020 127.5619610  32.6657440  88.2701900 126.9883640
  31.4455250  88.9942220 127.5163040  38.4491890  90.2712290 130.5521920
  37.6366400  89.8969180 130.2117800  38.9533530  89.5157370 130.8543110
  42.9516870  86.9354740 131.7904990  43.5546240  87.5074950 132.2653510
  42.2109860  87.4994180 131.5678890  32.8912760 103.0189470 127.5037890
  32.3660380 103.3997500 126.7999850  32.8157340 103.6440240 128.2247600
  34.2803230  88.6837070 126.1021580  34.8095990  87.8966870 125.9729530
  34.9131550  89.3628260 126.3357110  36.4741070  88.4212210 129.1566970
  35.8443810  87.7199520 129.3237100  35.9346210  89.1816340 128.9400130
  39.4133020 105.0351440 141.8277580  40.3400330 104.7995710 141.8713540
  39.3983450 105.8623440 141.3463610  47.6478080 104.5777010 128.8251830
  47.8230270 103.8914750 128.1812750  46.9499650 105.1024060 128.4328500
  36.5996630  87.6996190 141.5919460  36.3180900  88.2029790 140.8280280
  36.9816330  86.9017940 141.2261590  35.4905730 104.9671850 126.3787140
  36.2224550 104.6831130 125.8311030  35.7499400 104.7285130 127.2686520
  34.6520520 101.0836580 126.3833470  34.0229400 101.5521680 126.9319300
  34.7668350 100.2385800 126.8179660  43.2012090  87.1149770 142.1699930
  43.0877540  87.4344380 143.0651450  44.0181830  87.5162280 141.8737210
  45.9810580 104.2621300 141.6518620  46.7735900 103.7670530 141.4444580
  46.2743730 104.9411440 142.2594230  40.2388280  96.9121260 114.4143940
  39.4630380  96.4321700 114.7042510  40.8901210  96.2326910 114.2400100
  34.2355370 101.2581160 115.4877720  34.5383410 100.3678900 115.3087940
  34.9798960 101.8151380 115.2599970  40.4859020 103.6039460 112.8147060
  39.8670460 104.0596960 112.2441500  41.3410800 103.7590920 112.4136760
  39.6797270  99.5878450 114.4214100  39.6105550  98.6468390 114.2603230
  40.4417130  99.6779860 114.9936670  34.8407450  90.7674460 110.1100470
  34.9474200  91.6678190 110.4169230  33.9299810  90.7192430 109.8195120
  36.6815180  93.7360830 114.4425650  37.1893400  94.2341800 115.0830670
  37.2128420  92.9596030 114.2665010  48.7826110  91.9066020 118.1455000
  48.0778280  92.2947730 117.6270110  49.0484030  92.6016310 118.7475930
  34.9651280  88.3759390 118.7089070  34.9669720  88.8931780 117.9034970
  34.1355590  87.8989570 118.6859000  36.2154130  98.0154570 116.8862570
  35.8823510  98.6423490 117.5283640  36.3920810  98.5416450 116.1064240
  44.7288040  91.8299650 114.3538910  44.0243610  92.1184540 114.9342020
  45.0900200  92.6399760 113.9938470  35.4273230  99.9835370 118.7011750
  36.0447230 100.6586450 118.4196200  34.5666350 100.3923350 118.6099250
  45.1754980 100.0135130 110.4201740  45.0651310  99.0709460 110.5451160
  45.1723230 100.3750770 111.3064500  44.1899110  93.3805290 117.6965290
  43.7770290  94.2059000 117.9505280  43.4575060  92.7950330 117.5041650
  36.7913600  99.8532750 114.7223170  36.4941890  99.2478220 114.0430950
  37.7413420  99.8910060 114.6112530  35.8832030  99.5914440 121.3730970
  34.9860560  99.8154410 121.6204370  35.9084900  99.7149380 120.4242370
  36.5083600 102.4049460 122.1573490  36.4799030 102.8092410 121.2901920
  36.3448570 101.4759820 121.9945090  48.4598420 103.1876560 123.4537660
  48.9358140 103.6659450 124.1326740  49.0805580 103.1194050 122.7283160
  36.1791190 104.1471280 110.3888100  36.0033670 103.2306820 110.1755900
  35.3246930 104.5058570 110.6285900  47.7155680  92.4321870 121.5787410
  47.0999950  92.9401540 121.0502870  47.3952100  91.5320200 121.5213350
  39.7770000  91.2713760 119.0449600  39.3149370  91.4796780 119.8569540
  39.3748110  90.4573110 118.7420270  44.7774510  92.4922710 120.1746260
  43.9268100  92.1928460 120.4955330  44.6176300  92.7364720 119.2630080
  41.8724220  93.9924460 122.2745050  42.1977630  93.1588210 121.9347280
  42.6604550  94.5152980 122.4223380  37.5276090  88.9492570 115.3003880
  37.8248420  89.8555400 115.2195900  38.0761650  88.4611350 114.6863450
  37.7213620  94.4264390 121.8355800  37.6257220  93.4859120 121.6856200
  38.5645600  94.6479460 121.4403870  32.8524160  90.8378060 119.9889580
  32.4587550  91.6853270 120.1962360  32.1642560  90.2004430 120.1798220
  39.4269210  90.9213030 123.0586320  38.7367530  90.7285230 123.6932410
  40.1701510  91.2047670 123.5910620  30.3411440  92.7026640 105.2322380
  30.2586110  93.6457400 105.3737370  29.9894500  92.5601550 104.3534730
  41.7032180  94.7611470 115.8940240  40.9713300  95.2698280 116.2430340
  41.3056520  93.9441450 115.5929020  45.5928840  87.6277330 121.1449560
  45.9174610  86.8966990 121.6707540  45.6285350  87.3090970 120.2430550
  38.4417540  95.4967450 116.0458140  38.8087670  95.0226020 116.7919480
  38.2522600  96.3709020 116.3866480  46.9946530 101.6714150 109.3889130
  46.3522690 101.0169770 109.6632850  46.6077190 102.0769240 108.6129800
  42.5733010  98.9999580 113.2360820  42.9256830  98.4027710 112.5762190
  41.6895340  98.6743810 113.4069070  38.6596290  99.7597270 110.6431230
  39.3467420 100.3066480 111.0238820  37.8728710 100.3038000 110.6780840
  37.9623500  96.7643300 110.2556590  38.4186280  97.5748550 110.4816780
  37.6111710  96.4466440 111.0875080  31.1659940 104.5897470 106.7009940
  31.5257580 105.1886810 106.0467210  31.0252280 105.1357360 107.4744970
  30.8629210  88.8672070 120.1885810  30.1487730  89.0668990 120.7938420
  31.2824250  88.0911640 120.5600610  31.1501800 102.8552330 121.1752340
  31.2592920 101.9147070 121.0347730  30.4982360 103.1207080 120.5266070
  39.1414390 101.1268220 122.5750460  38.8211260 100.4077460 123.1196150
  38.4672750 101.8023290 122.6486520  37.1828560 101.9728670 107.5183610
  37.1738660 102.7058360 106.9028120  36.2626920 101.7260250 107.6110570
  42.3567990  91.3594380 117.9387260  42.7248810  90.5389590 118.2666830
  41.4966190  91.4196270 118.3542910  39.3169980  94.0133970 118.1625230
  39.8155230  94.4879790 118.8277080  39.4592930  93.0897490 118.3695260
  38.8106270 104.5543230 110.8756470  39.0647770 104.5164620 109.9535840
  37.8618750 104.4276560 110.8684720  35.8949070  90.9022350 107.5383410
  36.7439600  91.3392500 107.4723600  35.5280340  91.2142610 108.3655470
  46.5236840  90.2301930 119.0053620  46.0210440  90.9707330 119.3447430
  47.3393500  90.6185930 118.6890410  34.2901960 104.7375170 113.7986370
  35.0264440 104.1890630 114.0694940  34.6742880 105.6031180 113.6592360
  33.2960240 103.9221240 122.9871950  34.0972970 104.2433290 123.4007350
  32.7812060 103.5616820 123.7091860  38.0695990  97.8165690 121.4643520
  37.3041660  98.3850690 121.3798190  38.2511950  97.5241900 120.5711750
  44.3587170  94.9382010 122.5612900  44.9407940  94.1834330 122.4733380
  44.5348940  95.4689450 121.7844380  35.4759240  90.0978760 120.8729850
  35.3816110  89.4799510 120.1480720  34.8956630  90.8245050 120.6459760
  38.2420680  88.6552000 117.9057240  37.7937980  88.6776260 117.0602790
  37.6085880  88.2571020 118.5027540  38.6480230  97.5506330 118.5269680
  39.0668340  98.3939060 118.3545920  37.7288860  97.6878370 118.2976460
  40.9844130  95.2822510 119.9107520  41.1040340  94.6863650 120.6502360
  41.8438130  95.3192200 119.4908820  43.3232030  95.8359700 118.4870030
  42.7967250  96.3602320 117.8835170  43.6663370  96.4687090 119.1179760
  36.4987650 103.8559340 119.6427410  35.9608740 104.5805400 119.3236110
  36.7521610 103.3789680 118.8524750  37.7512900  91.8243860 121.1683340
  38.3412590  91.5159710 121.8561160  36.9333140  91.3523610 121.3243240
  42.5706330  91.4409670 121.4016360  41.8821850  90.7791210 121.3366350
  43.2912350  90.9947940 121.8464820  34.5201220  90.3253690 104.9197620
  34.8227120  90.3321120 104.0116770  35.2595810  89.9751550 105.4165280
  37.7386150  89.2688310 105.9053820  37.3908150  88.5912300 105.3256270
  37.9398920  88.8077820 106.7197210  35.3539070 100.7494150 110.8649650
  35.0534610 100.6259120 111.7653560  35.2476560  99.8902740 110.4565380
  46.9171580  94.6512910 119.8552000  46.6857670  94.4225660 118.9549950
  47.1776130  95.5712460 119.8096890  45.3559650  89.8769340 122.6331700
  46.2329830  89.8852740 123.0165700  45.3680490  89.1400180 122.0224050
  30.2929870  93.0074890 108.2443520  29.3893950  93.2705090 108.0695180
  30.7770490  93.2786060 107.4643480  46.8022920  93.7298880 113.5219720
  47.3260400  93.2361530 112.8909890  47.3882340  93.8649240 114.2667290
  46.9812640  93.8138750 117.0439270  46.0315350  93.7802290 117.1584260
  47.1625650  94.7238860 116.8089040  32.8357080  92.0640430 106.1537900
  33.5448780  91.6423650 105.6685180  32.1197020  92.1315660 105.5221250
  32.4831240  88.1179760 105.1940550  33.2059370  88.6588700 105.5121770
  32.7555760  87.8443180 104.3182090  46.0675770  87.5627310 118.4532810
  46.7047990  88.1761450 118.8192000  46.2150660  87.5987970 117.5082040
  45.6257230 104.2643310 111.8551050  46.2216300 103.9427880 111.1785470
  45.8835380 103.7915130 112.6464320  33.5319800 100.6961220 122.0041680
  33.4889430 100.3254130 122.8856140  33.6630810 101.6338790 122.1443500
  37.2325830 102.2520810 117.6051400  36.9917190 102.5195370 116.7181920
  38.1728470 102.4226540 117.6602260  39.4380250  88.7153500 121.3607910
  39.3769140  89.3075330 122.1103320  40.3780630  88.6079460 121.2158170
  42.0754810  88.3723560 121.0000200  42.6895220  88.6902850 120.3381280
  42.6204370  87.8872150 121.6196060  32.5976070  87.0517820 121.1139260
  33.1459060  86.8705870 120.3505370  32.6631380  86.2611930 121.6495570
  33.3707830 103.6423470 119.1239460  32.7768150 103.5108170 119.8629500
  33.3631670 102.8061610 118.6581560  42.8162850  86.9355700 117.3269490
  41.9422690  87.2690810 117.1242420  42.7073600  86.4628880 118.1521360
  43.7234830  89.1426570 118.7111210  43.3948190  88.3278330 118.3312940
  44.6717130  89.0996380 118.5876900  36.6065160 103.2226850 114.8596910
  37.1230180 102.6114210 114.3345170  37.2562540 103.7255630 115.3507920
  39.3460660 104.1135340 115.6865890  39.6338470 103.8589640 114.8098900
  39.8583880 103.5612700 116.2771460  31.2850060 104.3256240 111.2844260
  31.1172100 103.6926920 111.9826150  30.4184570 104.5315640 110.9338450
  32.8912760 103.0189470 108.7294400  32.3660380 103.3997500 108.0256360
  32.8157340 103.6440240 109.4504110  34.2803230  88.6837070 107.3278090
  34.8095990  87.8966870 107.1986040  34.9131550  89.3628260 107.5613620
  36.4741070  88.4212210 110.3823480  35.8443810  87.7199520 110.5493610
  35.9346210  89.1816340 110.1656640  36.5996630  87.6996190 122.8175970
  36.3180900  88.2029790 122.0536790  36.9816330  86.9017940 122.4518100
  35.4905730 104.9671850 107.6043650  36.2224550 104.6831130 107.0567540
  35.7499400 104.7285130 108.4943030  40.2388280  96.9121260  95.6400450
  39.4630380  96.4321700  95.9299020  40.8901210  96.2326910  95.4656610
  34.2554110  97.2241070  96.5176210  33.4238990  96.9689780  96.9172720
  34.8635090  97.2951840  97.2534130  44.2595710 101.3181450  94.4199580
  43.7977240 100.5468690  94.7486750  45.0721260 101.3447520  94.9252030
  34.2355370 101.2581160  96.7134230  34.5383410 100.3678900  96.5344450
  34.9798960 101.8151380  96.4856480  40.4859020 103.6039460  94.0403570
  39.8670460 104.0596960  93.4698010  41.3410800 103.7590920  93.6393270
  39.6797270  99.5878450  95.6470610  39.6105550  98.6468390  95.4859740
  40.4417130  99.6779860  96.2193180  40.7102440  92.3948830  95.8739540
  41.0867260  91.5220710  95.7613210  40.6121950  92.7307530  94.9829980
  34.8407450  90.7674460  91.3356980  34.9474200  91.6678190  91.6425740
  33.9299810  90.7192430  91.0451630  36.6815180  93.7360830  95.6682160
  37.1893400  94.2341800  96.3087180  37.2128420  92.9596030  95.4921520
  48.7826110  91.9066020  99.3711510  48.0778280  92.2947730  98.8526620
  49.0484030  92.6016310  99.9732440  41.3522370  98.4878700  91.4335480
  40.7339640  98.9528150  90.8698200  41.8645620  99.1806180  91.8504990
  36.2154130  98.0154570  98.1119080  35.8823510  98.6423490  98.7540150
  36.3920810  98.5416450  97.3320750  44.7288040  91.8299650  95.5795420
  44.0243610  92.1184540  96.1598530  45.0900200  92.6399760  95.2194980
  35.4273230  99.9835370  99.9268260  36.0447230 100.6586450  99.6452710
  34.5666350 100.3923350  99.8355760  46.3450820 101.4474780  97.8422900
  45.6614340 102.1173890  97.8339570  46.8845110 101.6455430  97.0767760
  47.7974960  91.2754440  95.9704630  46.8499870  91.3093420  96.1020060
  48.1224950  92.0893390  96.3553990  38.3294500  87.5751620  94.2660620
  38.6369480  87.0198510  93.5496120  37.3995200  87.7096080  94.0833610
  45.1754980 100.0135130  91.6458250  45.0651310  99.0709460  91.7707670
  45.1723230 100.3750770  92.5321010  44.7472550  97.2020750  91.5055990
  44.1284970  96.8640300  90.8582290  44.7297000  96.5580510  92.2135180
  36.3231900  96.1665190  93.7840470  35.9188900  95.4542440  93.2886370
  36.4095020  95.8218430  94.6728510  36.7913600  99.8532750  95.9479680
  36.4941890  99.2478220  95.2687460  37.7413420  99.8910060  95.8369040
  35.0360520  92.9408400  97.5639510  35.5875110  93.0503740  96.7892760
  35.5504030  93.3146000  98.2794740  42.9237250  96.4407560  88.5128740
  43.3630530  95.6029990  88.3666560  43.6365670  97.0736960  88.5992880
  41.0332630 101.3803630  92.4809980  41.4728540 102.1227960  92.0665370
  40.9719520 101.6230200  93.4048940  33.0236530  95.0610170  91.2847120
  32.9034130  95.7872260  90.6728390  32.7137420  94.2913080  90.8075030
  30.6621900  98.2325310  97.0915760  30.7402320  98.3674080  96.1471480
  31.2763580  97.5241200  97.2843880  31.9069530  99.9325500  93.5021940
  31.4997610 100.0740090  92.6475540  32.7982540  99.6485660  93.2993150
  43.7002810 104.3672750  89.8372990  43.5403950 104.0775690  90.7354820
  43.5349520 103.5912880  89.3018220  36.1791190 104.1471280  91.6144610
  36.0033670 103.2306820  91.4012410  35.3246930 104.5058570  91.8542410
  43.4028940 101.8760310  88.3970990  42.7094100 101.8737600  87.7373270
  44.1451800 101.4519630  87.9665160  42.9678870 103.5023020  92.4719480
  43.4235820 102.7212400  92.7858100  43.3071390 104.2129840  93.0160660
  38.6059010  88.0255940  89.5476620  37.9813190  88.0215810  90.2729930
  38.5189130  87.1586900  89.1512590  37.5276090  88.9492570  96.5260390
  37.8248420  89.8555400  96.4452410  38.0761650  88.4611350  95.9119960
  35.2814410  93.5278810  92.3952040  35.0555330  93.3115980  93.2998660
  34.5006940  93.9607270  92.0498010  32.8524160  90.8378060 101.2146090
  32.4587550  91.6853270 101.4218870  32.1642560  90.2004430 101.4054730
  30.3411440  92.7026640  86.4578890  30.2586110  93.6457400  86.5993880
  29.9894500  92.5601550  85.5791240  41.7032180  94.7611470  97.1196750
  40.9713300  95.2698280  97.4686850  41.3056520  93.9441450  96.8185530
  38.1409570  91.4365670  95.5249240  38.1445630  90.9955620  94.6753780
  39.0360690  91.7583000  95.6321060  33.9911950  91.3192160  94.4843450
  33.6512000  91.7967390  95.2410500  33.2289270  90.8657280  94.1244550
  38.2029720  92.4377750  88.5156000  38.3242540  92.3964230  89.4641820
  37.8178230  93.3001900  88.3602730  37.2151220  94.7478890  87.9139300
  36.6468120  94.2997140  87.2875210  37.9240220  95.1071670  87.3804450
  38.4417540  95.4967450  97.2714650  38.8087670  95.0226020  98.0175990
  38.2522600  96.3709020  97.6122990  36.2316910  94.5376090  99.5898860
  35.9273980  95.4168070  99.8149220  37.1863370  94.5975880  99.6256300
  34.7598700  98.7437080  90.1865710  33.9860960  98.2034700  90.0264430
  35.4893330  98.2243690  89.8483470  34.8036100  98.4117460  93.8244520
  35.3214770  97.6085720  93.7701410  34.3520120  98.3496600  94.6661350
  39.6905600  99.6783740  89.0971820  40.0321300 100.4225970  88.6015140
  38.8618310  99.9914860  89.4596650  40.8322210 100.6332070 101.6164900
  40.8466750  99.7013030 101.3983810  40.1247310 100.7191830 102.2554670
  46.9946530 101.6714150  90.6145640  46.3522690 101.0169770  90.8889360
  46.6077190 102.0769240  89.8386310  42.5733010  98.9999580  94.4617330
  42.9256830  98.4027710  93.8018700  41.6895340  98.6743810  94.6325580
  38.6596290  99.7597270  91.8687740  39.3467420 100.3066480  92.2495330
  37.8728710 100.3038000  91.9037350  30.7988690  95.3770090  87.3604820
  31.6683540  95.6594890  87.6440740  30.3079010  96.1905960  87.2453630
  37.9623500  96.7643300  91.4813100  38.4186280  97.5748550  91.7073290
  37.6111710  96.4466440  92.3131590  41.5388190 100.2781990  97.4282850
  42.1810420  99.5775150  97.5415020  42.0637540 101.0580430  97.2479740
  43.3125810 101.0776890 100.6318910  43.6482050 101.6643580 101.3096830
  42.3926150 100.9469600 100.8616700  31.1659940 104.5897470  87.9266450
  31.5257580 105.1886810  87.2723720  31.0252280 105.1357360  88.7001480
  44.9660160  98.4802550  88.8136150  44.6781860  98.9415240  89.6014030
  45.7612330  98.0200320  89.0820370  31.1501800 102.8552330 102.4008850
  31.2592920 101.9147070 102.2604240  30.4982360 103.1207080 101.7522580
  39.1414390 101.1268220 103.8006970  38.8211260 100.4077460 104.3452660
  38.4672750 101.8023290 103.8743030  37.1828560 101.9728670  88.7440120
  37.1738660 102.7058360  88.1284630  36.2626920 101.7260250  88.8367080
  32.7835200  97.1943560  89.4886880  32.1763150  97.9342460  89.4982180
  33.2584550  97.2842920  88.6625080  40.1688160 102.0356910  87.4065310
  40.2700140 101.8320900  86.4767290  39.2689900 101.7815190  87.6113090
  37.6914050  92.5937270  91.3889210  36.9830200  93.0623610  91.8302820
  37.9758530  91.9359280  92.0234400  41.7229480  89.3187930  92.8285000
  41.5997260  89.3374060  91.8794510  42.6714040  89.3666870  92.9483400
  38.8106270 104.5543230  92.1012980  39.0647770 104.5164620  91.1792350
  37.8618750 104.4276560  92.0941230  35.8949070  90.9022350  88.7639920
  36.7439600  91.3392500  88.6980110  35.5280340  91.2142610  89.5911980
  46.5236840  90.2301930 100.2310130  46.0210440  90.9707330 100.5703940
  47.3393500  90.6185930  99.9146920  34.7940490  97.1554710  87.2375450
  35.5603760  97.0436070  87.8000880  34.8715180  96.4592680  86.5852220
  33.4887250  94.5879780  87.9208340  33.5690840  93.6407290  88.0325740
  34.3807000  94.9186660  88.0269000  46.8184430 102.6443960  95.3525750
  46.9431850 103.4675130  95.8249560  47.6849990 102.4334690  95.0049900
  34.2901960 104.7375170  95.0242880  35.0264440 104.1890630  95.2951450
  34.6742880 105.6031180  94.8848870  33.2960240 103.9221240 104.2128460
  34.0972970 104.2433290 104.6263860  32.7812060 103.5616820 104.9348370
  37.4004270 103.9105480  86.8468450  38.1932880 104.1994310  86.3950240
  36.8808620 103.4797650  86.1680930  37.9181670  99.1308890  86.7110800
  37.8132310  98.5161240  87.4372180  37.7505890  98.6074780  85.9273810
  41.1584400  98.1928920  87.3152790  40.6094500  98.6398220  87.9595530
  41.7803660  97.6878170  87.8390460  36.8259520  97.1519840  89.2118090
  37.2475940  96.9859710  90.0549480  36.9510360  96.3420070  88.7173230
  39.3387160  96.1757450  86.4595190  39.8592820  95.4606470  86.0936340
  39.9855560  96.8143320  86.7595700  38.2420680  88.6552000  99.1313750
  37.7937980  88.6776260  98.2859300  37.6085880  88.2571020  99.7284050
  38.6480230  97.5506330  99.7526190  39.0668340  98.3939060  99.5802430
  37.7288860  97.6878370  99.5232970  40.9844130  95.2822510 101.1364030
  41.1040340  94.6863650 101.8758870  41.8438130  95.3192200 100.7165330
  35.7218420  93.2253070  86.1576250  35.5207480  92.3620430  86.5189590
  35.5510470  93.1386430  85.2197850  36.4987650 103.8559340 100.8683920
  35.9608740 104.5805400 100.5492620  36.7521610 103.3789680 100.0781260
  43.2006730  88.0361300  88.6863130  43.4809020  87.1929200  89.0422550
  42.4272460  88.2684410  89.2001880  37.7386150  89.2688310  87.1310330
  37.3908150  88.5912300  86.5512780  37.9398920  88.8077820  87.9453720
  39.9035190 104.2569060  88.7496930  40.7985980 104.5954030  88.7715690
  39.9352820 103.5348470  88.1221210  33.5431350  99.6296110  86.9783930
  33.9806220 100.1725780  87.6341510  34.0279080  98.8043060  86.9880270
  30.7577150 102.4185140  94.4304190  31.0880160 101.5506200  94.1982830
  31.1868150 102.6243660  95.2609150  35.3539070 100.7494150  92.0906160
  35.0534610 100.6259120  92.9910070  35.2476560  99.8902740  91.6821890
  31.2467360 103.2855730  97.1685820  30.8098350 103.4656530  98.0009970
  31.8145040 104.0430350  97.0267540  47.5787450  97.2738030  89.2967040
  48.3406360  97.8434680  89.4026730  47.5941820  96.7065230  90.0675350
  48.5847420  98.1288130  94.1408970  48.9556250  97.3455450  93.7344940
  49.2249350  98.8177230  93.9626270  47.6306620  97.5672400  86.4539560
  47.9055460  98.4751280  86.3258780  47.4417360  97.5034930  87.3901550
  32.1167720  96.1828530  98.0678040  32.4840760  96.0955930  98.9474060
  31.5478540  95.4195080  97.9684900  31.6683720  93.0937620 101.9736460
  30.7739770  93.0604380 102.3130170  32.2081270  93.2924410 102.7387710
  30.2929870  93.0074890  89.4700030  29.3893950  93.2705090  89.2951690
  30.7770490  93.2786060  88.6899990  32.8357080  92.0640430  87.3794410
  33.5448780  91.6423650  86.8941690  32.1197020  92.1315660  86.7477760
  47.7210050  91.6233180  93.2206320  47.6109330  91.4689220  94.1588590
  48.4817640  91.0954120  92.9781730  45.6257230 104.2643310  93.0807560
  46.2216300 103.9427880  92.4041980  45.8835380 103.7915130  93.8720830
  37.2325830 102.2520810  98.8307910  36.9917190 102.5195370  97.9438430
  38.1728470 102.4226540  98.8858770  48.4929990 104.2715190  99.6318550
  47.9988270 104.6684060  98.9145680  47.8843280 103.6464400 100.0255830
  33.3707830 103.6423470 100.3495970  32.7768150 103.5108170 101.0886010
  33.3631670 102.8061610  99.8838070  33.0020060 101.0081850  99.3004010
  32.2754120 100.3887140  99.2329960  33.0629210 101.4022460  98.4302090
  36.6065160 103.2226850  96.0853420  37.1230180 102.6114210  95.5601680
  37.2562540 103.7255630  96.5764430  31.2850060 104.3256240  92.5100770
  31.1172100 103.6926920  93.2082660  30.4184570 104.5315640  92.1594960
  38.4491890  90.2712290  93.0034940  37.6366400  89.8969180  92.6630820
  38.9533530  89.5157370  93.3056130  32.8912760 103.0189470  89.9550910
  32.3660380 103.3997500  89.2512870  32.8157340 103.6440240  90.6760620
  36.4741070  88.4212210  91.6079990  35.8443810  87.7199520  91.7750120
  35.9346210  89.1816340  91.3913150  47.6478080 104.5777010  91.2764850
  47.8230270 103.8914750  90.6325770  46.9499650 105.1024060  90.8841520
  35.4905730 104.9671850  88.8300160  36.2224550 104.6831130  88.2824050
  35.7499400 104.7285130  89.7199540  34.6520520 101.0836580  88.8346490
  34.0229400 101.5521680  89.3832320  34.7668350 100.2385800  89.2692680
  43.2012090  87.1149770 104.6212950  43.0877540  87.4344380 105.5164470
  44.0181830  87.5162280 104.3250230  42.1070240  95.1342240  74.9847690
  42.0264290  94.2196850  74.7139400  41.6934660  95.6309310  74.2787400
  40.2388280  96.9121260  76.8656960  39.4630380  96.4321700  77.1555530
  40.8901210  96.2326910  76.6913120  44.2595710 101.3181450  75.6456090
  43.7977240 100.5468690  75.9743260  45.0721260 101.3447520  76.1508540
  34.2355370 101.2581160  77.9390740  34.5383410 100.3678900  77.7600960
  34.9798960 101.8151380  77.7112990  39.6797270  99.5878450  76.8727120
  39.6105550  98.6468390  76.7116250  40.4417130  99.6779860  77.4449690
  40.7102440  92.3948830  77.0996050  41.0867260  91.5220710  76.9869720
  40.6121950  92.7307530  76.2086490  44.4926560  89.8899270  74.0324390
  45.3136180  89.3995840  74.0749870  44.5260640  90.4796930  74.7856230
  36.6815180  93.7360830  76.8938670  37.1893400  94.2341800  77.5343690
  37.2128420  92.9596030  76.7178030  48.7826110  91.9066020  80.5968020
  48.0778280  92.2947730  80.0783130  49.0484030  92.6016310  81.1988950
  34.9651280  88.3759390  81.1602090  34.9669720  88.8931780  80.3547990
  34.1355590  87.8989570  81.1372020  44.7288040  91.8299650  76.8051930
  44.0243610  92.1184540  77.3855040  45.0900200  92.6399760  76.4451490
  35.4273230  99.9835370  81.1524770  36.0447230 100.6586450  80.8709220
  34.5666350 100.3923350  81.0612270  47.7974960  91.2754440  77.1961140
  46.8499870  91.3093420  77.3276570  48.1224950  92.0893390  77.5810500
  43.8809560 103.2918910  77.7824590  43.8936720 102.8881200  76.9146850
  43.3284780 104.0666200  77.6786020  45.1754980 100.0135130  72.8714760
  45.0651310  99.0709460  72.9964180  45.1723230 100.3750770  73.7577520
  40.7175260  95.6400450  72.2277250  39.7904540  95.5737830  72.4565720
  40.8700080  96.5780580  72.1132490  40.7044340  91.9117450  69.2244410
  39.7648010  92.0731410  69.3096870  41.0227600  92.6303130  68.6780400
  47.2257100  96.5935970  79.2023440  46.3975730  96.6629060  78.7273570
  47.8207580  97.1790280  78.7339270  44.7472550  97.2020750  72.7312500
  44.1284970  96.8640300  72.0838800  44.7297000  96.5580510  73.4391690
  36.3231900  96.1665190  75.0096980  35.9188900  95.4542440  74.5142880
  36.4095020  95.8218430  75.8985020  36.7913600  99.8532750  77.1736190
  36.4941890  99.2478220  76.4943970  37.7413420  99.8910060  77.0625550
  35.8832030  99.5914440  83.8243990  34.9860560  99.8154410  84.0717390
  35.9084900  99.7149380  82.8755390  42.9237250  96.4407560  69.7385250
  43.3630530  95.6029990  69.5923070  43.6365670  97.0736960  69.8249390
  36.5083600 102.4049460  84.6086510  36.4799030 102.8092410  83.7414940
  36.3448570 101.4759820  84.4458110  46.5054390  87.6950370  68.0526290
  46.1927050  87.7877200  68.9525360  47.2666860  88.2731400  68.0023720
  33.0236530  95.0610170  72.5103630  32.9034130  95.7872260  71.8984900
  32.7137420  94.2913080  72.0331540  36.1791190 104.1471280  72.8401120
  36.0033670 103.2306820  72.6268920  35.3246930 104.5058570  73.0798920
  39.7770000  91.2713760  81.4962620  39.3149370  91.4796780  82.3082560
  39.3748110  90.4573110  81.1933290  37.5276090  88.9492570  77.7516900
  37.8248420  89.8555400  77.6708920  38.0761650  88.4611350  77.1376470
  42.5112170  93.5342180  72.2199200  41.9121060  94.2577980  72.0362820
  43.0591780  93.4718960  71.4375650  37.7213620  94.4264390  84.2868820
  37.6257220  93.4859120  84.1369220  38.5645600  94.6479460  83.8916890
  32.8524160  90.8378060  82.4402600  32.4587550  91.6853270  82.6475380
  32.1642560  90.2004430  82.6311240  39.4269210  90.9213030  85.5099340
  38.7367530  90.7285230  86.1445430  40.1701510  91.2047670  86.0423640
  41.7032180  94.7611470  78.3453260  40.9713300  95.2698280  78.6943360
  41.3056520  93.9441450  78.0442040  42.1658090  90.2145150  77.7576200
  42.1830830  90.6653800  78.6018050  41.9173670  89.3150790  77.9709640
  45.5928840  87.6277330  83.5962580  45.9174610  86.8966990  84.1220560
  45.6285350  87.3090970  82.6943570  38.4417540  95.4967450  78.4971160
  38.8087670  95.0226020  79.2432500  38.2522600  96.3709020  78.8379500
  34.7598700  98.7437080  71.4122220  33.9860960  98.2034700  71.2520940
  35.4893330  98.2243690  71.0739980  45.5186680  97.7402440  77.2048610
  46.2385800  98.2357730  76.8144720  45.3168500  97.0620330  76.5602480
  40.9796620  89.1340400  71.3478000  40.1661230  88.6353570  71.2723310
  40.7858570  89.9738650  70.9314350  43.6945010  93.5060050  69.6440160
  44.5824630  93.8177280  69.4691500  43.6650100  92.6332300  69.2520740
  34.8036100  98.4117460  75.0501030  35.3214770  97.6085720  74.9957920
  34.3520120  98.3496600  75.8917860  35.4893760  95.8363070  84.8466280
  35.1893900  95.9820250  83.9494100  36.2605000  95.2768360  84.7539670
  45.9659280  94.8171890  69.1120020  45.8823000  95.2486110  68.2616460
  46.6853470  95.2770240  69.5446840  46.9946530 101.6714150  71.8402150
  46.3522690 101.0169770  72.1145870  46.6077190 102.0769240  71.0642820
  42.5733010  98.9999580  75.6873840  42.9256830  98.4027710  75.0275210
  41.6895340  98.6743810  75.8582090  38.6596290  99.7597270  73.0944250
  39.3467420 100.3066480  73.4751840  37.8728710 100.3038000  73.1293860
  30.7988690  95.3770090  68.5861330  31.6683540  95.6594890  68.8697250
  30.3079010  96.1905960  68.4710140  37.9623500  96.7643300  72.7069610
  38.4186280  97.5748550  72.9329800  37.6111710  96.4466440  73.5388100
  45.3843910 100.5630610  68.3778500  45.1581490  99.8461050  68.9703140
  44.9940110 100.3143050  67.5400250  31.1659940 104.5897470  69.1522960
  31.5257580 105.1886810  68.4980230  31.0252280 105.1357360  69.9257990
  44.9660160  98.4802550  70.0392660  44.6781860  98.9415240  70.8270540
  45.7612330  98.0200320  70.3076880  31.1501800 102.8552330  83.6265360
  31.2592920 101.9147070  83.4860750  30.4982360 103.1207080  82.9779090
  32.7835200  97.1943560  70.7143390  32.1763150  97.9342460  70.7238690
  33.2584550  97.2842920  69.8881590  42.3567990  91.3594380  80.3900280
  42.7248810  90.5389590  80.7179850  41.4966190  91.4196270  80.8055930
  45.7230020  90.3151320  71.1987840  45.0943180  90.4196990  70.4846070
  45.2281940  90.5348100  71.9881720  39.3169980  94.0133970  80.6138250
  39.8155230  94.4879790  81.2790100  39.4592930  93.0897490  80.8208280
  41.7229480  89.3187930  74.0541510  41.5997260  89.3374060  73.1051020
  42.6714040  89.3666870  74.1739910  46.5236840  90.2301930  81.4566640
  46.0210440  90.9707330  81.7960450  47.3393500  90.6185930  81.1403430
  44.8158850  95.4735110  74.9028000  43.8748990  95.4885340  75.0775690
  45.1302920  94.6871070  75.3488300  34.7940490  97.1554710  68.4631960
  35.5603760  97.0436070  69.0257390  34.8715180  96.4592680  67.8108730
  33.4887250  94.5879780  69.1464850  33.5690840  93.6407290  69.2582250
  34.3807000  94.9186660  69.2525510  46.8184430 102.6443960  76.5782260
  46.9431850 103.4675130  77.0506070  47.6849990 102.4334690  76.2306410
  34.2901960 104.7375170  76.2499390  35.0264440 104.1890630  76.5207960
  34.6742880 105.6031180  76.1105380  31.1747440 100.8048740  72.1240900
  30.2487220 101.0469880  72.1146310  31.6403870 101.6323000  72.0025650
  33.2960240 103.9221240  85.4384970  34.0972970 104.2433290  85.8520370
  32.7812060 103.5616820  86.1604880  46.4534440 103.1375610  69.4961700
  46.1675950 102.7240750  68.6815880  46.2553990 104.0663320  69.3762220
  37.9181670  99.1308890  67.9367310  37.8132310  98.5161240  68.6628690
  37.7505890  98.6074780  67.1530320  38.0695990  97.8165690  83.9156540
  37.3041660  98.3850690  83.8311210  38.2511950  97.5241900  83.0224770
  33.0481130  94.5524290  85.2771090  33.0886470  94.2538160  86.1856320
  33.9026630  94.9531900  85.1178610  36.8259520  97.1519840  70.4374600
  37.2475940  96.9859710  71.2805990  36.9510360  96.3420070  69.9429740
  34.9886940  93.1316390  83.2445580  34.4583400  92.6407340  82.6168920
  35.6575010  93.5600590  82.7103510  39.3387160  96.1757450  67.6851700
  39.8592820  95.4606470  67.3192850  39.9855560  96.8143320  67.9852210
  35.4759240  90.0978760  83.3242870  35.3816110  89.4799510  82.5993740
  34.8956630  90.8245050  83.0972780  38.2420680  88.6552000  80.3570260
  37.7937980  88.6776260  79.5115810  37.6085880  88.2571020  80.9540560
  38.6480230  97.5506330  80.9782700  39.0668340  98.3939060  80.8058940
  37.7288860  97.6878370  80.7489480  36.4987650 103.8559340  82.0940430
  35.9608740 104.5805400  81.7749130  36.7521610 103.3789680  81.3037770
  37.7512900  91.8243860  83.6196360  38.3412590  91.5159710  84.3074180
  36.9333140  91.3523610  83.7756260  43.2006730  88.0361300  69.9119640
  43.4809020  87.1929200  70.2679060  42.4272460  88.2684410  70.4258390
  33.5431350  99.6296110  68.2040440  33.9806220 100.1725780  68.8598020
  34.0279080  98.8043060  68.2136780  30.7577150 102.4185140  75.6560700
  31.0880160 101.5506200  75.4239340  31.1868150 102.6243660  76.4865660
  35.3539070 100.7494150  73.3162670  35.0534610 100.6259120  74.2166580
  35.2476560  99.8902740  72.9078400  31.2467360 103.2855730  78.3942330
  30.8098350 103.4656530  79.2266480  31.8145040 104.0430350  78.2524050
  48.1230990 100.5290550  68.0189350  47.2923950 100.5967200  68.4896580
  48.3002820 101.4194670  67.7156210  47.5787450  97.2738030  70.5223550
  48.3406360  97.8434680  70.6283240  47.5941820  96.7065230  71.2931860
  48.5847420  98.1288130  75.3665480  48.9556250  97.3455450  74.9601450
  49.2249350  98.8177230  75.1882780  47.6306620  97.5672400  67.6796070
  47.9055460  98.4751280  67.5515290  47.4417360  97.5034930  68.6158060
  47.5271960  95.5041390  72.6725500  47.1515560  94.7369320  72.2406790
  46.7975080  95.8864090  73.1600430  31.6683720  93.0937620  83.1992970
  30.7739770  93.0604380  83.5386680  32.2081270  93.2924410  83.9644220
  45.3559650  89.8769340  85.0844720  46.2329830  89.8852740  85.4678720
  45.3680490  89.1400180  84.4737070  30.2929870  93.0074890  70.6956540
  29.3893950  93.2705090  70.5208200  30.7770490  93.2786060  69.9156500
  46.8022920  93.7298880  75.9732740  47.3260400  93.2361530  75.3422910
  47.3882340  93.8649240  76.7180310  46.9812640  93.8138750  79.4952290
  46.0315350  93.7802290  79.6097280  47.1625650  94.7238860  79.2602060
  32.4831240  88.1179760  67.6453570  33.2059370  88.6588700  67.9634790
  32.7555760  87.8443180  66.7695110  46.2922890  92.9872230  71.9125150
  46.7882010  92.7543100  72.6974030  46.0938960  92.1484070  71.4962790
  47.7210050  91.6233180  74.4462830  47.6109330  91.4689220  75.3845100
  48.4817640  91.0954120  74.2038240  46.0675770  87.5627310  80.9045830
  46.7047990  88.1761450  81.2705020  46.2150660  87.5987970  79.9595060
  48.6100320  89.4541100  67.6868970  49.5349630  89.3222280  67.4787260
  48.5876110  89.5333920  68.6405420  48.6838810  90.2251760  70.3125680
  47.8890310  90.1596880  70.8418590  48.8882090  91.1602400  70.3011030
  45.6257230 104.2643310  74.3064070  46.2216300 103.9427880  73.6298490
  45.8835380 103.7915130  75.0977340  33.5319800 100.6961220  84.4554700
  33.4889430 100.3254130  85.3369160  33.6630810 101.6338790  84.5956520
  37.2325830 102.2520810  80.0564420  36.9917190 102.5195370  79.1694940
  38.1728470 102.4226540  80.1115280  39.4380250  88.7153500  83.8120930
  39.3769140  89.3075330  84.5616340  40.3780630  88.6079460  83.6671190
  42.0754810  88.3723560  83.4513220  42.6895220  88.6902850  82.7894300
  42.6204370  87.8872150  84.0709080  48.4929990 104.2715190  80.8575060
  47.9988270 104.6684060  80.1402190  47.8843280 103.6464400  81.2512340
  33.3707830 103.6423470  81.5752480  32.7768150 103.5108170  82.3142520
  33.3631670 102.8061610  81.1094580  42.8162850  86.9355700  79.7782510
  41.9422690  87.2690810  79.5755440  42.7073600  86.4628880  80.6034380
  43.7234830  89.1426570  81.1624230  43.3948190  88.3278330  80.7825960
  44.6717130  89.0996380  81.0389920  46.1769440 104.9138610  78.1361800
  45.7172410 105.6654420  77.7619820  45.5481900 104.1945080  78.0776600
  36.6065160 103.2226850  77.3109930  37.1230180 102.6114210  76.7858190
  37.2562540 103.7255630  77.8020940  39.3460660 104.1135340  78.1378910
  39.6338470 103.8589640  77.2611920  39.8583880 103.5612700  78.7284480
  40.5637670  87.8525540  78.7175420  39.7809460  88.3271040  78.9972180
  40.2700600  86.9480370  78.6088600  45.1158740  88.5548640  76.7624510
  45.5566830  88.4993740  75.9146110  44.8466330  89.4706650  76.8334690
  46.9797310  88.1863880  74.7733330  46.9185710  87.2425100  74.6264350
  47.7589340  88.2943970  75.3186790  31.2850060 104.3256240  73.7357280
  31.1172100 103.6926920  74.4339170  30.4184570 104.5315640  73.3851470
  42.9516870  86.9354740  75.4674520  43.5546240  87.5074950  75.9423040
  42.2109860  87.4994180  75.2448420  46.0951470  87.3376300  70.7414800
  46.2902100  88.2359750  71.0082230  45.3081340  87.1063380  71.2347750
  32.8912760 103.0189470  71.1807420  32.3660380 103.3997500  70.4769380
  32.8157340 103.6440240  71.9017130  47.6478080 104.5777010  72.5021360
  47.8230270 103.8914750  71.8582280  46.9499650 105.1024060  72.1098030
  35.4905730 104.9671850  70.0556670  36.2224550 104.6831130  69.5080560
  35.7499400 104.7285130  70.9456050  34.6520520 101.0836580  70.0603000
  34.0229400 101.5521680  70.6088830  34.7668350 100.2385800  70.4949190
  43.2012090  87.1149770  85.8469460  43.0877540  87.4344380  86.7420980
  44.0181830  87.5162280  85.5506740  42.1070240  95.1342240  56.2104200
  42.0264290  94.2196850  55.9395910  41.6934660  95.6309310  55.5043910
  44.2595710 101.3181450  56.8712600  43.7977240 100.5468690  57.1999770
  45.0721260 101.3447520  57.3765050  32.6646060  92.1842960  52.7531620
  31.7762760  92.5258930  52.6511500  32.9487250  91.9843280  51.8612450
  30.6279070  94.7848610  58.6371320  31.1995180  94.0170810  58.6374960
  30.6280610  95.0837370  57.7277930  40.4859020 103.6039460  56.4916590
  39.8670460 104.0596960  55.9211030  41.3410800 103.7590920  56.0906290
  31.8703940  90.1932970  60.4240250  31.6906780  89.2958720  60.7043010
  31.4684020  90.7404840  61.0987200  40.7102440  92.3948830  58.3252560
  41.0867260  91.5220710  58.2126230  40.6121950  92.7307530  57.4343000
  34.8407450  90.7674460  53.7870000  34.9474200  91.6678190  54.0938760
  33.9299810  90.7192430  53.4964650  44.4926560  89.8899270  55.2580900
  45.3136180  89.3995840  55.3006380  44.5260640  90.4796930  56.0112740
  32.4890610  92.6893470  59.0322590  33.1700720  92.9531840  59.6509990
  32.1738660  91.8494340  59.3660600  36.6815180  93.7360830  58.1195180
  37.1893400  94.2341800  58.7600200  37.2128420  92.9596030  57.9434540
  48.7826110  91.9066020  61.8224530  48.0778280  92.2947730  61.3039640
  49.0484030  92.6016310  62.4245460  34.9651280  88.3759390  62.3858600
  34.9669720  88.8931780  61.5804500  34.1355590  87.8989570  62.3628530
  41.3522370  98.4878700  53.8848500  40.7339640  98.9528150  53.3211220
  41.8645620  99.1806180  54.3018010  44.7288040  91.8299650  58.0308440
  44.0243610  92.1184540  58.6111550  45.0900200  92.6399760  57.6708000
  34.6466610  90.0869350  60.3929050  34.9883420  90.9311400  60.0982920
  33.7082420  90.2353090  60.5094390  47.7974960  91.2754440  58.4217650
  46.8499870  91.3093420  58.5533080  48.1224950  92.0893390  58.8067010
  38.3294500  87.5751620  56.7173640  38.6369480  87.0198510  56.0009140
  37.3995200  87.7096080  56.5346630  45.1754980 100.0135130  54.0971270
  45.0651310  99.0709460  54.2220690  45.1723230 100.3750770  54.9834030
  40.7044340  91.9117450  50.4500920  39.7648010  92.0731410  50.5353380
  41.0227600  92.6303130  49.9036910  47.2257100  96.5935970  60.4279950
  46.3975730  96.6629060  59.9530080  47.8207580  97.1790280  59.9595780
  44.7472550  97.2020750  53.9569010  44.1284970  96.8640300  53.3095310
  44.7297000  96.5580510  54.6648200  35.0360520  92.9408400  60.0152530
  35.5875110  93.0503740  59.2405780  35.5504030  93.3146000  60.7307760
  42.9237250  96.4407560  50.9641760  43.3630530  95.6029990  50.8179580
  43.6365670  97.0736960  51.0505900  34.7103250  96.4627760  63.6257870
  34.5711020  97.3350560  63.9945270  33.8284610  96.1200570  63.4805810
  41.0332630 101.3803630  54.9323000  41.4728540 102.1227960  54.5178390
  40.9719520 101.6230200  55.8561960  36.5083600 102.4049460  65.8343020
  36.4799030 102.8092410  64.9671450  36.3448570 101.4759820  65.6714620
  48.4598420 103.1876560  67.1307190  48.9358140 103.6659450  67.8096270
  49.0805580 103.1194050  66.4052690  43.7002810 104.3672750  52.2886010
  43.5403950 104.0775690  53.1867840  43.5349520 103.5912880  51.7531240
  36.1791190 104.1471280  54.0657630  36.0033670 103.2306820  53.8525430
  35.3246930 104.5058570  54.3055430  43.4028940 101.8760310  50.8484010
  42.7094100 101.8737600  50.1886290  44.1451800 101.4519630  50.4178180
  47.7155680  92.4321870  65.2556940  47.0999950  92.9401540  64.7272400
  47.3952100  91.5320200  65.1982880  35.4900190  88.4045240  57.1183810
  35.0468340  89.1854780  56.7868330  36.0485180  88.7275130  57.8254750
  38.6059010  88.0255940  51.9989640  37.9813190  88.0215810  52.7242950
  38.5189130  87.1586900  51.6025610  37.5276090  88.9492570  58.9773410
  37.8248420  89.8555400  58.8965430  38.0761650  88.4611350  58.3632980
  35.2814410  93.5278810  54.8465060  35.0555330  93.3115980  55.7511680
  34.5006940  93.9607270  54.5011030  42.5112170  93.5342180  53.4455710
  41.9121060  94.2577980  53.2619330  43.0591780  93.4718960  52.6632160
  37.7213620  94.4264390  65.5125330  37.6257220  93.4859120  65.3625730
  38.5645600  94.6479460  65.1173400  41.1177040  92.1705720  55.4758990
  41.5106610  92.4877920  54.6627680  41.4793890  91.2917600  55.5903510
  32.8524160  90.8378060  63.6659110  32.4587550  91.6853270  63.8731890
  32.1642560  90.2004430  63.8567750  39.4269210  90.9213030  66.7355850
  38.7367530  90.7285230  67.3701940  40.1701510  91.2047670  67.2680150
  30.1541210  88.7606520  57.6989190  29.8654260  89.3309380  58.4114170
  30.8986970  88.2810970  58.0620420  30.3411440  92.7026640  48.9091910
  30.2586110  93.6457400  49.0506900  29.9894500  92.5601550  48.0304260
  38.1409570  91.4365670  57.9762260  38.1445630  90.9955620  57.1266800
  39.0360690  91.7583000  58.0834080  33.9911950  91.3192160  56.9356470
  33.6512000  91.7967390  57.6923520  33.2289270  90.8657280  56.5757570
  38.2029720  92.4377750  50.9669020  38.3242540  92.3964230  51.9154840
  37.8178230  93.3001900  50.8115750  32.2920400  98.6490910  64.2419050
  31.9075190  98.0084580  64.8402010  32.6032590  99.3527030  64.8113780
  31.3058030  90.2411140  55.8521140  31.0204950  89.8766810  56.6899760
  31.2436890  89.5091600  55.2384280  45.5186680  97.7402440  58.4305120
  46.2385800  98.2357730  58.0401230  45.3168500  97.0620330  57.7858990
  40.9796620  89.1340400  52.5734510  40.1661230  88.6353570  52.4979820
  40.7858570  89.9738650  52.1570860  43.6945010  93.5060050  50.8696670
  44.5824630  93.8177280  50.6948010  43.6650100  92.6332300  50.4777250
  32.2880640  95.3778830  63.1883240  31.9295580  96.0432680  63.7756580
  31.9935200  94.5462380  63.5595860  35.4893760  95.8363070  66.0722790
  35.1893900  95.9820250  65.1750610  36.2605000  95.2768360  65.9796180
  45.9659280  94.8171890  50.3376530  45.8823000  95.2486110  49.4872970
  46.6853470  95.2770240  50.7703350  47.0433420  97.2739410  63.4146500
  46.3181610  97.8668190  63.2175890  47.5708880  97.2662950  62.6159870
  46.9946530 101.6714150  53.0658660  46.3522690 101.0169770  53.3402380
  46.6077190 102.0769240  52.2899330  42.5733010  98.9999580  56.9130350
  42.9256830  98.4027710  56.2531720  41.6895340  98.6743810  57.0838600
  30.7988690  95.3770090  49.8117840  31.6683540  95.6594890  50.0953760
  30.3079010  96.1905960  49.6966650  33.8635280  87.1080950  54.4048640
  33.7349910  87.0998850  55.3533560  33.0397300  87.4464040  54.0539650
  45.3843910 100.5630610  49.6035010  45.1581490  99.8461050  50.1959650
  44.9940110 100.3143050  48.7656760  43.3125810 101.0776890  63.0831930
  43.6482050 101.6643580  63.7609850  42.3926150 100.9469600  63.3129720
  31.1659940 104.5897470  50.3779470  31.5257580 105.1886810  49.7236740
  31.0252280 105.1357360  51.1514500  30.8629210  88.8672070  63.8655340
  30.1487730  89.0668990  64.4707950  31.2824250  88.0911640  64.2370140
  44.9660160  98.4802550  51.2649170  44.6781860  98.9415240  52.0527050
  45.7612330  98.0200320  51.5333390  31.1501800 102.8552330  64.8521870
  31.2592920 101.9147070  64.7117260  30.4982360 103.1207080  64.2035600
  45.7230020  90.3151320  52.4244350  45.0943180  90.4196990  51.7102580
  45.2281940  90.5348100  53.2138230  40.1688160 102.0356910  49.8578330
  40.2700140 101.8320900  48.9280310  39.2689900 101.7815190  50.0626110
  37.6914050  92.5937270  53.8402230  36.9830200  93.0623610  54.2815840
  37.9758530  91.9359280  54.4747420  41.7229480  89.3187930  55.2798020
  41.5997260  89.3374060  54.3307530  42.6714040  89.3666870  55.3996420
  38.8106270 104.5543230  54.5526000  39.0647770 104.5164620  53.6305370
  37.8618750 104.4276560  54.5454250  35.8949070  90.9022350  51.2152940
  36.7439600  91.3392500  51.1493130  35.5280340  91.2142610  52.0425000
  46.5236840  90.2301930  62.6823150  46.0210440  90.9707330  63.0216960
  47.3393500  90.6185930  62.3659940  44.8158850  95.4735110  56.1284510
  43.8748990  95.4885340  56.3032200  45.1302920  94.6871070  56.5744810
  33.4887250  94.5879780  50.3721360  33.5690840  93.6407290  50.4838760
  34.3807000  94.9186660  50.4782020  33.2960240 103.9221240  66.6641480
  34.0972970 104.2433290  67.0776880  32.7812060 103.5616820  67.3861390
  37.4004270 103.9105480  49.2981470  38.1932880 104.1994310  48.8463260
  36.8808620 103.4797650  48.6193950  46.4534440 103.1375610  50.7218210
  46.1675950 102.7240750  49.9072390  46.2553990 104.0663320  50.6018730
  31.0158050  96.4094700  65.6077530  31.5197070  95.8301980  66.1793760
  30.2765470  96.6934930  66.1453900  45.2119340  99.5471020  65.6988070
  45.9528810  99.8846780  65.1955530  44.4492020  99.7163080  65.1457840
  33.0481130  94.5524290  66.5027600  33.0886470  94.2538160  67.4112830
  33.9026630  94.9531900  66.3435120  34.9886940  93.1316390  64.4702090
  34.4583400  92.6407340  63.8425430  35.6575010  93.5600590  63.9360020
  43.8865000  97.5985850  64.2343280  44.3006020  97.7530930  65.0833700
  42.9516000  97.7241070  64.3969060  44.3587170  94.9382010  66.2382430
  44.9407940  94.1834330  66.1502910  44.5348940  95.4689450  65.4613910
  35.4759240  90.0978760  64.5499380  35.3816110  89.4799510  63.8250250
  34.8956630  90.8245050  64.3229290  35.7218420  93.2253070  48.6089270
  35.5207480  92.3620430  48.9702610  35.5510470  93.1386430  47.6710870
  37.7512900  91.8243860  64.8452870  38.3412590  91.5159710  65.5330690
  36.9333140  91.3523610  65.0012770  37.7386150  89.2688310  49.5823350
  37.3908150  88.5912300  49.0025800  37.9398920  88.8077820  50.3966740
  39.9035190 104.2569060  51.2009950  40.7985980 104.5954030  51.2228710
  39.9352820 103.5348470  50.5734230  33.5431350  99.6296110  49.4296950
  33.9806220 100.1725780  50.0854530  34.0279080  98.8043060  49.4393290
  48.1230990 100.5290550  49.2445860  47.2923950 100.5967200  49.7153090
  48.3002820 101.4194670  48.9412720  47.5787450  97.2738030  51.7480060
  48.3406360  97.8434680  51.8539750  47.5941820  96.7065230  52.5188370
  48.5847420  98.1288130  56.5921990  48.9556250  97.3455450  56.1857960
  49.2249350  98.8177230  56.4139290  45.5681180  99.5124710  62.0052310
  44.7541020  99.9421870  62.2678100  45.9755380 100.1243120  61.3921360
  47.6306620  97.5672400  48.9052580  47.9055460  98.4751280  48.7771800
  47.4417360  97.5034930  49.8414570  47.5271960  95.5041390  53.8982010
  47.1515560  94.7369320  53.4663300  46.7975080  95.8864090  54.3856940
  32.1167720  96.1828530  60.5191060  32.4840760  96.0955930  61.3987080
  31.5478540  95.4195080  60.4197920  46.9171580  94.6512910  63.5321530
  46.6857670  94.4225660  62.6319480  47.1776130  95.5712460  63.4866420
  31.6683720  93.0937620  64.4249480  30.7739770  93.0604380  64.7643190
  32.2081270  93.2924410  65.1900730  30.2929870  93.0074890  51.9213050
  29.3893950  93.2705090  51.7464710  30.7770490  93.2786060  51.1413010
  46.8022920  93.7298880  57.1989250  47.3260400  93.2361530  56.5679420
  47.3882340  93.8649240  57.9436820  46.9812640  93.8138750  60.7208800
  46.0315350  93.7802290  60.8353790  47.1625650  94.7238860  60.4858570
  32.8357080  92.0640430  49.8307430  33.5448780  91.6423650  49.3454710
  32.1197020  92.1315660  49.1990780  46.2922890  92.9872230  53.1381660
  46.7882010  92.7543100  53.9230540  46.0938960  92.1484070  52.7219300
  32.1723430  87.3685950  58.7732700  32.8199620  86.8183330  58.3327860
  32.5925270  87.6229100  59.5948510  47.7210050  91.6233180  55.6719340
  47.6109330  91.4689220  56.6101610  48.4817640  91.0954120  55.4294750
  46.0675770  87.5627310  62.1302340  46.7047990  88.1761450  62.4961530
  46.2150660  87.5987970  61.1851570  31.9255430  87.5241620  61.5158020
  31.5770250  87.9805440  62.2816200  31.5943130  86.6298750  61.5980450
  33.5319800 100.6961220  65.6811210  33.4889430 100.3254130  66.5625670
  33.6630810 101.6338790  65.8213030  32.5976070  87.0517820  64.7908790
  33.1459060  86.8705870  64.0274900  32.6631380  86.2611930  65.3265100
  45.1158740  88.5548640  57.9881020  45.5566830  88.4993740  57.1402620
  44.8466330  89.4706650  58.0591200  46.9797310  88.1863880  55.9989840
  46.9185710  87.2425100  55.8520860  47.7589340  88.2943970  56.5443300
  31.9078080  88.1573020  52.4645650  32.6657440  88.2701900  51.8909680
  31.4455250  88.9942220  52.4189080  38.4491890  90.2712290  55.4547960
  37.6366400  89.8969180  55.1143840  38.9533530  89.5157370  55.7569150
  42.9516870  86.9354740  56.6931030  43.5546240  87.5074950  57.1679550
  42.2109860  87.4994180  56.4704930  46.0951470  87.3376300  51.9671310
  46.2902100  88.2359750  52.2338740  45.3081340  87.1063380  52.4604260
  34.2803230  88.6837070  51.0047620  34.8095990  87.8966870  50.8755570
  34.9131550  89.3628260  51.2383150  36.4741070  88.4212210  54.0593010
  35.8443810  87.7199520  54.2263140  35.9346210  89.1816340  53.8426170
  36.5996630  87.6996190  66.4945500  36.3180900  88.2029790  65.7306320
  36.9816330  86.9017940  66.1287630  42.1070240  95.1342240  37.4360710
  42.0264290  94.2196850  37.1652420  41.6934660  95.6309310  36.7300420
  32.6646060  92.1842960  33.9788130  31.7762760  92.5258930  33.8768010
  32.9487250  91.9843280  33.0868960  40.4859020 103.6039460  37.7173100
  39.8670460 104.0596960  37.1467540  41.3410800 103.7590920  37.3162800
  40.7102440  92.3948830  39.5509070  41.0867260  91.5220710  39.4382740
  40.6121950  92.7307530  38.6599510  34.8407450  90.7674460  35.0126510
  34.9474200  91.6678190  35.3195270  33.9299810  90.7192430  34.7221160
  44.4926560  89.8899270  36.4837410  45.3136180  89.3995840  36.5262890
  44.5260640  90.4796930  37.2369250  36.6815180  93.7360830  39.3451690
  37.1893400  94.2341800  39.9856710  37.2128420  92.9596030  39.1691050
  41.3522370  98.4878700  35.1105010  40.7339640  98.9528150  34.5467730
  41.8645620  99.1806180  35.5274520  44.7288040  91.8299650  39.2564950
  44.0243610  92.1184540  39.8368060  45.0900200  92.6399760  38.8964510
  30.7205570  99.1735230  32.4844640  30.3433550  99.6622330  31.7529540
  30.9778640  99.8460510  33.1151170  47.7974960  91.2754440  39.6474160
  46.8499870  91.3093420  39.7789590  48.1224950  92.0893390  40.0323520
  38.3294500  87.5751620  37.9430150  38.6369480  87.0198510  37.2265650
  37.3995200  87.7096080  37.7603140  40.7175260  95.6400450  34.6790270
  39.7904540  95.5737830  34.9078740  40.8700080  96.5780580  34.5645510
  40.7044340  91.9117450  31.6757430  39.7648010  92.0731410  31.7609890
  41.0227600  92.6303130  31.1293420  47.2257100  96.5935970  41.6536460
  46.3975730  96.6629060  41.1786590  47.8207580  97.1790280  41.1852290
  44.7472550  97.2020750  35.1825520  44.1284970  96.8640300  34.5351820
  44.7297000  96.5580510  35.8904710  44.1899110  93.3805290  42.5991330
  43.7770290  94.2059000  42.8531320  43.4575060  92.7950330  42.4067690
  36.3231900  96.1665190  37.4610000  35.9188900  95.4542440  36.9655900
  36.4095020  95.8218430  38.3498040  36.7913600  99.8532750  39.6249210
  36.4941890  99.2478220  38.9456990  37.7413420  99.8910060  39.5138570
  35.8832030  99.5914440  46.2757010  34.9860560  99.8154410  46.5230410
  35.9084900  99.7149380  45.3268410  42.9237250  96.4407560  32.1898270
  43.3630530  95.6029990  32.0436090  43.6365670  97.0736960  32.2762410
  34.7103250  96.4627760  44.8514380  34.5711020  97.3350560  45.2201780
  33.8284610  96.1200570  44.7062320  41.0332630 101.3803630  36.1579510
  41.4728540 102.1227960  35.7434900  40.9719520 101.6230200  37.0818470
  36.5083600 102.4049460  47.0599530  36.4799030 102.8092410  46.1927960
  36.3448570 101.4759820  46.8971130  46.5054390  87.6950370  30.5039310
  46.1927050  87.7877200  31.4038380  47.2666860  88.2731400  30.4536740
  33.0236530  95.0610170  34.9616650  32.9034130  95.7872260  34.3497920
  32.7137420  94.2913080  34.4844560  48.4598420 103.1876560  48.3563700
  48.9358140 103.6659450  49.0352780  49.0805580 103.1194050  47.6309200
  31.9069530  99.9325500  37.1791470  31.4997610 100.0740090  36.3245070
  32.7982540  99.6485660  36.9762680  43.7002810 104.3672750  33.5142520
  43.5403950 104.0775690  34.4124350  43.5349520 103.5912880  32.9787750
  36.1791190 104.1471280  35.2914140  36.0033670 103.2306820  35.0781940
  35.3246930 104.5058570  35.5311940  43.4028940 101.8760310  32.0740520
  42.7094100 101.8737600  31.4142800  44.1451800 101.4519630  31.6434690
  35.4900190  88.4045240  38.3440320  35.0468340  89.1854780  38.0124840
  36.0485180  88.7275130  39.0511260  38.6059010  88.0255940  33.2246150
  37.9813190  88.0215810  33.9499460  38.5189130  87.1586900  32.8282120
  37.5276090  88.9492570  40.2029920  37.8248420  89.8555400  40.1221940
  38.0761650  88.4611350  39.5889490  35.2814410  93.5278810  36.0721570
  35.0555330  93.3115980  36.9768190  34.5006940  93.9607270  35.7267540
  42.5112170  93.5342180  34.6712220  41.9121060  94.2577980  34.4875840
  43.0591780  93.4718960  33.8888670  37.7213620  94.4264390  46.7381840
  37.6257220  93.4859120  46.5882240  38.5645600  94.6479460  46.3429910
  41.1177040  92.1705720  36.7015500  41.5106610  92.4877920  35.8884190
  41.4793890  91.2917600  36.8160020  30.1541210  88.7606520  38.9245700
  29.8654260  89.3309380  39.6370680  30.8986970  88.2810970  39.2876930
  30.3411440  92.7026640  30.1348420  30.2586110  93.6457400  30.2763410
  29.9894500  92.5601550  29.2560770  41.7032180  94.7611470  40.7966280
  40.9713300  95.2698280  41.1456380  41.3056520  93.9441450  40.4955060
  38.1409570  91.4365670  39.2018770  38.1445630  90.9955620  38.3523310
  39.0360690  91.7583000  39.3090590  33.9911950  91.3192160  38.1612980
  33.6512000  91.7967390  38.9180030  33.2289270  90.8657280  37.8014080
  38.2029720  92.4377750  32.1925530  38.3242540  92.3964230  33.1411350
  37.8178230  93.3001900  32.0372260  42.1658090  90.2145150  40.2089220
  42.1830830  90.6653800  41.0531070  41.9173670  89.3150790  40.4222660
  37.2151220  94.7478890  31.5908830  36.6468120  94.2997140  30.9644740
  37.9240220  95.1071670  31.0573980  38.4417540  95.4967450  40.9484180
  38.8087670  95.0226020  41.6945520  38.2522600  96.3709020  41.2892520
  31.3058030  90.2411140  37.0777650  31.0204950  89.8766810  37.9156270
  31.2436890  89.5091600  36.4640790  36.2316910  94.5376090  43.2668390
  35.9273980  95.4168070  43.4918750  37.1863370  94.5975880  43.3025830
  34.7598700  98.7437080  33.8635240  33.9860960  98.2034700  33.7033960
  35.4893330  98.2243690  33.5253000  40.9796620  89.1340400  33.7991020
  40.1661230  88.6353570  33.7236330  40.7858570  89.9738650  33.3827370
  43.6945010  93.5060050  32.0953180  44.5824630  93.8177280  31.9204520
  43.6650100  92.6332300  31.7033760  34.8036100  98.4117460  37.5014050
  35.3214770  97.6085720  37.4470940  34.3520120  98.3496600  38.3430880
  39.6905600  99.6783740  32.7741350  40.0321300 100.4225970  32.2784670
  38.8618310  99.9914860  33.1366180  32.2880640  95.3778830  44.4139750
  31.9295580  96.0432680  45.0013090  31.9935200  94.5462380  44.7852370
  35.4893760  95.8363070  47.2979300  35.1893900  95.9820250  46.4007120
  36.2605000  95.2768360  47.2052690  47.0433420  97.2739410  44.6403010
  46.3181610  97.8668190  44.4432400  47.5708880  97.2662950  43.8416380
  38.6596290  99.7597270  35.5457270  39.3467420 100.3066480  35.9264860
  37.8728710 100.3038000  35.5806880  30.7988690  95.3770090  31.0374350
  31.6683540  95.6594890  31.3210270  30.3079010  96.1905960  30.9223160
  37.9623500  96.7643300  35.1582630  38.4186280  97.5748550  35.3842820
  37.6111710  96.4466440  35.9901120  33.8635280  87.1080950  35.6305150
  33.7349910  87.0998850  36.5790070  33.0397300  87.4464040  35.2796160
  45.3843910 100.5630610  30.8291520  45.1581490  99.8461050  31.4216160
  44.9940110 100.3143050  29.9913270  31.1659940 104.5897470  31.6035980
  31.5257580 105.1886810  30.9493250  31.0252280 105.1357360  32.3771010
  44.9660160  98.4802550  32.4905680  44.6781860  98.9415240  33.2783560
  45.7612330  98.0200320  32.7589900  31.1501800 102.8552330  46.0778380
  31.2592920 101.9147070  45.9373770  30.4982360 103.1207080  45.4292110
  37.1828560 101.9728670  32.4209650  37.1738660 102.7058360  31.8054160
  36.2626920 101.7260250  32.5136610  32.7835200  97.1943560  33.1656410
  32.1763150  97.9342460  33.1751710  33.2584550  97.2842920  32.3394610
  45.7230020  90.3151320  33.6500860  45.0943180  90.4196990  32.9359090
  45.2281940  90.5348100  34.4394740  40.1688160 102.0356910  31.0834840
  40.2700140 101.8320900  30.1536820  39.2689900 101.7815190  31.2882620
  37.6914050  92.5937270  35.0658740  36.9830200  93.0623610  35.5072350
  37.9758530  91.9359280  35.7003930  39.3169980  94.0133970  43.0651270
  39.8155230  94.4879790  43.7303120  39.4592930  93.0897490  43.2721300
  41.7229480  89.3187930  36.5054530  41.5997260  89.3374060  35.5564040
  42.6714040  89.3666870  36.6252930  38.8106270 104.5543230  35.7782510
  39.0647770 104.5164620  34.8561880  37.8618750 104.4276560  35.7710760
  35.8949070  90.9022350  32.4409450  36.7439600  91.3392500  32.3749640
  35.5280340  91.2142610  33.2681510  46.5236840  90.2301930  43.9079660
  46.0210440  90.9707330  44.2473470  47.3393500  90.6185930  43.5916450
  44.8158850  95.4735110  37.3541020  43.8748990  95.4885340  37.5288710
  45.1302920  94.6871070  37.8001320  34.7940490  97.1554710  30.9144980
  35.5603760  97.0436070  31.4770410  34.8715180  96.4592680  30.2621750
  33.4887250  94.5879780  31.5977870  33.5690840  93.6407290  31.7095270
  34.3807000  94.9186660  31.7038530  34.2901960 104.7375170  38.7012410
  35.0264440 104.1890630  38.9720980  34.6742880 105.6031180  38.5618400
  31.1747440 100.8048740  34.5753920  30.2487220 101.0469880  34.5659330
  31.6403870 101.6323000  34.4538670  37.4004270 103.9105480  30.5237980
  38.1932880 104.1994310  30.0719770  36.8808620 103.4797650  29.8450460
  46.4534440 103.1375610  31.9474720  46.1675950 102.7240750  31.1328900
  46.2553990 104.0663320  31.8275240  31.0158050  96.4094700  46.8334040
  31.5197070  95.8301980  47.4050270  30.2765470  96.6934930  47.3710410
  37.9181670  99.1308890  30.3880330  37.8132310  98.5161240  31.1141710
  37.7505890  98.6074780  29.6043340  41.1584400  98.1928920  30.9922320
  40.6094500  98.6398220  31.6365060  41.7803660  97.6878170  31.5159990
  33.0481130  94.5524290  47.7284110  33.0886470  94.2538160  48.6369340
  33.9026630  94.9531900  47.5691630  36.8259520  97.1519840  32.8887620
  37.2475940  96.9859710  33.7319010  36.9510360  96.3420070  32.3942760
  39.3387160  96.1757450  30.1364720  39.8592820  95.4606470  29.7705870
  39.9855560  96.8143320  30.4365230  44.3587170  94.9382010  47.4638940
  44.9407940  94.1834330  47.3759420  44.5348940  95.4689450  46.6870420
  38.2420680  88.6552000  42.8083280  37.7937980  88.6776260  41.9628830
  37.6085880  88.2571020  43.4053580  40.9844130  95.2822510  44.8133560
  41.1040340  94.6863650  45.5528400  41.8438130  95.3192200  44.3934860
  43.3232030  95.8359700  43.3896070  42.7967250  96.3602320  42.7861210
  43.6663370  96.4687090  44.0205800  35.7218420  93.2253070  29.8345780
  35.5207480  92.3620430  30.1959120  35.5510470  93.1386430  28.8967380
  37.7512900  91.8243860  46.0709380  38.3412590  91.5159710  46.7587200
  36.9333140  91.3523610  46.2269280  43.2006730  88.0361300  32.3632660
  43.4809020  87.1929200  32.7192080  42.4272460  88.2684410  32.8771410
  34.5201220  90.3253690  29.8223660  34.8227120  90.3321120  28.9142810
  35.2595810  89.9751550  30.3191320  37.7386150  89.2688310  30.8079860
  37.3908150  88.5912300  30.2282310  37.9398920  88.8077820  31.6223250
  39.9035190 104.2569060  32.4266460  40.7985980 104.5954030  32.4485220
  39.9352820 103.5348470  31.7990740  33.5431350  99.6296110  30.6553460
  33.9806220 100.1725780  31.3111040  34.0279080  98.8043060  30.6649800
  30.7577150 102.4185140  38.1073720  31.0880160 101.5506200  37.8752360
  31.1868150 102.6243660  38.9378680  35.3539070 100.7494150  35.7675690
  35.0534610 100.6259120  36.6679600  35.2476560  99.8902740  35.3591420
  48.1230990 100.5290550  30.4702370  47.2923950 100.5967200  30.9409600
  48.3002820 101.4194670  30.1669230  31.0791790  95.7975960  37.2044230
  30.4240630  95.5287600  36.5603930  31.9169740  95.6880440  36.7546210
  44.0282230  90.5917250  31.4262720  44.4467110  90.4048230  30.5859380
  43.7218290  89.7396300  31.7365650  46.9171580  94.6512910  44.7578040
  46.6857670  94.4225660  43.8575990  47.1776130  95.5712460  44.7122930
  30.2929870  93.0074890  33.1469560  29.3893950  93.2705090  32.9721220
  30.7770490  93.2786060  32.3669520  46.8022920  93.7298880  38.4245760
  47.3260400  93.2361530  37.7935930  47.3882340  93.8649240  39.1693330
  46.9812640  93.8138750  41.9465310  46.0315350  93.7802290  42.0610300
  47.1625650  94.7238860  41.7115080  32.8357080  92.0640430  31.0563940
  33.5448780  91.6423650  30.5711220  32.1197020  92.1315660  30.4247290
  32.4831240  88.1179760  30.0966590  33.2059370  88.6588700  30.4147810
  32.7555760  87.8443180  29.2208130  46.2922890  92.9872230  34.3638170
  46.7882010  92.7543100  35.1487050  46.0938960  92.1484070  33.9475810
  47.7210050  91.6233180  36.8975850  47.6109330  91.4689220  37.8358120
  48.4817640  91.0954120  36.6551260  46.0675770  87.5627310  43.3558850
  46.7047990  88.1761450  43.7218040  46.2150660  87.5987970  42.4108080
  48.6100320  89.4541100  30.1381990  49.5349630  89.3222280  29.9300280
  48.5876110  89.5333920  31.0918440  48.6838810  90.2251760  32.7638700
  47.8890310  90.1596880  33.2931610  48.8882090  91.1602400  32.7524050
  33.5319800 100.6961220  46.9067720  33.4889430 100.3254130  47.7882180
  33.6630810 101.6338790  47.0469540  48.4929990 104.2715190  43.3088080
  47.9988270 104.6684060  42.5915210  47.8843280 103.6464400  43.7025360
  36.6065160 103.2226850  39.7622950  37.1230180 102.6114210  39.2371210
  37.2562540 103.7255630  40.2533960  45.1158740  88.5548640  39.2137530
  45.5566830  88.4993740  38.3659130  44.8466330  89.4706650  39.2847710
  46.9797310  88.1863880  37.2246350  46.9185710  87.2425100  37.0777370
  47.7589340  88.2943970  37.7699810  31.2850060 104.3256240  36.1870300
  31.1172100 103.6926920  36.8852190  30.4184570 104.5315640  35.8364490
  31.9078080  88.1573020  33.6902160  32.6657440  88.2701900  33.1166190
  31.4455250  88.9942220  33.6445590  38.4491890  90.2712290  36.6804470
  37.6366400  89.8969180  36.3400350  38.9533530  89.5157370  36.9825660
  46.0951470  87.3376300  33.1927820  46.2902100  88.2359750  33.4595250
  45.3081340  87.1063380  33.6860770  32.8912760 103.0189470  33.6320440
  32.3660380 103.3997500  32.9282400  32.8157340 103.6440240  34.3530150
  34.2803230  88.6837070  32.2304130  34.8095990  87.8966870  32.1012080
  34.9131550  89.3628260  32.4639660  36.4741070  88.4212210  35.2849520
  35.8443810  87.7199520  35.4519650  35.9346210  89.1816340  35.0682680
  35.4905730 104.9671850  32.5069690  36.2224550 104.6831130  31.9593580
  35.7499400 104.7285130  33.3969070  34.6520520 101.0836580  32.5116020
  34.0229400 101.5521680  33.0601850  34.7668350 100.2385800  32.9462210
  42.1070240  95.1342240  18.6617220  42.0264290  94.2196850  18.3908930
  41.6934660  95.6309310  17.9556930  40.2388280  96.9121260  20.5426490
  39.4630380  96.4321700  20.8325060  40.8901210  96.2326910  20.3682650
  34.2554110  97.2241070  21.4202250  33.4238990  96.9689780  21.8198760
  34.8635090  97.2951840  22.1560170  44.2595710 101.3181450  19.3225620
  43.7977240 100.5468690  19.6512790  45.0721260 101.3447520  19.8278070
  34.2355370 101.2581160  21.6160270  34.5383410 100.3678900  21.4370490
  34.9798960 101.8151380  21.3882520  32.6646060  92.1842960  15.2044640
  31.7762760  92.5258930  15.1024520  32.9487250  91.9843280  14.3125470
  30.6279070  94.7848610  21.0884340  31.1995180  94.0170810  21.0887980
  30.6280610  95.0837370  20.1790950  40.4859020 103.6039460  18.9429610
  39.8670460 104.0596960  18.3724050  41.3410800 103.7590920  18.5419310
  39.6797270  99.5878450  20.5496650  39.6105550  98.6468390  20.3885780
  40.4417130  99.6779860  21.1219220  31.8703940  90.1932970  22.8753270
  31.6906780  89.2958720  23.1556030  31.4684020  90.7404840  23.5500220
  40.7102440  92.3948830  20.7765580  41.0867260  91.5220710  20.6639250
  40.6121950  92.7307530  19.8856020  34.8407450  90.7674460  16.2383020
  34.9474200  91.6678190  16.5451780  33.9299810  90.7192430  15.9477670
  44.4926560  89.8899270  17.7093920  45.3136180  89.3995840  17.7519400
  44.5260640  90.4796930  18.4625760  32.4890610  92.6893470  21.4835610
  33.1700720  92.9531840  22.1023010  32.1738660  91.8494340  21.8173620
  36.6815180  93.7360830  20.5708200  37.1893400  94.2341800  21.2113220
  37.2128420  92.9596030  20.3947560  34.9651280  88.3759390  24.8371620
  34.9669720  88.8931780  24.0317520  34.1355590  87.8989570  24.8141550
  41.3522370  98.4878700  16.3361520  40.7339640  98.9528150  15.7724240
  41.8645620  99.1806180  16.7531030  36.2154130  98.0154570  23.0145120
  35.8823510  98.6423490  23.6566190  36.3920810  98.5416450  22.2346790
  44.7288040  91.8299650  20.4821460  44.0243610  92.1184540  21.0624570
  45.0900200  92.6399760  20.1221020  34.6466610  90.0869350  22.8442070
  34.9883420  90.9311400  22.5495940  33.7082420  90.2353090  22.9607410
  35.4273230  99.9835370  24.8294300  36.0447230 100.6586450  24.5478750
  34.5666350 100.3923350  24.7381800  30.7205570  99.1735230  13.7101150
  30.3433550  99.6622330  12.9786050  30.9778640  99.8460510  14.3407680
  46.3450820 101.4474780  22.7448940  45.6614340 102.1173890  22.7365610
  46.8845110 101.6455430  21.9793800  47.7974960  91.2754440  20.8730670
  46.8499870  91.3093420  21.0046100  48.1224950  92.0893390  21.2580030
  38.3294500  87.5751620  19.1686660  38.6369480  87.0198510  18.4522160
  37.3995200  87.7096080  18.9859650  43.8809560 103.2918910  21.4594120
  43.8936720 102.8881200  20.5916380  43.3284780 104.0666200  21.3555550
  45.1754980 100.0135130  16.5484290  45.0651310  99.0709460  16.6733710
  45.1723230 100.3750770  17.4347050  43.2795000  98.1948750  22.7876730
  43.6963790  97.9808860  21.9530190  44.0034820  98.4521540  23.3585350
  40.7175260  95.6400450  15.9046780  39.7904540  95.5737830  16.1335250
  40.8700080  96.5780580  15.7902020  40.7044340  91.9117450  12.9013940
  39.7648010  92.0731410  12.9866400  41.0227600  92.6303130  12.3549930
  44.7472550  97.2020750  16.4082030  44.1284970  96.8640300  15.7608330
  44.7297000  96.5580510  17.1161220  36.3231900  96.1665190  18.6866510
  35.9188900  95.4542440  18.1912410  36.4095020  95.8218430  19.5754550
  36.7913600  99.8532750  20.8505720  36.4941890  99.2478220  20.1713500
  37.7413420  99.8910060  20.7395080  35.0360520  92.9408400  22.4665550
  35.5875110  93.0503740  21.6918800  35.5504030  93.3146000  23.1820780
  44.8799210 103.4264620  24.5128820  44.4029770 104.2336810  24.3201430
  44.1961000 102.7742950  24.6655030  35.8832030  99.5914440  27.5013520
  34.9860560  99.8154410  27.7486920  35.9084900  99.7149380  26.5524920
  42.9237250  96.4407560  13.4154780  43.3630530  95.6029990  13.2692600
  43.6365670  97.0736960  13.5018920  34.7103250  96.4627760  26.0770890
  34.5711020  97.3350560  26.4458290  33.8284610  96.1200570  25.9318830
  41.0332630 101.3803630  17.3836020  41.4728540 102.1227960  16.9691410
  40.9719520 101.6230200  18.3074980  36.5083600 102.4049460  28.2856040
  36.4799030 102.8092410  27.4184470  36.3448570 101.4759820  28.1227640
  46.5054390  87.6950370  11.7295820  46.1927050  87.7877200  12.6294890
  47.2666860  88.2731400  11.6793250  33.0236530  95.0610170  16.1873160
  32.9034130  95.7872260  15.5754430  32.7137420  94.2913080  15.7101070
  48.4598420 103.1876560  29.5820210  48.9358140 103.6659450  30.2609290
  49.0805580 103.1194050  28.8565710  30.6621900  98.2325310  21.9941800
  30.7402320  98.3674080  21.0497520  31.2763580  97.5241200  22.1869920
  31.9069530  99.9325500  18.4047980  31.4997610 100.0740090  17.5501580
  32.7982540  99.6485660  18.2019190  47.8631670 100.3789410  26.7420220
  47.9894730 100.1401290  25.8237400  47.9053050  99.5473950  27.2142300
  41.7248410 104.0817410  25.3115030  42.2393080 103.9925420  26.1137460
  40.8817490 104.4277110  25.6042940  43.7002810 104.3672750  14.7399030
  43.5403950 104.0775690  15.6380860  43.5349520 103.5912880  14.2044260
  36.1791190 104.1471280  16.5170650  36.0033670 103.2306820  16.3038450
  35.3246930 104.5058570  16.7568450  43.4028940 101.8760310  13.2997030
  42.7094100 101.8737600  12.6399310  44.1451800 101.4519630  12.8691200
  42.9678870 103.5023020  17.3745520  43.4235820 102.7212400  17.6884140
  43.3071390 104.2129840  17.9186700  30.7181420  99.2739480  24.5336260
  30.8812460  98.8044840  23.7155630  31.1833870  98.7663040  25.1985100
  35.4900190  88.4045240  19.5696830  35.0468340  89.1854780  19.2381350
  36.0485180  88.7275130  20.2767770  39.7770000  91.2713760  25.1732150
  39.3149370  91.4796780  25.9852090  39.3748110  90.4573110  24.8702820
  38.6059010  88.0255940  14.4502660  37.9813190  88.0215810  15.1755970
  38.5189130  87.1586900  14.0538630  37.5276090  88.9492570  21.4286430
  37.8248420  89.8555400  21.3478450  38.0761650  88.4611350  20.8146000
  35.2814410  93.5278810  17.2978080  35.0555330  93.3115980  18.2024700
  34.5006940  93.9607270  16.9524050  42.5112170  93.5342180  15.8968730
  41.9121060  94.2577980  15.7132350  43.0591780  93.4718960  15.1145180
  37.7213620  94.4264390  27.9638350  37.6257220  93.4859120  27.8138750
  38.5645600  94.6479460  27.5686420  41.1177040  92.1705720  17.9272010
  41.5106610  92.4877920  17.1140700  41.4793890  91.2917600  18.0416530
  32.8524160  90.8378060  26.1172130  32.4587550  91.6853270  26.3244910
  32.1642560  90.2004430  26.3080770  39.4269210  90.9213030  29.1868870
  38.7367530  90.7285230  29.8214960  40.1701510  91.2047670  29.7193170
  30.1541210  88.7606520  20.1502210  29.8654260  89.3309380  20.8627190
  30.8986970  88.2810970  20.5133440  30.3411440  92.7026640  11.3604930
  30.2586110  93.6457400  11.5019920  29.9894500  92.5601550  10.4817280
  41.7032180  94.7611470  22.0222790  40.9713300  95.2698280  22.3712890
  41.3056520  93.9441450  21.7211570  38.1409570  91.4365670  20.4275280
  38.1445630  90.9955620  19.5779820  39.0360690  91.7583000  20.5347100
  33.9911950  91.3192160  19.3869490  33.6512000  91.7967390  20.1436540
  33.2289270  90.8657280  19.0270590  38.2029720  92.4377750  13.4182040
  38.3242540  92.3964230  14.3667860  37.8178230  93.3001900  13.2628770
  42.1658090  90.2145150  21.4345730  42.1830830  90.6653800  22.2787580
  41.9173670  89.3150790  21.6479170  37.2151220  94.7478890  12.8165340
  36.6468120  94.2997140  12.1901250  37.9240220  95.1071670  12.2830490
  45.5928840  87.6277330  27.2732110  45.9174610  86.8966990  27.7990090
  45.6285350  87.3090970  26.3713100  32.2920400  98.6490910  26.6932070
  31.9075190  98.0084580  27.2915030  32.6032590  99.3527030  27.2626800
  38.4417540  95.4967450  22.1740690  38.8087670  95.0226020  22.9202030
  38.2522600  96.3709020  22.5149030  31.3058030  90.2411140  18.3034160
  31.0204950  89.8766810  19.1412780  31.2436890  89.5091600  17.6897300
  36.2316910  94.5376090  24.4924900  35.9273980  95.4168070  24.7175260
  37.1863370  94.5975880  24.5282340  34.7598700  98.7437080  15.0891750
  33.9860960  98.2034700  14.9290470  35.4893330  98.2243690  14.7509510
  45.5186680  97.7402440  20.8818140  46.2385800  98.2357730  20.4914250
  45.3168500  97.0620330  20.2372010  40.9796620  89.1340400  15.0247530
  40.1661230  88.6353570  14.9492840  40.7858570  89.9738650  14.6083880
  40.9005480  97.8111500  26.7687140  40.8342790  96.8907170  26.5144730
  40.2710620  97.9086940  27.4831780  43.6945010  93.5060050  13.3209690
  44.5824630  93.8177280  13.1461030  43.6650100  92.6332300  12.9290270
  34.8036100  98.4117460  18.7270560  35.3214770  97.6085720  18.6727450
  34.3520120  98.3496600  19.5687390  39.6905600  99.6783740  13.9997860
  40.0321300 100.4225970  13.5041180  38.8618310  99.9914860  14.3622690
  32.2880640  95.3778830  25.6396260  31.9295580  96.0432680  26.2269600
  31.9935200  94.5462380  26.0108880  35.4893760  95.8363070  28.5235810
  35.1893900  95.9820250  27.6263630  36.2605000  95.2768360  28.4309200
  40.8322210 100.6332070  26.5190940  40.8466750  99.7013030  26.3009850
  40.1247310 100.7191830  27.1580710  45.9659280  94.8171890  12.7889550
  45.8823000  95.2486110  11.9385990  46.6853470  95.2770240  13.2216370
  46.9946530 101.6714150  15.5171680  46.3522690 101.0169770  15.7915400
  46.6077190 102.0769240  14.7412350  42.5733010  98.9999580  19.3643370
  42.9256830  98.4027710  18.7044740  41.6895340  98.6743810  19.5351620
  38.6596290  99.7597270  16.7713780  39.3467420 100.3066480  17.1521370
  37.8728710 100.3038000  16.8063390  30.7988690  95.3770090  12.2630860
  31.6683540  95.6594890  12.5466780  30.3079010  96.1905960  12.1479670
  37.9623500  96.7643300  16.3839140  38.4186280  97.5748550  16.6099330
  37.6111710  96.4466440  17.2157630  40.2656110 102.2749640  23.6131440
  40.9098330 102.4809020  24.2904860  40.6285550 101.5138040  23.1602290
  33.8635280  87.1080950  16.8561660  33.7349910  87.0998850  17.8046580
  33.0397300  87.4464040  16.5052670  41.5388190 100.2781990  22.3308890
  42.1810420  99.5775150  22.4441060  42.0637540 101.0580430  22.1505780
  45.3843910 100.5630610  12.0548030  45.1581490  99.8461050  12.6472670
  44.9940110 100.3143050  11.2169780  43.3125810 101.0776890  25.5344950
  43.6482050 101.6643580  26.2122870  42.3926150 100.9469600  25.7642740
  31.1659940 104.5897470  12.8292490  31.5257580 105.1886810  12.1749760
  31.0252280 105.1357360  13.6027520  30.8629210  88.8672070  26.3168360
  30.1487730  89.0668990  26.9220970  31.2824250  88.0911640  26.6883160
  44.9660160  98.4802550  13.7162190  44.6781860  98.9415240  14.5040070
  45.7612330  98.0200320  13.9846410  31.1501800 102.8552330  27.3034890
  31.2592920 101.9147070  27.1630280  30.4982360 103.1207080  26.6548620
  39.1414390 101.1268220  28.7033010  38.8211260 100.4077460  29.2478700
  38.4672750 101.8023290  28.7769070  37.1828560 101.9728670  13.6466160
  37.1738660 102.7058360  13.0310670  36.2626920 101.7260250  13.7393120
  32.7835200  97.1943560  14.3912920  32.1763150  97.9342460  14.4008220
  33.2584550  97.2842920  13.5651120  42.3567990  91.3594380  24.0669810
  42.7248810  90.5389590  24.3949380  41.4966190  91.4196270  24.4825460
  45.7230020  90.3151320  14.8757370  45.0943180  90.4196990  14.1615600
  45.2281940  90.5348100  15.6651250  40.1688160 102.0356910  12.3091350
  40.2700140 101.8320900  11.3793330  39.2689900 101.7815190  12.5139130
  37.6914050  92.5937270  16.2915250  36.9830200  93.0623610  16.7328860
  37.9758530  91.9359280  16.9260440  39.3169980  94.0133970  24.2907780
  39.8155230  94.4879790  24.9559630  39.4592930  93.0897490  24.4977810
  41.7229480  89.3187930  17.7311040  41.5997260  89.3374060  16.7820550
  42.6714040  89.3666870  17.8509440  38.8106270 104.5543230  17.0039020
  39.0647770 104.5164620  16.0818390  37.8618750 104.4276560  16.9967270
  35.8949070  90.9022350  13.6665960  36.7439600  91.3392500  13.6006150
  35.5280340  91.2142610  14.4938020  44.8158850  95.4735110  18.5797530
  43.8748990  95.4885340  18.7545220  45.1302920  94.6871070  19.0257830
  34.7940490  97.1554710  12.1401490  35.5603760  97.0436070  12.7026920
  34.8715180  96.4592680  11.4878260  33.4887250  94.5879780  12.8234380
  33.5690840  93.6407290  12.9351780  34.3807000  94.9186660  12.9295040
  46.8184430 102.6443960  20.2551790  46.9431850 103.4675130  20.7275600
  47.6849990 102.4334690  19.9075940  34.2901960 104.7375170  19.9268920
  35.0264440 104.1890630  20.1977490  34.6742880 105.6031180  19.7874910
  31.1747440 100.8048740  15.8010430  30.2487220 101.0469880  15.7915840
  31.6403870 101.6323000  15.6795180  33.2960240 103.9221240  29.1154500
  34.0972970 104.2433290  29.5289900  32.7812060 103.5616820  29.8374410
  37.4004270 103.9105480  11.7494490  38.1932880 104.1994310  11.2976280
  36.8808620 103.4797650  11.0706970  42.1324870 100.0301110  29.0629910
  41.5263030 100.0532710  28.3225660  41.8278980  99.2984150  29.5997160
  43.5625240 103.7581400  27.6739320  44.5146990 103.6739420  27.6239560
  43.4153460 104.4223110  28.3473110  46.4534440 103.1375610  13.1731230
  46.1675950 102.7240750  12.3585410  46.2553990 104.0663320  13.0531750
  31.0158050  96.4094700  28.0590550  31.5197070  95.8301980  28.6306780
  30.2765470  96.6934930  28.5966920  37.9181670  99.1308890  11.6136840
  37.8132310  98.5161240  12.3398220  37.7505890  98.6074780  10.8299850
  38.0695990  97.8165690  27.5926070  37.3041660  98.3850690  27.5080740
  38.2511950  97.5241900  26.6994300  41.1584400  98.1928920  12.2178830
  40.6094500  98.6398220  12.8621570  41.7803660  97.6878170  12.7416500
  45.2119340  99.5471020  28.1501090  45.9528810  99.8846780  27.6468550
  44.4492020  99.7163080  27.5970860  33.0481130  94.5524290  28.9540620
  33.0886470  94.2538160  29.8625850  33.9026630  94.9531900  28.7948140
  36.8259520  97.1519840  14.1144130  37.2475940  96.9859710  14.9575520
  36.9510360  96.3420070  13.6199270  34.9886940  93.1316390  26.9215110
  34.4583400  92.6407340  26.2938450  35.6575010  93.5600590  26.3873040
  39.3387160  96.1757450  11.3621230  39.8592820  95.4606470  10.9962380
  39.9855560  96.8143320  11.6621740  35.4759240  90.0978760  27.0012400
  35.3816110  89.4799510  26.2763270  34.8956630  90.8245050  26.7742310
  38.2420680  88.6552000  24.0339790  37.7937980  88.6776260  23.1885340
  37.6085880  88.2571020  24.6310090  38.6480230  97.5506330  24.6552230
  39.0668340  98.3939060  24.4828470  37.7288860  97.6878370  24.4259010
  40.9844130  95.2822510  26.0390070  41.1040340  94.6863650  26.7784910
  41.8438130  95.3192200  25.6191370  35.7218420  93.2253070  11.0602290
  35.5207480  92.3620430  11.4215630  35.5510470  93.1386430  10.1223890
  36.4987650 103.8559340  25.7709960  35.9608740 104.5805400  25.4518660
  36.7521610 103.3789680  24.9807300  37.7512900  91.8243860  27.2965890
  38.3412590  91.5159710  27.9843710  36.9333140  91.3523610  27.4525790
  42.5706330  91.4409670  27.5298910  41.8821850  90.7791210  27.4648900
  43.2912350  90.9947940  27.9747370  43.2006730  88.0361300  13.5889170
  43.4809020  87.1929200  13.9448590  42.4272460  88.2684410  14.1027920
  34.5201220  90.3253690  11.0480170  34.8227120  90.3321120  10.1399320
  35.2595810  89.9751550  11.5447830  39.3549860 105.0910550  26.0296610
  39.2808560 105.9945690  26.3368980  38.4528700 104.7722450  26.0018680
  37.7386150  89.2688310  12.0336370  37.3908150  88.5912300  11.4538820
  37.9398920  88.8077820  12.8479760  39.9035190 104.2569060  13.6522970
  40.7985980 104.5954030  13.6741730  39.9352820 103.5348470  13.0247250
  33.5431350  99.6296110  11.8809970  33.9806220 100.1725780  12.5367550
  34.0279080  98.8043060  11.8906310  30.7577150 102.4185140  19.3330230
  31.0880160 101.5506200  19.1008870  31.1868150 102.6243660  20.1635190
  35.3539070 100.7494150  16.9932200  35.0534610 100.6259120  17.8936110
  35.2476560  99.8902740  16.5847930  31.2467360 103.2855730  22.0711860
  30.8098350 103.4656530  22.9036010  31.8145040 104.0430350  21.9293580
  46.8829540 102.7872730  26.3589170  46.2831530 102.8465290  25.6153090
  47.0123440 101.8477710  26.4886020  48.1230990 100.5290550  11.6958880
  47.2923950 100.5967200  12.1666110  48.3002820 101.4194670  11.3925740
  47.5787450  97.2738030  14.1993080  48.3406360  97.8434680  14.3052770
  47.5941820  96.7065230  14.9701390  31.0791790  95.7975960  18.4300740
  30.4240630  95.5287600  17.7860440  31.9169740  95.6880440  17.9802720
  48.5847420  98.1288130  19.0435010  48.9556250  97.3455450  18.6370980
  49.2249350  98.8177230  18.8652310  45.5681180  99.5124710  24.4565330
  44.7541020  99.9421870  24.7191120  45.9755380 100.1243120  23.8434380
  47.6306620  97.5672400  11.3565600  47.9055460  98.4751280  11.2284820
  47.4417360  97.5034930  12.2927590  44.0282230  90.5917250  12.6519230
  44.4467110  90.4048230  11.8115890  43.7218290  89.7396300  12.9622160
  47.5271960  95.5041390  16.3495030  47.1515560  94.7369320  15.9176320
  46.7975080  95.8864090  16.8369960  32.1167720  96.1828530  22.9704080
  32.4840760  96.0955930  23.8500100  31.5478540  95.4195080  22.8710940
  31.6683720  93.0937620  26.8762500  30.7739770  93.0604380  27.2156210
  32.2081270  93.2924410  27.6413750  45.3559650  89.8769340  28.7614250
  46.2329830  89.8852740  29.1448250  45.3680490  89.1400180  28.1506600
  30.2929870  93.0074890  14.3726070  29.3893950  93.2705090  14.1977730
  30.7770490  93.2786060  13.5926030  46.8022920  93.7298880  19.6502270
  47.3260400  93.2361530  19.0192440  47.3882340  93.8649240  20.3949840
  32.8357080  92.0640430  12.2820450  33.5448780  91.6423650  11.7967730
  32.1197020  92.1315660  11.6503800  32.4831240  88.1179760  11.3223100
  33.2059370  88.6588700  11.6404320  32.7555760  87.8443180  10.4464640
  46.2922890  92.9872230  15.5894680  46.7882010  92.7543100  16.3743560
  46.0938960  92.1484070  15.1732320  32.1723430  87.3685950  21.2245720
  32.8199620  86.8183330  20.7840880  32.5925270  87.6229100  22.0461530
  47.7210050  91.6233180  18.1232360  47.6109330  91.4689220  19.0614630
  48.4817640  91.0954120  17.8807770  46.0675770  87.5627310  24.5815360
  46.7047990  88.1761450  24.9474550  46.2150660  87.5987970  23.6364590
  48.6100320  89.4541100  11.3638500  49.5349630  89.3222280  11.1556790
  48.5876110  89.5333920  12.3174950  48.6838810  90.2251760  13.9895210
  47.8890310  90.1596880  14.5188120  48.8882090  91.1602400  13.9780560
  45.6257230 104.2643310  17.9833600  46.2216300 103.9427880  17.3068020
  45.8835380 103.7915130  18.7746870  31.9255430  87.5241620  23.9671040
  31.5770250  87.9805440  24.7329220  31.5943130  86.6298750  24.0493470
  33.5319800 100.6961220  28.1324230  33.4889430 100.3254130  29.0138690
  33.6630810 101.6338790  28.2726050  37.2325830 102.2520810  23.7333950
  36.9917190 102.5195370  22.8464470  38.1728470 102.4226540  23.7884810
  39.4380250  88.7153500  27.4890460  39.3769140  89.3075330  28.2385870
  40.3780630  88.6079460  27.3440720  42.0754810  88.3723560  27.1282750
  42.6895220  88.6902850  26.4663830  42.6204370  87.8872150  27.7478610
  48.4929990 104.2715190  24.5344590  47.9988270 104.6684060  23.8171720
  47.8843280 103.6464400  24.9281870  32.5976070  87.0517820  27.2421810
  33.1459060  86.8705870  26.4787920  32.6631380  86.2611930  27.7778120
  33.3707830 103.6423470  25.2522010  32.7768150 103.5108170  25.9912050
  33.3631670 102.8061610  24.7864110  42.8162850  86.9355700  23.4552040
  41.9422690  87.2690810  23.2524970  42.7073600  86.4628880  24.2803910
  43.7234830  89.1426570  24.8393760  43.3948190  88.3278330  24.4595490
  44.6717130  89.0996380  24.7159450  46.1769440 104.9138610  21.8131330
  45.7172410 105.6654420  21.4389350  45.5481900 104.1945080  21.7546130
  33.0020060 101.0081850  24.2030050  32.2754120 100.3887140  24.1356000
  33.0629210 101.4022460  23.3328130  36.6065160 103.2226850  20.9879460
  37.1230180 102.6114210  20.4627720  37.2562540 103.7255630  21.4790470
  39.3460660 104.1135340  21.8148440  39.6338470 103.8589640  20.9381450
  39.8583880 103.5612700  22.4054010  40.5637670  87.8525540  22.3944950
  39.7809460  88.3271040  22.6741710  40.2700600  86.9480370  22.2858130
  45.1158740  88.5548640  20.4394040  45.5566830  88.4993740  19.5915640
  44.8466330  89.4706650  20.5104220  46.9797310  88.1863880  18.4502860
  46.9185710  87.2425100  18.3033880  47.7589340  88.2943970  18.9956320
  31.2850060 104.3256240  17.4126810  31.1172100 103.6926920  18.1108700
  30.4184570 104.5315640  17.0621000  31.9078080  88.1573020  14.9158670
  32.6657440  88.2701900  14.3422700  31.4455250  88.9942220  14.8702100
  38.4491890  90.2712290  17.9060980  37.6366400  89.8969180  17.5656860
  38.9533530  89.5157370  18.2082170  42.9516870  86.9354740  19.1444050
  43.5546240  87.5074950  19.6192570  42.2109860  87.4994180  18.9217950
  46.0951470  87.3376300  14.4184330  46.2902100  88.2359750  14.6851760
  45.3081340  87.1063380  14.9117280  32.8912760 103.0189470  14.8576950
  32.3660380 103.3997500  14.1538910  32.8157340 103.6440240  15.5786660
  34.2803230  88.6837070  13.4560640  34.8095990  87.8966870  13.3268590
  34.9131550  89.3628260  13.6896170  36.4741070  88.4212210  16.5106030
  35.8443810  87.7199520  16.6776160  35.9346210  89.1816340  16.2939190
  39.4133020 105.0351440  29.1816640  40.3400330 104.7995710  29.2252600
  39.3983450 105.8623440  28.7002670  47.6478080 104.5777010  16.1790890
  47.8230270 103.8914750  15.5351810  46.9499650 105.1024060  15.7867560
  36.5996630  87.6996190  28.9458520  36.3180900  88.2029790  28.1819340
  36.9816330  86.9017940  28.5800650  35.4905730 104.9671850  13.7326200
  36.2224550 104.6831130  13.1850090  35.7499400 104.7285130  14.6225580
  34.6520520 101.0836580  13.7372530  34.0229400 101.5521680  14.2858360
  34.7668350 100.2385800  14.1718720  43.2012090  87.1149770  29.5238990
  43.0877540  87.4344380  30.4190510  44.0181830  87.5162280  29.2276270
  45.9810580 104.2621300  29.0057680  46.7735900 103.7670530  28.7983640
  46.2743730 104.9411440  29.6133290  40.2388280  96.9121260   1.7683000
  39.4630380  96.4321700   2.0581570  40.8901210  96.2326910   1.5939160
  34.2554110  97.2241070   2.6458760  33.4238990  96.9689780   3.0455270
  34.8635090  97.2951840   3.3816680  34.2355370 101.2581160   2.8416780
  34.5383410 100.3678900   2.6627000  34.9798960 101.8151380   2.6139030
  39.6797270  99.5878450   1.7753160  39.6105550  98.6468390   1.6142290
  40.4417130  99.6779860   2.3475730  31.8703940  90.1932970   4.1009780
  31.6906780  89.2958720   4.3812540  31.4684020  90.7404840   4.7756730
  32.4890610  92.6893470   2.7092120  33.1700720  92.9531840   3.3279520
  32.1738660  91.8494340   3.0430130  36.6815180  93.7360830   1.7964710
  37.1893400  94.2341800   2.4369730  37.2128420  92.9596030   1.6204070
  48.7826110  91.9066020   5.4994060  48.0778280  92.2947730   4.9809170
  49.0484030  92.6016310   6.1014990  34.9651280  88.3759390   6.0628130
  34.9669720  88.8931780   5.2574030  34.1355590  87.8989570   6.0398060
  36.2154130  98.0154570   4.2401630  35.8823510  98.6423490   4.8822700
  36.3920810  98.5416450   3.4603300  34.6466610  90.0869350   4.0698580
  34.9883420  90.9311400   3.7752450  33.7082420  90.2353090   4.1863920
  35.4273230  99.9835370   6.0550810  36.0447230 100.6586450   5.7735260
  34.5666350 100.3923350   5.9638310  46.3450820 101.4474780   3.9705450
  45.6614340 102.1173890   3.9622120  46.8845110 101.6455430   3.2050310
  47.7974960  91.2754440   2.0987180  46.8499870  91.3093420   2.2302610
  48.1224950  92.0893390   2.4836540  43.8809560 103.2918910   2.6850630
  43.8936720 102.8881200   1.8172890  43.3284780 104.0666200   2.5812060
  43.2795000  98.1948750   4.0133240  43.6963790  97.9808860   3.1786700
  44.0034820  98.4521540   4.5841860  47.2257100  96.5935970   4.1049480
  46.3975730  96.6629060   3.6299610  47.8207580  97.1790280   3.6365310
  44.1899110  93.3805290   5.0504350  43.7770290  94.2059000   5.3044340
  43.4575060  92.7950330   4.8580710  35.0360520  92.9408400   3.6922060
  35.5875110  93.0503740   2.9175310  35.5504030  93.3146000   4.4077290
  44.8799210 103.4264620   5.7385330  44.4029770 104.2336810   5.5457940
  44.1961000 102.7742950   5.8911540  35.8832030  99.5914440   8.7270030
  34.9860560  99.8154410   8.9743430  35.9084900  99.7149380   7.7781430
  34.7103250  96.4627760   7.3027400  34.5711020  97.3350560   7.6714800
  33.8284610  96.1200570   7.1575340  36.5083600 102.4049460   9.5112550
  36.4799030 102.8092410   8.6440980  36.3448570 101.4759820   9.3484150
  48.4598420 103.1876560  10.8076720  48.9358140 103.6659450  11.4865800
  49.0805580 103.1194050  10.0822220  30.6621900  98.2325310   3.2198310
  30.7402320  98.3674080   2.2754030  31.2763580  97.5241200   3.4126430
  47.8631670 100.3789410   7.9676730  47.9894730 100.1401290   7.0493910
  47.9053050  99.5473950   8.4398810  41.7248410 104.0817410   6.5371540
  42.2393080 103.9925420   7.3393970  40.8817490 104.4277110   6.8299450
  47.7155680  92.4321870   8.9326470  47.0999950  92.9401540   8.4041930
  47.3952100  91.5320200   8.8752410  30.7181420  99.2739480   5.7592770
  30.8812460  98.8044840   4.9412140  31.1833870  98.7663040   6.4241610
  39.7770000  91.2713760   6.3988660  39.3149370  91.4796780   7.2108600
  39.3748110  90.4573110   6.0959330  44.7774510  92.4922710   7.5285320
  43.9268100  92.1928460   7.8494390  44.6176300  92.7364720   6.6169140
  41.8724220  93.9924460   9.6284110  42.1977630  93.1588210   9.2886340
  42.6604550  94.5152980   9.7762440  37.5276090  88.9492570   2.6542940
  37.8248420  89.8555400   2.5734960  38.0761650  88.4611350   2.0402510
  37.7213620  94.4264390   9.1894860  37.6257220  93.4859120   9.0395260
  38.5645600  94.6479460   8.7942930  32.8524160  90.8378060   7.3428640
  32.4587550  91.6853270   7.5501420  32.1642560  90.2004430   7.5337280
  39.4269210  90.9213030  10.4125380  38.7367530  90.7285230  11.0471470
  40.1701510  91.2047670  10.9449680  41.7032180  94.7611470   3.2479300
  40.9713300  95.2698280   3.5969400  41.3056520  93.9441450   2.9468080
  42.1658090  90.2145150   2.6602240  42.1830830  90.6653800   3.5044090
  41.9173670  89.3150790   2.8735680  45.5928840  87.6277330   8.4988620
  45.9174610  86.8966990   9.0246600  45.6285350  87.3090970   7.5969610
  32.2920400  98.6490910   7.9188580  31.9075190  98.0084580   8.5171540
  32.6032590  99.3527030   8.4883310  38.4417540  95.4967450   3.3997200
  38.8087670  95.0226020   4.1458540  38.2522600  96.3709020   3.7405540
  36.2316910  94.5376090   5.7181410  35.9273980  95.4168070   5.9431770
  37.1863370  94.5975880   5.7538850  45.5186680  97.7402440   2.1074650
  46.2385800  98.2357730   1.7170760  45.3168500  97.0620330   1.4628520
  40.9005480  97.8111500   7.9943650  40.8342790  96.8907170   7.7401240
  40.2710620  97.9086940   8.7088290  32.2880640  95.3778830   6.8652770
  31.9295580  96.0432680   7.4526110  31.9935200  94.5462380   7.2365390
  35.4893760  95.8363070   9.7492320  35.1893900  95.9820250   8.8520140
  36.2605000  95.2768360   9.6565710  40.8322210 100.6332070   7.7447450
  40.8466750  99.7013030   7.5266360  40.1247310 100.7191830   8.3837220
  47.0433420  97.2739410   7.0916030  46.3181610  97.8668190   6.8945420
  47.5708880  97.2662950   6.2929400  40.2656110 102.2749640   4.8387950
  40.9098330 102.4809020   5.5161370  40.6285550 101.5138040   4.3858800
  41.5388190 100.2781990   3.5565400  42.1810420  99.5775150   3.6697570
  42.0637540 101.0580430   3.3762290  43.3125810 101.0776890   6.7601460
  43.6482050 101.6643580   7.4379380  42.3926150 100.9469600   6.9899250
  30.8629210  88.8672070   7.5424870  30.1487730  89.0668990   8.1477480
  31.2824250  88.0911640   7.9139670  31.1501800 102.8552330   8.5291400
  31.2592920 101.9147070   8.3886790  30.4982360 103.1207080   7.8805130
  39.1414390 101.1268220   9.9289520  38.8211260 100.4077460  10.4735210
  38.4672750 101.8023290  10.0025580  42.3567990  91.3594380   5.2926320
  42.7248810  90.5389590   5.6205890  41.4966190  91.4196270   5.7081970
  39.3169980  94.0133970   5.5164290  39.8155230  94.4879790   6.1816140
  39.4592930  93.0897490   5.7234320  46.5236840  90.2301930   6.3592680
  46.0210440  90.9707330   6.6986490  47.3393500  90.6185930   6.0429470
  33.2960240 103.9221240  10.3411010  34.0972970 104.2433290  10.7546410
  32.7812060 103.5616820  11.0630920  42.1324870 100.0301110  10.2886420
  41.5263030 100.0532710   9.5482170  41.8278980  99.2984150  10.8253670
  43.5625240 103.7581400   8.8995830  44.5146990 103.6739420   8.8496070
  43.4153460 104.4223110   9.5729620  31.0158050  96.4094700   9.2847060
  31.5197070  95.8301980   9.8563290  30.2765470  96.6934930   9.8223430
  38.0695990  97.8165690   8.8182580  37.3041660  98.3850690   8.7337250
  38.2511950  97.5241900   7.9250810  45.2119340  99.5471020   9.3757600
  45.9528810  99.8846780   8.8725060  44.4492020  99.7163080   8.8227370
  33.0481130  94.5524290  10.1797130  33.0886470  94.2538160  11.0882360
  33.9026630  94.9531900  10.0204650  34.9886940  93.1316390   8.1471620
  34.4583400  92.6407340   7.5194960  35.6575010  93.5600590   7.6129550
  43.8865000  97.5985850   7.9112810  44.3006020  97.7530930   8.7603230
  42.9516000  97.7241070   8.0738590  44.3587170  94.9382010   9.9151960
  44.9407940  94.1834330   9.8272440  44.5348940  95.4689450   9.1383440
  35.4759240  90.0978760   8.2268910  35.3816110  89.4799510   7.5019780
  34.8956630  90.8245050   7.9998820  38.2420680  88.6552000   5.2596300
  37.7937980  88.6776260   4.4141850  37.6085880  88.2571020   5.8566600
  38.6480230  97.5506330   5.8808740  39.0668340  98.3939060   5.7084980
  37.7288860  97.6878370   5.6515520  40.9844130  95.2822510   7.2646580
  41.1040340  94.6863650   8.0041420  41.8438130  95.3192200   6.8447880
  43.3232030  95.8359700   5.8409090  42.7967250  96.3602320   5.2374230
  43.6663370  96.4687090   6.4718820  36.4987650 103.8559340   6.9966470
  35.9608740 104.5805400   6.6775170  36.7521610 103.3789680   6.2063810
  37.7512900  91.8243860   8.5222400  38.3412590  91.5159710   9.2100220
  36.9333140  91.3523610   8.6782300  42.5706330  91.4409670   8.7555420
  41.8821850  90.7791210   8.6905410  43.2912350  90.9947940   9.2003880
  39.3549860 105.0910550   7.2553120  39.2808560 105.9945690   7.5625490
  38.4528700 104.7722450   7.2275190  31.2467360 103.2855730   3.2968370
  30.8098350 103.4656530   4.1292520  31.8145040 104.0430350   3.1550090
  46.8829540 102.7872730   7.5845680  46.2831530 102.8465290   6.8409600
  47.0123440 101.8477710   7.7142530  45.5681180  99.5124710   5.6821840
  44.7541020  99.9421870   5.9447630  45.9755380 100.1243120   5.0690890
  32.1167720  96.1828530   4.1960590  32.4840760  96.0955930   5.0756610
  31.5478540  95.4195080   4.0967450  46.9171580  94.6512910   7.2091060
  46.6857670  94.4225660   6.3089010  47.1776130  95.5712460   7.1635950
  31.6683720  93.0937620   8.1019010  30.7739770  93.0604380   8.4412720
  32.2081270  93.2924410   8.8670260  45.3559650  89.8769340   9.9870760
  46.2329830  89.8852740  10.3704760  45.3680490  89.1400180   9.3763110
  46.9812640  93.8138750   4.3978330  46.0315350  93.7802290   4.5123320
  47.1625650  94.7238860   4.1628100  32.1723430  87.3685950   2.4502230
  32.8199620  86.8183330   2.0097390  32.5925270  87.6229100   3.2718040
  46.0675770  87.5627310   5.8071870  46.7047990  88.1761450   6.1731060
  46.2150660  87.5987970   4.8621100  31.9255430  87.5241620   5.1927550
  31.5770250  87.9805440   5.9585730  31.5943130  86.6298750   5.2749980
  33.5319800 100.6961220   9.3580740  33.4889430 100.3254130  10.2395200
  33.6630810 101.6338790   9.4982560  37.2325830 102.2520810   4.9590460
  36.9917190 102.5195370   4.0720980  38.1728470 102.4226540   5.0141320
  39.4380250  88.7153500   8.7146970  39.3769140  89.3075330   9.4642380
  40.3780630  88.6079460   8.5697230  42.0754810  88.3723560   8.3539260
  42.6895220  88.6902850   7.6920340  42.6204370  87.8872150   8.9735120
  48.4929990 104.2715190   5.7601100  47.9988270 104.6684060   5.0428230
  47.8843280 103.6464400   6.1538380  32.5976070  87.0517820   8.4678320
  33.1459060  86.8705870   7.7044430  32.6631380  86.2611930   9.0034630
  33.3707830 103.6423470   6.4778520  32.7768150 103.5108170   7.2168560
  33.3631670 102.8061610   6.0120620  42.8162850  86.9355700   4.6808550
  41.9422690  87.2690810   4.4781480  42.7073600  86.4628880   5.5060420
  43.7234830  89.1426570   6.0650270  43.3948190  88.3278330   5.6852000
  44.6717130  89.0996380   5.9415960  46.1769440 104.9138610   3.0387840
  45.7172410 105.6654420   2.6645860  45.5481900 104.1945080   2.9802640
  33.0020060 101.0081850   5.4286560  32.2754120 100.3887140   5.3612510
  33.0629210 101.4022460   4.5584640  36.6065160 103.2226850   2.2135970
  37.1230180 102.6114210   1.6884230  37.2562540 103.7255630   2.7046980
  39.3460660 104.1135340   3.0404950  39.6338470 103.8589640   2.1637960
  39.8583880 103.5612700   3.6310520  40.5637670  87.8525540   3.6201460
  39.7809460  88.3271040   3.8998220  40.2700600  86.9480370   3.5114640
  39.4133020 105.0351440  10.4073150  40.3400330 104.7995710  10.4509110
  39.3983450 105.8623440   9.9259180  36.5996630  87.6996190  10.1715030
  36.3180900  88.2029790   9.4075850  36.9816330  86.9017940   9.8057160
  43.2012090  87.1149770  10.7495500  43.0877540  87.4344380  11.6447020
  44.0181830  87.5162280  10.4532780  45.9810580 104.2621300  10.2314190
  46.7735900 103.7670530  10.0240150  46.2743730 104.9411440  10.8389800
  42.1070240  76.3598750 150.0821650  42.0264290  75.4453360 149.8113360
  41.6934660  76.8565820 149.3761360  44.2595710  82.5437960 150.7430050
  43.7977240  81.7725200 151.0717220  45.0721260  82.5704030 151.2482500
  32.6646060  73.4099470 146.6249070  31.7762760  73.7515440 146.5228950
  32.9487250  73.2099790 145.7329900  40.4859020  84.8295970 150.3634040
  39.8670460  85.2853470 149.7928480  41.3410800  84.9847430 149.9623740
  34.8407450  71.9930970 147.6587450  34.9474200  72.8934700 147.9656210
  33.9299810  71.9448940 147.3682100  44.4926560  71.1155780 149.1298350
  45.3136180  70.6252350 149.1723830  44.5260640  71.7053440 149.8830190
  41.3522370  79.7135210 147.7565950  40.7339640  80.1784660 147.1928670
  41.8645620  80.4062690 148.1735460  30.7205570  80.3991740 145.1305580
  30.3433550  80.8878840 144.3990480  30.9778640  81.0717020 145.7612110
  38.3294500  68.8008130 150.5891090  38.6369480  68.2455020 149.8726590
  37.3995200  68.9352590 150.4064080  45.1754980  81.2391640 147.9688720
  45.0651310  80.2965970 148.0938140  45.1723230  81.6007280 148.8551480
  40.7175260  76.8656960 147.3251210  39.7904540  76.7994340 147.5539680
  40.8700080  77.8037090 147.2106450  40.7044340  73.1373960 144.3218370
  39.7648010  73.2987920 144.4070830  41.0227600  73.8559640 143.7754360
  44.7472550  78.4277260 147.8286460  44.1284970  78.0896810 147.1812760
  44.7297000  77.7837020 148.5365650  36.3231900  77.3921700 150.1070940
  35.9188900  76.6798950 149.6116840  36.4095020  77.0474940 150.9958980
  42.9237250  77.6664070 144.8359210  43.3630530  76.8286500 144.6897030
  43.6365670  78.2993470 144.9223350  41.0332630  82.6060140 148.8040450
  41.4728540  83.3484470 148.3895840  40.9719520  82.8486710 149.7279410
  46.5054390  68.9206880 143.1500250  46.1927050  69.0133710 144.0499320
  47.2666860  69.4987910 143.0997680  33.0236530  76.2866680 147.6077590
  32.9034130  77.0128770 146.9958860  32.7137420  75.5169590 147.1305500
  31.9069530  81.1582010 149.8252410  31.4997610  81.2996600 148.9706010
  32.7982540  80.8742170 149.6223620  43.7002810  85.5929260 146.1603460
  43.5403950  85.3032200 147.0585290  43.5349520  84.8169390 145.6248690
  36.1791190  85.3727790 147.9375080  36.0033670  84.4563330 147.7242880
  35.3246930  85.7315080 148.1772880  43.4028940  83.1016820 144.7201460
  42.7094100  83.0994110 144.0603740  44.1451800  82.6776140 144.2895630
  42.9678870  84.7279530 148.7949950  43.4235820  83.9468910 149.1088570
  43.3071390  85.4386350 149.3391130  35.4900190  69.6301750 150.9901260
  35.0468340  70.4111290 150.6585780  36.0485180  69.9531640 151.6972200
  38.6059010  69.2512450 145.8707090  37.9813190  69.2472320 146.5960400
  38.5189130  68.3843410 145.4743060  35.2814410  74.7535320 148.7182510
  35.0555330  74.5372490 149.6229130  34.5006940  75.1863780 148.3728480
  42.5112170  74.7598690 147.3173160  41.9121060  75.4834490 147.1336780
  43.0591780  74.6975470 146.5349610  41.1177040  73.3962230 149.3476440
  41.5106610  73.7134430 148.5345130  41.4793890  72.5174110 149.4620960
  30.3411440  73.9283150 142.7809360  30.2586110  74.8713910 142.9224350
  29.9894500  73.7858060 141.9021710  33.9911950  72.5448670 150.8073920
  33.6512000  73.0223900 151.5640970  33.2289270  72.0913790 150.4475020
  38.2029720  73.6634260 144.8386470  38.3242540  73.6220740 145.7872290
  37.8178230  74.5258410 144.6833200  37.2151220  75.9735400 144.2369770
  36.6468120  75.5253650 143.6105680  37.9240220  76.3328180 143.7034920
  31.3058030  71.4667650 149.7238590  31.0204950  71.1023320 150.5617210
  31.2436890  70.7348110 149.1101730  34.7598700  79.9693590 146.5096180
  33.9860960  79.4291210 146.3494900  35.4893330  79.4500200 146.1713940
  40.9796620  70.3596910 146.4451960  40.1661230  69.8610080 146.3697270
  40.7858570  71.1995160 146.0288310  43.6945010  74.7316560 144.7414120
  44.5824630  75.0433790 144.5665460  43.6650100  73.8588810 144.3494700
  34.8036100  79.6373970 150.1474990  35.3214770  78.8342230 150.0931880
  34.3520120  79.5753110 150.9891820  39.6905600  80.9040250 145.4202290
  40.0321300  81.6482480 144.9245610  38.8618310  81.2171370 145.7827120
  45.9659280  76.0428400 144.2093980  45.8823000  76.4742620 143.3590420
  46.6853470  76.5026750 144.6420800  46.9946530  82.8970660 146.9376110
  46.3522690  82.2426280 147.2119830  46.6077190  83.3025750 146.1616780
  42.5733010  80.2256090 150.7847800  42.9256830  79.6284220 150.1249170
  41.6895340  79.9000320 150.9556050  38.6596290  80.9853780 148.1918210
  39.3467420  81.5322990 148.5725800  37.8728710  81.5294510 148.2267820
  30.7988690  76.6026600 143.6835290  31.6683540  76.8851400 143.9671210
  30.3079010  77.4162470 143.5684100  37.9623500  77.9899810 147.8043570
  38.4186280  78.8005060 148.0303760  37.6111710  77.6722950 148.6362060
  33.8635280  68.3337460 148.2766090  33.7349910  68.3255360 149.2251010
  33.0397300  68.6720550 147.9257100  45.3843910  81.7887120 143.4752460
  45.1581490  81.0717560 144.0677100  44.9940110  81.5399560 142.6374210
  31.1659940  85.8153980 144.2496920  31.5257580  86.4143320 143.5954190
  31.0252280  86.3613870 145.0231950  44.9660160  79.7059060 145.1366620
  44.6781860  80.1671750 145.9244500  45.7612330  79.2456830 145.4050840
  37.1828560  83.1985180 145.0670590  37.1738660  83.9314870 144.4515100
  36.2626920  82.9516760 145.1597550  32.7835200  78.4200070 145.8117350
  32.1763150  79.1598970 145.8212650  33.2584550  78.5099430 144.9855550
  45.7230020  71.5407830 146.2961800  45.0943180  71.6453500 145.5820030
  45.2281940  71.7604610 147.0855680  40.1688160  83.2613420 143.7295780
  40.2700140  83.0577410 142.7997760  39.2689900  83.0071700 143.9343560
  37.6914050  73.8193780 147.7119680  36.9830200  74.2880120 148.1533290
  37.9758530  73.1615790 148.3464870  41.7229480  70.5444440 149.1515470
  41.5997260  70.5630570 148.2024980  42.6714040  70.5923380 149.2713870
  38.8106270  85.7799740 148.4243450  39.0647770  85.7421130 147.5022820
  37.8618750  85.6533070 148.4171700  35.8949070  72.1278860 145.0870390
  36.7439600  72.5649010 145.0210580  35.5280340  72.4399120 145.9142450
  44.8158850  76.6991620 150.0001960  43.8748990  76.7141850 150.1749650
  45.1302920  75.9127580 150.4462260  34.7940490  78.3811220 143.5605920
  35.5603760  78.2692580 144.1231350  34.8715180  77.6849190 142.9082690
  33.4887250  75.8136290 144.2438810  33.5690840  74.8663800 144.3556210
  34.3807000  76.1443170 144.3499470  34.2901960  85.9631680 151.3473350
  35.0264440  85.4147140 151.6181920  34.6742880  86.8287690 151.2079340
  31.1747440  82.0305250 147.2214860  30.2487220  82.2726390 147.2120270
  31.6403870  82.8579510 147.0999610  37.4004270  85.1361990 143.1698920
  38.1932880  85.4250820 142.7180710  36.8808620  84.7054160 142.4911400
  46.4534440  84.3632120 144.5935660  46.1675950  83.9497260 143.7789840
  46.2553990  85.2919830 144.4736180  37.9181670  80.3565400 143.0341270
  37.8132310  79.7417750 143.7602650  37.7505890  79.8331290 142.2504280
  41.1584400  79.4185430 143.6383260  40.6094500  79.8654730 144.2826000
  41.7803660  78.9134680 144.1620930  36.8259520  78.3776350 145.5348560
  37.2475940  78.2116220 146.3779950  36.9510360  77.5676580 145.0403700
  39.3387160  77.4013960 142.7825660  39.8592820  76.6862980 142.4166810
  39.9855560  78.0399830 143.0826170  35.7218420  74.4509580 142.4806720
  35.5207480  73.5876940 142.8420060  35.5510470  74.3642940 141.5428320
  43.2006730  69.2617810 145.0093600  43.4809020  68.4185710 145.3653020
  42.4272460  69.4940920 145.5232350  34.5201220  71.5510200 142.4684600
  34.8227120  71.5577630 141.5603750  35.2595810  71.2008060 142.9652260
  37.7386150  70.4944820 143.4540800  37.3908150  69.8168810 142.8743250
  37.9398920  70.0334330 144.2684190  39.9035190  85.4825570 145.0727400
  40.7985980  85.8210540 145.0946160  39.9352820  84.7604980 144.4451680
  33.5431350  80.8552620 143.3014400  33.9806220  81.3982290 143.9571980
  34.0279080  80.0299570 143.3110740  30.7577150  83.6441650 150.7534660
  31.0880160  82.7762710 150.5213300  31.1868150  83.8500170 151.5839620
  35.3539070  81.9750660 148.4136630  35.0534610  81.8515630 149.3140540
  35.2476560  81.1159250 148.0052360  48.1230990  81.7547060 143.1163310
  47.2923950  81.8223710 143.5870540  48.3002820  82.6451180 142.8130170
  47.5787450  78.4994540 145.6197510  48.3406360  79.0691190 145.7257200
  47.5941820  77.9321740 146.3905820  31.0791790  77.0232470 149.8505170
  30.4240630  76.7544110 149.2064870  31.9169740  76.9136950 149.4007150
  48.5847420  79.3544640 150.4639440  48.9556250  78.5711960 150.0575410
  49.2249350  80.0433740 150.2856740  47.6306620  78.7928910 142.7770030
  47.9055460  79.7007790 142.6489250  47.4417360  78.7291440 143.7132020
  44.0282230  71.8173760 144.0723660  44.4467110  71.6304740 143.2320320
  43.7218290  70.9652810 144.3826590  47.5271960  76.7297900 147.7699460
  47.1515560  75.9625830 147.3380750  46.7975080  77.1120600 148.2574390
  30.2929870  74.2331400 145.7930500  29.3893950  74.4961600 145.6182160
  30.7770490  74.5042570 145.0130460  32.8357080  73.2896940 143.7024880
  33.5448780  72.8680160 143.2172160  32.1197020  73.3572170 143.0708230
  32.4831240  69.3436270 142.7427530  33.2059370  69.8845210 143.0608750
  32.7555760  69.0699690 141.8669070  46.2922890  74.2128740 147.0099110
  46.7882010  73.9799610 147.7947990  46.0938960  73.3740580 146.5936750
  47.7210050  72.8489690 149.5436790  47.6109330  72.6945730 150.4819060
  48.4817640  72.3210630 149.3012200  48.6100320  70.6797610 142.7842930
  49.5349630  70.5478790 142.5761220  48.5876110  70.7590430 143.7379380
  48.6838810  71.4508270 145.4099640  47.8890310  71.3853390 145.9392550
  48.8882090  72.3858910 145.3984990  45.6257230  85.4899820 149.4038030
  46.2216300  85.1684390 148.7272450  45.8835380  85.0171640 150.1951300
  46.9797310  69.4120390 149.8707290  46.9185710  68.4681610 149.7238310
  47.7589340  69.5200480 150.4160750  31.2850060  85.5512750 148.8331240
  31.1172100  84.9183430 149.5313130  30.4184570  85.7572150 148.4825430
  31.9078080  69.3829530 146.3363100  32.6657440  69.4958410 145.7627130
  31.4455250  70.2198730 146.2906530  38.4491890  71.4968800 149.3265410
  37.6366400  71.1225690 148.9861290  38.9533530  70.7413880 149.6286600
  42.9516870  68.1611250 150.5648480  43.5546240  68.7331460 151.0397000
  42.2109860  68.7250690 150.3422380  46.0951470  68.5632810 145.8388760
  46.2902100  69.4616260 146.1056190  45.3081340  68.3319890 146.3321710
  32.8912760  84.2445980 146.2781380  32.3660380  84.6254010 145.5743340
  32.8157340  84.8696750 146.9991090  34.2803230  69.9093580 144.8765070
  34.8095990  69.1223380 144.7473020  34.9131550  70.5884770 145.1100600
  36.4741070  69.6468720 147.9310460  35.8443810  68.9456030 148.0980590
  35.9346210  70.4072850 147.7143620  47.6478080  85.8033520 147.5995320
  47.8230270  85.1171260 146.9556240  46.9499650  86.3280570 147.2071990
  35.4905730  86.1928360 145.1530630  36.2224550  85.9087640 144.6054520
  35.7499400  85.9541640 146.0430010  34.6520520  82.3093090 145.1576960
  34.0229400  82.7778190 145.7062790  34.7668350  81.4642310 145.5923150
  42.1070240  76.3598750 131.3078160  42.0264290  75.4453360 131.0369870
  41.6934660  76.8565820 130.6017870  40.2388280  78.1377770 133.1887430
  39.4630380  77.6578210 133.4786000  40.8901210  77.4583420 133.0143590
  34.2554110  78.4497580 134.0663190  33.4238990  78.1946290 134.4659700
  34.8635090  78.5208350 134.8021110  44.2595710  82.5437960 131.9686560
  43.7977240  81.7725200 132.2973730  45.0721260  82.5704030 132.4739010
  34.2355370  82.4837670 134.2621210  34.5383410  81.5935410 134.0831430
  34.9798960  83.0407890 134.0343460  32.6646060  73.4099470 127.8505580
  31.7762760  73.7515440 127.7485460  32.9487250  73.2099790 126.9586410
  30.6279070  76.0105120 133.7345280  31.1995180  75.2427320 133.7348920
  30.6280610  76.3093880 132.8251890  40.4859020  84.8295970 131.5890550
  39.8670460  85.2853470 131.0184990  41.3410800  84.9847430 131.1880250
  39.6797270  80.8134960 133.1957590  39.6105550  79.8724900 133.0346720
  40.4417130  80.9036370 133.7680160  31.8703940  71.4189480 135.5214210
  31.6906780  70.5215230 135.8016970  31.4684020  71.9661350 136.1961160
  40.7102440  73.6205340 133.4226520  41.0867260  72.7477220 133.3100190
  40.6121950  73.9564040 132.5316960  34.8407450  71.9930970 128.8843960
  34.9474200  72.8934700 129.1912720  33.9299810  71.9448940 128.5938610
  44.4926560  71.1155780 130.3554860  45.3136180  70.6252350 130.3980340
  44.5260640  71.7053440 131.1086700  32.4890610  73.9149980 134.1296550
  33.1700720  74.1788350 134.7483950  32.1738660  73.0750850 134.4634560
  36.6815180  74.9617340 133.2169140  37.1893400  75.4598310 133.8574160
  37.2128420  74.1852540 133.0408500  48.7826110  73.1322530 136.9198490
  48.0778280  73.5204240 136.4013600  49.0484030  73.8272820 137.5219420
  34.9651280  69.6015900 137.4832560  34.9669720  70.1188290 136.6778460
  34.1355590  69.1246080 137.4602490  36.2154130  79.2411080 135.6606060
  35.8823510  79.8680000 136.3027130  36.3920810  79.7672960 134.8807730
  44.7288040  73.0556160 133.1282400  44.0243610  73.3441050 133.7085510
  45.0900200  73.8656270 132.7681960  34.6466610  71.3125860 135.4903010
  34.9883420  72.1567910 135.1956880  33.7082420  71.4609600 135.6068350
  35.4273230  81.2091880 137.4755240  36.0447230  81.8842960 137.1939690
  34.5666350  81.6179860 137.3842740  30.7205570  80.3991740 126.3562090
  30.3433550  80.8878840 125.6246990  30.9778640  81.0717020 126.9868620
  46.3450820  82.6731290 135.3909880  45.6614340  83.3430400 135.3826550
  46.8845110  82.8711940 134.6254740  47.7974960  72.5010950 133.5191610
  46.8499870  72.5349930 133.6507040  48.1224950  73.3149900 133.9040970
  38.3294500  68.8008130 131.8147600  38.6369480  68.2455020 131.0983100
  37.3995200  68.9352590 131.6320590  43.8809560  84.5175420 134.1055060
  43.8936720  84.1137710 133.2377320  43.3284780  85.2922710 134.0016490
  43.2795000  79.4205260 135.4337670  43.6963790  79.2065370 134.5991130
  44.0034820  79.6778050 136.0046290  47.2257100  77.8192480 135.5253910
  46.3975730  77.8885570 135.0504040  47.8207580  78.4046790 135.0569740
  44.1899110  74.6061800 136.4708780  43.7770290  75.4315510 136.7248770
  43.4575060  74.0206840 136.2785140  36.3231900  77.3921700 131.3327450
  35.9188900  76.6798950 130.8373350  36.4095020  77.0474940 132.2215490
  36.7913600  81.0789260 133.4966660  36.4941890  80.4734730 132.8174440
  37.7413420  81.1166570 133.3856020  35.0360520  74.1664910 135.1126490
  35.5875110  74.2760250 134.3379740  35.5504030  74.5402510 135.8281720
  44.8799210  84.6521130 137.1589760  44.4029770  85.4593320 136.9662370
  44.1961000  83.9999460 137.3115970  35.8832030  80.8170950 140.1474460
  34.9860560  81.0410920 140.3947860  35.9084900  80.9405890 139.1985860
  34.7103250  77.6884270 138.7231830  34.5711020  78.5607070 139.0919230
  33.8284610  77.3457080 138.5779770  41.0332630  82.6060140 130.0296960
  41.4728540  83.3484470 129.6152350  40.9719520  82.8486710 130.9535920
  36.5083600  83.6305970 140.9316980  36.4799030  84.0348920 140.0645410
  36.3448570  82.7016330 140.7688580  33.0236530  76.2866680 128.8334100
  32.9034130  77.0128770 128.2215370  32.7137420  75.5169590 128.3562010
  48.4598420  84.4133070 142.2281150  48.9358140  84.8915960 142.9070230
  49.0805580  84.3450560 141.5026650  30.6621900  79.4581820 134.6402740
  30.7402320  79.5930590 133.6958460  31.2763580  78.7497710 134.8330860
  31.9069530  81.1582010 131.0508920  31.4997610  81.2996600 130.1962520
  32.7982540  80.8742170 130.8480130  47.8631670  81.6045920 139.3881160
  47.9894730  81.3657800 138.4698340  47.9053050  80.7730460 139.8603240
  41.7248410  85.3073920 137.9575970  42.2393080  85.2181930 138.7598400
  40.8817490  85.6533620 138.2503880  36.1791190  85.3727790 129.1631590
  36.0033670  84.4563330 128.9499390  35.3246930  85.7315080 129.4029390
  47.7155680  73.6578380 140.3530900  47.0999950  74.1658050 139.8246360
  47.3952100  72.7576710 140.2956840  30.7181420  80.4995990 137.1797200
  30.8812460  80.0301350 136.3616570  31.1833870  79.9919550 137.8446040
  35.4900190  69.6301750 132.2157770  35.0468340  70.4111290 131.8842290
  36.0485180  69.9531640 132.9228710  39.7770000  72.4970270 137.8193090
  39.3149370  72.7053290 138.6313030  39.3748110  71.6829620 137.5163760
  44.7774510  73.7179220 138.9489750  43.9268100  73.4184970 139.2698820
  44.6176300  73.9621230 138.0373570  41.8724220  75.2180970 141.0488540
  42.1977630  74.3844720 140.7090770  42.6604550  75.7409490 141.1966870
  38.6059010  69.2512450 127.0963600  37.9813190  69.2472320 127.8216910
  38.5189130  68.3843410 126.6999570  37.5276090  70.1749080 134.0747370
  37.8248420  71.0811910 133.9939390  38.0761650  69.6867860 133.4606940
  35.2814410  74.7535320 129.9439020  35.0555330  74.5372490 130.8485640
  34.5006940  75.1863780 129.5984990  37.7213620  75.6520900 140.6099290
  37.6257220  74.7115630 140.4599690  38.5645600  75.8735970 140.2147360
  41.1177040  73.3962230 130.5732950  41.5106610  73.7134430 129.7601640
  41.4793890  72.5174110 130.6877470  32.8524160  72.0634570 138.7633070
  32.4587550  72.9109780 138.9705850  32.1642560  71.4260940 138.9541710
  39.4269210  72.1469540 141.8329810  38.7367530  71.9541740 142.4675900
  40.1701510  72.4304180 142.3654110  30.1541210  69.9863030 132.7963150
  29.8654260  70.5565890 133.5088130  30.8986970  69.5067480 133.1594380
  30.3411440  73.9283150 124.0065870  30.2586110  74.8713910 124.1480860
  29.9894500  73.7858060 123.1278220  41.7032180  75.9867980 134.6683730
  40.9713300  76.4954790 135.0173830  41.3056520  75.1697960 134.3672510
  38.1409570  72.6622180 133.0736220  38.1445630  72.2212130 132.2240760
  39.0360690  72.9839510 133.1808040  33.9911950  72.5448670 132.0330430
  33.6512000  73.0223900 132.7897480  33.2289270  72.0913790 131.6731530
  38.2029720  73.6634260 126.0642980  38.3242540  73.6220740 127.0128800
  37.8178230  74.5258410 125.9089710  42.1658090  71.4401660 134.0806670
  42.1830830  71.8910310 134.9248520  41.9173670  70.5407300 134.2940110
  37.2151220  75.9735400 125.4626280  36.6468120  75.5253650 124.8362190
  37.9240220  76.3328180 124.9291430  45.5928840  68.8533840 139.9193050
  45.9174610  68.1223500 140.4451030  45.6285350  68.5347480 139.0174040
  32.2920400  79.8747420 139.3393010  31.9075190  79.2341090 139.9375970
  32.6032590  80.5783540 139.9087740  38.4417540  76.7223960 134.8201630
  38.8087670  76.2482530 135.5662970  38.2522600  77.5965530 135.1609970
  31.3058030  71.4667650 130.9495100  31.0204950  71.1023320 131.7873720
  31.2436890  70.7348110 130.3358240  36.2316910  75.7632600 137.1385840
  35.9273980  76.6424580 137.3636200  37.1863370  75.8232390 137.1743280
  34.7598700  79.9693590 127.7352690  33.9860960  79.4291210 127.5751410
  35.4893330  79.4500200 127.3970450  45.5186680  78.9658950 133.5279080
  46.2385800  79.4614240 133.1375190  45.3168500  78.2876840 132.8832950
  40.9796620  70.3596910 127.6708470  40.1661230  69.8610080 127.5953780
  40.7858570  71.1995160 127.2544820  40.9005480  79.0368010 139.4148080
  40.8342790  78.1163680 139.1605670  40.2710620  79.1343450 140.1292720
  34.8036100  79.6373970 131.3731500  35.3214770  78.8342230 131.3188390
  34.3520120  79.5753110 132.2148330  32.2880640  76.6035340 138.2857200
  31.9295580  77.2689190 138.8730540  31.9935200  75.7718890 138.6569820
  35.4893760  77.0619580 141.1696750  35.1893900  77.2076760 140.2724570
  36.2605000  76.5024870 141.0770140  40.8322210  81.8588580 139.1651880
  40.8466750  80.9269540 138.9470790  40.1247310  81.9448340 139.8041650
  47.0433420  78.4995920 138.5120460  46.3181610  79.0924700 138.3149850
  47.5708880  78.4919460 137.7133830  46.9946530  82.8970660 128.1632620
  46.3522690  82.2426280 128.4376340  46.6077190  83.3025750 127.3873290
  42.5733010  80.2256090 132.0104310  42.9256830  79.6284220 131.3505680
  41.6895340  79.9000320 132.1812560  38.6596290  80.9853780 129.4174720
  39.3467420  81.5322990 129.7982310  37.8728710  81.5294510 129.4524330
  30.7988690  76.6026600 124.9091800  31.6683540  76.8851400 125.1927720
  30.3079010  77.4162470 124.7940610  37.9623500  77.9899810 129.0300080
  38.4186280  78.8005060 129.2560270  37.6111710  77.6722950 129.8618570
  40.2656110  83.5006150 136.2592380  40.9098330  83.7065530 136.9365800
  40.6285550  82.7394550 135.8063230  33.8635280  68.3337460 129.5022600
  33.7349910  68.3255360 130.4507520  33.0397300  68.6720550 129.1513610
  41.5388190  81.5038500 134.9769830  42.1810420  80.8031660 135.0902000
  42.0637540  82.2836940 134.7966720  43.3125810  82.3033400 138.1805890
  43.6482050  82.8900090 138.8583810  42.3926150  82.1726110 138.4103680
  31.1659940  85.8153980 125.4753430  31.5257580  86.4143320 124.8210700
  31.0252280  86.3613870 126.2488460  30.8629210  70.0928580 138.9629300
  30.1487730  70.2925500 139.5681910  31.2824250  69.3168150 139.3344100
  31.1501800  84.0808840 139.9495830  31.2592920  83.1403580 139.8091220
  30.4982360  84.3463590 139.3009560  39.1414390  82.3524730 141.3493950
  38.8211260  81.6333970 141.8939640  38.4672750  83.0279800 141.4230010
  37.1828560  83.1985180 126.2927100  37.1738660  83.9314870 125.6771610
  36.2626920  82.9516760 126.3854060  32.7835200  78.4200070 127.0373860
  32.1763150  79.1598970 127.0469160  33.2584550  78.5099430 126.2112060
  42.3567990  72.5850890 136.7130750  42.7248810  71.7646100 137.0410320
  41.4966190  72.6452780 137.1286400  45.7230020  71.5407830 127.5218310
  45.0943180  71.6453500 126.8076540  45.2281940  71.7604610 128.3112190
  40.1688160  83.2613420 124.9552290  40.2700140  83.0577410 124.0254270
  39.2689900  83.0071700 125.1600070  37.6914050  73.8193780 128.9376190
  36.9830200  74.2880120 129.3789800  37.9758530  73.1615790 129.5721380
  39.3169980  75.2390480 136.9368720  39.8155230  75.7136300 137.6020570
  39.4592930  74.3154000 137.1438750  41.7229480  70.5444440 130.3771980
  41.5997260  70.5630570 129.4281490  42.6714040  70.5923380 130.4970380
  38.8106270  85.7799740 129.6499960  39.0647770  85.7421130 128.7279330
  37.8618750  85.6533070 129.6428210  35.8949070  72.1278860 126.3126900
  36.7439600  72.5649010 126.2467090  35.5280340  72.4399120 127.1398960
  46.5236840  71.4558440 137.7797110  46.0210440  72.1963840 138.1190920
  47.3393500  71.8442440 137.4633900  44.8158850  76.6991620 131.2258470
  43.8748990  76.7141850 131.4006160  45.1302920  75.9127580 131.6718770
  33.4887250  75.8136290 125.4695320  33.5690840  74.8663800 125.5812720
  34.3807000  76.1443170 125.5755980  46.8184430  83.8700470 132.9012730
  46.9431850  84.6931640 133.3736540  47.6849990  83.6591200 132.5536880
  34.2901960  85.9631680 132.5729860  35.0264440  85.4147140 132.8438430
  34.6742880  86.8287690 132.4335850  31.1747440  82.0305250 128.4471370
  30.2487220  82.2726390 128.4376780  31.6403870  82.8579510 128.3256120
  33.2960240  85.1477750 141.7615440  34.0972970  85.4689800 142.1750840
  32.7812060  84.7873330 142.4835350  37.4004270  85.1361990 124.3955430
  38.1932880  85.4250820 123.9437220  36.8808620  84.7054160 123.7167910
  42.1324870  81.2557620 141.7090850  41.5263030  81.2789220 140.9686600
  41.8278980  80.5240660 142.2458100  43.5625240  84.9837910 140.3200260
  44.5146990  84.8995930 140.2700500  43.4153460  85.6479620 140.9934050
  31.0158050  77.6351210 140.7051490  31.5197070  77.0558490 141.2767720
  30.2765470  77.9191440 141.2427860  37.9181670  80.3565400 124.2597780
  37.8132310  79.7417750 124.9859160  37.7505890  79.8331290 123.4760790
  38.0695990  79.0422200 140.2387010  37.3041660  79.6107200 140.1541680
  38.2511950  78.7498410 139.3455240  45.2119340  80.7727530 140.7962030
  45.9528810  81.1103290 140.2929490  44.4492020  80.9419590 140.2431800
  33.0481130  75.7780800 141.6001560  33.0886470  75.4794670 142.5086790
  33.9026630  76.1788410 141.4409080  36.8259520  78.3776350 126.7605070
  37.2475940  78.2116220 127.6036460  36.9510360  77.5676580 126.2660210
  34.9886940  74.3572900 139.5676050  34.4583400  73.8663850 138.9399390
  35.6575010  74.7857100 139.0333980  43.8865000  78.8242360 139.3317240
  44.3006020  78.9787440 140.1807660  42.9516000  78.9497580 139.4943020
  44.3587170  76.1638520 141.3356390  44.9407940  75.4090840 141.2476870
  44.5348940  76.6945960 140.5587870  35.4759240  71.3235270 139.6473340
  35.3816110  70.7056020 138.9224210  34.8956630  72.0501560 139.4203250
  38.2420680  69.8808510 136.6800730  37.7937980  69.9032770 135.8346280
  37.6085880  69.4827530 137.2771030  38.6480230  78.7762840 137.3013170
  39.0668340  79.6195570 137.1289410  37.7288860  78.9134880 137.0719950
  40.9844130  76.5079020 138.6851010  41.1040340  75.9120160 139.4245850
  41.8438130  76.5448710 138.2652310  43.3232030  77.0616210 137.2613520
  42.7967250  77.5858830 136.6578660  43.6663370  77.6943600 137.8923250
  36.4987650  85.0815850 138.4170900  35.9608740  85.8061910 138.0979600
  36.7521610  84.6046190 137.6268240  37.7512900  73.0500370 139.9426830
  38.3412590  72.7416220 140.6304650  36.9333140  72.5780120 140.0986730
  42.5706330  72.6666180 140.1759850  41.8821850  72.0047720 140.1109840
  43.2912350  72.2204450 140.6208310  34.5201220  71.5510200 123.6941110
  34.8227120  71.5577630 122.7860260  35.2595810  71.2008060 124.1908770
  39.3549860  86.3167060 138.6757550  39.2808560  87.2202200 138.9829920
  38.4528700  85.9978960 138.6479620  37.7386150  70.4944820 124.6797310
  37.3908150  69.8168810 124.0999760  37.9398920  70.0334330 125.4940700
  33.5431350  80.8552620 124.5270910  33.9806220  81.3982290 125.1828490
  34.0279080  80.0299570 124.5367250  30.7577150  83.6441650 131.9791170
  31.0880160  82.7762710 131.7469810  31.1868150  83.8500170 132.8096130
  35.3539070  81.9750660 129.6393140  35.0534610  81.8515630 130.5397050
  35.2476560  81.1159250 129.2308870  31.2467360  84.5112240 134.7172800
  30.8098350  84.6913040 135.5496950  31.8145040  85.2686860 134.5754520
  46.8829540  84.0129240 139.0050110  46.2831530  84.0721800 138.2614030
  47.0123440  83.0734220 139.1346960  31.0791790  77.0232470 131.0761680
  30.4240630  76.7544110 130.4321380  31.9169740  76.9136950 130.6263660
  48.5847420  79.3544640 131.6895950  48.9556250  78.5711960 131.2831920
  49.2249350  80.0433740 131.5113250  45.5681180  80.7381220 137.1026270
  44.7541020  81.1678380 137.3652060  45.9755380  81.3499630 136.4895320
  32.1167720  77.4085040 135.6165020  32.4840760  77.3212440 136.4961040
  31.5478540  76.6451590 135.5171880  46.9171580  75.8769420 138.6295490
  46.6857670  75.6482170 137.7293440  47.1776130  76.7968970 138.5840380
  31.6683720  74.3194130 139.5223440  30.7739770  74.2860890 139.8617150
  32.2081270  74.5180920 140.2874690  45.3559650  71.1025850 141.4075190
  46.2329830  71.1109250 141.7909190  45.3680490  70.3656690 140.7967540
  30.2929870  74.2331400 127.0187010  29.3893950  74.4961600 126.8438670
  30.7770490  74.5042570 126.2386970  46.8022920  74.9555390 132.2963210
  47.3260400  74.4618040 131.6653380  47.3882340  75.0905750 133.0410780
  46.9812640  75.0395260 135.8182760  46.0315350  75.0058800 135.9327750
  47.1625650  75.9495370 135.5832530  32.8357080  73.2896940 124.9281390
  33.5448780  72.8680160 124.4428670  32.1197020  73.3572170 124.2964740
  32.4831240  69.3436270 123.9684040  33.2059370  69.8845210 124.2865260
  32.7555760  69.0699690 123.0925580  32.1723430  68.5942460 133.8706660
  32.8199620  68.0439840 133.4301820  32.5925270  68.8485610 134.6922470
  47.7210050  72.8489690 130.7693300  47.6109330  72.6945730 131.7075570
  48.4817640  72.3210630 130.5268710  46.0675770  68.7883820 137.2276300
  46.7047990  69.4017960 137.5935490  46.2150660  68.8244480 136.2825530
  48.6100320  70.6797610 124.0099440  49.5349630  70.5478790 123.8017730
  48.5876110  70.7590430 124.9635890  48.6838810  71.4508270 126.6356150
  47.8890310  71.3853390 127.1649060  48.8882090  72.3858910 126.6241500
  31.9255430  68.7498130 136.6131980  31.5770250  69.2061950 137.3790160
  31.5943130  67.8555260 136.6954410  33.5319800  81.9217730 140.7785170
  33.4889430  81.5510640 141.6599630  33.6630810  82.8595300 140.9186990
  37.2325830  83.4777320 136.3794890  36.9917190  83.7451880 135.4925410
  38.1728470  83.6483050 136.4345750  39.4380250  69.9410010 140.1351400
  39.3769140  70.5331840 140.8846810  40.3780630  69.8335970 139.9901660
  42.0754810  69.5980070 139.7743690  42.6895220  69.9159360 139.1124770
  42.6204370  69.1128660 140.3939550  48.4929990  85.4971700 137.1805530
  47.9988270  85.8940570 136.4632660  47.8843280  84.8720910 137.5742810
  32.5976070  68.2774330 139.8882750  33.1459060  68.0962380 139.1248860
  32.6631380  67.4868440 140.4239060  33.3707830  84.8679980 137.8982950
  32.7768150  84.7364680 138.6372990  33.3631670  84.0318120 137.4325050
  42.8162850  68.1612210 136.1012980  41.9422690  68.4947320 135.8985910
  42.7073600  67.6885390 136.9264850  43.7234830  70.3683080 137.4854700
  43.3948190  69.5534840 137.1056430  44.6717130  70.3252890 137.3620390
  33.0020060  82.2338360 136.8490990  32.2754120  81.6143650 136.7816940
  33.0629210  82.6278970 135.9789070  36.6065160  84.4483360 133.6340400
  37.1230180  83.8370720 133.1088660  37.2562540  84.9512140 134.1251410
  39.3460660  85.3391850 134.4609380  39.6338470  85.0846150 133.5842390
  39.8583880  84.7869210 135.0514950  40.5637670  69.0782050 135.0405890
  39.7809460  69.5527550 135.3202650  40.2700600  68.1736880 134.9319070
  31.2850060  85.5512750 130.0587750  31.1172100  84.9183430 130.7569640
  30.4184570  85.7572150 129.7081940  31.9078080  69.3829530 127.5619610
  32.6657440  69.4958410 126.9883640  31.4455250  70.2198730 127.5163040
  38.4491890  71.4968800 130.5521920  37.6366400  71.1225690 130.2117800
  38.9533530  70.7413880 130.8543110  42.9516870  68.1611250 131.7904990
  43.5546240  68.7331460 132.2653510  42.2109860  68.7250690 131.5678890
  46.0951470  68.5632810 127.0645270  46.2902100  69.4616260 127.3312700
  45.3081340  68.3319890 127.5578220  32.8912760  84.2445980 127.5037890
  32.3660380  84.6254010 126.7999850  32.8157340  84.8696750 128.2247600
  34.2803230  69.9093580 126.1021580  34.8095990  69.1223380 125.9729530
  34.9131550  70.5884770 126.3357110  36.4741070  69.6468720 129.1566970
  35.8443810  68.9456030 129.3237100  35.9346210  70.4072850 128.9400130
  39.4133020  86.2607950 141.8277580  40.3400330  86.0252220 141.8713540
  39.3983450  87.0879950 141.3463610  36.5996630  68.9252700 141.5919460
  36.3180900  69.4286300 140.8280280  36.9816330  68.1274450 141.2261590
  35.4905730  86.1928360 126.3787140  36.2224550  85.9087640 125.8311030
  35.7499400  85.9541640 127.2686520  34.6520520  82.3093090 126.3833470
  34.0229400  82.7778190 126.9319300  34.7668350  81.4642310 126.8179660
  43.2012090  68.3406280 142.1699930  43.0877540  68.6600890 143.0651450
  44.0181830  68.7418790 141.8737210  45.9810580  85.4877810 141.6518620
  46.7735900  84.9927040 141.4444580  46.2743730  86.1667950 142.2594230
  40.2388280  78.1377770 114.4143940  39.4630380  77.6578210 114.7042510
  40.8901210  77.4583420 114.2400100  34.2554110  78.4497580 115.2919700
  33.4238990  78.1946290 115.6916210  34.8635090  78.5208350 116.0277620
  34.2355370  82.4837670 115.4877720  34.5383410  81.5935410 115.3087940
  34.9798960  83.0407890 115.2599970  30.6279070  76.0105120 114.9601790
  31.1995180  75.2427320 114.9605430  30.6280610  76.3093880 114.0508400
  39.6797270  80.8134960 114.4214100  39.6105550  79.8724900 114.2603230
  40.4417130  80.9036370 114.9936670  31.8703940  71.4189480 116.7470720
  31.6906780  70.5215230 117.0273480  31.4684020  71.9661350 117.4217670
  32.4890610  73.9149980 115.3553060  33.1700720  74.1788350 115.9740460
  32.1738660  73.0750850 115.6891070  36.6815180  74.9617340 114.4425650
  37.1893400  75.4598310 115.0830670  37.2128420  74.1852540 114.2665010
  48.7826110  73.1322530 118.1455000  48.0778280  73.5204240 117.6270110
  49.0484030  73.8272820 118.7475930  41.3522370  79.7135210 110.2078970
  40.7339640  80.1784660 109.6441690  41.8645620  80.4062690 110.6248480
  36.2154130  79.2411080 116.8862570  35.8823510  79.8680000 117.5283640
  36.3920810  79.7672960 116.1064240  35.4273230  81.2091880 118.7011750
  36.0447230  81.8842960 118.4196200  34.5666350  81.6179860 118.6099250
  43.8809560  84.5175420 115.3311570  43.8936720  84.1137710 114.4633830
  43.3284780  85.2922710 115.2273000  43.2795000  79.4205260 116.6594180
  43.6963790  79.2065370 115.8247640  44.0034820  79.6778050 117.2302800
  47.2257100  77.8192480 116.7510420  46.3975730  77.8885570 116.2760550
  47.8207580  78.4046790 116.2826250  44.1899110  74.6061800 117.6965290
  43.7770290  75.4315510 117.9505280  43.4575060  74.0206840 117.5041650
  36.3231900  77.3921700 112.5583960  35.9188900  76.6798950 112.0629860
  36.4095020  77.0474940 113.4472000  36.7913600  81.0789260 114.7223170
  36.4941890  80.4734730 114.0430950  37.7413420  81.1166570 114.6112530
  44.8799210  84.6521130 118.3846270  44.4029770  85.4593320 118.1918880
  44.1961000  83.9999460 118.5372480  35.8832030  80.8170950 121.3730970
  34.9860560  81.0410920 121.6204370  35.9084900  80.9405890 120.4242370
  42.9237250  77.6664070 107.2872230  43.3630530  76.8286500 107.1410050
  43.6365670  78.2993470 107.3736370  36.5083600  83.6305970 122.1573490
  36.4799030  84.0348920 121.2901920  36.3448570  82.7016330 121.9945090
  33.0236530  76.2866680 110.0590610  32.9034130  77.0128770 109.4471880
  32.7137420  75.5169590 109.5818520  48.4598420  84.4133070 123.4537660
  48.9358140  84.8915960 124.1326740  49.0805580  84.3450560 122.7283160
  30.6621900  79.4581820 115.8659250  30.7402320  79.5930590 114.9214970
  31.2763580  78.7497710 116.0587370  31.9069530  81.1582010 112.2765430
  31.4997610  81.2996600 111.4219030  32.7982540  80.8742170 112.0736640
  41.7248410  85.3073920 119.1832480  42.2393080  85.2181930 119.9854910
  40.8817490  85.6533620 119.4760390  43.4028940  83.1016820 107.1714480
  42.7094100  83.0994110 106.5116760  44.1451800  82.6776140 106.7408650
  47.7155680  73.6578380 121.5787410  47.0999950  74.1658050 121.0502870
  47.3952100  72.7576710 121.5213350  30.7181420  80.4995990 118.4053710
  30.8812460  80.0301350 117.5873080  31.1833870  79.9919550 119.0702550
  44.7774510  73.7179220 120.1746260  43.9268100  73.4184970 120.4955330
  44.6176300  73.9621230 119.2630080  35.2814410  74.7535320 111.1695530
  35.0555330  74.5372490 112.0742150  34.5006940  75.1863780 110.8241500
  32.8524160  72.0634570 119.9889580  32.4587550  72.9109780 120.1962360
  32.1642560  71.4260940 120.1798220  39.4269210  72.1469540 123.0586320
  38.7367530  71.9541740 123.6932410  40.1701510  72.4304180 123.5910620
  30.3411440  73.9283150 105.2322380  30.2586110  74.8713910 105.3737370
  29.9894500  73.7858060 104.3534730  41.7032180  75.9867980 115.8940240
  40.9713300  76.4954790 116.2430340  41.3056520  75.1697960 115.5929020
  33.9911950  72.5448670 113.2586940  33.6512000  73.0223900 114.0153990
  33.2289270  72.0913790 112.8988040  37.2151220  75.9735400 106.6882790
  36.6468120  75.5253650 106.0618700  37.9240220  76.3328180 106.1547940
  32.2920400  79.8747420 120.5649520  31.9075190  79.2341090 121.1632480
  32.6032590  80.5783540 121.1344250  38.4417540  76.7223960 116.0458140
  38.8087670  76.2482530 116.7919480  38.2522600  77.5965530 116.3866480
  34.7598700  79.9693590 108.9609200  33.9860960  79.4291210 108.8007920
  35.4893330  79.4500200 108.6226960  34.8036100  79.6373970 112.5988010
  35.3214770  78.8342230 112.5444900  34.3520120  79.5753110 113.4404840
  40.8322210  81.8588580 120.3908390  40.8466750  80.9269540 120.1727300
  40.1247310  81.9448340 121.0298160  47.0433420  78.4995920 119.7376970
  46.3181610  79.0924700 119.5406360  47.5708880  78.4919460 118.9390340
  42.5733010  80.2256090 113.2360820  42.9256830  79.6284220 112.5762190
  41.6895340  79.9000320 113.4069070  30.7988690  76.6026600 106.1348310
  31.6683540  76.8851400 106.4184230  30.3079010  77.4162470 106.0197120
  37.9623500  77.9899810 110.2556590  38.4186280  78.8005060 110.4816780
  37.6111710  77.6722950 111.0875080  40.2656110  83.5006150 117.4848890
  40.9098330  83.7065530 118.1622310  40.6285550  82.7394550 117.0319740
  41.5388190  81.5038500 116.2026340  42.1810420  80.8031660 116.3158510
  42.0637540  82.2836940 116.0223230  45.3843910  81.7887120 105.9265480
  45.1581490  81.0717560 106.5190120  44.9940110  81.5399560 105.0887230
  43.3125810  82.3033400 119.4062400  43.6482050  82.8900090 120.0840320
  42.3926150  82.1726110 119.6360190  30.8629210  70.0928580 120.1885810
  30.1487730  70.2925500 120.7938420  31.2824250  69.3168150 120.5600610
  44.9660160  79.7059060 107.5879640  44.6781860  80.1671750 108.3757520
  45.7612330  79.2456830 107.8563860  31.1501800  84.0808840 121.1752340
  31.2592920  83.1403580 121.0347730  30.4982360  84.3463590 120.5266070
  39.1414390  82.3524730 122.5750460  38.8211260  81.6333970 123.1196150
  38.4672750  83.0279800 122.6486520  32.7835200  78.4200070 108.2630370
  32.1763150  79.1598970 108.2725670  33.2584550  78.5099430 107.4368570
  35.8949070  72.1278860 107.5383410  36.7439600  72.5649010 107.4723600
  35.5280340  72.4399120 108.3655470  34.7940490  78.3811220 106.0118940
  35.5603760  78.2692580 106.5744370  34.8715180  77.6849190 105.3595710
  33.4887250  75.8136290 106.6951830  33.5690840  74.8663800 106.8069230
  34.3807000  76.1443170 106.8012490  33.2960240  85.1477750 122.9871950
  34.0972970  85.4689800 123.4007350  32.7812060  84.7873330 123.7091860
  43.5625240  84.9837910 121.5456770  44.5146990  84.8995930 121.4957010
  43.4153460  85.6479620 122.2190560  46.4534440  84.3632120 107.0448680
  46.1675950  83.9497260 106.2302860  46.2553990  85.2919830 106.9249200
  31.0158050  77.6351210 121.9308000  31.5197070  77.0558490 122.5024230
  30.2765470  77.9191440 122.4684370  41.1584400  79.4185430 106.0896280
  40.6094500  79.8654730 106.7339020  41.7803660  78.9134680 106.6133950
  36.8259520  78.3776350 107.9861580  37.2475940  78.2116220 108.8292970
  36.9510360  77.5676580 107.4916720  39.3387160  77.4013960 105.2338680
  39.8592820  76.6862980 104.8679830  39.9855560  78.0399830 105.5339190
  35.4759240  71.3235270 120.8729850  35.3816110  70.7056020 120.1480720
  34.8956630  72.0501560 120.6459760  43.3232030  77.0616210 118.4870030
  42.7967250  77.5858830 117.8835170  43.6663370  77.6943600 119.1179760
  35.7218420  74.4509580 104.9319740  35.5207480  73.5876940 105.2933080
  35.5510470  74.3642940 103.9941340  36.4987650  85.0815850 119.6427410
  35.9608740  85.8061910 119.3236110  36.7521610  84.6046190 118.8524750
  34.5201220  71.5510200 104.9197620  34.8227120  71.5577630 104.0116770
  35.2595810  71.2008060 105.4165280  39.3549860  86.3167060 119.9014060
  39.2808560  87.2202200 120.2086430  38.4528700  85.9978960 119.8736130
  33.5431350  80.8552620 105.7527420  33.9806220  81.3982290 106.4085000
  34.0279080  80.0299570 105.7623760  30.7577150  83.6441650 113.2047680
  31.0880160  82.7762710 112.9726320  31.1868150  83.8500170 114.0352640
  31.2467360  84.5112240 115.9429310  30.8098350  84.6913040 116.7753460
  31.8145040  85.2686860 115.8011030  46.8829540  84.0129240 120.2306620
  46.2831530  84.0721800 119.4870540  47.0123440  83.0734220 120.3603470
  48.1230990  81.7547060 105.5676330  47.2923950  81.8223710 106.0383560
  48.3002820  82.6451180 105.2643190  47.5787450  78.4994540 108.0710530
  48.3406360  79.0691190 108.1770220  47.5941820  77.9321740 108.8418840
  31.0791790  77.0232470 112.3018190  30.4240630  76.7544110 111.6577890
  31.9169740  76.9136950 111.8520170  45.5681180  80.7381220 118.3282780
  44.7541020  81.1678380 118.5908570  45.9755380  81.3499630 117.7151830
  47.6306620  78.7928910 105.2283050  47.9055460  79.7007790 105.1002270
  47.4417360  78.7291440 106.1645040  32.1167720  77.4085040 116.8421530
  32.4840760  77.3212440 117.7217550  31.5478540  76.6451590 116.7428390
  46.9171580  75.8769420 119.8552000  46.6857670  75.6482170 118.9549950
  47.1776130  76.7968970 119.8096890  31.6683720  74.3194130 120.7479950
  30.7739770  74.2860890 121.0873660  32.2081270  74.5180920 121.5131200
  46.9812640  75.0395260 117.0439270  46.0315350  75.0058800 117.1584260
  47.1625650  75.9495370 116.8089040  32.8357080  73.2896940 106.1537900
  33.5448780  72.8680160 105.6685180  32.1197020  73.3572170 105.5221250
  48.6100320  70.6797610 105.2355950  49.5349630  70.5478790 105.0274240
  48.5876110  70.7590430 106.1892400  48.6838810  71.4508270 107.8612660
  47.8890310  71.3853390 108.3905570  48.8882090  72.3858910 107.8498010
  33.5319800  81.9217730 122.0041680  33.4889430  81.5510640 122.8856140
  33.6630810  82.8595300 122.1443500  37.2325830  83.4777320 117.6051400
  36.9917190  83.7451880 116.7181920  38.1728470  83.6483050 117.6602260
  48.4929990  85.4971700 118.4062040  47.9988270  85.8940570 117.6889170
  47.8843280  84.8720910 118.7999320  32.5976070  68.2774330 121.1139260
  33.1459060  68.0962380 120.3505370  32.6631380  67.4868440 121.6495570
  33.3707830  84.8679980 119.1239460  32.7768150  84.7364680 119.8629500
  33.3631670  84.0318120 118.6581560  33.0020060  82.2338360 118.0747500
  32.2754120  81.6143650 118.0073450  33.0629210  82.6278970 117.2045580
  36.6065160  84.4483360 114.8596910  37.1230180  83.8370720 114.3345170
  37.2562540  84.9512140 115.3507920  39.3460660  85.3391850 115.6865890
  39.6338470  85.0846150 114.8098900  39.8583880  84.7869210 116.2771460
  32.8912760  84.2445980 108.7294400  32.3660380  84.6254010 108.0256360
  32.8157340  84.8696750 109.4504110  39.4133020  86.2607950 123.0534090
  40.3400330  86.0252220 123.0970050  39.3983450  87.0879950 122.5720120
  36.5996630  68.9252700 122.8175970  36.3180900  69.4286300 122.0536790
  36.9816330  68.1274450 122.4518100  45.9810580  85.4877810 122.8775130
  46.7735900  84.9927040 122.6701090  46.2743730  86.1667950 123.4850740
  42.1070240  76.3598750  93.7591180  42.0264290  75.4453360  93.4882890
  41.6934660  76.8565820  93.0530890  40.2388280  78.1377770  95.6400450
  39.4630380  77.6578210  95.9299020  40.8901210  77.4583420  95.4656610
  34.2554110  78.4497580  96.5176210  33.4238990  78.1946290  96.9172720
  34.8635090  78.5208350  97.2534130  44.2595710  82.5437960  94.4199580
  43.7977240  81.7725200  94.7486750  45.0721260  82.5704030  94.9252030
  40.4859020  84.8295970  94.0403570  39.8670460  85.2853470  93.4698010
  41.3410800  84.9847430  93.6393270  39.6797270  80.8134960  95.6470610
  39.6105550  79.8724900  95.4859740  40.4417130  80.9036370  96.2193180
  44.4926560  71.1155780  92.8067880  45.3136180  70.6252350  92.8493360
  44.5260640  71.7053440  93.5599720  36.6815180  74.9617340  95.6682160
  37.1893400  75.4598310  96.3087180  37.2128420  74.1852540  95.4921520
  48.7826110  73.1322530  99.3711510  48.0778280  73.5204240  98.8526620
  49.0484030  73.8272820  99.9732440  41.3522370  79.7135210  91.4335480
  40.7339640  80.1784660  90.8698200  41.8645620  80.4062690  91.8504990
  36.2154130  79.2411080  98.1119080  35.8823510  79.8680000  98.7540150
  36.3920810  79.7672960  97.3320750  30.7205570  80.3991740  88.8075110
  30.3433550  80.8878840  88.0760010  30.9778640  81.0717020  89.4381640
  47.7974960  72.5010950  95.9704630  46.8499870  72.5349930  96.1020060
  48.1224950  73.3149900  96.3553990  45.1754980  81.2391640  91.6458250
  45.0651310  80.2965970  91.7707670  45.1723230  81.6007280  92.5321010
  40.7175260  76.8656960  91.0020740  39.7904540  76.7994340  91.2309210
  40.8700080  77.8037090  90.8875980  47.2257100  77.8192480  97.9766930
  46.3975730  77.8885570  97.5017060  47.8207580  78.4046790  97.5082760
  44.7472550  78.4277260  91.5055990  44.1284970  78.0896810  90.8582290
  44.7297000  77.7837020  92.2135180  36.3231900  77.3921700  93.7840470
  35.9188900  76.6798950  93.2886370  36.4095020  77.0474940  94.6728510
  36.7913600  81.0789260  95.9479680  36.4941890  80.4734730  95.2687460
  37.7413420  81.1166570  95.8369040  35.0360520  74.1664910  97.5639510
  35.5875110  74.2760250  96.7892760  35.5504030  74.5402510  98.2794740
  42.9237250  77.6664070  88.5128740  43.3630530  76.8286500  88.3666560
  43.6365670  78.2993470  88.5992880  34.7103250  77.6884270 101.1744850
  34.5711020  78.5607070 101.5432250  33.8284610  77.3457080 101.0292790
  41.0332630  82.6060140  92.4809980  41.4728540  83.3484470  92.0665370
  40.9719520  82.8486710  93.4048940  46.5054390  68.9206880  86.8269780
  46.1927050  69.0133710  87.7268850  47.2666860  69.4987910  86.7767210
  48.4598420  84.4133070 104.6794170  48.9358140  84.8915960 105.3583250
  49.0805580  84.3450560 103.9539670  30.6621900  79.4581820  97.0915760
  30.7402320  79.5930590  96.1471480  31.2763580  78.7497710  97.2843880
  47.8631670  81.6045920 101.8394180  47.9894730  81.3657800 100.9211360
  47.9053050  80.7730460 102.3116260  43.7002810  85.5929260  89.8372990
  43.5403950  85.3032200  90.7354820  43.5349520  84.8169390  89.3018220
  43.4028940  83.1016820  88.3970990  42.7094100  83.0994110  87.7373270
  44.1451800  82.6776140  87.9665160  42.9678870  84.7279530  92.4719480
  43.4235820  83.9468910  92.7858100  43.3071390  85.4386350  93.0160660
  47.7155680  73.6578380 102.8043920  47.0999950  74.1658050 102.2759380
  47.3952100  72.7576710 102.7469860  30.7181420  80.4995990  99.6310220
  30.8812460  80.0301350  98.8129590  31.1833870  79.9919550 100.2959060
  44.7774510  73.7179220 101.4002770  43.9268100  73.4184970 101.7211840
  44.6176300  73.9621230 100.4886590  41.8724220  75.2180970 103.5001560
  42.1977630  74.3844720 103.1603790  42.6604550  75.7409490 103.6479890
  37.7213620  75.6520900 103.0612310  37.6257220  74.7115630 102.9112710
  38.5645600  75.8735970 102.6660380  37.2151220  75.9735400  87.9139300
  36.6468120  75.5253650  87.2875210  37.9240220  76.3328180  87.3804450
  32.2920400  79.8747420 101.7906030  31.9075190  79.2341090 102.3888990
  32.6032590  80.5783540 102.3600760  34.7598700  79.9693590  90.1865710
  33.9860960  79.4291210  90.0264430  35.4893330  79.4500200  89.8483470
  45.5186680  78.9658950  95.9792100  46.2385800  79.4614240  95.5888210
  45.3168500  78.2876840  95.3345970  34.8036100  79.6373970  93.8244520
  35.3214770  78.8342230  93.7701410  34.3520120  79.5753110  94.6661350
  39.6905600  80.9040250  89.0971820  40.0321300  81.6482480  88.6015140
  38.8618310  81.2171370  89.4596650  32.2880640  76.6035340 100.7370220
  31.9295580  77.2689190 101.3243560  31.9935200  75.7718890 101.1082840
  35.4893760  77.0619580 103.6209770  35.1893900  77.2076760 102.7237590
  36.2605000  76.5024870 103.5283160  45.9659280  76.0428400  87.8863510
  45.8823000  76.4742620  87.0359950  46.6853470  76.5026750  88.3190330
  47.0433420  78.4995920 100.9633480  46.3181610  79.0924700 100.7662870
  47.5708880  78.4919460 100.1646850  46.9946530  82.8970660  90.6145640
  46.3522690  82.2426280  90.8889360  46.6077190  83.3025750  89.8386310
  42.5733010  80.2256090  94.4617330  42.9256830  79.6284220  93.8018700
  41.6895340  79.9000320  94.6325580  38.6596290  80.9853780  91.8687740
  39.3467420  81.5322990  92.2495330  37.8728710  81.5294510  91.9037350
  30.7988690  76.6026600  87.3604820  31.6683540  76.8851400  87.6440740
  30.3079010  77.4162470  87.2453630  37.9623500  77.9899810  91.4813100
  38.4186280  78.8005060  91.7073290  37.6111710  77.6722950  92.3131590
  45.3843910  81.7887120  87.1521990  45.1581490  81.0717560  87.7446630
  44.9940110  81.5399560  86.3143740  44.9660160  79.7059060  88.8136150
  44.6781860  80.1671750  89.6014030  45.7612330  79.2456830  89.0820370
  37.1828560  83.1985180  88.7440120  37.1738660  83.9314870  88.1284630
  36.2626920  82.9516760  88.8367080  32.7835200  78.4200070  89.4886880
  32.1763150  79.1598970  89.4982180  33.2584550  78.5099430  88.6625080
  40.1688160  83.2613420  87.4065310  40.2700140  83.0577410  86.4767290
  39.2689900  83.0071700  87.6113090  38.8106270  85.7799740  92.1012980
  39.0647770  85.7421130  91.1792350  37.8618750  85.6533070  92.0941230
  44.8158850  76.6991620  93.6771490  43.8748990  76.7141850  93.8519180
  45.1302920  75.9127580  94.1231790  34.7940490  78.3811220  87.2375450
  35.5603760  78.2692580  87.8000880  34.8715180  77.6849190  86.5852220
  31.1747440  82.0305250  90.8984390  30.2487220  82.2726390  90.8889800
  31.6403870  82.8579510  90.7769140  37.4004270  85.1361990  86.8468450
  38.1932880  85.4250820  86.3950240  36.8808620  84.7054160  86.1680930
  46.4534440  84.3632120  88.2705190  46.1675950  83.9497260  87.4559370
  46.2553990  85.2919830  88.1505710  31.0158050  77.6351210 103.1564510
  31.5197070  77.0558490 103.7280740  30.2765470  77.9191440 103.6940880
  37.9181670  80.3565400  86.7110800  37.8132310  79.7417750  87.4372180
  37.7505890  79.8331290  85.9273810  38.0695990  79.0422200 102.6900030
  37.3041660  79.6107200 102.6054700  38.2511950  78.7498410 101.7968260
  41.1584400  79.4185430  87.3152790  40.6094500  79.8654730  87.9595530
  41.7803660  78.9134680  87.8390460  33.0481130  75.7780800 104.0514580
  33.0886470  75.4794670 104.9599810  33.9026630  76.1788410 103.8922100
  36.8259520  78.3776350  89.2118090  37.2475940  78.2116220  90.0549480
  36.9510360  77.5676580  88.7173230  34.9886940  74.3572900 102.0189070
  34.4583400  73.8663850 101.3912410  35.6575010  74.7857100 101.4847000
  39.3387160  77.4013960  86.4595190  39.8592820  76.6862980  86.0936340
  39.9855560  78.0399830  86.7595700  44.3587170  76.1638520 103.7869410
  44.9407940  75.4090840 103.6989890  44.5348940  76.6945960 103.0100890
  35.4759240  71.3235270 102.0986360  35.3816110  70.7056020 101.3737230
  34.8956630  72.0501560 101.8716270  35.7218420  74.4509580  86.1576250
  35.5207480  73.5876940  86.5189590  35.5510470  74.3642940  85.2197850
  34.5201220  71.5510200  86.1454130  34.8227120  71.5577630  85.2373280
  35.2595810  71.2008060  86.6421790  39.3549860  86.3167060 101.1270570
  39.2808560  87.2202200 101.4342940  38.4528700  85.9978960 101.0992640
  39.9035190  85.4825570  88.7496930  40.7985980  85.8210540  88.7715690
  39.9352820  84.7604980  88.1221210  35.3539070  81.9750660  92.0906160
  35.0534610  81.8515630  92.9910070  35.2476560  81.1159250  91.6821890
  46.8829540  84.0129240 101.4563130  46.2831530  84.0721800 100.7127050
  47.0123440  83.0734220 101.5859980  48.1230990  81.7547060  86.7932840
  47.2923950  81.8223710  87.2640070  48.3002820  82.6451180  86.4899700
  47.5787450  78.4994540  89.2967040  48.3406360  79.0691190  89.4026730
  47.5941820  77.9321740  90.0675350  31.0791790  77.0232470  93.5274700
  30.4240630  76.7544110  92.8834400  31.9169740  76.9136950  93.0776680
  48.5847420  79.3544640  94.1408970  48.9556250  78.5711960  93.7344940
  49.2249350  80.0433740  93.9626270  45.5681180  80.7381220  99.5539290
  44.7541020  81.1678380  99.8165080  45.9755380  81.3499630  98.9408340
  47.6306620  78.7928910  86.4539560  47.9055460  79.7007790  86.3258780
  47.4417360  78.7291440  87.3901550  47.5271960  76.7297900  91.4468990
  47.1515560  75.9625830  91.0150280  46.7975080  77.1120600  91.9343920
  32.1167720  77.4085040  98.0678040  32.4840760  77.3212440  98.9474060
  31.5478540  76.6451590  97.9684900  46.9171580  75.8769420 101.0808510
  46.6857670  75.6482170 100.1806460  47.1776130  76.7968970 101.0353400
  31.6683720  74.3194130 101.9736460  30.7739770  74.2860890 102.3130170
  32.2081270  74.5180920 102.7387710  46.8022920  74.9555390  94.7476230
  47.3260400  74.4618040  94.1166400  47.3882340  75.0905750  95.4923800
  46.9812640  75.0395260  98.2695780  46.0315350  75.0058800  98.3840770
  47.1625650  75.9495370  98.0345550  46.2922890  74.2128740  90.6868640
  46.7882010  73.9799610  91.4717520  46.0938960  73.3740580  90.2706280
  47.7210050  72.8489690  93.2206320  47.6109330  72.6945730  94.1588590
  48.4817640  72.3210630  92.9781730  48.6100320  70.6797610  86.4612460
  49.5349630  70.5478790  86.2530750  48.5876110  70.7590430  87.4148910
  48.6838810  71.4508270  89.0869170  47.8890310  71.3853390  89.6162080
  48.8882090  72.3858910  89.0754520  32.5976070  68.2774330 102.3395770
  33.1459060  68.0962380 101.5761880  32.6631380  67.4868440 102.8752080
  36.6065160  84.4483360  96.0853420  37.1230180  83.8370720  95.5601680
  37.2562540  84.9512140  96.5764430  39.3460660  85.3391850  96.9122400
  39.6338470  85.0846150  96.0355410  39.8583880  84.7869210  97.5027970
  40.5637670  69.0782050  97.4918910  39.7809460  69.5527550  97.7715670
  40.2700600  68.1736880  97.3832090  45.1158740  69.7805150  95.5368000
  45.5566830  69.7250250  94.6889600  44.8466330  70.6963160  95.6078180
  46.9797310  69.4120390  93.5476820  46.9185710  68.4681610  93.4007840
  47.7589340  69.5200480  94.0930280  38.4491890  71.4968800  93.0034940
  37.6366400  71.1225690  92.6630820  38.9533530  70.7413880  93.3056130
  42.9516870  68.1611250  94.2418010  43.5546240  68.7331460  94.7166530
  42.2109860  68.7250690  94.0191910  46.0951470  68.5632810  89.5158290
  46.2902100  69.4616260  89.7825720  45.3081340  68.3319890  90.0091240
  39.4133020  86.2607950 104.2790600  40.3400330  86.0252220 104.3226560
  39.3983450  87.0879950 103.7976630  36.5996630  68.9252700 104.0432480
  36.3180900  69.4286300 103.2793300  36.9816330  68.1274450 103.6774610
  34.6520520  82.3093090  88.8346490  34.0229400  82.7778190  89.3832320
  34.7668350  81.4642310  89.2692680  45.9810580  85.4877810 104.1031640
  46.7735900  84.9927040 103.8957600  46.2743730  86.1667950 104.7107250
  42.1070240  76.3598750  74.9847690  42.0264290  75.4453360  74.7139400
  41.6934660  76.8565820  74.2787400  34.2554110  78.4497580  77.7432720
  33.4238990  78.1946290  78.1429230  34.8635090  78.5208350  78.4790640
  34.2355370  82.4837670  77.9390740  34.5383410  81.5935410  77.7600960
  34.9798960  83.0407890  77.7112990  32.6646060  73.4099470  71.5275110
  31.7762760  73.7515440  71.4254990  32.9487250  73.2099790  70.6355940
  40.4859020  84.8295970  75.2660080  39.8670460  85.2853470  74.6954520
  41.3410800  84.9847430  74.8649780  39.6797270  80.8134960  76.8727120
  39.6105550  79.8724900  76.7116250  40.4417130  80.9036370  77.4449690
  31.8703940  71.4189480  79.1983740  31.6906780  70.5215230  79.4786500
  31.4684020  71.9661350  79.8730690  34.8407450  71.9930970  72.5613490
  34.9474200  72.8934700  72.8682250  33.9299810  71.9448940  72.2708140
  44.4926560  71.1155780  74.0324390  45.3136180  70.6252350  74.0749870
  44.5260640  71.7053440  74.7856230  36.6815180  74.9617340  76.8938670
  37.1893400  75.4598310  77.5343690  37.2128420  74.1852540  76.7178030
  48.7826110  73.1322530  80.5968020  48.0778280  73.5204240  80.0783130
  49.0484030  73.8272820  81.1988950  34.9651280  69.6015900  81.1602090
  34.9669720  70.1188290  80.3547990  34.1355590  69.1246080  81.1372020
  41.3522370  79.7135210  72.6591990  40.7339640  80.1784660  72.0954710
  41.8645620  80.4062690  73.0761500  44.7288040  73.0556160  76.8051930
  44.0243610  73.3441050  77.3855040  45.0900200  73.8656270  76.4451490
  34.6466610  71.3125860  79.1672540  34.9883420  72.1567910  78.8726410
  33.7082420  71.4609600  79.2837880  30.7205570  80.3991740  70.0331620
  30.3433550  80.8878840  69.3016520  30.9778640  81.0717020  70.6638150
  46.3450820  82.6731290  79.0679410  45.6614340  83.3430400  79.0596080
  46.8845110  82.8711940  78.3024270  47.7974960  72.5010950  77.1961140
  46.8499870  72.5349930  77.3276570  48.1224950  73.3149900  77.5810500
  38.3294500  68.8008130  75.4917130  38.6369480  68.2455020  74.7752630
  37.3995200  68.9352590  75.3090120  40.7175260  76.8656960  72.2277250
  39.7904540  76.7994340  72.4565720  40.8700080  77.8037090  72.1132490
  47.2257100  77.8192480  79.2023440  46.3975730  77.8885570  78.7273570
  47.8207580  78.4046790  78.7339270  44.7472550  78.4277260  72.7312500
  44.1284970  78.0896810  72.0838800  44.7297000  77.7837020  73.4391690
  36.3231900  77.3921700  75.0096980  35.9188900  76.6798950  74.5142880
  36.4095020  77.0474940  75.8985020  36.7913600  81.0789260  77.1736190
  36.4941890  80.4734730  76.4943970  37.7413420  81.1166570  77.0625550
  35.0360520  74.1664910  78.7896020  35.5875110  74.2760250  78.0149270
  35.5504030  74.5402510  79.5051250  44.8799210  84.6521130  80.8359290
  44.4029770  85.4593320  80.6431900  44.1961000  83.9999460  80.9885500
  42.9237250  77.6664070  69.7385250  43.3630530  76.8286500  69.5923070
  43.6365670  78.2993470  69.8249390  34.7103250  77.6884270  82.4001360
  34.5711020  78.5607070  82.7688760  33.8284610  77.3457080  82.2549300
  41.0332630  82.6060140  73.7066490  41.4728540  83.3484470  73.2921880
  40.9719520  82.8486710  74.6305450  46.5054390  68.9206880  68.0526290
  46.1927050  69.0133710  68.9525360  47.2666860  69.4987910  68.0023720
  48.4598420  84.4133070  85.9050680  48.9358140  84.8915960  86.5839760
  49.0805580  84.3450560  85.1796180  47.8631670  81.6045920  83.0650690
  47.9894730  81.3657800  82.1467870  47.9053050  80.7730460  83.5372770
  41.7248410  85.3073920  81.6345500  42.2393080  85.2181930  82.4367930
  40.8817490  85.6533620  81.9273410  47.7155680  73.6578380  84.0300430
  47.0999950  74.1658050  83.5015890  47.3952100  72.7576710  83.9726370
  30.7181420  80.4995990  80.8566730  30.8812460  80.0301350  80.0386100
  31.1833870  79.9919550  81.5215570  35.4900190  69.6301750  75.8927300
  35.0468340  70.4111290  75.5611820  36.0485180  69.9531640  76.5998240
  39.7770000  72.4970270  81.4962620  39.3149370  72.7053290  82.3082560
  39.3748110  71.6829620  81.1933290  44.7774510  73.7179220  82.6259280
  43.9268100  73.4184970  82.9468350  44.6176300  73.9621230  81.7143100
  41.8724220  75.2180970  84.7258070  42.1977630  74.3844720  84.3860300
  42.6604550  75.7409490  84.8736400  37.5276090  70.1749080  77.7516900
  37.8248420  71.0811910  77.6708920  38.0761650  69.6867860  77.1376470
  35.2814410  74.7535320  73.6208550  35.0555330  74.5372490  74.5255170
  34.5006940  75.1863780  73.2754520  42.5112170  74.7598690  72.2199200
  41.9121060  75.4834490  72.0362820  43.0591780  74.6975470  71.4375650
  37.7213620  75.6520900  84.2868820  37.6257220  74.7115630  84.1369220
  38.5645600  75.8735970  83.8916890  41.1177040  73.3962230  74.2502480
  41.5106610  73.7134430  73.4371170  41.4793890  72.5174110  74.3647000
  32.8524160  72.0634570  82.4402600  32.4587550  72.9109780  82.6475380
  32.1642560  71.4260940  82.6311240  30.3411440  73.9283150  67.6835400
  30.2586110  74.8713910  67.8250390  29.9894500  73.7858060  66.8047750
  38.1409570  72.6622180  76.7505750  38.1445630  72.2212130  75.9010290
  39.0360690  72.9839510  76.8577570  33.9911950  72.5448670  75.7099960
  33.6512000  73.0223900  76.4667010  33.2289270  72.0913790  75.3501060
  42.1658090  71.4401660  77.7576200  42.1830830  71.8910310  78.6018050
  41.9173670  70.5407300  77.9709640  45.5928840  68.8533840  83.5962580
  45.9174610  68.1223500  84.1220560  45.6285350  68.5347480  82.6943570
  31.3058030  71.4667650  74.6264630  31.0204950  71.1023320  75.4643250
  31.2436890  70.7348110  74.0127770  34.7598700  79.9693590  71.4122220
  33.9860960  79.4291210  71.2520940  35.4893330  79.4500200  71.0739980
  45.5186680  78.9658950  77.2048610  46.2385800  79.4614240  76.8144720
  45.3168500  78.2876840  76.5602480  34.8036100  79.6373970  75.0501030
  35.3214770  78.8342230  74.9957920  34.3520120  79.5753110  75.8917860
  39.6905600  80.9040250  70.3228330  40.0321300  81.6482480  69.8271650
  38.8618310  81.2171370  70.6853160  32.2880640  76.6035340  81.9626730
  31.9295580  77.2689190  82.5500070  31.9935200  75.7718890  82.3339350
  35.4893760  77.0619580  84.8466280  35.1893900  77.2076760  83.9494100
  36.2605000  76.5024870  84.7539670  45.9659280  76.0428400  69.1120020
  45.8823000  76.4742620  68.2616460  46.6853470  76.5026750  69.5446840
  47.0433420  78.4995920  82.1889990  46.3181610  79.0924700  81.9919380
  47.5708880  78.4919460  81.3903360  42.5733010  80.2256090  75.6873840
  42.9256830  79.6284220  75.0275210  41.6895340  79.9000320  75.8582090
  38.6596290  80.9853780  73.0944250  39.3467420  81.5322990  73.4751840
  37.8728710  81.5294510  73.1293860  30.7988690  76.6026600  68.5861330
  31.6683540  76.8851400  68.8697250  30.3079010  77.4162470  68.4710140
  37.9623500  77.9899810  72.7069610  38.4186280  78.8005060  72.9329800
  37.6111710  77.6722950  73.5388100  40.2656110  83.5006150  79.9361910
  40.9098330  83.7065530  80.6135330  40.6285550  82.7394550  79.4832760
  33.8635280  68.3337460  73.1792130  33.7349910  68.3255360  74.1277050
  33.0397300  68.6720550  72.8283140  41.5388190  81.5038500  78.6539360
  42.1810420  80.8031660  78.7671530  42.0637540  82.2836940  78.4736250
  45.3843910  81.7887120  68.3778500  45.1581490  81.0717560  68.9703140
  44.9940110  81.5399560  67.5400250  43.3125810  82.3033400  81.8575420
  43.6482050  82.8900090  82.5353340  42.3926150  82.1726110  82.0873210
  30.8629210  70.0928580  82.6398830  30.1487730  70.2925500  83.2451440
  31.2824250  69.3168150  83.0113630  39.1414390  82.3524730  85.0263480
  38.8211260  81.6333970  85.5709170  38.4672750  83.0279800  85.0999540
  37.1828560  83.1985180  69.9696630  37.1738660  83.9314870  69.3541140
  36.2626920  82.9516760  70.0623590  32.7835200  78.4200070  70.7143390
  32.1763150  79.1598970  70.7238690  33.2584550  78.5099430  69.8881590
  42.3567990  72.5850890  80.3900280  42.7248810  71.7646100  80.7179850
  41.4966190  72.6452780  80.8055930  45.7230020  71.5407830  71.1987840
  45.0943180  71.6453500  70.4846070  45.2281940  71.7604610  71.9881720
  40.1688160  83.2613420  68.6321820  40.2700140  83.0577410  67.7023800
  39.2689900  83.0071700  68.8369600  37.6914050  73.8193780  72.6145720
  36.9830200  74.2880120  73.0559330  37.9758530  73.1615790  73.2490910
  38.8106270  85.7799740  73.3269490  39.0647770  85.7421130  72.4048860
  37.8618750  85.6533070  73.3197740  46.5236840  71.4558440  81.4566640
  46.0210440  72.1963840  81.7960450  47.3393500  71.8442440  81.1403430
  44.8158850  76.6991620  74.9028000  43.8748990  76.7141850  75.0775690
  45.1302920  75.9127580  75.3488300  34.7940490  78.3811220  68.4631960
  35.5603760  78.2692580  69.0257390  34.8715180  77.6849190  67.8108730
  33.4887250  75.8136290  69.1464850  33.5690840  74.8663800  69.2582250
  34.3807000  76.1443170  69.2525510  37.4004270  85.1361990  68.0724960
  38.1932880  85.4250820  67.6206750  36.8808620  84.7054160  67.3937440
  42.1324870  81.2557620  85.3860380  41.5263030  81.2789220  84.6456130
  41.8278980  80.5240660  85.9227630  43.5625240  84.9837910  83.9969790
  44.5146990  84.8995930  83.9470030  43.4153460  85.6479620  84.6703580
  46.4534440  84.3632120  69.4961700  46.1675950  83.9497260  68.6815880
  46.2553990  85.2919830  69.3762220  31.0158050  77.6351210  84.3821020
  31.5197070  77.0558490  84.9537250  30.2765470  77.9191440  84.9197390
  37.9181670  80.3565400  67.9367310  37.8132310  79.7417750  68.6628690
  37.7505890  79.8331290  67.1530320  41.1584400  79.4185430  68.5409300
  40.6094500  79.8654730  69.1852040  41.7803660  78.9134680  69.0646970
  45.2119340  80.7727530  84.4731560  45.9528810  81.1103290  83.9699020
  44.4492020  80.9419590  83.9201330  33.0481130  75.7780800  85.2771090
  33.0886470  75.4794670  86.1856320  33.9026630  76.1788410  85.1178610
  36.8259520  78.3776350  70.4374600  37.2475940  78.2116220  71.2805990
  36.9510360  77.5676580  69.9429740  34.9886940  74.3572900  83.2445580
  34.4583400  73.8663850  82.6168920  35.6575010  74.7857100  82.7103510
  44.3587170  76.1638520  85.0125920  44.9407940  75.4090840  84.9246400
  44.5348940  76.6945960  84.2357400  35.4759240  71.3235270  83.3242870
  35.3816110  70.7056020  82.5993740  34.8956630  72.0501560  83.0972780
  38.2420680  69.8808510  80.3570260  37.7937980  69.9032770  79.5115810
  37.6085880  69.4827530  80.9540560  37.7512900  73.0500370  83.6196360
  38.3412590  72.7416220  84.3074180  36.9333140  72.5780120  83.7756260
  42.5706330  72.6666180  83.8529380  41.8821850  72.0047720  83.7879370
  43.2912350  72.2204450  84.2977840  39.3549860  86.3167060  82.3527080
  39.2808560  87.2202200  82.6599450  38.4528700  85.9978960  82.3249150
  39.9035190  85.4825570  69.9753440  40.7985980  85.8210540  69.9972200
  39.9352820  84.7604980  69.3477720  33.5431350  80.8552620  68.2040440
  33.9806220  81.3982290  68.8598020  34.0279080  80.0299570  68.2136780
  35.3539070  81.9750660  73.3162670  35.0534610  81.8515630  74.2166580
  35.2476560  81.1159250  72.9078400  31.2467360  84.5112240  78.3942330
  30.8098350  84.6913040  79.2266480  31.8145040  85.2686860  78.2524050
  46.8829540  84.0129240  82.6819640  46.2831530  84.0721800  81.9383560
  47.0123440  83.0734220  82.8116490  48.1230990  81.7547060  68.0189350
  47.2923950  81.8223710  68.4896580  48.3002820  82.6451180  67.7156210
  45.5681180  80.7381220  80.7795800  44.7541020  81.1678380  81.0421590
  45.9755380  81.3499630  80.1664850  47.6306620  78.7928910  67.6796070
  47.9055460  79.7007790  67.5515290  47.4417360  78.7291440  68.6158060
  47.5271960  76.7297900  72.6725500  47.1515560  75.9625830  72.2406790
  46.7975080  77.1120600  73.1600430  46.9171580  75.8769420  82.3065020
  46.6857670  75.6482170  81.4062970  47.1776130  76.7968970  82.2609910
  31.6683720  74.3194130  83.1992970  30.7739770  74.2860890  83.5386680
  32.2081270  74.5180920  83.9644220  45.3559650  71.1025850  85.0844720
  46.2329830  71.1109250  85.4678720  45.3680490  70.3656690  84.4737070
  30.2929870  74.2331400  70.6956540  29.3893950  74.4961600  70.5208200
  30.7770490  74.5042570  69.9156500  46.8022920  74.9555390  75.9732740
  47.3260400  74.4618040  75.3422910  47.3882340  75.0905750  76.7180310
  46.9812640  75.0395260  79.4952290  46.0315350  75.0058800  79.6097280
  47.1625650  75.9495370  79.2602060  32.8357080  73.2896940  68.6050920
  33.5448780  72.8680160  68.1198200  32.1197020  73.3572170  67.9734270
  46.2922890  74.2128740  71.9125150  46.7882010  73.9799610  72.6974030
  46.0938960  73.3740580  71.4962790  32.1723430  68.5942460  77.5476190
  32.8199620  68.0439840  77.1071350  32.5925270  68.8485610  78.3692000
  47.7210050  72.8489690  74.4462830  47.6109330  72.6945730  75.3845100
  48.4817640  72.3210630  74.2038240  46.0675770  68.7883820  80.9045830
  46.7047990  69.4017960  81.2705020  46.2150660  68.8244480  79.9595060
  48.6100320  70.6797610  67.6868970  49.5349630  70.5478790  67.4787260
  48.5876110  70.7590430  68.6405420  48.6838810  71.4508270  70.3125680
  47.8890310  71.3853390  70.8418590  48.8882090  72.3858910  70.3011030
  31.9255430  68.7498130  80.2901510  31.5770250  69.2061950  81.0559690
  31.5943130  67.8555260  80.3723940  39.4380250  69.9410010  83.8120930
  39.3769140  70.5331840  84.5616340  40.3780630  69.8335970  83.6671190
  42.0754810  69.5980070  83.4513220  42.6895220  69.9159360  82.7894300
  42.6204370  69.1128660  84.0709080  48.4929990  85.4971700  80.8575060
  47.9988270  85.8940570  80.1402190  47.8843280  84.8720910  81.2512340
  32.5976070  68.2774330  83.5652280  33.1459060  68.0962380  82.8018390
  32.6631380  67.4868440  84.1008590  42.8162850  68.1612210  79.7782510
  41.9422690  68.4947320  79.5755440  42.7073600  67.6885390  80.6034380
  43.7234830  70.3683080  81.1624230  43.3948190  69.5534840  80.7825960
  44.6717130  70.3252890  81.0389920  46.1769440  86.1395120  78.1361800
  45.7172410  86.8910930  77.7619820  45.5481900  85.4201590  78.0776600
  36.6065160  84.4483360  77.3109930  37.1230180  83.8370720  76.7858190
  37.2562540  84.9512140  77.8020940  39.3460660  85.3391850  78.1378910
  39.6338470  85.0846150  77.2611920  39.8583880  84.7869210  78.7284480
  40.5637670  69.0782050  78.7175420  39.7809460  69.5527550  78.9972180
  40.2700600  68.1736880  78.6088600  45.1158740  69.7805150  76.7624510
  45.5566830  69.7250250  75.9146110  44.8466330  70.6963160  76.8334690
  31.9078080  69.3829530  71.2389140  32.6657440  69.4958410  70.6653170
  31.4455250  70.2198730  71.1932570  38.4491890  71.4968800  74.2291450
  37.6366400  71.1225690  73.8887330  38.9533530  70.7413880  74.5312640
  42.9516870  68.1611250  75.4674520  43.5546240  68.7331460  75.9423040
  42.2109860  68.7250690  75.2448420  32.8912760  84.2445980  71.1807420
  32.3660380  84.6254010  70.4769380  32.8157340  84.8696750  71.9017130
  36.4741070  69.6468720  72.8336500  35.8443810  68.9456030  73.0006630
  35.9346210  70.4072850  72.6169660  39.4133020  86.2607950  85.5047110
  40.3400330  86.0252220  85.5483070  39.3983450  87.0879950  85.0233140
  36.5996630  68.9252700  85.2688990  36.3180900  69.4286300  84.5049810
  36.9816330  68.1274450  84.9031120  34.6520520  82.3093090  70.0603000
  34.0229400  82.7778190  70.6088830  34.7668350  81.4642310  70.4949190
  43.2012090  68.3406280  85.8469460  43.0877540  68.6600890  86.7420980
  44.0181830  68.7418790  85.5506740  45.9810580  85.4877810  85.3288150
  46.7735900  84.9927040  85.1214110  46.2743730  86.1667950  85.9363760
  42.1070240  76.3598750  56.2104200  42.0264290  75.4453360  55.9395910
  41.6934660  76.8565820  55.5043910  40.2388280  78.1377770  58.0913470
  39.4630380  77.6578210  58.3812040  40.8901210  77.4583420  57.9169630
  44.2595710  82.5437960  56.8712600  43.7977240  81.7725200  57.1999770
  45.0721260  82.5704030  57.3765050  32.6646060  73.4099470  52.7531620
  31.7762760  73.7515440  52.6511500  32.9487250  73.2099790  51.8612450
  30.6279070  76.0105120  58.6371320  31.1995180  75.2427320  58.6374960
  30.6280610  76.3093880  57.7277930  40.4859020  84.8295970  56.4916590
  39.8670460  85.2853470  55.9211030  41.3410800  84.9847430  56.0906290
  39.6797270  80.8134960  58.0983630  39.6105550  79.8724900  57.9372760
  40.4417130  80.9036370  58.6706200  31.8703940  71.4189480  60.4240250
  31.6906780  70.5215230  60.7043010  31.4684020  71.9661350  61.0987200
  40.7102440  73.6205340  58.3252560  41.0867260  72.7477220  58.2126230
  40.6121950  73.9564040  57.4343000  34.8407450  71.9930970  53.7870000
  34.9474200  72.8934700  54.0938760  33.9299810  71.9448940  53.4964650
  44.4926560  71.1155780  55.2580900  45.3136180  70.6252350  55.3006380
  44.5260640  71.7053440  56.0112740  32.4890610  73.9149980  59.0322590
  33.1700720  74.1788350  59.6509990  32.1738660  73.0750850  59.3660600
  36.6815180  74.9617340  58.1195180  37.1893400  75.4598310  58.7600200
  37.2128420  74.1852540  57.9434540  41.3522370  79.7135210  53.8848500
  40.7339640  80.1784660  53.3211220  41.8645620  80.4062690  54.3018010
  36.2154130  79.2411080  60.5632100  35.8823510  79.8680000  61.2053170
  36.3920810  79.7672960  59.7833770  44.7288040  73.0556160  58.0308440
  44.0243610  73.3441050  58.6111550  45.0900200  73.8656270  57.6708000
  34.6466610  71.3125860  60.3929050  34.9883420  72.1567910  60.0982920
  33.7082420  71.4609600  60.5094390  35.4273230  81.2091880  62.3781280
  36.0447230  81.8842960  62.0965730  34.5666350  81.6179860  62.2868780
  46.3450820  82.6731290  60.2935920  45.6614340  83.3430400  60.2852590
  46.8845110  82.8711940  59.5280780  47.7974960  72.5010950  58.4217650
  46.8499870  72.5349930  58.5533080  48.1224950  73.3149900  58.8067010
  38.3294500  68.8008130  56.7173640  38.6369480  68.2455020  56.0009140
  37.3995200  68.9352590  56.5346630  43.8809560  84.5175420  59.0081100
  43.8936720  84.1137710  58.1403360  43.3284780  85.2922710  58.9042530
  45.1754980  81.2391640  54.0971270  45.0651310  80.2965970  54.2220690
  45.1723230  81.6007280  54.9834030  43.2795000  79.4205260  60.3363710
  43.6963790  79.2065370  59.5017170  44.0034820  79.6778050  60.9072330
  40.7175260  76.8656960  53.4533760  39.7904540  76.7994340  53.6822230
  40.8700080  77.8037090  53.3389000  40.7044340  73.1373960  50.4500920
  39.7648010  73.2987920  50.5353380  41.0227600  73.8559640  49.9036910
  47.2257100  77.8192480  60.4279950  46.3975730  77.8885570  59.9530080
  47.8207580  78.4046790  59.9595780  44.7472550  78.4277260  53.9569010
  44.1284970  78.0896810  53.3095310  44.7297000  77.7837020  54.6648200
  44.1899110  74.6061800  61.3734820  43.7770290  75.4315510  61.6274810
  43.4575060  74.0206840  61.1811180  35.0360520  74.1664910  60.0152530
  35.5875110  74.2760250  59.2405780  35.5504030  74.5402510  60.7307760
  44.8799210  84.6521130  62.0615800  44.4029770  85.4593320  61.8688410
  44.1961000  83.9999460  62.2142010  35.8832030  80.8170950  65.0500500
  34.9860560  81.0410920  65.2973900  35.9084900  80.9405890  64.1011900
  42.9237250  77.6664070  50.9641760  43.3630530  76.8286500  50.8179580
  43.6365670  78.2993470  51.0505900  34.7103250  77.6884270  63.6257870
  34.5711020  78.5607070  63.9945270  33.8284610  77.3457080  63.4805810
  41.0332630  82.6060140  54.9323000  41.4728540  83.3484470  54.5178390
  40.9719520  82.8486710  55.8561960  36.5083600  83.6305970  65.8343020
  36.4799030  84.0348920  64.9671450  36.3448570  82.7016330  65.6714620
  33.0236530  76.2866680  53.7360140  32.9034130  77.0128770  53.1241410
  32.7137420  75.5169590  53.2588050  48.4598420  84.4133070  67.1307190
  48.9358140  84.8915960  67.8096270  49.0805580  84.3450560  66.4052690
  47.8631670  81.6045920  64.2907200  47.9894730  81.3657800  63.3724380
  47.9053050  80.7730460  64.7629280  43.7002810  85.5929260  52.2886010
  43.5403950  85.3032200  53.1867840  43.5349520  84.8169390  51.7531240
  43.4028940  83.1016820  50.8484010  42.7094100  83.0994110  50.1886290
  44.1451800  82.6776140  50.4178180  42.9678870  84.7279530  54.9232500
  43.4235820  83.9468910  55.2371120  43.3071390  85.4386350  55.4673680
  35.4900190  69.6301750  57.1183810  35.0468340  70.4111290  56.7868330
  36.0485180  69.9531640  57.8254750  38.6059010  69.2512450  51.9989640
  37.9813190  69.2472320  52.7242950  38.5189130  68.3843410  51.6025610
  37.5276090  70.1749080  58.9773410  37.8248420  71.0811910  58.8965430
  38.0761650  69.6867860  58.3632980  35.2814410  74.7535320  54.8465060
  35.0555330  74.5372490  55.7511680  34.5006940  75.1863780  54.5011030
  42.5112170  74.7598690  53.4455710  41.9121060  75.4834490  53.2619330
  43.0591780  74.6975470  52.6632160  41.1177040  73.3962230  55.4758990
  41.5106610  73.7134430  54.6627680  41.4793890  72.5174110  55.5903510
  32.8524160  72.0634570  63.6659110  32.4587550  72.9109780  63.8731890
  32.1642560  71.4260940  63.8567750  30.1541210  69.9863030  57.6989190
  29.8654260  70.5565890  58.4114170  30.8986970  69.5067480  58.0620420
  30.3411440  73.9283150  48.9091910  30.2586110  74.8713910  49.0506900
  29.9894500  73.7858060  48.0304260  41.7032180  75.9867980  59.5709770
  40.9713300  76.4954790  59.9199870  41.3056520  75.1697960  59.2698550
  38.1409570  72.6622180  57.9762260  38.1445630  72.2212130  57.1266800
  39.0360690  72.9839510  58.0834080  33.9911950  72.5448670  56.9356470
  33.6512000  73.0223900  57.6923520  33.2289270  72.0913790  56.5757570
  38.2029720  73.6634260  50.9669020  38.3242540  73.6220740  51.9154840
  37.8178230  74.5258410  50.8115750  42.1658090  71.4401660  58.9832710
  42.1830830  71.8910310  59.8274560  41.9173670  70.5407300  59.1966150
  45.5928840  68.8533840  64.8219090  45.9174610  68.1223500  65.3477070
  45.6285350  68.5347480  63.9200080  32.2920400  79.8747420  64.2419050
  31.9075190  79.2341090  64.8402010  32.6032590  80.5783540  64.8113780
  38.4417540  76.7223960  59.7227670  38.8087670  76.2482530  60.4689010
  38.2522600  77.5965530  60.0636010  31.3058030  71.4667650  55.8521140
  31.0204950  71.1023320  56.6899760  31.2436890  70.7348110  55.2384280
  36.2316910  75.7632600  62.0411880  35.9273980  76.6424580  62.2662240
  37.1863370  75.8232390  62.0769320  34.7598700  79.9693590  52.6378730
  33.9860960  79.4291210  52.4777450  35.4893330  79.4500200  52.2996490
  45.5186680  78.9658950  58.4305120  46.2385800  79.4614240  58.0401230
  45.3168500  78.2876840  57.7858990  40.9005480  79.0368010  64.3174120
  40.8342790  78.1163680  64.0631710  40.2710620  79.1343450  65.0318760
  43.6945010  74.7316560  50.8696670  44.5824630  75.0433790  50.6948010
  43.6650100  73.8588810  50.4777250  32.2880640  76.6035340  63.1883240
  31.9295580  77.2689190  63.7756580  31.9935200  75.7718890  63.5595860
  35.4893760  77.0619580  66.0722790  35.1893900  77.2076760  65.1750610
  36.2605000  76.5024870  65.9796180  40.8322210  81.8588580  64.0677920
  40.8466750  80.9269540  63.8496830  40.1247310  81.9448340  64.7067690
  45.9659280  76.0428400  50.3376530  45.8823000  76.4742620  49.4872970
  46.6853470  76.5026750  50.7703350  47.0433420  78.4995920  63.4146500
  46.3181610  79.0924700  63.2175890  47.5708880  78.4919460  62.6159870
  46.9946530  82.8970660  53.0658660  46.3522690  82.2426280  53.3402380
  46.6077190  83.3025750  52.2899330  42.5733010  80.2256090  56.9130350
  42.9256830  79.6284220  56.2531720  41.6895340  79.9000320  57.0838600
  38.6596290  80.9853780  54.3200760  39.3467420  81.5322990  54.7008350
  37.8728710  81.5294510  54.3550370  37.9623500  77.9899810  53.9326120
  38.4186280  78.8005060  54.1586310  37.6111710  77.6722950  54.7644610
  40.2656110  83.5006150  61.1618420  40.9098330  83.7065530  61.8391840
  40.6285550  82.7394550  60.7089270  33.8635280  68.3337460  54.4048640
  33.7349910  68.3255360  55.3533560  33.0397300  68.6720550  54.0539650
  41.5388190  81.5038500  59.8795870  42.1810420  80.8031660  59.9928040
  42.0637540  82.2836940  59.6992760  45.3843910  81.7887120  49.6035010
  45.1581490  81.0717560  50.1959650  44.9940110  81.5399560  48.7656760
  43.3125810  82.3033400  63.0831930  43.6482050  82.8900090  63.7609850
  42.3926150  82.1726110  63.3129720  44.9660160  79.7059060  51.2649170
  44.6781860  80.1671750  52.0527050  45.7612330  79.2456830  51.5333390
  39.1414390  82.3524730  66.2519990  38.8211260  81.6333970  66.7965680
  38.4672750  83.0279800  66.3256050  37.1828560  83.1985180  51.1953140
  37.1738660  83.9314870  50.5797650  36.2626920  82.9516760  51.2880100
  32.7835200  78.4200070  51.9399900  32.1763150  79.1598970  51.9495200
  33.2584550  78.5099430  51.1138100  42.3567990  72.5850890  61.6156790
  42.7248810  71.7646100  61.9436360  41.4966190  72.6452780  62.0312440
  45.7230020  71.5407830  52.4244350  45.0943180  71.6453500  51.7102580
  45.2281940  71.7604610  53.2138230  40.1688160  83.2613420  49.8578330
  40.2700140  83.0577410  48.9280310  39.2689900  83.0071700  50.0626110
  37.6914050  73.8193780  53.8402230  36.9830200  74.2880120  54.2815840
  37.9758530  73.1615790  54.4747420  39.3169980  75.2390480  61.8394760
  39.8155230  75.7136300  62.5046610  39.4592930  74.3154000  62.0464790
  41.7229480  70.5444440  55.2798020  41.5997260  70.5630570  54.3307530
  42.6714040  70.5923380  55.3996420  38.8106270  85.7799740  54.5526000
  39.0647770  85.7421130  53.6305370  37.8618750  85.6533070  54.5454250
  35.8949070  72.1278860  51.2152940  36.7439600  72.5649010  51.1493130
  35.5280340  72.4399120  52.0425000  44.8158850  76.6991620  56.1284510
  43.8748990  76.7141850  56.3032200  45.1302920  75.9127580  56.5744810
  33.4887250  75.8136290  50.3721360  33.5690840  74.8663800  50.4838760
  34.3807000  76.1443170  50.4782020  46.8184430  83.8700470  57.8038770
  46.9431850  84.6931640  58.2762580  47.6849990  83.6591200  57.4562920
  31.1747440  82.0305250  53.3497410  30.2487220  82.2726390  53.3402820
  31.6403870  82.8579510  53.2282160  33.2960240  85.1477750  66.6641480
  34.0972970  85.4689800  67.0776880  32.7812060  84.7873330  67.3861390
  37.4004270  85.1361990  49.2981470  38.1932880  85.4250820  48.8463260
  36.8808620  84.7054160  48.6193950  42.1324870  81.2557620  66.6116890
  41.5263030  81.2789220  65.8712640  41.8278980  80.5240660  67.1484140
  43.5625240  84.9837910  65.2226300  44.5146990  84.8995930  65.1726540
  43.4153460  85.6479620  65.8960090  46.4534440  84.3632120  50.7218210
  46.1675950  83.9497260  49.9072390  46.2553990  85.2919830  50.6018730
  31.0158050  77.6351210  65.6077530  31.5197070  77.0558490  66.1793760
  30.2765470  77.9191440  66.1453900  38.0695990  79.0422200  65.1413050
  37.3041660  79.6107200  65.0567720  38.2511950  78.7498410  64.2481280
  45.2119340  80.7727530  65.6988070  45.9528810  81.1103290  65.1955530
  44.4492020  80.9419590  65.1457840  33.0481130  75.7780800  66.5027600
  33.0886470  75.4794670  67.4112830  33.9026630  76.1788410  66.3435120
  43.8865000  78.8242360  64.2343280  44.3006020  78.9787440  65.0833700
  42.9516000  78.9497580  64.3969060  38.6480230  78.7762840  62.2039210
  39.0668340  79.6195570  62.0315450  37.7288860  78.9134880  61.9745990
  40.9844130  76.5079020  63.5877050  41.1040340  75.9120160  64.3271890
  41.8438130  76.5448710  63.1678350  43.3232030  77.0616210  62.1639560
  42.7967250  77.5858830  61.5604700  43.6663370  77.6943600  62.7949290
  36.4987650  85.0815850  63.3196940  35.9608740  85.8061910  63.0005640
  36.7521610  84.6046190  62.5294280  34.5201220  71.5510200  48.5967150
  34.8227120  71.5577630  47.6886300  35.2595810  71.2008060  49.0934810
  39.9035190  85.4825570  51.2009950  40.7985980  85.8210540  51.2228710
  39.9352820  84.7604980  50.5734230  46.8829540  84.0129240  63.9076150
  46.2831530  84.0721800  63.1640070  47.0123440  83.0734220  64.0373000
  48.1230990  81.7547060  49.2445860  47.2923950  81.8223710  49.7153090
  48.3002820  82.6451180  48.9412720  47.5787450  78.4994540  51.7480060
  48.3406360  79.0691190  51.8539750  47.5941820  77.9321740  52.5188370
  31.0791790  77.0232470  55.9787720  30.4240630  76.7544110  55.3347420
  31.9169740  76.9136950  55.5289700  48.5847420  79.3544640  56.5921990
  48.9556250  78.5711960  56.1857960  49.2249350  80.0433740  56.4139290
  45.5681180  80.7381220  62.0052310  44.7541020  81.1678380  62.2678100
  45.9755380  81.3499630  61.3921360  47.6306620  78.7928910  48.9052580
  47.9055460  79.7007790  48.7771800  47.4417360  78.7291440  49.8414570
  44.0282230  71.8173760  50.2006210  44.4467110  71.6304740  49.3602870
  43.7218290  70.9652810  50.5109140  47.5271960  76.7297900  53.8982010
  47.1515560  75.9625830  53.4663300  46.7975080  77.1120600  54.3856940
  32.1167720  77.4085040  60.5191060  32.4840760  77.3212440  61.3987080
  31.5478540  76.6451590  60.4197920  31.6683720  74.3194130  64.4249480
  30.7739770  74.2860890  64.7643190  32.2081270  74.5180920  65.1900730
  30.2929870  74.2331400  51.9213050  29.3893950  74.4961600  51.7464710
  30.7770490  74.5042570  51.1413010  46.8022920  74.9555390  57.1989250
  47.3260400  74.4618040  56.5679420  47.3882340  75.0905750  57.9436820
  46.9812640  75.0395260  60.7208800  46.0315350  75.0058800  60.8353790
  47.1625650  75.9495370  60.4858570  32.8357080  73.2896940  49.8307430
  33.5448780  72.8680160  49.3454710  32.1197020  73.3572170  49.1990780
  32.4831240  69.3436270  48.8710080  33.2059370  69.8845210  49.1891300
  32.7555760  69.0699690  47.9951620  46.2922890  74.2128740  53.1381660
  46.7882010  73.9799610  53.9230540  46.0938960  73.3740580  52.7219300
  32.1723430  68.5942460  58.7732700  32.8199620  68.0439840  58.3327860
  32.5925270  68.8485610  59.5948510  47.7210050  72.8489690  55.6719340
  47.6109330  72.6945730  56.6101610  48.4817640  72.3210630  55.4294750
  46.0675770  68.7883820  62.1302340  46.7047990  69.4017960  62.4961530
  46.2150660  68.8244480  61.1851570  45.6257230  85.4899820  55.5320580
  46.2216300  85.1684390  54.8555000  45.8835380  85.0171640  56.3233850
  31.9255430  68.7498130  61.5158020  31.5770250  69.2061950  62.2816200
  31.5943130  67.8555260  61.5980450  33.5319800  81.9217730  65.6811210
  33.4889430  81.5510640  66.5625670  33.6630810  82.8595300  65.8213030
  37.2325830  83.4777320  61.2820930  36.9917190  83.7451880  60.3951450
  38.1728470  83.6483050  61.3371790  48.4929990  85.4971700  62.0831570
  47.9988270  85.8940570  61.3658700  47.8843280  84.8720910  62.4768850
  33.3707830  84.8679980  62.8008990  32.7768150  84.7364680  63.5399030
  33.3631670  84.0318120  62.3351090  42.8162850  68.1612210  61.0039020
  41.9422690  68.4947320  60.8011950  42.7073600  67.6885390  61.8290890
  46.1769440  86.1395120  59.3618310  45.7172410  86.8910930  58.9876330
  45.5481900  85.4201590  59.3033110  33.0020060  82.2338360  61.7517030
  32.2754120  81.6143650  61.6842980  33.0629210  82.6278970  60.8815110
  39.3460660  85.3391850  59.3635420  39.6338470  85.0846150  58.4868430
  39.8583880  84.7869210  59.9540990  40.5637670  69.0782050  59.9431930
  39.7809460  69.5527550  60.2228690  40.2700600  68.1736880  59.8345110
  45.1158740  69.7805150  57.9881020  45.5566830  69.7250250  57.1402620
  44.8466330  70.6963160  58.0591200  46.9797310  69.4120390  55.9989840
  46.9185710  68.4681610  55.8520860  47.7589340  69.5200480  56.5443300
  31.2850060  85.5512750  54.9613790  31.1172100  84.9183430  55.6595680
  30.4184570  85.7572150  54.6107980  31.9078080  69.3829530  52.4645650
  32.6657440  69.4958410  51.8909680  31.4455250  70.2198730  52.4189080
  38.4491890  71.4968800  55.4547960  37.6366400  71.1225690  55.1143840
  38.9533530  70.7413880  55.7569150  42.9516870  68.1611250  56.6931030
  43.5546240  68.7331460  57.1679550  42.2109860  68.7250690  56.4704930
  32.8912760  84.2445980  52.4063930  32.3660380  84.6254010  51.7025890
  32.8157340  84.8696750  53.1273640  34.2803230  69.9093580  51.0047620
  34.8095990  69.1223380  50.8755570  34.9131550  70.5884770  51.2383150
  36.4741070  69.6468720  54.0593010  35.8443810  68.9456030  54.2263140
  35.9346210  70.4072850  53.8426170  47.6478080  85.8033520  53.7277870
  47.8230270  85.1171260  53.0838790  46.9499650  86.3280570  53.3354540
  35.4905730  86.1928360  51.2813180  36.2224550  85.9087640  50.7337070
  35.7499400  85.9541640  52.1712560  34.6520520  82.3093090  51.2859510
  34.0229400  82.7778190  51.8345340  34.7668350  81.4642310  51.7205700
  45.9810580  85.4877810  66.5544660  46.7735900  84.9927040  66.3470620
  46.2743730  86.1667950  67.1620270  42.1070240  76.3598750  37.4360710
  42.0264290  75.4453360  37.1652420  41.6934660  76.8565820  36.7300420
  34.2355370  82.4837670  40.3903760  34.5383410  81.5935410  40.2113980
  34.9798960  83.0407890  40.1626010  32.6646060  73.4099470  33.9788130
  31.7762760  73.7515440  33.8768010  32.9487250  73.2099790  33.0868960
  31.8703940  71.4189480  41.6496760  31.6906780  70.5215230  41.9299520
  31.4684020  71.9661350  42.3243710  34.8407450  71.9930970  35.0126510
  34.9474200  72.8934700  35.3195270  33.9299810  71.9448940  34.7221160
  36.6815180  74.9617340  39.3451690  37.1893400  75.4598310  39.9856710
  37.2128420  74.1852540  39.1691050  36.2154130  79.2411080  41.7888610
  35.8823510  79.8680000  42.4309680  36.3920810  79.7672960  41.0090280
  44.7288040  73.0556160  39.2564950  44.0243610  73.3441050  39.8368060
  45.0900200  73.8656270  38.8964510  34.6466610  71.3125860  41.6185560
  34.9883420  72.1567910  41.3239430  33.7082420  71.4609600  41.7350900
  30.7205570  80.3991740  32.4844640  30.3433550  80.8878840  31.7529540
  30.9778640  81.0717020  33.1151170  46.3450820  82.6731290  41.5192430
  45.6614340  83.3430400  41.5109100  46.8845110  82.8711940  40.7537290
  43.2795000  79.4205260  41.5620220  43.6963790  79.2065370  40.7273680
  44.0034820  79.6778050  42.1328840  40.7175260  76.8656960  34.6790270
  39.7904540  76.7994340  34.9078740  40.8700080  77.8037090  34.5645510
  47.2257100  77.8192480  41.6536460  46.3975730  77.8885570  41.1786590
  47.8207580  78.4046790  41.1852290  44.7472550  78.4277260  35.1825520
  44.1284970  78.0896810  34.5351820  44.7297000  77.7837020  35.8904710
  36.3231900  77.3921700  37.4610000  35.9188900  76.6798950  36.9655900
  36.4095020  77.0474940  38.3498040  36.7913600  81.0789260  39.6249210
  36.4941890  80.4734730  38.9456990  37.7413420  81.1166570  39.5138570
  44.8799210  84.6521130  43.2872310  44.4029770  85.4593320  43.0944920
  44.1961000  83.9999460  43.4398520  33.0236530  76.2866680  34.9616650
  32.9034130  77.0128770  34.3497920  32.7137420  75.5169590  34.4844560
  31.9069530  81.1582010  37.1791470  31.4997610  81.2996600  36.3245070
  32.7982540  80.8742170  36.9762680  43.7002810  85.5929260  33.5142520
  43.5403950  85.3032200  34.4124350  43.5349520  84.8169390  32.9787750
  36.1791190  85.3727790  35.2914140  36.0033670  84.4563330  35.0781940
  35.3246930  85.7315080  35.5311940  43.4028940  83.1016820  32.0740520
  42.7094100  83.0994110  31.4142800  44.1451800  82.6776140  31.6434690
  47.7155680  73.6578380  46.4813450  47.0999950  74.1658050  45.9528910
  47.3952100  72.7576710  46.4239390  41.8724220  75.2180970  47.1771090
  42.1977630  74.3844720  46.8373320  42.6604550  75.7409490  47.3249420
  35.2814410  74.7535320  36.0721570  35.0555330  74.5372490  36.9768190
  34.5006940  75.1863780  35.7267540  32.8524160  72.0634570  44.8915620
  32.4587550  72.9109780  45.0988400  32.1642560  71.4260940  45.0824260
  30.1541210  69.9863030  38.9245700  29.8654260  70.5565890  39.6370680
  30.8986970  69.5067480  39.2876930  30.3411440  73.9283150  30.1348420
  30.2586110  74.8713910  30.2763410  29.9894500  73.7858060  29.2560770
  41.7032180  75.9867980  40.7966280  40.9713300  76.4954790  41.1456380
  41.3056520  75.1697960  40.4955060  33.9911950  72.5448670  38.1612980
  33.6512000  73.0223900  38.9180030  33.2289270  72.0913790  37.8014080
  37.2151220  75.9735400  31.5908830  36.6468120  75.5253650  30.9644740
  37.9240220  76.3328180  31.0573980  38.4417540  76.7223960  40.9484180
  38.8087670  76.2482530  41.6945520  38.2522600  77.5965530  41.2892520
  31.3058030  71.4667650  37.0777650  31.0204950  71.1023320  37.9156270
  31.2436890  70.7348110  36.4640790  34.7598700  79.9693590  33.8635240
  33.9860960  79.4291210  33.7033960  35.4893330  79.4500200  33.5253000
  45.5186680  78.9658950  39.6561630  46.2385800  79.4614240  39.2657740
  45.3168500  78.2876840  39.0115500  40.9005480  79.0368010  45.5430630
  40.8342790  78.1163680  45.2888220  40.2710620  79.1343450  46.2575270
  34.8036100  79.6373970  37.5014050  35.3214770  78.8342230  37.4470940
  34.3520120  79.5753110  38.3430880  39.6905600  80.9040250  32.7741350
  40.0321300  81.6482480  32.2784670  38.8618310  81.2171370  33.1366180
  40.8322210  81.8588580  45.2934430  40.8466750  80.9269540  45.0753340
  40.1247310  81.9448340  45.9324200  45.9659280  76.0428400  31.5633040
  45.8823000  76.4742620  30.7129480  46.6853470  76.5026750  31.9959860
  47.0433420  78.4995920  44.6403010  46.3181610  79.0924700  44.4432400
  47.5708880  78.4919460  43.8416380  46.9946530  82.8970660  34.2915170
  46.3522690  82.2426280  34.5658890  46.6077190  83.3025750  33.5155840
  38.6596290  80.9853780  35.5457270  39.3467420  81.5322990  35.9264860
  37.8728710  81.5294510  35.5806880  30.7988690  76.6026600  31.0374350
  31.6683540  76.8851400  31.3210270  30.3079010  77.4162470  30.9223160
  37.9623500  77.9899810  35.1582630  38.4186280  78.8005060  35.3842820
  37.6111710  77.6722950  35.9901120  33.8635280  68.3337460  35.6305150
  33.7349910  68.3255360  36.5790070  33.0397300  68.6720550  35.2796160
  45.3843910  81.7887120  30.8291520  45.1581490  81.0717560  31.4216160
  44.9940110  81.5399560  29.9913270  43.3125810  82.3033400  44.3088440
  43.6482050  82.8900090  44.9866360  42.3926150  82.1726110  44.5386230
  31.1659940  85.8153980  31.6035980  31.5257580  86.4143320  30.9493250
  31.0252280  86.3613870  32.3771010  30.8629210  70.0928580  45.0911850
  30.1487730  70.2925500  45.6964460  31.2824250  69.3168150  45.4626650
  44.9660160  79.7059060  32.4905680  44.6781860  80.1671750  33.2783560
  45.7612330  79.2456830  32.7589900  37.1828560  83.1985180  32.4209650
  37.1738660  83.9314870  31.8054160  36.2626920  82.9516760  32.5136610
  32.7835200  78.4200070  33.1656410  32.1763150  79.1598970  33.1751710
  33.2584550  78.5099430  32.3394610  40.1688160  83.2613420  31.0834840
  40.2700140  83.0577410  30.1536820  39.2689900  83.0071700  31.2882620
  38.8106270  85.7799740  35.7782510  39.0647770  85.7421130  34.8561880
  37.8618750  85.6533070  35.7710760  35.8949070  72.1278860  32.4409450
  36.7439600  72.5649010  32.3749640  35.5280340  72.4399120  33.2681510
  44.8158850  76.6991620  37.3541020  43.8748990  76.7141850  37.5288710
  45.1302920  75.9127580  37.8001320  34.7940490  78.3811220  30.9144980
  35.5603760  78.2692580  31.4770410  34.8715180  77.6849190  30.2621750
  33.4887250  75.8136290  31.5977870  33.5690840  74.8663800  31.7095270
  34.3807000  76.1443170  31.7038530  34.2901960  85.9631680  38.7012410
  35.0264440  85.4147140  38.9720980  34.6742880  86.8287690  38.5618400
  31.1747440  82.0305250  34.5753920  30.2487220  82.2726390  34.5659330
  31.6403870  82.8579510  34.4538670  37.4004270  85.1361990  30.5237980
  38.1932880  85.4250820  30.0719770  36.8808620  84.7054160  29.8450460
  42.1324870  81.2557620  47.8373400  41.5263030  81.2789220  47.0969150
  41.8278980  80.5240660  48.3740650  46.4534440  84.3632120  31.9474720
  46.1675950  83.9497260  31.1328900  46.2553990  85.2919830  31.8275240
  37.9181670  80.3565400  30.3880330  37.8132310  79.7417750  31.1141710
  37.7505890  79.8331290  29.6043340  41.1584400  79.4185430  30.9922320
  40.6094500  79.8654730  31.6365060  41.7803660  78.9134680  31.5159990
  45.2119340  80.7727530  46.9244580  45.9528810  81.1103290  46.4212040
  44.4492020  80.9419590  46.3714350  36.8259520  78.3776350  32.8887620
  37.2475940  78.2116220  33.7319010  36.9510360  77.5676580  32.3942760
  43.8865000  78.8242360  45.4599790  44.3006020  78.9787440  46.3090210
  42.9516000  78.9497580  45.6225570  44.3587170  76.1638520  47.4638940
  44.9407940  75.4090840  47.3759420  44.5348940  76.6945960  46.6870420
  35.4759240  71.3235270  45.7755890  35.3816110  70.7056020  45.0506760
  34.8956630  72.0501560  45.5485800  38.6480230  78.7762840  43.4295720
  39.0668340  79.6195570  43.2571960  37.7288860  78.9134880  43.2002500
  40.9844130  76.5079020  44.8133560  41.1040340  75.9120160  45.5528400
  41.8438130  76.5448710  44.3934860  43.3232030  77.0616210  43.3896070
  42.7967250  77.5858830  42.7861210  43.6663370  77.6943600  44.0205800
  35.7218420  74.4509580  29.8345780  35.5207480  73.5876940  30.1959120
  35.5510470  74.3642940  28.8967380  36.4987650  85.0815850  44.5453450
  35.9608740  85.8061910  44.2262150  36.7521610  84.6046190  43.7550790
  34.5201220  71.5510200  29.8223660  34.8227120  71.5577630  28.9142810
  35.2595810  71.2008060  30.3191320  37.7386150  70.4944820  30.8079860
  37.3908150  69.8168810  30.2282310  37.9398920  70.0334330  31.6223250
  39.9035190  85.4825570  32.4266460  40.7985980  85.8210540  32.4485220
  39.9352820  84.7604980  31.7990740  33.5431350  80.8552620  30.6553460
  33.9806220  81.3982290  31.3111040  34.0279080  80.0299570  30.6649800
  30.7577150  83.6441650  38.1073720  31.0880160  82.7762710  37.8752360
  31.1868150  83.8500170  38.9378680  35.3539070  81.9750660  35.7675690
  35.0534610  81.8515630  36.6679600  35.2476560  81.1159250  35.3591420
  46.8829540  84.0129240  45.1332660  46.2831530  84.0721800  44.3896580
  47.0123440  83.0734220  45.2629510  48.1230990  81.7547060  30.4702370
  47.2923950  81.8223710  30.9409600  48.3002820  82.6451180  30.1669230
  47.5787450  78.4994540  32.9736570  48.3406360  79.0691190  33.0796260
  47.5941820  77.9321740  33.7444880  31.0791790  77.0232470  37.2044230
  30.4240630  76.7544110  36.5603930  31.9169740  76.9136950  36.7546210
  48.5847420  79.3544640  37.8178500  48.9556250  78.5711960  37.4114470
  49.2249350  80.0433740  37.6395800  45.5681180  80.7381220  43.2308820
  44.7541020  81.1678380  43.4934610  45.9755380  81.3499630  42.6177870
  47.6306620  78.7928910  30.1309090  47.9055460  79.7007790  30.0028310
  47.4417360  78.7291440  31.0671080  47.5271960  76.7297900  35.1238520
  47.1515560  75.9625830  34.6919810  46.7975080  77.1120600  35.6113450
  46.9171580  75.8769420  44.7578040  46.6857670  75.6482170  43.8575990
  47.1776130  76.7968970  44.7122930  30.2929870  74.2331400  33.1469560
  29.3893950  74.4961600  32.9721220  30.7770490  74.5042570  32.3669520
  46.8022920  74.9555390  38.4245760  47.3260400  74.4618040  37.7935930
  47.3882340  75.0905750  39.1693330  46.9812640  75.0395260  41.9465310
  46.0315350  75.0058800  42.0610300  47.1625650  75.9495370  41.7115080
  32.8357080  73.2896940  31.0563940  33.5448780  72.8680160  30.5711220
  32.1197020  73.3572170  30.4247290  32.4831240  69.3436270  30.0966590
  33.2059370  69.8845210  30.4147810  32.7555760  69.0699690  29.2208130
  46.2922890  74.2128740  34.3638170  46.7882010  73.9799610  35.1487050
  46.0938960  73.3740580  33.9475810  32.1723430  68.5942460  39.9989210
  32.8199620  68.0439840  39.5584370  32.5925270  68.8485610  40.8205020
  48.6100320  70.6797610  30.1381990  49.5349630  70.5478790  29.9300280
  48.5876110  70.7590430  31.0918440  48.6838810  71.4508270  32.7638700
  47.8890310  71.3853390  33.2931610  48.8882090  72.3858910  32.7524050
  31.9255430  68.7498130  42.7414530  31.5770250  69.2061950  43.5072710
  31.5943130  67.8555260  42.8236960  37.2325830  83.4777320  42.5077440
  36.9917190  83.7451880  41.6207960  38.1728470  83.6483050  42.5628300
  48.4929990  85.4971700  43.3088080  47.9988270  85.8940570  42.5915210
  47.8843280  84.8720910  43.7025360  32.5976070  68.2774330  46.0165300
  33.1459060  68.0962380  45.2531410  32.6631380  67.4868440  46.5521610
  46.1769440  86.1395120  40.5874820  45.7172410  86.8910930  40.2132840
  45.5481900  85.4201590  40.5289620  36.6065160  84.4483360  39.7622950
  37.1230180  83.8370720  39.2371210  37.2562540  84.9512140  40.2533960
  45.1158740  69.7805150  39.2137530  45.5566830  69.7250250  38.3659130
  44.8466330  70.6963160  39.2847710  46.9797310  69.4120390  37.2246350
  46.9185710  68.4681610  37.0777370  47.7589340  69.5200480  37.7699810
  31.2850060  85.5512750  36.1870300  31.1172100  84.9183430  36.8852190
  30.4184570  85.7572150  35.8364490  31.9078080  69.3829530  33.6902160
  32.6657440  69.4958410  33.1166190  31.4455250  70.2198730  33.6445590
  46.0951470  68.5632810  33.1927820  46.2902100  69.4616260  33.4595250
  45.3081340  68.3319890  33.6860770  32.8912760  84.2445980  33.6320440
  32.3660380  84.6254010  32.9282400  32.8157340  84.8696750  34.3530150
  34.2803230  69.9093580  32.2304130  34.8095990  69.1223380  32.1012080
  34.9131550  70.5884770  32.4639660  36.4741070  69.6468720  35.2849520
  35.8443810  68.9456030  35.4519650  35.9346210  70.4072850  35.0682680
  39.4133020  86.2607950  47.9560130  40.3400330  86.0252220  47.9996090
  39.3983450  87.0879950  47.4746160  47.6478080  85.8033520  34.9534380
  47.8230270  85.1171260  34.3095300  46.9499650  86.3280570  34.5611050
  36.5996630  68.9252700  47.7202010  36.3180900  69.4286300  46.9562830
  36.9816330  68.1274450  47.3544140  35.4905730  86.1928360  32.5069690
  36.2224550  85.9087640  31.9593580  35.7499400  85.9541640  33.3969070
  34.6520520  82.3093090  32.5116020  34.0229400  82.7778190  33.0601850
  34.7668350  81.4642310  32.9462210  45.9810580  85.4877810  47.7801170
  46.7735900  84.9927040  47.5727130  46.2743730  86.1667950  48.3876780
  42.1070240  76.3598750  18.6617220  42.0264290  75.4453360  18.3908930
  41.6934660  76.8565820  17.9556930  40.2388280  78.1377770  20.5426490
  39.4630380  77.6578210  20.8325060  40.8901210  77.4583420  20.3682650
  34.2554110  78.4497580  21.4202250  33.4238990  78.1946290  21.8198760
  34.8635090  78.5208350  22.1560170  44.2595710  82.5437960  19.3225620
  43.7977240  81.7725200  19.6512790  45.0721260  82.5704030  19.8278070
  34.2355370  82.4837670  21.6160270  34.5383410  81.5935410  21.4370490
  34.9798960  83.0407890  21.3882520  32.6646060  73.4099470  15.2044640
  31.7762760  73.7515440  15.1024520  32.9487250  73.2099790  14.3125470
  30.6279070  76.0105120  21.0884340  31.1995180  75.2427320  21.0887980
  30.6280610  76.3093880  20.1790950  40.4859020  84.8295970  18.9429610
  39.8670460  85.2853470  18.3724050  41.3410800  84.9847430  18.5419310
  31.8703940  71.4189480  22.8753270  31.6906780  70.5215230  23.1556030
  31.4684020  71.9661350  23.5500220  40.7102440  73.6205340  20.7765580
  41.0867260  72.7477220  20.6639250  40.6121950  73.9564040  19.8856020
  34.8407450  71.9930970  16.2383020  34.9474200  72.8934700  16.5451780
  33.9299810  71.9448940  15.9477670  44.4926560  71.1155780  17.7093920
  45.3136180  70.6252350  17.7519400  44.5260640  71.7053440  18.4625760
  32.4890610  73.9149980  21.4835610  33.1700720  74.1788350  22.1023010
  32.1738660  73.0750850  21.8173620  36.6815180  74.9617340  20.5708200
  37.1893400  75.4598310  21.2113220  37.2128420  74.1852540  20.3947560
  48.7826110  73.1322530  24.2737550  48.0778280  73.5204240  23.7552660
  49.0484030  73.8272820  24.8758480  34.9651280  69.6015900  24.8371620
  34.9669720  70.1188290  24.0317520  34.1355590  69.1246080  24.8141550
  41.3522370  79.7135210  16.3361520  40.7339640  80.1784660  15.7724240
  41.8645620  80.4062690  16.7531030  36.2154130  79.2411080  23.0145120
  35.8823510  79.8680000  23.6566190  36.3920810  79.7672960  22.2346790
  44.7288040  73.0556160  20.4821460  44.0243610  73.3441050  21.0624570
  45.0900200  73.8656270  20.1221020  34.6466610  71.3125860  22.8442070
  34.9883420  72.1567910  22.5495940  33.7082420  71.4609600  22.9607410
  35.4273230  81.2091880  24.8294300  36.0447230  81.8842960  24.5478750
  34.5666350  81.6179860  24.7381800  30.7205570  80.3991740  13.7101150
  30.3433550  80.8878840  12.9786050  30.9778640  81.0717020  14.3407680
  47.7974960  72.5010950  20.8730670  46.8499870  72.5349930  21.0046100
  48.1224950  73.3149900  21.2580030  38.3294500  68.8008130  19.1686660
  38.6369480  68.2455020  18.4522160  37.3995200  68.9352590  18.9859650
  45.1754980  81.2391640  16.5484290  45.0651310  80.2965970  16.6733710
  45.1723230  81.6007280  17.4347050  40.7175260  76.8656960  15.9046780
  39.7904540  76.7994340  16.1335250  40.8700080  77.8037090  15.7902020
  40.7044340  73.1373960  12.9013940  39.7648010  73.2987920  12.9866400
  41.0227600  73.8559640  12.3549930  47.2257100  77.8192480  22.8792970
  46.3975730  77.8885570  22.4043100  47.8207580  78.4046790  22.4108800
  44.7472550  78.4277260  16.4082030  44.1284970  78.0896810  15.7608330
  44.7297000  77.7837020  17.1161220  44.1899110  74.6061800  23.8247840
  43.7770290  75.4315510  24.0787830  43.4575060  74.0206840  23.6324200
  36.3231900  77.3921700  18.6866510  35.9188900  76.6798950  18.1912410
  36.4095020  77.0474940  19.5754550  36.7913600  81.0789260  20.8505720
  36.4941890  80.4734730  20.1713500  37.7413420  81.1166570  20.7395080
  35.0360520  74.1664910  22.4665550  35.5875110  74.2760250  21.6918800
  35.5504030  74.5402510  23.1820780  35.8832030  80.8170950  27.5013520
  34.9860560  81.0410920  27.7486920  35.9084900  80.9405890  26.5524920
  42.9237250  77.6664070  13.4154780  43.3630530  76.8286500  13.2692600
  43.6365670  78.2993470  13.5018920  34.7103250  77.6884270  26.0770890
  34.5711020  78.5607070  26.4458290  33.8284610  77.3457080  25.9318830
  41.0332630  82.6060140  17.3836020  41.4728540  83.3484470  16.9691410
  40.9719520  82.8486710  18.3074980  36.5083600  83.6305970  28.2856040
  36.4799030  84.0348920  27.4184470  36.3448570  82.7016330  28.1227640
  46.5054390  68.9206880  11.7295820  46.1927050  69.0133710  12.6294890
  47.2666860  69.4987910  11.6793250  33.0236530  76.2866680  16.1873160
  32.9034130  77.0128770  15.5754430  32.7137420  75.5169590  15.7101070
  30.6621900  79.4581820  21.9941800  30.7402320  79.5930590  21.0497520
  31.2763580  78.7497710  22.1869920  31.9069530  81.1582010  18.4047980
  31.4997610  81.2996600  17.5501580  32.7982540  80.8742170  18.2019190
  43.7002810  85.5929260  14.7399030  43.5403950  85.3032200  15.6380860
  43.5349520  84.8169390  14.2044260  36.1791190  85.3727790  16.5170650
  36.0033670  84.4563330  16.3038450  35.3246930  85.7315080  16.7568450
  43.4028940  83.1016820  13.2997030  42.7094100  83.0994110  12.6399310
  44.1451800  82.6776140  12.8691200  42.9678870  84.7279530  17.3745520
  43.4235820  83.9468910  17.6884140  43.3071390  85.4386350  17.9186700
  47.7155680  73.6578380  27.7069960  47.0999950  74.1658050  27.1785420
  47.3952100  72.7576710  27.6495900  30.7181420  80.4995990  24.5336260
  30.8812460  80.0301350  23.7155630  31.1833870  79.9919550  25.1985100
  35.4900190  69.6301750  19.5696830  35.0468340  70.4111290  19.2381350
  36.0485180  69.9531640  20.2767770  39.7770000  72.4970270  25.1732150
  39.3149370  72.7053290  25.9852090  39.3748110  71.6829620  24.8702820
  44.7774510  73.7179220  26.3028810  43.9268100  73.4184970  26.6237880
  44.6176300  73.9621230  25.3912630  38.6059010  69.2512450  14.4502660
  37.9813190  69.2472320  15.1755970  38.5189130  68.3843410  14.0538630
  37.5276090  70.1749080  21.4286430  37.8248420  71.0811910  21.3478450
  38.0761650  69.6867860  20.8146000  35.2814410  74.7535320  17.2978080
  35.0555330  74.5372490  18.2024700  34.5006940  75.1863780  16.9524050
  42.5112170  74.7598690  15.8968730  41.9121060  75.4834490  15.7132350
  43.0591780  74.6975470  15.1145180  41.1177040  73.3962230  17.9272010
  41.5106610  73.7134430  17.1140700  41.4793890  72.5174110  18.0416530
  32.8524160  72.0634570  26.1172130  32.4587550  72.9109780  26.3244910
  32.1642560  71.4260940  26.3080770  30.1541210  69.9863030  20.1502210
  29.8654260  70.5565890  20.8627190  30.8986970  69.5067480  20.5133440
  30.3411440  73.9283150  11.3604930  30.2586110  74.8713910  11.5019920
  29.9894500  73.7858060  10.4817280  41.7032180  75.9867980  22.0222790
  40.9713300  76.4954790  22.3712890  41.3056520  75.1697960  21.7211570
  38.1409570  72.6622180  20.4275280  38.1445630  72.2212130  19.5779820
  39.0360690  72.9839510  20.5347100  33.9911950  72.5448670  19.3869490
  33.6512000  73.0223900  20.1436540  33.2289270  72.0913790  19.0270590
  38.2029720  73.6634260  13.4182040  38.3242540  73.6220740  14.3667860
  37.8178230  74.5258410  13.2628770  42.1658090  71.4401660  21.4345730
  42.1830830  71.8910310  22.2787580  41.9173670  70.5407300  21.6479170
  37.2151220  75.9735400  12.8165340  36.6468120  75.5253650  12.1901250
  37.9240220  76.3328180  12.2830490  32.2920400  79.8747420  26.6932070
  31.9075190  79.2341090  27.2915030  32.6032590  80.5783540  27.2626800
  38.4417540  76.7223960  22.1740690  38.8087670  76.2482530  22.9202030
  38.2522600  77.5965530  22.5149030  31.3058030  71.4667650  18.3034160
  31.0204950  71.1023320  19.1412780  31.2436890  70.7348110  17.6897300
  36.2316910  75.7632600  24.4924900  35.9273980  76.6424580  24.7175260
  37.1863370  75.8232390  24.5282340  34.7598700  79.9693590  15.0891750
  33.9860960  79.4291210  14.9290470  35.4893330  79.4500200  14.7509510
  40.9796620  70.3596910  15.0247530  40.1661230  69.8610080  14.9492840
  40.7858570  71.1995160  14.6083880  40.9005480  79.0368010  26.7687140
  40.8342790  78.1163680  26.5144730  40.2710620  79.1343450  27.4831780
  43.6945010  74.7316560  13.3209690  44.5824630  75.0433790  13.1461030
  43.6650100  73.8588810  12.9290270  34.8036100  79.6373970  18.7270560
  35.3214770  78.8342230  18.6727450  34.3520120  79.5753110  19.5687390
  39.6905600  80.9040250  13.9997860  40.0321300  81.6482480  13.5041180
  38.8618310  81.2171370  14.3622690  32.2880640  76.6035340  25.6396260
  31.9295580  77.2689190  26.2269600  31.9935200  75.7718890  26.0108880
  35.4893760  77.0619580  28.5235810  35.1893900  77.2076760  27.6263630
  36.2605000  76.5024870  28.4309200  45.9659280  76.0428400  12.7889550
  45.8823000  76.4742620  11.9385990  46.6853470  76.5026750  13.2216370
  46.9946530  82.8970660  15.5171680  46.3522690  82.2426280  15.7915400
  46.6077190  83.3025750  14.7412350  38.6596290  80.9853780  16.7713780
  39.3467420  81.5322990  17.1521370  37.8728710  81.5294510  16.8063390
  30.7988690  76.6026600  12.2630860  31.6683540  76.8851400  12.5466780
  30.3079010  77.4162470  12.1479670  37.9623500  77.9899810  16.3839140
  38.4186280  78.8005060  16.6099330  37.6111710  77.6722950  17.2157630
  33.8635280  68.3337460  16.8561660  33.7349910  68.3255360  17.8046580
  33.0397300  68.6720550  16.5052670  45.3843910  81.7887120  12.0548030
  45.1581490  81.0717560  12.6472670  44.9940110  81.5399560  11.2169780
  31.1659940  85.8153980  12.8292490  31.5257580  86.4143320  12.1749760
  31.0252280  86.3613870  13.6027520  30.8629210  70.0928580  26.3168360
  30.1487730  70.2925500  26.9220970  31.2824250  69.3168150  26.6883160
  44.9660160  79.7059060  13.7162190  44.6781860  80.1671750  14.5040070
  45.7612330  79.2456830  13.9846410  31.1501800  84.0808840  27.3034890
  31.2592920  83.1403580  27.1630280  30.4982360  84.3463590  26.6548620
  39.1414390  82.3524730  28.7033010  38.8211260  81.6333970  29.2478700
  38.4672750  83.0279800  28.7769070  37.1828560  83.1985180  13.6466160
  37.1738660  83.9314870  13.0310670  36.2626920  82.9516760  13.7393120
  32.7835200  78.4200070  14.3912920  32.1763150  79.1598970  14.4008220
  33.2584550  78.5099430  13.5651120  42.3567990  72.5850890  24.0669810
  42.7248810  71.7646100  24.3949380  41.4966190  72.6452780  24.4825460
  45.7230020  71.5407830  14.8757370  45.0943180  71.6453500  14.1615600
  45.2281940  71.7604610  15.6651250  40.1688160  83.2613420  12.3091350
  40.2700140  83.0577410  11.3793330  39.2689900  83.0071700  12.5139130
  37.6914050  73.8193780  16.2915250  36.9830200  74.2880120  16.7328860
  37.9758530  73.1615790  16.9260440  39.3169980  75.2390480  24.2907780
  39.8155230  75.7136300  24.9559630  39.4592930  74.3154000  24.4977810
  41.7229480  70.5444440  17.7311040  41.5997260  70.5630570  16.7820550
  42.6714040  70.5923380  17.8509440  38.8106270  85.7799740  17.0039020
  39.0647770  85.7421130  16.0818390  37.8618750  85.6533070  16.9967270
  35.8949070  72.1278860  13.6665960  36.7439600  72.5649010  13.6006150
  35.5280340  72.4399120  14.4938020  44.8158850  76.6991620  18.5797530
  43.8748990  76.7141850  18.7545220  45.1302920  75.9127580  19.0257830
  34.7940490  78.3811220  12.1401490  35.5603760  78.2692580  12.7026920
  34.8715180  77.6849190  11.4878260  33.4887250  75.8136290  12.8234380
  33.5690840  74.8663800  12.9351780  34.3807000  76.1443170  12.9295040
  46.8184430  83.8700470  20.2551790  46.9431850  84.6931640  20.7275600
  47.6849990  83.6591200  19.9075940  34.2901960  85.9631680  19.9268920
  35.0264440  85.4147140  20.1977490  34.6742880  86.8287690  19.7874910
  31.1747440  82.0305250  15.8010430  30.2487220  82.2726390  15.7915840
  31.6403870  82.8579510  15.6795180  33.2960240  85.1477750  29.1154500
  34.0972970  85.4689800  29.5289900  32.7812060  84.7873330  29.8374410
  37.4004270  85.1361990  11.7494490  38.1932880  85.4250820  11.2976280
  36.8808620  84.7054160  11.0706970  42.1324870  81.2557620  29.0629910
  41.5263030  81.2789220  28.3225660  41.8278980  80.5240660  29.5997160
  46.4534440  84.3632120  13.1731230  46.1675950  83.9497260  12.3585410
  46.2553990  85.2919830  13.0531750  31.0158050  77.6351210  28.0590550
  31.5197070  77.0558490  28.6306780  30.2765470  77.9191440  28.5966920
  37.9181670  80.3565400  11.6136840  37.8132310  79.7417750  12.3398220
  37.7505890  79.8331290  10.8299850  38.0695990  79.0422200  27.5926070
  37.3041660  79.6107200  27.5080740  38.2511950  78.7498410  26.6994300
  41.1584400  79.4185430  12.2178830  40.6094500  79.8654730  12.8621570
  41.7803660  78.9134680  12.7416500  33.0481130  75.7780800  28.9540620
  33.0886470  75.4794670  29.8625850  33.9026630  76.1788410  28.7948140
  36.8259520  78.3776350  14.1144130  37.2475940  78.2116220  14.9575520
  36.9510360  77.5676580  13.6199270  34.9886940  74.3572900  26.9215110
  34.4583400  73.8663850  26.2938450  35.6575010  74.7857100  26.3873040
  39.3387160  77.4013960  11.3621230  39.8592820  76.6862980  10.9962380
  39.9855560  78.0399830  11.6621740  35.4759240  71.3235270  27.0012400
  35.3816110  70.7056020  26.2763270  34.8956630  72.0501560  26.7742310
  38.2420680  69.8808510  24.0339790  37.7937980  69.9032770  23.1885340
  37.6085880  69.4827530  24.6310090  38.6480230  78.7762840  24.6552230
  39.0668340  79.6195570  24.4828470  37.7288860  78.9134880  24.4259010
  40.9844130  76.5079020  26.0390070  41.1040340  75.9120160  26.7784910
  41.8438130  76.5448710  25.6191370  35.7218420  74.4509580  11.0602290
  35.5207480  73.5876940  11.4215630  35.5510470  74.3642940  10.1223890
  36.4987650  85.0815850  25.7709960  35.9608740  85.8061910  25.4518660
  36.7521610  84.6046190  24.9807300  43.2006730  69.2617810  13.5889170
  43.4809020  68.4185710  13.9448590  42.4272460  69.4940920  14.1027920
  34.5201220  71.5510200  11.0480170  34.8227120  71.5577630  10.1399320
  35.2595810  71.2008060  11.5447830  39.3549860  86.3167060  26.0296610
  39.2808560  87.2202200  26.3368980  38.4528700  85.9978960  26.0018680
  37.7386150  70.4944820  12.0336370  37.3908150  69.8168810  11.4538820
  37.9398920  70.0334330  12.8479760  39.9035190  85.4825570  13.6522970
  40.7985980  85.8210540  13.6741730  39.9352820  84.7604980  13.0247250
  33.5431350  80.8552620  11.8809970  33.9806220  81.3982290  12.5367550
  34.0279080  80.0299570  11.8906310  30.7577150  83.6441650  19.3330230
  31.0880160  82.7762710  19.1008870  31.1868150  83.8500170  20.1635190
  35.3539070  81.9750660  16.9932200  35.0534610  81.8515630  17.8936110
  35.2476560  81.1159250  16.5847930  31.2467360  84.5112240  22.0711860
  30.8098350  84.6913040  22.9036010  31.8145040  85.2686860  21.9293580
  48.1230990  81.7547060  11.6958880  47.2923950  81.8223710  12.1666110
  48.3002820  82.6451180  11.3925740  47.5787450  78.4994540  14.1993080
  48.3406360  79.0691190  14.3052770  47.5941820  77.9321740  14.9701390
  31.0791790  77.0232470  18.4300740  30.4240630  76.7544110  17.7860440
  31.9169740  76.9136950  17.9802720  48.5847420  79.3544640  19.0435010
  48.9556250  78.5711960  18.6370980  49.2249350  80.0433740  18.8652310
  47.6306620  78.7928910  11.3565600  47.9055460  79.7007790  11.2284820
  47.4417360  78.7291440  12.2927590  44.0282230  71.8173760  12.6519230
  44.4467110  71.6304740  11.8115890  43.7218290  70.9652810  12.9622160
  47.5271960  76.7297900  16.3495030  47.1515560  75.9625830  15.9176320
  46.7975080  77.1120600  16.8369960  32.1167720  77.4085040  22.9704080
  32.4840760  77.3212440  23.8500100  31.5478540  76.6451590  22.8710940
  46.9171580  75.8769420  25.9834550  46.6857670  75.6482170  25.0832500
  47.1776130  76.7968970  25.9379440  31.6683720  74.3194130  26.8762500
  30.7739770  74.2860890  27.2156210  32.2081270  74.5180920  27.6413750
  30.2929870  74.2331400  14.3726070  29.3893950  74.4961600  14.1977730
  30.7770490  74.5042570  13.5926030  46.8022920  74.9555390  19.6502270
  47.3260400  74.4618040  19.0192440  47.3882340  75.0905750  20.3949840
  46.9812640  75.0395260  23.1721820  46.0315350  75.0058800  23.2866810
  47.1625650  75.9495370  22.9371590  32.8357080  73.2896940  12.2820450
  33.5448780  72.8680160  11.7967730  32.1197020  73.3572170  11.6503800
  32.4831240  69.3436270  11.3223100  33.2059370  69.8845210  11.6404320
  32.7555760  69.0699690  10.4464640  46.2922890  74.2128740  15.5894680
  46.7882010  73.9799610  16.3743560  46.0938960  73.3740580  15.1732320
  32.1723430  68.5942460  21.2245720  32.8199620  68.0439840  20.7840880
  32.5925270  68.8485610  22.0461530  47.7210050  72.8489690  18.1232360
  47.6109330  72.6945730  19.0614630  48.4817640  72.3210630  17.8807770
  48.6100320  70.6797610  11.3638500  49.5349630  70.5478790  11.1556790
  48.5876110  70.7590430  12.3174950  48.6838810  71.4508270  13.9895210
  47.8890310  71.3853390  14.5188120  48.8882090  72.3858910  13.9780560
  45.6257230  85.4899820  17.9833600  46.2216300  85.1684390  17.3068020
  45.8835380  85.0171640  18.7746870  31.9255430  68.7498130  23.9671040
  31.5770250  69.2061950  24.7329220  31.5943130  67.8555260  24.0493470
  33.5319800  81.9217730  28.1324230  33.4889430  81.5510640  29.0138690
  33.6630810  82.8595300  28.2726050  37.2325830  83.4777320  23.7333950
  36.9917190  83.7451880  22.8464470  38.1728470  83.6483050  23.7884810
  32.5976070  68.2774330  27.2421810  33.1459060  68.0962380  26.4787920
  32.6631380  67.4868440  27.7778120  33.3707830  84.8679980  25.2522010
  32.7768150  84.7364680  25.9912050  33.3631670  84.0318120  24.7864110
  46.1769440  86.1395120  21.8131330  45.7172410  86.8910930  21.4389350
  45.5481900  85.4201590  21.7546130  33.0020060  82.2338360  24.2030050
  32.2754120  81.6143650  24.1356000  33.0629210  82.6278970  23.3328130
  36.6065160  84.4483360  20.9879460  37.1230180  83.8370720  20.4627720
  37.2562540  84.9512140  21.4790470  39.3460660  85.3391850  21.8148440
  39.6338470  85.0846150  20.9381450  39.8583880  84.7869210  22.4054010
  40.5637670  69.0782050  22.3944950  39.7809460  69.5527550  22.6741710
  40.2700600  68.1736880  22.2858130  45.1158740  69.7805150  20.4394040
  45.5566830  69.7250250  19.5915640  44.8466330  70.6963160  20.5104220
  46.9797310  69.4120390  18.4502860  46.9185710  68.4681610  18.3033880
  47.7589340  69.5200480  18.9956320  31.2850060  85.5512750  17.4126810
  31.1172100  84.9183430  18.1108700  30.4184570  85.7572150  17.0621000
  31.9078080  69.3829530  14.9158670  32.6657440  69.4958410  14.3422700
  31.4455250  70.2198730  14.8702100  38.4491890  71.4968800  17.9060980
  37.6366400  71.1225690  17.5656860  38.9533530  70.7413880  18.2082170
  42.9516870  68.1611250  19.1444050  43.5546240  68.7331460  19.6192570
  42.2109860  68.7250690  18.9217950  46.0951470  68.5632810  14.4184330
  46.2902100  69.4616260  14.6851760  45.3081340  68.3319890  14.9117280
  32.8912760  84.2445980  14.8576950  32.3660380  84.6254010  14.1538910
  32.8157340  84.8696750  15.5786660  34.2803230  69.9093580  13.4560640
  34.8095990  69.1223380  13.3268590  34.9131550  70.5884770  13.6896170
  36.4741070  69.6468720  16.5106030  35.8443810  68.9456030  16.6776160
  35.9346210  70.4072850  16.2939190  39.4133020  86.2607950  29.1816640
  40.3400330  86.0252220  29.2252600  39.3983450  87.0879950  28.7002670
  47.6478080  85.8033520  16.1790890  47.8230270  85.1171260  15.5351810
  46.9499650  86.3280570  15.7867560  36.5996630  68.9252700  28.9458520
  36.3180900  69.4286300  28.1819340  36.9816330  68.1274450  28.5800650
  35.4905730  86.1928360  13.7326200  36.2224550  85.9087640  13.1850090
  35.7499400  85.9541640  14.6225580  34.6520520  82.3093090  13.7372530
  34.0229400  82.7778190  14.2858360  34.7668350  81.4642310  14.1718720
  45.9810580  85.4877810  29.0057680  46.7735900  84.9927040  28.7983640
  46.2743730  86.1667950  29.6133290  40.2388280  78.1377770   1.7683000
  39.4630380  77.6578210   2.0581570  40.8901210  77.4583420   1.5939160
  34.2554110  78.4497580   2.6458760  33.4238990  78.1946290   3.0455270
  34.8635090  78.5208350   3.3816680  34.2355370  82.4837670   2.8416780
  34.5383410  81.5935410   2.6627000  34.9798960  83.0407890   2.6139030
  39.6797270  80.8134960   1.7753160  39.6105550  79.8724900   1.6142290
  40.4417130  80.9036370   2.3475730  31.8703940  71.4189480   4.1009780
  31.6906780  70.5215230   4.3812540  31.4684020  71.9661350   4.7756730
  32.4890610  73.9149980   2.7092120  33.1700720  74.1788350   3.3279520
  32.1738660  73.0750850   3.0430130  36.6815180  74.9617340   1.7964710
  37.1893400  75.4598310   2.4369730  37.2128420  74.1852540   1.6204070
  48.7826110  73.1322530   5.4994060  48.0778280  73.5204240   4.9809170
  49.0484030  73.8272820   6.1014990  34.9651280  69.6015900   6.0628130
  34.9669720  70.1188290   5.2574030  34.1355590  69.1246080   6.0398060
  36.2154130  79.2411080   4.2401630  35.8823510  79.8680000   4.8822700
  36.3920810  79.7672960   3.4603300  34.6466610  71.3125860   4.0698580
  34.9883420  72.1567910   3.7752450  33.7082420  71.4609600   4.1863920
  35.4273230  81.2091880   6.0550810  36.0447230  81.8842960   5.7735260
  34.5666350  81.6179860   5.9638310  46.3450820  82.6731290   3.9705450
  45.6614340  83.3430400   3.9622120  46.8845110  82.8711940   3.2050310
  47.7974960  72.5010950   2.0987180  46.8499870  72.5349930   2.2302610
  48.1224950  73.3149900   2.4836540  43.8809560  84.5175420   2.6850630
  43.8936720  84.1137710   1.8172890  43.3284780  85.2922710   2.5812060
  43.2795000  79.4205260   4.0133240  43.6963790  79.2065370   3.1786700
  44.0034820  79.6778050   4.5841860  47.2257100  77.8192480   4.1049480
  46.3975730  77.8885570   3.6299610  47.8207580  78.4046790   3.6365310
  44.1899110  74.6061800   5.0504350  43.7770290  75.4315510   5.3044340
  43.4575060  74.0206840   4.8580710  35.0360520  74.1664910   3.6922060
  35.5875110  74.2760250   2.9175310  35.5504030  74.5402510   4.4077290
  44.8799210  84.6521130   5.7385330  44.4029770  85.4593320   5.5457940
  44.1961000  83.9999460   5.8911540  35.8832030  80.8170950   8.7270030
  34.9860560  81.0410920   8.9743430  35.9084900  80.9405890   7.7781430
  34.7103250  77.6884270   7.3027400  34.5711020  78.5607070   7.6714800
  33.8284610  77.3457080   7.1575340  36.5083600  83.6305970   9.5112550
  36.4799030  84.0348920   8.6440980  36.3448570  82.7016330   9.3484150
  48.4598420  84.4133070  10.8076720  48.9358140  84.8915960  11.4865800
  49.0805580  84.3450560  10.0822220  30.6621900  79.4581820   3.2198310
  30.7402320  79.5930590   2.2754030  31.2763580  78.7497710   3.4126430
  47.8631670  81.6045920   7.9676730  47.9894730  81.3657800   7.0493910
  47.9053050  80.7730460   8.4398810  41.7248410  85.3073920   6.5371540
  42.2393080  85.2181930   7.3393970  40.8817490  85.6533620   6.8299450
  47.7155680  73.6578380   8.9326470  47.0999950  74.1658050   8.4041930
  47.3952100  72.7576710   8.8752410  30.7181420  80.4995990   5.7592770
  30.8812460  80.0301350   4.9412140  31.1833870  79.9919550   6.4241610
  39.7770000  72.4970270   6.3988660  39.3149370  72.7053290   7.2108600
  39.3748110  71.6829620   6.0959330  44.7774510  73.7179220   7.5285320
  43.9268100  73.4184970   7.8494390  44.6176300  73.9621230   6.6169140
  41.8724220  75.2180970   9.6284110  42.1977630  74.3844720   9.2886340
  42.6604550  75.7409490   9.7762440  37.5276090  70.1749080   2.6542940
  37.8248420  71.0811910   2.5734960  38.0761650  69.6867860   2.0402510
  37.7213620  75.6520900   9.1894860  37.6257220  74.7115630   9.0395260
  38.5645600  75.8735970   8.7942930  32.8524160  72.0634570   7.3428640
  32.4587550  72.9109780   7.5501420  32.1642560  71.4260940   7.5337280
  39.4269210  72.1469540  10.4125380  38.7367530  71.9541740  11.0471470
  40.1701510  72.4304180  10.9449680  41.7032180  75.9867980   3.2479300
  40.9713300  76.4954790   3.5969400  41.3056520  75.1697960   2.9468080
  42.1658090  71.4401660   2.6602240  42.1830830  71.8910310   3.5044090
  41.9173670  70.5407300   2.8735680  45.5928840  68.8533840   8.4988620
  45.9174610  68.1223500   9.0246600  45.6285350  68.5347480   7.5969610
  32.2920400  79.8747420   7.9188580  31.9075190  79.2341090   8.5171540
  32.6032590  80.5783540   8.4883310  38.4417540  76.7223960   3.3997200
  38.8087670  76.2482530   4.1458540  38.2522600  77.5965530   3.7405540
  36.2316910  75.7632600   5.7181410  35.9273980  76.6424580   5.9431770
  37.1863370  75.8232390   5.7538850  45.5186680  78.9658950   2.1074650
  46.2385800  79.4614240   1.7170760  45.3168500  78.2876840   1.4628520
  40.9005480  79.0368010   7.9943650  40.8342790  78.1163680   7.7401240
  40.2710620  79.1343450   8.7088290  32.2880640  76.6035340   6.8652770
  31.9295580  77.2689190   7.4526110  31.9935200  75.7718890   7.2365390
  35.4893760  77.0619580   9.7492320  35.1893900  77.2076760   8.8520140
  36.2605000  76.5024870   9.6565710  40.8322210  81.8588580   7.7447450
  40.8466750  80.9269540   7.5266360  40.1247310  81.9448340   8.3837220
  47.0433420  78.4995920   7.0916030  46.3181610  79.0924700   6.8945420
  47.5708880  78.4919460   6.2929400  40.2656110  83.5006150   4.8387950
  40.9098330  83.7065530   5.5161370  40.6285550  82.7394550   4.3858800
  41.5388190  81.5038500   3.5565400  42.1810420  80.8031660   3.6697570
  42.0637540  82.2836940   3.3762290  43.3125810  82.3033400   6.7601460
  43.6482050  82.8900090   7.4379380  42.3926150  82.1726110   6.9899250
  30.8629210  70.0928580   7.5424870  30.1487730  70.2925500   8.1477480
  31.2824250  69.3168150   7.9139670  31.1501800  84.0808840   8.5291400
  31.2592920  83.1403580   8.3886790  30.4982360  84.3463590   7.8805130
  39.1414390  82.3524730   9.9289520  38.8211260  81.6333970  10.4735210
  38.4672750  83.0279800  10.0025580  42.3567990  72.5850890   5.2926320
  42.7248810  71.7646100   5.6205890  41.4966190  72.6452780   5.7081970
  39.3169980  75.2390480   5.5164290  39.8155230  75.7136300   6.1816140
  39.4592930  74.3154000   5.7234320  46.5236840  71.4558440   6.3592680
  46.0210440  72.1963840   6.6986490  47.3393500  71.8442440   6.0429470
  33.2960240  85.1477750  10.3411010  34.0972970  85.4689800  10.7546410
  32.7812060  84.7873330  11.0630920  42.1324870  81.2557620  10.2886420
  41.5263030  81.2789220   9.5482170  41.8278980  80.5240660  10.8253670
  43.5625240  84.9837910   8.8995830  44.5146990  84.8995930   8.8496070
  43.4153460  85.6479620   9.5729620  31.0158050  77.6351210   9.2847060
  31.5197070  77.0558490   9.8563290  30.2765470  77.9191440   9.8223430
  38.0695990  79.0422200   8.8182580  37.3041660  79.6107200   8.7337250
  38.2511950  78.7498410   7.9250810  45.2119340  80.7727530   9.3757600
  45.9528810  81.1103290   8.8725060  44.4492020  80.9419590   8.8227370
  33.0481130  75.7780800  10.1797130  33.0886470  75.4794670  11.0882360
  33.9026630  76.1788410  10.0204650  34.9886940  74.3572900   8.1471620
  34.4583400  73.8663850   7.5194960  35.6575010  74.7857100   7.6129550
  43.8865000  78.8242360   7.9112810  44.3006020  78.9787440   8.7603230
  42.9516000  78.9497580   8.0738590  44.3587170  76.1638520   9.9151960
  44.9407940  75.4090840   9.8272440  44.5348940  76.6945960   9.1383440
  35.4759240  71.3235270   8.2268910  35.3816110  70.7056020   7.5019780
  34.8956630  72.0501560   7.9998820  38.2420680  69.8808510   5.2596300
  37.7937980  69.9032770   4.4141850  37.6085880  69.4827530   5.8566600
  38.6480230  78.7762840   5.8808740  39.0668340  79.6195570   5.7084980
  37.7288860  78.9134880   5.6515520  40.9844130  76.5079020   7.2646580
  41.1040340  75.9120160   8.0041420  41.8438130  76.5448710   6.8447880
  43.3232030  77.0616210   5.8409090  42.7967250  77.5858830   5.2374230
  43.6663370  77.6943600   6.4718820  36.4987650  85.0815850   6.9966470
  35.9608740  85.8061910   6.6775170  36.7521610  84.6046190   6.2063810
  37.7512900  73.0500370   8.5222400  38.3412590  72.7416220   9.2100220
  36.9333140  72.5780120   8.6782300  42.5706330  72.6666180   8.7555420
  41.8821850  72.0047720   8.6905410  43.2912350  72.2204450   9.2003880
  39.3549860  86.3167060   7.2553120  39.2808560  87.2202200   7.5625490
  38.4528700  85.9978960   7.2275190  31.2467360  84.5112240   3.2968370
  30.8098350  84.6913040   4.1292520  31.8145040  85.2686860   3.1550090
  46.8829540  84.0129240   7.5845680  46.2831530  84.0721800   6.8409600
  47.0123440  83.0734220   7.7142530  45.5681180  80.7381220   5.6821840
  44.7541020  81.1678380   5.9447630  45.9755380  81.3499630   5.0690890
  32.1167720  77.4085040   4.1960590  32.4840760  77.3212440   5.0756610
  31.5478540  76.6451590   4.0967450  46.9171580  75.8769420   7.2091060
  46.6857670  75.6482170   6.3089010  47.1776130  76.7968970   7.1635950
  31.6683720  74.3194130   8.1019010  30.7739770  74.2860890   8.4412720
  32.2081270  74.5180920   8.8670260  45.3559650  71.1025850   9.9870760
  46.2329830  71.1109250  10.3704760  45.3680490  70.3656690   9.3763110
  46.9812640  75.0395260   4.3978330  46.0315350  75.0058800   4.5123320
  47.1625650  75.9495370   4.1628100  32.1723430  68.5942460   2.4502230
  32.8199620  68.0439840   2.0097390  32.5925270  68.8485610   3.2718040
  46.0675770  68.7883820   5.8071870  46.7047990  69.4017960   6.1731060
  46.2150660  68.8244480   4.8621100  31.9255430  68.7498130   5.1927550
  31.5770250  69.2061950   5.9585730  31.5943130  67.8555260   5.2749980
  33.5319800  81.9217730   9.3580740  33.4889430  81.5510640  10.2395200
  33.6630810  82.8595300   9.4982560  37.2325830  83.4777320   4.9590460
  36.9917190  83.7451880   4.0720980  38.1728470  83.6483050   5.0141320
  39.4380250  69.9410010   8.7146970  39.3769140  70.5331840   9.4642380
  40.3780630  69.8335970   8.5697230  42.0754810  69.5980070   8.3539260
  42.6895220  69.9159360   7.6920340  42.6204370  69.1128660   8.9735120
  48.4929990  85.4971700   5.7601100  47.9988270  85.8940570   5.0428230
  47.8843280  84.8720910   6.1538380  32.5976070  68.2774330   8.4678320
  33.1459060  68.0962380   7.7044430  32.6631380  67.4868440   9.0034630
  33.3707830  84.8679980   6.4778520  32.7768150  84.7364680   7.2168560
  33.3631670  84.0318120   6.0120620  42.8162850  68.1612210   4.6808550
  41.9422690  68.4947320   4.4781480  42.7073600  67.6885390   5.5060420
  43.7234830  70.3683080   6.0650270  43.3948190  69.5534840   5.6852000
  44.6717130  70.3252890   5.9415960  46.1769440  86.1395120   3.0387840
  45.7172410  86.8910930   2.6645860  45.5481900  85.4201590   2.9802640
  33.0020060  82.2338360   5.4286560  32.2754120  81.6143650   5.3612510
  33.0629210  82.6278970   4.5584640  36.6065160  84.4483360   2.2135970
  37.1230180  83.8370720   1.6884230  37.2562540  84.9512140   2.7046980
  39.3460660  85.3391850   3.0404950  39.6338470  85.0846150   2.1637960
  39.8583880  84.7869210   3.6310520  40.5637670  69.0782050   3.6201460
  39.7809460  69.5527550   3.8998220  40.2700600  68.1736880   3.5114640
  39.4133020  86.2607950  10.4073150  40.3400330  86.0252220  10.4509110
  39.3983450  87.0879950   9.9259180  36.5996630  68.9252700  10.1715030
  36.3180900  69.4286300   9.4075850  36.9816330  68.1274450   9.8057160
  43.2012090  68.3406280  10.7495500  43.0877540  68.6600890  11.6447020
  44.0181830  68.7418790  10.4532780  45.9810580  85.4877810  10.2314190
  46.7735900  84.9927040  10.0240150  46.2743730  86.1667950  10.8389800
  42.1070240  57.5855260 150.0821650  42.0264290  56.6709870 149.8113360
  41.6934660  58.0822330 149.3761360  44.2595710  63.7694470 150.7430050
  43.7977240  62.9981710 151.0717220  45.0721260  63.7960540 151.2482500
  32.6646060  54.6355980 146.6249070  31.7762760  54.9771950 146.5228950
  32.9487250  54.4356300 145.7329900  40.4859020  66.0552480 150.3634040
  39.8670460  66.5109980 149.7928480  41.3410800  66.2103940 149.9623740
  34.8407450  53.2187480 147.6587450  34.9474200  54.1191210 147.9656210
  33.9299810  53.1705450 147.3682100  44.4926560  52.3412290 149.1298350
  45.3136180  51.8508860 149.1723830  44.5260640  52.9309950 149.8830190
  41.3522370  60.9391720 147.7565950  40.7339640  61.4041170 147.1928670
  41.8645620  61.6319200 148.1735460  30.7205570  61.6248250 145.1305580
  30.3433550  62.1135350 144.3990480  30.9778640  62.2973530 145.7612110
  38.3294500  50.0264640 150.5891090  38.6369480  49.4711530 149.8726590
  37.3995200  50.1609100 150.4064080  45.1754980  62.4648150 147.9688720
  45.0651310  61.5222480 148.0938140  45.1723230  62.8263790 148.8551480
  40.7175260  58.0913470 147.3251210  39.7904540  58.0250850 147.5539680
  40.8700080  59.0293600 147.2106450  40.7044340  54.3630470 144.3218370
  39.7648010  54.5244430 144.4070830  41.0227600  55.0816150 143.7754360
  44.7472550  59.6533770 147.8286460  44.1284970  59.3153320 147.1812760
  44.7297000  59.0093530 148.5365650  36.3231900  58.6178210 150.1070940
  35.9188900  57.9055460 149.6116840  36.4095020  58.2731450 150.9958980
  42.9237250  58.8920580 144.8359210  43.3630530  58.0543010 144.6897030
  43.6365670  59.5249980 144.9223350  41.0332630  63.8316650 148.8040450
  41.4728540  64.5740980 148.3895840  40.9719520  64.0743220 149.7279410
  46.5054390  50.1463390 143.1500250  46.1927050  50.2390220 144.0499320
  47.2666860  50.7244420 143.0997680  33.0236530  57.5123190 147.6077590
  32.9034130  58.2385280 146.9958860  32.7137420  56.7426100 147.1305500
  31.9069530  62.3838520 149.8252410  31.4997610  62.5253110 148.9706010
  32.7982540  62.0998680 149.6223620  43.7002810  66.8185770 146.1603460
  43.5403950  66.5288710 147.0585290  43.5349520  66.0425900 145.6248690
  36.1791190  66.5984300 147.9375080  36.0033670  65.6819840 147.7242880
  35.3246930  66.9571590 148.1772880  43.4028940  64.3273330 144.7201460
  42.7094100  64.3250620 144.0603740  44.1451800  63.9032650 144.2895630
  42.9678870  65.9536040 148.7949950  43.4235820  65.1725420 149.1088570
  43.3071390  66.6642860 149.3391130  35.4900190  50.8558260 150.9901260
  35.0468340  51.6367800 150.6585780  36.0485180  51.1788150 151.6972200
  38.6059010  50.4768960 145.8707090  37.9813190  50.4728830 146.5960400
  38.5189130  49.6099920 145.4743060  35.2814410  55.9791830 148.7182510
  35.0555330  55.7629000 149.6229130  34.5006940  56.4120290 148.3728480
  42.5112170  55.9855200 147.3173160  41.9121060  56.7091000 147.1336780
  43.0591780  55.9231980 146.5349610  41.1177040  54.6218740 149.3476440
  41.5106610  54.9390940 148.5345130  41.4793890  53.7430620 149.4620960
  30.3411440  55.1539660 142.7809360  30.2586110  56.0970420 142.9224350
  29.9894500  55.0114570 141.9021710  33.9911950  53.7705180 150.8073920
  33.6512000  54.2480410 151.5640970  33.2289270  53.3170300 150.4475020
  38.2029720  54.8890770 144.8386470  38.3242540  54.8477250 145.7872290
  37.8178230  55.7514920 144.6833200  37.2151220  57.1991910 144.2369770
  36.6468120  56.7510160 143.6105680  37.9240220  57.5584690 143.7034920
  31.3058030  52.6924160 149.7238590  31.0204950  52.3279830 150.5617210
  31.2436890  51.9604620 149.1101730  34.7598700  61.1950100 146.5096180
  33.9860960  60.6547720 146.3494900  35.4893330  60.6756710 146.1713940
  40.9796620  51.5853420 146.4451960  40.1661230  51.0866590 146.3697270
  40.7858570  52.4251670 146.0288310  43.6945010  55.9573070 144.7414120
  44.5824630  56.2690300 144.5665460  43.6650100  55.0845320 144.3494700
  34.8036100  60.8630480 150.1474990  35.3214770  60.0598740 150.0931880
  34.3520120  60.8009620 150.9891820  39.6905600  62.1296760 145.4202290
  40.0321300  62.8738990 144.9245610  38.8618310  62.4427880 145.7827120
  45.9659280  57.2684910 144.2093980  45.8823000  57.6999130 143.3590420
  46.6853470  57.7283260 144.6420800  46.9946530  64.1227170 146.9376110
  46.3522690  63.4682790 147.2119830  46.6077190  64.5282260 146.1616780
  42.5733010  61.4512600 150.7847800  42.9256830  60.8540730 150.1249170
  41.6895340  61.1256830 150.9556050  38.6596290  62.2110290 148.1918210
  39.3467420  62.7579500 148.5725800  37.8728710  62.7551020 148.2267820
  30.7988690  57.8283110 143.6835290  31.6683540  58.1107910 143.9671210
  30.3079010  58.6418980 143.5684100  37.9623500  59.2156320 147.8043570
  38.4186280  60.0261570 148.0303760  37.6111710  58.8979460 148.6362060
  33.8635280  49.5593970 148.2766090  33.7349910  49.5511870 149.2251010
  33.0397300  49.8977060 147.9257100  45.3843910  63.0143630 143.4752460
  45.1581490  62.2974070 144.0677100  44.9940110  62.7656070 142.6374210
  31.1659940  67.0410490 144.2496920  31.5257580  67.6399830 143.5954190
  31.0252280  67.5870380 145.0231950  44.9660160  60.9315570 145.1366620
  44.6781860  61.3928260 145.9244500  45.7612330  60.4713340 145.4050840
  37.1828560  64.4241690 145.0670590  37.1738660  65.1571380 144.4515100
  36.2626920  64.1773270 145.1597550  32.7835200  59.6456580 145.8117350
  32.1763150  60.3855480 145.8212650  33.2584550  59.7355940 144.9855550
  45.7230020  52.7664340 146.2961800  45.0943180  52.8710010 145.5820030
  45.2281940  52.9861120 147.0855680  40.1688160  64.4869930 143.7295780
  40.2700140  64.2833920 142.7997760  39.2689900  64.2328210 143.9343560
  37.6914050  55.0450290 147.7119680  36.9830200  55.5136630 148.1533290
  37.9758530  54.3872300 148.3464870  41.7229480  51.7700950 149.1515470
  41.5997260  51.7887080 148.2024980  42.6714040  51.8179890 149.2713870
  38.8106270  67.0056250 148.4243450  39.0647770  66.9677640 147.5022820
  37.8618750  66.8789580 148.4171700  35.8949070  53.3535370 145.0870390
  36.7439600  53.7905520 145.0210580  35.5280340  53.6655630 145.9142450
  44.8158850  57.9248130 150.0001960  43.8748990  57.9398360 150.1749650
  45.1302920  57.1384090 150.4462260  34.7940490  59.6067730 143.5605920
  35.5603760  59.4949090 144.1231350  34.8715180  58.9105700 142.9082690
  33.4887250  57.0392800 144.2438810  33.5690840  56.0920310 144.3556210
  34.3807000  57.3699680 144.3499470  34.2901960  67.1888190 151.3473350
  35.0264440  66.6403650 151.6181920  34.6742880  68.0544200 151.2079340
  31.1747440  63.2561760 147.2214860  30.2487220  63.4982900 147.2120270
  31.6403870  64.0836020 147.0999610  37.4004270  66.3618500 143.1698920
  38.1932880  66.6507330 142.7180710  36.8808620  65.9310670 142.4911400
  46.4534440  65.5888630 144.5935660  46.1675950  65.1753770 143.7789840
  46.2553990  66.5176340 144.4736180  37.9181670  61.5821910 143.0341270
  37.8132310  60.9674260 143.7602650  37.7505890  61.0587800 142.2504280
  41.1584400  60.6441940 143.6383260  40.6094500  61.0911240 144.2826000
  41.7803660  60.1391190 144.1620930  36.8259520  59.6032860 145.5348560
  37.2475940  59.4372730 146.3779950  36.9510360  58.7933090 145.0403700
  39.3387160  58.6270470 142.7825660  39.8592820  57.9119490 142.4166810
  39.9855560  59.2656340 143.0826170  35.7218420  55.6766090 142.4806720
  35.5207480  54.8133450 142.8420060  35.5510470  55.5899450 141.5428320
  43.2006730  50.4874320 145.0093600  43.4809020  49.6442220 145.3653020
  42.4272460  50.7197430 145.5232350  34.5201220  52.7766710 142.4684600
  34.8227120  52.7834140 141.5603750  35.2595810  52.4264570 142.9652260
  37.7386150  51.7201330 143.4540800  37.3908150  51.0425320 142.8743250
  37.9398920  51.2590840 144.2684190  39.9035190  66.7082080 145.0727400
  40.7985980  67.0467050 145.0946160  39.9352820  65.9861490 144.4451680
  33.5431350  62.0809130 143.3014400  33.9806220  62.6238800 143.9571980
  34.0279080  61.2556080 143.3110740  30.7577150  64.8698160 150.7534660
  31.0880160  64.0019220 150.5213300  31.1868150  65.0756680 151.5839620
  35.3539070  63.2007170 148.4136630  35.0534610  63.0772140 149.3140540
  35.2476560  62.3415760 148.0052360  48.1230990  62.9803570 143.1163310
  47.2923950  63.0480220 143.5870540  48.3002820  63.8707690 142.8130170
  47.5787450  59.7251050 145.6197510  48.3406360  60.2947700 145.7257200
  47.5941820  59.1578250 146.3905820  31.0791790  58.2488980 149.8505170
  30.4240630  57.9800620 149.2064870  31.9169740  58.1393460 149.4007150
  48.5847420  60.5801150 150.4639440  48.9556250  59.7968470 150.0575410
  49.2249350  61.2690250 150.2856740  47.6306620  60.0185420 142.7770030
  47.9055460  60.9264300 142.6489250  47.4417360  59.9547950 143.7132020
  44.0282230  53.0430270 144.0723660  44.4467110  52.8561250 143.2320320
  43.7218290  52.1909320 144.3826590  47.5271960  57.9554410 147.7699460
  47.1515560  57.1882340 147.3380750  46.7975080  58.3377110 148.2574390
  30.2929870  55.4587910 145.7930500  29.3893950  55.7218110 145.6182160
  30.7770490  55.7299080 145.0130460  32.8357080  54.5153450 143.7024880
  33.5448780  54.0936670 143.2172160  32.1197020  54.5828680 143.0708230
  32.4831240  50.5692780 142.7427530  33.2059370  51.1101720 143.0608750
  32.7555760  50.2956200 141.8669070  46.2922890  55.4385250 147.0099110
  46.7882010  55.2056120 147.7947990  46.0938960  54.5997090 146.5936750
  47.7210050  54.0746200 149.5436790  47.6109330  53.9202240 150.4819060
  48.4817640  53.5467140 149.3012200  48.6100320  51.9054120 142.7842930
  49.5349630  51.7735300 142.5761220  48.5876110  51.9846940 143.7379380
  48.6838810  52.6764780 145.4099640  47.8890310  52.6109900 145.9392550
  48.8882090  53.6115420 145.3984990  45.6257230  66.7156330 149.4038030
  46.2216300  66.3940900 148.7272450  45.8835380  66.2428150 150.1951300
  46.9797310  50.6376900 149.8707290  46.9185710  49.6938120 149.7238310
  47.7589340  50.7456990 150.4160750  31.2850060  66.7769260 148.8331240
  31.1172100  66.1439940 149.5313130  30.4184570  66.9828660 148.4825430
  31.9078080  50.6086040 146.3363100  32.6657440  50.7214920 145.7627130
  31.4455250  51.4455240 146.2906530  38.4491890  52.7225310 149.3265410
  37.6366400  52.3482200 148.9861290  38.9533530  51.9670390 149.6286600
  42.9516870  49.3867760 150.5648480  43.5546240  49.9587970 151.0397000
  42.2109860  49.9507200 150.3422380  46.0951470  49.7889320 145.8388760
  46.2902100  50.6872770 146.1056190  45.3081340  49.5576400 146.3321710
  32.8912760  65.4702490 146.2781380  32.3660380  65.8510520 145.5743340
  32.8157340  66.0953260 146.9991090  34.2803230  51.1350090 144.8765070
  34.8095990  50.3479890 144.7473020  34.9131550  51.8141280 145.1100600
  36.4741070  50.8725230 147.9310460  35.8443810  50.1712540 148.0980590
  35.9346210  51.6329360 147.7143620  47.6478080  67.0290030 147.5995320
  47.8230270  66.3427770 146.9556240  46.9499650  67.5537080 147.2071990
  35.4905730  67.4184870 145.1530630  36.2224550  67.1344150 144.6054520
  35.7499400  67.1798150 146.0430010  34.6520520  63.5349600 145.1576960
  34.0229400  64.0034700 145.7062790  34.7668350  62.6898820 145.5923150
  42.1070240  57.5855260 131.3078160  42.0264290  56.6709870 131.0369870
  41.6934660  58.0822330 130.6017870  40.2388280  59.3634280 133.1887430
  39.4630380  58.8834720 133.4786000  40.8901210  58.6839930 133.0143590
  34.2554110  59.6754090 134.0663190  33.4238990  59.4202800 134.4659700
  34.8635090  59.7464860 134.8021110  34.2355370  63.7094180 134.2621210
  34.5383410  62.8191920 134.0831430  34.9798960  64.2664400 134.0343460
  32.6646060  54.6355980 127.8505580  31.7762760  54.9771950 127.7485460
  32.9487250  54.4356300 126.9586410  30.6279070  57.2361630 133.7345280
  31.1995180  56.4683830 133.7348920  30.6280610  57.5350390 132.8251890
  40.4859020  66.0552480 131.5890550  39.8670460  66.5109980 131.0184990
  41.3410800  66.2103940 131.1880250  39.6797270  62.0391470 133.1957590
  39.6105550  61.0981410 133.0346720  40.4417130  62.1292880 133.7680160
  31.8703940  52.6445990 135.5214210  31.6906780  51.7471740 135.8016970
  31.4684020  53.1917860 136.1961160  40.7102440  54.8461850 133.4226520
  41.0867260  53.9733730 133.3100190  40.6121950  55.1820550 132.5316960
  34.8407450  53.2187480 128.8843960  34.9474200  54.1191210 129.1912720
  33.9299810  53.1705450 128.5938610  44.4926560  52.3412290 130.3554860
  45.3136180  51.8508860 130.3980340  44.5260640  52.9309950 131.1086700
  32.4890610  55.1406490 134.1296550  33.1700720  55.4044860 134.7483950
  32.1738660  54.3007360 134.4634560  36.6815180  56.1873850 133.2169140
  37.1893400  56.6854820 133.8574160  37.2128420  55.4109050 133.0408500
  48.7826110  54.3579040 136.9198490  48.0778280  54.7460750 136.4013600
  49.0484030  55.0529330 137.5219420  34.9651280  50.8272410 137.4832560
  34.9669720  51.3444800 136.6778460  34.1355590  50.3502590 137.4602490
  41.3522370  60.9391720 128.9822460  40.7339640  61.4041170 128.4185180
  41.8645620  61.6319200 129.3991970  36.2154130  60.4667590 135.6606060
  35.8823510  61.0936510 136.3027130  36.3920810  60.9929470 134.8807730
  44.7288040  54.2812670 133.1282400  44.0243610  54.5697560 133.7085510
  45.0900200  55.0912780 132.7681960  34.6466610  52.5382370 135.4903010
  34.9883420  53.3824420 135.1956880  33.7082420  52.6866110 135.6068350
  35.4273230  62.4348390 137.4755240  36.0447230  63.1099470 137.1939690
  34.5666350  62.8436370 137.3842740  30.7205570  61.6248250 126.3562090
  30.3433550  62.1135350 125.6246990  30.9778640  62.2973530 126.9868620
  47.7974960  53.7267460 133.5191610  46.8499870  53.7606440 133.6507040
  48.1224950  54.5406410 133.9040970  38.3294500  50.0264640 131.8147600
  38.6369480  49.4711530 131.0983100  37.3995200  50.1609100 131.6320590
  40.7175260  58.0913470 128.5507720  39.7904540  58.0250850 128.7796190
  40.8700080  59.0293600 128.4362960  40.7044340  54.3630470 125.5474880
  39.7648010  54.5244430 125.6327340  41.0227600  55.0816150 125.0010870
  47.2257100  59.0448990 135.5253910  46.3975730  59.1142080 135.0504040
  47.8207580  59.6303300 135.0569740  44.1899110  55.8318310 136.4708780
  43.7770290  56.6572020 136.7248770  43.4575060  55.2463350 136.2785140
  36.3231900  58.6178210 131.3327450  35.9188900  57.9055460 130.8373350
  36.4095020  58.2731450 132.2215490  36.7913600  62.3045770 133.4966660
  36.4941890  61.6991240 132.8174440  37.7413420  62.3423080 133.3856020
  35.0360520  55.3921420 135.1126490  35.5875110  55.5016760 134.3379740
  35.5504030  55.7659020 135.8281720  44.8799210  65.8777640 137.1589760
  44.4029770  66.6849830 136.9662370  44.1961000  65.2255970 137.3115970
  35.8832030  62.0427460 140.1474460  34.9860560  62.2667430 140.3947860
  35.9084900  62.1662400 139.1985860  42.9237250  58.8920580 126.0615720
  43.3630530  58.0543010 125.9153540  43.6365670  59.5249980 126.1479860
  34.7103250  58.9140780 138.7231830  34.5711020  59.7863580 139.0919230
  33.8284610  58.5713590 138.5779770  41.0332630  63.8316650 130.0296960
  41.4728540  64.5740980 129.6152350  40.9719520  64.0743220 130.9535920
  36.5083600  64.8562480 140.9316980  36.4799030  65.2605430 140.0645410
  36.3448570  63.9272840 140.7688580  46.5054390  50.1463390 124.3756760
  46.1927050  50.2390220 125.2755830  47.2666860  50.7244420 124.3254190
  33.0236530  57.5123190 128.8334100  32.9034130  58.2385280 128.2215370
  32.7137420  56.7426100 128.3562010  48.4598420  65.6389580 142.2281150
  48.9358140  66.1172470 142.9070230  49.0805580  65.5707070 141.5026650
  30.6621900  60.6838330 134.6402740  30.7402320  60.8187100 133.6958460
  31.2763580  59.9754220 134.8330860  31.9069530  62.3838520 131.0508920
  31.4997610  62.5253110 130.1962520  32.7982540  62.0998680 130.8480130
  47.8631670  62.8302430 139.3881160  47.9894730  62.5914310 138.4698340
  47.9053050  61.9986970 139.8603240  41.7248410  66.5330430 137.9575970
  42.2393080  66.4438440 138.7598400  40.8817490  66.8790130 138.2503880
  43.7002810  66.8185770 127.3859970  43.5403950  66.5288710 128.2841800
  43.5349520  66.0425900 126.8505200  36.1791190  66.5984300 129.1631590
  36.0033670  65.6819840 128.9499390  35.3246930  66.9571590 129.4029390
  47.7155680  54.8834890 140.3530900  47.0999950  55.3914560 139.8246360
  47.3952100  53.9833220 140.2956840  30.7181420  61.7252500 137.1797200
  30.8812460  61.2557860 136.3616570  31.1833870  61.2176060 137.8446040
  35.4900190  50.8558260 132.2157770  35.0468340  51.6367800 131.8842290
  36.0485180  51.1788150 132.9228710  39.7770000  53.7226780 137.8193090
  39.3149370  53.9309800 138.6313030  39.3748110  52.9086130 137.5163760
  44.7774510  54.9435730 138.9489750  43.9268100  54.6441480 139.2698820
  44.6176300  55.1877740 138.0373570  41.8724220  56.4437480 141.0488540
  42.1977630  55.6101230 140.7090770  42.6604550  56.9666000 141.1966870
  38.6059010  50.4768960 127.0963600  37.9813190  50.4728830 127.8216910
  38.5189130  49.6099920 126.6999570  37.5276090  51.4005590 134.0747370
  37.8248420  52.3068420 133.9939390  38.0761650  50.9124370 133.4606940
  35.2814410  55.9791830 129.9439020  35.0555330  55.7629000 130.8485640
  34.5006940  56.4120290 129.5984990  42.5112170  55.9855200 128.5429670
  41.9121060  56.7091000 128.3593290  43.0591780  55.9231980 127.7606120
  37.7213620  56.8777410 140.6099290  37.6257220  55.9372140 140.4599690
  38.5645600  57.0992480 140.2147360  41.1177040  54.6218740 130.5732950
  41.5106610  54.9390940 129.7601640  41.4793890  53.7430620 130.6877470
  32.8524160  53.2891080 138.7633070  32.4587550  54.1366290 138.9705850
  32.1642560  52.6517450 138.9541710  39.4269210  53.3726050 141.8329810
  38.7367530  53.1798250 142.4675900  40.1701510  53.6560690 142.3654110
  30.1541210  51.2119540 132.7963150  29.8654260  51.7822400 133.5088130
  30.8986970  50.7323990 133.1594380  30.3411440  55.1539660 124.0065870
  30.2586110  56.0970420 124.1480860  29.9894500  55.0114570 123.1278220
  41.7032180  57.2124490 134.6683730  40.9713300  57.7211300 135.0173830
  41.3056520  56.3954470 134.3672510  38.1409570  53.8878690 133.0736220
  38.1445630  53.4468640 132.2240760  39.0360690  54.2096020 133.1808040
  33.9911950  53.7705180 132.0330430  33.6512000  54.2480410 132.7897480
  33.2289270  53.3170300 131.6731530  38.2029720  54.8890770 126.0642980
  38.3242540  54.8477250 127.0128800  37.8178230  55.7514920 125.9089710
  42.1658090  52.6658170 134.0806670  42.1830830  53.1166820 134.9248520
  41.9173670  51.7663810 134.2940110  37.2151220  57.1991910 125.4626280
  36.6468120  56.7510160 124.8362190  37.9240220  57.5584690 124.9291430
  45.5928840  50.0790350 139.9193050  45.9174610  49.3480010 140.4451030
  45.6285350  49.7603990 139.0174040  32.2920400  61.1003930 139.3393010
  31.9075190  60.4597600 139.9375970  32.6032590  61.8040050 139.9087740
  38.4417540  57.9480470 134.8201630  38.8087670  57.4739040 135.5662970
  38.2522600  58.8222040 135.1609970  31.3058030  52.6924160 130.9495100
  31.0204950  52.3279830 131.7873720  31.2436890  51.9604620 130.3358240
  36.2316910  56.9889110 137.1385840  35.9273980  57.8681090 137.3636200
  37.1863370  57.0488900 137.1743280  34.7598700  61.1950100 127.7352690
  33.9860960  60.6547720 127.5751410  35.4893330  60.6756710 127.3970450
  40.9796620  51.5853420 127.6708470  40.1661230  51.0866590 127.5953780
  40.7858570  52.4251670 127.2544820  40.9005480  60.2624520 139.4148080
  40.8342790  59.3420190 139.1605670  40.2710620  60.3599960 140.1292720
  43.6945010  55.9573070 125.9670630  44.5824630  56.2690300 125.7921970
  43.6650100  55.0845320 125.5751210  34.8036100  60.8630480 131.3731500
  35.3214770  60.0598740 131.3188390  34.3520120  60.8009620 132.2148330
  39.6905600  62.1296760 126.6458800  40.0321300  62.8738990 126.1502120
  38.8618310  62.4427880 127.0083630  32.2880640  57.8291850 138.2857200
  31.9295580  58.4945700 138.8730540  31.9935200  56.9975400 138.6569820
  35.4893760  58.2876090 141.1696750  35.1893900  58.4333270 140.2724570
  36.2605000  57.7281380 141.0770140  40.8322210  63.0845090 139.1651880
  40.8466750  62.1526050 138.9470790  40.1247310  63.1704850 139.8041650
  45.9659280  57.2684910 125.4350490  45.8823000  57.6999130 124.5846930
  46.6853470  57.7283260 125.8677310  47.0433420  59.7252430 138.5120460
  46.3181610  60.3181210 138.3149850  47.5708880  59.7175970 137.7133830
  38.6596290  62.2110290 129.4174720  39.3467420  62.7579500 129.7982310
  37.8728710  62.7551020 129.4524330  30.7988690  57.8283110 124.9091800
  31.6683540  58.1107910 125.1927720  30.3079010  58.6418980 124.7940610
  37.9623500  59.2156320 129.0300080  38.4186280  60.0261570 129.2560270
  37.6111710  58.8979460 129.8618570  40.2656110  64.7262660 136.2592380
  40.9098330  64.9322040 136.9365800  40.6285550  63.9651060 135.8063230
  33.8635280  49.5593970 129.5022600  33.7349910  49.5511870 130.4507520
  33.0397300  49.8977060 129.1513610  41.5388190  62.7295010 134.9769830
  42.1810420  62.0288170 135.0902000  42.0637540  63.5093450 134.7966720
  43.3125810  63.5289910 138.1805890  43.6482050  64.1156600 138.8583810
  42.3926150  63.3982620 138.4103680  31.1659940  67.0410490 125.4753430
  31.5257580  67.6399830 124.8210700  31.0252280  67.5870380 126.2488460
  30.8629210  51.3185090 138.9629300  30.1487730  51.5182010 139.5681910
  31.2824250  50.5424660 139.3344100  31.1501800  65.3065350 139.9495830
  31.2592920  64.3660090 139.8091220  30.4982360  65.5720100 139.3009560
  39.1414390  63.5781240 141.3493950  38.8211260  62.8590480 141.8939640
  38.4672750  64.2536310 141.4230010  37.1828560  64.4241690 126.2927100
  37.1738660  65.1571380 125.6771610  36.2626920  64.1773270 126.3854060
  32.7835200  59.6456580 127.0373860  32.1763150  60.3855480 127.0469160
  33.2584550  59.7355940 126.2112060  42.3567990  53.8107400 136.7130750
  42.7248810  52.9902610 137.0410320  41.4966190  53.8709290 137.1286400
  45.7230020  52.7664340 127.5218310  45.0943180  52.8710010 126.8076540
  45.2281940  52.9861120 128.3112190  40.1688160  64.4869930 124.9552290
  40.2700140  64.2833920 124.0254270  39.2689900  64.2328210 125.1600070
  37.6914050  55.0450290 128.9376190  36.9830200  55.5136630 129.3789800
  37.9758530  54.3872300 129.5721380  39.3169980  56.4646990 136.9368720
  39.8155230  56.9392810 137.6020570  39.4592930  55.5410510 137.1438750
  41.7229480  51.7700950 130.3771980  41.5997260  51.7887080 129.4281490
  42.6714040  51.8179890 130.4970380  38.8106270  67.0056250 129.6499960
  39.0647770  66.9677640 128.7279330  37.8618750  66.8789580 129.6428210
  35.8949070  53.3535370 126.3126900  36.7439600  53.7905520 126.2467090
  35.5280340  53.6655630 127.1398960  46.5236840  52.6814950 137.7797110
  46.0210440  53.4220350 138.1190920  47.3393500  53.0698950 137.4633900
  34.7940490  59.6067730 124.7862430  35.5603760  59.4949090 125.3487860
  34.8715180  58.9105700 124.1339200  33.4887250  57.0392800 125.4695320
  33.5690840  56.0920310 125.5812720  34.3807000  57.3699680 125.5755980
  34.2901960  67.1888190 132.5729860  35.0264440  66.6403650 132.8438430
  34.6742880  68.0544200 132.4335850  31.1747440  63.2561760 128.4471370
  30.2487220  63.4982900 128.4376780  31.6403870  64.0836020 128.3256120
  33.2960240  66.3734260 141.7615440  34.0972970  66.6946310 142.1750840
  32.7812060  66.0129840 142.4835350  37.4004270  66.3618500 124.3955430
  38.1932880  66.6507330 123.9437220  36.8808620  65.9310670 123.7167910
  42.1324870  62.4814130 141.7090850  41.5263030  62.5045730 140.9686600
  41.8278980  61.7497170 142.2458100  43.5625240  66.2094420 140.3200260
  44.5146990  66.1252440 140.2700500  43.4153460  66.8736130 140.9934050
  31.0158050  58.8607720 140.7051490  31.5197070  58.2815000 141.2767720
  30.2765470  59.1447950 141.2427860  37.9181670  61.5821910 124.2597780
  37.8132310  60.9674260 124.9859160  37.7505890  61.0587800 123.4760790
  38.0695990  60.2678710 140.2387010  37.3041660  60.8363710 140.1541680
  38.2511950  59.9754920 139.3455240  41.1584400  60.6441940 124.8639770
  40.6094500  61.0911240 125.5082510  41.7803660  60.1391190 125.3877440
  45.2119340  61.9984040 140.7962030  45.9528810  62.3359800 140.2929490
  44.4492020  62.1676100 140.2431800  33.0481130  57.0037310 141.6001560
  33.0886470  56.7051180 142.5086790  33.9026630  57.4044920 141.4409080
  36.8259520  59.6032860 126.7605070  37.2475940  59.4372730 127.6036460
  36.9510360  58.7933090 126.2660210  34.9886940  55.5829410 139.5676050
  34.4583400  55.0920360 138.9399390  35.6575010  56.0113610 139.0333980
  39.3387160  58.6270470 124.0082170  39.8592820  57.9119490 123.6423320
  39.9855560  59.2656340 124.3082680  43.8865000  60.0498870 139.3317240
  44.3006020  60.2043950 140.1807660  42.9516000  60.1754090 139.4943020
  44.3587170  57.3895030 141.3356390  44.9407940  56.6347350 141.2476870
  44.5348940  57.9202470 140.5587870  35.4759240  52.5491780 139.6473340
  35.3816110  51.9312530 138.9224210  34.8956630  53.2758070 139.4203250
  38.2420680  51.1065020 136.6800730  37.7937980  51.1289280 135.8346280
  37.6085880  50.7084040 137.2771030  38.6480230  60.0019350 137.3013170
  39.0668340  60.8452080 137.1289410  37.7288860  60.1391390 137.0719950
  40.9844130  57.7335530 138.6851010  41.1040340  57.1376670 139.4245850
  41.8438130  57.7705220 138.2652310  43.3232030  58.2872720 137.2613520
  42.7967250  58.8115340 136.6578660  43.6663370  58.9200110 137.8923250
  35.7218420  55.6766090 123.7063230  35.5207480  54.8133450 124.0676570
  35.5510470  55.5899450 122.7684830  36.4987650  66.3072360 138.4170900
  35.9608740  67.0318420 138.0979600  36.7521610  65.8302700 137.6268240
  37.7512900  54.2756880 139.9426830  38.3412590  53.9672730 140.6304650
  36.9333140  53.8036630 140.0986730  42.5706330  53.8922690 140.1759850
  41.8821850  53.2304230 140.1109840  43.2912350  53.4460960 140.6208310
  43.2006730  50.4874320 126.2350110  43.4809020  49.6442220 126.5909530
  42.4272460  50.7197430 126.7488860  34.5201220  52.7766710 123.6941110
  34.8227120  52.7834140 122.7860260  35.2595810  52.4264570 124.1908770
  39.3549860  67.5423570 138.6757550  39.2808560  68.4458710 138.9829920
  38.4528700  67.2235470 138.6479620  37.7386150  51.7201330 124.6797310
  37.3908150  51.0425320 124.0999760  37.9398920  51.2590840 125.4940700
  39.9035190  66.7082080 126.2983910  40.7985980  67.0467050 126.3202670
  39.9352820  65.9861490 125.6708190  33.5431350  62.0809130 124.5270910
  33.9806220  62.6238800 125.1828490  34.0279080  61.2556080 124.5367250
  30.7577150  64.8698160 131.9791170  31.0880160  64.0019220 131.7469810
  31.1868150  65.0756680 132.8096130  35.3539070  63.2007170 129.6393140
  35.0534610  63.0772140 130.5397050  35.2476560  62.3415760 129.2308870
  31.2467360  65.7368750 134.7172800  30.8098350  65.9169550 135.5496950
  31.8145040  66.4943370 134.5754520  46.8829540  65.2385750 139.0050110
  46.2831530  65.2978310 138.2614030  47.0123440  64.2990730 139.1346960
  31.0791790  58.2488980 131.0761680  30.4240630  57.9800620 130.4321380
  31.9169740  58.1393460 130.6263660  45.5681180  61.9637730 137.1026270
  44.7541020  62.3934890 137.3652060  45.9755380  62.5756140 136.4895320
  44.0282230  53.0430270 125.2980170  44.4467110  52.8561250 124.4576830
  43.7218290  52.1909320 125.6083100  32.1167720  58.6341550 135.6165020
  32.4840760  58.5468950 136.4961040  31.5478540  57.8708100 135.5171880
  46.9171580  57.1025930 138.6295490  46.6857670  56.8738680 137.7293440
  47.1776130  58.0225480 138.5840380  31.6683720  55.5450640 139.5223440
  30.7739770  55.5117400 139.8617150  32.2081270  55.7437430 140.2874690
  45.3559650  52.3282360 141.4075190  46.2329830  52.3365760 141.7909190
  45.3680490  51.5913200 140.7967540  30.2929870  55.4587910 127.0187010
  29.3893950  55.7218110 126.8438670  30.7770490  55.7299080 126.2386970
  46.9812640  56.2651770 135.8182760  46.0315350  56.2315310 135.9327750
  47.1625650  57.1751880 135.5832530  32.8357080  54.5153450 124.9281390
  33.5448780  54.0936670 124.4428670  32.1197020  54.5828680 124.2964740
  32.4831240  50.5692780 123.9684040  33.2059370  51.1101720 124.2865260
  32.7555760  50.2956200 123.0925580  46.2922890  55.4385250 128.2355620
  46.7882010  55.2056120 129.0204500  46.0938960  54.5997090 127.8193260
  32.1723430  49.8198970 133.8706660  32.8199620  49.2696350 133.4301820
  32.5925270  50.0742120 134.6922470  47.7210050  54.0746200 130.7693300
  47.6109330  53.9202240 131.7075570  48.4817640  53.5467140 130.5268710
  46.0675770  50.0140330 137.2276300  46.7047990  50.6274470 137.5935490
  46.2150660  50.0500990 136.2825530  48.6100320  51.9054120 124.0099440
  49.5349630  51.7735300 123.8017730  48.5876110  51.9846940 124.9635890
  48.6838810  52.6764780 126.6356150  47.8890310  52.6109900 127.1649060
  48.8882090  53.6115420 126.6241500  31.9255430  49.9754640 136.6131980
  31.5770250  50.4318460 137.3790160  31.5943130  49.0811770 136.6954410
  33.5319800  63.1474240 140.7785170  33.4889430  62.7767150 141.6599630
  33.6630810  64.0851810 140.9186990  37.2325830  64.7033830 136.3794890
  36.9917190  64.9708390 135.4925410  38.1728470  64.8739560 136.4345750
  39.4380250  51.1666520 140.1351400  39.3769140  51.7588350 140.8846810
  40.3780630  51.0592480 139.9901660  42.0754810  50.8236580 139.7743690
  42.6895220  51.1415870 139.1124770  42.6204370  50.3385170 140.3939550
  32.5976070  49.5030840 139.8882750  33.1459060  49.3218890 139.1248860
  32.6631380  48.7124950 140.4239060  33.3707830  66.0936490 137.8982950
  32.7768150  65.9621190 138.6372990  33.3631670  65.2574630 137.4325050
  42.8162850  49.3868720 136.1012980  41.9422690  49.7203830 135.8985910
  42.7073600  48.9141900 136.9264850  43.7234830  51.5939590 137.4854700
  43.3948190  50.7791350 137.1056430  44.6717130  51.5509400 137.3620390
  33.0020060  63.4594870 136.8490990  32.2754120  62.8400160 136.7816940
  33.0629210  63.8535480 135.9789070  36.6065160  65.6739870 133.6340400
  37.1230180  65.0627230 133.1088660  37.2562540  66.1768650 134.1251410
  39.3460660  66.5648360 134.4609380  39.6338470  66.3102660 133.5842390
  39.8583880  66.0125720 135.0514950  40.5637670  50.3038560 135.0405890
  39.7809460  50.7784060 135.3202650  40.2700600  49.3993390 134.9319070
  45.1158740  51.0061660 133.0854980  45.5566830  50.9506760 132.2376580
  44.8466330  51.9219670 133.1565160  46.9797310  50.6376900 131.0963800
  46.9185710  49.6938120 130.9494820  47.7589340  50.7456990 131.6417260
  31.2850060  66.7769260 130.0587750  31.1172100  66.1439940 130.7569640
  30.4184570  66.9828660 129.7081940  31.9078080  50.6086040 127.5619610
  32.6657440  50.7214920 126.9883640  31.4455250  51.4455240 127.5163040
  38.4491890  52.7225310 130.5521920  37.6366400  52.3482200 130.2117800
  38.9533530  51.9670390 130.8543110  42.9516870  49.3867760 131.7904990
  43.5546240  49.9587970 132.2653510  42.2109860  49.9507200 131.5678890
  46.0951470  49.7889320 127.0645270  46.2902100  50.6872770 127.3312700
  45.3081340  49.5576400 127.5578220  32.8912760  65.4702490 127.5037890
  32.3660380  65.8510520 126.7999850  32.8157340  66.0953260 128.2247600
  34.2803230  51.1350090 126.1021580  34.8095990  50.3479890 125.9729530
  34.9131550  51.8141280 126.3357110  36.4741070  50.8725230 129.1566970
  35.8443810  50.1712540 129.3237100  35.9346210  51.6329360 128.9400130
  39.4133020  67.4864460 141.8277580  40.3400330  67.2508730 141.8713540
  39.3983450  68.3136460 141.3463610  36.5996630  50.1509210 141.5919460
  36.3180900  50.6542810 140.8280280  36.9816330  49.3530960 141.2261590
  35.4905730  67.4184870 126.3787140  36.2224550  67.1344150 125.8311030
  35.7499400  67.1798150 127.2686520  34.6520520  63.5349600 126.3833470
  34.0229400  64.0034700 126.9319300  34.7668350  62.6898820 126.8179660
  43.2012090  49.5662790 142.1699930  43.0877540  49.8857400 143.0651450
  44.0181830  49.9675300 141.8737210  45.9810580  66.7134320 141.6518620
  46.7735900  66.2183550 141.4444580  46.2743730  67.3924460 142.2594230
  42.1070240  57.5855260 112.5334670  42.0264290  56.6709870 112.2626380
  41.6934660  58.0822330 111.8274380  44.2595710  63.7694470 113.1943070
  43.7977240  62.9981710 113.5230240  45.0721260  63.7960540 113.6995520
  32.6646060  54.6355980 109.0762090  31.7762760  54.9771950 108.9741970
  32.9487250  54.4356300 108.1842920  39.6797270  62.0391470 114.4214100
  39.6105550  61.0981410 114.2603230  40.4417130  62.1292880 114.9936670
  31.8703940  52.6445990 116.7470720  31.6906780  51.7471740 117.0273480
  31.4684020  53.1917860 117.4217670  40.7102440  54.8461850 114.6483030
  41.0867260  53.9733730 114.5356700  40.6121950  55.1820550 113.7573470
  34.8407450  53.2187480 110.1100470  34.9474200  54.1191210 110.4169230
  33.9299810  53.1705450 109.8195120  48.7826110  54.3579040 118.1455000
  48.0778280  54.7460750 117.6270110  49.0484030  55.0529330 118.7475930
  34.9651280  50.8272410 118.7089070  34.9669720  51.3444800 117.9034970
  34.1355590  50.3502590 118.6859000  41.3522370  60.9391720 110.2078970
  40.7339640  61.4041170 109.6441690  41.8645620  61.6319200 110.6248480
  34.6466610  52.5382370 116.7159520  34.9883420  53.3824420 116.4213390
  33.7082420  52.6866110 116.8324860  35.4273230  62.4348390 118.7011750
  36.0447230  63.1099470 118.4196200  34.5666350  62.8436370 118.6099250
  30.7205570  61.6248250 107.5818600  30.3433550  62.1135350 106.8503500
  30.9778640  62.2973530 108.2125130  46.3450820  63.8987800 116.6166390
  45.6614340  64.5686910 116.6083060  46.8845110  64.0968450 115.8511250
  38.3294500  50.0264640 113.0404110  38.6369480  49.4711530 112.3239610
  37.3995200  50.1609100 112.8577100  45.1754980  62.4648150 110.4201740
  45.0651310  61.5222480 110.5451160  45.1723230  62.8263790 111.3064500
  43.2795000  60.6461770 116.6594180  43.6963790  60.4321880 115.8247640
  44.0034820  60.9034560 117.2302800  47.2257100  59.0448990 116.7510420
  46.3975730  59.1142080 116.2760550  47.8207580  59.6303300 116.2826250
  44.7472550  59.6533770 110.2799480  44.1284970  59.3153320 109.6325780
  44.7297000  59.0093530 110.9878670  44.1899110  55.8318310 117.6965290
  43.7770290  56.6572020 117.9505280  43.4575060  55.2463350 117.5041650
  35.8832030  62.0427460 121.3730970  34.9860560  62.2667430 121.6204370
  35.9084900  62.1662400 120.4242370  42.9237250  58.8920580 107.2872230
  43.3630530  58.0543010 107.1410050  43.6365670  59.5249980 107.3736370
  34.7103250  58.9140780 119.9488340  34.5711020  59.7863580 120.3175740
  33.8284610  58.5713590 119.8036280  36.5083600  64.8562480 122.1573490
  36.4799030  65.2605430 121.2901920  36.3448570  63.9272840 121.9945090
  47.8631670  62.8302430 120.6137670  47.9894730  62.5914310 119.6954850
  47.9053050  61.9986970 121.0859750  43.4028940  64.3273330 107.1714480
  42.7094100  64.3250620 106.5116760  44.1451800  63.9032650 106.7408650
  47.7155680  54.8834890 121.5787410  47.0999950  55.3914560 121.0502870
  47.3952100  53.9833220 121.5213350  35.4900190  50.8558260 113.4414280
  35.0468340  51.6367800 113.1098800  36.0485180  51.1788150 114.1485220
  39.7770000  53.7226780 119.0449600  39.3149370  53.9309800 119.8569540
  39.3748110  52.9086130 118.7420270  44.7774510  54.9435730 120.1746260
  43.9268100  54.6441480 120.4955330  44.6176300  55.1877740 119.2630080
  41.8724220  56.4437480 122.2745050  42.1977630  55.6101230 121.9347280
  42.6604550  56.9666000 122.4223380  37.5276090  51.4005590 115.3003880
  37.8248420  52.3068420 115.2195900  38.0761650  50.9124370 114.6863450
  37.7213620  56.8777410 121.8355800  37.6257220  55.9372140 121.6856200
  38.5645600  57.0992480 121.4403870  41.1177040  54.6218740 111.7989460
  41.5106610  54.9390940 110.9858150  41.4793890  53.7430620 111.9133980
  32.8524160  53.2891080 119.9889580  32.4587550  54.1366290 120.1962360
  32.1642560  52.6517450 120.1798220  39.4269210  53.3726050 123.0586320
  38.7367530  53.1798250 123.6932410  40.1701510  53.6560690 123.5910620
  30.1541210  51.2119540 114.0219660  29.8654260  51.7822400 114.7344640
  30.8986970  50.7323990 114.3850890  30.3411440  55.1539660 105.2322380
  30.2586110  56.0970420 105.3737370  29.9894500  55.0114570 104.3534730
  41.7032180  57.2124490 115.8940240  40.9713300  57.7211300 116.2430340
  41.3056520  56.3954470 115.5929020  38.1409570  53.8878690 114.2992730
  38.1445630  53.4468640 113.4497270  39.0360690  54.2096020 114.4064550
  33.9911950  53.7705180 113.2586940  33.6512000  54.2480410 114.0153990
  33.2289270  53.3170300 112.8988040  42.1658090  52.6658170 115.3063180
  42.1830830  53.1166820 116.1505030  41.9173670  51.7663810 115.5196620
  45.5928840  50.0790350 121.1449560  45.9174610  49.3480010 121.6707540
  45.6285350  49.7603990 120.2430550  32.2920400  61.1003930 120.5649520
  31.9075190  60.4597600 121.1632480  32.6032590  61.8040050 121.1344250
  31.3058030  52.6924160 112.1751610  31.0204950  52.3279830 113.0130230
  31.2436890  51.9604620 111.5614750  45.5186680  60.1915460 114.7535590
  46.2385800  60.6870750 114.3631700  45.3168500  59.5133350 114.1089460
  40.9005480  60.2624520 120.6404590  40.8342790  59.3420190 120.3862180
  40.2710620  60.3599960 121.3549230  39.6905600  62.1296760 107.8715310
  40.0321300  62.8738990 107.3758630  38.8618310  62.4427880 108.2340140
  35.4893760  58.2876090 122.3953260  35.1893900  58.4333270 121.4981080
  36.2605000  57.7281380 122.3026650  40.8322210  63.0845090 120.3908390
  40.8466750  62.1526050 120.1727300  40.1247310  63.1704850 121.0298160
  47.0433420  59.7252430 119.7376970  46.3181610  60.3181210 119.5406360
  47.5708880  59.7175970 118.9390340  46.9946530  64.1227170 109.3889130
  46.3522690  63.4682790 109.6632850  46.6077190  64.5282260 108.6129800
  42.5733010  61.4512600 113.2360820  42.9256830  60.8540730 112.5762190
  41.6895340  61.1256830 113.4069070  30.7988690  57.8283110 106.1348310
  31.6683540  58.1107910 106.4184230  30.3079010  58.6418980 106.0197120
  45.3843910  63.0143630 105.9265480  45.1581490  62.2974070 106.5190120
  44.9940110  62.7656070 105.0887230  43.3125810  63.5289910 119.4062400
  43.6482050  64.1156600 120.0840320  42.3926150  63.3982620 119.6360190
  30.8629210  51.3185090 120.1885810  30.1487730  51.5182010 120.7938420
  31.2824250  50.5424660 120.5600610  44.9660160  60.9315570 107.5879640
  44.6781860  61.3928260 108.3757520  45.7612330  60.4713340 107.8563860
  31.1501800  65.3065350 121.1752340  31.2592920  64.3660090 121.0347730
  30.4982360  65.5720100 120.5266070  39.1414390  63.5781240 122.5750460
  38.8211260  62.8590480 123.1196150  38.4672750  64.2536310 122.6486520
  42.3567990  53.8107400 117.9387260  42.7248810  52.9902610 118.2666830
  41.4966190  53.8709290 118.3542910  37.6914050  55.0450290 110.1632700
  36.9830200  55.5136630 110.6046310  37.9758530  54.3872300 110.7977890
  39.3169980  56.4646990 118.1625230  39.8155230  56.9392810 118.8277080
  39.4592930  55.5410510 118.3695260  46.5236840  52.6814950 119.0053620
  46.0210440  53.4220350 119.3447430  47.3393500  53.0698950 118.6890410
  46.8184430  65.0956980 114.1269240  46.9431850  65.9188150 114.5993050
  47.6849990  64.8847710 113.7793390  31.1747440  63.2561760 109.6727880
  30.2487220  63.4982900 109.6633290  31.6403870  64.0836020 109.5512630
  33.2960240  66.3734260 122.9871950  34.0972970  66.6946310 123.4007350
  32.7812060  66.0129840 123.7091860  42.1324870  62.4814130 122.9347360
  41.5263030  62.5045730 122.1943110  41.8278980  61.7497170 123.4714610
  46.4534440  65.5888630 107.0448680  46.1675950  65.1753770 106.2302860
  46.2553990  66.5176340 106.9249200  31.0158050  58.8607720 121.9308000
  31.5197070  58.2815000 122.5024230  30.2765470  59.1447950 122.4684370
  37.9181670  61.5821910 105.4854290  37.8132310  60.9674260 106.2115670
  37.7505890  61.0587800 104.7017300  38.0695990  60.2678710 121.4643520
  37.3041660  60.8363710 121.3798190  38.2511950  59.9754920 120.5711750
  41.1584400  60.6441940 106.0896280  40.6094500  61.0911240 106.7339020
  41.7803660  60.1391190 106.6133950  45.2119340  61.9984040 122.0218540
  45.9528810  62.3359800 121.5186000  44.4492020  62.1676100 121.4688310
  33.0481130  57.0037310 122.8258070  33.0886470  56.7051180 123.7343300
  33.9026630  57.4044920 122.6665590  34.9886940  55.5829410 120.7932560
  34.4583400  55.0920360 120.1655900  35.6575010  56.0113610 120.2590490
  43.8865000  60.0498870 120.5573750  44.3006020  60.2043950 121.4064170
  42.9516000  60.1754090 120.7199530  44.3587170  57.3895030 122.5612900
  44.9407940  56.6347350 122.4733380  44.5348940  57.9202470 121.7844380
  35.4759240  52.5491780 120.8729850  35.3816110  51.9312530 120.1480720
  34.8956630  53.2758070 120.6459760  38.2420680  51.1065020 117.9057240
  37.7937980  51.1289280 117.0602790  37.6085880  50.7084040 118.5027540
  38.6480230  60.0019350 118.5269680  39.0668340  60.8452080 118.3545920
  37.7288860  60.1391390 118.2976460  40.9844130  57.7335530 119.9107520
  41.1040340  57.1376670 120.6502360  41.8438130  57.7705220 119.4908820
  43.3232030  58.2872720 118.4870030  42.7967250  58.8115340 117.8835170
  43.6663370  58.9200110 119.1179760  37.7512900  54.2756880 121.1683340
  38.3412590  53.9672730 121.8561160  36.9333140  53.8036630 121.3243240
  42.5706330  53.8922690 121.4016360  41.8821850  53.2304230 121.3366350
  43.2912350  53.4460960 121.8464820  33.5431350  62.0809130 105.7527420
  33.9806220  62.6238800 106.4085000  34.0279080  61.2556080 105.7623760
  46.8829540  65.2385750 120.2306620  46.2831530  65.2978310 119.4870540
  47.0123440  64.2990730 120.3603470  48.1230990  62.9803570 105.5676330
  47.2923950  63.0480220 106.0383560  48.3002820  63.8707690 105.2643190
  47.5787450  59.7251050 108.0710530  48.3406360  60.2947700 108.1770220
  47.5941820  59.1578250 108.8418840  48.5847420  60.5801150 112.9152460
  48.9556250  59.7968470 112.5088430  49.2249350  61.2690250 112.7369760
  45.5681180  61.9637730 118.3282780  44.7541020  62.3934890 118.5908570
  45.9755380  62.5756140 117.7151830  47.6306620  60.0185420 105.2283050
  47.9055460  60.9264300 105.1002270  47.4417360  59.9547950 106.1645040
  46.9171580  57.1025930 119.8552000  46.6857670  56.8738680 118.9549950
  47.1776130  58.0225480 119.8096890  31.6683720  55.5450640 120.7479950
  30.7739770  55.5117400 121.0873660  32.2081270  55.7437430 121.5131200
  45.3559650  52.3282360 122.6331700  46.2329830  52.3365760 123.0165700
  45.3680490  51.5913200 122.0224050  30.2929870  55.4587910 108.2443520
  29.3893950  55.7218110 108.0695180  30.7770490  55.7299080 107.4643480
  46.9812640  56.2651770 117.0439270  46.0315350  56.2315310 117.1584260
  47.1625650  57.1751880 116.8089040  46.0675770  50.0140330 118.4532810
  46.7047990  50.6274470 118.8192000  46.2150660  50.0500990 117.5082040
  31.9255430  49.9754640 117.8388490  31.5770250  50.4318460 118.6046670
  31.5943130  49.0811770 117.9210920  33.5319800  63.1474240 122.0041680
  33.4889430  62.7767150 122.8856140  33.6630810  64.0851810 122.1443500
  39.4380250  51.1666520 121.3607910  39.3769140  51.7588350 122.1103320
  40.3780630  51.0592480 121.2158170  42.0754810  50.8236580 121.0000200
  42.6895220  51.1415870 120.3381280  42.6204370  50.3385170 121.6196060
  48.4929990  66.7228210 118.4062040  47.9988270  67.1197080 117.6889170
  47.8843280  66.0977420 118.7999320  32.5976070  49.5030840 121.1139260
  33.1459060  49.3218890 120.3505370  32.6631380  48.7124950 121.6495570
  42.8162850  49.3868720 117.3269490  41.9422690  49.7203830 117.1242420
  42.7073600  48.9141900 118.1521360  43.7234830  51.5939590 118.7111210
  43.3948190  50.7791350 118.3312940  44.6717130  51.5509400 118.5876900
  40.5637670  50.3038560 116.2662400  39.7809460  50.7784060 116.5459160
  40.2700600  49.3993390 116.1575580  45.1158740  51.0061660 114.3111490
  45.5566830  50.9506760 113.4633090  44.8466330  51.9219670 114.3821670
  31.9078080  50.6086040 108.7876120  32.6657440  50.7214920 108.2140150
  31.4455250  51.4455240 108.7419550  38.4491890  52.7225310 111.7778430
  37.6366400  52.3482200 111.4374310  38.9533530  51.9670390 112.0799620
  42.9516870  49.3867760 113.0161500  43.5546240  49.9587970 113.4910020
  42.2109860  49.9507200 112.7935400  36.4741070  50.8725230 110.3823480
  35.8443810  50.1712540 110.5493610  35.9346210  51.6329360 110.1656640
  47.6478080  67.0290030 110.0508340  47.8230270  66.3427770 109.4069260
  46.9499650  67.5537080 109.6585010  36.5996630  50.1509210 122.8175970
  36.3180900  50.6542810 122.0536790  36.9816330  49.3530960 122.4518100
  43.2012090  49.5662790 123.3956440  43.0877540  49.8857400 124.2907960
  44.0181830  49.9675300 123.0993720  40.4859020  66.0552480  94.0403570
  39.8670460  66.5109980  93.4698010  41.3410800  66.2103940  93.6393270
  31.8703940  52.6445990  97.9727230  31.6906780  51.7471740  98.2529990
  31.4684020  53.1917860  98.6474180  34.8407450  53.2187480  91.3356980
  34.9474200  54.1191210  91.6425740  33.9299810  53.1705450  91.0451630
  48.7826110  54.3579040  99.3711510  48.0778280  54.7460750  98.8526620
  49.0484030  55.0529330  99.9732440  34.9651280  50.8272410  99.9345580
  34.9669720  51.3444800  99.1291480  34.1355590  50.3502590  99.9115510
  34.6466610  52.5382370  97.9416030  34.9883420  53.3824420  97.6469900
  33.7082420  52.6866110  98.0581370  43.8809560  65.7431930  96.5568080
  43.8936720  65.3394220  95.6890340  43.3284780  66.5179220  96.4529510
  40.7175260  58.0913470  91.0020740  39.7904540  58.0250850  91.2309210
  40.8700080  59.0293600  90.8875980  40.7044340  54.3630470  87.9987900
  39.7648010  54.5244430  88.0840360  41.0227600  55.0816150  87.4523890
  44.8799210  65.8777640  99.6102780  44.4029770  66.6849830  99.4175390
  44.1961000  65.2255970  99.7628990  42.9237250  58.8920580  88.5128740
  43.3630530  58.0543010  88.3666560  43.6365670  59.5249980  88.5992880
  46.5054390  50.1463390  86.8269780  46.1927050  50.2390220  87.7268850
  47.2666860  50.7244420  86.7767210  48.4598420  65.6389580 104.6794170
  48.9358140  66.1172470 105.3583250  49.0805580  65.5707070 103.9539670
  47.8631670  62.8302430 101.8394180  47.9894730  62.5914310 100.9211360
  47.9053050  61.9986970 102.3116260  43.4028940  64.3273330  88.3970990
  42.7094100  64.3250620  87.7373270  44.1451800  63.9032650  87.9665160
  42.9678870  65.9536040  92.4719480  43.4235820  65.1725420  92.7858100
  43.3071390  66.6642860  93.0160660  35.4900190  50.8558260  94.6670790
  35.0468340  51.6367800  94.3355310  36.0485180  51.1788150  95.3741730
  37.5276090  51.4005590  96.5260390  37.8248420  52.3068420  96.4452410
  38.0761650  50.9124370  95.9119960  35.2814410  55.9791830  92.3952040
  35.0555330  55.7629000  93.2998660  34.5006940  56.4120290  92.0498010
  42.5112170  55.9855200  90.9942690  41.9121060  56.7091000  90.8106310
  43.0591780  55.9231980  90.2119140  32.8524160  53.2891080 101.2146090
  32.4587550  54.1366290 101.4218870  32.1642560  52.6517450 101.4054730
  38.2029720  54.8890770  88.5156000  38.3242540  54.8477250  89.4641820
  37.8178230  55.7514920  88.3602730  37.2151220  57.1991910  87.9139300
  36.6468120  56.7510160  87.2875210  37.9240220  57.5584690  87.3804450
  45.5928840  50.0790350 102.3706070  45.9174610  49.3480010 102.8964050
  45.6285350  49.7603990 101.4687060  40.9005480  60.2624520 101.8661100
  40.8342790  59.3420190 101.6118690  40.2710620  60.3599960 102.5805740
  43.6945010  55.9573070  88.4183650  44.5824630  56.2690300  88.2434990
  43.6650100  55.0845320  88.0264230  39.6905600  62.1296760  89.0971820
  40.0321300  62.8738990  88.6015140  38.8618310  62.4427880  89.4596650
  40.8322210  63.0845090 101.6164900  40.8466750  62.1526050 101.3983810
  40.1247310  63.1704850 102.2554670  45.9659280  57.2684910  87.8863510
  45.8823000  57.6999130  87.0359950  46.6853470  57.7283260  88.3190330
  46.9946530  64.1227170  90.6145640  46.3522690  63.4682790  90.8889360
  46.6077190  64.5282260  89.8386310  33.8635280  49.5593970  91.9535620
  33.7349910  49.5511870  92.9020540  33.0397300  49.8977060  91.6026630
  45.3843910  63.0143630  87.1521990  45.1581490  62.2974070  87.7446630
  44.9940110  62.7656070  86.3143740  43.3125810  63.5289910 100.6318910
  43.6482050  64.1156600 101.3096830  42.3926150  63.3982620 100.8616700
  30.8629210  51.3185090 101.4142320  30.1487730  51.5182010 102.0194930
  31.2824250  50.5424660 101.7857120  44.9660160  60.9315570  88.8136150
  44.6781860  61.3928260  89.6014030  45.7612330  60.4713340  89.0820370
  39.1414390  63.5781240 103.8006970  38.8211260  62.8590480 104.3452660
  38.4672750  64.2536310 103.8743030  37.1828560  64.4241690  88.7440120
  37.1738660  65.1571380  88.1284630  36.2626920  64.1773270  88.8367080
  45.7230020  52.7664340  89.9731330  45.0943180  52.8710010  89.2589560
  45.2281940  52.9861120  90.7625210  40.1688160  64.4869930  87.4065310
  40.2700140  64.2833920  86.4767290  39.2689900  64.2328210  87.6113090
  37.6914050  55.0450290  91.3889210  36.9830200  55.5136630  91.8302820
  37.9758530  54.3872300  92.0234400  35.8949070  53.3535370  88.7639920
  36.7439600  53.7905520  88.6980110  35.5280340  53.6655630  89.5911980
  46.5236840  52.6814950 100.2310130  46.0210440  53.4220350 100.5703940
  47.3393500  53.0698950  99.9146920  33.4887250  57.0392800  87.9208340
  33.5690840  56.0920310  88.0325740  34.3807000  57.3699680  88.0269000
  46.8184430  65.0956980  95.3525750  46.9431850  65.9188150  95.8249560
  47.6849990  64.8847710  95.0049900  33.2960240  66.3734260 104.2128460
  34.0972970  66.6946310 104.6263860  32.7812060  66.0129840 104.9348370
  37.4004270  66.3618500  86.8468450  38.1932880  66.6507330  86.3950240
  36.8808620  65.9310670  86.1680930  42.1324870  62.4814130 104.1603870
  41.5263030  62.5045730 103.4199620  41.8278980  61.7497170 104.6971120
  46.4534440  65.5888630  88.2705190  46.1675950  65.1753770  87.4559370
  46.2553990  66.5176340  88.1505710  37.9181670  61.5821910  86.7110800
  37.8132310  60.9674260  87.4372180  37.7505890  61.0587800  85.9273810
  38.0695990  60.2678710 102.6900030  37.3041660  60.8363710 102.6054700
  38.2511950  59.9754920 101.7968260  41.1584400  60.6441940  87.3152790
  40.6094500  61.0911240  87.9595530  41.7803660  60.1391190  87.8390460
  45.2119340  61.9984040 103.2475050  45.9528810  62.3359800 102.7442510
  44.4492020  62.1676100 102.6944820  36.8259520  59.6032860  89.2118090
  37.2475940  59.4372730  90.0549480  36.9510360  58.7933090  88.7173230
  39.3387160  58.6270470  86.4595190  39.8592820  57.9119490  86.0936340
  39.9855560  59.2656340  86.7595700  43.8865000  60.0498870 101.7830260
  44.3006020  60.2043950 102.6320680  42.9516000  60.1754090 101.9456040
  38.2420680  51.1065020  99.1313750  37.7937980  51.1289280  98.2859300
  37.6085880  50.7084040  99.7284050  43.3232030  58.2872720  99.7126540
  42.7967250  58.8115340  99.1091680  43.6663370  58.9200110 100.3436270
  35.7218420  55.6766090  86.1576250  35.5207480  54.8133450  86.5189590
  35.5510470  55.5899450  85.2197850  46.8829540  65.2385750 101.4563130
  46.2831530  65.2978310 100.7127050  47.0123440  64.2990730 101.5859980
  47.5787450  59.7251050  89.2967040  48.3406360  60.2947700  89.4026730
  47.5941820  59.1578250  90.0675350  47.6306620  60.0185420  86.4539560
  47.9055460  60.9264300  86.3258780  47.4417360  59.9547950  87.3901550
  44.0282230  53.0430270  87.7493190  44.4467110  52.8561250  86.9089850
  43.7218290  52.1909320  88.0596120  47.5271960  57.9554410  91.4468990
  47.1515560  57.1882340  91.0150280  46.7975080  58.3377110  91.9343920
  46.9171580  57.1025930 101.0808510  46.6857670  56.8738680 100.1806460
  47.1776130  58.0225480 101.0353400  32.8357080  54.5153450  87.3794410
  33.5448780  54.0936670  86.8941690  32.1197020  54.5828680  86.7477760
  46.2922890  55.4385250  90.6868640  46.7882010  55.2056120  91.4717520
  46.0938960  54.5997090  90.2706280  32.1723430  49.8198970  96.3219680
  32.8199620  49.2696350  95.8814840  32.5925270  50.0742120  97.1435490
  47.7210050  54.0746200  93.2206320  47.6109330  53.9202240  94.1588590
  48.4817640  53.5467140  92.9781730  46.0675770  50.0140330  99.6789320
  46.7047990  50.6274470 100.0448510  46.2150660  50.0500990  98.7338550
  45.6257230  66.7156330  93.0807560  46.2216300  66.3940900  92.4041980
  45.8835380  66.2428150  93.8720830  31.9255430  49.9754640  99.0645000
  31.5770250  50.4318460  99.8303180  31.5943130  49.0811770  99.1467430
  42.0754810  50.8236580 102.2256710  42.6895220  51.1415870 101.5637790
  42.6204370  50.3385170 102.8452570  48.4929990  66.7228210  99.6318550
  47.9988270  67.1197080  98.9145680  47.8843280  66.0977420 100.0255830
  42.8162850  49.3868720  98.5526000  41.9422690  49.7203830  98.3498930
  42.7073600  48.9141900  99.3777870  43.7234830  51.5939590  99.9367720
  43.3948190  50.7791350  99.5569450  44.6717130  51.5509400  99.8133410
  46.1769440  67.3651630  96.9105290  45.7172410  68.1167440  96.5363310
  45.5481900  66.6458100  96.8520090  40.5637670  50.3038560  97.4918910
  39.7809460  50.7784060  97.7715670  40.2700600  49.3993390  97.3832090
  46.9797310  50.6376900  93.5476820  46.9185710  49.6938120  93.4007840
  47.7589340  50.7456990  94.0930280  38.4491890  52.7225310  93.0034940
  37.6366400  52.3482200  92.6630820  38.9533530  51.9670390  93.3056130
  42.9516870  49.3867760  94.2418010  43.5546240  49.9587970  94.7166530
  42.2109860  49.9507200  94.0191910  46.0951470  49.7889320  89.5158290
  46.2902100  50.6872770  89.7825720  45.3081340  49.5576400  90.0091240
  36.4741070  50.8725230  91.6079990  35.8443810  50.1712540  91.7750120
  35.9346210  51.6329360  91.3913150  47.6478080  67.0290030  91.2764850
  47.8230270  66.3427770  90.6325770  46.9499650  67.5537080  90.8841520
  42.1070240  57.5855260  74.9847690  42.0264290  56.6709870  74.7139400
  41.6934660  58.0822330  74.2787400  40.2388280  59.3634280  76.8656960
  39.4630380  58.8834720  77.1555530  40.8901210  58.6839930  76.6913120
  34.2355370  63.7094180  77.9390740  34.5383410  62.8191920  77.7600960
  34.9798960  64.2664400  77.7112990  30.6279070  57.2361630  77.4114810
  31.1995180  56.4683830  77.4118450  30.6280610  57.5350390  76.5021420
  39.6797270  62.0391470  76.8727120  39.6105550  61.0981410  76.7116250
  40.4417130  62.1292880  77.4449690  40.7102440  54.8461850  77.0996050
  41.0867260  53.9733730  76.9869720  40.6121950  55.1820550  76.2086490
  44.4926560  52.3412290  74.0324390  45.3136180  51.8508860  74.0749870
  44.5260640  52.9309950  74.7856230  41.3522370  60.9391720  72.6591990
  40.7339640  61.4041170  72.0954710  41.8645620  61.6319200  73.0761500
  44.7288040  54.2812670  76.8051930  44.0243610  54.5697560  77.3855040
  45.0900200  55.0912780  76.4451490  35.4273230  62.4348390  81.1524770
  36.0447230  63.1099470  80.8709220  34.5666350  62.8436370  81.0612270
  30.7205570  61.6248250  70.0331620  30.3433550  62.1135350  69.3016520
  30.9778640  62.2973530  70.6638150  38.3294500  50.0264640  75.4917130
  38.6369480  49.4711530  74.7752630  37.3995200  50.1609100  75.3090120
  43.8809560  65.7431930  77.7824590  43.8936720  65.3394220  76.9146850
  43.3284780  66.5179220  77.6786020  43.2795000  60.6461770  79.1107200
  43.6963790  60.4321880  78.2760660  44.0034820  60.9034560  79.6815820
  40.7175260  58.0913470  72.2277250  39.7904540  58.0250850  72.4565720
  40.8700080  59.0293600  72.1132490  40.7044340  54.3630470  69.2244410
  39.7648010  54.5244430  69.3096870  41.0227600  55.0816150  68.6780400
  47.2257100  59.0448990  79.2023440  46.3975730  59.1142080  78.7273570
  47.8207580  59.6303300  78.7339270  44.1899110  55.8318310  80.1478310
  43.7770290  56.6572020  80.4018300  43.4575060  55.2463350  79.9554670
  36.7913600  62.3045770  77.1736190  36.4941890  61.6991240  76.4943970
  37.7413420  62.3423080  77.0625550  35.8832030  62.0427460  83.8243990
  34.9860560  62.2667430  84.0717390  35.9084900  62.1662400  82.8755390
  42.9237250  58.8920580  69.7385250  43.3630530  58.0543010  69.5923070
  43.6365670  59.5249980  69.8249390  36.5083600  64.8562480  84.6086510
  36.4799030  65.2605430  83.7414940  36.3448570  63.9272840  84.4458110
  46.5054390  50.1463390  68.0526290  46.1927050  50.2390220  68.9525360
  47.2666860  50.7244420  68.0023720  31.9069530  62.3838520  74.7278450
  31.4997610  62.5253110  73.8732050  32.7982540  62.0998680  74.5249660
  41.7248410  66.5330430  81.6345500  42.2393080  66.4438440  82.4367930
  40.8817490  66.8790130  81.9273410  36.1791190  66.5984300  72.8401120
  36.0033670  65.6819840  72.6268920  35.3246930  66.9571590  73.0798920
  35.4900190  50.8558260  75.8927300  35.0468340  51.6367800  75.5611820
  36.0485180  51.1788150  76.5998240  38.6059010  50.4768960  70.7733130
  37.9813190  50.4728830  71.4986440  38.5189130  49.6099920  70.3769100
  42.5112170  55.9855200  72.2199200  41.9121060  56.7091000  72.0362820
  43.0591780  55.9231980  71.4375650  37.7213620  56.8777410  84.2868820
  37.6257220  55.9372140  84.1369220  38.5645600  57.0992480  83.8916890
  41.1177040  54.6218740  74.2502480  41.5106610  54.9390940  73.4371170
  41.4793890  53.7430620  74.3647000  30.3411440  55.1539660  67.6835400
  30.2586110  56.0970420  67.8250390  29.9894500  55.0114570  66.8047750
  41.7032180  57.2124490  78.3453260  40.9713300  57.7211300  78.6943360
  41.3056520  56.3954470  78.0442040  38.1409570  53.8878690  76.7505750
  38.1445630  53.4468640  75.9010290  39.0360690  54.2096020  76.8577570
  38.2029720  54.8890770  69.7412510  38.3242540  54.8477250  70.6898330
  37.8178230  55.7514920  69.5859240  42.1658090  52.6658170  77.7576200
  42.1830830  53.1166820  78.6018050  41.9173670  51.7663810  77.9709640
  31.3058030  52.6924160  74.6264630  31.0204950  52.3279830  75.4643250
  31.2436890  51.9604620  74.0127770  40.9796620  51.5853420  71.3478000
  40.1661230  51.0866590  71.2723310  40.7858570  52.4251670  70.9314350
  40.9005480  60.2624520  83.0917610  40.8342790  59.3420190  82.8375200
  40.2710620  60.3599960  83.8062250  43.6945010  55.9573070  69.6440160
  44.5824630  56.2690300  69.4691500  43.6650100  55.0845320  69.2520740
  39.6905600  62.1296760  70.3228330  40.0321300  62.8738990  69.8271650
  38.8618310  62.4427880  70.6853160  35.4893760  58.2876090  84.8466280
  35.1893900  58.4333270  83.9494100  36.2605000  57.7281380  84.7539670
  40.8322210  63.0845090  82.8421410  40.8466750  62.1526050  82.6240320
  40.1247310  63.1704850  83.4811180  45.9659280  57.2684910  69.1120020
  45.8823000  57.6999130  68.2616460  46.6853470  57.7283260  69.5446840
  42.5733010  61.4512600  75.6873840  42.9256830  60.8540730  75.0275210
  41.6895340  61.1256830  75.8582090  38.6596290  62.2110290  73.0944250
  39.3467420  62.7579500  73.4751840  37.8728710  62.7551020  73.1293860
  30.7988690  57.8283110  68.5861330  31.6683540  58.1107910  68.8697250
  30.3079010  58.6418980  68.4710140  40.2656110  64.7262660  79.9361910
  40.9098330  64.9322040  80.6135330  40.6285550  63.9651060  79.4832760
  33.8635280  49.5593970  73.1792130  33.7349910  49.5511870  74.1277050
  33.0397300  49.8977060  72.8283140  41.5388190  62.7295010  78.6539360
  42.1810420  62.0288170  78.7671530  42.0637540  63.5093450  78.4736250
  45.3843910  63.0143630  68.3778500  45.1581490  62.2974070  68.9703140
  44.9940110  62.7656070  67.5400250  43.3125810  63.5289910  81.8575420
  43.6482050  64.1156600  82.5353340  42.3926150  63.3982620  82.0873210
  44.9660160  60.9315570  70.0392660  44.6781860  61.3928260  70.8270540
  45.7612330  60.4713340  70.3076880  39.1414390  63.5781240  85.0263480
  38.8211260  62.8590480  85.5709170  38.4672750  64.2536310  85.0999540
  45.7230020  52.7664340  71.1987840  45.0943180  52.8710010  70.4846070
  45.2281940  52.9861120  71.9881720  41.7229480  51.7700950  74.0541510
  41.5997260  51.7887080  73.1051020  42.6714040  51.8179890  74.1739910
  44.8158850  57.9248130  74.9028000  43.8748990  57.9398360  75.0775690
  45.1302920  57.1384090  75.3488300  34.7940490  59.6067730  68.4631960
  35.5603760  59.4949090  69.0257390  34.8715180  58.9105700  67.8108730
  34.2901960  67.1888190  76.2499390  35.0264440  66.6403650  76.5207960
  34.6742880  68.0544200  76.1105380  31.1747440  63.2561760  72.1240900
  30.2487220  63.4982900  72.1146310  31.6403870  64.0836020  72.0025650
  42.1324870  62.4814130  85.3860380  41.5263030  62.5045730  84.6456130
  41.8278980  61.7497170  85.9227630  43.5625240  66.2094420  83.9969790
  44.5146990  66.1252440  83.9470030  43.4153460  66.8736130  84.6703580
  31.0158050  58.8607720  84.3821020  31.5197070  58.2815000  84.9537250
  30.2765470  59.1447950  84.9197390  37.9181670  61.5821910  67.9367310
  37.8132310  60.9674260  68.6628690  37.7505890  61.0587800  67.1530320
  38.0695990  60.2678710  83.9156540  37.3041660  60.8363710  83.8311210
  38.2511950  59.9754920  83.0224770  41.1584400  60.6441940  68.5409300
  40.6094500  61.0911240  69.1852040  41.7803660  60.1391190  69.0646970
  33.0481130  57.0037310  85.2771090  33.0886470  56.7051180  86.1856320
  33.9026630  57.4044920  85.1178610  39.3387160  58.6270470  67.6851700
  39.8592820  57.9119490  67.3192850  39.9855560  59.2656340  67.9852210
  43.8865000  60.0498870  83.0086770  44.3006020  60.2043950  83.8577190
  42.9516000  60.1754090  83.1712550  44.3587170  57.3895030  85.0125920
  44.9407940  56.6347350  84.9246400  44.5348940  57.9202470  84.2357400
  38.6480230  60.0019350  80.9782700  39.0668340  60.8452080  80.8058940
  37.7288860  60.1391390  80.7489480  43.3232030  58.2872720  80.9383050
  42.7967250  58.8115340  80.3348190  43.6663370  58.9200110  81.5692780
  35.7218420  55.6766090  67.3832760  35.5207480  54.8133450  67.7446100
  35.5510470  55.5899450  66.4454360  36.4987650  66.3072360  82.0940430
  35.9608740  67.0318420  81.7749130  36.7521610  65.8302700  81.3037770
  43.2006730  50.4874320  69.9119640  43.4809020  49.6442220  70.2679060
  42.4272460  50.7197430  70.4258390  34.5201220  52.7766710  67.3710640
  34.8227120  52.7834140  66.4629790  35.2595810  52.4264570  67.8678300
  39.3549860  67.5423570  82.3527080  39.2808560  68.4458710  82.6599450
  38.4528700  67.2235470  82.3249150  37.7386150  51.7201330  68.3566840
  37.3908150  51.0425320  67.7769290  37.9398920  51.2590840  69.1710230
  33.5431350  62.0809130  68.2040440  33.9806220  62.6238800  68.8598020
  34.0279080  61.2556080  68.2136780  30.7577150  64.8698160  75.6560700
  31.0880160  64.0019220  75.4239340  31.1868150  65.0756680  76.4865660
  35.3539070  63.2007170  73.3162670  35.0534610  63.0772140  74.2166580
  35.2476560  62.3415760  72.9078400  31.2467360  65.7368750  78.3942330
  30.8098350  65.9169550  79.2266480  31.8145040  66.4943370  78.2524050
  47.5787450  59.7251050  70.5223550  48.3406360  60.2947700  70.6283240
  47.5941820  59.1578250  71.2931860  47.6306620  60.0185420  67.6796070
  47.9055460  60.9264300  67.5515290  47.4417360  59.9547950  68.6158060
  44.0282230  53.0430270  68.9749700  44.4467110  52.8561250  68.1346360
  43.7218290  52.1909320  69.2852630  47.5271960  57.9554410  72.6725500
  47.1515560  57.1882340  72.2406790  46.7975080  58.3377110  73.1600430
  45.3559650  52.3282360  85.0844720  46.2329830  52.3365760  85.4678720
  45.3680490  51.5913200  84.4737070  30.2929870  55.4587910  70.6956540
  29.3893950  55.7218110  70.5208200  30.7770490  55.7299080  69.9156500
  46.8022920  56.1811900  75.9732740  47.3260400  55.6874550  75.3422910
  47.3882340  56.3162260  76.7180310  32.8357080  54.5153450  68.6050920
  33.5448780  54.0936670  68.1198200  32.1197020  54.5828680  67.9734270
  32.4831240  50.5692780  67.6453570  33.2059370  51.1101720  67.9634790
  32.7555760  50.2956200  66.7695110  46.2922890  55.4385250  71.9125150
  46.7882010  55.2056120  72.6974030  46.0938960  54.5997090  71.4962790
  47.7210050  54.0746200  74.4462830  47.6109330  53.9202240  75.3845100
  48.4817640  53.5467140  74.2038240  48.6100320  51.9054120  67.6868970
  49.5349630  51.7735300  67.4787260  48.5876110  51.9846940  68.6405420
  48.6838810  52.6764780  70.3125680  47.8890310  52.6109900  70.8418590
  48.8882090  53.6115420  70.3011030  33.5319800  63.1474240  84.4554700
  33.4889430  62.7767150  85.3369160  33.6630810  64.0851810  84.5956520
  37.2325830  64.7033830  80.0564420  36.9917190  64.9708390  79.1694940
  38.1728470  64.8739560  80.1115280  33.3707830  66.0936490  81.5752480
  32.7768150  65.9621190  82.3142520  33.3631670  65.2574630  81.1094580
  42.8162850  49.3868720  79.7782510  41.9422690  49.7203830  79.5755440
  42.7073600  48.9141900  80.6034380  36.6065160  65.6739870  77.3109930
  37.1230180  65.0627230  76.7858190  37.2562540  66.1768650  77.8020940
  39.3460660  66.5648360  78.1378910  39.6338470  66.3102660  77.2611920
  39.8583880  66.0125720  78.7284480  40.5637670  50.3038560  78.7175420
  39.7809460  50.7784060  78.9972180  40.2700600  49.3993390  78.6088600
  45.1158740  51.0061660  76.7624510  45.5566830  50.9506760  75.9146110
  44.8466330  51.9219670  76.8334690  46.9797310  50.6376900  74.7733330
  46.9185710  49.6938120  74.6264350  47.7589340  50.7456990  75.3186790
  31.2850060  66.7769260  73.7357280  31.1172100  66.1439940  74.4339170
  30.4184570  66.9828660  73.3851470  31.9078080  50.6086040  71.2389140
  32.6657440  50.7214920  70.6653170  31.4455250  51.4455240  71.1932570
  38.4491890  52.7225310  74.2291450  37.6366400  52.3482200  73.8887330
  38.9533530  51.9670390  74.5312640  42.9516870  49.3867760  75.4674520
  43.5546240  49.9587970  75.9423040  42.2109860  49.9507200  75.2448420
  46.0951470  49.7889320  70.7414800  46.2902100  50.6872770  71.0082230
  45.3081340  49.5576400  71.2347750  34.2803230  51.1350090  69.7791110
  34.8095990  50.3479890  69.6499060  34.9131550  51.8141280  70.0126640
  36.4741070  50.8725230  72.8336500  35.8443810  50.1712540  73.0006630
  35.9346210  51.6329360  72.6169660  39.4133020  67.4864460  85.5047110
  40.3400330  67.2508730  85.5483070  39.3983450  68.3136460  85.0233140
  34.6520520  63.5349600  70.0603000  34.0229400  64.0034700  70.6088830
  34.7668350  62.6898820  70.4949190  45.9810580  66.7134320  85.3288150
  46.7735900  66.2183550  85.1214110  46.2743730  67.3924460  85.9363760
  34.2554110  59.6754090  58.9689230  33.4238990  59.4202800  59.3685740
  34.8635090  59.7464860  59.7047150  34.2355370  63.7094180  59.1647250
  34.5383410  62.8191920  58.9857470  34.9798960  64.2664400  58.9369500
  30.6279070  57.2361630  58.6371320  31.1995180  56.4683830  58.6374960
  30.6280610  57.5350390  57.7277930  40.4859020  66.0552480  56.4916590
  39.8670460  66.5109980  55.9211030  41.3410800  66.2103940  56.0906290
  39.6797270  62.0391470  58.0983630  39.6105550  61.0981410  57.9372760
  40.4417130  62.1292880  58.6706200  40.7102440  54.8461850  58.3252560
  41.0867260  53.9733730  58.2126230  40.6121950  55.1820550  57.4343000
  34.8407450  53.2187480  53.7870000  34.9474200  54.1191210  54.0938760
  33.9299810  53.1705450  53.4964650  44.4926560  52.3412290  55.2580900
  45.3136180  51.8508860  55.3006380  44.5260640  52.9309950  56.0112740
  36.6815180  56.1873850  58.1195180  37.1893400  56.6854820  58.7600200
  37.2128420  55.4109050  57.9434540  36.2154130  60.4667590  60.5632100
  35.8823510  61.0936510  61.2053170  36.3920810  60.9929470  59.7833770
  44.7288040  54.2812670  58.0308440  44.0243610  54.5697560  58.6111550
  45.0900200  55.0912780  57.6708000  35.4273230  62.4348390  62.3781280
  36.0447230  63.1099470  62.0965730  34.5666350  62.8436370  62.2868780
  47.7974960  53.7267460  58.4217650  46.8499870  53.7606440  58.5533080
  48.1224950  54.5406410  58.8067010  38.3294500  50.0264640  56.7173640
  38.6369480  49.4711530  56.0009140  37.3995200  50.1609100  56.5346630
  40.7044340  54.3630470  50.4500920  39.7648010  54.5244430  50.5353380
  41.0227600  55.0816150  49.9036910  44.1899110  55.8318310  61.3734820
  43.7770290  56.6572020  61.6274810  43.4575060  55.2463350  61.1811180
  36.3231900  58.6178210  56.2353490  35.9188900  57.9055460  55.7399390
  36.4095020  58.2731450  57.1241530  36.7913600  62.3045770  58.3992700
  36.4941890  61.6991240  57.7200480  37.7413420  62.3423080  58.2882060
  35.8832030  62.0427460  65.0500500  34.9860560  62.2667430  65.2973900
  35.9084900  62.1662400  64.1011900  34.7103250  58.9140780  63.6257870
  34.5711020  59.7863580  63.9945270  33.8284610  58.5713590  63.4805810
  41.0332630  63.8316650  54.9323000  41.4728540  64.5740980  54.5178390
  40.9719520  64.0743220  55.8561960  36.5083600  64.8562480  65.8343020
  36.4799030  65.2605430  64.9671450  36.3448570  63.9272840  65.6714620
  33.0236530  57.5123190  53.7360140  32.9034130  58.2385280  53.1241410
  32.7137420  56.7426100  53.2588050  30.6621900  60.6838330  59.5428780
  30.7402320  60.8187100  58.5984500  31.2763580  59.9754220  59.7356900
  31.9069530  62.3838520  55.9534960  31.4997610  62.5253110  55.0988560
  32.7982540  62.0998680  55.7506170  41.7248410  66.5330430  62.8602010
  42.2393080  66.4438440  63.6624440  40.8817490  66.8790130  63.1529920
  36.1791190  66.5984300  54.0657630  36.0033670  65.6819840  53.8525430
  35.3246930  66.9571590  54.3055430  42.9678870  65.9536040  54.9232500
  43.4235820  65.1725420  55.2371120  43.3071390  66.6642860  55.4673680
  47.7155680  54.8834890  65.2556940  47.0999950  55.3914560  64.7272400
  47.3952100  53.9833220  65.1982880  30.7181420  61.7252500  62.0823240
  30.8812460  61.2557860  61.2642610  31.1833870  61.2176060  62.7472080
  35.4900190  50.8558260  57.1183810  35.0468340  51.6367800  56.7868330
  36.0485180  51.1788150  57.8254750  39.7770000  53.7226780  62.7219130
  39.3149370  53.9309800  63.5339070  39.3748110  52.9086130  62.4189800
  44.7774510  54.9435730  63.8515790  43.9268100  54.6441480  64.1724860
  44.6176300  55.1877740  62.9399610  41.8724220  56.4437480  65.9514580
  42.1977630  55.6101230  65.6116810  42.6604550  56.9666000  66.0992910
  38.6059010  50.4768960  51.9989640  37.9813190  50.4728830  52.7242950
  38.5189130  49.6099920  51.6025610  37.5276090  51.4005590  58.9773410
  37.8248420  52.3068420  58.8965430  38.0761650  50.9124370  58.3632980
  35.2814410  55.9791830  54.8465060  35.0555330  55.7629000  55.7511680
  34.5006940  56.4120290  54.5011030  37.7213620  56.8777410  65.5125330
  37.6257220  55.9372140  65.3625730  38.5645600  57.0992480  65.1173400
  32.8524160  53.2891080  63.6659110  32.4587550  54.1366290  63.8731890
  32.1642560  52.6517450  63.8567750  39.4269210  53.3726050  66.7355850
  38.7367530  53.1798250  67.3701940  40.1701510  53.6560690  67.2680150
  38.1409570  53.8878690  57.9762260  38.1445630  53.4468640  57.1266800
  39.0360690  54.2096020  58.0834080  38.2029720  54.8890770  50.9669020
  38.3242540  54.8477250  51.9154840  37.8178230  55.7514920  50.8115750
  42.1658090  52.6658170  58.9832710  42.1830830  53.1166820  59.8274560
  41.9173670  51.7663810  59.1966150  37.2151220  57.1991910  50.3652320
  36.6468120  56.7510160  49.7388230  37.9240220  57.5584690  49.8317470
  45.5928840  50.0790350  64.8219090  45.9174610  49.3480010  65.3477070
  45.6285350  49.7603990  63.9200080  32.2920400  61.1003930  64.2419050
  31.9075190  60.4597600  64.8402010  32.6032590  61.8040050  64.8113780
  38.4417540  57.9480470  59.7227670  38.8087670  57.4739040  60.4689010
  38.2522600  58.8222040  60.0636010  31.3058030  52.6924160  55.8521140
  31.0204950  52.3279830  56.6899760  31.2436890  51.9604620  55.2384280
  36.2316910  56.9889110  62.0411880  35.9273980  57.8681090  62.2662240
  37.1863370  57.0488900  62.0769320  34.7598700  61.1950100  52.6378730
  33.9860960  60.6547720  52.4777450  35.4893330  60.6756710  52.2996490
  40.9796620  51.5853420  52.5734510  40.1661230  51.0866590  52.4979820
  40.7858570  52.4251670  52.1570860  34.8036100  60.8630480  56.2757540
  35.3214770  60.0598740  56.2214430  34.3520120  60.8009620  57.1174370
  32.2880640  57.8291850  63.1883240  31.9295580  58.4945700  63.7756580
  31.9935200  56.9975400  63.5595860  35.4893760  58.2876090  66.0722790
  35.1893900  58.4333270  65.1750610  36.2605000  57.7281380  65.9796180
  40.8322210  63.0845090  64.0677920  40.8466750  62.1526050  63.8496830
  40.1247310  63.1704850  64.7067690  40.2656110  64.7262660  61.1618420
  40.9098330  64.9322040  61.8391840  40.6285550  63.9651060  60.7089270
  31.1659940  67.0410490  50.3779470  31.5257580  67.6399830  49.7236740
  31.0252280  67.5870380  51.1514500  37.1828560  64.4241690  51.1953140
  37.1738660  65.1571380  50.5797650  36.2626920  64.1773270  51.2880100
  32.7835200  59.6456580  51.9399900  32.1763150  60.3855480  51.9495200
  33.2584550  59.7355940  51.1138100  42.3567990  53.8107400  61.6156790
  42.7248810  52.9902610  61.9436360  41.4966190  53.8709290  62.0312440
  45.7230020  52.7664340  52.4244350  45.0943180  52.8710010  51.7102580
  45.2281940  52.9861120  53.2138230  37.6914050  55.0450290  53.8402230
  36.9830200  55.5136630  54.2815840  37.9758530  54.3872300  54.4747420
  39.3169980  56.4646990  61.8394760  39.8155230  56.9392810  62.5046610
  39.4592930  55.5410510  62.0464790  41.7229480  51.7700950  55.2798020
  41.5997260  51.7887080  54.3307530  42.6714040  51.8179890  55.3996420
  38.8106270  67.0056250  54.5526000  39.0647770  66.9677640  53.6305370
  37.8618750  66.8789580  54.5454250  46.5236840  52.6814950  62.6823150
  46.0210440  53.4220350  63.0216960  47.3393500  53.0698950  62.3659940
  34.7940490  59.6067730  49.6888470  35.5603760  59.4949090  50.2513900
  34.8715180  58.9105700  49.0365240  34.2901960  67.1888190  57.4755900
  35.0264440  66.6403650  57.7464470  34.6742880  68.0544200  57.3361890
  31.1747440  63.2561760  53.3497410  30.2487220  63.4982900  53.3402820
  31.6403870  64.0836020  53.2282160  37.4004270  66.3618500  49.2981470
  38.1932880  66.6507330  48.8463260  36.8808620  65.9310670  48.6193950
  42.1324870  62.4814130  66.6116890  41.5263030  62.5045730  65.8712640
  41.8278980  61.7497170  67.1484140  31.0158050  58.8607720  65.6077530
  31.5197070  58.2815000  66.1793760  30.2765470  59.1447950  66.1453900
  38.0695990  60.2678710  65.1413050  37.3041660  60.8363710  65.0567720
  38.2511950  59.9754920  64.2481280  33.0481130  57.0037310  66.5027600
  33.0886470  56.7051180  67.4112830  33.9026630  57.4044920  66.3435120
  36.8259520  59.6032860  51.6631110  37.2475940  59.4372730  52.5062500
  36.9510360  58.7933090  51.1686250  34.9886940  55.5829410  64.4702090
  34.4583400  55.0920360  63.8425430  35.6575010  56.0113610  63.9360020
  39.3387160  58.6270470  48.9108210  39.8592820  57.9119490  48.5449360
  39.9855560  59.2656340  49.2108720  44.3587170  57.3895030  66.2382430
  44.9407940  56.6347350  66.1502910  44.5348940  57.9202470  65.4613910
  35.4759240  52.5491780  64.5499380  35.3816110  51.9312530  63.8250250
  34.8956630  53.2758070  64.3229290  38.2420680  51.1065020  61.5826770
  37.7937980  51.1289280  60.7372320  37.6085880  50.7084040  62.1797070
  38.6480230  60.0019350  62.2039210  39.0668340  60.8452080  62.0315450
  37.7288860  60.1391390  61.9745990  35.7218420  55.6766090  48.6089270
  35.5207480  54.8133450  48.9702610  35.5510470  55.5899450  47.6710870
  36.4987650  66.3072360  63.3196940  35.9608740  67.0318420  63.0005640
  36.7521610  65.8302700  62.5294280  37.7512900  54.2756880  64.8452870
  38.3412590  53.9672730  65.5330690  36.9333140  53.8036630  65.0012770
  42.5706330  53.8922690  65.0785890  41.8821850  53.2304230  65.0135880
  43.2912350  53.4460960  65.5234350  39.3549860  67.5423570  63.5783590
  39.2808560  68.4458710  63.8855960  38.4528700  67.2235470  63.5505660
  37.7386150  51.7201330  49.5823350  37.3908150  51.0425320  49.0025800
  37.9398920  51.2590840  50.3966740  33.5431350  62.0809130  49.4296950
  33.9806220  62.6238800  50.0854530  34.0279080  61.2556080  49.4393290
  30.7577150  64.8698160  56.8817210  31.0880160  64.0019220  56.6495850
  31.1868150  65.0756680  57.7122170  35.3539070  63.2007170  54.5419180
  35.0534610  63.0772140  55.4423090  35.2476560  62.3415760  54.1334910
  31.2467360  65.7368750  59.6198840  30.8098350  65.9169550  60.4522990
  31.8145040  66.4943370  59.4780560  47.5787450  59.7251050  51.7480060
  48.3406360  60.2947700  51.8539750  47.5941820  59.1578250  52.5188370
  31.0791790  58.2488980  55.9787720  30.4240630  57.9800620  55.3347420
  31.9169740  58.1393460  55.5289700  32.1167720  58.6341550  60.5191060
  32.4840760  58.5468950  61.3987080  31.5478540  57.8708100  60.4197920
  46.9171580  57.1025930  63.5321530  46.6857670  56.8738680  62.6319480
  47.1776130  58.0225480  63.4866420  31.6683720  55.5450640  64.4249480
  30.7739770  55.5117400  64.7643190  32.2081270  55.7437430  65.1900730
  45.3559650  52.3282360  66.3101230  46.2329830  52.3365760  66.6935230
  45.3680490  51.5913200  65.6993580  47.7210050  54.0746200  55.6719340
  47.6109330  53.9202240  56.6101610  48.4817640  53.5467140  55.4294750
  46.0675770  50.0140330  62.1302340  46.7047990  50.6274470  62.4961530
  46.2150660  50.0500990  61.1851570  48.6100320  51.9054120  48.9125480
  49.5349630  51.7735300  48.7043770  48.5876110  51.9846940  49.8661930
  48.6838810  52.6764780  51.5382190  47.8890310  52.6109900  52.0675100
  48.8882090  53.6115420  51.5267540  45.6257230  66.7156330  55.5320580
  46.2216300  66.3940900  54.8555000  45.8835380  66.2428150  56.3233850
  33.5319800  63.1474240  65.6811210  33.4889430  62.7767150  66.5625670
  33.6630810  64.0851810  65.8213030  37.2325830  64.7033830  61.2820930
  36.9917190  64.9708390  60.3951450  38.1728470  64.8739560  61.3371790
  39.4380250  51.1666520  65.0377440  39.3769140  51.7588350  65.7872850
  40.3780630  51.0592480  64.8927700  42.0754810  50.8236580  64.6769730
  42.6895220  51.1415870  64.0150810  42.6204370  50.3385170  65.2965590
  32.5976070  49.5030840  64.7908790  33.1459060  49.3218890  64.0274900
  32.6631380  48.7124950  65.3265100  33.3707830  66.0936490  62.8008990
  32.7768150  65.9621190  63.5399030  33.3631670  65.2574630  62.3351090
  42.8162850  49.3868720  61.0039020  41.9422690  49.7203830  60.8011950
  42.7073600  48.9141900  61.8290890  43.7234830  51.5939590  62.3880740
  43.3948190  50.7791350  62.0082470  44.6717130  51.5509400  62.2646430
  46.1769440  67.3651630  59.3618310  45.7172410  68.1167440  58.9876330
  45.5481900  66.6458100  59.3033110  33.0020060  63.4594870  61.7517030
  32.2754120  62.8400160  61.6842980  33.0629210  63.8535480  60.8815110
  36.6065160  65.6739870  58.5366440  37.1230180  65.0627230  58.0114700
  37.2562540  66.1768650  59.0277450  39.3460660  66.5648360  59.3635420
  39.6338470  66.3102660  58.4868430  39.8583880  66.0125720  59.9540990
  40.5637670  50.3038560  59.9431930  39.7809460  50.7784060  60.2228690
  40.2700600  49.3993390  59.8345110  45.1158740  51.0061660  57.9881020
  45.5566830  50.9506760  57.1402620  44.8466330  51.9219670  58.0591200
  46.9797310  50.6376900  55.9989840  46.9185710  49.6938120  55.8520860
  47.7589340  50.7456990  56.5443300  31.2850060  66.7769260  54.9613790
  31.1172100  66.1439940  55.6595680  30.4184570  66.9828660  54.6107980
  38.4491890  52.7225310  55.4547960  37.6366400  52.3482200  55.1143840
  38.9533530  51.9670390  55.7569150  42.9516870  49.3867760  56.6931030
  43.5546240  49.9587970  57.1679550  42.2109860  49.9507200  56.4704930
  32.8912760  65.4702490  52.4063930  32.3660380  65.8510520  51.7025890
  32.8157340  66.0953260  53.1273640  36.4741070  50.8725230  54.0593010
  35.8443810  50.1712540  54.2263140  35.9346210  51.6329360  53.8426170
  36.5996630  50.1509210  66.4945500  36.3180900  50.6542810  65.7306320
  36.9816330  49.3530960  66.1287630  35.4905730  67.4184870  51.2813180
  36.2224550  67.1344150  50.7337070  35.7499400  67.1798150  52.1712560
  34.6520520  63.5349600  51.2859510  34.0229400  64.0034700  51.8345340
  34.7668350  62.6898820  51.7205700  43.2012090  49.5662790  67.0725970
  43.0877540  49.8857400  67.9677490  44.0181830  49.9675300  66.7763250
  42.1070240  57.5855260  37.4360710  42.0264290  56.6709870  37.1652420
  41.6934660  58.0822330  36.7300420  40.2388280  59.3634280  39.3169980
  39.4630380  58.8834720  39.6068550  40.8901210  58.6839930  39.1426140
  34.2554110  59.6754090  40.1945740  33.4238990  59.4202800  40.5942250
  34.8635090  59.7464860  40.9303660  44.2595710  63.7694470  38.0969110
  43.7977240  62.9981710  38.4256280  45.0721260  63.7960540  38.6021560
  32.6646060  54.6355980  33.9788130  31.7762760  54.9771950  33.8768010
  32.9487250  54.4356300  33.0868960  30.6279070  57.2361630  39.8627830
  31.1995180  56.4683830  39.8631470  30.6280610  57.5350390  38.9534440
  39.6797270  62.0391470  39.3240140  39.6105550  61.0981410  39.1629270
  40.4417130  62.1292880  39.8962710  31.8703940  52.6445990  41.6496760
  31.6906780  51.7471740  41.9299520  31.4684020  53.1917860  42.3243710
  40.7102440  54.8461850  39.5509070  41.0867260  53.9733730  39.4382740
  40.6121950  55.1820550  38.6599510  34.8407450  53.2187480  35.0126510
  34.9474200  54.1191210  35.3195270  33.9299810  53.1705450  34.7221160
  32.4890610  55.1406490  40.2579100  33.1700720  55.4044860  40.8766500
  32.1738660  54.3007360  40.5917110  36.6815180  56.1873850  39.3451690
  37.1893400  56.6854820  39.9856710  37.2128420  55.4109050  39.1691050
  48.7826110  54.3579040  43.0481040  48.0778280  54.7460750  42.5296150
  49.0484030  55.0529330  43.6501970  34.9651280  50.8272410  43.6115110
  34.9669720  51.3444800  42.8061010  34.1355590  50.3502590  43.5885040
  41.3522370  60.9391720  35.1105010  40.7339640  61.4041170  34.5467730
  41.8645620  61.6319200  35.5274520  34.6466610  52.5382370  41.6185560
  34.9883420  53.3824420  41.3239430  33.7082420  52.6866110  41.7350900
  38.3294500  50.0264640  37.9430150  38.6369480  49.4711530  37.2265650
  37.3995200  50.1609100  37.7603140  43.2795000  60.6461770  41.5620220
  43.6963790  60.4321880  40.7273680  44.0034820  60.9034560  42.1328840
  40.7175260  58.0913470  34.6790270  39.7904540  58.0250850  34.9078740
  40.8700080  59.0293600  34.5645510  47.2257100  59.0448990  41.6536460
  46.3975730  59.1142080  41.1786590  47.8207580  59.6303300  41.1852290
  36.3231900  58.6178210  37.4610000  35.9188900  57.9055460  36.9655900
  36.4095020  58.2731450  38.3498040  35.0360520  55.3921420  41.2409040
  35.5875110  55.5016760  40.4662290  35.5504030  55.7659020  41.9564270
  42.9237250  58.8920580  32.1898270  43.3630530  58.0543010  32.0436090
  43.6365670  59.5249980  32.2762410  34.7103250  58.9140780  44.8514380
  34.5711020  59.7863580  45.2201780  33.8284610  58.5713590  44.7062320
  41.0332630  63.8316650  36.1579510  41.4728540  64.5740980  35.7434900
  40.9719520  64.0743220  37.0818470  46.5054390  50.1463390  30.5039310
  46.1927050  50.2390220  31.4038380  47.2666860  50.7244420  30.4536740
  30.6621900  60.6838330  40.7685290  30.7402320  60.8187100  39.8241010
  31.2763580  59.9754220  40.9613410  43.7002810  66.8185770  33.5142520
  43.5403950  66.5288710  34.4124350  43.5349520  66.0425900  32.9787750
  36.1791190  66.5984300  35.2914140  36.0033670  65.6819840  35.0781940
  35.3246930  66.9571590  35.5311940  43.4028940  64.3273330  32.0740520
  42.7094100  64.3250620  31.4142800  44.1451800  63.9032650  31.6434690
  42.9678870  65.9536040  36.1489010  43.4235820  65.1725420  36.4627630
  43.3071390  66.6642860  36.6930190  30.7181420  61.7252500  43.3079750
  30.8812460  61.2557860  42.4899120  31.1833870  61.2176060  43.9728590
  35.4900190  50.8558260  38.3440320  35.0468340  51.6367800  38.0124840
  36.0485180  51.1788150  39.0511260  39.7770000  53.7226780  43.9475640
  39.3149370  53.9309800  44.7595580  39.3748110  52.9086130  43.6446310
  38.6059010  50.4768960  33.2246150  37.9813190  50.4728830  33.9499460
  38.5189130  49.6099920  32.8282120  37.5276090  51.4005590  40.2029920
  37.8248420  52.3068420  40.1221940  38.0761650  50.9124370  39.5889490
  35.2814410  55.9791830  36.0721570  35.0555330  55.7629000  36.9768190
  34.5006940  56.4120290  35.7267540  37.7213620  56.8777410  46.7381840
  37.6257220  55.9372140  46.5882240  38.5645600  57.0992480  46.3429910
  41.1177040  54.6218740  36.7015500  41.5106610  54.9390940  35.8884190
  41.4793890  53.7430620  36.8160020  32.8524160  53.2891080  44.8915620
  32.4587550  54.1366290  45.0988400  32.1642560  52.6517450  45.0824260
  39.4269210  53.3726050  47.9612360  38.7367530  53.1798250  48.5958450
  40.1701510  53.6560690  48.4936660  30.1541210  51.2119540  38.9245700
  29.8654260  51.7822400  39.6370680  30.8986970  50.7323990  39.2876930
  30.3411440  55.1539660  30.1348420  30.2586110  56.0970420  30.2763410
  29.9894500  55.0114570  29.2560770  41.7032180  57.2124490  40.7966280
  40.9713300  57.7211300  41.1456380  41.3056520  56.3954470  40.4955060
  38.1409570  53.8878690  39.2018770  38.1445630  53.4468640  38.3523310
  39.0360690  54.2096020  39.3090590  33.9911950  53.7705180  38.1612980
  33.6512000  54.2480410  38.9180030  33.2289270  53.3170300  37.8014080
  38.2029720  54.8890770  32.1925530  38.3242540  54.8477250  33.1411350
  37.8178230  55.7514920  32.0372260  42.1658090  52.6658170  40.2089220
  42.1830830  53.1166820  41.0531070  41.9173670  51.7663810  40.4222660
  37.2151220  57.1991910  31.5908830  36.6468120  56.7510160  30.9644740
  37.9240220  57.5584690  31.0573980  32.2920400  61.1003930  45.4675560
  31.9075190  60.4597600  46.0658520  32.6032590  61.8040050  46.0370290
  38.4417540  57.9480470  40.9484180  38.8087670  57.4739040  41.6945520
  38.2522600  58.8222040  41.2892520  31.3058030  52.6924160  37.0777650
  31.0204950  52.3279830  37.9156270  31.2436890  51.9604620  36.4640790
  36.2316910  56.9889110  43.2668390  35.9273980  57.8681090  43.4918750
  37.1863370  57.0488900  43.3025830  45.5186680  60.1915460  39.6561630
  46.2385800  60.6870750  39.2657740  45.3168500  59.5133350  39.0115500
  32.2880640  57.8291850  44.4139750  31.9295580  58.4945700  45.0013090
  31.9935200  56.9975400  44.7852370  35.4893760  58.2876090  47.2979300
  35.1893900  58.4333270  46.4007120  36.2605000  57.7281380  47.2052690
  42.5733010  61.4512600  38.1386860  42.9256830  60.8540730  37.4788230
  41.6895340  61.1256830  38.3095110  30.7988690  57.8283110  31.0374350
  31.6683540  58.1107910  31.3210270  30.3079010  58.6418980  30.9223160
  33.8635280  49.5593970  35.6305150  33.7349910  49.5511870  36.5790070
  33.0397300  49.8977060  35.2796160  31.1659940  67.0410490  31.6035980
  31.5257580  67.6399830  30.9493250  31.0252280  67.5870380  32.3771010
  30.8629210  51.3185090  45.0911850  30.1487730  51.5182010  45.6964460
  31.2824250  50.5424660  45.4626650  31.1501800  65.3065350  46.0778380
  31.2592920  64.3660090  45.9373770  30.4982360  65.5720100  45.4292110
  40.1688160  64.4869930  31.0834840  40.2700140  64.2833920  30.1536820
  39.2689900  64.2328210  31.2882620  37.6914050  55.0450290  35.0658740
  36.9830200  55.5136630  35.5072350  37.9758530  54.3872300  35.7003930
  39.3169980  56.4646990  43.0651270  39.8155230  56.9392810  43.7303120
  39.4592930  55.5410510  43.2721300  41.7229480  51.7700950  36.5054530
  41.5997260  51.7887080  35.5564040  42.6714040  51.8179890  36.6252930
  35.8949070  53.3535370  32.4409450  36.7439600  53.7905520  32.3749640
  35.5280340  53.6655630  33.2681510  44.8158850  57.9248130  37.3541020
  43.8748990  57.9398360  37.5288710  45.1302920  57.1384090  37.8001320
  33.4887250  57.0392800  31.5977870  33.5690840  56.0920310  31.7095270
  34.3807000  57.3699680  31.7038530  31.1747440  63.2561760  34.5753920
  30.2487220  63.4982900  34.5659330  31.6403870  64.0836020  34.4538670
  33.2960240  66.3734260  47.8897990  34.0972970  66.6946310  48.3033390
  32.7812060  66.0129840  48.6117900  37.4004270  66.3618500  30.5237980
  38.1932880  66.6507330  30.0719770  36.8808620  65.9310670  29.8450460
  46.4534440  65.5888630  31.9474720  46.1675950  65.1753770  31.1328900
  46.2553990  66.5176340  31.8275240  41.1584400  60.6441940  30.9922320
  40.6094500  61.0911240  31.6365060  41.7803660  60.1391190  31.5159990
  33.0481130  57.0037310  47.7284110  33.0886470  56.7051180  48.6369340
  33.9026630  57.4044920  47.5691630  34.9886940  55.5829410  45.6958600
  34.4583400  55.0920360  45.0681940  35.6575010  56.0113610  45.1616530
  39.3387160  58.6270470  30.1364720  39.8592820  57.9119490  29.7705870
  39.9855560  59.2656340  30.4365230  43.8865000  60.0498870  45.4599790
  44.3006020  60.2043950  46.3090210  42.9516000  60.1754090  45.6225570
  35.4759240  52.5491780  45.7755890  35.3816110  51.9312530  45.0506760
  34.8956630  53.2758070  45.5485800  38.2420680  51.1065020  42.8083280
  37.7937980  51.1289280  41.9628830  37.6085880  50.7084040  43.4053580
  40.9844130  57.7335530  44.8133560  41.1040340  57.1376670  45.5528400
  41.8438130  57.7705220  44.3934860  43.3232030  58.2872720  43.3896070
  42.7967250  58.8115340  42.7861210  43.6663370  58.9200110  44.0205800
  35.7218420  55.6766090  29.8345780  35.5207480  54.8133450  30.1959120
  35.5510470  55.5899450  28.8967380  37.7512900  54.2756880  46.0709380
  38.3412590  53.9672730  46.7587200  36.9333140  53.8036630  46.2269280
  34.5201220  52.7766710  29.8223660  34.8227120  52.7834140  28.9142810
  35.2595810  52.4264570  30.3191320  37.7386150  51.7201330  30.8079860
  37.3908150  51.0425320  30.2282310  37.9398920  51.2590840  31.6223250
  39.9035190  66.7082080  32.4266460  40.7985980  67.0467050  32.4485220
  39.9352820  65.9861490  31.7990740  30.7577150  64.8698160  38.1073720
  31.0880160  64.0019220  37.8752360  31.1868150  65.0756680  38.9378680
  31.2467360  65.7368750  40.8455350  30.8098350  65.9169550  41.6779500
  31.8145040  66.4943370  40.7037070  31.0791790  58.2488980  37.2044230
  30.4240630  57.9800620  36.5603930  31.9169740  58.1393460  36.7546210
  32.1167720  58.6341550  41.7447570  32.4840760  58.5468950  42.6243590
  31.5478540  57.8708100  41.6454430  31.6683720  55.5450640  45.6505990
  30.7739770  55.5117400  45.9899700  32.2081270  55.7437430  46.4157240
  30.2929870  55.4587910  33.1469560  29.3893950  55.7218110  32.9721220
  30.7770490  55.7299080  32.3669520  46.8022920  56.1811900  38.4245760
  47.3260400  55.6874550  37.7935930  47.3882340  56.3162260  39.1693330
  46.9812640  56.2651770  41.9465310  46.0315350  56.2315310  42.0610300
  47.1625650  57.1751880  41.7115080  32.8357080  54.5153450  31.0563940
  33.5448780  54.0936670  30.5711220  32.1197020  54.5828680  30.4247290
  32.4831240  50.5692780  30.0966590  33.2059370  51.1101720  30.4147810
  32.7555760  50.2956200  29.2208130  32.1723430  49.8198970  39.9989210
  32.8199620  49.2696350  39.5584370  32.5925270  50.0742120  40.8205020
  48.6100320  51.9054120  30.1381990  49.5349630  51.7735300  29.9300280
  48.5876110  51.9846940  31.0918440  48.6838810  52.6764780  32.7638700
  47.8890310  52.6109900  33.2931610  48.8882090  53.6115420  32.7524050
  45.6257230  66.7156330  36.7577090  46.2216300  66.3940900  36.0811510
  45.8835380  66.2428150  37.5490360  31.9255430  49.9754640  42.7414530
  31.5770250  50.4318460  43.5072710  31.5943130  49.0811770  42.8236960
  32.5976070  49.5030840  46.0165300  33.1459060  49.3218890  45.2531410
  32.6631380  48.7124950  46.5521610  40.5637670  50.3038560  41.1688440
  39.7809460  50.7784060  41.4485200  40.2700600  49.3993390  41.0601620
  31.2850060  66.7769260  36.1870300  31.1172100  66.1439940  36.8852190
  30.4184570  66.9828660  35.8364490  31.9078080  50.6086040  33.6902160
  32.6657440  50.7214920  33.1166190  31.4455250  51.4455240  33.6445590
  38.4491890  52.7225310  36.6804470  37.6366400  52.3482200  36.3400350
  38.9533530  51.9670390  36.9825660  42.9516870  49.3867760  37.9187540
  43.5546240  49.9587970  38.3936060  42.2109860  49.9507200  37.6961440
  46.0951470  49.7889320  33.1927820  46.2902100  50.6872770  33.4595250
  45.3081340  49.5576400  33.6860770  32.8912760  65.4702490  33.6320440
  32.3660380  65.8510520  32.9282400  32.8157340  66.0953260  34.3530150
  34.2803230  51.1350090  32.2304130  34.8095990  50.3479890  32.1012080
  34.9131550  51.8141280  32.4639660  36.4741070  50.8725230  35.2849520
  35.8443810  50.1712540  35.4519650  35.9346210  51.6329360  35.0682680
  47.6478080  67.0290030  34.9534380  47.8230270  66.3427770  34.3095300
  46.9499650  67.5537080  34.5611050  36.5996630  50.1509210  47.7202010
  36.3180900  50.6542810  46.9562830  36.9816330  49.3530960  47.3544140
  35.4905730  67.4184870  32.5069690  36.2224550  67.1344150  31.9593580
  35.7499400  67.1798150  33.3969070  42.1070240  57.5855260  18.6617220
  42.0264290  56.6709870  18.3908930  41.6934660  58.0822330  17.9556930
  40.2388280  59.3634280  20.5426490  39.4630380  58.8834720  20.8325060
  40.8901210  58.6839930  20.3682650  34.2554110  59.6754090  21.4202250
  33.4238990  59.4202800  21.8198760  34.8635090  59.7464860  22.1560170
  44.2595710  63.7694470  19.3225620  43.7977240  62.9981710  19.6512790
  45.0721260  63.7960540  19.8278070  34.2355370  63.7094180  21.6160270
  34.5383410  62.8191920  21.4370490  34.9798960  64.2664400  21.3882520
  32.6646060  54.6355980  15.2044640  31.7762760  54.9771950  15.1024520
  32.9487250  54.4356300  14.3125470  30.6279070  57.2361630  21.0884340
  31.1995180  56.4683830  21.0887980  30.6280610  57.5350390  20.1790950
  40.4859020  66.0552480  18.9429610  39.8670460  66.5109980  18.3724050
  41.3410800  66.2103940  18.5419310  39.6797270  62.0391470  20.5496650
  39.6105550  61.0981410  20.3885780  40.4417130  62.1292880  21.1219220
  31.8703940  52.6445990  22.8753270  31.6906780  51.7471740  23.1556030
  31.4684020  53.1917860  23.5500220  40.7102440  54.8461850  20.7765580
  41.0867260  53.9733730  20.6639250  40.6121950  55.1820550  19.8856020
  34.8407450  53.2187480  16.2383020  34.9474200  54.1191210  16.5451780
  33.9299810  53.1705450  15.9477670  44.4926560  52.3412290  17.7093920
  45.3136180  51.8508860  17.7519400  44.5260640  52.9309950  18.4625760
  32.4890610  55.1406490  21.4835610  33.1700720  55.4044860  22.1023010
  32.1738660  54.3007360  21.8173620  36.6815180  56.1873850  20.5708200
  37.1893400  56.6854820  21.2113220  37.2128420  55.4109050  20.3947560
  48.7826110  54.3579040  24.2737550  48.0778280  54.7460750  23.7552660
  49.0484030  55.0529330  24.8758480  34.9651280  50.8272410  24.8371620
  34.9669720  51.3444800  24.0317520  34.1355590  50.3502590  24.8141550
  41.3522370  60.9391720  16.3361520  40.7339640  61.4041170  15.7724240
  41.8645620  61.6319200  16.7531030  36.2154130  60.4667590  23.0145120
  35.8823510  61.0936510  23.6566190  36.3920810  60.9929470  22.2346790
  44.7288040  54.2812670  20.4821460  44.0243610  54.5697560  21.0624570
  45.0900200  55.0912780  20.1221020  34.6466610  52.5382370  22.8442070
  34.9883420  53.3824420  22.5495940  33.7082420  52.6866110  22.9607410
  35.4273230  62.4348390  24.8294300  36.0447230  63.1099470  24.5478750
  34.5666350  62.8436370  24.7381800  30.7205570  61.6248250  13.7101150
  30.3433550  62.1135350  12.9786050  30.9778640  62.2973530  14.3407680
  46.3450820  63.8987800  22.7448940  45.6614340  64.5686910  22.7365610
  46.8845110  64.0968450  21.9793800  47.7974960  53.7267460  20.8730670
  46.8499870  53.7606440  21.0046100  48.1224950  54.5406410  21.2580030
  38.3294500  50.0264640  19.1686660  38.6369480  49.4711530  18.4522160
  37.3995200  50.1609100  18.9859650  43.8809560  65.7431930  21.4594120
  43.8936720  65.3394220  20.5916380  43.3284780  66.5179220  21.3555550
  45.1754980  62.4648150  16.5484290  45.0651310  61.5222480  16.6733710
  45.1723230  62.8263790  17.4347050  43.2795000  60.6461770  22.7876730
  43.6963790  60.4321880  21.9530190  44.0034820  60.9034560  23.3585350
  40.7175260  58.0913470  15.9046780  39.7904540  58.0250850  16.1335250
  40.8700080  59.0293600  15.7902020  40.7044340  54.3630470  12.9013940
  39.7648010  54.5244430  12.9866400  41.0227600  55.0816150  12.3549930
  47.2257100  59.0448990  22.8792970  46.3975730  59.1142080  22.4043100
  47.8207580  59.6303300  22.4108800  44.7472550  59.6533770  16.4082030
  44.1284970  59.3153320  15.7608330  44.7297000  59.0093530  17.1161220
  44.1899110  55.8318310  23.8247840  43.7770290  56.6572020  24.0787830
  43.4575060  55.2463350  23.6324200  36.3231900  58.6178210  18.6866510
  35.9188900  57.9055460  18.1912410  36.4095020  58.2731450  19.5754550
  36.7913600  62.3045770  20.8505720  36.4941890  61.6991240  20.1713500
  37.7413420  62.3423080  20.7395080  35.0360520  55.3921420  22.4665550
  35.5875110  55.5016760  21.6918800  35.5504030  55.7659020  23.1820780
  35.8832030  62.0427460  27.5013520  34.9860560  62.2667430  27.7486920
  35.9084900  62.1662400  26.5524920  42.9237250  58.8920580  13.4154780
  43.3630530  58.0543010  13.2692600  43.6365670  59.5249980  13.5018920
  34.7103250  58.9140780  26.0770890  34.5711020  59.7863580  26.4458290
  33.8284610  58.5713590  25.9318830  41.0332630  63.8316650  17.3836020
  41.4728540  64.5740980  16.9691410  40.9719520  64.0743220  18.3074980
  36.5083600  64.8562480  28.2856040  36.4799030  65.2605430  27.4184470
  36.3448570  63.9272840  28.1227640  46.5054390  50.1463390  11.7295820
  46.1927050  50.2390220  12.6294890  47.2666860  50.7244420  11.6793250
  33.0236530  57.5123190  16.1873160  32.9034130  58.2385280  15.5754430
  32.7137420  56.7426100  15.7101070  48.4598420  65.6389580  29.5820210
  48.9358140  66.1172470  30.2609290  49.0805580  65.5707070  28.8565710
  30.6621900  60.6838330  21.9941800  30.7402320  60.8187100  21.0497520
  31.2763580  59.9754220  22.1869920  31.9069530  62.3838520  18.4047980
  31.4997610  62.5253110  17.5501580  32.7982540  62.0998680  18.2019190
  47.8631670  62.8302430  26.7420220  47.9894730  62.5914310  25.8237400
  47.9053050  61.9986970  27.2142300  43.7002810  66.8185770  14.7399030
  43.5403950  66.5288710  15.6380860  43.5349520  66.0425900  14.2044260
  36.1791190  66.5984300  16.5170650  36.0033670  65.6819840  16.3038450
  35.3246930  66.9571590  16.7568450  43.4028940  64.3273330  13.2997030
  42.7094100  64.3250620  12.6399310  44.1451800  63.9032650  12.8691200
  42.9678870  65.9536040  17.3745520  43.4235820  65.1725420  17.6884140
  43.3071390  66.6642860  17.9186700  30.7181420  61.7252500  24.5336260
  30.8812460  61.2557860  23.7155630  31.1833870  61.2176060  25.1985100
  35.4900190  50.8558260  19.5696830  35.0468340  51.6367800  19.2381350
  36.0485180  51.1788150  20.2767770  39.7770000  53.7226780  25.1732150
  39.3149370  53.9309800  25.9852090  39.3748110  52.9086130  24.8702820
  38.6059010  50.4768960  14.4502660  37.9813190  50.4728830  15.1755970
  38.5189130  49.6099920  14.0538630  37.5276090  51.4005590  21.4286430
  37.8248420  52.3068420  21.3478450  38.0761650  50.9124370  20.8146000
  35.2814410  55.9791830  17.2978080  35.0555330  55.7629000  18.2024700
  34.5006940  56.4120290  16.9524050  42.5112170  55.9855200  15.8968730
  41.9121060  56.7091000  15.7132350  43.0591780  55.9231980  15.1145180
  37.7213620  56.8777410  27.9638350  37.6257220  55.9372140  27.8138750
  38.5645600  57.0992480  27.5686420  41.1177040  54.6218740  17.9272010
  41.5106610  54.9390940  17.1140700  41.4793890  53.7430620  18.0416530
  32.8524160  53.2891080  26.1172130  32.4587550  54.1366290  26.3244910
  32.1642560  52.6517450  26.3080770  30.1541210  51.2119540  20.1502210
  29.8654260  51.7822400  20.8627190  30.8986970  50.7323990  20.5133440
  30.3411440  55.1539660  11.3604930  30.2586110  56.0970420  11.5019920
  29.9894500  55.0114570  10.4817280  41.7032180  57.2124490  22.0222790
  40.9713300  57.7211300  22.3712890  41.3056520  56.3954470  21.7211570
  38.1409570  53.8878690  20.4275280  38.1445630  53.4468640  19.5779820
  39.0360690  54.2096020  20.5347100  33.9911950  53.7705180  19.3869490
  33.6512000  54.2480410  20.1436540  33.2289270  53.3170300  19.0270590
  38.2029720  54.8890770  13.4182040  38.3242540  54.8477250  14.3667860
  37.8178230  55.7514920  13.2628770  42.1658090  52.6658170  21.4345730
  42.1830830  53.1166820  22.2787580  41.9173670  51.7663810  21.6479170
  37.2151220  57.1991910  12.8165340  36.6468120  56.7510160  12.1901250
  37.9240220  57.5584690  12.2830490  45.5928840  50.0790350  27.2732110
  45.9174610  49.3480010  27.7990090  45.6285350  49.7603990  26.3713100
  32.2920400  61.1003930  26.6932070  31.9075190  60.4597600  27.2915030
  32.6032590  61.8040050  27.2626800  38.4417540  57.9480470  22.1740690
  38.8087670  57.4739040  22.9202030  38.2522600  58.8222040  22.5149030
  31.3058030  52.6924160  18.3034160  31.0204950  52.3279830  19.1412780
  31.2436890  51.9604620  17.6897300  36.2316910  56.9889110  24.4924900
  35.9273980  57.8681090  24.7175260  37.1863370  57.0488900  24.5282340
  34.7598700  61.1950100  15.0891750  33.9860960  60.6547720  14.9290470
  35.4893330  60.6756710  14.7509510  45.5186680  60.1915460  20.8818140
  46.2385800  60.6870750  20.4914250  45.3168500  59.5133350  20.2372010
  40.9796620  51.5853420  15.0247530  40.1661230  51.0866590  14.9492840
  40.7858570  52.4251670  14.6083880  40.9005480  60.2624520  26.7687140
  40.8342790  59.3420190  26.5144730  40.2710620  60.3599960  27.4831780
  43.6945010  55.9573070  13.3209690  44.5824630  56.2690300  13.1461030
  43.6650100  55.0845320  12.9290270  34.8036100  60.8630480  18.7270560
  35.3214770  60.0598740  18.6727450  34.3520120  60.8009620  19.5687390
  39.6905600  62.1296760  13.9997860  40.0321300  62.8738990  13.5041180
  38.8618310  62.4427880  14.3622690  32.2880640  57.8291850  25.6396260
  31.9295580  58.4945700  26.2269600  31.9935200  56.9975400  26.0108880
  35.4893760  58.2876090  28.5235810  35.1893900  58.4333270  27.6263630
  36.2605000  57.7281380  28.4309200  40.8322210  63.0845090  26.5190940
  40.8466750  62.1526050  26.3009850  40.1247310  63.1704850  27.1580710
  45.9659280  57.2684910  12.7889550  45.8823000  57.6999130  11.9385990
  46.6853470  57.7283260  13.2216370  47.0433420  59.7252430  25.8659520
  46.3181610  60.3181210  25.6688910  47.5708880  59.7175970  25.0672890
  46.9946530  64.1227170  15.5171680  46.3522690  63.4682790  15.7915400
  46.6077190  64.5282260  14.7412350  42.5733010  61.4512600  19.3643370
  42.9256830  60.8540730  18.7044740  41.6895340  61.1256830  19.5351620
  38.6596290  62.2110290  16.7713780  39.3467420  62.7579500  17.1521370
  37.8728710  62.7551020  16.8063390  30.7988690  57.8283110  12.2630860
  31.6683540  58.1107910  12.5466780  30.3079010  58.6418980  12.1479670
  37.9623500  59.2156320  16.3839140  38.4186280  60.0261570  16.6099330
  37.6111710  58.8979460  17.2157630  40.2656110  64.7262660  23.6131440
  40.9098330  64.9322040  24.2904860  40.6285550  63.9651060  23.1602290
  33.8635280  49.5593970  16.8561660  33.7349910  49.5511870  17.8046580
  33.0397300  49.8977060  16.5052670  41.5388190  62.7295010  22.3308890
  42.1810420  62.0288170  22.4441060  42.0637540  63.5093450  22.1505780
  45.3843910  63.0143630  12.0548030  45.1581490  62.2974070  12.6472670
  44.9940110  62.7656070  11.2169780  31.1659940  67.0410490  12.8292490
  31.5257580  67.6399830  12.1749760  31.0252280  67.5870380  13.6027520
  30.8629210  51.3185090  26.3168360  30.1487730  51.5182010  26.9220970
  31.2824250  50.5424660  26.6883160  44.9660160  60.9315570  13.7162190
  44.6781860  61.3928260  14.5040070  45.7612330  60.4713340  13.9846410
  31.1501800  65.3065350  27.3034890  31.2592920  64.3660090  27.1630280
  30.4982360  65.5720100  26.6548620  39.1414390  63.5781240  28.7033010
  38.8211260  62.8590480  29.2478700  38.4672750  64.2536310  28.7769070
  37.1828560  64.4241690  13.6466160  37.1738660  65.1571380  13.0310670
  36.2626920  64.1773270  13.7393120  32.7835200  59.6456580  14.3912920
  32.1763150  60.3855480  14.4008220  33.2584550  59.7355940  13.5651120
  42.3567990  53.8107400  24.0669810  42.7248810  52.9902610  24.3949380
  41.4966190  53.8709290  24.4825460  45.7230020  52.7664340  14.8757370
  45.0943180  52.8710010  14.1615600  45.2281940  52.9861120  15.6651250
  40.1688160  64.4869930  12.3091350  40.2700140  64.2833920  11.3793330
  39.2689900  64.2328210  12.5139130  37.6914050  55.0450290  16.2915250
  36.9830200  55.5136630  16.7328860  37.9758530  54.3872300  16.9260440
  39.3169980  56.4646990  24.2907780  39.8155230  56.9392810  24.9559630
  39.4592930  55.5410510  24.4977810  41.7229480  51.7700950  17.7311040
  41.5997260  51.7887080  16.7820550  42.6714040  51.8179890  17.8509440
  38.8106270  67.0056250  17.0039020  39.0647770  66.9677640  16.0818390
  37.8618750  66.8789580  16.9967270  35.8949070  53.3535370  13.6665960
  36.7439600  53.7905520  13.6006150  35.5280340  53.6655630  14.4938020
  46.5236840  52.6814950  25.1336170  46.0210440  53.4220350  25.4729980
  47.3393500  53.0698950  24.8172960  44.8158850  57.9248130  18.5797530
  43.8748990  57.9398360  18.7545220  45.1302920  57.1384090  19.0257830
  34.7940490  59.6067730  12.1401490  35.5603760  59.4949090  12.7026920
  34.8715180  58.9105700  11.4878260  33.4887250  57.0392800  12.8234380
  33.5690840  56.0920310  12.9351780  34.3807000  57.3699680  12.9295040
  46.8184430  65.0956980  20.2551790  46.9431850  65.9188150  20.7275600
  47.6849990  64.8847710  19.9075940  34.2901960  67.1888190  19.9268920
  35.0264440  66.6403650  20.1977490  34.6742880  68.0544200  19.7874910
  31.1747440  63.2561760  15.8010430  30.2487220  63.4982900  15.7915840
  31.6403870  64.0836020  15.6795180  33.2960240  66.3734260  29.1154500
  34.0972970  66.6946310  29.5289900  32.7812060  66.0129840  29.8374410
  37.4004270  66.3618500  11.7494490  38.1932880  66.6507330  11.2976280
  36.8808620  65.9310670  11.0706970  42.1324870  62.4814130  29.0629910
  41.5263030  62.5045730  28.3225660  41.8278980  61.7497170  29.5997160
  46.4534440  65.5888630  13.1731230  46.1675950  65.1753770  12.3585410
  46.2553990  66.5176340  13.0531750  31.0158050  58.8607720  28.0590550
  31.5197070  58.2815000  28.6306780  30.2765470  59.1447950  28.5966920
  37.9181670  61.5821910  11.6136840  37.8132310  60.9674260  12.3398220
  37.7505890  61.0587800  10.8299850  38.0695990  60.2678710  27.5926070
  37.3041660  60.8363710  27.5080740  38.2511950  59.9754920  26.6994300
  41.1584400  60.6441940  12.2178830  40.6094500  61.0911240  12.8621570
  41.7803660  60.1391190  12.7416500  45.2119340  61.9984040  28.1501090
  45.9528810  62.3359800  27.6468550  44.4492020  62.1676100  27.5970860
  33.0481130  57.0037310  28.9540620  33.0886470  56.7051180  29.8625850
  33.9026630  57.4044920  28.7948140  36.8259520  59.6032860  14.1144130
  37.2475940  59.4372730  14.9575520  36.9510360  58.7933090  13.6199270
  34.9886940  55.5829410  26.9215110  34.4583400  55.0920360  26.2938450
  35.6575010  56.0113610  26.3873040  39.3387160  58.6270470  11.3621230
  39.8592820  57.9119490  10.9962380  39.9855560  59.2656340  11.6621740
  43.8865000  60.0498870  26.6856300  44.3006020  60.2043950  27.5346720
  42.9516000  60.1754090  26.8482080  35.4759240  52.5491780  27.0012400
  35.3816110  51.9312530  26.2763270  34.8956630  53.2758070  26.7742310
  38.2420680  51.1065020  24.0339790  37.7937980  51.1289280  23.1885340
  37.6085880  50.7084040  24.6310090  38.6480230  60.0019350  24.6552230
  39.0668340  60.8452080  24.4828470  37.7288860  60.1391390  24.4259010
  40.9844130  57.7335530  26.0390070  41.1040340  57.1376670  26.7784910
  41.8438130  57.7705220  25.6191370  43.3232030  58.2872720  24.6152580
  42.7967250  58.8115340  24.0117720  43.6663370  58.9200110  25.2462310
  35.7218420  55.6766090  11.0602290  35.5207480  54.8133450  11.4215630
  35.5510470  55.5899450  10.1223890  36.4987650  66.3072360  25.7709960
  35.9608740  67.0318420  25.4518660  36.7521610  65.8302700  24.9807300
  37.7512900  54.2756880  27.2965890  38.3412590  53.9672730  27.9843710
  36.9333140  53.8036630  27.4525790  43.2006730  50.4874320  13.5889170
  43.4809020  49.6442220  13.9448590  42.4272460  50.7197430  14.1027920
  34.5201220  52.7766710  11.0480170  34.8227120  52.7834140  10.1399320
  35.2595810  52.4264570  11.5447830  39.3549860  67.5423570  26.0296610
  39.2808560  68.4458710  26.3368980  38.4528700  67.2235470  26.0018680
  37.7386150  51.7201330  12.0336370  37.3908150  51.0425320  11.4538820
  37.9398920  51.2590840  12.8479760  39.9035190  66.7082080  13.6522970
  40.7985980  67.0467050  13.6741730  39.9352820  65.9861490  13.0247250
  33.5431350  62.0809130  11.8809970  33.9806220  62.6238800  12.5367550
  34.0279080  61.2556080  11.8906310  30.7577150  64.8698160  19.3330230
  31.0880160  64.0019220  19.1008870  31.1868150  65.0756680  20.1635190
  35.3539070  63.2007170  16.9932200  35.0534610  63.0772140  17.8936110
  35.2476560  62.3415760  16.5847930  31.2467360  65.7368750  22.0711860
  30.8098350  65.9169550  22.9036010  31.8145040  66.4943370  21.9293580
  48.1230990  62.9803570  11.6958880  47.2923950  63.0480220  12.1666110
  48.3002820  63.8707690  11.3925740  47.5787450  59.7251050  14.1993080
  48.3406360  60.2947700  14.3052770  47.5941820  59.1578250  14.9701390
  31.0791790  58.2488980  18.4300740  30.4240630  57.9800620  17.7860440
  31.9169740  58.1393460  17.9802720  48.5847420  60.5801150  19.0435010
  48.9556250  59.7968470  18.6370980  49.2249350  61.2690250  18.8652310
  45.5681180  61.9637730  24.4565330  44.7541020  62.3934890  24.7191120
  45.9755380  62.5756140  23.8434380  47.6306620  60.0185420  11.3565600
  47.9055460  60.9264300  11.2284820  47.4417360  59.9547950  12.2927590
  44.0282230  53.0430270  12.6519230  44.4467110  52.8561250  11.8115890
  43.7218290  52.1909320  12.9622160  47.5271960  57.9554410  16.3495030
  47.1515560  57.1882340  15.9176320  46.7975080  58.3377110  16.8369960
  32.1167720  58.6341550  22.9704080  32.4840760  58.5468950  23.8500100
  31.5478540  57.8708100  22.8710940  46.9171580  57.1025930  25.9834550
  46.6857670  56.8738680  25.0832500  47.1776130  58.0225480  25.9379440
  31.6683720  55.5450640  26.8762500  30.7739770  55.5117400  27.2156210
  32.2081270  55.7437430  27.6413750  30.2929870  55.4587910  14.3726070
  29.3893950  55.7218110  14.1977730  30.7770490  55.7299080  13.5926030
  46.8022920  56.1811900  19.6502270  47.3260400  55.6874550  19.0192440
  47.3882340  56.3162260  20.3949840  46.9812640  56.2651770  23.1721820
  46.0315350  56.2315310  23.2866810  47.1625650  57.1751880  22.9371590
  32.8357080  54.5153450  12.2820450  33.5448780  54.0936670  11.7967730
  32.1197020  54.5828680  11.6503800  32.4831240  50.5692780  11.3223100
  33.2059370  51.1101720  11.6404320  32.7555760  50.2956200  10.4464640
  46.2922890  55.4385250  15.5894680  46.7882010  55.2056120  16.3743560
  46.0938960  54.5997090  15.1732320  32.1723430  49.8198970  21.2245720
  32.8199620  49.2696350  20.7840880  32.5925270  50.0742120  22.0461530
  47.7210050  54.0746200  18.1232360  47.6109330  53.9202240  19.0614630
  48.4817640  53.5467140  17.8807770  46.0675770  50.0140330  24.5815360
  46.7047990  50.6274470  24.9474550  46.2150660  50.0500990  23.6364590
  48.6100320  51.9054120  11.3638500  49.5349630  51.7735300  11.1556790
  48.5876110  51.9846940  12.3174950  48.6838810  52.6764780  13.9895210
  47.8890310  52.6109900  14.5188120  48.8882090  53.6115420  13.9780560
  45.6257230  66.7156330  17.9833600  46.2216300  66.3940900  17.3068020
  45.8835380  66.2428150  18.7746870  31.9255430  49.9754640  23.9671040
  31.5770250  50.4318460  24.7329220  31.5943130  49.0811770  24.0493470
  33.5319800  63.1474240  28.1324230  33.4889430  62.7767150  29.0138690
  33.6630810  64.0851810  28.2726050  37.2325830  64.7033830  23.7333950
  36.9917190  64.9708390  22.8464470  38.1728470  64.8739560  23.7884810
  39.4380250  51.1666520  27.4890460  39.3769140  51.7588350  28.2385870
  40.3780630  51.0592480  27.3440720  42.0754810  50.8236580  27.1282750
  42.6895220  51.1415870  26.4663830  42.6204370  50.3385170  27.7478610
  48.4929990  66.7228210  24.5344590  47.9988270  67.1197080  23.8171720
  47.8843280  66.0977420  24.9281870  32.5976070  49.5030840  27.2421810
  33.1459060  49.3218890  26.4787920  32.6631380  48.7124950  27.7778120
  33.3707830  66.0936490  25.2522010  32.7768150  65.9621190  25.9912050
  33.3631670  65.2574630  24.7864110  42.8162850  49.3868720  23.4552040
  41.9422690  49.7203830  23.2524970  42.7073600  48.9141900  24.2803910
  43.7234830  51.5939590  24.8393760  43.3948190  50.7791350  24.4595490
  44.6717130  51.5509400  24.7159450  46.1769440  67.3651630  21.8131330
  45.7172410  68.1167440  21.4389350  45.5481900  66.6458100  21.7546130
  33.0020060  63.4594870  24.2030050  32.2754120  62.8400160  24.1356000
  33.0629210  63.8535480  23.3328130  36.6065160  65.6739870  20.9879460
  37.1230180  65.0627230  20.4627720  37.2562540  66.1768650  21.4790470
  39.3460660  66.5648360  21.8148440  39.6338470  66.3102660  20.9381450
  39.8583880  66.0125720  22.4054010  40.5637670  50.3038560  22.3944950
  39.7809460  50.7784060  22.6741710  40.2700600  49.3993390  22.2858130
  45.1158740  51.0061660  20.4394040  45.5566830  50.9506760  19.5915640
  44.8466330  51.9219670  20.5104220  46.9797310  50.6376900  18.4502860
  46.9185710  49.6938120  18.3033880  47.7589340  50.7456990  18.9956320
  31.2850060  66.7769260  17.4126810  31.1172100  66.1439940  18.1108700
  30.4184570  66.9828660  17.0621000  31.9078080  50.6086040  14.9158670
  32.6657440  50.7214920  14.3422700  31.4455250  51.4455240  14.8702100
  38.4491890  52.7225310  17.9060980  37.6366400  52.3482200  17.5656860
  38.9533530  51.9670390  18.2082170  42.9516870  49.3867760  19.1444050
  43.5546240  49.9587970  19.6192570  42.2109860  49.9507200  18.9217950
  46.0951470  49.7889320  14.4184330  46.2902100  50.6872770  14.6851760
  45.3081340  49.5576400  14.9117280  32.8912760  65.4702490  14.8576950
  32.3660380  65.8510520  14.1538910  32.8157340  66.0953260  15.5786660
  34.2803230  51.1350090  13.4560640  34.8095990  50.3479890  13.3268590
  34.9131550  51.8141280  13.6896170  36.4741070  50.8725230  16.5106030
  35.8443810  50.1712540  16.6776160  35.9346210  51.6329360  16.2939190
  39.4133020  67.4864460  29.1816640  40.3400330  67.2508730  29.2252600
  39.3983450  68.3136460  28.7002670  47.6478080  67.0290030  16.1790890
  47.8230270  66.3427770  15.5351810  46.9499650  67.5537080  15.7867560
  36.5996630  50.1509210  28.9458520  36.3180900  50.6542810  28.1819340
  36.9816330  49.3530960  28.5800650  35.4905730  67.4184870  13.7326200
  36.2224550  67.1344150  13.1850090  35.7499400  67.1798150  14.6225580
  34.6520520  63.5349600  13.7372530  34.0229400  64.0034700  14.2858360
  34.7668350  62.6898820  14.1718720  40.2388280  59.3634280   1.7683000
  39.4630380  58.8834720   2.0581570  40.8901210  58.6839930   1.5939160
  34.2554110  59.6754090   2.6458760  33.4238990  59.4202800   3.0455270
  34.8635090  59.7464860   3.3816680  34.2355370  63.7094180   2.8416780
  34.5383410  62.8191920   2.6627000  34.9798960  64.2664400   2.6139030
  39.6797270  62.0391470   1.7753160  39.6105550  61.0981410   1.6142290
  40.4417130  62.1292880   2.3475730  31.8703940  52.6445990   4.1009780
  31.6906780  51.7471740   4.3812540  31.4684020  53.1917860   4.7756730
  32.4890610  55.1406490   2.7092120  33.1700720  55.4044860   3.3279520
  32.1738660  54.3007360   3.0430130  36.6815180  56.1873850   1.7964710
  37.1893400  56.6854820   2.4369730  37.2128420  55.4109050   1.6204070
  48.7826110  54.3579040   5.4994060  48.0778280  54.7460750   4.9809170
  49.0484030  55.0529330   6.1014990  34.9651280  50.8272410   6.0628130
  34.9669720  51.3444800   5.2574030  34.1355590  50.3502590   6.0398060
  36.2154130  60.4667590   4.2401630  35.8823510  61.0936510   4.8822700
  36.3920810  60.9929470   3.4603300  34.6466610  52.5382370   4.0698580
  34.9883420  53.3824420   3.7752450  33.7082420  52.6866110   4.1863920
  35.4273230  62.4348390   6.0550810  36.0447230  63.1099470   5.7735260
  34.5666350  62.8436370   5.9638310  46.3450820  63.8987800   3.9705450
  45.6614340  64.5686910   3.9622120  46.8845110  64.0968450   3.2050310
  47.7974960  53.7267460   2.0987180  46.8499870  53.7606440   2.2302610
  48.1224950  54.5406410   2.4836540  43.8809560  65.7431930   2.6850630
  43.8936720  65.3394220   1.8172890  43.3284780  66.5179220   2.5812060
  43.2795000  60.6461770   4.0133240  43.6963790  60.4321880   3.1786700
  44.0034820  60.9034560   4.5841860  47.2257100  59.0448990   4.1049480
  46.3975730  59.1142080   3.6299610  47.8207580  59.6303300   3.6365310
  44.1899110  55.8318310   5.0504350  43.7770290  56.6572020   5.3044340
  43.4575060  55.2463350   4.8580710  35.0360520  55.3921420   3.6922060
  35.5875110  55.5016760   2.9175310  35.5504030  55.7659020   4.4077290
  44.8799210  65.8777640   5.7385330  44.4029770  66.6849830   5.5457940
  44.1961000  65.2255970   5.8911540  35.8832030  62.0427460   8.7270030
  34.9860560  62.2667430   8.9743430  35.9084900  62.1662400   7.7781430
  34.7103250  58.9140780   7.3027400  34.5711020  59.7863580   7.6714800
  33.8284610  58.5713590   7.1575340  36.5083600  64.8562480   9.5112550
  36.4799030  65.2605430   8.6440980  36.3448570  63.9272840   9.3484150
  48.4598420  65.6389580  10.8076720  48.9358140  66.1172470  11.4865800
  49.0805580  65.5707070  10.0822220  30.6621900  60.6838330   3.2198310
  30.7402320  60.8187100   2.2754030  31.2763580  59.9754220   3.4126430
  47.8631670  62.8302430   7.9676730  47.9894730  62.5914310   7.0493910
  47.9053050  61.9986970   8.4398810  41.7248410  66.5330430   6.5371540
  42.2393080  66.4438440   7.3393970  40.8817490  66.8790130   6.8299450
  47.7155680  54.8834890   8.9326470  47.0999950  55.3914560   8.4041930
  47.3952100  53.9833220   8.8752410  30.7181420  61.7252500   5.7592770
  30.8812460  61.2557860   4.9412140  31.1833870  61.2176060   6.4241610
  39.7770000  53.7226780   6.3988660  39.3149370  53.9309800   7.2108600
  39.3748110  52.9086130   6.0959330  44.7774510  54.9435730   7.5285320
  43.9268100  54.6441480   7.8494390  44.6176300  55.1877740   6.6169140
  41.8724220  56.4437480   9.6284110  42.1977630  55.6101230   9.2886340
  42.6604550  56.9666000   9.7762440  37.5276090  51.4005590   2.6542940
  37.8248420  52.3068420   2.5734960  38.0761650  50.9124370   2.0402510
  37.7213620  56.8777410   9.1894860  37.6257220  55.9372140   9.0395260
  38.5645600  57.0992480   8.7942930  32.8524160  53.2891080   7.3428640
  32.4587550  54.1366290   7.5501420  32.1642560  52.6517450   7.5337280
  39.4269210  53.3726050  10.4125380  38.7367530  53.1798250  11.0471470
  40.1701510  53.6560690  10.9449680  41.7032180  57.2124490   3.2479300
  40.9713300  57.7211300   3.5969400  41.3056520  56.3954470   2.9468080
  42.1658090  52.6658170   2.6602240  42.1830830  53.1166820   3.5044090
  41.9173670  51.7663810   2.8735680  45.5928840  50.0790350   8.4988620
  45.9174610  49.3480010   9.0246600  45.6285350  49.7603990   7.5969610
  32.2920400  61.1003930   7.9188580  31.9075190  60.4597600   8.5171540
  32.6032590  61.8040050   8.4883310  38.4417540  57.9480470   3.3997200
  38.8087670  57.4739040   4.1458540  38.2522600  58.8222040   3.7405540
  36.2316910  56.9889110   5.7181410  35.9273980  57.8681090   5.9431770
  37.1863370  57.0488900   5.7538850  45.5186680  60.1915460   2.1074650
  46.2385800  60.6870750   1.7170760  45.3168500  59.5133350   1.4628520
  40.9005480  60.2624520   7.9943650  40.8342790  59.3420190   7.7401240
  40.2710620  60.3599960   8.7088290  32.2880640  57.8291850   6.8652770
  31.9295580  58.4945700   7.4526110  31.9935200  56.9975400   7.2365390
  35.4893760  58.2876090   9.7492320  35.1893900  58.4333270   8.8520140
  36.2605000  57.7281380   9.6565710  40.8322210  63.0845090   7.7447450
  40.8466750  62.1526050   7.5266360  40.1247310  63.1704850   8.3837220
  47.0433420  59.7252430   7.0916030  46.3181610  60.3181210   6.8945420
  47.5708880  59.7175970   6.2929400  40.2656110  64.7262660   4.8387950
  40.9098330  64.9322040   5.5161370  40.6285550  63.9651060   4.3858800
  41.5388190  62.7295010   3.5565400  42.1810420  62.0288170   3.6697570
  42.0637540  63.5093450   3.3762290  43.3125810  63.5289910   6.7601460
  43.6482050  64.1156600   7.4379380  42.3926150  63.3982620   6.9899250
  30.8629210  51.3185090   7.5424870  30.1487730  51.5182010   8.1477480
  31.2824250  50.5424660   7.9139670  31.1501800  65.3065350   8.5291400
  31.2592920  64.3660090   8.3886790  30.4982360  65.5720100   7.8805130
  39.1414390  63.5781240   9.9289520  38.8211260  62.8590480  10.4735210
  38.4672750  64.2536310  10.0025580  42.3567990  53.8107400   5.2926320
  42.7248810  52.9902610   5.6205890  41.4966190  53.8709290   5.7081970
  39.3169980  56.4646990   5.5164290  39.8155230  56.9392810   6.1816140
  39.4592930  55.5410510   5.7234320  46.5236840  52.6814950   6.3592680
  46.0210440  53.4220350   6.6986490  47.3393500  53.0698950   6.0429470
  33.2960240  66.3734260  10.3411010  34.0972970  66.6946310  10.7546410
  32.7812060  66.0129840  11.0630920  42.1324870  62.4814130  10.2886420
  41.5263030  62.5045730   9.5482170  41.8278980  61.7497170  10.8253670
  43.5625240  66.2094420   8.8995830  44.5146990  66.1252440   8.8496070
  43.4153460  66.8736130   9.5729620  31.0158050  58.8607720   9.2847060
  31.5197070  58.2815000   9.8563290  30.2765470  59.1447950   9.8223430
  38.0695990  60.2678710   8.8182580  37.3041660  60.8363710   8.7337250
  38.2511950  59.9754920   7.9250810  45.2119340  61.9984040   9.3757600
  45.9528810  62.3359800   8.8725060  44.4492020  62.1676100   8.8227370
  33.0481130  57.0037310  10.1797130  33.0886470  56.7051180  11.0882360
  33.9026630  57.4044920  10.0204650  34.9886940  55.5829410   8.1471620
  34.4583400  55.0920360   7.5194960  35.6575010  56.0113610   7.6129550
  43.8865000  60.0498870   7.9112810  44.3006020  60.2043950   8.7603230
  42.9516000  60.1754090   8.0738590  44.3587170  57.3895030   9.9151960
  44.9407940  56.6347350   9.8272440  44.5348940  57.9202470   9.1383440
  35.4759240  52.5491780   8.2268910  35.3816110  51.9312530   7.5019780
  34.8956630  53.2758070   7.9998820  38.2420680  51.1065020   5.2596300
  37.7937980  51.1289280   4.4141850  37.6085880  50.7084040   5.8566600
  38.6480230  60.0019350   5.8808740  39.0668340  60.8452080   5.7084980
  37.7288860  60.1391390   5.6515520  40.9844130  57.7335530   7.2646580
  41.1040340  57.1376670   8.0041420  41.8438130  57.7705220   6.8447880
  43.3232030  58.2872720   5.8409090  42.7967250  58.8115340   5.2374230
  43.6663370  58.9200110   6.4718820  36.4987650  66.3072360   6.9966470
  35.9608740  67.0318420   6.6775170  36.7521610  65.8302700   6.2063810
  37.7512900  54.2756880   8.5222400  38.3412590  53.9672730   9.2100220
  36.9333140  53.8036630   8.6782300  42.5706330  53.8922690   8.7555420
  41.8821850  53.2304230   8.6905410  43.2912350  53.4460960   9.2003880
  39.3549860  67.5423570   7.2553120  39.2808560  68.4458710   7.5625490
  38.4528700  67.2235470   7.2275190  31.2467360  65.7368750   3.2968370
  30.8098350  65.9169550   4.1292520  31.8145040  66.4943370   3.1550090
  46.8829540  65.2385750   7.5845680  46.2831530  65.2978310   6.8409600
  47.0123440  64.2990730   7.7142530  45.5681180  61.9637730   5.6821840
  44.7541020  62.3934890   5.9447630  45.9755380  62.5756140   5.0690890
  32.1167720  58.6341550   4.1960590  32.4840760  58.5468950   5.0756610
  31.5478540  57.8708100   4.0967450  46.9171580  57.1025930   7.2091060
  46.6857670  56.8738680   6.3089010  47.1776130  58.0225480   7.1635950
  31.6683720  55.5450640   8.1019010  30.7739770  55.5117400   8.4412720
  32.2081270  55.7437430   8.8670260  45.3559650  52.3282360   9.9870760
  46.2329830  52.3365760  10.3704760  45.3680490  51.5913200   9.3763110
  46.9812640  56.2651770   4.3978330  46.0315350  56.2315310   4.5123320
  47.1625650  57.1751880   4.1628100  32.1723430  49.8198970   2.4502230
  32.8199620  49.2696350   2.0097390  32.5925270  50.0742120   3.2718040
  46.0675770  50.0140330   5.8071870  46.7047990  50.6274470   6.1731060
  46.2150660  50.0500990   4.8621100  31.9255430  49.9754640   5.1927550
  31.5770250  50.4318460   5.9585730  31.5943130  49.0811770   5.2749980
  33.5319800  63.1474240   9.3580740  33.4889430  62.7767150  10.2395200
  33.6630810  64.0851810   9.4982560  37.2325830  64.7033830   4.9590460
  36.9917190  64.9708390   4.0720980  38.1728470  64.8739560   5.0141320
  39.4380250  51.1666520   8.7146970  39.3769140  51.7588350   9.4642380
  40.3780630  51.0592480   8.5697230  42.0754810  50.8236580   8.3539260
  42.6895220  51.1415870   7.6920340  42.6204370  50.3385170   8.9735120
  48.4929990  66.7228210   5.7601100  47.9988270  67.1197080   5.0428230
  47.8843280  66.0977420   6.1538380  32.5976070  49.5030840   8.4678320
  33.1459060  49.3218890   7.7044430  32.6631380  48.7124950   9.0034630
  33.3707830  66.0936490   6.4778520  32.7768150  65.9621190   7.2168560
  33.3631670  65.2574630   6.0120620  42.8162850  49.3868720   4.6808550
  41.9422690  49.7203830   4.4781480  42.7073600  48.9141900   5.5060420
  43.7234830  51.5939590   6.0650270  43.3948190  50.7791350   5.6852000
  44.6717130  51.5509400   5.9415960  46.1769440  67.3651630   3.0387840
  45.7172410  68.1167440   2.6645860  45.5481900  66.6458100   2.9802640
  33.0020060  63.4594870   5.4286560  32.2754120  62.8400160   5.3612510
  33.0629210  63.8535480   4.5584640  36.6065160  65.6739870   2.2135970
  37.1230180  65.0627230   1.6884230  37.2562540  66.1768650   2.7046980
  39.3460660  66.5648360   3.0404950  39.6338470  66.3102660   2.1637960
  39.8583880  66.0125720   3.6310520  40.5637670  50.3038560   3.6201460
  39.7809460  50.7784060   3.8998220  40.2700600  49.3993390   3.5114640
  39.4133020  67.4864460  10.4073150  40.3400330  67.2508730  10.4509110
  39.3983450  68.3136460   9.9259180  36.5996630  50.1509210  10.1715030
  36.3180900  50.6542810   9.4075850  36.9816330  49.3530960   9.8057160
  43.2012090  49.5662790  10.7495500  43.0877540  49.8857400  11.6447020
  44.0181830  49.9675300  10.4532780  45.9810580  66.7134320  10.2314190
  46.7735900  66.2183550  10.0240150  46.2743730  67.3924460  10.8389800
  42.1070240  38.8111770 150.0821650  42.0264290  37.8966380 149.8113360
  41.6934660  39.3078840 149.3761360  44.2595710  44.9950980 150.7430050
  43.7977240  44.2238220 151.0717220  45.0721260  45.0217050 151.2482500
  32.6646060  35.8612490 146.6249070  31.7762760  36.2028460 146.5228950
  32.9487250  35.6612810 145.7329900  40.4859020  47.2808990 150.3634040
  39.8670460  47.7366490 149.7928480  41.3410800  47.4360450 149.9623740
  34.8407450  34.4443990 147.6587450  34.9474200  35.3447720 147.9656210
  33.9299810  34.3961960 147.3682100  44.4926560  33.5668800 149.1298350
  45.3136180  33.0765370 149.1723830  44.5260640  34.1566460 149.8830190
  41.3522370  42.1648230 147.7565950  40.7339640  42.6297680 147.1928670
  41.8645620  42.8575710 148.1735460  30.7205570  42.8504760 145.1305580
  30.3433550  43.3391860 144.3990480  30.9778640  43.5230040 145.7612110
  38.3294500  31.2521150 150.5891090  38.6369480  30.6968040 149.8726590
  37.3995200  31.3865610 150.4064080  45.1754980  43.6904660 147.9688720
  45.0651310  42.7478990 148.0938140  45.1723230  44.0520300 148.8551480
  40.7175260  39.3169980 147.3251210  39.7904540  39.2507360 147.5539680
  40.8700080  40.2550110 147.2106450  40.7044340  35.5886980 144.3218370
  39.7648010  35.7500940 144.4070830  41.0227600  36.3072660 143.7754360
  44.7472550  40.8790280 147.8286460  44.1284970  40.5409830 147.1812760
  44.7297000  40.2350040 148.5365650  36.3231900  39.8434720 150.1070940
  35.9188900  39.1311970 149.6116840  36.4095020  39.4987960 150.9958980
  42.9237250  40.1177090 144.8359210  43.3630530  39.2799520 144.6897030
  43.6365670  40.7506490 144.9223350  41.0332630  45.0573160 148.8040450
  41.4728540  45.7997490 148.3895840  40.9719520  45.2999730 149.7279410
  46.5054390  31.3719900 143.1500250  46.1927050  31.4646730 144.0499320
  47.2666860  31.9500930 143.0997680  33.0236530  38.7379700 147.6077590
  32.9034130  39.4641790 146.9958860  32.7137420  37.9682610 147.1305500
  31.9069530  43.6095030 149.8252410  31.4997610  43.7509620 148.9706010
  32.7982540  43.3255190 149.6223620  43.7002810  48.0442280 146.1603460
  43.5403950  47.7545220 147.0585290  43.5349520  47.2682410 145.6248690
  36.1791190  47.8240810 147.9375080  36.0033670  46.9076350 147.7242880
  35.3246930  48.1828100 148.1772880  43.4028940  45.5529840 144.7201460
  42.7094100  45.5507130 144.0603740  44.1451800  45.1289160 144.2895630
  42.9678870  47.1792550 148.7949950  43.4235820  46.3981930 149.1088570
  43.3071390  47.8899370 149.3391130  35.4900190  32.0814770 150.9901260
  35.0468340  32.8624310 150.6585780  36.0485180  32.4044660 151.6972200
  38.6059010  31.7025470 145.8707090  37.9813190  31.6985340 146.5960400
  38.5189130  30.8356430 145.4743060  35.2814410  37.2048340 148.7182510
  35.0555330  36.9885510 149.6229130  34.5006940  37.6376800 148.3728480
  42.5112170  37.2111710 147.3173160  41.9121060  37.9347510 147.1336780
  43.0591780  37.1488490 146.5349610  41.1177040  35.8475250 149.3476440
  41.5106610  36.1647450 148.5345130  41.4793890  34.9687130 149.4620960
  30.3411440  36.3796170 142.7809360  30.2586110  37.3226930 142.9224350
  29.9894500  36.2371080 141.9021710  33.9911950  34.9961690 150.8073920
  33.6512000  35.4736920 151.5640970  33.2289270  34.5426810 150.4475020
  38.2029720  36.1147280 144.8386470  38.3242540  36.0733760 145.7872290
  37.8178230  36.9771430 144.6833200  37.2151220  38.4248420 144.2369770
  36.6468120  37.9766670 143.6105680  37.9240220  38.7841200 143.7034920
  31.3058030  33.9180670 149.7238590  31.0204950  33.5536340 150.5617210
  31.2436890  33.1861130 149.1101730  34.7598700  42.4206610 146.5096180
  33.9860960  41.8804230 146.3494900  35.4893330  41.9013220 146.1713940
  40.9796620  32.8109930 146.4451960  40.1661230  32.3123100 146.3697270
  40.7858570  33.6508180 146.0288310  43.6945010  37.1829580 144.7414120
  44.5824630  37.4946810 144.5665460  43.6650100  36.3101830 144.3494700
  34.8036100  42.0886990 150.1474990  35.3214770  41.2855250 150.0931880
  34.3520120  42.0266130 150.9891820  39.6905600  43.3553270 145.4202290
  40.0321300  44.0995500 144.9245610  38.8618310  43.6684390 145.7827120
  45.9659280  38.4941420 144.2093980  45.8823000  38.9255640 143.3590420
  46.6853470  38.9539770 144.6420800  46.9946530  45.3483680 146.9376110
  46.3522690  44.6939300 147.2119830  46.6077190  45.7538770 146.1616780
  42.5733010  42.6769110 150.7847800  42.9256830  42.0797240 150.1249170
  41.6895340  42.3513340 150.9556050  38.6596290  43.4366800 148.1918210
  39.3467420  43.9836010 148.5725800  37.8728710  43.9807530 148.2267820
  30.7988690  39.0539620 143.6835290  31.6683540  39.3364420 143.9671210
  30.3079010  39.8675490 143.5684100  37.9623500  40.4412830 147.8043570
  38.4186280  41.2518080 148.0303760  37.6111710  40.1235970 148.6362060
  33.8635280  30.7850480 148.2766090  33.7349910  30.7768380 149.2251010
  33.0397300  31.1233570 147.9257100  45.3843910  44.2400140 143.4752460
  45.1581490  43.5230580 144.0677100  44.9940110  43.9912580 142.6374210
  31.1659940  48.2667000 144.2496920  31.5257580  48.8656340 143.5954190
  31.0252280  48.8126890 145.0231950  44.9660160  42.1572080 145.1366620
  44.6781860  42.6184770 145.9244500  45.7612330  41.6969850 145.4050840
  37.1828560  45.6498200 145.0670590  37.1738660  46.3827890 144.4515100
  36.2626920  45.4029780 145.1597550  32.7835200  40.8713090 145.8117350
  32.1763150  41.6111990 145.8212650  33.2584550  40.9612450 144.9855550
  45.7230020  33.9920850 146.2961800  45.0943180  34.0966520 145.5820030
  45.2281940  34.2117630 147.0855680  40.1688160  45.7126440 143.7295780
  40.2700140  45.5090430 142.7997760  39.2689900  45.4584720 143.9343560
  37.6914050  36.2706800 147.7119680  36.9830200  36.7393140 148.1533290
  37.9758530  35.6128810 148.3464870  41.7229480  32.9957460 149.1515470
  41.5997260  33.0143590 148.2024980  42.6714040  33.0436400 149.2713870
  38.8106270  48.2312760 148.4243450  39.0647770  48.1934150 147.5022820
  37.8618750  48.1046090 148.4171700  35.8949070  34.5791880 145.0870390
  36.7439600  35.0162030 145.0210580  35.5280340  34.8912140 145.9142450
  44.8158850  39.1504640 150.0001960  43.8748990  39.1654870 150.1749650
  45.1302920  38.3640600 150.4462260  34.7940490  40.8324240 143.5605920
  35.5603760  40.7205600 144.1231350  34.8715180  40.1362210 142.9082690
  33.4887250  38.2649310 144.2438810  33.5690840  37.3176820 144.3556210
  34.3807000  38.5956190 144.3499470  34.2901960  48.4144700 151.3473350
  35.0264440  47.8660160 151.6181920  34.6742880  49.2800710 151.2079340
  31.1747440  44.4818270 147.2214860  30.2487220  44.7239410 147.2120270
  31.6403870  45.3092530 147.0999610  37.4004270  47.5875010 143.1698920
  38.1932880  47.8763840 142.7180710  36.8808620  47.1567180 142.4911400
  46.4534440  46.8145140 144.5935660  46.1675950  46.4010280 143.7789840
  46.2553990  47.7432850 144.4736180  37.9181670  42.8078420 143.0341270
  37.8132310  42.1930770 143.7602650  37.7505890  42.2844310 142.2504280
  41.1584400  41.8698450 143.6383260  40.6094500  42.3167750 144.2826000
  41.7803660  41.3647700 144.1620930  36.8259520  40.8289370 145.5348560
  37.2475940  40.6629240 146.3779950  36.9510360  40.0189600 145.0403700
  39.3387160  39.8526980 142.7825660  39.8592820  39.1376000 142.4166810
  39.9855560  40.4912850 143.0826170  35.7218420  36.9022600 142.4806720
  35.5207480  36.0389960 142.8420060  35.5510470  36.8155960 141.5428320
  43.2006730  31.7130830 145.0093600  43.4809020  30.8698730 145.3653020
  42.4272460  31.9453940 145.5232350  34.5201220  34.0023220 142.4684600
  34.8227120  34.0090650 141.5603750  35.2595810  33.6521080 142.9652260
  37.7386150  32.9457840 143.4540800  37.3908150  32.2681830 142.8743250
  37.9398920  32.4847350 144.2684190  39.9035190  47.9338590 145.0727400
  40.7985980  48.2723560 145.0946160  39.9352820  47.2118000 144.4451680
  33.5431350  43.3065640 143.3014400  33.9806220  43.8495310 143.9571980
  34.0279080  42.4812590 143.3110740  30.7577150  46.0954670 150.7534660
  31.0880160  45.2275730 150.5213300  31.1868150  46.3013190 151.5839620
  35.3539070  44.4263680 148.4136630  35.0534610  44.3028650 149.3140540
  35.2476560  43.5672270 148.0052360  48.1230990  44.2060080 143.1163310
  47.2923950  44.2736730 143.5870540  48.3002820  45.0964200 142.8130170
  47.5787450  40.9507560 145.6197510  48.3406360  41.5204210 145.7257200
  47.5941820  40.3834760 146.3905820  31.0791790  39.4745490 149.8505170
  30.4240630  39.2057130 149.2064870  31.9169740  39.3649970 149.4007150
  48.5847420  41.8057660 150.4639440  48.9556250  41.0224980 150.0575410
  49.2249350  42.4946760 150.2856740  47.6306620  41.2441930 142.7770030
  47.9055460  42.1520810 142.6489250  47.4417360  41.1804460 143.7132020
  44.0282230  34.2686780 144.0723660  44.4467110  34.0817760 143.2320320
  43.7218290  33.4165830 144.3826590  47.5271960  39.1810920 147.7699460
  47.1515560  38.4138850 147.3380750  46.7975080  39.5633620 148.2574390
  30.2929870  36.6844420 145.7930500  29.3893950  36.9474620 145.6182160
  30.7770490  36.9555590 145.0130460  32.8357080  35.7409960 143.7024880
  33.5448780  35.3193180 143.2172160  32.1197020  35.8085190 143.0708230
  32.4831240  31.7949290 142.7427530  33.2059370  32.3358230 143.0608750
  32.7555760  31.5212710 141.8669070  46.2922890  36.6641760 147.0099110
  46.7882010  36.4312630 147.7947990  46.0938960  35.8253600 146.5936750
  47.7210050  35.3002710 149.5436790  47.6109330  35.1458750 150.4819060
  48.4817640  34.7723650 149.3012200  48.6100320  33.1310630 142.7842930
  49.5349630  32.9991810 142.5761220  48.5876110  33.2103450 143.7379380
  48.6838810  33.9021290 145.4099640  47.8890310  33.8366410 145.9392550
  48.8882090  34.8371930 145.3984990  45.6257230  47.9412840 149.4038030
  46.2216300  47.6197410 148.7272450  45.8835380  47.4684660 150.1951300
  46.9797310  31.8633410 149.8707290  46.9185710  30.9194630 149.7238310
  47.7589340  31.9713500 150.4160750  31.2850060  48.0025770 148.8331240
  31.1172100  47.3696450 149.5313130  30.4184570  48.2085170 148.4825430
  31.9078080  31.8342550 146.3363100  32.6657440  31.9471430 145.7627130
  31.4455250  32.6711750 146.2906530  38.4491890  33.9481820 149.3265410
  37.6366400  33.5738710 148.9861290  38.9533530  33.1926900 149.6286600
  42.9516870  30.6124270 150.5648480  43.5546240  31.1844480 151.0397000
  42.2109860  31.1763710 150.3422380  46.0951470  31.0145830 145.8388760
  46.2902100  31.9129280 146.1056190  45.3081340  30.7832910 146.3321710
  32.8912760  46.6959000 146.2781380  32.3660380  47.0767030 145.5743340
  32.8157340  47.3209770 146.9991090  34.2803230  32.3606600 144.8765070
  34.8095990  31.5736400 144.7473020  34.9131550  33.0397790 145.1100600
  36.4741070  32.0981740 147.9310460  35.8443810  31.3969050 148.0980590
  35.9346210  32.8585870 147.7143620  47.6478080  48.2546540 147.5995320
  47.8230270  47.5684280 146.9556240  46.9499650  48.7793590 147.2071990
  35.4905730  48.6441380 145.1530630  36.2224550  48.3600660 144.6054520
  35.7499400  48.4054660 146.0430010  34.6520520  44.7606110 145.1576960
  34.0229400  45.2291210 145.7062790  34.7668350  43.9155330 145.5923150
  42.1070240  38.8111770 131.3078160  42.0264290  37.8966380 131.0369870
  41.6934660  39.3078840 130.6017870  40.2388280  40.5890790 133.1887430
  39.4630380  40.1091230 133.4786000  40.8901210  39.9096440 133.0143590
  34.2554110  40.9010600 134.0663190  33.4238990  40.6459310 134.4659700
  34.8635090  40.9721370 134.8021110  44.2595710  44.9950980 131.9686560
  43.7977240  44.2238220 132.2973730  45.0721260  45.0217050 132.4739010
  34.2355370  44.9350690 134.2621210  34.5383410  44.0448430 134.0831430
  34.9798960  45.4920910 134.0343460  32.6646060  35.8612490 127.8505580
  31.7762760  36.2028460 127.7485460  32.9487250  35.6612810 126.9586410
  30.6279070  38.4618140 133.7345280  31.1995180  37.6940340 133.7348920
  30.6280610  38.7606900 132.8251890  40.4859020  47.2808990 131.5890550
  39.8670460  47.7366490 131.0184990  41.3410800  47.4360450 131.1880250
  39.6797270  43.2647980 133.1957590  39.6105550  42.3237920 133.0346720
  40.4417130  43.3549390 133.7680160  31.8703940  33.8702500 135.5214210
  31.6906780  32.9728250 135.8016970  31.4684020  34.4174370 136.1961160
  40.7102440  36.0718360 133.4226520  41.0867260  35.1990240 133.3100190
  40.6121950  36.4077060 132.5316960  34.8407450  34.4443990 128.8843960
  34.9474200  35.3447720 129.1912720  33.9299810  34.3961960 128.5938610
  44.4926560  33.5668800 130.3554860  45.3136180  33.0765370 130.3980340
  44.5260640  34.1566460 131.1086700  32.4890610  36.3663000 134.1296550
  33.1700720  36.6301370 134.7483950  32.1738660  35.5263870 134.4634560
  36.6815180  37.4130360 133.2169140  37.1893400  37.9111330 133.8574160
  37.2128420  36.6365560 133.0408500  48.7826110  35.5835550 136.9198490
  48.0778280  35.9717260 136.4013600  49.0484030  36.2785840 137.5219420
  34.9651280  32.0528920 137.4832560  34.9669720  32.5701310 136.6778460
  34.1355590  31.5759100 137.4602490  41.3522370  42.1648230 128.9822460
  40.7339640  42.6297680 128.4185180  41.8645620  42.8575710 129.3991970
  36.2154130  41.6924100 135.6606060  35.8823510  42.3193020 136.3027130
  36.3920810  42.2185980 134.8807730  44.7288040  35.5069180 133.1282400
  44.0243610  35.7954070 133.7085510  45.0900200  36.3169290 132.7681960
  34.6466610  33.7638880 135.4903010  34.9883420  34.6080930 135.1956880
  33.7082420  33.9122620 135.6068350  35.4273230  43.6604900 137.4755240
  36.0447230  44.3355980 137.1939690  34.5666350  44.0692880 137.3842740
  30.7205570  42.8504760 126.3562090  30.3433550  43.3391860 125.6246990
  30.9778640  43.5230040 126.9868620  46.3450820  45.1244310 135.3909880
  45.6614340  45.7943420 135.3826550  46.8845110  45.3224960 134.6254740
  47.7974960  34.9523970 133.5191610  46.8499870  34.9862950 133.6507040
  48.1224950  35.7662920 133.9040970  38.3294500  31.2521150 131.8147600
  38.6369480  30.6968040 131.0983100  37.3995200  31.3865610 131.6320590
  43.8809560  46.9688440 134.1055060  43.8936720  46.5650730 133.2377320
  43.3284780  47.7435730 134.0016490  45.1754980  43.6904660 129.1945230
  45.0651310  42.7478990 129.3194650  45.1723230  44.0520300 130.0807990
  43.2795000  41.8718280 135.4337670  43.6963790  41.6578390 134.5991130
  44.0034820  42.1291070 136.0046290  40.7175260  39.3169980 128.5507720
  39.7904540  39.2507360 128.7796190  40.8700080  40.2550110 128.4362960
  40.7044340  35.5886980 125.5474880  39.7648010  35.7500940 125.6327340
  41.0227600  36.3072660 125.0010870  47.2257100  40.2705500 135.5253910
  46.3975730  40.3398590 135.0504040  47.8207580  40.8559810 135.0569740
  44.7472550  40.8790280 129.0542970  44.1284970  40.5409830 128.4069270
  44.7297000  40.2350040 129.7622160  44.1899110  37.0574820 136.4708780
  43.7770290  37.8828530 136.7248770  43.4575060  36.4719860 136.2785140
  36.3231900  39.8434720 131.3327450  35.9188900  39.1311970 130.8373350
  36.4095020  39.4987960 132.2215490  36.7913600  43.5302280 133.4966660
  36.4941890  42.9247750 132.8174440  37.7413420  43.5679590 133.3856020
  35.0360520  36.6177930 135.1126490  35.5875110  36.7273270 134.3379740
  35.5504030  36.9915530 135.8281720  44.8799210  47.1034150 137.1589760
  44.4029770  47.9106340 136.9662370  44.1961000  46.4512480 137.3115970
  35.8832030  43.2683970 140.1474460  34.9860560  43.4923940 140.3947860
  35.9084900  43.3918910 139.1985860  42.9237250  40.1177090 126.0615720
  43.3630530  39.2799520 125.9153540  43.6365670  40.7506490 126.1479860
  34.7103250  40.1397290 138.7231830  34.5711020  41.0120090 139.0919230
  33.8284610  39.7970100 138.5779770  41.0332630  45.0573160 130.0296960
  41.4728540  45.7997490 129.6152350  40.9719520  45.2999730 130.9535920
  36.5083600  46.0818990 140.9316980  36.4799030  46.4861940 140.0645410
  36.3448570  45.1529350 140.7688580  46.5054390  31.3719900 124.3756760
  46.1927050  31.4646730 125.2755830  47.2666860  31.9500930 124.3254190
  33.0236530  38.7379700 128.8334100  32.9034130  39.4641790 128.2215370
  32.7137420  37.9682610 128.3562010  48.4598420  46.8646090 142.2281150
  48.9358140  47.3428980 142.9070230  49.0805580  46.7963580 141.5026650
  30.6621900  41.9094840 134.6402740  30.7402320  42.0443610 133.6958460
  31.2763580  41.2010730 134.8330860  31.9069530  43.6095030 131.0508920
  31.4997610  43.7509620 130.1962520  32.7982540  43.3255190 130.8480130
  47.8631670  44.0558940 139.3881160  47.9894730  43.8170820 138.4698340
  47.9053050  43.2243480 139.8603240  41.7248410  47.7586940 137.9575970
  42.2393080  47.6694950 138.7598400  40.8817490  48.1046640 138.2503880
  43.7002810  48.0442280 127.3859970  43.5403950  47.7545220 128.2841800
  43.5349520  47.2682410 126.8505200  36.1791190  47.8240810 129.1631590
  36.0033670  46.9076350 128.9499390  35.3246930  48.1828100 129.4029390
  43.4028940  45.5529840 125.9457970  42.7094100  45.5507130 125.2860250
  44.1451800  45.1289160 125.5152140  42.9678870  47.1792550 130.0206460
  43.4235820  46.3981930 130.3345080  43.3071390  47.8899370 130.5647640
  47.7155680  36.1091400 140.3530900  47.0999950  36.6171070 139.8246360
  47.3952100  35.2089730 140.2956840  30.7181420  42.9509010 137.1797200
  30.8812460  42.4814370 136.3616570  31.1833870  42.4432570 137.8446040
  35.4900190  32.0814770 132.2157770  35.0468340  32.8624310 131.8842290
  36.0485180  32.4044660 132.9228710  39.7770000  34.9483290 137.8193090
  39.3149370  35.1566310 138.6313030  39.3748110  34.1342640 137.5163760
  44.7774510  36.1692240 138.9489750  43.9268100  35.8697990 139.2698820
  44.6176300  36.4134250 138.0373570  41.8724220  37.6693990 141.0488540
  42.1977630  36.8357740 140.7090770  42.6604550  38.1922510 141.1966870
  38.6059010  31.7025470 127.0963600  37.9813190  31.6985340 127.8216910
  38.5189130  30.8356430 126.6999570  37.5276090  32.6262100 134.0747370
  37.8248420  33.5324930 133.9939390  38.0761650  32.1380880 133.4606940
  35.2814410  37.2048340 129.9439020  35.0555330  36.9885510 130.8485640
  34.5006940  37.6376800 129.5984990  42.5112170  37.2111710 128.5429670
  41.9121060  37.9347510 128.3593290  43.0591780  37.1488490 127.7606120
  37.7213620  38.1033920 140.6099290  37.6257220  37.1628650 140.4599690
  38.5645600  38.3248990 140.2147360  41.1177040  35.8475250 130.5732950
  41.5106610  36.1647450 129.7601640  41.4793890  34.9687130 130.6877470
  32.8524160  34.5147590 138.7633070  32.4587550  35.3622800 138.9705850
  32.1642560  33.8773960 138.9541710  39.4269210  34.5982560 141.8329810
  38.7367530  34.4054760 142.4675900  40.1701510  34.8817200 142.3654110
  30.1541210  32.4376050 132.7963150  29.8654260  33.0078910 133.5088130
  30.8986970  31.9580500 133.1594380  30.3411440  36.3796170 124.0065870
  30.2586110  37.3226930 124.1480860  29.9894500  36.2371080 123.1278220
  41.7032180  38.4381000 134.6683730  40.9713300  38.9467810 135.0173830
  41.3056520  37.6210980 134.3672510  38.1409570  35.1135200 133.0736220
  38.1445630  34.6725150 132.2240760  39.0360690  35.4352530 133.1808040
  33.9911950  34.9961690 132.0330430  33.6512000  35.4736920 132.7897480
  33.2289270  34.5426810 131.6731530  38.2029720  36.1147280 126.0642980
  38.3242540  36.0733760 127.0128800  37.8178230  36.9771430 125.9089710
  42.1658090  33.8914680 134.0806670  42.1830830  34.3423330 134.9248520
  41.9173670  32.9920320 134.2940110  37.2151220  38.4248420 125.4626280
  36.6468120  37.9766670 124.8362190  37.9240220  38.7841200 124.9291430
  45.5928840  31.3046860 139.9193050  45.9174610  30.5736520 140.4451030
  45.6285350  30.9860500 139.0174040  32.2920400  42.3260440 139.3393010
  31.9075190  41.6854110 139.9375970  32.6032590  43.0296560 139.9087740
  38.4417540  39.1736980 134.8201630  38.8087670  38.6995550 135.5662970
  38.2522600  40.0478550 135.1609970  31.3058030  33.9180670 130.9495100
  31.0204950  33.5536340 131.7873720  31.2436890  33.1861130 130.3358240
  36.2316910  38.2145620 137.1385840  35.9273980  39.0937600 137.3636200
  37.1863370  38.2745410 137.1743280  34.7598700  42.4206610 127.7352690
  33.9860960  41.8804230 127.5751410  35.4893330  41.9013220 127.3970450
  45.5186680  41.4171970 133.5279080  46.2385800  41.9127260 133.1375190
  45.3168500  40.7389860 132.8832950  40.9796620  32.8109930 127.6708470
  40.1661230  32.3123100 127.5953780  40.7858570  33.6508180 127.2544820
  40.9005480  41.4881030 139.4148080  40.8342790  40.5676700 139.1605670
  40.2710620  41.5856470 140.1292720  43.6945010  37.1829580 125.9670630
  44.5824630  37.4946810 125.7921970  43.6650100  36.3101830 125.5751210
  34.8036100  42.0886990 131.3731500  35.3214770  41.2855250 131.3188390
  34.3520120  42.0266130 132.2148330  39.6905600  43.3553270 126.6458800
  40.0321300  44.0995500 126.1502120  38.8618310  43.6684390 127.0083630
  32.2880640  39.0548360 138.2857200  31.9295580  39.7202210 138.8730540
  31.9935200  38.2231910 138.6569820  35.4893760  39.5132600 141.1696750
  35.1893900  39.6589780 140.2724570  36.2605000  38.9537890 141.0770140
  40.8322210  44.3101600 139.1651880  40.8466750  43.3782560 138.9470790
  40.1247310  44.3961360 139.8041650  45.9659280  38.4941420 125.4350490
  45.8823000  38.9255640 124.5846930  46.6853470  38.9539770 125.8677310
  47.0433420  40.9508940 138.5120460  46.3181610  41.5437720 138.3149850
  47.5708880  40.9432480 137.7133830  46.9946530  45.3483680 128.1632620
  46.3522690  44.6939300 128.4376340  46.6077190  45.7538770 127.3873290
  42.5733010  42.6769110 132.0104310  42.9256830  42.0797240 131.3505680
  41.6895340  42.3513340 132.1812560  38.6596290  43.4366800 129.4174720
  39.3467420  43.9836010 129.7982310  37.8728710  43.9807530 129.4524330
  30.7988690  39.0539620 124.9091800  31.6683540  39.3364420 125.1927720
  30.3079010  39.8675490 124.7940610  37.9623500  40.4412830 129.0300080
  38.4186280  41.2518080 129.2560270  37.6111710  40.1235970 129.8618570
  40.2656110  45.9519170 136.2592380  40.9098330  46.1578550 136.9365800
  40.6285550  45.1907570 135.8063230  33.8635280  30.7850480 129.5022600
  33.7349910  30.7768380 130.4507520  33.0397300  31.1233570 129.1513610
  41.5388190  43.9551520 134.9769830  42.1810420  43.2544680 135.0902000
  42.0637540  44.7349960 134.7966720  45.3843910  44.2400140 124.7008970
  45.1581490  43.5230580 125.2933610  44.9940110  43.9912580 123.8630720
  43.3125810  44.7546420 138.1805890  43.6482050  45.3413110 138.8583810
  42.3926150  44.6239130 138.4103680  31.1659940  48.2667000 125.4753430
  31.5257580  48.8656340 124.8210700  31.0252280  48.8126890 126.2488460
  30.8629210  32.5441600 138.9629300  30.1487730  32.7438520 139.5681910
  31.2824250  31.7681170 139.3344100  44.9660160  42.1572080 126.3623130
  44.6781860  42.6184770 127.1501010  45.7612330  41.6969850 126.6307350
  31.1501800  46.5321860 139.9495830  31.2592920  45.5916600 139.8091220
  30.4982360  46.7976610 139.3009560  39.1414390  44.8037750 141.3493950
  38.8211260  44.0846990 141.8939640  38.4672750  45.4792820 141.4230010
  37.1828560  45.6498200 126.2927100  37.1738660  46.3827890 125.6771610
  36.2626920  45.4029780 126.3854060  32.7835200  40.8713090 127.0373860
  32.1763150  41.6111990 127.0469160  33.2584550  40.9612450 126.2112060
  42.3567990  35.0363910 136.7130750  42.7248810  34.2159120 137.0410320
  41.4966190  35.0965800 137.1286400  45.7230020  33.9920850 127.5218310
  45.0943180  34.0966520 126.8076540  45.2281940  34.2117630 128.3112190
  40.1688160  45.7126440 124.9552290  40.2700140  45.5090430 124.0254270
  39.2689900  45.4584720 125.1600070  37.6914050  36.2706800 128.9376190
  36.9830200  36.7393140 129.3789800  37.9758530  35.6128810 129.5721380
  39.3169980  37.6903500 136.9368720  39.8155230  38.1649320 137.6020570
  39.4592930  36.7667020 137.1438750  41.7229480  32.9957460 130.3771980
  41.5997260  33.0143590 129.4281490  42.6714040  33.0436400 130.4970380
  38.8106270  48.2312760 129.6499960  39.0647770  48.1934150 128.7279330
  37.8618750  48.1046090 129.6428210  35.8949070  34.5791880 126.3126900
  36.7439600  35.0162030 126.2467090  35.5280340  34.8912140 127.1398960
  46.5236840  33.9071460 137.7797110  46.0210440  34.6476860 138.1190920
  47.3393500  34.2955460 137.4633900  44.8158850  39.1504640 131.2258470
  43.8748990  39.1654870 131.4006160  45.1302920  38.3640600 131.6718770
  34.7940490  40.8324240 124.7862430  35.5603760  40.7205600 125.3487860
  34.8715180  40.1362210 124.1339200  33.4887250  38.2649310 125.4695320
  33.5690840  37.3176820 125.5812720  34.3807000  38.5956190 125.5755980
  46.8184430  46.3213490 132.9012730  46.9431850  47.1444660 133.3736540
  47.6849990  46.1104220 132.5536880  34.2901960  48.4144700 132.5729860
  35.0264440  47.8660160 132.8438430  34.6742880  49.2800710 132.4335850
  31.1747440  44.4818270 128.4471370  30.2487220  44.7239410 128.4376780
  31.6403870  45.3092530 128.3256120  33.2960240  47.5990770 141.7615440
  34.0972970  47.9202820 142.1750840  32.7812060  47.2386350 142.4835350
  37.4004270  47.5875010 124.3955430  38.1932880  47.8763840 123.9437220
  36.8808620  47.1567180 123.7167910  42.1324870  43.7070640 141.7090850
  41.5263030  43.7302240 140.9686600  41.8278980  42.9753680 142.2458100
  43.5625240  47.4350930 140.3200260  44.5146990  47.3508950 140.2700500
  43.4153460  48.0992640 140.9934050  46.4534440  46.8145140 125.8192170
  46.1675950  46.4010280 125.0046350  46.2553990  47.7432850 125.6992690
  31.0158050  40.0864230 140.7051490  31.5197070  39.5071510 141.2767720
  30.2765470  40.3704460 141.2427860  37.9181670  42.8078420 124.2597780
  37.8132310  42.1930770 124.9859160  37.7505890  42.2844310 123.4760790
  38.0695990  41.4935220 140.2387010  37.3041660  42.0620220 140.1541680
  38.2511950  41.2011430 139.3455240  41.1584400  41.8698450 124.8639770
  40.6094500  42.3167750 125.5082510  41.7803660  41.3647700 125.3877440
  45.2119340  43.2240550 140.7962030  45.9528810  43.5616310 140.2929490
  44.4492020  43.3932610 140.2431800  33.0481130  38.2293820 141.6001560
  33.0886470  37.9307690 142.5086790  33.9026630  38.6301430 141.4409080
  36.8259520  40.8289370 126.7605070  37.2475940  40.6629240 127.6036460
  36.9510360  40.0189600 126.2660210  34.9886940  36.8085920 139.5676050
  34.4583400  36.3176870 138.9399390  35.6575010  37.2370120 139.0333980
  39.3387160  39.8526980 124.0082170  39.8592820  39.1376000 123.6423320
  39.9855560  40.4912850 124.3082680  43.8865000  41.2755380 139.3317240
  44.3006020  41.4300460 140.1807660  42.9516000  41.4010600 139.4943020
  44.3587170  38.6151540 141.3356390  44.9407940  37.8603860 141.2476870
  44.5348940  39.1458980 140.5587870  35.4759240  33.7748290 139.6473340
  35.3816110  33.1569040 138.9224210  34.8956630  34.5014580 139.4203250
  38.2420680  32.3321530 136.6800730  37.7937980  32.3545790 135.8346280
  37.6085880  31.9340550 137.2771030  38.6480230  41.2275860 137.3013170
  39.0668340  42.0708590 137.1289410  37.7288860  41.3647900 137.0719950
  40.9844130  38.9592040 138.6851010  41.1040340  38.3633180 139.4245850
  41.8438130  38.9961730 138.2652310  43.3232030  39.5129230 137.2613520
  42.7967250  40.0371850 136.6578660  43.6663370  40.1456620 137.8923250
  35.7218420  36.9022600 123.7063230  35.5207480  36.0389960 124.0676570
  35.5510470  36.8155960 122.7684830  36.4987650  47.5328870 138.4170900
  35.9608740  48.2574930 138.0979600  36.7521610  47.0559210 137.6268240
  37.7512900  35.5013390 139.9426830  38.3412590  35.1929240 140.6304650
  36.9333140  35.0293140 140.0986730  42.5706330  35.1179200 140.1759850
  41.8821850  34.4560740 140.1109840  43.2912350  34.6717470 140.6208310
  43.2006730  31.7130830 126.2350110  43.4809020  30.8698730 126.5909530
  42.4272460  31.9453940 126.7488860  34.5201220  34.0023220 123.6941110
  34.8227120  34.0090650 122.7860260  35.2595810  33.6521080 124.1908770
  39.3549860  48.7680080 138.6757550  39.2808560  49.6715220 138.9829920
  38.4528700  48.4491980 138.6479620  37.7386150  32.9457840 124.6797310
  37.3908150  32.2681830 124.0999760  37.9398920  32.4847350 125.4940700
  39.9035190  47.9338590 126.2983910  40.7985980  48.2723560 126.3202670
  39.9352820  47.2118000 125.6708190  33.5431350  43.3065640 124.5270910
  33.9806220  43.8495310 125.1828490  34.0279080  42.4812590 124.5367250
  30.7577150  46.0954670 131.9791170  31.0880160  45.2275730 131.7469810
  31.1868150  46.3013190 132.8096130  35.3539070  44.4263680 129.6393140
  35.0534610  44.3028650 130.5397050  35.2476560  43.5672270 129.2308870
  31.2467360  46.9625260 134.7172800  30.8098350  47.1426060 135.5496950
  31.8145040  47.7199880 134.5754520  46.8829540  46.4642260 139.0050110
  46.2831530  46.5234820 138.2614030  47.0123440  45.5247240 139.1346960
  48.1230990  44.2060080 124.3419820  47.2923950  44.2736730 124.8127050
  48.3002820  45.0964200 124.0386680  47.5787450  40.9507560 126.8454020
  48.3406360  41.5204210 126.9513710  47.5941820  40.3834760 127.6162330
  31.0791790  39.4745490 131.0761680  30.4240630  39.2057130 130.4321380
  31.9169740  39.3649970 130.6263660  48.5847420  41.8057660 131.6895950
  48.9556250  41.0224980 131.2831920  49.2249350  42.4946760 131.5113250
  45.5681180  43.1894240 137.1026270  44.7541020  43.6191400 137.3652060
  45.9755380  43.8012650 136.4895320  47.6306620  41.2441930 124.0026540
  47.9055460  42.1520810 123.8745760  47.4417360  41.1804460 124.9388530
  44.0282230  34.2686780 125.2980170  44.4467110  34.0817760 124.4576830
  43.7218290  33.4165830 125.6083100  47.5271960  39.1810920 128.9955970
  47.1515560  38.4138850 128.5637260  46.7975080  39.5633620 129.4830900
  32.1167720  39.8598060 135.6165020  32.4840760  39.7725460 136.4961040
  31.5478540  39.0964610 135.5171880  46.9171580  38.3282440 138.6295490
  46.6857670  38.0995190 137.7293440  47.1776130  39.2481990 138.5840380
  31.6683720  36.7707150 139.5223440  30.7739770  36.7373910 139.8617150
  32.2081270  36.9693940 140.2874690  45.3559650  33.5538870 141.4075190
  46.2329830  33.5622270 141.7909190  45.3680490  32.8169710 140.7967540
  30.2929870  36.6844420 127.0187010  29.3893950  36.9474620 126.8438670
  30.7770490  36.9555590 126.2386970  46.8022920  37.4068410 132.2963210
  47.3260400  36.9131060 131.6653380  47.3882340  37.5418770 133.0410780
  46.9812640  37.4908280 135.8182760  46.0315350  37.4571820 135.9327750
  47.1625650  38.4008390 135.5832530  32.8357080  35.7409960 124.9281390
  33.5448780  35.3193180 124.4428670  32.1197020  35.8085190 124.2964740
  32.4831240  31.7949290 123.9684040  33.2059370  32.3358230 124.2865260
  32.7555760  31.5212710 123.0925580  46.2922890  36.6641760 128.2355620
  46.7882010  36.4312630 129.0204500  46.0938960  35.8253600 127.8193260
  32.1723430  31.0455480 133.8706660  32.8199620  30.4952860 133.4301820
  32.5925270  31.2998630 134.6922470  47.7210050  35.3002710 130.7693300
  47.6109330  35.1458750 131.7075570  48.4817640  34.7723650 130.5268710
  46.0675770  31.2396840 137.2276300  46.7047990  31.8530980 137.5935490
  46.2150660  31.2757500 136.2825530  48.6100320  33.1310630 124.0099440
  49.5349630  32.9991810 123.8017730  48.5876110  33.2103450 124.9635890
  48.6838810  33.9021290 126.6356150  47.8890310  33.8366410 127.1649060
  48.8882090  34.8371930 126.6241500  45.6257230  47.9412840 130.6294540
  46.2216300  47.6197410 129.9528960  45.8835380  47.4684660 131.4207810
  31.9255430  31.2011150 136.6131980  31.5770250  31.6574970 137.3790160
  31.5943130  30.3068280 136.6954410  33.5319800  44.3730750 140.7785170
  33.4889430  44.0023660 141.6599630  33.6630810  45.3108320 140.9186990
  37.2325830  45.9290340 136.3794890  36.9917190  46.1964900 135.4925410
  38.1728470  46.0996070 136.4345750  39.4380250  32.3923030 140.1351400
  39.3769140  32.9844860 140.8846810  40.3780630  32.2848990 139.9901660
  42.0754810  32.0493090 139.7743690  42.6895220  32.3672380 139.1124770
  42.6204370  31.5641680 140.3939550  48.4929990  47.9484720 137.1805530
  47.9988270  48.3453590 136.4632660  47.8843280  47.3233930 137.5742810
  32.5976070  30.7287350 139.8882750  33.1459060  30.5475400 139.1248860
  32.6631380  29.9381460 140.4239060  33.3707830  47.3193000 137.8982950
  32.7768150  47.1877700 138.6372990  33.3631670  46.4831140 137.4325050
  42.8162850  30.6125230 136.1012980  41.9422690  30.9460340 135.8985910
  42.7073600  30.1398410 136.9264850  43.7234830  32.8196100 137.4854700
  43.3948190  32.0047860 137.1056430  44.6717130  32.7765910 137.3620390
  46.1769440  48.5908140 134.4592270  45.7172410  49.3423950 134.0850290
  45.5481900  47.8714610 134.4007070  33.0020060  44.6851380 136.8490990
  32.2754120  44.0656670 136.7816940  33.0629210  45.0791990 135.9789070
  36.6065160  46.8996380 133.6340400  37.1230180  46.2883740 133.1088660
  37.2562540  47.4025160 134.1251410  39.3460660  47.7904870 134.4609380
  39.6338470  47.5359170 133.5842390  39.8583880  47.2382230 135.0514950
  40.5637670  31.5295070 135.0405890  39.7809460  32.0040570 135.3202650
  40.2700600  30.6249900 134.9319070  45.1158740  32.2318170 133.0854980
  45.5566830  32.1763270 132.2376580  44.8466330  33.1476180 133.1565160
  46.9797310  31.8633410 131.0963800  46.9185710  30.9194630 130.9494820
  47.7589340  31.9713500 131.6417260  31.2850060  48.0025770 130.0587750
  31.1172100  47.3696450 130.7569640  30.4184570  48.2085170 129.7081940
  31.9078080  31.8342550 127.5619610  32.6657440  31.9471430 126.9883640
  31.4455250  32.6711750 127.5163040  38.4491890  33.9481820 130.5521920
  37.6366400  33.5738710 130.2117800  38.9533530  33.1926900 130.8543110
  42.9516870  30.6124270 131.7904990  43.5546240  31.1844480 132.2653510
  42.2109860  31.1763710 131.5678890  46.0951470  31.0145830 127.0645270
  46.2902100  31.9129280 127.3312700  45.3081340  30.7832910 127.5578220
  32.8912760  46.6959000 127.5037890  32.3660380  47.0767030 126.7999850
  32.8157340  47.3209770 128.2247600  34.2803230  32.3606600 126.1021580
  34.8095990  31.5736400 125.9729530  34.9131550  33.0397790 126.3357110
  36.4741070  32.0981740 129.1566970  35.8443810  31.3969050 129.3237100
  35.9346210  32.8585870 128.9400130  39.4133020  48.7120970 141.8277580
  40.3400330  48.4765240 141.8713540  39.3983450  49.5392970 141.3463610
  47.6478080  48.2546540 128.8251830  47.8230270  47.5684280 128.1812750
  46.9499650  48.7793590 128.4328500  36.5996630  31.3765720 141.5919460
  36.3180900  31.8799320 140.8280280  36.9816330  30.5787470 141.2261590
  35.4905730  48.6441380 126.3787140  36.2224550  48.3600660 125.8311030
  35.7499400  48.4054660 127.2686520  34.6520520  44.7606110 126.3833470
  34.0229400  45.2291210 126.9319300  34.7668350  43.9155330 126.8179660
  43.2012090  30.7919300 142.1699930  43.0877540  31.1113910 143.0651450
  44.0181830  31.1931810 141.8737210  45.9810580  47.9390830 141.6518620
  46.7735900  47.4440060 141.4444580  46.2743730  48.6180970 142.2594230
  44.2595710  44.9950980 113.1943070  43.7977240  44.2238220 113.5230240
  45.0721260  45.0217050 113.6995520  32.6646060  35.8612490 109.0762090
  31.7762760  36.2028460 108.9741970  32.9487250  35.6612810 108.1842920
  30.6279070  38.4618140 114.9601790  31.1995180  37.6940340 114.9605430
  30.6280610  38.7606900 114.0508400  40.4859020  47.2808990 112.8147060
  39.8670460  47.7366490 112.2441500  41.3410800  47.4360450 112.4136760
  39.6797270  43.2647980 114.4214100  39.6105550  42.3237920 114.2603230
  40.4417130  43.3549390 114.9936670  31.8703940  33.8702500 116.7470720
  31.6906780  32.9728250 117.0273480  31.4684020  34.4174370 117.4217670
  34.8407450  34.4443990 110.1100470  34.9474200  35.3447720 110.4169230
  33.9299810  34.3961960 109.8195120  44.4926560  33.5668800 111.5811370
  45.3136180  33.0765370 111.6236850  44.5260640  34.1566460 112.3343210
  32.4890610  36.3663000 115.3553060  33.1700720  36.6301370 115.9740460
  32.1738660  35.5263870 115.6891070  36.6815180  37.4130360 114.4425650
  37.1893400  37.9111330 115.0830670  37.2128420  36.6365560 114.2665010
  48.7826110  35.5835550 118.1455000  48.0778280  35.9717260 117.6270110
  49.0484030  36.2785840 118.7475930  34.9651280  32.0528920 118.7089070
  34.9669720  32.5701310 117.9034970  34.1355590  31.5759100 118.6859000
  36.2154130  41.6924100 116.8862570  35.8823510  42.3193020 117.5283640
  36.3920810  42.2185980 116.1064240  44.7288040  35.5069180 114.3538910
  44.0243610  35.7954070 114.9342020  45.0900200  36.3169290 113.9938470
  34.6466610  33.7638880 116.7159520  34.9883420  34.6080930 116.4213390
  33.7082420  33.9122620 116.8324860  35.4273230  43.6604900 118.7011750
  36.0447230  44.3355980 118.4196200  34.5666350  44.0692880 118.6099250
  46.3450820  45.1244310 116.6166390  45.6614340  45.7943420 116.6083060
  46.8845110  45.3224960 115.8511250  47.7974960  34.9523970 114.7448120
  46.8499870  34.9862950 114.8763550  48.1224950  35.7662920 115.1297480
  38.3294500  31.2521150 113.0404110  38.6369480  30.6968040 112.3239610
  37.3995200  31.3865610 112.8577100  43.8809560  46.9688440 115.3311570
  43.8936720  46.5650730 114.4633830  43.3284780  47.7435730 115.2273000
  45.1754980  43.6904660 110.4201740  45.0651310  42.7478990 110.5451160
  45.1723230  44.0520300 111.3064500  47.2257100  40.2705500 116.7510420
  46.3975730  40.3398590 116.2760550  47.8207580  40.8559810 116.2826250
  44.1899110  37.0574820 117.6965290  43.7770290  37.8828530 117.9505280
  43.4575060  36.4719860 117.5041650  36.3231900  39.8434720 112.5583960
  35.9188900  39.1311970 112.0629860  36.4095020  39.4987960 113.4472000
  35.0360520  36.6177930 116.3383000  35.5875110  36.7273270 115.5636250
  35.5504030  36.9915530 117.0538230  35.8832030  43.2683970 121.3730970
  34.9860560  43.4923940 121.6204370  35.9084900  43.3918910 120.4242370
  34.7103250  40.1397290 119.9488340  34.5711020  41.0120090 120.3175740
  33.8284610  39.7970100 119.8036280  41.0332630  45.0573160 111.2553470
  41.4728540  45.7997490 110.8408860  40.9719520  45.2999730 112.1792430
  36.5083600  46.0818990 122.1573490  36.4799030  46.4861940 121.2901920
  36.3448570  45.1529350 121.9945090  46.5054390  31.3719900 105.6013270
  46.1927050  31.4646730 106.5012340  47.2666860  31.9500930 105.5510700
  33.0236530  38.7379700 110.0590610  32.9034130  39.4641790 109.4471880
  32.7137420  37.9682610 109.5818520  48.4598420  46.8646090 123.4537660
  48.9358140  47.3428980 124.1326740  49.0805580  46.7963580 122.7283160
  47.8631670  44.0558940 120.6137670  47.9894730  43.8170820 119.6954850
  47.9053050  43.2243480 121.0859750  43.7002810  48.0442280 108.6116480
  43.5403950  47.7545220 109.5098310  43.5349520  47.2682410 108.0761710
  36.1791190  47.8240810 110.3888100  36.0033670  46.9076350 110.1755900
  35.3246930  48.1828100 110.6285900  43.4028940  45.5529840 107.1714480
  42.7094100  45.5507130 106.5116760  44.1451800  45.1289160 106.7408650
  42.9678870  47.1792550 111.2462970  43.4235820  46.3981930 111.5601590
  43.3071390  47.8899370 111.7904150  47.7155680  36.1091400 121.5787410
  47.0999950  36.6171070 121.0502870  47.3952100  35.2089730 121.5213350
  30.7181420  42.9509010 118.4053710  30.8812460  42.4814370 117.5873080
  31.1833870  42.4432570 119.0702550  35.4900190  32.0814770 113.4414280
  35.0468340  32.8624310 113.1098800  36.0485180  32.4044660 114.1485220
  39.7770000  34.9483290 119.0449600  39.3149370  35.1566310 119.8569540
  39.3748110  34.1342640 118.7420270  44.7774510  36.1692240 120.1746260
  43.9268100  35.8697990 120.4955330  44.6176300  36.4134250 119.2630080
  41.8724220  37.6693990 122.2745050  42.1977630  36.8357740 121.9347280
  42.6604550  38.1922510 122.4223380  38.6059010  31.7025470 108.3220110
  37.9813190  31.6985340 109.0473420  38.5189130  30.8356430 107.9256080
  37.5276090  32.6262100 115.3003880  37.8248420  33.5324930 115.2195900
  38.0761650  32.1380880 114.6863450  35.2814410  37.2048340 111.1695530
  35.0555330  36.9885510 112.0742150  34.5006940  37.6376800 110.8241500
  37.7213620  38.1033920 121.8355800  37.6257220  37.1628650 121.6856200
  38.5645600  38.3248990 121.4403870  32.8524160  34.5147590 119.9889580
  32.4587550  35.3622800 120.1962360  32.1642560  33.8773960 120.1798220
  39.4269210  34.5982560 123.0586320  38.7367530  34.4054760 123.6932410
  40.1701510  34.8817200 123.5910620  30.1541210  32.4376050 114.0219660
  29.8654260  33.0078910 114.7344640  30.8986970  31.9580500 114.3850890
  30.3411440  36.3796170 105.2322380  30.2586110  37.3226930 105.3737370
  29.9894500  36.2371080 104.3534730  38.1409570  35.1135200 114.2992730
  38.1445630  34.6725150 113.4497270  39.0360690  35.4352530 114.4064550
  33.9911950  34.9961690 113.2586940  33.6512000  35.4736920 114.0153990
  33.2289270  34.5426810 112.8988040  42.1658090  33.8914680 115.3063180
  42.1830830  34.3423330 116.1505030  41.9173670  32.9920320 115.5196620
  45.5928840  31.3046860 121.1449560  45.9174610  30.5736520 121.6707540
  45.6285350  30.9860500 120.2430550  32.2920400  42.3260440 120.5649520
  31.9075190  41.6854110 121.1632480  32.6032590  43.0296560 121.1344250
  38.4417540  39.1736980 116.0458140  38.8087670  38.6995550 116.7919480
  38.2522600  40.0478550 116.3866480  31.3058030  33.9180670 112.1751610
  31.0204950  33.5536340 113.0130230  31.2436890  33.1861130 111.5614750
  36.2316910  38.2145620 118.3642350  35.9273980  39.0937600 118.5892710
  37.1863370  38.2745410 118.3999790  45.5186680  41.4171970 114.7535590
  46.2385800  41.9127260 114.3631700  45.3168500  40.7389860 114.1089460
  40.9796620  32.8109930 108.8964980  40.1661230  32.3123100 108.8210290
  40.7858570  33.6508180 108.4801330  39.6905600  43.3553270 107.8715310
  40.0321300  44.0995500 107.3758630  38.8618310  43.6684390 108.2340140
  32.2880640  39.0548360 119.5113710  31.9295580  39.7202210 120.0987050
  31.9935200  38.2231910 119.8826330  35.4893760  39.5132600 122.3953260
  35.1893900  39.6589780 121.4981080  36.2605000  38.9537890 122.3026650
  45.9659280  38.4941420 106.6607000  45.8823000  38.9255640 105.8103440
  46.6853470  38.9539770 107.0933820  47.0433420  40.9508940 119.7376970
  46.3181610  41.5437720 119.5406360  47.5708880  40.9432480 118.9390340
  46.9946530  45.3483680 109.3889130  46.3522690  44.6939300 109.6632850
  46.6077190  45.7538770 108.6129800  42.5733010  42.6769110 113.2360820
  42.9256830  42.0797240 112.5762190  41.6895340  42.3513340 113.4069070
  38.6596290  43.4366800 110.6431230  39.3467420  43.9836010 111.0238820
  37.8728710  43.9807530 110.6780840  33.8635280  30.7850480 110.7279110
  33.7349910  30.7768380 111.6764030  33.0397300  31.1233570 110.3770120
  45.3843910  44.2400140 105.9265480  45.1581490  43.5230580 106.5190120
  44.9940110  43.9912580 105.0887230  31.1659940  48.2667000 106.7009940
  31.5257580  48.8656340 106.0467210  31.0252280  48.8126890 107.4744970
  30.8629210  32.5441600 120.1885810  30.1487730  32.7438520 120.7938420
  31.2824250  31.7681170 120.5600610  44.9660160  42.1572080 107.5879640
  44.6781860  42.6184770 108.3757520  45.7612330  41.6969850 107.8563860
  31.1501800  46.5321860 121.1752340  31.2592920  45.5916600 121.0347730
  30.4982360  46.7976610 120.5266070  39.1414390  44.8037750 122.5750460
  38.8211260  44.0846990 123.1196150  38.4672750  45.4792820 122.6486520
  42.3567990  35.0363910 117.9387260  42.7248810  34.2159120 118.2666830
  41.4966190  35.0965800 118.3542910  45.7230020  33.9920850 108.7474820
  45.0943180  34.0966520 108.0333050  45.2281940  34.2117630 109.5368700
  39.3169980  37.6903500 118.1625230  39.8155230  38.1649320 118.8277080
  39.4592930  36.7667020 118.3695260  41.7229480  32.9957460 111.6028490
  41.5997260  33.0143590 110.6538000  42.6714040  33.0436400 111.7226890
  38.8106270  48.2312760 110.8756470  39.0647770  48.1934150 109.9535840
  37.8618750  48.1046090 110.8684720  35.8949070  34.5791880 107.5383410
  36.7439600  35.0162030 107.4723600  35.5280340  34.8912140 108.3655470
  46.5236840  33.9071460 119.0053620  46.0210440  34.6476860 119.3447430
  47.3393500  34.2955460 118.6890410  33.2960240  47.5990770 122.9871950
  34.0972970  47.9202820 123.4007350  32.7812060  47.2386350 123.7091860
  43.5625240  47.4350930 121.5456770  44.5146990  47.3508950 121.4957010
  43.4153460  48.0992640 122.2190560  46.4534440  46.8145140 107.0448680
  46.1675950  46.4010280 106.2302860  46.2553990  47.7432850 106.9249200
  31.0158050  40.0864230 121.9308000  31.5197070  39.5071510 122.5024230
  30.2765470  40.3704460 122.4684370  38.0695990  41.4935220 121.4643520
  37.3041660  42.0620220 121.3798190  38.2511950  41.2011430 120.5711750
  33.0481130  38.2293820 122.8258070  33.0886470  37.9307690 123.7343300
  33.9026630  38.6301430 122.6665590  34.9886940  36.8085920 120.7932560
  34.4583400  36.3176870 120.1655900  35.6575010  37.2370120 120.2590490
  44.3587170  38.6151540 122.5612900  44.9407940  37.8603860 122.4733380
  44.5348940  39.1458980 121.7844380  35.4759240  33.7748290 120.8729850
  35.3816110  33.1569040 120.1480720  34.8956630  34.5014580 120.6459760
  38.2420680  32.3321530 117.9057240  37.7937980  32.3545790 117.0602790
  37.6085880  31.9340550 118.5027540  35.7218420  36.9022600 104.9319740
  35.5207480  36.0389960 105.2933080  35.5510470  36.8155960 103.9941340
  36.4987650  47.5328870 119.6427410  35.9608740  48.2574930 119.3236110
  36.7521610  47.0559210 118.8524750  37.7512900  35.5013390 121.1683340
  38.3412590  35.1929240 121.8561160  36.9333140  35.0293140 121.3243240
  42.5706330  35.1179200 121.4016360  41.8821850  34.4560740 121.3366350
  43.2912350  34.6717470 121.8464820  43.2006730  31.7130830 107.4606620
  43.4809020  30.8698730 107.8166040  42.4272460  31.9453940 107.9745370
  34.5201220  34.0023220 104.9197620  34.8227120  34.0090650 104.0116770
  35.2595810  33.6521080 105.4165280  39.3549860  48.7680080 119.9014060
  39.2808560  49.6715220 120.2086430  38.4528700  48.4491980 119.8736130
  37.7386150  32.9457840 105.9053820  37.3908150  32.2681830 105.3256270
  37.9398920  32.4847350 106.7197210  35.3539070  44.4263680 110.8649650
  35.0534610  44.3028650 111.7653560  35.2476560  43.5672270 110.4565380
  46.8829540  46.4642260 120.2306620  46.2831530  46.5234820 119.4870540
  47.0123440  45.5247240 120.3603470  47.5787450  40.9507560 108.0710530
  48.3406360  41.5204210 108.1770220  47.5941820  40.3834760 108.8418840
  31.0791790  39.4745490 112.3018190  30.4240630  39.2057130 111.6577890
  31.9169740  39.3649970 111.8520170  48.5847420  41.8057660 112.9152460
  48.9556250  41.0224980 112.5088430  49.2249350  42.4946760 112.7369760
  44.0282230  34.2686780 106.5236680  44.4467110  34.0817760 105.6833340
  43.7218290  33.4165830 106.8339610  47.5271960  39.1810920 110.2212480
  47.1515560  38.4138850 109.7893770  46.7975080  39.5633620 110.7087410
  32.1167720  39.8598060 116.8421530  32.4840760  39.7725460 117.7217550
  31.5478540  39.0964610 116.7428390  46.9171580  38.3282440 119.8552000
  46.6857670  38.0995190 118.9549950  47.1776130  39.2481990 119.8096890
  31.6683720  36.7707150 120.7479950  30.7739770  36.7373910 121.0873660
  32.2081270  36.9693940 121.5131200  45.3559650  33.5538870 122.6331700
  46.2329830  33.5622270 123.0165700  45.3680490  32.8169710 122.0224050
  30.2929870  36.6844420 108.2443520  29.3893950  36.9474620 108.0695180
  30.7770490  36.9555590 107.4643480  46.8022920  37.4068410 113.5219720
  47.3260400  36.9131060 112.8909890  47.3882340  37.5418770 114.2667290
  46.9812640  37.4908280 117.0439270  46.0315350  37.4571820 117.1584260
  47.1625650  38.4008390 116.8089040  32.8357080  35.7409960 106.1537900
  33.5448780  35.3193180 105.6685180  32.1197020  35.8085190 105.5221250
  32.4831240  31.7949290 105.1940550  33.2059370  32.3358230 105.5121770
  32.7555760  31.5212710 104.3182090  46.2922890  36.6641760 109.4612130
  46.7882010  36.4312630 110.2461010  46.0938960  35.8253600 109.0449770
  32.1723430  31.0455480 115.0963170  32.8199620  30.4952860 114.6558330
  32.5925270  31.2998630 115.9178980  47.7210050  35.3002710 111.9949810
  47.6109330  35.1458750 112.9332080  48.4817640  34.7723650 111.7525220
  46.0675770  31.2396840 118.4532810  46.7047990  31.8530980 118.8192000
  46.2150660  31.2757500 117.5082040  48.6100320  33.1310630 105.2355950
  49.5349630  32.9991810 105.0274240  48.5876110  33.2103450 106.1892400
  48.6838810  33.9021290 107.8612660  47.8890310  33.8366410 108.3905570
  48.8882090  34.8371930 107.8498010  31.9255430  31.2011150 117.8388490
  31.5770250  31.6574970 118.6046670  31.5943130  30.3068280 117.9210920
  33.5319800  44.3730750 122.0041680  33.4889430  44.0023660 122.8856140
  33.6630810  45.3108320 122.1443500  39.4380250  32.3923030 121.3607910
  39.3769140  32.9844860 122.1103320  40.3780630  32.2848990 121.2158170
  42.0754810  32.0493090 121.0000200  42.6895220  32.3672380 120.3381280
  42.6204370  31.5641680 121.6196060  48.4929990  47.9484720 118.4062040
  47.9988270  48.3453590 117.6889170  47.8843280  47.3233930 118.7999320
  32.5976070  30.7287350 121.1139260  33.1459060  30.5475400 120.3505370
  32.6631380  29.9381460 121.6495570  33.3707830  47.3193000 119.1239460
  32.7768150  47.1877700 119.8629500  33.3631670  46.4831140 118.6581560
  42.8162850  30.6125230 117.3269490  41.9422690  30.9460340 117.1242420
  42.7073600  30.1398410 118.1521360  43.7234830  32.8196100 118.7111210
  43.3948190  32.0047860 118.3312940  44.6717130  32.7765910 118.5876900
  39.3460660  47.7904870 115.6865890  39.6338470  47.5359170 114.8098900
  39.8583880  47.2382230 116.2771460  40.5637670  31.5295070 116.2662400
  39.7809460  32.0040570 116.5459160  40.2700600  30.6249900 116.1575580
  45.1158740  32.2318170 114.3111490  45.5566830  32.1763270 113.4633090
  44.8466330  33.1476180 114.3821670  46.9797310  31.8633410 112.3220310
  46.9185710  30.9194630 112.1751330  47.7589340  31.9713500 112.8673770
  31.9078080  31.8342550 108.7876120  32.6657440  31.9471430 108.2140150
  31.4455250  32.6711750 108.7419550  42.9516870  30.6124270 113.0161500
  43.5546240  31.1844480 113.4910020  42.2109860  31.1763710 112.7935400
  46.0951470  31.0145830 108.2901780  46.2902100  31.9129280 108.5569210
  45.3081340  30.7832910 108.7834730  32.8912760  46.6959000 108.7294400
  32.3660380  47.0767030 108.0256360  32.8157340  47.3209770 109.4504110
  34.2803230  32.3606600 107.3278090  34.8095990  31.5736400 107.1986040
  34.9131550  33.0397790 107.5613620  36.4741070  32.0981740 110.3823480
  35.8443810  31.3969050 110.5493610  35.9346210  32.8585870 110.1656640
  39.4133020  48.7120970 123.0534090  40.3400330  48.4765240 123.0970050
  39.3983450  49.5392970 122.5720120  36.5996630  31.3765720 122.8175970
  36.3180900  31.8799320 122.0536790  36.9816330  30.5787470 122.4518100
  43.2012090  30.7919300 123.3956440  43.0877540  31.1113910 124.2907960
  44.0181830  31.1931810 123.0993720  45.9810580  47.9390830 122.8775130
  46.7735900  47.4440060 122.6701090  46.2743730  48.6180970 123.4850740
  42.1070240  38.8111770  93.7591180  42.0264290  37.8966380  93.4882890
  41.6934660  39.3078840  93.0530890  34.2554110  40.9010600  96.5176210
  33.4238990  40.6459310  96.9172720  34.8635090  40.9721370  97.2534130
  44.2595710  44.9950980  94.4199580  43.7977240  44.2238220  94.7486750
  45.0721260  45.0217050  94.9252030  32.6646060  35.8612490  90.3018600
  31.7762760  36.2028460  90.1998480  32.9487250  35.6612810  89.4099430
  30.6279070  38.4618140  96.1858300  31.1995180  37.6940340  96.1861940
  30.6280610  38.7606900  95.2764910  31.8703940  33.8702500  97.9727230
  31.6906780  32.9728250  98.2529990  31.4684020  34.4174370  98.6474180
  34.8407450  34.4443990  91.3356980  34.9474200  35.3447720  91.6425740
  33.9299810  34.3961960  91.0451630  44.4926560  33.5668800  92.8067880
  45.3136180  33.0765370  92.8493360  44.5260640  34.1566460  93.5599720
  32.4890610  36.3663000  96.5809570  33.1700720  36.6301370  97.1996970
  32.1738660  35.5263870  96.9147580  36.6815180  37.4130360  95.6682160
  37.1893400  37.9111330  96.3087180  37.2128420  36.6365560  95.4921520
  34.9651280  32.0528920  99.9345580  34.9669720  32.5701310  99.1291480
  34.1355590  31.5759100  99.9115510  41.3522370  42.1648230  91.4335480
  40.7339640  42.6297680  90.8698200  41.8645620  42.8575710  91.8504990
  44.7288040  35.5069180  95.5795420  44.0243610  35.7954070  96.1598530
  45.0900200  36.3169290  95.2194980  34.6466610  33.7638880  97.9416030
  34.9883420  34.6080930  97.6469900  33.7082420  33.9122620  98.0581370
  30.7205570  42.8504760  88.8075110  30.3433550  43.3391860  88.0760010
  30.9778640  43.5230040  89.4381640  46.3450820  45.1244310  97.8422900
  45.6614340  45.7943420  97.8339570  46.8845110  45.3224960  97.0767760
  47.7974960  34.9523970  95.9704630  46.8499870  34.9862950  96.1020060
  48.1224950  35.7662920  96.3553990  43.8809560  46.9688440  96.5568080
  43.8936720  46.5650730  95.6890340  43.3284780  47.7435730  96.4529510
  45.1754980  43.6904660  91.6458250  45.0651310  42.7478990  91.7707670
  45.1723230  44.0520300  92.5321010  43.2795000  41.8718280  97.8850690
  43.6963790  41.6578390  97.0504150  44.0034820  42.1291070  98.4559310
  40.7175260  39.3169980  91.0020740  39.7904540  39.2507360  91.2309210
  40.8700080  40.2550110  90.8875980  40.7044340  35.5886980  87.9987900
  39.7648010  35.7500940  88.0840360  41.0227600  36.3072660  87.4523890
  44.7472550  40.8790280  91.5055990  44.1284970  40.5409830  90.8582290
  44.7297000  40.2350040  92.2135180  36.3231900  39.8434720  93.7840470
  35.9188900  39.1311970  93.2886370  36.4095020  39.4987960  94.6728510
  35.0360520  36.6177930  97.5639510  35.5875110  36.7273270  96.7892760
  35.5504030  36.9915530  98.2794740  44.8799210  47.1034150  99.6102780
  44.4029770  47.9106340  99.4175390  44.1961000  46.4512480  99.7628990
  42.9237250  40.1177090  88.5128740  43.3630530  39.2799520  88.3666560
  43.6365670  40.7506490  88.5992880  41.0332630  45.0573160  92.4809980
  41.4728540  45.7997490  92.0665370  40.9719520  45.2999730  93.4048940
  33.0236530  38.7379700  91.2847120  32.9034130  39.4641790  90.6728390
  32.7137420  37.9682610  90.8075030  30.6621900  41.9094840  97.0915760
  30.7402320  42.0443610  96.1471480  31.2763580  41.2010730  97.2843880
  31.9069530  43.6095030  93.5021940  31.4997610  43.7509620  92.6475540
  32.7982540  43.3255190  93.2993150  47.8631670  44.0558940 101.8394180
  47.9894730  43.8170820 100.9211360  47.9053050  43.2243480 102.3116260
  41.7248410  47.7586940 100.4088990  42.2393080  47.6694950 101.2111420
  40.8817490  48.1046640 100.7016900  42.9678870  47.1792550  92.4719480
  43.4235820  46.3981930  92.7858100  43.3071390  47.8899370  93.0160660
  30.7181420  42.9509010  99.6310220  30.8812460  42.4814370  98.8129590
  31.1833870  42.4432570 100.2959060  35.4900190  32.0814770  94.6670790
  35.0468340  32.8624310  94.3355310  36.0485180  32.4044660  95.3741730
  44.7774510  36.1692240 101.4002770  43.9268100  35.8697990 101.7211840
  44.6176300  36.4134250 100.4886590  35.2814410  37.2048340  92.3952040
  35.0555330  36.9885510  93.2998660  34.5006940  37.6376800  92.0498010
  42.5112170  37.2111710  90.9942690  41.9121060  37.9347510  90.8106310
  43.0591780  37.1488490  90.2119140  41.1177040  35.8475250  93.0245970
  41.5106610  36.1647450  92.2114660  41.4793890  34.9687130  93.1390490
  32.8524160  34.5147590 101.2146090  32.4587550  35.3622800 101.4218870
  32.1642560  33.8773960 101.4054730  30.1541210  32.4376050  95.2476170
  29.8654260  33.0078910  95.9601150  30.8986970  31.9580500  95.6107400
  30.3411440  36.3796170  86.4578890  30.2586110  37.3226930  86.5993880
  29.9894500  36.2371080  85.5791240  41.7032180  38.4381000  97.1196750
  40.9713300  38.9467810  97.4686850  41.3056520  37.6210980  96.8185530
  33.9911950  34.9961690  94.4843450  33.6512000  35.4736920  95.2410500
  33.2289270  34.5426810  94.1244550  38.2029720  36.1147280  88.5156000
  38.3242540  36.0733760  89.4641820  37.8178230  36.9771430  88.3602730
  32.2920400  42.3260440 101.7906030  31.9075190  41.6854110 102.3888990
  32.6032590  43.0296560 102.3600760  38.4417540  39.1736980  97.2714650
  38.8087670  38.6995550  98.0175990  38.2522600  40.0478550  97.6122990
  31.3058030  33.9180670  93.4008120  31.0204950  33.5536340  94.2386740
  31.2436890  33.1861130  92.7871260  36.2316910  38.2145620  99.5898860
  35.9273980  39.0937600  99.8149220  37.1863370  38.2745410  99.6256300
  34.7598700  42.4206610  90.1865710  33.9860960  41.8804230  90.0264430
  35.4893330  41.9013220  89.8483470  45.5186680  41.4171970  95.9792100
  46.2385800  41.9127260  95.5888210  45.3168500  40.7389860  95.3345970
  43.6945010  37.1829580  88.4183650  44.5824630  37.4946810  88.2434990
  43.6650100  36.3101830  88.0264230  32.2880640  39.0548360 100.7370220
  31.9295580  39.7202210 101.3243560  31.9935200  38.2231910 101.1082840
  45.9659280  38.4941420  87.8863510  45.8823000  38.9255640  87.0359950
  46.6853470  38.9539770  88.3190330  46.9946530  45.3483680  90.6145640
  46.3522690  44.6939300  90.8889360  46.6077190  45.7538770  89.8386310
  42.5733010  42.6769110  94.4617330  42.9256830  42.0797240  93.8018700
  41.6895340  42.3513340  94.6325580  38.6596290  43.4366800  91.8687740
  39.3467420  43.9836010  92.2495330  37.8728710  43.9807530  91.9037350
  30.7988690  39.0539620  87.3604820  31.6683540  39.3364420  87.6440740
  30.3079010  39.8675490  87.2453630  37.9623500  40.4412830  91.4813100
  38.4186280  41.2518080  91.7073290  37.6111710  40.1235970  92.3131590
  33.8635280  30.7850480  91.9535620  33.7349910  30.7768380  92.9020540
  33.0397300  31.1233570  91.6026630  45.3843910  44.2400140  87.1521990
  45.1581490  43.5230580  87.7446630  44.9940110  43.9912580  86.3143740
  43.3125810  44.7546420 100.6318910  43.6482050  45.3413110 101.3096830
  42.3926150  44.6239130 100.8616700  30.8629210  32.5441600 101.4142320
  30.1487730  32.7438520 102.0194930  31.2824250  31.7681170 101.7857120
  44.9660160  42.1572080  88.8136150  44.6781860  42.6184770  89.6014030
  45.7612330  41.6969850  89.0820370  31.1501800  46.5321860 102.4008850
  31.2592920  45.5916600 102.2604240  30.4982360  46.7976610 101.7522580
  32.7835200  40.8713090  89.4886880  32.1763150  41.6111990  89.4982180
  33.2584550  40.9612450  88.6625080  37.6914050  36.2706800  91.3889210
  36.9830200  36.7393140  91.8302820  37.9758530  35.6128810  92.0234400
  39.3169980  37.6903500  99.3881740  39.8155230  38.1649320 100.0533590
  39.4592930  36.7667020  99.5951770  41.7229480  32.9957460  92.8285000
  41.5997260  33.0143590  91.8794510  42.6714040  33.0436400  92.9483400
  35.8949070  34.5791880  88.7639920  36.7439600  35.0162030  88.6980110
  35.5280340  34.8912140  89.5911980  44.8158850  39.1504640  93.6771490
  43.8748990  39.1654870  93.8519180  45.1302920  38.3640600  94.1231790
  46.8184430  46.3213490  95.3525750  46.9431850  47.1444660  95.8249560
  47.6849990  46.1104220  95.0049900  31.1747440  44.4818270  90.8984390
  30.2487220  44.7239410  90.8889800  31.6403870  45.3092530  90.7769140
  43.5625240  47.4350930 102.7713280  44.5146990  47.3508950 102.7213520
  43.4153460  48.0992640 103.4447070  46.4534440  46.8145140  88.2705190
  46.1675950  46.4010280  87.4559370  46.2553990  47.7432850  88.1505710
  41.1584400  41.8698450  87.3152790  40.6094500  42.3167750  87.9595530
  41.7803660  41.3647700  87.8390460  45.2119340  43.2240550 103.2475050
  45.9528810  43.5616310 102.7442510  44.4492020  43.3932610 102.6944820
  36.8259520  40.8289370  89.2118090  37.2475940  40.6629240  90.0549480
  36.9510360  40.0189600  88.7173230  34.9886940  36.8085920 102.0189070
  34.4583400  36.3176870 101.3912410  35.6575010  37.2370120 101.4847000
  39.3387160  39.8526980  86.4595190  39.8592820  39.1376000  86.0936340
  39.9855560  40.4912850  86.7595700  35.4759240  33.7748290 102.0986360
  35.3816110  33.1569040 101.3737230  34.8956630  34.5014580 101.8716270
  40.9844130  38.9592040 101.1364030  41.1040340  38.3633180 101.8758870
  41.8438130  38.9961730 100.7165330  37.7512900  35.5013390 102.3939850
  38.3412590  35.1929240 103.0817670  36.9333140  35.0293140 102.5499750
  42.5706330  35.1179200 102.6272870  41.8821850  34.4560740 102.5622860
  43.2912350  34.6717470 103.0721330  34.5201220  34.0023220  86.1454130
  34.8227120  34.0090650  85.2373280  35.2595810  33.6521080  86.6421790
  37.7386150  32.9457840  87.1310330  37.3908150  32.2681830  86.5512780
  37.9398920  32.4847350  87.9453720  30.7577150  46.0954670  94.4304190
  31.0880160  45.2275730  94.1982830  31.1868150  46.3013190  95.2609150
  31.2467360  46.9625260  97.1685820  30.8098350  47.1426060  98.0009970
  31.8145040  47.7199880  97.0267540  46.8829540  46.4642260 101.4563130
  46.2831530  46.5234820 100.7127050  47.0123440  45.5247240 101.5859980
  48.1230990  44.2060080  86.7932840  47.2923950  44.2736730  87.2640070
  48.3002820  45.0964200  86.4899700  47.5787450  40.9507560  89.2967040
  48.3406360  41.5204210  89.4026730  47.5941820  40.3834760  90.0675350
  31.0791790  39.4745490  93.5274700  30.4240630  39.2057130  92.8834400
  31.9169740  39.3649970  93.0776680  48.5847420  41.8057660  94.1408970
  48.9556250  41.0224980  93.7344940  49.2249350  42.4946760  93.9626270
  45.5681180  43.1894240  99.5539290  44.7541020  43.6191400  99.8165080
  45.9755380  43.8012650  98.9408340  47.6306620  41.2441930  86.4539560
  47.9055460  42.1520810  86.3258780  47.4417360  41.1804460  87.3901550
  47.5271960  39.1810920  91.4468990  47.1515560  38.4138850  91.0150280
  46.7975080  39.5633620  91.9343920  32.1167720  39.8598060  98.0678040
  32.4840760  39.7725460  98.9474060  31.5478540  39.0964610  97.9684900
  31.6683720  36.7707150 101.9736460  30.7739770  36.7373910 102.3130170
  32.2081270  36.9693940 102.7387710  45.3559650  33.5538870 103.8588210
  46.2329830  33.5622270 104.2422210  45.3680490  32.8169710 103.2480560
  30.2929870  36.6844420  89.4700030  29.3893950  36.9474620  89.2951690
  30.7770490  36.9555590  88.6899990  32.8357080  35.7409960  87.3794410
  33.5448780  35.3193180  86.8941690  32.1197020  35.8085190  86.7477760
  32.4831240  31.7949290  86.4197060  33.2059370  32.3358230  86.7378280
  32.7555760  31.5212710  85.5438600  46.2922890  36.6641760  90.6868640
  46.7882010  36.4312630  91.4717520  46.0938960  35.8253600  90.2706280
  32.1723430  31.0455480  96.3219680  32.8199620  30.4952860  95.8814840
  32.5925270  31.2998630  97.1435490  47.7210050  35.3002710  93.2206320
  47.6109330  35.1458750  94.1588590  48.4817640  34.7723650  92.9781730
  45.6257230  47.9412840  93.0807560  46.2216300  47.6197410  92.4041980
  45.8835380  47.4684660  93.8720830  31.9255430  31.2011150  99.0645000
  31.5770250  31.6574970  99.8303180  31.5943130  30.3068280  99.1467430
  48.4929990  47.9484720  99.6318550  47.9988270  48.3453590  98.9145680
  47.8843280  47.3233930 100.0255830  32.5976070  30.7287350 102.3395770
  33.1459060  30.5475400 101.5761880  32.6631380  29.9381460 102.8752080
  33.3707830  47.3193000 100.3495970  32.7768150  47.1877700 101.0886010
  33.3631670  46.4831140  99.8838070  46.1769440  48.5908140  96.9105290
  45.7172410  49.3423950  96.5363310  45.5481900  47.8714610  96.8520090
  33.0020060  44.6851380  99.3004010  32.2754120  44.0656670  99.2329960
  33.0629210  45.0791990  98.4302090  45.1158740  32.2318170  95.5368000
  45.5566830  32.1763270  94.6889600  44.8466330  33.1476180  95.6078180
  46.9797310  31.8633410  93.5476820  46.9185710  30.9194630  93.4007840
  47.7589340  31.9713500  94.0930280  31.2850060  48.0025770  92.5100770
  31.1172100  47.3696450  93.2082660  30.4184570  48.2085170  92.1594960
  31.9078080  31.8342550  90.0132630  32.6657440  31.9471430  89.4396660
  31.4455250  32.6711750  89.9676060  32.8912760  46.6959000  89.9550910
  32.3660380  47.0767030  89.2512870  32.8157340  47.3209770  90.6760620
  47.6478080  48.2546540  91.2764850  47.8230270  47.5684280  90.6325770
  46.9499650  48.7793590  90.8841520  36.5996630  31.3765720 104.0432480
  36.3180900  31.8799320 103.2793300  36.9816330  30.5787470 103.6774610
  34.6520520  44.7606110  88.8346490  34.0229400  45.2291210  89.3832320
  34.7668350  43.9155330  89.2692680  43.2012090  30.7919300 104.6212950
  43.0877540  31.1113910 105.5164470  44.0181830  31.1931810 104.3250230
  45.9810580  47.9390830 104.1031640  46.7735900  47.4440060 103.8957600
  46.2743730  48.6180970 104.7107250  42.1070240  38.8111770  74.9847690
  42.0264290  37.8966380  74.7139400  41.6934660  39.3078840  74.2787400
  40.2388280  40.5890790  76.8656960  39.4630380  40.1091230  77.1555530
  40.8901210  39.9096440  76.6913120  34.2554110  40.9010600  77.7432720
  33.4238990  40.6459310  78.1429230  34.8635090  40.9721370  78.4790640
  44.2595710  44.9950980  75.6456090  43.7977240  44.2238220  75.9743260
  45.0721260  45.0217050  76.1508540  34.2355370  44.9350690  77.9390740
  34.5383410  44.0448430  77.7600960  34.9798960  45.4920910  77.7112990
  32.6646060  35.8612490  71.5275110  31.7762760  36.2028460  71.4254990
  32.9487250  35.6612810  70.6355940  30.6279070  38.4618140  77.4114810
  31.1995180  37.6940340  77.4118450  30.6280610  38.7606900  76.5021420
  40.4859020  47.2808990  75.2660080  39.8670460  47.7366490  74.6954520
  41.3410800  47.4360450  74.8649780  39.6797270  43.2647980  76.8727120
  39.6105550  42.3237920  76.7116250  40.4417130  43.3549390  77.4449690
  34.8407450  34.4443990  72.5613490  34.9474200  35.3447720  72.8682250
  33.9299810  34.3961960  72.2708140  44.4926560  33.5668800  74.0324390
  45.3136180  33.0765370  74.0749870  44.5260640  34.1566460  74.7856230
  48.7826110  35.5835550  80.5968020  48.0778280  35.9717260  80.0783130
  49.0484030  36.2785840  81.1988950  34.9651280  32.0528920  81.1602090
  34.9669720  32.5701310  80.3547990  34.1355590  31.5759100  81.1372020
  41.3522370  42.1648230  72.6591990  40.7339640  42.6297680  72.0954710
  41.8645620  42.8575710  73.0761500  44.7288040  35.5069180  76.8051930
  44.0243610  35.7954070  77.3855040  45.0900200  36.3169290  76.4451490
  46.3450820  45.1244310  79.0679410  45.6614340  45.7943420  79.0596080
  46.8845110  45.3224960  78.3024270  47.7974960  34.9523970  77.1961140
  46.8499870  34.9862950  77.3276570  48.1224950  35.7662920  77.5810500
  43.8809560  46.9688440  77.7824590  43.8936720  46.5650730  76.9146850
  43.3284780  47.7435730  77.6786020  45.1754980  43.6904660  72.8714760
  45.0651310  42.7478990  72.9964180  45.1723230  44.0520300  73.7577520
  43.2795000  41.8718280  79.1107200  43.6963790  41.6578390  78.2760660
  44.0034820  42.1291070  79.6815820  40.7175260  39.3169980  72.2277250
  39.7904540  39.2507360  72.4565720  40.8700080  40.2550110  72.1132490
  40.7044340  35.5886980  69.2244410  39.7648010  35.7500940  69.3096870
  41.0227600  36.3072660  68.6780400  47.2257100  40.2705500  79.2023440
  46.3975730  40.3398590  78.7273570  47.8207580  40.8559810  78.7339270
  44.7472550  40.8790280  72.7312500  44.1284970  40.5409830  72.0838800
  44.7297000  40.2350040  73.4391690  44.1899110  37.0574820  80.1478310
  43.7770290  37.8828530  80.4018300  43.4575060  36.4719860  79.9554670
  36.7913600  43.5302280  77.1736190  36.4941890  42.9247750  76.4943970
  37.7413420  43.5679590  77.0625550  44.8799210  47.1034150  80.8359290
  44.4029770  47.9106340  80.6431900  44.1961000  46.4512480  80.9885500
  42.9237250  40.1177090  69.7385250  43.3630530  39.2799520  69.5923070
  43.6365670  40.7506490  69.8249390  41.0332630  45.0573160  73.7066490
  41.4728540  45.7997490  73.2921880  40.9719520  45.2999730  74.6305450
  46.5054390  31.3719900  68.0526290  46.1927050  31.4646730  68.9525360
  47.2666860  31.9500930  68.0023720  48.4598420  46.8646090  85.9050680
  48.9358140  47.3428980  86.5839760  49.0805580  46.7963580  85.1796180
  47.8631670  44.0558940  83.0650690  47.9894730  43.8170820  82.1467870
  47.9053050  43.2243480  83.5372770  41.7248410  47.7586940  81.6345500
  42.2393080  47.6694950  82.4367930  40.8817490  48.1046640  81.9273410
  43.7002810  48.0442280  71.0629500  43.5403950  47.7545220  71.9611330
  43.5349520  47.2682410  70.5274730  36.1791190  47.8240810  72.8401120
  36.0033670  46.9076350  72.6268920  35.3246930  48.1828100  73.0798920
  43.4028940  45.5529840  69.6227500  42.7094100  45.5507130  68.9629780
  44.1451800  45.1289160  69.1921670  42.9678870  47.1792550  73.6975990
  43.4235820  46.3981930  74.0114610  43.3071390  47.8899370  74.2417170
  47.7155680  36.1091400  84.0300430  47.0999950  36.6171070  83.5015890
  47.3952100  35.2089730  83.9726370  30.7181420  42.9509010  80.8566730
  30.8812460  42.4814370  80.0386100  31.1833870  42.4432570  81.5215570
  39.7770000  34.9483290  81.4962620  39.3149370  35.1566310  82.3082560
  39.3748110  34.1342640  81.1933290  44.7774510  36.1692240  82.6259280
  43.9268100  35.8697990  82.9468350  44.6176300  36.4134250  81.7143100
  41.8724220  37.6693990  84.7258070  42.1977630  36.8357740  84.3860300
  42.6604550  38.1922510  84.8736400  38.6059010  31.7025470  70.7733130
  37.9813190  31.6985340  71.4986440  38.5189130  30.8356430  70.3769100
  42.5112170  37.2111710  72.2199200  41.9121060  37.9347510  72.0362820
  43.0591780  37.1488490  71.4375650  41.1177040  35.8475250  74.2502480
  41.5106610  36.1647450  73.4371170  41.4793890  34.9687130  74.3647000
  32.8524160  34.5147590  82.4402600  32.4587550  35.3622800  82.6475380
  32.1642560  33.8773960  82.6311240  39.4269210  34.5982560  85.5099340
  38.7367530  34.4054760  86.1445430  40.1701510  34.8817200  86.0423640
  30.1541210  32.4376050  76.4732680  29.8654260  33.0078910  77.1857660
  30.8986970  31.9580500  76.8363910  30.3411440  36.3796170  67.6835400
  30.2586110  37.3226930  67.8250390  29.9894500  36.2371080  66.8047750
  41.7032180  38.4381000  78.3453260  40.9713300  38.9467810  78.6943360
  41.3056520  37.6210980  78.0442040  38.2029720  36.1147280  69.7412510
  38.3242540  36.0733760  70.6898330  37.8178230  36.9771430  69.5859240
  42.1658090  33.8914680  77.7576200  42.1830830  34.3423330  78.6018050
  41.9173670  32.9920320  77.9709640  31.3058030  33.9180670  74.6264630
  31.0204950  33.5536340  75.4643250  31.2436890  33.1861130  74.0127770
  45.5186680  41.4171970  77.2048610  46.2385800  41.9127260  76.8144720
  45.3168500  40.7389860  76.5602480  40.9796620  32.8109930  71.3478000
  40.1661230  32.3123100  71.2723310  40.7858570  33.6508180  70.9314350
  40.9005480  41.4881030  83.0917610  40.8342790  40.5676700  82.8375200
  40.2710620  41.5856470  83.8062250  43.6945010  37.1829580  69.6440160
  44.5824630  37.4946810  69.4691500  43.6650100  36.3101830  69.2520740
  40.8322210  44.3101600  82.8421410  40.8466750  43.3782560  82.6240320
  40.1247310  44.3961360  83.4811180  45.9659280  38.4941420  69.1120020
  45.8823000  38.9255640  68.2616460  46.6853470  38.9539770  69.5446840
  47.0433420  40.9508940  82.1889990  46.3181610  41.5437720  81.9919380
  47.5708880  40.9432480  81.3903360  42.5733010  42.6769110  75.6873840
  42.9256830  42.0797240  75.0275210  41.6895340  42.3513340  75.8582090
  40.2656110  45.9519170  79.9361910  40.9098330  46.1578550  80.6135330
  40.6285550  45.1907570  79.4832760  33.8635280  30.7850480  73.1792130
  33.7349910  30.7768380  74.1277050  33.0397300  31.1233570  72.8283140
  41.5388190  43.9551520  78.6539360  42.1810420  43.2544680  78.7671530
  42.0637540  44.7349960  78.4736250  45.3843910  44.2400140  68.3778500
  45.1581490  43.5230580  68.9703140  44.9940110  43.9912580  67.5400250
  43.3125810  44.7546420  81.8575420  43.6482050  45.3413110  82.5353340
  42.3926150  44.6239130  82.0873210  30.8629210  32.5441600  82.6398830
  30.1487730  32.7438520  83.2451440  31.2824250  31.7681170  83.0113630
  44.9660160  42.1572080  70.0392660  44.6781860  42.6184770  70.8270540
  45.7612330  41.6969850  70.3076880  42.3567990  35.0363910  80.3900280
  42.7248810  34.2159120  80.7179850  41.4966190  35.0965800  80.8055930
  45.7230020  33.9920850  71.1987840  45.0943180  34.0966520  70.4846070
  45.2281940  34.2117630  71.9881720  40.1688160  45.7126440  68.6321820
  40.2700140  45.5090430  67.7023800  39.2689900  45.4584720  68.8369600
  37.6914050  36.2706800  72.6145720  36.9830200  36.7393140  73.0559330
  37.9758530  35.6128810  73.2490910  41.7229480  32.9957460  74.0541510
  41.5997260  33.0143590  73.1051020  42.6714040  33.0436400  74.1739910
  38.8106270  48.2312760  73.3269490  39.0647770  48.1934150  72.4048860
  37.8618750  48.1046090  73.3197740  35.8949070  34.5791880  69.9896430
  36.7439600  35.0162030  69.9236620  35.5280340  34.8912140  70.8168490
  46.5236840  33.9071460  81.4566640  46.0210440  34.6476860  81.7960450
  47.3393500  34.2955460  81.1403430  44.8158850  39.1504640  74.9028000
  43.8748990  39.1654870  75.0775690  45.1302920  38.3640600  75.3488300
  46.8184430  46.3213490  76.5782260  46.9431850  47.1444660  77.0506070
  47.6849990  46.1104220  76.2306410  37.4004270  47.5875010  68.0724960
  38.1932880  47.8763840  67.6206750  36.8808620  47.1567180  67.3937440
  46.4534440  46.8145140  69.4961700  46.1675950  46.4010280  68.6815880
  46.2553990  47.7432850  69.3762220  41.1584400  41.8698450  68.5409300
  40.6094500  42.3167750  69.1852040  41.7803660  41.3647700  69.0646970
  45.2119340  43.2240550  84.4731560  45.9528810  43.5616310  83.9699020
  44.4492020  43.3932610  83.9201330  39.3387160  39.8526980  67.6851700
  39.8592820  39.1376000  67.3192850  39.9855560  40.4912850  67.9852210
  43.8865000  41.2755380  83.0086770  44.3006020  41.4300460  83.8577190
  42.9516000  41.4010600  83.1712550  44.3587170  38.6151540  85.0125920
  44.9407940  37.8603860  84.9246400  44.5348940  39.1458980  84.2357400
  35.4759240  33.7748290  83.3242870  35.3816110  33.1569040  82.5993740
  34.8956630  34.5014580  83.0972780  38.6480230  41.2275860  80.9782700
  39.0668340  42.0708590  80.8058940  37.7288860  41.3647900  80.7489480
  40.9844130  38.9592040  82.3620540  41.1040340  38.3633180  83.1015380
  41.8438130  38.9961730  81.9421840  43.3232030  39.5129230  80.9383050
  42.7967250  40.0371850  80.3348190  43.6663370  40.1456620  81.5692780
  35.7218420  36.9022600  67.3832760  35.5207480  36.0389960  67.7446100
  35.5510470  36.8155960  66.4454360  37.7512900  35.5013390  83.6196360
  38.3412590  35.1929240  84.3074180  36.9333140  35.0293140  83.7756260
  42.5706330  35.1179200  83.8529380  41.8821850  34.4560740  83.7879370
  43.2912350  34.6717470  84.2977840  43.2006730  31.7130830  69.9119640
  43.4809020  30.8698730  70.2679060  42.4272460  31.9453940  70.4258390
  34.5201220  34.0023220  67.3710640  34.8227120  34.0090650  66.4629790
  35.2595810  33.6521080  67.8678300  37.7386150  32.9457840  68.3566840
  37.3908150  32.2681830  67.7769290  37.9398920  32.4847350  69.1710230
  39.9035190  47.9338590  69.9753440  40.7985980  48.2723560  69.9972200
  39.9352820  47.2118000  69.3477720  46.8829540  46.4642260  82.6819640
  46.2831530  46.5234820  81.9383560  47.0123440  45.5247240  82.8116490
  47.5787450  40.9507560  70.5223550  48.3406360  41.5204210  70.6283240
  47.5941820  40.3834760  71.2931860  48.5847420  41.8057660  75.3665480
  48.9556250  41.0224980  74.9601450  49.2249350  42.4946760  75.1882780
  45.5681180  43.1894240  80.7795800  44.7541020  43.6191400  81.0421590
  45.9755380  43.8012650  80.1664850  47.6306620  41.2441930  67.6796070
  47.9055460  42.1520810  67.5515290  47.4417360  41.1804460  68.6158060
  44.0282230  34.2686780  68.9749700  44.4467110  34.0817760  68.1346360
  43.7218290  33.4165830  69.2852630  47.5271960  39.1810920  72.6725500
  47.1515560  38.4138850  72.2406790  46.7975080  39.5633620  73.1600430
  46.9171580  38.3282440  82.3065020  46.6857670  38.0995190  81.4062970
  47.1776130  39.2481990  82.2609910  30.2929870  36.6844420  70.6956540
  29.3893950  36.9474620  70.5208200  30.7770490  36.9555590  69.9156500
  46.8022920  37.4068410  75.9732740  47.3260400  36.9131060  75.3422910
  47.3882340  37.5418770  76.7180310  46.9812640  37.4908280  79.4952290
  46.0315350  37.4571820  79.6097280  47.1625650  38.4008390  79.2602060
  32.8357080  35.7409960  68.6050920  33.5448780  35.3193180  68.1198200
  32.1197020  35.8085190  67.9734270  32.4831240  31.7949290  67.6453570
  33.2059370  32.3358230  67.9634790  32.7555760  31.5212710  66.7695110
  46.2922890  36.6641760  71.9125150  46.7882010  36.4312630  72.6974030
  46.0938960  35.8253600  71.4962790  32.1723430  31.0455480  77.5476190
  32.8199620  30.4952860  77.1071350  32.5925270  31.2998630  78.3692000
  47.7210050  35.3002710  74.4462830  47.6109330  35.1458750  75.3845100
  48.4817640  34.7723650  74.2038240  46.0675770  31.2396840  80.9045830
  46.7047990  31.8530980  81.2705020  46.2150660  31.2757500  79.9595060
  48.6100320  33.1310630  67.6868970  49.5349630  32.9991810  67.4787260
  48.5876110  33.2103450  68.6405420  48.6838810  33.9021290  70.3125680
  47.8890310  33.8366410  70.8418590  48.8882090  34.8371930  70.3011030
  45.6257230  47.9412840  74.3064070  46.2216300  47.6197410  73.6298490
  45.8835380  47.4684660  75.0977340  31.9255430  31.2011150  80.2901510
  31.5770250  31.6574970  81.0559690  31.5943130  30.3068280  80.3723940
  37.2325830  45.9290340  80.0564420  36.9917190  46.1964900  79.1694940
  38.1728470  46.0996070  80.1115280  39.4380250  32.3923030  83.8120930
  39.3769140  32.9844860  84.5616340  40.3780630  32.2848990  83.6671190
  32.5976070  30.7287350  83.5652280  33.1459060  30.5475400  82.8018390
  32.6631380  29.9381460  84.1008590  43.7234830  32.8196100  81.1624230
  43.3948190  32.0047860  80.7825960  44.6717130  32.7765910  81.0389920
  46.1769440  48.5908140  78.1361800  45.7172410  49.3423950  77.7619820
  45.5481900  47.8714610  78.0776600  36.6065160  46.8996380  77.3109930
  37.1230180  46.2883740  76.7858190  37.2562540  47.4025160  77.8020940
  39.3460660  47.7904870  78.1378910  39.6338470  47.5359170  77.2611920
  39.8583880  47.2382230  78.7284480  45.1158740  32.2318170  76.7624510
  45.5566830  32.1763270  75.9146110  44.8466330  33.1476180  76.8334690
  46.9797310  31.8633410  74.7733330  46.9185710  30.9194630  74.6264350
  47.7589340  31.9713500  75.3186790  31.9078080  31.8342550  71.2389140
  32.6657440  31.9471430  70.6653170  31.4455250  32.6711750  71.1932570
  46.0951470  31.0145830  70.7414800  46.2902100  31.9129280  71.0082230
  45.3081340  30.7832910  71.2347750  34.2803230  32.3606600  69.7791110
  34.8095990  31.5736400  69.6499060  34.9131550  33.0397790  70.0126640
  36.4741070  32.0981740  72.8336500  35.8443810  31.3969050  73.0006630
  35.9346210  32.8585870  72.6169660  47.6478080  48.2546540  72.5021360
  47.8230270  47.5684280  71.8582280  46.9499650  48.7793590  72.1098030
  36.5996630  31.3765720  85.2688990  36.3180900  31.8799320  84.5049810
  36.9816330  30.5787470  84.9031120  35.4905730  48.6441380  70.0556670
  36.2224550  48.3600660  69.5080560  35.7499400  48.4054660  70.9456050
  45.9810580  47.9390830  85.3288150  46.7735900  47.4440060  85.1214110
  46.2743730  48.6180970  85.9363760  40.2388280  40.5890790  58.0913470
  39.4630380  40.1091230  58.3812040  40.8901210  39.9096440  57.9169630
  34.2554110  40.9010600  58.9689230  33.4238990  40.6459310  59.3685740
  34.8635090  40.9721370  59.7047150  44.2595710  44.9950980  56.8712600
  43.7977240  44.2238220  57.1999770  45.0721260  45.0217050  57.3765050
  34.2355370  44.9350690  59.1647250  34.5383410  44.0448430  58.9857470
  34.9798960  45.4920910  58.9369500  32.6646060  35.8612490  52.7531620
  31.7762760  36.2028460  52.6511500  32.9487250  35.6612810  51.8612450
  40.4859020  47.2808990  56.4916590  39.8670460  47.7366490  55.9211030
  41.3410800  47.4360450  56.0906290  39.6797270  43.2647980  58.0983630
  39.6105550  42.3237920  57.9372760  40.4417130  43.3549390  58.6706200
  31.8703940  33.8702500  60.4240250  31.6906780  32.9728250  60.7043010
  31.4684020  34.4174370  61.0987200  34.8407450  34.4443990  53.7870000
  34.9474200  35.3447720  54.0938760  33.9299810  34.3961960  53.4964650
  32.4890610  36.3663000  59.0322590  33.1700720  36.6301370  59.6509990
  32.1738660  35.5263870  59.3660600  36.6815180  37.4130360  58.1195180
  37.1893400  37.9111330  58.7600200  37.2128420  36.6365560  57.9434540
  34.9651280  32.0528920  62.3858600  34.9669720  32.5701310  61.5804500
  34.1355590  31.5759100  62.3628530  41.3522370  42.1648230  53.8848500
  40.7339640  42.6297680  53.3211220  41.8645620  42.8575710  54.3018010
  36.2154130  41.6924100  60.5632100  35.8823510  42.3193020  61.2053170
  36.3920810  42.2185980  59.7833770  34.6466610  33.7638880  60.3929050
  34.9883420  34.6080930  60.0982920  33.7082420  33.9122620  60.5094390
  35.4273230  43.6604900  62.3781280  36.0447230  44.3355980  62.0965730
  34.5666350  44.0692880  62.2868780  46.3450820  45.1244310  60.2935920
  45.6614340  45.7943420  60.2852590  46.8845110  45.3224960  59.5280780
  43.8809560  46.9688440  59.0081100  43.8936720  46.5650730  58.1403360
  43.3284780  47.7435730  58.9042530  45.1754980  43.6904660  54.0971270
  45.0651310  42.7478990  54.2220690  45.1723230  44.0520300  54.9834030
  43.2795000  41.8718280  60.3363710  43.6963790  41.6578390  59.5017170
  44.0034820  42.1291070  60.9072330  40.7175260  39.3169980  53.4533760
  39.7904540  39.2507360  53.6822230  40.8700080  40.2550110  53.3389000
  40.7044340  35.5886980  50.4500920  39.7648010  35.7500940  50.5353380
  41.0227600  36.3072660  49.9036910  44.7472550  40.8790280  53.9569010
  44.1284970  40.5409830  53.3095310  44.7297000  40.2350040  54.6648200
  36.3231900  39.8434720  56.2353490  35.9188900  39.1311970  55.7399390
  36.4095020  39.4987960  57.1241530  36.7913600  43.5302280  58.3992700
  36.4941890  42.9247750  57.7200480  37.7413420  43.5679590  58.2882060
  35.0360520  36.6177930  60.0152530  35.5875110  36.7273270  59.2405780
  35.5504030  36.9915530  60.7307760  44.8799210  47.1034150  62.0615800
  44.4029770  47.9106340  61.8688410  44.1961000  46.4512480  62.2142010
  42.9237250  40.1177090  50.9641760  43.3630530  39.2799520  50.8179580
  43.6365670  40.7506490  51.0505900  34.7103250  40.1397290  63.6257870
  34.5711020  41.0120090  63.9945270  33.8284610  39.7970100  63.4805810
  41.0332630  45.0573160  54.9323000  41.4728540  45.7997490  54.5178390
  40.9719520  45.2999730  55.8561960  36.5083600  46.0818990  65.8343020
  36.4799030  46.4861940  64.9671450  36.3448570  45.1529350  65.6714620
  46.5054390  31.3719900  49.2782800  46.1927050  31.4646730  50.1781870
  47.2666860  31.9500930  49.2280230  47.8631670  44.0558940  64.2907200
  47.9894730  43.8170820  63.3724380  47.9053050  43.2243480  64.7629280
  41.7248410  47.7586940  62.8602010  42.2393080  47.6694950  63.6624440
  40.8817490  48.1046640  63.1529920  36.1791190  47.8240810  54.0657630
  36.0033670  46.9076350  53.8525430  35.3246930  48.1828100  54.3055430
  42.9678870  47.1792550  54.9232500  43.4235820  46.3981930  55.2371120
  43.3071390  47.8899370  55.4673680  47.7155680  36.1091400  65.2556940
  47.0999950  36.6171070  64.7272400  47.3952100  35.2089730  65.1982880
  30.7181420  42.9509010  62.0823240  30.8812460  42.4814370  61.2642610
  31.1833870  42.4432570  62.7472080  35.4900190  32.0814770  57.1183810
  35.0468340  32.8624310  56.7868330  36.0485180  32.4044660  57.8254750
  39.7770000  34.9483290  62.7219130  39.3149370  35.1566310  63.5339070
  39.3748110  34.1342640  62.4189800  44.7774510  36.1692240  63.8515790
  43.9268100  35.8697990  64.1724860  44.6176300  36.4134250  62.9399610
  41.8724220  37.6693990  65.9514580  42.1977630  36.8357740  65.6116810
  42.6604550  38.1922510  66.0992910  38.6059010  31.7025470  51.9989640
  37.9813190  31.6985340  52.7242950  38.5189130  30.8356430  51.6025610
  35.2814410  37.2048340  54.8465060  35.0555330  36.9885510  55.7511680
  34.5006940  37.6376800  54.5011030  42.5112170  37.2111710  53.4455710
  41.9121060  37.9347510  53.2619330  43.0591780  37.1488490  52.6632160
  37.7213620  38.1033920  65.5125330  37.6257220  37.1628650  65.3625730
  38.5645600  38.3248990  65.1173400  32.8524160  34.5147590  63.6659110
  32.4587550  35.3622800  63.8731890  32.1642560  33.8773960  63.8567750
  39.4269210  34.5982560  66.7355850  38.7367530  34.4054760  67.3701940
  40.1701510  34.8817200  67.2680150  30.1541210  32.4376050  57.6989190
  29.8654260  33.0078910  58.4114170  30.8986970  31.9580500  58.0620420
  30.3411440  36.3796170  48.9091910  30.2586110  37.3226930  49.0506900
  29.9894500  36.2371080  48.0304260  33.9911950  34.9961690  56.9356470
  33.6512000  35.4736920  57.6923520  33.2289270  34.5426810  56.5757570
  38.2029720  36.1147280  50.9669020  38.3242540  36.0733760  51.9154840
  37.8178230  36.9771430  50.8115750  37.2151220  38.4248420  50.3652320
  36.6468120  37.9766670  49.7388230  37.9240220  38.7841200  49.8317470
  45.5928840  31.3046860  64.8219090  45.9174610  30.5736520  65.3477070
  45.6285350  30.9860500  63.9200080  38.4417540  39.1736980  59.7227670
  38.8087670  38.6995550  60.4689010  38.2522600  40.0478550  60.0636010
  31.3058030  33.9180670  55.8521140  31.0204950  33.5536340  56.6899760
  31.2436890  33.1861130  55.2384280  36.2316910  38.2145620  62.0411880
  35.9273980  39.0937600  62.2662240  37.1863370  38.2745410  62.0769320
  40.9796620  32.8109930  52.5734510  40.1661230  32.3123100  52.4979820
  40.7858570  33.6508180  52.1570860  40.9005480  41.4881030  64.3174120
  40.8342790  40.5676700  64.0631710  40.2710620  41.5856470  65.0318760
  43.6945010  37.1829580  50.8696670  44.5824630  37.4946810  50.6948010
  43.6650100  36.3101830  50.4777250  34.8036100  42.0886990  56.2757540
  35.3214770  41.2855250  56.2214430  34.3520120  42.0266130  57.1174370
  32.2880640  39.0548360  63.1883240  31.9295580  39.7202210  63.7756580
  31.9935200  38.2231910  63.5595860  40.8322210  44.3101600  64.0677920
  40.8466750  43.3782560  63.8496830  40.1247310  44.3961360  64.7067690
  45.9659280  38.4941420  50.3376530  45.8823000  38.9255640  49.4872970
  46.6853470  38.9539770  50.7703350  47.0433420  40.9508940  63.4146500
  46.3181610  41.5437720  63.2175890  47.5708880  40.9432480  62.6159870
  42.5733010  42.6769110  56.9130350  42.9256830  42.0797240  56.2531720
  41.6895340  42.3513340  57.0838600  38.6596290  43.4366800  54.3200760
  39.3467420  43.9836010  54.7008350  37.8728710  43.9807530  54.3550370
  30.7988690  39.0539620  49.8117840  31.6683540  39.3364420  50.0953760
  30.3079010  39.8675490  49.6966650  37.9623500  40.4412830  53.9326120
  38.4186280  41.2518080  54.1586310  37.6111710  40.1235970  54.7644610
  40.2656110  45.9519170  61.1618420  40.9098330  46.1578550  61.8391840
  40.6285550  45.1907570  60.7089270  33.8635280  30.7850480  54.4048640
  33.7349910  30.7768380  55.3533560  33.0397300  31.1233570  54.0539650
  41.5388190  43.9551520  59.8795870  42.1810420  43.2544680  59.9928040
  42.0637540  44.7349960  59.6992760  45.3843910  44.2400140  49.6035010
  45.1581490  43.5230580  50.1959650  44.9940110  43.9912580  48.7656760
  43.3125810  44.7546420  63.0831930  43.6482050  45.3413110  63.7609850
  42.3926150  44.6239130  63.3129720  30.8629210  32.5441600  63.8655340
  30.1487730  32.7438520  64.4707950  31.2824250  31.7681170  64.2370140
  44.9660160  42.1572080  51.2649170  44.6781860  42.6184770  52.0527050
  45.7612330  41.6969850  51.5333390  39.1414390  44.8037750  66.2519990
  38.8211260  44.0846990  66.7965680  38.4672750  45.4792820  66.3256050
  45.7230020  33.9920850  52.4244350  45.0943180  34.0966520  51.7102580
  45.2281940  34.2117630  53.2138230  37.6914050  36.2706800  53.8402230
  36.9830200  36.7393140  54.2815840  37.9758530  35.6128810  54.4747420
  39.3169980  37.6903500  61.8394760  39.8155230  38.1649320  62.5046610
  39.4592930  36.7667020  62.0464790  35.8949070  34.5791880  51.2152940
  36.7439600  35.0162030  51.1493130  35.5280340  34.8912140  52.0425000
  46.5236840  33.9071460  62.6823150  46.0210440  34.6476860  63.0216960
  47.3393500  34.2955460  62.3659940  34.7940490  40.8324240  49.6888470
  35.5603760  40.7205600  50.2513900  34.8715180  40.1362210  49.0365240
  33.4887250  38.2649310  50.3721360  33.5690840  37.3176820  50.4838760
  34.3807000  38.5956190  50.4782020  46.8184430  46.3213490  57.8038770
  46.9431850  47.1444660  58.2762580  47.6849990  46.1104220  57.4562920
  34.2901960  48.4144700  57.4755900  35.0264440  47.8660160  57.7464470
  34.6742880  49.2800710  57.3361890  42.1324870  43.7070640  66.6116890
  41.5263030  43.7302240  65.8712640  41.8278980  42.9753680  67.1484140
  43.5625240  47.4350930  65.2226300  44.5146990  47.3508950  65.1726540
  43.4153460  48.0992640  65.8960090  38.0695990  41.4935220  65.1413050
  37.3041660  42.0620220  65.0567720  38.2511950  41.2011430  64.2481280
  45.2119340  43.2240550  65.6988070  45.9528810  43.5616310  65.1955530
  44.4492020  43.3932610  65.1457840  36.8259520  40.8289370  51.6631110
  37.2475940  40.6629240  52.5062500  36.9510360  40.0189600  51.1686250
  34.9886940  36.8085920  64.4702090  34.4583400  36.3176870  63.8425430
  35.6575010  37.2370120  63.9360020  39.3387160  39.8526980  48.9108210
  39.8592820  39.1376000  48.5449360  39.9855560  40.4912850  49.2108720
  43.8865000  41.2755380  64.2343280  44.3006020  41.4300460  65.0833700
  42.9516000  41.4010600  64.3969060  44.3587170  38.6151540  66.2382430
  44.9407940  37.8603860  66.1502910  44.5348940  39.1458980  65.4613910
  35.4759240  33.7748290  64.5499380  35.3816110  33.1569040  63.8250250
  34.8956630  34.5014580  64.3229290  38.2420680  32.3321530  61.5826770
  37.7937980  32.3545790  60.7372320  37.6085880  31.9340550  62.1797070
  38.6480230  41.2275860  62.2039210  39.0668340  42.0708590  62.0315450
  37.7288860  41.3647900  61.9745990  40.9844130  38.9592040  63.5877050
  41.1040340  38.3633180  64.3271890  41.8438130  38.9961730  63.1678350
  43.3232030  39.5129230  62.1639560  42.7967250  40.0371850  61.5604700
  43.6663370  40.1456620  62.7949290  35.7218420  36.9022600  48.6089270
  35.5207480  36.0389960  48.9702610  35.5510470  36.8155960  47.6710870
  36.4987650  47.5328870  63.3196940  35.9608740  48.2574930  63.0005640
  36.7521610  47.0559210  62.5294280  37.7512900  35.5013390  64.8452870
  38.3412590  35.1929240  65.5330690  36.9333140  35.0293140  65.0012770
  42.5706330  35.1179200  65.0785890  41.8821850  34.4560740  65.0135880
  43.2912350  34.6717470  65.5234350  43.2006730  31.7130830  51.1376150
  43.4809020  30.8698730  51.4935570  42.4272460  31.9453940  51.6514900
  34.5201220  34.0023220  48.5967150  34.8227120  34.0090650  47.6886300
  35.2595810  33.6521080  49.0934810  39.3549860  48.7680080  63.5783590
  39.2808560  49.6715220  63.8855960  38.4528700  48.4491980  63.5505660
  37.7386150  32.9457840  49.5823350  37.3908150  32.2681830  49.0025800
  37.9398920  32.4847350  50.3966740  30.7577150  46.0954670  56.8817210
  31.0880160  45.2275730  56.6495850  31.1868150  46.3013190  57.7122170
  35.3539070  44.4263680  54.5419180  35.0534610  44.3028650  55.4423090
  35.2476560  43.5672270  54.1334910  46.8829540  46.4642260  63.9076150
  46.2831530  46.5234820  63.1640070  47.0123440  45.5247240  64.0373000
  48.1230990  44.2060080  49.2445860  47.2923950  44.2736730  49.7153090
  48.3002820  45.0964200  48.9412720  47.5787450  40.9507560  51.7480060
  48.3406360  41.5204210  51.8539750  47.5941820  40.3834760  52.5188370
  48.5847420  41.8057660  56.5921990  48.9556250  41.0224980  56.1857960
  49.2249350  42.4946760  56.4139290  45.5681180  43.1894240  62.0052310
  44.7541020  43.6191400  62.2678100  45.9755380  43.8012650  61.3921360
  47.6306620  41.2441930  48.9052580  47.9055460  42.1520810  48.7771800
  47.4417360  41.1804460  49.8414570  44.0282230  34.2686780  50.2006210
  44.4467110  34.0817760  49.3602870  43.7218290  33.4165830  50.5109140
  46.9171580  38.3282440  63.5321530  46.6857670  38.0995190  62.6319480
  47.1776130  39.2481990  63.4866420  45.3559650  33.5538870  66.3101230
  46.2329830  33.5622270  66.6935230  45.3680490  32.8169710  65.6993580
  30.2929870  36.6844420  51.9213050  29.3893950  36.9474620  51.7464710
  30.7770490  36.9555590  51.1413010  32.8357080  35.7409960  49.8307430
  33.5448780  35.3193180  49.3454710  32.1197020  35.8085190  49.1990780
  32.4831240  31.7949290  48.8710080  33.2059370  32.3358230  49.1891300
  32.7555760  31.5212710  47.9951620  46.2922890  36.6641760  53.1381660
  46.7882010  36.4312630  53.9230540  46.0938960  35.8253600  52.7219300
  32.1723430  31.0455480  58.7732700  32.8199620  30.4952860  58.3327860
  32.5925270  31.2998630  59.5948510  46.0675770  31.2396840  62.1302340
  46.7047990  31.8530980  62.4961530  46.2150660  31.2757500  61.1851570
  45.6257230  47.9412840  55.5320580  46.2216300  47.6197410  54.8555000
  45.8835380  47.4684660  56.3233850  31.9255430  31.2011150  61.5158020
  31.5770250  31.6574970  62.2816200  31.5943130  30.3068280  61.5980450
  37.2325830  45.9290340  61.2820930  36.9917190  46.1964900  60.3951450
  38.1728470  46.0996070  61.3371790  39.4380250  32.3923030  65.0377440
  39.3769140  32.9844860  65.7872850  40.3780630  32.2848990  64.8927700
  42.0754810  32.0493090  64.6769730  42.6895220  32.3672380  64.0150810
  42.6204370  31.5641680  65.2965590  48.4929990  47.9484720  62.0831570
  47.9988270  48.3453590  61.3658700  47.8843280  47.3233930  62.4768850
  32.5976070  30.7287350  64.7908790  33.1459060  30.5475400  64.0274900
  32.6631380  29.9381460  65.3265100  33.3707830  47.3193000  62.8008990
  32.7768150  47.1877700  63.5399030  33.3631670  46.4831140  62.3351090
  46.1769440  48.5908140  59.3618310  45.7172410  49.3423950  58.9876330
  45.5481900  47.8714610  59.3033110  33.0020060  44.6851380  61.7517030
  32.2754120  44.0656670  61.6842980  33.0629210  45.0791990  60.8815110
  36.6065160  46.8996380  58.5366440  37.1230180  46.2883740  58.0114700
  37.2562540  47.4025160  59.0277450  39.3460660  47.7904870  59.3635420
  39.6338470  47.5359170  58.4868430  39.8583880  47.2382230  59.9540990
  31.9078080  31.8342550  52.4645650  32.6657440  31.9471430  51.8909680
  31.4455250  32.6711750  52.4189080  46.0951470  31.0145830  51.9671310
  46.2902100  31.9129280  52.2338740  45.3081340  30.7832910  52.4604260
  32.8912760  46.6959000  52.4063930  32.3660380  47.0767030  51.7025890
  32.8157340  47.3209770  53.1273640  34.2803230  32.3606600  51.0047620
  34.8095990  31.5736400  50.8755570  34.9131550  33.0397790  51.2383150
  36.4741070  32.0981740  54.0593010  35.8443810  31.3969050  54.2263140
  35.9346210  32.8585870  53.8426170  39.4133020  48.7120970  66.7303620
  40.3400330  48.4765240  66.7739580  39.3983450  49.5392970  66.2489650
  36.5996630  31.3765720  66.4945500  36.3180900  31.8799320  65.7306320
  36.9816330  30.5787470  66.1287630  43.2012090  30.7919300  67.0725970
  43.0877540  31.1113910  67.9677490  44.0181830  31.1931810  66.7763250
  45.9810580  47.9390830  66.5544660  46.7735900  47.4440060  66.3470620
  46.2743730  48.6180970  67.1620270  42.1070240  38.8111770  37.4360710
  42.0264290  37.8966380  37.1652420  41.6934660  39.3078840  36.7300420
  40.2388280  40.5890790  39.3169980  39.4630380  40.1091230  39.6068550
  40.8901210  39.9096440  39.1426140  34.2554110  40.9010600  40.1945740
  33.4238990  40.6459310  40.5942250  34.8635090  40.9721370  40.9303660
  44.2595710  44.9950980  38.0969110  43.7977240  44.2238220  38.4256280
  45.0721260  45.0217050  38.6021560  34.2355370  44.9350690  40.3903760
  34.5383410  44.0448430  40.2113980  34.9798960  45.4920910  40.1626010
  32.6646060  35.8612490  33.9788130  31.7762760  36.2028460  33.8768010
  32.9487250  35.6612810  33.0868960  30.6279070  38.4618140  39.8627830
  31.1995180  37.6940340  39.8631470  30.6280610  38.7606900  38.9534440
  40.4859020  47.2808990  37.7173100  39.8670460  47.7366490  37.1467540
  41.3410800  47.4360450  37.3162800  39.6797270  43.2647980  39.3240140
  39.6105550  42.3237920  39.1629270  40.4417130  43.3549390  39.8962710
  31.8703940  33.8702500  41.6496760  31.6906780  32.9728250  41.9299520
  31.4684020  34.4174370  42.3243710  40.7102440  36.0718360  39.5509070
  41.0867260  35.1990240  39.4382740  40.6121950  36.4077060  38.6599510
  34.8407450  34.4443990  35.0126510  34.9474200  35.3447720  35.3195270
  33.9299810  34.3961960  34.7221160  44.4926560  33.5668800  36.4837410
  45.3136180  33.0765370  36.5262890  44.5260640  34.1566460  37.2369250
  32.4890610  36.3663000  40.2579100  33.1700720  36.6301370  40.8766500
  32.1738660  35.5263870  40.5917110  36.6815180  37.4130360  39.3451690
  37.1893400  37.9111330  39.9856710  37.2128420  36.6365560  39.1691050
  48.7826110  35.5835550  43.0481040  48.0778280  35.9717260  42.5296150
  49.0484030  36.2785840  43.6501970  34.9651280  32.0528920  43.6115110
  34.9669720  32.5701310  42.8061010  34.1355590  31.5759100  43.5885040
  41.3522370  42.1648230  35.1105010  40.7339640  42.6297680  34.5467730
  41.8645620  42.8575710  35.5274520  36.2154130  41.6924100  41.7888610
  35.8823510  42.3193020  42.4309680  36.3920810  42.2185980  41.0090280
  44.7288040  35.5069180  39.2564950  44.0243610  35.7954070  39.8368060
  45.0900200  36.3169290  38.8964510  34.6466610  33.7638880  41.6185560
  34.9883420  34.6080930  41.3239430  33.7082420  33.9122620  41.7350900
  35.4273230  43.6604900  43.6037790  36.0447230  44.3355980  43.3222240
  34.5666350  44.0692880  43.5125290  30.7205570  42.8504760  32.4844640
  30.3433550  43.3391860  31.7529540  30.9778640  43.5230040  33.1151170
  46.3450820  45.1244310  41.5192430  45.6614340  45.7943420  41.5109100
  46.8845110  45.3224960  40.7537290  47.7974960  34.9523970  39.6474160
  46.8499870  34.9862950  39.7789590  48.1224950  35.7662920  40.0323520
  38.3294500  31.2521150  37.9430150  38.6369480  30.6968040  37.2265650
  37.3995200  31.3865610  37.7603140  43.8809560  46.9688440  40.2337610
  43.8936720  46.5650730  39.3659870  43.3284780  47.7435730  40.1299040
  45.1754980  43.6904660  35.3227780  45.0651310  42.7478990  35.4477200
  45.1723230  44.0520300  36.2090540  43.2795000  41.8718280  41.5620220
  43.6963790  41.6578390  40.7273680  44.0034820  42.1291070  42.1328840
  40.7175260  39.3169980  34.6790270  39.7904540  39.2507360  34.9078740
  40.8700080  40.2550110  34.5645510  40.7044340  35.5886980  31.6757430
  39.7648010  35.7500940  31.7609890  41.0227600  36.3072660  31.1293420
  47.2257100  40.2705500  41.6536460  46.3975730  40.3398590  41.1786590
  47.8207580  40.8559810  41.1852290  44.7472550  40.8790280  35.1825520
  44.1284970  40.5409830  34.5351820  44.7297000  40.2350040  35.8904710
  44.1899110  37.0574820  42.5991330  43.7770290  37.8828530  42.8531320
  43.4575060  36.4719860  42.4067690  36.3231900  39.8434720  37.4610000
  35.9188900  39.1311970  36.9655900  36.4095020  39.4987960  38.3498040
  36.7913600  43.5302280  39.6249210  36.4941890  42.9247750  38.9456990
  37.7413420  43.5679590  39.5138570  35.0360520  36.6177930  41.2409040
  35.5875110  36.7273270  40.4662290  35.5504030  36.9915530  41.9564270
  42.9237250  40.1177090  32.1898270  43.3630530  39.2799520  32.0436090
  43.6365670  40.7506490  32.2762410  34.7103250  40.1397290  44.8514380
  34.5711020  41.0120090  45.2201780  33.8284610  39.7970100  44.7062320
  41.0332630  45.0573160  36.1579510  41.4728540  45.7997490  35.7434900
  40.9719520  45.2999730  37.0818470  46.5054390  31.3719900  30.5039310
  46.1927050  31.4646730  31.4038380  47.2666860  31.9500930  30.4536740
  33.0236530  38.7379700  34.9616650  32.9034130  39.4641790  34.3497920
  32.7137420  37.9682610  34.4844560  30.6621900  41.9094840  40.7685290
  30.7402320  42.0443610  39.8241010  31.2763580  41.2010730  40.9613410
  31.9069530  43.6095030  37.1791470  31.4997610  43.7509620  36.3245070
  32.7982540  43.3255190  36.9762680  47.8631670  44.0558940  45.5163710
  47.9894730  43.8170820  44.5980890  47.9053050  43.2243480  45.9885790
  43.7002810  48.0442280  33.5142520  43.5403950  47.7545220  34.4124350
  43.5349520  47.2682410  32.9787750  36.1791190  47.8240810  35.2914140
  36.0033670  46.9076350  35.0781940  35.3246930  48.1828100  35.5311940
  43.4028940  45.5529840  32.0740520  42.7094100  45.5507130  31.4142800
  44.1451800  45.1289160  31.6434690  42.9678870  47.1792550  36.1489010
  43.4235820  46.3981930  36.4627630  43.3071390  47.8899370  36.6930190
  47.7155680  36.1091400  46.4813450  47.0999950  36.6171070  45.9528910
  47.3952100  35.2089730  46.4239390  30.7181420  42.9509010  43.3079750
  30.8812460  42.4814370  42.4899120  31.1833870  42.4432570  43.9728590
  35.4900190  32.0814770  38.3440320  35.0468340  32.8624310  38.0124840
  36.0485180  32.4044660  39.0511260  39.7770000  34.9483290  43.9475640
  39.3149370  35.1566310  44.7595580  39.3748110  34.1342640  43.6446310
  44.7774510  36.1692240  45.0772300  43.9268100  35.8697990  45.3981370
  44.6176300  36.4134250  44.1656120  41.8724220  37.6693990  47.1771090
  42.1977630  36.8357740  46.8373320  42.6604550  38.1922510  47.3249420
  38.6059010  31.7025470  33.2246150  37.9813190  31.6985340  33.9499460
  38.5189130  30.8356430  32.8282120  37.5276090  32.6262100  40.2029920
  37.8248420  33.5324930  40.1221940  38.0761650  32.1380880  39.5889490
  35.2814410  37.2048340  36.0721570  35.0555330  36.9885510  36.9768190
  34.5006940  37.6376800  35.7267540  42.5112170  37.2111710  34.6712220
  41.9121060  37.9347510  34.4875840  43.0591780  37.1488490  33.8888670
  37.7213620  38.1033920  46.7381840  37.6257220  37.1628650  46.5882240
  38.5645600  38.3248990  46.3429910  41.1177040  35.8475250  36.7015500
  41.5106610  36.1647450  35.8884190  41.4793890  34.9687130  36.8160020
  32.8524160  34.5147590  44.8915620  32.4587550  35.3622800  45.0988400
  32.1642560  33.8773960  45.0824260  39.4269210  34.5982560  47.9612360
  38.7367530  34.4054760  48.5958450  40.1701510  34.8817200  48.4936660
  30.1541210  32.4376050  38.9245700  29.8654260  33.0078910  39.6370680
  30.8986970  31.9580500  39.2876930  30.3411440  36.3796170  30.1348420
  30.2586110  37.3226930  30.2763410  29.9894500  36.2371080  29.2560770
  41.7032180  38.4381000  40.7966280  40.9713300  38.9467810  41.1456380
  41.3056520  37.6210980  40.4955060  38.1409570  35.1135200  39.2018770
  38.1445630  34.6725150  38.3523310  39.0360690  35.4352530  39.3090590
  33.9911950  34.9961690  38.1612980  33.6512000  35.4736920  38.9180030
  33.2289270  34.5426810  37.8014080  38.2029720  36.1147280  32.1925530
  38.3242540  36.0733760  33.1411350  37.8178230  36.9771430  32.0372260
  42.1658090  33.8914680  40.2089220  42.1830830  34.3423330  41.0531070
  41.9173670  32.9920320  40.4222660  37.2151220  38.4248420  31.5908830
  36.6468120  37.9766670  30.9644740  37.9240220  38.7841200  31.0573980
  45.5928840  31.3046860  46.0475600  45.9174610  30.5736520  46.5733580
  45.6285350  30.9860500  45.1456590  32.2920400  42.3260440  45.4675560
  31.9075190  41.6854110  46.0658520  32.6032590  43.0296560  46.0370290
  38.4417540  39.1736980  40.9484180  38.8087670  38.6995550  41.6945520
  38.2522600  40.0478550  41.2892520  31.3058030  33.9180670  37.0777650
  31.0204950  33.5536340  37.9156270  31.2436890  33.1861130  36.4640790
  36.2316910  38.2145620  43.2668390  35.9273980  39.0937600  43.4918750
  37.1863370  38.2745410  43.3025830  34.7598700  42.4206610  33.8635240
  33.9860960  41.8804230  33.7033960  35.4893330  41.9013220  33.5253000
  45.5186680  41.4171970  39.6561630  46.2385800  41.9127260  39.2657740
  45.3168500  40.7389860  39.0115500  40.9796620  32.8109930  33.7991020
  40.1661230  32.3123100  33.7236330  40.7858570  33.6508180  33.3827370
  40.9005480  41.4881030  45.5430630  40.8342790  40.5676700  45.2888220
  40.2710620  41.5856470  46.2575270  43.6945010  37.1829580  32.0953180
  44.5824630  37.4946810  31.9204520  43.6650100  36.3101830  31.7033760
  34.8036100  42.0886990  37.5014050  35.3214770  41.2855250  37.4470940
  34.3520120  42.0266130  38.3430880  39.6905600  43.3553270  32.7741350
  40.0321300  44.0995500  32.2784670  38.8618310  43.6684390  33.1366180
  32.2880640  39.0548360  44.4139750  31.9295580  39.7202210  45.0013090
  31.9935200  38.2231910  44.7852370  35.4893760  39.5132600  47.2979300
  35.1893900  39.6589780  46.4007120  36.2605000  38.9537890  47.2052690
  45.9659280  38.4941420  31.5633040  45.8823000  38.9255640  30.7129480
  46.6853470  38.9539770  31.9959860  47.0433420  40.9508940  44.6403010
  46.3181610  41.5437720  44.4432400  47.5708880  40.9432480  43.8416380
  46.9946530  45.3483680  34.2915170  46.3522690  44.6939300  34.5658890
  46.6077190  45.7538770  33.5155840  42.5733010  42.6769110  38.1386860
  42.9256830  42.0797240  37.4788230  41.6895340  42.3513340  38.3095110
  38.6596290  43.4366800  35.5457270  39.3467420  43.9836010  35.9264860
  37.8728710  43.9807530  35.5806880  30.7988690  39.0539620  31.0374350
  31.6683540  39.3364420  31.3210270  30.3079010  39.8675490  30.9223160
  37.9623500  40.4412830  35.1582630  38.4186280  41.2518080  35.3842820
  37.6111710  40.1235970  35.9901120  40.2656110  45.9519170  42.3874930
  40.9098330  46.1578550  43.0648350  40.6285550  45.1907570  41.9345780
  33.8635280  30.7850480  35.6305150  33.7349910  30.7768380  36.5790070
  33.0397300  31.1233570  35.2796160  41.5388190  43.9551520  41.1052380
  42.1810420  43.2544680  41.2184550  42.0637540  44.7349960  40.9249270
  45.3843910  44.2400140  30.8291520  45.1581490  43.5230580  31.4216160
  44.9940110  43.9912580  29.9913270  43.3125810  44.7546420  44.3088440
  43.6482050  45.3413110  44.9866360  42.3926150  44.6239130  44.5386230
  31.1659940  48.2667000  31.6035980  31.5257580  48.8656340  30.9493250
  31.0252280  48.8126890  32.3771010  30.8629210  32.5441600  45.0911850
  30.1487730  32.7438520  45.6964460  31.2824250  31.7681170  45.4626650
  44.9660160  42.1572080  32.4905680  44.6781860  42.6184770  33.2783560
  45.7612330  41.6969850  32.7589900  31.1501800  46.5321860  46.0778380
  31.2592920  45.5916600  45.9373770  30.4982360  46.7976610  45.4292110
  37.1828560  45.6498200  32.4209650  37.1738660  46.3827890  31.8054160
  36.2626920  45.4029780  32.5136610  32.7835200  40.8713090  33.1656410
  32.1763150  41.6111990  33.1751710  33.2584550  40.9612450  32.3394610
  42.3567990  35.0363910  42.8413300  42.7248810  34.2159120  43.1692870
  41.4966190  35.0965800  43.2568950  45.7230020  33.9920850  33.6500860
  45.0943180  34.0966520  32.9359090  45.2281940  34.2117630  34.4394740
  40.1688160  45.7126440  31.0834840  40.2700140  45.5090430  30.1536820
  39.2689900  45.4584720  31.2882620  37.6914050  36.2706800  35.0658740
  36.9830200  36.7393140  35.5072350  37.9758530  35.6128810  35.7003930
  39.3169980  37.6903500  43.0651270  39.8155230  38.1649320  43.7303120
  39.4592930  36.7667020  43.2721300  41.7229480  32.9957460  36.5054530
  41.5997260  33.0143590  35.5564040  42.6714040  33.0436400  36.6252930
  38.8106270  48.2312760  35.7782510  39.0647770  48.1934150  34.8561880
  37.8618750  48.1046090  35.7710760  35.8949070  34.5791880  32.4409450
  36.7439600  35.0162030  32.3749640  35.5280340  34.8912140  33.2681510
  46.5236840  33.9071460  43.9079660  46.0210440  34.6476860  44.2473470
  47.3393500  34.2955460  43.5916450  44.8158850  39.1504640  37.3541020
  43.8748990  39.1654870  37.5288710  45.1302920  38.3640600  37.8001320
  34.7940490  40.8324240  30.9144980  35.5603760  40.7205600  31.4770410
  34.8715180  40.1362210  30.2621750  33.4887250  38.2649310  31.5977870
  33.5690840  37.3176820  31.7095270  34.3807000  38.5956190  31.7038530
  46.8184430  46.3213490  39.0295280  46.9431850  47.1444660  39.5019090
  47.6849990  46.1104220  38.6819430  34.2901960  48.4144700  38.7012410
  35.0264440  47.8660160  38.9720980  34.6742880  49.2800710  38.5618400
  31.1747440  44.4818270  34.5753920  30.2487220  44.7239410  34.5659330
  31.6403870  45.3092530  34.4538670  33.2960240  47.5990770  47.8897990
  34.0972970  47.9202820  48.3033390  32.7812060  47.2386350  48.6117900
  37.4004270  47.5875010  30.5237980  38.1932880  47.8763840  30.0719770
  36.8808620  47.1567180  29.8450460  46.4534440  46.8145140  31.9474720
  46.1675950  46.4010280  31.1328900  46.2553990  47.7432850  31.8275240
  31.0158050  40.0864230  46.8334040  31.5197070  39.5071510  47.4050270
  30.2765470  40.3704460  47.3710410  37.9181670  42.8078420  30.3880330
  37.8132310  42.1930770  31.1141710  37.7505890  42.2844310  29.6043340
  38.0695990  41.4935220  46.3669560  37.3041660  42.0620220  46.2824230
  38.2511950  41.2011430  45.4737790  41.1584400  41.8698450  30.9922320
  40.6094500  42.3167750  31.6365060  41.7803660  41.3647700  31.5159990
  45.2119340  43.2240550  46.9244580  45.9528810  43.5616310  46.4212040
  44.4492020  43.3932610  46.3714350  33.0481130  38.2293820  47.7284110
  33.0886470  37.9307690  48.6369340  33.9026630  38.6301430  47.5691630
  36.8259520  40.8289370  32.8887620  37.2475940  40.6629240  33.7319010
  36.9510360  40.0189600  32.3942760  34.9886940  36.8085920  45.6958600
  34.4583400  36.3176870  45.0681940  35.6575010  37.2370120  45.1616530
  39.3387160  39.8526980  30.1364720  39.8592820  39.1376000  29.7705870
  39.9855560  40.4912850  30.4365230  43.8865000  41.2755380  45.4599790
  44.3006020  41.4300460  46.3090210  42.9516000  41.4010600  45.6225570
  44.3587170  38.6151540  47.4638940  44.9407940  37.8603860  47.3759420
  44.5348940  39.1458980  46.6870420  35.4759240  33.7748290  45.7755890
  35.3816110  33.1569040  45.0506760  34.8956630  34.5014580  45.5485800
  38.2420680  32.3321530  42.8083280  37.7937980  32.3545790  41.9628830
  37.6085880  31.9340550  43.4053580  38.6480230  41.2275860  43.4295720
  39.0668340  42.0708590  43.2571960  37.7288860  41.3647900  43.2002500
  40.9844130  38.9592040  44.8133560  41.1040340  38.3633180  45.5528400
  41.8438130  38.9961730  44.3934860  43.3232030  39.5129230  43.3896070
  42.7967250  40.0371850  42.7861210  43.6663370  40.1456620  44.0205800
  35.7218420  36.9022600  29.8345780  35.5207480  36.0389960  30.1959120
  35.5510470  36.8155960  28.8967380  36.4987650  47.5328870  44.5453450
  35.9608740  48.2574930  44.2262150  36.7521610  47.0559210  43.7550790
  37.7512900  35.5013390  46.0709380  38.3412590  35.1929240  46.7587200
  36.9333140  35.0293140  46.2269280  42.5706330  35.1179200  46.3042400
  41.8821850  34.4560740  46.2392390  43.2912350  34.6717470  46.7490860
  43.2006730  31.7130830  32.3632660  43.4809020  30.8698730  32.7192080
  42.4272460  31.9453940  32.8771410  34.5201220  34.0023220  29.8223660
  34.8227120  34.0090650  28.9142810  35.2595810  33.6521080  30.3191320
  37.7386150  32.9457840  30.8079860  37.3908150  32.2681830  30.2282310
  37.9398920  32.4847350  31.6223250  39.9035190  47.9338590  32.4266460
  40.7985980  48.2723560  32.4485220  39.9352820  47.2118000  31.7990740
  33.5431350  43.3065640  30.6553460  33.9806220  43.8495310  31.3111040
  34.0279080  42.4812590  30.6649800  30.7577150  46.0954670  38.1073720
  31.0880160  45.2275730  37.8752360  31.1868150  46.3013190  38.9378680
  35.3539070  44.4263680  35.7675690  35.0534610  44.3028650  36.6679600
  35.2476560  43.5672270  35.3591420  31.2467360  46.9625260  40.8455350
  30.8098350  47.1426060  41.6779500  31.8145040  47.7199880  40.7037070
  48.1230990  44.2060080  30.4702370  47.2923950  44.2736730  30.9409600
  48.3002820  45.0964200  30.1669230  47.5787450  40.9507560  32.9736570
  48.3406360  41.5204210  33.0796260  47.5941820  40.3834760  33.7444880
  31.0791790  39.4745490  37.2044230  30.4240630  39.2057130  36.5603930
  31.9169740  39.3649970  36.7546210  48.5847420  41.8057660  37.8178500
  48.9556250  41.0224980  37.4114470  49.2249350  42.4946760  37.6395800
  45.5681180  43.1894240  43.2308820  44.7541020  43.6191400  43.4934610
  45.9755380  43.8012650  42.6177870  47.6306620  41.2441930  30.1309090
  47.9055460  42.1520810  30.0028310  47.4417360  41.1804460  31.0671080
  44.0282230  34.2686780  31.4262720  44.4467110  34.0817760  30.5859380
  43.7218290  33.4165830  31.7365650  47.5271960  39.1810920  35.1238520
  47.1515560  38.4138850  34.6919810  46.7975080  39.5633620  35.6113450
  32.1167720  39.8598060  41.7447570  32.4840760  39.7725460  42.6243590
  31.5478540  39.0964610  41.6454430  46.9171580  38.3282440  44.7578040
  46.6857670  38.0995190  43.8575990  47.1776130  39.2481990  44.7122930
  31.6683720  36.7707150  45.6505990  30.7739770  36.7373910  45.9899700
  32.2081270  36.9693940  46.4157240  45.3559650  33.5538870  47.5357740
  46.2329830  33.5622270  47.9191740  45.3680490  32.8169710  46.9250090
  30.2929870  36.6844420  33.1469560  29.3893950  36.9474620  32.9721220
  30.7770490  36.9555590  32.3669520  46.8022920  37.4068410  38.4245760
  47.3260400  36.9131060  37.7935930  47.3882340  37.5418770  39.1693330
  46.9812640  37.4908280  41.9465310  46.0315350  37.4571820  42.0610300
  47.1625650  38.4008390  41.7115080  32.8357080  35.7409960  31.0563940
  33.5448780  35.3193180  30.5711220  32.1197020  35.8085190  30.4247290
  32.4831240  31.7949290  30.0966590  33.2059370  32.3358230  30.4147810
  32.7555760  31.5212710  29.2208130  46.2922890  36.6641760  34.3638170
  46.7882010  36.4312630  35.1487050  46.0938960  35.8253600  33.9475810
  32.1723430  31.0455480  39.9989210  32.8199620  30.4952860  39.5584370
  32.5925270  31.2998630  40.8205020  47.7210050  35.3002710  36.8975850
  47.6109330  35.1458750  37.8358120  48.4817640  34.7723650  36.6551260
  48.6100320  33.1310630  30.1381990  49.5349630  32.9991810  29.9300280
  48.5876110  33.2103450  31.0918440  48.6838810  33.9021290  32.7638700
  47.8890310  33.8366410  33.2931610  48.8882090  34.8371930  32.7524050
  31.9255430  31.2011150  42.7414530  31.5770250  31.6574970  43.5072710
  31.5943130  30.3068280  42.8236960  33.5319800  44.3730750  46.9067720
  33.4889430  44.0023660  47.7882180  33.6630810  45.3108320  47.0469540
  37.2325830  45.9290340  42.5077440  36.9917190  46.1964900  41.6207960
  38.1728470  46.0996070  42.5628300  39.4380250  32.3923030  46.2633950
  39.3769140  32.9844860  47.0129360  40.3780630  32.2848990  46.1184210
  42.0754810  32.0493090  45.9026240  42.6895220  32.3672380  45.2407320
  42.6204370  31.5641680  46.5222100  32.5976070  30.7287350  46.0165300
  33.1459060  30.5475400  45.2531410  32.6631380  29.9381460  46.5521610
  33.3707830  47.3193000  44.0265500  32.7768150  47.1877700  44.7655540
  33.3631670  46.4831140  43.5607600  42.8162850  30.6125230  42.2295530
  41.9422690  30.9460340  42.0268460  42.7073600  30.1398410  43.0547400
  43.7234830  32.8196100  43.6137250  43.3948190  32.0047860  43.2338980
  44.6717130  32.7765910  43.4902940  46.1769440  48.5908140  40.5874820
  45.7172410  49.3423950  40.2132840  45.5481900  47.8714610  40.5289620
  33.0020060  44.6851380  42.9773540  32.2754120  44.0656670  42.9099490
  33.0629210  45.0791990  42.1071620  36.6065160  46.8996380  39.7622950
  37.1230180  46.2883740  39.2371210  37.2562540  47.4025160  40.2533960
  39.3460660  47.7904870  40.5891930  39.6338470  47.5359170  39.7124940
  39.8583880  47.2382230  41.1797500  40.5637670  31.5295070  41.1688440
  39.7809460  32.0040570  41.4485200  40.2700600  30.6249900  41.0601620
  31.2850060  48.0025770  36.1870300  31.1172100  47.3696450  36.8852190
  30.4184570  48.2085170  35.8364490  31.9078080  31.8342550  33.6902160
  32.6657440  31.9471430  33.1166190  31.4455250  32.6711750  33.6445590
  38.4491890  33.9481820  36.6804470  37.6366400  33.5738710  36.3400350
  38.9533530  33.1926900  36.9825660  42.9516870  30.6124270  37.9187540
  43.5546240  31.1844480  38.3936060  42.2109860  31.1763710  37.6961440
  46.0951470  31.0145830  33.1927820  46.2902100  31.9129280  33.4595250
  45.3081340  30.7832910  33.6860770  32.8912760  46.6959000  33.6320440
  32.3660380  47.0767030  32.9282400  32.8157340  47.3209770  34.3530150
  34.2803230  32.3606600  32.2304130  34.8095990  31.5736400  32.1012080
  34.9131550  33.0397790  32.4639660  36.4741070  32.0981740  35.2849520
  35.8443810  31.3969050  35.4519650  35.9346210  32.8585870  35.0682680
  47.6478080  48.2546540  34.9534380  47.8230270  47.5684280  34.3095300
  46.9499650  48.7793590  34.5611050  36.5996630  31.3765720  47.7202010
  36.3180900  31.8799320  46.9562830  36.9816330  30.5787470  47.3544140
  35.4905730  48.6441380  32.5069690  36.2224550  48.3600660  31.9593580
  35.7499400  48.4054660  33.3969070  34.6520520  44.7606110  32.5116020
  34.0229400  45.2291210  33.0601850  34.7668350  43.9155330  32.9462210
  43.2012090  30.7919300  48.2982480  43.0877540  31.1113910  49.1934000
  44.0181830  31.1931810  48.0019760  42.1070240  38.8111770  18.6617220
  42.0264290  37.8966380  18.3908930  41.6934660  39.3078840  17.9556930
  40.2388280  40.5890790  20.5426490  39.4630380  40.1091230  20.8325060
  40.8901210  39.9096440  20.3682650  34.2554110  40.9010600  21.4202250
  33.4238990  40.6459310  21.8198760  34.8635090  40.9721370  22.1560170
  44.2595710  44.9950980  19.3225620  43.7977240  44.2238220  19.6512790
  45.0721260  45.0217050  19.8278070  34.2355370  44.9350690  21.6160270
  34.5383410  44.0448430  21.4370490  34.9798960  45.4920910  21.3882520
  32.6646060  35.8612490  15.2044640  31.7762760  36.2028460  15.1024520
  32.9487250  35.6612810  14.3125470  30.6279070  38.4618140  21.0884340
  31.1995180  37.6940340  21.0887980  30.6280610  38.7606900  20.1790950
  40.4859020  47.2808990  18.9429610  39.8670460  47.7366490  18.3724050
  41.3410800  47.4360450  18.5419310  39.6797270  43.2647980  20.5496650
  39.6105550  42.3237920  20.3885780  40.4417130  43.3549390  21.1219220
  31.8703940  33.8702500  22.8753270  31.6906780  32.9728250  23.1556030
  31.4684020  34.4174370  23.5500220  40.7102440  36.0718360  20.7765580
  41.0867260  35.1990240  20.6639250  40.6121950  36.4077060  19.8856020
  34.8407450  34.4443990  16.2383020  34.9474200  35.3447720  16.5451780
  33.9299810  34.3961960  15.9477670  44.4926560  33.5668800  17.7093920
  45.3136180  33.0765370  17.7519400  44.5260640  34.1566460  18.4625760
  32.4890610  36.3663000  21.4835610  33.1700720  36.6301370  22.1023010
  32.1738660  35.5263870  21.8173620  36.6815180  37.4130360  20.5708200
  37.1893400  37.9111330  21.2113220  37.2128420  36.6365560  20.3947560
  48.7826110  35.5835550  24.2737550  48.0778280  35.9717260  23.7552660
  49.0484030  36.2785840  24.8758480  34.9651280  32.0528920  24.8371620
  34.9669720  32.5701310  24.0317520  34.1355590  31.5759100  24.8141550
  41.3522370  42.1648230  16.3361520  40.7339640  42.6297680  15.7724240
  41.8645620  42.8575710  16.7531030  36.2154130  41.6924100  23.0145120
  35.8823510  42.3193020  23.6566190  36.3920810  42.2185980  22.2346790
  44.7288040  35.5069180  20.4821460  44.0243610  35.7954070  21.0624570
  45.0900200  36.3169290  20.1221020  34.6466610  33.7638880  22.8442070
  34.9883420  34.6080930  22.5495940  33.7082420  33.9122620  22.9607410
  35.4273230  43.6604900  24.8294300  36.0447230  44.3355980  24.5478750
  34.5666350  44.0692880  24.7381800  30.7205570  42.8504760  13.7101150
  30.3433550  43.3391860  12.9786050  30.9778640  43.5230040  14.3407680
  46.3450820  45.1244310  22.7448940  45.6614340  45.7943420  22.7365610
  46.8845110  45.3224960  21.9793800  47.7974960  34.9523970  20.8730670
  46.8499870  34.9862950  21.0046100  48.1224950  35.7662920  21.2580030
  38.3294500  31.2521150  19.1686660  38.6369480  30.6968040  18.4522160
  37.3995200  31.3865610  18.9859650  43.8809560  46.9688440  21.4594120
  43.8936720  46.5650730  20.5916380  43.3284780  47.7435730  21.3555550
  45.1754980  43.6904660  16.5484290  45.0651310  42.7478990  16.6733710
  45.1723230  44.0520300  17.4347050  43.2795000  41.8718280  22.7876730
  43.6963790  41.6578390  21.9530190  44.0034820  42.1291070  23.3585350
  40.7175260  39.3169980  15.9046780  39.7904540  39.2507360  16.1335250
  40.8700080  40.2550110  15.7902020  40.7044340  35.5886980  12.9013940
  39.7648010  35.7500940  12.9866400  41.0227600  36.3072660  12.3549930
  47.2257100  40.2705500  22.8792970  46.3975730  40.3398590  22.4043100
  47.8207580  40.8559810  22.4108800  44.7472550  40.8790280  16.4082030
  44.1284970  40.5409830  15.7608330  44.7297000  40.2350040  17.1161220
  44.1899110  37.0574820  23.8247840  43.7770290  37.8828530  24.0787830
  43.4575060  36.4719860  23.6324200  36.3231900  39.8434720  18.6866510
  35.9188900  39.1311970  18.1912410  36.4095020  39.4987960  19.5754550
  36.7913600  43.5302280  20.8505720  36.4941890  42.9247750  20.1713500
  37.7413420  43.5679590  20.7395080  35.0360520  36.6177930  22.4665550
  35.5875110  36.7273270  21.6918800  35.5504030  36.9915530  23.1820780
  44.8799210  47.1034150  24.5128820  44.4029770  47.9106340  24.3201430
  44.1961000  46.4512480  24.6655030  35.8832030  43.2683970  27.5013520
  34.9860560  43.4923940  27.7486920  35.9084900  43.3918910  26.5524920
  42.9237250  40.1177090  13.4154780  43.3630530  39.2799520  13.2692600
  43.6365670  40.7506490  13.5018920  34.7103250  40.1397290  26.0770890
  34.5711020  41.0120090  26.4458290  33.8284610  39.7970100  25.9318830
  41.0332630  45.0573160  17.3836020  41.4728540  45.7997490  16.9691410
  40.9719520  45.2999730  18.3074980  36.5083600  46.0818990  28.2856040
  36.4799030  46.4861940  27.4184470  36.3448570  45.1529350  28.1227640
  46.5054390  31.3719900  11.7295820  46.1927050  31.4646730  12.6294890
  47.2666860  31.9500930  11.6793250  33.0236530  38.7379700  16.1873160
  32.9034130  39.4641790  15.5754430  32.7137420  37.9682610  15.7101070
  48.4598420  46.8646090  29.5820210  48.9358140  47.3428980  30.2609290
  49.0805580  46.7963580  28.8565710  30.6621900  41.9094840  21.9941800
  30.7402320  42.0443610  21.0497520  31.2763580  41.2010730  22.1869920
  31.9069530  43.6095030  18.4047980  31.4997610  43.7509620  17.5501580
  32.7982540  43.3255190  18.2019190  47.8631670  44.0558940  26.7420220
  47.9894730  43.8170820  25.8237400  47.9053050  43.2243480  27.2142300
  41.7248410  47.7586940  25.3115030  42.2393080  47.6694950  26.1137460
  40.8817490  48.1046640  25.6042940  43.7002810  48.0442280  14.7399030
  43.5403950  47.7545220  15.6380860  43.5349520  47.2682410  14.2044260
  36.1791190  47.8240810  16.5170650  36.0033670  46.9076350  16.3038450
  35.3246930  48.1828100  16.7568450  43.4028940  45.5529840  13.2997030
  42.7094100  45.5507130  12.6399310  44.1451800  45.1289160  12.8691200
  42.9678870  47.1792550  17.3745520  43.4235820  46.3981930  17.6884140
  43.3071390  47.8899370  17.9186700  47.7155680  36.1091400  27.7069960
  47.0999950  36.6171070  27.1785420  47.3952100  35.2089730  27.6495900
  30.7181420  42.9509010  24.5336260  30.8812460  42.4814370  23.7155630
  31.1833870  42.4432570  25.1985100  35.4900190  32.0814770  19.5696830
  35.0468340  32.8624310  19.2381350  36.0485180  32.4044660  20.2767770
  39.7770000  34.9483290  25.1732150  39.3149370  35.1566310  25.9852090
  39.3748110  34.1342640  24.8702820  44.7774510  36.1692240  26.3028810
  43.9268100  35.8697990  26.6237880  44.6176300  36.4134250  25.3912630
  41.8724220  37.6693990  28.4027600  42.1977630  36.8357740  28.0629830
  42.6604550  38.1922510  28.5505930  38.6059010  31.7025470  14.4502660
  37.9813190  31.6985340  15.1755970  38.5189130  30.8356430  14.0538630
  37.5276090  32.6262100  21.4286430  37.8248420  33.5324930  21.3478450
  38.0761650  32.1380880  20.8146000  35.2814410  37.2048340  17.2978080
  35.0555330  36.9885510  18.2024700  34.5006940  37.6376800  16.9524050
  42.5112170  37.2111710  15.8968730  41.9121060  37.9347510  15.7132350
  43.0591780  37.1488490  15.1145180  37.7213620  38.1033920  27.9638350
  37.6257220  37.1628650  27.8138750  38.5645600  38.3248990  27.5686420
  41.1177040  35.8475250  17.9272010  41.5106610  36.1647450  17.1140700
  41.4793890  34.9687130  18.0416530  32.8524160  34.5147590  26.1172130
  32.4587550  35.3622800  26.3244910  32.1642560  33.8773960  26.3080770
  39.4269210  34.5982560  29.1868870  38.7367530  34.4054760  29.8214960
  40.1701510  34.8817200  29.7193170  30.1541210  32.4376050  20.1502210
  29.8654260  33.0078910  20.8627190  30.8986970  31.9580500  20.5133440
  30.3411440  36.3796170  11.3604930  30.2586110  37.3226930  11.5019920
  29.9894500  36.2371080  10.4817280  41.7032180  38.4381000  22.0222790
  40.9713300  38.9467810  22.3712890  41.3056520  37.6210980  21.7211570
  38.1409570  35.1135200  20.4275280  38.1445630  34.6725150  19.5779820
  39.0360690  35.4352530  20.5347100  33.9911950  34.9961690  19.3869490
  33.6512000  35.4736920  20.1436540  33.2289270  34.5426810  19.0270590
  38.2029720  36.1147280  13.4182040  38.3242540  36.0733760  14.3667860
  37.8178230  36.9771430  13.2628770  42.1658090  33.8914680  21.4345730
  42.1830830  34.3423330  22.2787580  41.9173670  32.9920320  21.6479170
  37.2151220  38.4248420  12.8165340  36.6468120  37.9766670  12.1901250
  37.9240220  38.7841200  12.2830490  45.5928840  31.3046860  27.2732110
  45.9174610  30.5736520  27.7990090  45.6285350  30.9860500  26.3713100
  32.2920400  42.3260440  26.6932070  31.9075190  41.6854110  27.2915030
  32.6032590  43.0296560  27.2626800  38.4417540  39.1736980  22.1740690
  38.8087670  38.6995550  22.9202030  38.2522600  40.0478550  22.5149030
  31.3058030  33.9180670  18.3034160  31.0204950  33.5536340  19.1412780
  31.2436890  33.1861130  17.6897300  36.2316910  38.2145620  24.4924900
  35.9273980  39.0937600  24.7175260  37.1863370  38.2745410  24.5282340
  34.7598700  42.4206610  15.0891750  33.9860960  41.8804230  14.9290470
  35.4893330  41.9013220  14.7509510  45.5186680  41.4171970  20.8818140
  46.2385800  41.9127260  20.4914250  45.3168500  40.7389860  20.2372010
  40.9796620  32.8109930  15.0247530  40.1661230  32.3123100  14.9492840
  40.7858570  33.6508180  14.6083880  40.9005480  41.4881030  26.7687140
  40.8342790  40.5676700  26.5144730  40.2710620  41.5856470  27.4831780
  43.6945010  37.1829580  13.3209690  44.5824630  37.4946810  13.1461030
  43.6650100  36.3101830  12.9290270  34.8036100  42.0886990  18.7270560
  35.3214770  41.2855250  18.6727450  34.3520120  42.0266130  19.5687390
  39.6905600  43.3553270  13.9997860  40.0321300  44.0995500  13.5041180
  38.8618310  43.6684390  14.3622690  32.2880640  39.0548360  25.6396260
  31.9295580  39.7202210  26.2269600  31.9935200  38.2231910  26.0108880
  35.4893760  39.5132600  28.5235810  35.1893900  39.6589780  27.6263630
  36.2605000  38.9537890  28.4309200  40.8322210  44.3101600  26.5190940
  40.8466750  43.3782560  26.3009850  40.1247310  44.3961360  27.1580710
  45.9659280  38.4941420  12.7889550  45.8823000  38.9255640  11.9385990
  46.6853470  38.9539770  13.2216370  47.0433420  40.9508940  25.8659520
  46.3181610  41.5437720  25.6688910  47.5708880  40.9432480  25.0672890
  46.9946530  45.3483680  15.5171680  46.3522690  44.6939300  15.7915400
  46.6077190  45.7538770  14.7412350  42.5733010  42.6769110  19.3643370
  42.9256830  42.0797240  18.7044740  41.6895340  42.3513340  19.5351620
  38.6596290  43.4366800  16.7713780  39.3467420  43.9836010  17.1521370
  37.8728710  43.9807530  16.8063390  30.7988690  39.0539620  12.2630860
  31.6683540  39.3364420  12.5466780  30.3079010  39.8675490  12.1479670
  37.9623500  40.4412830  16.3839140  38.4186280  41.2518080  16.6099330
  37.6111710  40.1235970  17.2157630  40.2656110  45.9519170  23.6131440
  40.9098330  46.1578550  24.2904860  40.6285550  45.1907570  23.1602290
  33.8635280  30.7850480  16.8561660  33.7349910  30.7768380  17.8046580
  33.0397300  31.1233570  16.5052670  41.5388190  43.9551520  22.3308890
  42.1810420  43.2544680  22.4441060  42.0637540  44.7349960  22.1505780
  45.3843910  44.2400140  12.0548030  45.1581490  43.5230580  12.6472670
  44.9940110  43.9912580  11.2169780  43.3125810  44.7546420  25.5344950
  43.6482050  45.3413110  26.2122870  42.3926150  44.6239130  25.7642740
  31.1659940  48.2667000  12.8292490  31.5257580  48.8656340  12.1749760
  31.0252280  48.8126890  13.6027520  30.8629210  32.5441600  26.3168360
  30.1487730  32.7438520  26.9220970  31.2824250  31.7681170  26.6883160
  44.9660160  42.1572080  13.7162190  44.6781860  42.6184770  14.5040070
  45.7612330  41.6969850  13.9846410  31.1501800  46.5321860  27.3034890
  31.2592920  45.5916600  27.1630280  30.4982360  46.7976610  26.6548620
  39.1414390  44.8037750  28.7033010  38.8211260  44.0846990  29.2478700
  38.4672750  45.4792820  28.7769070  37.1828560  45.6498200  13.6466160
  37.1738660  46.3827890  13.0310670  36.2626920  45.4029780  13.7393120
  32.7835200  40.8713090  14.3912920  32.1763150  41.6111990  14.4008220
  33.2584550  40.9612450  13.5651120  42.3567990  35.0363910  24.0669810
  42.7248810  34.2159120  24.3949380  41.4966190  35.0965800  24.4825460
  45.7230020  33.9920850  14.8757370  45.0943180  34.0966520  14.1615600
  45.2281940  34.2117630  15.6651250  40.1688160  45.7126440  12.3091350
  40.2700140  45.5090430  11.3793330  39.2689900  45.4584720  12.5139130
  37.6914050  36.2706800  16.2915250  36.9830200  36.7393140  16.7328860
  37.9758530  35.6128810  16.9260440  39.3169980  37.6903500  24.2907780
  39.8155230  38.1649320  24.9559630  39.4592930  36.7667020  24.4977810
  41.7229480  32.9957460  17.7311040  41.5997260  33.0143590  16.7820550
  42.6714040  33.0436400  17.8509440  38.8106270  48.2312760  17.0039020
  39.0647770  48.1934150  16.0818390  37.8618750  48.1046090  16.9967270
  35.8949070  34.5791880  13.6665960  36.7439600  35.0162030  13.6006150
  35.5280340  34.8912140  14.4938020  46.5236840  33.9071460  25.1336170
  46.0210440  34.6476860  25.4729980  47.3393500  34.2955460  24.8172960
  44.8158850  39.1504640  18.5797530  43.8748990  39.1654870  18.7545220
  45.1302920  38.3640600  19.0257830  34.7940490  40.8324240  12.1401490
  35.5603760  40.7205600  12.7026920  34.8715180  40.1362210  11.4878260
  33.4887250  38.2649310  12.8234380  33.5690840  37.3176820  12.9351780
  34.3807000  38.5956190  12.9295040  46.8184430  46.3213490  20.2551790
  46.9431850  47.1444660  20.7275600  47.6849990  46.1104220  19.9075940
  34.2901960  48.4144700  19.9268920  35.0264440  47.8660160  20.1977490
  34.6742880  49.2800710  19.7874910  31.1747440  44.4818270  15.8010430
  30.2487220  44.7239410  15.7915840  31.6403870  45.3092530  15.6795180
  33.2960240  47.5990770  29.1154500  34.0972970  47.9202820  29.5289900
  32.7812060  47.2386350  29.8374410  37.4004270  47.5875010  11.7494490
  38.1932880  47.8763840  11.2976280  36.8808620  47.1567180  11.0706970
  42.1324870  43.7070640  29.0629910  41.5263030  43.7302240  28.3225660
  41.8278980  42.9753680  29.5997160  43.5625240  47.4350930  27.6739320
  44.5146990  47.3508950  27.6239560  43.4153460  48.0992640  28.3473110
  46.4534440  46.8145140  13.1731230  46.1675950  46.4010280  12.3585410
  46.2553990  47.7432850  13.0531750  31.0158050  40.0864230  28.0590550
  31.5197070  39.5071510  28.6306780  30.2765470  40.3704460  28.5966920
  37.9181670  42.8078420  11.6136840  37.8132310  42.1930770  12.3398220
  37.7505890  42.2844310  10.8299850  38.0695990  41.4935220  27.5926070
  37.3041660  42.0620220  27.5080740  38.2511950  41.2011430  26.6994300
  41.1584400  41.8698450  12.2178830  40.6094500  42.3167750  12.8621570
  41.7803660  41.3647700  12.7416500  45.2119340  43.2240550  28.1501090
  45.9528810  43.5616310  27.6468550  44.4492020  43.3932610  27.5970860
  33.0481130  38.2293820  28.9540620  33.0886470  37.9307690  29.8625850
  33.9026630  38.6301430  28.7948140  36.8259520  40.8289370  14.1144130
  37.2475940  40.6629240  14.9575520  36.9510360  40.0189600  13.6199270
  34.9886940  36.8085920  26.9215110  34.4583400  36.3176870  26.2938450
  35.6575010  37.2370120  26.3873040  39.3387160  39.8526980  11.3621230
  39.8592820  39.1376000  10.9962380  39.9855560  40.4912850  11.6621740
  43.8865000  41.2755380  26.6856300  44.3006020  41.4300460  27.5346720
  42.9516000  41.4010600  26.8482080  44.3587170  38.6151540  28.6895450
  44.9407940  37.8603860  28.6015930  44.5348940  39.1458980  27.9126930
  35.4759240  33.7748290  27.0012400  35.3816110  33.1569040  26.2763270
  34.8956630  34.5014580  26.7742310  38.2420680  32.3321530  24.0339790
  37.7937980  32.3545790  23.1885340  37.6085880  31.9340550  24.6310090
  38.6480230  41.2275860  24.6552230  39.0668340  42.0708590  24.4828470
  37.7288860  41.3647900  24.4259010  40.9844130  38.9592040  26.0390070
  41.1040340  38.3633180  26.7784910  41.8438130  38.9961730  25.6191370
  43.3232030  39.5129230  24.6152580  42.7967250  40.0371850  24.0117720
  43.6663370  40.1456620  25.2462310  35.7218420  36.9022600  11.0602290
  35.5207480  36.0389960  11.4215630  35.5510470  36.8155960  10.1223890
  36.4987650  47.5328870  25.7709960  35.9608740  48.2574930  25.4518660
  36.7521610  47.0559210  24.9807300  37.7512900  35.5013390  27.2965890
  38.3412590  35.1929240  27.9843710  36.9333140  35.0293140  27.4525790
  42.5706330  35.1179200  27.5298910  41.8821850  34.4560740  27.4648900
  43.2912350  34.6717470  27.9747370  43.2006730  31.7130830  13.5889170
  43.4809020  30.8698730  13.9448590  42.4272460  31.9453940  14.1027920
  34.5201220  34.0023220  11.0480170  34.8227120  34.0090650  10.1399320
  35.2595810  33.6521080  11.5447830  39.3549860  48.7680080  26.0296610
  39.2808560  49.6715220  26.3368980  38.4528700  48.4491980  26.0018680
  37.7386150  32.9457840  12.0336370  37.3908150  32.2681830  11.4538820
  37.9398920  32.4847350  12.8479760  39.9035190  47.9338590  13.6522970
  40.7985980  48.2723560  13.6741730  39.9352820  47.2118000  13.0247250
  33.5431350  43.3065640  11.8809970  33.9806220  43.8495310  12.5367550
  34.0279080  42.4812590  11.8906310  30.7577150  46.0954670  19.3330230
  31.0880160  45.2275730  19.1008870  31.1868150  46.3013190  20.1635190
  35.3539070  44.4263680  16.9932200  35.0534610  44.3028650  17.8936110
  35.2476560  43.5672270  16.5847930  31.2467360  46.9625260  22.0711860
  30.8098350  47.1426060  22.9036010  31.8145040  47.7199880  21.9293580
  46.8829540  46.4642260  26.3589170  46.2831530  46.5234820  25.6153090
  47.0123440  45.5247240  26.4886020  48.1230990  44.2060080  11.6958880
  47.2923950  44.2736730  12.1666110  48.3002820  45.0964200  11.3925740
  47.5787450  40.9507560  14.1993080  48.3406360  41.5204210  14.3052770
  47.5941820  40.3834760  14.9701390  31.0791790  39.4745490  18.4300740
  30.4240630  39.2057130  17.7860440  31.9169740  39.3649970  17.9802720
  48.5847420  41.8057660  19.0435010  48.9556250  41.0224980  18.6370980
  49.2249350  42.4946760  18.8652310  45.5681180  43.1894240  24.4565330
  44.7541020  43.6191400  24.7191120  45.9755380  43.8012650  23.8434380
  47.6306620  41.2441930  11.3565600  47.9055460  42.1520810  11.2284820
  47.4417360  41.1804460  12.2927590  44.0282230  34.2686780  12.6519230
  44.4467110  34.0817760  11.8115890  43.7218290  33.4165830  12.9622160
  47.5271960  39.1810920  16.3495030  47.1515560  38.4138850  15.9176320
  46.7975080  39.5633620  16.8369960  32.1167720  39.8598060  22.9704080
  32.4840760  39.7725460  23.8500100  31.5478540  39.0964610  22.8710940
  46.9171580  38.3282440  25.9834550  46.6857670  38.0995190  25.0832500
  47.1776130  39.2481990  25.9379440  31.6683720  36.7707150  26.8762500
  30.7739770  36.7373910  27.2156210  32.2081270  36.9693940  27.6413750
  45.3559650  33.5538870  28.7614250  46.2329830  33.5622270  29.1448250
  45.3680490  32.8169710  28.1506600  30.2929870  36.6844420  14.3726070
  29.3893950  36.9474620  14.1977730  30.7770490  36.9555590  13.5926030
  46.8022920  37.4068410  19.6502270  47.3260400  36.9131060  19.0192440
  47.3882340  37.5418770  20.3949840  46.9812640  37.4908280  23.1721820
  46.0315350  37.4571820  23.2866810  47.1625650  38.4008390  22.9371590
  32.8357080  35.7409960  12.2820450  33.5448780  35.3193180  11.7967730
  32.1197020  35.8085190  11.6503800  32.4831240  31.7949290  11.3223100
  33.2059370  32.3358230  11.6404320  32.7555760  31.5212710  10.4464640
  46.2922890  36.6641760  15.5894680  46.7882010  36.4312630  16.3743560
  46.0938960  35.8253600  15.1732320  32.1723430  31.0455480  21.2245720
  32.8199620  30.4952860  20.7840880  32.5925270  31.2998630  22.0461530
  47.7210050  35.3002710  18.1232360  47.6109330  35.1458750  19.0614630
  48.4817640  34.7723650  17.8807770  46.0675770  31.2396840  24.5815360
  46.7047990  31.8530980  24.9474550  46.2150660  31.2757500  23.6364590
  48.6100320  33.1310630  11.3638500  49.5349630  32.9991810  11.1556790
  48.5876110  33.2103450  12.3174950  48.6838810  33.9021290  13.9895210
  47.8890310  33.8366410  14.5188120  48.8882090  34.8371930  13.9780560
  45.6257230  47.9412840  17.9833600  46.2216300  47.6197410  17.3068020
  45.8835380  47.4684660  18.7746870  31.9255430  31.2011150  23.9671040
  31.5770250  31.6574970  24.7329220  31.5943130  30.3068280  24.0493470
  33.5319800  44.3730750  28.1324230  33.4889430  44.0023660  29.0138690
  33.6630810  45.3108320  28.2726050  37.2325830  45.9290340  23.7333950
  36.9917190  46.1964900  22.8464470  38.1728470  46.0996070  23.7884810
  39.4380250  32.3923030  27.4890460  39.3769140  32.9844860  28.2385870
  40.3780630  32.2848990  27.3440720  42.0754810  32.0493090  27.1282750
  42.6895220  32.3672380  26.4663830  42.6204370  31.5641680  27.7478610
  48.4929990  47.9484720  24.5344590  47.9988270  48.3453590  23.8171720
  47.8843280  47.3233930  24.9281870  32.5976070  30.7287350  27.2421810
  33.1459060  30.5475400  26.4787920  32.6631380  29.9381460  27.7778120
  33.3707830  47.3193000  25.2522010  32.7768150  47.1877700  25.9912050
  33.3631670  46.4831140  24.7864110  42.8162850  30.6125230  23.4552040
  41.9422690  30.9460340  23.2524970  42.7073600  30.1398410  24.2803910
  43.7234830  32.8196100  24.8393760  43.3948190  32.0047860  24.4595490
  44.6717130  32.7765910  24.7159450  46.1769440  48.5908140  21.8131330
  45.7172410  49.3423950  21.4389350  45.5481900  47.8714610  21.7546130
  33.0020060  44.6851380  24.2030050  32.2754120  44.0656670  24.1356000
  33.0629210  45.0791990  23.3328130  36.6065160  46.8996380  20.9879460
  37.1230180  46.2883740  20.4627720  37.2562540  47.4025160  21.4790470
  39.3460660  47.7904870  21.8148440  39.6338470  47.5359170  20.9381450
  39.8583880  47.2382230  22.4054010  40.5637670  31.5295070  22.3944950
  39.7809460  32.0040570  22.6741710  40.2700600  30.6249900  22.2858130
  45.1158740  32.2318170  20.4394040  45.5566830  32.1763270  19.5915640
  44.8466330  33.1476180  20.5104220  46.9797310  31.8633410  18.4502860
  46.9185710  30.9194630  18.3033880  47.7589340  31.9713500  18.9956320
  31.2850060  48.0025770  17.4126810  31.1172100  47.3696450  18.1108700
  30.4184570  48.2085170  17.0621000  31.9078080  31.8342550  14.9158670
  32.6657440  31.9471430  14.3422700  31.4455250  32.6711750  14.8702100
  38.4491890  33.9481820  17.9060980  37.6366400  33.5738710  17.5656860
  38.9533530  33.1926900  18.2082170  42.9516870  30.6124270  19.1444050
  43.5546240  31.1844480  19.6192570  42.2109860  31.1763710  18.9217950
  46.0951470  31.0145830  14.4184330  46.2902100  31.9129280  14.6851760
  45.3081340  30.7832910  14.9117280  32.8912760  46.6959000  14.8576950
  32.3660380  47.0767030  14.1538910  32.8157340  47.3209770  15.5786660
  34.2803230  32.3606600  13.4560640  34.8095990  31.5736400  13.3268590
  34.9131550  33.0397790  13.6896170  36.4741070  32.0981740  16.5106030
  35.8443810  31.3969050  16.6776160  35.9346210  32.8585870  16.2939190
  39.4133020  48.7120970  29.1816640  40.3400330  48.4765240  29.2252600
  39.3983450  49.5392970  28.7002670  47.6478080  48.2546540  16.1790890
  47.8230270  47.5684280  15.5351810  46.9499650  48.7793590  15.7867560
  36.5996630  31.3765720  28.9458520  36.3180900  31.8799320  28.1819340
  36.9816330  30.5787470  28.5800650  35.4905730  48.6441380  13.7326200
  36.2224550  48.3600660  13.1850090  35.7499400  48.4054660  14.6225580
  34.6520520  44.7606110  13.7372530  34.0229400  45.2291210  14.2858360
  34.7668350  43.9155330  14.1718720  43.2012090  30.7919300  29.5238990
  43.0877540  31.1113910  30.4190510  44.0181830  31.1931810  29.2276270
  45.9810580  47.9390830  29.0057680  46.7735900  47.4440060  28.7983640
  46.2743730  48.6180970  29.6133290  40.2388280  40.5890790   1.7683000
  39.4630380  40.1091230   2.0581570  40.8901210  39.9096440   1.5939160
  34.2554110  40.9010600   2.6458760  33.4238990  40.6459310   3.0455270
  34.8635090  40.9721370   3.3816680  34.2355370  44.9350690   2.8416780
  34.5383410  44.0448430   2.6627000  34.9798960  45.4920910   2.6139030
  39.6797270  43.2647980   1.7753160  39.6105550  42.3237920   1.6142290
  40.4417130  43.3549390   2.3475730  31.8703940  33.8702500   4.1009780
  31.6906780  32.9728250   4.3812540  31.4684020  34.4174370   4.7756730
  32.4890610  36.3663000   2.7092120  33.1700720  36.6301370   3.3279520
  32.1738660  35.5263870   3.0430130  36.6815180  37.4130360   1.7964710
  37.1893400  37.9111330   2.4369730  37.2128420  36.6365560   1.6204070
  48.7826110  35.5835550   5.4994060  48.0778280  35.9717260   4.9809170
  49.0484030  36.2785840   6.1014990  34.9651280  32.0528920   6.0628130
  34.9669720  32.5701310   5.2574030  34.1355590  31.5759100   6.0398060
  36.2154130  41.6924100   4.2401630  35.8823510  42.3193020   4.8822700
  36.3920810  42.2185980   3.4603300  34.6466610  33.7638880   4.0698580
  34.9883420  34.6080930   3.7752450  33.7082420  33.9122620   4.1863920
  35.4273230  43.6604900   6.0550810  36.0447230  44.3355980   5.7735260
  34.5666350  44.0692880   5.9638310  46.3450820  45.1244310   3.9705450
  45.6614340  45.7943420   3.9622120  46.8845110  45.3224960   3.2050310
  47.7974960  34.9523970   2.0987180  46.8499870  34.9862950   2.2302610
  48.1224950  35.7662920   2.4836540  43.8809560  46.9688440   2.6850630
  43.8936720  46.5650730   1.8172890  43.3284780  47.7435730   2.5812060
  43.2795000  41.8718280   4.0133240  43.6963790  41.6578390   3.1786700
  44.0034820  42.1291070   4.5841860  47.2257100  40.2705500   4.1049480
  46.3975730  40.3398590   3.6299610  47.8207580  40.8559810   3.6365310
  44.1899110  37.0574820   5.0504350  43.7770290  37.8828530   5.3044340
  43.4575060  36.4719860   4.8580710  35.0360520  36.6177930   3.6922060
  35.5875110  36.7273270   2.9175310  35.5504030  36.9915530   4.4077290
  44.8799210  47.1034150   5.7385330  44.4029770  47.9106340   5.5457940
  44.1961000  46.4512480   5.8911540  35.8832030  43.2683970   8.7270030
  34.9860560  43.4923940   8.9743430  35.9084900  43.3918910   7.7781430
  34.7103250  40.1397290   7.3027400  34.5711020  41.0120090   7.6714800
  33.8284610  39.7970100   7.1575340  36.5083600  46.0818990   9.5112550
  36.4799030  46.4861940   8.6440980  36.3448570  45.1529350   9.3484150
  48.4598420  46.8646090  10.8076720  48.9358140  47.3428980  11.4865800
  49.0805580  46.7963580  10.0822220  30.6621900  41.9094840   3.2198310
  30.7402320  42.0443610   2.2754030  31.2763580  41.2010730   3.4126430
  47.8631670  44.0558940   7.9676730  47.9894730  43.8170820   7.0493910
  47.9053050  43.2243480   8.4398810  41.7248410  47.7586940   6.5371540
  42.2393080  47.6694950   7.3393970  40.8817490  48.1046640   6.8299450
  47.7155680  36.1091400   8.9326470  47.0999950  36.6171070   8.4041930
  47.3952100  35.2089730   8.8752410  30.7181420  42.9509010   5.7592770
  30.8812460  42.4814370   4.9412140  31.1833870  42.4432570   6.4241610
  39.7770000  34.9483290   6.3988660  39.3149370  35.1566310   7.2108600
  39.3748110  34.1342640   6.0959330  44.7774510  36.1692240   7.5285320
  43.9268100  35.8697990   7.8494390  44.6176300  36.4134250   6.6169140
  41.8724220  37.6693990   9.6284110  42.1977630  36.8357740   9.2886340
  42.6604550  38.1922510   9.7762440  37.5276090  32.6262100   2.6542940
  37.8248420  33.5324930   2.5734960  38.0761650  32.1380880   2.0402510
  37.7213620  38.1033920   9.1894860  37.6257220  37.1628650   9.0395260
  38.5645600  38.3248990   8.7942930  32.8524160  34.5147590   7.3428640
  32.4587550  35.3622800   7.5501420  32.1642560  33.8773960   7.5337280
  39.4269210  34.5982560  10.4125380  38.7367530  34.4054760  11.0471470
  40.1701510  34.8817200  10.9449680  41.7032180  38.4381000   3.2479300
  40.9713300  38.9467810   3.5969400  41.3056520  37.6210980   2.9468080
  42.1658090  33.8914680   2.6602240  42.1830830  34.3423330   3.5044090
  41.9173670  32.9920320   2.8735680  45.5928840  31.3046860   8.4988620
  45.9174610  30.5736520   9.0246600  45.6285350  30.9860500   7.5969610
  32.2920400  42.3260440   7.9188580  31.9075190  41.6854110   8.5171540
  32.6032590  43.0296560   8.4883310  38.4417540  39.1736980   3.3997200
  38.8087670  38.6995550   4.1458540  38.2522600  40.0478550   3.7405540
  36.2316910  38.2145620   5.7181410  35.9273980  39.0937600   5.9431770
  37.1863370  38.2745410   5.7538850  45.5186680  41.4171970   2.1074650
  46.2385800  41.9127260   1.7170760  45.3168500  40.7389860   1.4628520
  40.9005480  41.4881030   7.9943650  40.8342790  40.5676700   7.7401240
  40.2710620  41.5856470   8.7088290  32.2880640  39.0548360   6.8652770
  31.9295580  39.7202210   7.4526110  31.9935200  38.2231910   7.2365390
  35.4893760  39.5132600   9.7492320  35.1893900  39.6589780   8.8520140
  36.2605000  38.9537890   9.6565710  40.8322210  44.3101600   7.7447450
  40.8466750  43.3782560   7.5266360  40.1247310  44.3961360   8.3837220
  47.0433420  40.9508940   7.0916030  46.3181610  41.5437720   6.8945420
  47.5708880  40.9432480   6.2929400  40.2656110  45.9519170   4.8387950
  40.9098330  46.1578550   5.5161370  40.6285550  45.1907570   4.3858800
  41.5388190  43.9551520   3.5565400  42.1810420  43.2544680   3.6697570
  42.0637540  44.7349960   3.3762290  43.3125810  44.7546420   6.7601460
  43.6482050  45.3413110   7.4379380  42.3926150  44.6239130   6.9899250
  30.8629210  32.5441600   7.5424870  30.1487730  32.7438520   8.1477480
  31.2824250  31.7681170   7.9139670  31.1501800  46.5321860   8.5291400
  31.2592920  45.5916600   8.3886790  30.4982360  46.7976610   7.8805130
  39.1414390  44.8037750   9.9289520  38.8211260  44.0846990  10.4735210
  38.4672750  45.4792820  10.0025580  42.3567990  35.0363910   5.2926320
  42.7248810  34.2159120   5.6205890  41.4966190  35.0965800   5.7081970
  39.3169980  37.6903500   5.5164290  39.8155230  38.1649320   6.1816140
  39.4592930  36.7667020   5.7234320  46.5236840  33.9071460   6.3592680
  46.0210440  34.6476860   6.6986490  47.3393500  34.2955460   6.0429470
  33.2960240  47.5990770  10.3411010  34.0972970  47.9202820  10.7546410
  32.7812060  47.2386350  11.0630920  42.1324870  43.7070640  10.2886420
  41.5263030  43.7302240   9.5482170  41.8278980  42.9753680  10.8253670
  43.5625240  47.4350930   8.8995830  44.5146990  47.3508950   8.8496070
  43.4153460  48.0992640   9.5729620  31.0158050  40.0864230   9.2847060
  31.5197070  39.5071510   9.8563290  30.2765470  40.3704460   9.8223430
  38.0695990  41.4935220   8.8182580  37.3041660  42.0620220   8.7337250
  38.2511950  41.2011430   7.9250810  45.2119340  43.2240550   9.3757600
  45.9528810  43.5616310   8.8725060  44.4492020  43.3932610   8.8227370
  33.0481130  38.2293820  10.1797130  33.0886470  37.9307690  11.0882360
  33.9026630  38.6301430  10.0204650  34.9886940  36.8085920   8.1471620
  34.4583400  36.3176870   7.5194960  35.6575010  37.2370120   7.6129550
  43.8865000  41.2755380   7.9112810  44.3006020  41.4300460   8.7603230
  42.9516000  41.4010600   8.0738590  44.3587170  38.6151540   9.9151960
  44.9407940  37.8603860   9.8272440  44.5348940  39.1458980   9.1383440
  35.4759240  33.7748290   8.2268910  35.3816110  33.1569040   7.5019780
  34.8956630  34.5014580   7.9998820  38.2420680  32.3321530   5.2596300
  37.7937980  32.3545790   4.4141850  37.6085880  31.9340550   5.8566600
  38.6480230  41.2275860   5.8808740  39.0668340  42.0708590   5.7084980
  37.7288860  41.3647900   5.6515520  40.9844130  38.9592040   7.2646580
  41.1040340  38.3633180   8.0041420  41.8438130  38.9961730   6.8447880
  43.3232030  39.5129230   5.8409090  42.7967250  40.0371850   5.2374230
  43.6663370  40.1456620   6.4718820  36.4987650  47.5328870   6.9966470
  35.9608740  48.2574930   6.6775170  36.7521610  47.0559210   6.2063810
  37.7512900  35.5013390   8.5222400  38.3412590  35.1929240   9.2100220
  36.9333140  35.0293140   8.6782300  42.5706330  35.1179200   8.7555420
  41.8821850  34.4560740   8.6905410  43.2912350  34.6717470   9.2003880
  39.3549860  48.7680080   7.2553120  39.2808560  49.6715220   7.5625490
  38.4528700  48.4491980   7.2275190  31.2467360  46.9625260   3.2968370
  30.8098350  47.1426060   4.1292520  31.8145040  47.7199880   3.1550090
  46.8829540  46.4642260   7.5845680  46.2831530  46.5234820   6.8409600
  47.0123440  45.5247240   7.7142530  45.5681180  43.1894240   5.6821840
  44.7541020  43.6191400   5.9447630  45.9755380  43.8012650   5.0690890
  32.1167720  39.8598060   4.1960590  32.4840760  39.7725460   5.0756610
  31.5478540  39.0964610   4.0967450  46.9171580  38.3282440   7.2091060
  46.6857670  38.0995190   6.3089010  47.1776130  39.2481990   7.1635950
  31.6683720  36.7707150   8.1019010  30.7739770  36.7373910   8.4412720
  32.2081270  36.9693940   8.8670260  45.3559650  33.5538870   9.9870760
  46.2329830  33.5622270  10.3704760  45.3680490  32.8169710   9.3763110
  46.9812640  37.4908280   4.3978330  46.0315350  37.4571820   4.5123320
  47.1625650  38.4008390   4.1628100  32.1723430  31.0455480   2.4502230
  32.8199620  30.4952860   2.0097390  32.5925270  31.2998630   3.2718040
  46.0675770  31.2396840   5.8071870  46.7047990  31.8530980   6.1731060
  46.2150660  31.2757500   4.8621100  31.9255430  31.2011150   5.1927550
  31.5770250  31.6574970   5.9585730  31.5943130  30.3068280   5.2749980
  33.5319800  44.3730750   9.3580740  33.4889430  44.0023660  10.2395200
  33.6630810  45.3108320   9.4982560  37.2325830  45.9290340   4.9590460
  36.9917190  46.1964900   4.0720980  38.1728470  46.0996070   5.0141320
  39.4380250  32.3923030   8.7146970  39.3769140  32.9844860   9.4642380
  40.3780630  32.2848990   8.5697230  42.0754810  32.0493090   8.3539260
  42.6895220  32.3672380   7.6920340  42.6204370  31.5641680   8.9735120
  48.4929990  47.9484720   5.7601100  47.9988270  48.3453590   5.0428230
  47.8843280  47.3233930   6.1538380  32.5976070  30.7287350   8.4678320
  33.1459060  30.5475400   7.7044430  32.6631380  29.9381460   9.0034630
  33.3707830  47.3193000   6.4778520  32.7768150  47.1877700   7.2168560
  33.3631670  46.4831140   6.0120620  42.8162850  30.6125230   4.6808550
  41.9422690  30.9460340   4.4781480  42.7073600  30.1398410   5.5060420
  43.7234830  32.8196100   6.0650270  43.3948190  32.0047860   5.6852000
  44.6717130  32.7765910   5.9415960  46.1769440  48.5908140   3.0387840
  45.7172410  49.3423950   2.6645860  45.5481900  47.8714610   2.9802640
  33.0020060  44.6851380   5.4286560  32.2754120  44.0656670   5.3612510
  33.0629210  45.0791990   4.5584640  36.6065160  46.8996380   2.2135970
  37.1230180  46.2883740   1.6884230  37.2562540  47.4025160   2.7046980
  39.3460660  47.7904870   3.0404950  39.6338470  47.5359170   2.1637960
  39.8583880  47.2382230   3.6310520  40.5637670  31.5295070   3.6201460
  39.7809460  32.0040570   3.8998220  40.2700600  30.6249900   3.5114640
  39.4133020  48.7120970  10.4073150  40.3400330  48.4765240  10.4509110
  39.3983450  49.5392970   9.9259180  36.5996630  31.3765720  10.1715030
  36.3180900  31.8799320   9.4075850  36.9816330  30.5787470   9.8057160
  43.2012090  30.7919300  10.7495500  43.0877540  31.1113910  11.6447020
  44.0181830  31.1931810  10.4532780  45.9810580  47.9390830  10.2314190
  46.7735900  47.4440060  10.0240150  46.2743730  48.6180970  10.8389800
  42.1070240  20.0368280 150.0821650  42.0264290  19.1222890 149.8113360
  41.6934660  20.5335350 149.3761360  44.2595710  26.2207490 150.7430050
  43.7977240  25.4494730 151.0717220  45.0721260  26.2473560 151.2482500
  32.6646060  17.0869000 146.6249070  31.7762760  17.4284970 146.5228950
  32.9487250  16.8869320 145.7329900  40.4859020  28.5065500 150.3634040
  39.8670460  28.9623000 149.7928480  41.3410800  28.6616960 149.9623740
  34.8407450  15.6700500 147.6587450  34.9474200  16.5704230 147.9656210
  33.9299810  15.6218470 147.3682100  44.4926560  14.7925310 149.1298350
  45.3136180  14.3021880 149.1723830  44.5260640  15.3822970 149.8830190
  41.3522370  23.3904740 147.7565950  40.7339640  23.8554190 147.1928670
  41.8645620  24.0832220 148.1735460  30.7205570  24.0761270 145.1305580
  30.3433550  24.5648370 144.3990480  30.9778640  24.7486550 145.7612110
  38.3294500  12.4777660 150.5891090  38.6369480  11.9224550 149.8726590
  37.3995200  12.6122120 150.4064080  45.1754980  24.9161170 147.9688720
  45.0651310  23.9735500 148.0938140  45.1723230  25.2776810 148.8551480
  40.7175260  20.5426490 147.3251210  39.7904540  20.4763870 147.5539680
  40.8700080  21.4806620 147.2106450  40.7044340  16.8143490 144.3218370
  39.7648010  16.9757450 144.4070830  41.0227600  17.5329170 143.7754360
  44.7472550  22.1046790 147.8286460  44.1284970  21.7666340 147.1812760
  44.7297000  21.4606550 148.5365650  36.3231900  21.0691230 150.1070940
  35.9188900  20.3568480 149.6116840  36.4095020  20.7244470 150.9958980
  42.9237250  21.3433600 144.8359210  43.3630530  20.5056030 144.6897030
  43.6365670  21.9763000 144.9223350  41.0332630  26.2829670 148.8040450
  41.4728540  27.0254000 148.3895840  40.9719520  26.5256240 149.7279410
  46.5054390  12.5976410 143.1500250  46.1927050  12.6903240 144.0499320
  47.2666860  13.1757440 143.0997680  33.0236530  19.9636210 147.6077590
  32.9034130  20.6898300 146.9958860  32.7137420  19.1939120 147.1305500
  31.9069530  24.8351540 149.8252410  31.4997610  24.9766130 148.9706010
  32.7982540  24.5511700 149.6223620  43.7002810  29.2698790 146.1603460
  43.5403950  28.9801730 147.0585290  43.5349520  28.4938920 145.6248690
  36.1791190  29.0497320 147.9375080  36.0033670  28.1332860 147.7242880
  35.3246930  29.4084610 148.1772880  43.4028940  26.7786350 144.7201460
  42.7094100  26.7763640 144.0603740  44.1451800  26.3545670 144.2895630
  42.9678870  28.4049060 148.7949950  43.4235820  27.6238440 149.1088570
  43.3071390  29.1155880 149.3391130  35.4900190  13.3071280 150.9901260
  35.0468340  14.0880820 150.6585780  36.0485180  13.6301170 151.6972200
  38.6059010  12.9281980 145.8707090  37.9813190  12.9241850 146.5960400
  38.5189130  12.0612940 145.4743060  35.2814410  18.4304850 148.7182510
  35.0555330  18.2142020 149.6229130  34.5006940  18.8633310 148.3728480
  42.5112170  18.4368220 147.3173160  41.9121060  19.1604020 147.1336780
  43.0591780  18.3745000 146.5349610  41.1177040  17.0731760 149.3476440
  41.5106610  17.3903960 148.5345130  41.4793890  16.1943640 149.4620960
  30.3411440  17.6052680 142.7809360  30.2586110  18.5483440 142.9224350
  29.9894500  17.4627590 141.9021710  33.9911950  16.2218200 150.8073920
  33.6512000  16.6993430 151.5640970  33.2289270  15.7683320 150.4475020
  38.2029720  17.3403790 144.8386470  38.3242540  17.2990270 145.7872290
  37.8178230  18.2027940 144.6833200  37.2151220  19.6504930 144.2369770
  36.6468120  19.2023180 143.6105680  37.9240220  20.0097710 143.7034920
  31.3058030  15.1437180 149.7238590  31.0204950  14.7792850 150.5617210
  31.2436890  14.4117640 149.1101730  34.7598700  23.6463120 146.5096180
  33.9860960  23.1060740 146.3494900  35.4893330  23.1269730 146.1713940
  40.9796620  14.0366440 146.4451960  40.1661230  13.5379610 146.3697270
  40.7858570  14.8764690 146.0288310  43.6945010  18.4086090 144.7414120
  44.5824630  18.7203320 144.5665460  43.6650100  17.5358340 144.3494700
  34.8036100  23.3143500 150.1474990  35.3214770  22.5111760 150.0931880
  34.3520120  23.2522640 150.9891820  39.6905600  24.5809780 145.4202290
  40.0321300  25.3252010 144.9245610  38.8618310  24.8940900 145.7827120
  45.9659280  19.7197930 144.2093980  45.8823000  20.1512150 143.3590420
  46.6853470  20.1796280 144.6420800  46.9946530  26.5740190 146.9376110
  46.3522690  25.9195810 147.2119830  46.6077190  26.9795280 146.1616780
  42.5733010  23.9025620 150.7847800  42.9256830  23.3053750 150.1249170
  41.6895340  23.5769850 150.9556050  38.6596290  24.6623310 148.1918210
  39.3467420  25.2092520 148.5725800  37.8728710  25.2064040 148.2267820
  30.7988690  20.2796130 143.6835290  31.6683540  20.5620930 143.9671210
  30.3079010  21.0932000 143.5684100  37.9623500  21.6669340 147.8043570
  38.4186280  22.4774590 148.0303760  37.6111710  21.3492480 148.6362060
  33.8635280  12.0106990 148.2766090  33.7349910  12.0024890 149.2251010
  33.0397300  12.3490080 147.9257100  45.3843910  25.4656650 143.4752460
  45.1581490  24.7487090 144.0677100  44.9940110  25.2169090 142.6374210
  31.1659940  29.4923510 144.2496920  31.5257580  30.0912850 143.5954190
  31.0252280  30.0383400 145.0231950  44.9660160  23.3828590 145.1366620
  44.6781860  23.8441280 145.9244500  45.7612330  22.9226360 145.4050840
  37.1828560  26.8754710 145.0670590  37.1738660  27.6084400 144.4515100
  36.2626920  26.6286290 145.1597550  32.7835200  22.0969600 145.8117350
  32.1763150  22.8368500 145.8212650  33.2584550  22.1868960 144.9855550
  45.7230020  15.2177360 146.2961800  45.0943180  15.3223030 145.5820030
  45.2281940  15.4374140 147.0855680  40.1688160  26.9382950 143.7295780
  40.2700140  26.7346940 142.7997760  39.2689900  26.6841230 143.9343560
  37.6914050  17.4963310 147.7119680  36.9830200  17.9649650 148.1533290
  37.9758530  16.8385320 148.3464870  41.7229480  14.2213970 149.1515470
  41.5997260  14.2400100 148.2024980  42.6714040  14.2692910 149.2713870
  38.8106270  29.4569270 148.4243450  39.0647770  29.4190660 147.5022820
  37.8618750  29.3302600 148.4171700  35.8949070  15.8048390 145.0870390
  36.7439600  16.2418540 145.0210580  35.5280340  16.1168650 145.9142450
  44.8158850  20.3761150 150.0001960  43.8748990  20.3911380 150.1749650
  45.1302920  19.5897110 150.4462260  34.7940490  22.0580750 143.5605920
  35.5603760  21.9462110 144.1231350  34.8715180  21.3618720 142.9082690
  33.4887250  19.4905820 144.2438810  33.5690840  18.5433330 144.3556210
  34.3807000  19.8212700 144.3499470  34.2901960  29.6401210 151.3473350
  35.0264440  29.0916670 151.6181920  34.6742880  30.5057220 151.2079340
  31.1747440  25.7074780 147.2214860  30.2487220  25.9495920 147.2120270
  31.6403870  26.5349040 147.0999610  37.4004270  28.8131520 143.1698920
  38.1932880  29.1020350 142.7180710  36.8808620  28.3823690 142.4911400
  46.4534440  28.0401650 144.5935660  46.1675950  27.6266790 143.7789840
  46.2553990  28.9689360 144.4736180  37.9181670  24.0334930 143.0341270
  37.8132310  23.4187280 143.7602650  37.7505890  23.5100820 142.2504280
  41.1584400  23.0954960 143.6383260  40.6094500  23.5424260 144.2826000
  41.7803660  22.5904210 144.1620930  36.8259520  22.0545880 145.5348560
  37.2475940  21.8885750 146.3779950  36.9510360  21.2446110 145.0403700
  39.3387160  21.0783490 142.7825660  39.8592820  20.3632510 142.4166810
  39.9855560  21.7169360 143.0826170  35.7218420  18.1279110 142.4806720
  35.5207480  17.2646470 142.8420060  35.5510470  18.0412470 141.5428320
  43.2006730  12.9387340 145.0093600  43.4809020  12.0955240 145.3653020
  42.4272460  13.1710450 145.5232350  34.5201220  15.2279730 142.4684600
  34.8227120  15.2347160 141.5603750  35.2595810  14.8777590 142.9652260
  37.7386150  14.1714350 143.4540800  37.3908150  13.4938340 142.8743250
  37.9398920  13.7103860 144.2684190  39.9035190  29.1595100 145.0727400
  40.7985980  29.4980070 145.0946160  39.9352820  28.4374510 144.4451680
  33.5431350  24.5322150 143.3014400  33.9806220  25.0751820 143.9571980
  34.0279080  23.7069100 143.3110740  30.7577150  27.3211180 150.7534660
  31.0880160  26.4532240 150.5213300  31.1868150  27.5269700 151.5839620
  35.3539070  25.6520190 148.4136630  35.0534610  25.5285160 149.3140540
  35.2476560  24.7928780 148.0052360  48.1230990  25.4316590 143.1163310
  47.2923950  25.4993240 143.5870540  48.3002820  26.3220710 142.8130170
  47.5787450  22.1764070 145.6197510  48.3406360  22.7460720 145.7257200
  47.5941820  21.6091270 146.3905820  31.0791790  20.7002000 149.8505170
  30.4240630  20.4313640 149.2064870  31.9169740  20.5906480 149.4007150
  48.5847420  23.0314170 150.4639440  48.9556250  22.2481490 150.0575410
  49.2249350  23.7203270 150.2856740  47.6306620  22.4698440 142.7770030
  47.9055460  23.3777320 142.6489250  47.4417360  22.4060970 143.7132020
  44.0282230  15.4943290 144.0723660  44.4467110  15.3074270 143.2320320
  43.7218290  14.6422340 144.3826590  47.5271960  20.4067430 147.7699460
  47.1515560  19.6395360 147.3380750  46.7975080  20.7890130 148.2574390
  30.2929870  17.9100930 145.7930500  29.3893950  18.1731130 145.6182160
  30.7770490  18.1812100 145.0130460  32.8357080  16.9666470 143.7024880
  33.5448780  16.5449690 143.2172160  32.1197020  17.0341700 143.0708230
  32.4831240  13.0205800 142.7427530  33.2059370  13.5614740 143.0608750
  32.7555760  12.7469220 141.8669070  46.2922890  17.8898270 147.0099110
  46.7882010  17.6569140 147.7947990  46.0938960  17.0510110 146.5936750
  47.7210050  16.5259220 149.5436790  47.6109330  16.3715260 150.4819060
  48.4817640  15.9980160 149.3012200  48.6100320  14.3567140 142.7842930
  49.5349630  14.2248320 142.5761220  48.5876110  14.4359960 143.7379380
  48.6838810  15.1277800 145.4099640  47.8890310  15.0622920 145.9392550
  48.8882090  16.0628440 145.3984990  45.6257230  29.1669350 149.4038030
  46.2216300  28.8453920 148.7272450  45.8835380  28.6941170 150.1951300
  46.9797310  13.0889920 149.8707290  46.9185710  12.1451140 149.7238310
  47.7589340  13.1970010 150.4160750  31.2850060  29.2282280 148.8331240
  31.1172100  28.5952960 149.5313130  30.4184570  29.4341680 148.4825430
  31.9078080  13.0599060 146.3363100  32.6657440  13.1727940 145.7627130
  31.4455250  13.8968260 146.2906530  38.4491890  15.1738330 149.3265410
  37.6366400  14.7995220 148.9861290  38.9533530  14.4183410 149.6286600
  42.9516870  11.8380780 150.5648480  43.5546240  12.4100990 151.0397000
  42.2109860  12.4020220 150.3422380  46.0951470  12.2402340 145.8388760
  46.2902100  13.1385790 146.1056190  45.3081340  12.0089420 146.3321710
  32.8912760  27.9215510 146.2781380  32.3660380  28.3023540 145.5743340
  32.8157340  28.5466280 146.9991090  34.2803230  13.5863110 144.8765070
  34.8095990  12.7992910 144.7473020  34.9131550  14.2654300 145.1100600
  36.4741070  13.3238250 147.9310460  35.8443810  12.6225560 148.0980590
  35.9346210  14.0842380 147.7143620  47.6478080  29.4803050 147.5995320
  47.8230270  28.7940790 146.9556240  46.9499650  30.0050100 147.2071990
  35.4905730  29.8697890 145.1530630  36.2224550  29.5857170 144.6054520
  35.7499400  29.6311170 146.0430010  34.6520520  25.9862620 145.1576960
  34.0229400  26.4547720 145.7062790  34.7668350  25.1411840 145.5923150
  42.1070240  20.0368280 131.3078160  42.0264290  19.1222890 131.0369870
  41.6934660  20.5335350 130.6017870  40.2388280  21.8147300 133.1887430
  39.4630380  21.3347740 133.4786000  40.8901210  21.1352950 133.0143590
  34.2554110  22.1267110 134.0663190  33.4238990  21.8715820 134.4659700
  34.8635090  22.1977880 134.8021110  44.2595710  26.2207490 131.9686560
  43.7977240  25.4494730 132.2973730  45.0721260  26.2473560 132.4739010
  34.2355370  26.1607200 134.2621210  34.5383410  25.2704940 134.0831430
  34.9798960  26.7177420 134.0343460  32.6646060  17.0869000 127.8505580
  31.7762760  17.4284970 127.7485460  32.9487250  16.8869320 126.9586410
  30.6279070  19.6874650 133.7345280  31.1995180  18.9196850 133.7348920
  30.6280610  19.9863410 132.8251890  40.4859020  28.5065500 131.5890550
  39.8670460  28.9623000 131.0184990  41.3410800  28.6616960 131.1880250
  39.6797270  24.4904490 133.1957590  39.6105550  23.5494430 133.0346720
  40.4417130  24.5805900 133.7680160  31.8703940  15.0959010 135.5214210
  31.6906780  14.1984760 135.8016970  31.4684020  15.6430880 136.1961160
  40.7102440  17.2974870 133.4226520  41.0867260  16.4246750 133.3100190
  40.6121950  17.6333570 132.5316960  34.8407450  15.6700500 128.8843960
  34.9474200  16.5704230 129.1912720  33.9299810  15.6218470 128.5938610
  44.4926560  14.7925310 130.3554860  45.3136180  14.3021880 130.3980340
  44.5260640  15.3822970 131.1086700  32.4890610  17.5919510 134.1296550
  33.1700720  17.8557880 134.7483950  32.1738660  16.7520380 134.4634560
  36.6815180  18.6386870 133.2169140  37.1893400  19.1367840 133.8574160
  37.2128420  17.8622070 133.0408500  48.7826110  16.8092060 136.9198490
  48.0778280  17.1973770 136.4013600  49.0484030  17.5042350 137.5219420
  34.9651280  13.2785430 137.4832560  34.9669720  13.7957820 136.6778460
  34.1355590  12.8015610 137.4602490  41.3522370  23.3904740 128.9822460
  40.7339640  23.8554190 128.4185180  41.8645620  24.0832220 129.3991970
  36.2154130  22.9180610 135.6606060  35.8823510  23.5449530 136.3027130
  36.3920810  23.4442490 134.8807730  44.7288040  16.7325690 133.1282400
  44.0243610  17.0210580 133.7085510  45.0900200  17.5425800 132.7681960
  34.6466610  14.9895390 135.4903010  34.9883420  15.8337440 135.1956880
  33.7082420  15.1379130 135.6068350  35.4273230  24.8861410 137.4755240
  36.0447230  25.5612490 137.1939690  34.5666350  25.2949390 137.3842740
  30.7205570  24.0761270 126.3562090  30.3433550  24.5648370 125.6246990
  30.9778640  24.7486550 126.9868620  46.3450820  26.3500820 135.3909880
  45.6614340  27.0199930 135.3826550  46.8845110  26.5481470 134.6254740
  47.7974960  16.1780480 133.5191610  46.8499870  16.2119460 133.6507040
  48.1224950  16.9919430 133.9040970  38.3294500  12.4777660 131.8147600
  38.6369480  11.9224550 131.0983100  37.3995200  12.6122120 131.6320590
  43.8809560  28.1944950 134.1055060  43.8936720  27.7907240 133.2377320
  43.3284780  28.9692240 134.0016490  45.1754980  24.9161170 129.1945230
  45.0651310  23.9735500 129.3194650  45.1723230  25.2776810 130.0807990
  43.2795000  23.0974790 135.4337670  43.6963790  22.8834900 134.5991130
  44.0034820  23.3547580 136.0046290  40.7175260  20.5426490 128.5507720
  39.7904540  20.4763870 128.7796190  40.8700080  21.4806620 128.4362960
  40.7044340  16.8143490 125.5474880  39.7648010  16.9757450 125.6327340
  41.0227600  17.5329170 125.0010870  47.2257100  21.4962010 135.5253910
  46.3975730  21.5655100 135.0504040  47.8207580  22.0816320 135.0569740
  44.7472550  22.1046790 129.0542970  44.1284970  21.7666340 128.4069270
  44.7297000  21.4606550 129.7622160  44.1899110  18.2831330 136.4708780
  43.7770290  19.1085040 136.7248770  43.4575060  17.6976370 136.2785140
  36.3231900  21.0691230 131.3327450  35.9188900  20.3568480 130.8373350
  36.4095020  20.7244470 132.2215490  36.7913600  24.7558790 133.4966660
  36.4941890  24.1504260 132.8174440  37.7413420  24.7936100 133.3856020
  35.0360520  17.8434440 135.1126490  35.5875110  17.9529780 134.3379740
  35.5504030  18.2172040 135.8281720  44.8799210  28.3290660 137.1589760
  44.4029770  29.1362850 136.9662370  44.1961000  27.6768990 137.3115970
  35.8832030  24.4940480 140.1474460  34.9860560  24.7180450 140.3947860
  35.9084900  24.6175420 139.1985860  42.9237250  21.3433600 126.0615720
  43.3630530  20.5056030 125.9153540  43.6365670  21.9763000 126.1479860
  34.7103250  21.3653800 138.7231830  34.5711020  22.2376600 139.0919230
  33.8284610  21.0226610 138.5779770  41.0332630  26.2829670 130.0296960
  41.4728540  27.0254000 129.6152350  40.9719520  26.5256240 130.9535920
  36.5083600  27.3075500 140.9316980  36.4799030  27.7118450 140.0645410
  36.3448570  26.3785860 140.7688580  46.5054390  12.5976410 124.3756760
  46.1927050  12.6903240 125.2755830  47.2666860  13.1757440 124.3254190
  33.0236530  19.9636210 128.8334100  32.9034130  20.6898300 128.2215370
  32.7137420  19.1939120 128.3562010  48.4598420  28.0902600 142.2281150
  48.9358140  28.5685490 142.9070230  49.0805580  28.0220090 141.5026650
  30.6621900  23.1351350 134.6402740  30.7402320  23.2700120 133.6958460
  31.2763580  22.4267240 134.8330860  31.9069530  24.8351540 131.0508920
  31.4997610  24.9766130 130.1962520  32.7982540  24.5511700 130.8480130
  47.8631670  25.2815450 139.3881160  47.9894730  25.0427330 138.4698340
  47.9053050  24.4499990 139.8603240  41.7248410  28.9843450 137.9575970
  42.2393080  28.8951460 138.7598400  40.8817490  29.3303150 138.2503880
  43.7002810  29.2698790 127.3859970  43.5403950  28.9801730 128.2841800
  43.5349520  28.4938920 126.8505200  36.1791190  29.0497320 129.1631590
  36.0033670  28.1332860 128.9499390  35.3246930  29.4084610 129.4029390
  43.4028940  26.7786350 125.9457970  42.7094100  26.7763640 125.2860250
  44.1451800  26.3545670 125.5152140  42.9678870  28.4049060 130.0206460
  43.4235820  27.6238440 130.3345080  43.3071390  29.1155880 130.5647640
  47.7155680  17.3347910 140.3530900  47.0999950  17.8427580 139.8246360
  47.3952100  16.4346240 140.2956840  30.7181420  24.1765520 137.1797200
  30.8812460  23.7070880 136.3616570  31.1833870  23.6689080 137.8446040
  35.4900190  13.3071280 132.2157770  35.0468340  14.0880820 131.8842290
  36.0485180  13.6301170 132.9228710  39.7770000  16.1739800 137.8193090
  39.3149370  16.3822820 138.6313030  39.3748110  15.3599150 137.5163760
  44.7774510  17.3948750 138.9489750  43.9268100  17.0954500 139.2698820
  44.6176300  17.6390760 138.0373570  41.8724220  18.8950500 141.0488540
  42.1977630  18.0614250 140.7090770  42.6604550  19.4179020 141.1966870
  38.6059010  12.9281980 127.0963600  37.9813190  12.9241850 127.8216910
  38.5189130  12.0612940 126.6999570  37.5276090  13.8518610 134.0747370
  37.8248420  14.7581440 133.9939390  38.0761650  13.3637390 133.4606940
  35.2814410  18.4304850 129.9439020  35.0555330  18.2142020 130.8485640
  34.5006940  18.8633310 129.5984990  42.5112170  18.4368220 128.5429670
  41.9121060  19.1604020 128.3593290  43.0591780  18.3745000 127.7606120
  37.7213620  19.3290430 140.6099290  37.6257220  18.3885160 140.4599690
  38.5645600  19.5505500 140.2147360  41.1177040  17.0731760 130.5732950
  41.5106610  17.3903960 129.7601640  41.4793890  16.1943640 130.6877470
  32.8524160  15.7404100 138.7633070  32.4587550  16.5879310 138.9705850
  32.1642560  15.1030470 138.9541710  39.4269210  15.8239070 141.8329810
  38.7367530  15.6311270 142.4675900  40.1701510  16.1073710 142.3654110
  30.1541210  13.6632560 132.7963150  29.8654260  14.2335420 133.5088130
  30.8986970  13.1837010 133.1594380  30.3411440  17.6052680 124.0065870
  30.2586110  18.5483440 124.1480860  29.9894500  17.4627590 123.1278220
  41.7032180  19.6637510 134.6683730  40.9713300  20.1724320 135.0173830
  41.3056520  18.8467490 134.3672510  38.1409570  16.3391710 133.0736220
  38.1445630  15.8981660 132.2240760  39.0360690  16.6609040 133.1808040
  33.9911950  16.2218200 132.0330430  33.6512000  16.6993430 132.7897480
  33.2289270  15.7683320 131.6731530  38.2029720  17.3403790 126.0642980
  38.3242540  17.2990270 127.0128800  37.8178230  18.2027940 125.9089710
  42.1658090  15.1171190 134.0806670  42.1830830  15.5679840 134.9248520
  41.9173670  14.2176830 134.2940110  37.2151220  19.6504930 125.4626280
  36.6468120  19.2023180 124.8362190  37.9240220  20.0097710 124.9291430
  45.5928840  12.5303370 139.9193050  45.9174610  11.7993030 140.4451030
  45.6285350  12.2117010 139.0174040  32.2920400  23.5516950 139.3393010
  31.9075190  22.9110620 139.9375970  32.6032590  24.2553070 139.9087740
  38.4417540  20.3993490 134.8201630  38.8087670  19.9252060 135.5662970
  38.2522600  21.2735060 135.1609970  31.3058030  15.1437180 130.9495100
  31.0204950  14.7792850 131.7873720  31.2436890  14.4117640 130.3358240
  36.2316910  19.4402130 137.1385840  35.9273980  20.3194110 137.3636200
  37.1863370  19.5001920 137.1743280  34.7598700  23.6463120 127.7352690
  33.9860960  23.1060740 127.5751410  35.4893330  23.1269730 127.3970450
  45.5186680  22.6428480 133.5279080  46.2385800  23.1383770 133.1375190
  45.3168500  21.9646370 132.8832950  40.9796620  14.0366440 127.6708470
  40.1661230  13.5379610 127.5953780  40.7858570  14.8764690 127.2544820
  40.9005480  22.7137540 139.4148080  40.8342790  21.7933210 139.1605670
  40.2710620  22.8112980 140.1292720  43.6945010  18.4086090 125.9670630
  44.5824630  18.7203320 125.7921970  43.6650100  17.5358340 125.5751210
  34.8036100  23.3143500 131.3731500  35.3214770  22.5111760 131.3188390
  34.3520120  23.2522640 132.2148330  39.6905600  24.5809780 126.6458800
  40.0321300  25.3252010 126.1502120  38.8618310  24.8940900 127.0083630
  32.2880640  20.2804870 138.2857200  31.9295580  20.9458720 138.8730540
  31.9935200  19.4488420 138.6569820  35.4893760  20.7389110 141.1696750
  35.1893900  20.8846290 140.2724570  36.2605000  20.1794400 141.0770140
  40.8322210  25.5358110 139.1651880  40.8466750  24.6039070 138.9470790
  40.1247310  25.6217870 139.8041650  45.9659280  19.7197930 125.4350490
  45.8823000  20.1512150 124.5846930  46.6853470  20.1796280 125.8677310
  47.0433420  22.1765450 138.5120460  46.3181610  22.7694230 138.3149850
  47.5708880  22.1688990 137.7133830  46.9946530  26.5740190 128.1632620
  46.3522690  25.9195810 128.4376340  46.6077190  26.9795280 127.3873290
  42.5733010  23.9025620 132.0104310  42.9256830  23.3053750 131.3505680
  41.6895340  23.5769850 132.1812560  38.6596290  24.6623310 129.4174720
  39.3467420  25.2092520 129.7982310  37.8728710  25.2064040 129.4524330
  30.7988690  20.2796130 124.9091800  31.6683540  20.5620930 125.1927720
  30.3079010  21.0932000 124.7940610  37.9623500  21.6669340 129.0300080
  38.4186280  22.4774590 129.2560270  37.6111710  21.3492480 129.8618570
  40.2656110  27.1775680 136.2592380  40.9098330  27.3835060 136.9365800
  40.6285550  26.4164080 135.8063230  33.8635280  12.0106990 129.5022600
  33.7349910  12.0024890 130.4507520  33.0397300  12.3490080 129.1513610
  41.5388190  25.1808030 134.9769830  42.1810420  24.4801190 135.0902000
  42.0637540  25.9606470 134.7966720  45.3843910  25.4656650 124.7008970
  45.1581490  24.7487090 125.2933610  44.9940110  25.2169090 123.8630720
  43.3125810  25.9802930 138.1805890  43.6482050  26.5669620 138.8583810
  42.3926150  25.8495640 138.4103680  31.1659940  29.4923510 125.4753430
  31.5257580  30.0912850 124.8210700  31.0252280  30.0383400 126.2488460
  30.8629210  13.7698110 138.9629300  30.1487730  13.9695030 139.5681910
  31.2824250  12.9937680 139.3344100  44.9660160  23.3828590 126.3623130
  44.6781860  23.8441280 127.1501010  45.7612330  22.9226360 126.6307350
  31.1501800  27.7578370 139.9495830  31.2592920  26.8173110 139.8091220
  30.4982360  28.0233120 139.3009560  39.1414390  26.0294260 141.3493950
  38.8211260  25.3103500 141.8939640  38.4672750  26.7049330 141.4230010
  37.1828560  26.8754710 126.2927100  37.1738660  27.6084400 125.6771610
  36.2626920  26.6286290 126.3854060  32.7835200  22.0969600 127.0373860
  32.1763150  22.8368500 127.0469160  33.2584550  22.1868960 126.2112060
  42.3567990  16.2620420 136.7130750  42.7248810  15.4415630 137.0410320
  41.4966190  16.3222310 137.1286400  45.7230020  15.2177360 127.5218310
  45.0943180  15.3223030 126.8076540  45.2281940  15.4374140 128.3112190
  40.1688160  26.9382950 124.9552290  40.2700140  26.7346940 124.0254270
  39.2689900  26.6841230 125.1600070  37.6914050  17.4963310 128.9376190
  36.9830200  17.9649650 129.3789800  37.9758530  16.8385320 129.5721380
  39.3169980  18.9160010 136.9368720  39.8155230  19.3905830 137.6020570
  39.4592930  17.9923530 137.1438750  41.7229480  14.2213970 130.3771980
  41.5997260  14.2400100 129.4281490  42.6714040  14.2692910 130.4970380
  38.8106270  29.4569270 129.6499960  39.0647770  29.4190660 128.7279330
  37.8618750  29.3302600 129.6428210  35.8949070  15.8048390 126.3126900
  36.7439600  16.2418540 126.2467090  35.5280340  16.1168650 127.1398960
  46.5236840  15.1327970 137.7797110  46.0210440  15.8733370 138.1190920
  47.3393500  15.5211970 137.4633900  44.8158850  20.3761150 131.2258470
  43.8748990  20.3911380 131.4006160  45.1302920  19.5897110 131.6718770
  34.7940490  22.0580750 124.7862430  35.5603760  21.9462110 125.3487860
  34.8715180  21.3618720 124.1339200  33.4887250  19.4905820 125.4695320
  33.5690840  18.5433330 125.5812720  34.3807000  19.8212700 125.5755980
  46.8184430  27.5470000 132.9012730  46.9431850  28.3701170 133.3736540
  47.6849990  27.3360730 132.5536880  34.2901960  29.6401210 132.5729860
  35.0264440  29.0916670 132.8438430  34.6742880  30.5057220 132.4335850
  31.1747440  25.7074780 128.4471370  30.2487220  25.9495920 128.4376780
  31.6403870  26.5349040 128.3256120  33.2960240  28.8247280 141.7615440
  34.0972970  29.1459330 142.1750840  32.7812060  28.4642860 142.4835350
  37.4004270  28.8131520 124.3955430  38.1932880  29.1020350 123.9437220
  36.8808620  28.3823690 123.7167910  42.1324870  24.9327150 141.7090850
  41.5263030  24.9558750 140.9686600  41.8278980  24.2010190 142.2458100
  43.5625240  28.6607440 140.3200260  44.5146990  28.5765460 140.2700500
  43.4153460  29.3249150 140.9934050  46.4534440  28.0401650 125.8192170
  46.1675950  27.6266790 125.0046350  46.2553990  28.9689360 125.6992690
  31.0158050  21.3120740 140.7051490  31.5197070  20.7328020 141.2767720
  30.2765470  21.5960970 141.2427860  37.9181670  24.0334930 124.2597780
  37.8132310  23.4187280 124.9859160  37.7505890  23.5100820 123.4760790
  38.0695990  22.7191730 140.2387010  37.3041660  23.2876730 140.1541680
  38.2511950  22.4267940 139.3455240  41.1584400  23.0954960 124.8639770
  40.6094500  23.5424260 125.5082510  41.7803660  22.5904210 125.3877440
  45.2119340  24.4497060 140.7962030  45.9528810  24.7872820 140.2929490
  44.4492020  24.6189120 140.2431800  33.0481130  19.4550330 141.6001560
  33.0886470  19.1564200 142.5086790  33.9026630  19.8557940 141.4409080
  36.8259520  22.0545880 126.7605070  37.2475940  21.8885750 127.6036460
  36.9510360  21.2446110 126.2660210  34.9886940  18.0342430 139.5676050
  34.4583400  17.5433380 138.9399390  35.6575010  18.4626630 139.0333980
  39.3387160  21.0783490 124.0082170  39.8592820  20.3632510 123.6423320
  39.9855560  21.7169360 124.3082680  43.8865000  22.5011890 139.3317240
  44.3006020  22.6556970 140.1807660  42.9516000  22.6267110 139.4943020
  44.3587170  19.8408050 141.3356390  44.9407940  19.0860370 141.2476870
  44.5348940  20.3715490 140.5587870  35.4759240  15.0004800 139.6473340
  35.3816110  14.3825550 138.9224210  34.8956630  15.7271090 139.4203250
  38.2420680  13.5578040 136.6800730  37.7937980  13.5802300 135.8346280
  37.6085880  13.1597060 137.2771030  38.6480230  22.4532370 137.3013170
  39.0668340  23.2965100 137.1289410  37.7288860  22.5904410 137.0719950
  40.9844130  20.1848550 138.6851010  41.1040340  19.5889690 139.4245850
  41.8438130  20.2218240 138.2652310  43.3232030  20.7385740 137.2613520
  42.7967250  21.2628360 136.6578660  43.6663370  21.3713130 137.8923250
  35.7218420  18.1279110 123.7063230  35.5207480  17.2646470 124.0676570
  35.5510470  18.0412470 122.7684830  36.4987650  28.7585380 138.4170900
  35.9608740  29.4831440 138.0979600  36.7521610  28.2815720 137.6268240
  37.7512900  16.7269900 139.9426830  38.3412590  16.4185750 140.6304650
  36.9333140  16.2549650 140.0986730  42.5706330  16.3435710 140.1759850
  41.8821850  15.6817250 140.1109840  43.2912350  15.8973980 140.6208310
  43.2006730  12.9387340 126.2350110  43.4809020  12.0955240 126.5909530
  42.4272460  13.1710450 126.7488860  34.5201220  15.2279730 123.6941110
  34.8227120  15.2347160 122.7860260  35.2595810  14.8777590 124.1908770
  39.3549860  29.9936590 138.6757550  39.2808560  30.8971730 138.9829920
  38.4528700  29.6748490 138.6479620  37.7386150  14.1714350 124.6797310
  37.3908150  13.4938340 124.0999760  37.9398920  13.7103860 125.4940700
  39.9035190  29.1595100 126.2983910  40.7985980  29.4980070 126.3202670
  39.9352820  28.4374510 125.6708190  33.5431350  24.5322150 124.5270910
  33.9806220  25.0751820 125.1828490  34.0279080  23.7069100 124.5367250
  30.7577150  27.3211180 131.9791170  31.0880160  26.4532240 131.7469810
  31.1868150  27.5269700 132.8096130  35.3539070  25.6520190 129.6393140
  35.0534610  25.5285160 130.5397050  35.2476560  24.7928780 129.2308870
  31.2467360  28.1881770 134.7172800  30.8098350  28.3682570 135.5496950
  31.8145040  28.9456390 134.5754520  46.8829540  27.6898770 139.0050110
  46.2831530  27.7491330 138.2614030  47.0123440  26.7503750 139.1346960
  48.1230990  25.4316590 124.3419820  47.2923950  25.4993240 124.8127050
  48.3002820  26.3220710 124.0386680  47.5787450  22.1764070 126.8454020
  48.3406360  22.7460720 126.9513710  47.5941820  21.6091270 127.6162330
  31.0791790  20.7002000 131.0761680  30.4240630  20.4313640 130.4321380
  31.9169740  20.5906480 130.6263660  48.5847420  23.0314170 131.6895950
  48.9556250  22.2481490 131.2831920  49.2249350  23.7203270 131.5113250
  45.5681180  24.4150750 137.1026270  44.7541020  24.8447910 137.3652060
  45.9755380  25.0269160 136.4895320  47.6306620  22.4698440 124.0026540
  47.9055460  23.3777320 123.8745760  47.4417360  22.4060970 124.9388530
  44.0282230  15.4943290 125.2980170  44.4467110  15.3074270 124.4576830
  43.7218290  14.6422340 125.6083100  47.5271960  20.4067430 128.9955970
  47.1515560  19.6395360 128.5637260  46.7975080  20.7890130 129.4830900
  32.1167720  21.0854570 135.6165020  32.4840760  20.9981970 136.4961040
  31.5478540  20.3221120 135.5171880  46.9171580  19.5538950 138.6295490
  46.6857670  19.3251700 137.7293440  47.1776130  20.4738500 138.5840380
  31.6683720  17.9963660 139.5223440  30.7739770  17.9630420 139.8617150
  32.2081270  18.1950450 140.2874690  45.3559650  14.7795380 141.4075190
  46.2329830  14.7878780 141.7909190  45.3680490  14.0426220 140.7967540
  30.2929870  17.9100930 127.0187010  29.3893950  18.1731130 126.8438670
  30.7770490  18.1812100 126.2386970  46.8022920  18.6324920 132.2963210
  47.3260400  18.1387570 131.6653380  47.3882340  18.7675280 133.0410780
  46.9812640  18.7164790 135.8182760  46.0315350  18.6828330 135.9327750
  47.1625650  19.6264900 135.5832530  32.8357080  16.9666470 124.9281390
  33.5448780  16.5449690 124.4428670  32.1197020  17.0341700 124.2964740
  32.4831240  13.0205800 123.9684040  33.2059370  13.5614740 124.2865260
  32.7555760  12.7469220 123.0925580  46.2922890  17.8898270 128.2355620
  46.7882010  17.6569140 129.0204500  46.0938960  17.0510110 127.8193260
  32.1723430  12.2711990 133.8706660  32.8199620  11.7209370 133.4301820
  32.5925270  12.5255140 134.6922470  47.7210050  16.5259220 130.7693300
  47.6109330  16.3715260 131.7075570  48.4817640  15.9980160 130.5268710
  46.0675770  12.4653350 137.2276300  46.7047990  13.0787490 137.5935490
  46.2150660  12.5014010 136.2825530  48.6100320  14.3567140 124.0099440
  49.5349630  14.2248320 123.8017730  48.5876110  14.4359960 124.9635890
  48.6838810  15.1277800 126.6356150  47.8890310  15.0622920 127.1649060
  48.8882090  16.0628440 126.6241500  45.6257230  29.1669350 130.6294540
  46.2216300  28.8453920 129.9528960  45.8835380  28.6941170 131.4207810
  31.9255430  12.4267660 136.6131980  31.5770250  12.8831480 137.3790160
  31.5943130  11.5324790 136.6954410  33.5319800  25.5987260 140.7785170
  33.4889430  25.2280170 141.6599630  33.6630810  26.5364830 140.9186990
  37.2325830  27.1546850 136.3794890  36.9917190  27.4221410 135.4925410
  38.1728470  27.3252580 136.4345750  39.4380250  13.6179540 140.1351400
  39.3769140  14.2101370 140.8846810  40.3780630  13.5105500 139.9901660
  42.0754810  13.2749600 139.7743690  42.6895220  13.5928890 139.1124770
  42.6204370  12.7898190 140.3939550  48.4929990  29.1741230 137.1805530
  47.9988270  29.5710100 136.4632660  47.8843280  28.5490440 137.5742810
  32.5976070  11.9543860 139.8882750  33.1459060  11.7731910 139.1248860
  32.6631380  11.1637970 140.4239060  33.3707830  28.5449510 137.8982950
  32.7768150  28.4134210 138.6372990  33.3631670  27.7087650 137.4325050
  42.8162850  11.8381740 136.1012980  41.9422690  12.1716850 135.8985910
  42.7073600  11.3654920 136.9264850  43.7234830  14.0452610 137.4854700
  43.3948190  13.2304370 137.1056430  44.6717130  14.0022420 137.3620390
  46.1769440  29.8164650 134.4592270  45.7172410  30.5680460 134.0850290
  45.5481900  29.0971120 134.4007070  33.0020060  25.9107890 136.8490990
  32.2754120  25.2913180 136.7816940  33.0629210  26.3048500 135.9789070
  36.6065160  28.1252890 133.6340400  37.1230180  27.5140250 133.1088660
  37.2562540  28.6281670 134.1251410  39.3460660  29.0161380 134.4609380
  39.6338470  28.7615680 133.5842390  39.8583880  28.4638740 135.0514950
  40.5637670  12.7551580 135.0405890  39.7809460  13.2297080 135.3202650
  40.2700600  11.8506410 134.9319070  45.1158740  13.4574680 133.0854980
  45.5566830  13.4019780 132.2376580  44.8466330  14.3732690 133.1565160
  46.9797310  13.0889920 131.0963800  46.9185710  12.1451140 130.9494820
  47.7589340  13.1970010 131.6417260  31.2850060  29.2282280 130.0587750
  31.1172100  28.5952960 130.7569640  30.4184570  29.4341680 129.7081940
  31.9078080  13.0599060 127.5619610  32.6657440  13.1727940 126.9883640
  31.4455250  13.8968260 127.5163040  38.4491890  15.1738330 130.5521920
  37.6366400  14.7995220 130.2117800  38.9533530  14.4183410 130.8543110
  42.9516870  11.8380780 131.7904990  43.5546240  12.4100990 132.2653510
  42.2109860  12.4020220 131.5678890  46.0951470  12.2402340 127.0645270
  46.2902100  13.1385790 127.3312700  45.3081340  12.0089420 127.5578220
  32.8912760  27.9215510 127.5037890  32.3660380  28.3023540 126.7999850
  32.8157340  28.5466280 128.2247600  34.2803230  13.5863110 126.1021580
  34.8095990  12.7992910 125.9729530  34.9131550  14.2654300 126.3357110
  36.4741070  13.3238250 129.1566970  35.8443810  12.6225560 129.3237100
  35.9346210  14.0842380 128.9400130  39.4133020  29.9377480 141.8277580
  40.3400330  29.7021750 141.8713540  39.3983450  30.7649480 141.3463610
  47.6478080  29.4803050 128.8251830  47.8230270  28.7940790 128.1812750
  46.9499650  30.0050100 128.4328500  36.5996630  12.6022230 141.5919460
  36.3180900  13.1055830 140.8280280  36.9816330  11.8043980 141.2261590
  35.4905730  29.8697890 126.3787140  36.2224550  29.5857170 125.8311030
  35.7499400  29.6311170 127.2686520  34.6520520  25.9862620 126.3833470
  34.0229400  26.4547720 126.9319300  34.7668350  25.1411840 126.8179660
  43.2012090  12.0175810 142.1699930  43.0877540  12.3370420 143.0651450
  44.0181830  12.4188320 141.8737210  45.9810580  29.1647340 141.6518620
  46.7735900  28.6696570 141.4444580  46.2743730  29.8437480 142.2594230
  42.1070240  20.0368280 112.5334670  42.0264290  19.1222890 112.2626380
  41.6934660  20.5335350 111.8274380  40.2388280  21.8147300 114.4143940
  39.4630380  21.3347740 114.7042510  40.8901210  21.1352950 114.2400100
  34.2554110  22.1267110 115.2919700  33.4238990  21.8715820 115.6916210
  34.8635090  22.1977880 116.0277620  44.2595710  26.2207490 113.1943070
  43.7977240  25.4494730 113.5230240  45.0721260  26.2473560 113.6995520
  34.2355370  26.1607200 115.4877720  34.5383410  25.2704940 115.3087940
  34.9798960  26.7177420 115.2599970  32.6646060  17.0869000 109.0762090
  31.7762760  17.4284970 108.9741970  32.9487250  16.8869320 108.1842920
  30.6279070  19.6874650 114.9601790  31.1995180  18.9196850 114.9605430
  30.6280610  19.9863410 114.0508400  40.4859020  28.5065500 112.8147060
  39.8670460  28.9623000 112.2441500  41.3410800  28.6616960 112.4136760
  39.6797270  24.4904490 114.4214100  39.6105550  23.5494430 114.2603230
  40.4417130  24.5805900 114.9936670  31.8703940  15.0959010 116.7470720
  31.6906780  14.1984760 117.0273480  31.4684020  15.6430880 117.4217670
  40.7102440  17.2974870 114.6483030  41.0867260  16.4246750 114.5356700
  40.6121950  17.6333570 113.7573470  34.8407450  15.6700500 110.1100470
  34.9474200  16.5704230 110.4169230  33.9299810  15.6218470 109.8195120
  44.4926560  14.7925310 111.5811370  45.3136180  14.3021880 111.6236850
  44.5260640  15.3822970 112.3343210  32.4890610  17.5919510 115.3553060
  33.1700720  17.8557880 115.9740460  32.1738660  16.7520380 115.6891070
  36.6815180  18.6386870 114.4425650  37.1893400  19.1367840 115.0830670
  37.2128420  17.8622070 114.2665010  48.7826110  16.8092060 118.1455000
  48.0778280  17.1973770 117.6270110  49.0484030  17.5042350 118.7475930
  34.9651280  13.2785430 118.7089070  34.9669720  13.7957820 117.9034970
  34.1355590  12.8015610 118.6859000  41.3522370  23.3904740 110.2078970
  40.7339640  23.8554190 109.6441690  41.8645620  24.0832220 110.6248480
  36.2154130  22.9180610 116.8862570  35.8823510  23.5449530 117.5283640
  36.3920810  23.4442490 116.1064240  44.7288040  16.7325690 114.3538910
  44.0243610  17.0210580 114.9342020  45.0900200  17.5425800 113.9938470
  34.6466610  14.9895390 116.7159520  34.9883420  15.8337440 116.4213390
  33.7082420  15.1379130 116.8324860  35.4273230  24.8861410 118.7011750
  36.0447230  25.5612490 118.4196200  34.5666350  25.2949390 118.6099250
  30.7205570  24.0761270 107.5818600  30.3433550  24.5648370 106.8503500
  30.9778640  24.7486550 108.2125130  46.3450820  26.3500820 116.6166390
  45.6614340  27.0199930 116.6083060  46.8845110  26.5481470 115.8511250
  47.7974960  16.1780480 114.7448120  46.8499870  16.2119460 114.8763550
  48.1224950  16.9919430 115.1297480  38.3294500  12.4777660 113.0404110
  38.6369480  11.9224550 112.3239610  37.3995200  12.6122120 112.8577100
  43.8809560  28.1944950 115.3311570  43.8936720  27.7907240 114.4633830
  43.3284780  28.9692240 115.2273000  45.1754980  24.9161170 110.4201740
  45.0651310  23.9735500 110.5451160  45.1723230  25.2776810 111.3064500
  43.2795000  23.0974790 116.6594180  43.6963790  22.8834900 115.8247640
  44.0034820  23.3547580 117.2302800  40.7175260  20.5426490 109.7764230
  39.7904540  20.4763870 110.0052700  40.8700080  21.4806620 109.6619470
  40.7044340  16.8143490 106.7731390  39.7648010  16.9757450 106.8583850
  41.0227600  17.5329170 106.2267380  47.2257100  21.4962010 116.7510420
  46.3975730  21.5655100 116.2760550  47.8207580  22.0816320 116.2826250
  44.7472550  22.1046790 110.2799480  44.1284970  21.7666340 109.6325780
  44.7297000  21.4606550 110.9878670  44.1899110  18.2831330 117.6965290
  43.7770290  19.1085040 117.9505280  43.4575060  17.6976370 117.5041650
  36.3231900  21.0691230 112.5583960  35.9188900  20.3568480 112.0629860
  36.4095020  20.7244470 113.4472000  36.7913600  24.7558790 114.7223170
  36.4941890  24.1504260 114.0430950  37.7413420  24.7936100 114.6112530
  35.0360520  17.8434440 116.3383000  35.5875110  17.9529780 115.5636250
  35.5504030  18.2172040 117.0538230  44.8799210  28.3290660 118.3846270
  44.4029770  29.1362850 118.1918880  44.1961000  27.6768990 118.5372480
  35.8832030  24.4940480 121.3730970  34.9860560  24.7180450 121.6204370
  35.9084900  24.6175420 120.4242370  42.9237250  21.3433600 107.2872230
  43.3630530  20.5056030 107.1410050  43.6365670  21.9763000 107.3736370
  34.7103250  21.3653800 119.9488340  34.5711020  22.2376600 120.3175740
  33.8284610  21.0226610 119.8036280  41.0332630  26.2829670 111.2553470
  41.4728540  27.0254000 110.8408860  40.9719520  26.5256240 112.1792430
  36.5083600  27.3075500 122.1573490  36.4799030  27.7118450 121.2901920
  36.3448570  26.3785860 121.9945090  46.5054390  12.5976410 105.6013270
  46.1927050  12.6903240 106.5012340  47.2666860  13.1757440 105.5510700
  33.0236530  19.9636210 110.0590610  32.9034130  20.6898300 109.4471880
  32.7137420  19.1939120 109.5818520  48.4598420  28.0902600 123.4537660
  48.9358140  28.5685490 124.1326740  49.0805580  28.0220090 122.7283160
  30.6621900  23.1351350 115.8659250  30.7402320  23.2700120 114.9214970
  31.2763580  22.4267240 116.0587370  31.9069530  24.8351540 112.2765430
  31.4997610  24.9766130 111.4219030  32.7982540  24.5511700 112.0736640
  47.8631670  25.2815450 120.6137670  47.9894730  25.0427330 119.6954850
  47.9053050  24.4499990 121.0859750  41.7248410  28.9843450 119.1832480
  42.2393080  28.8951460 119.9854910  40.8817490  29.3303150 119.4760390
  43.7002810  29.2698790 108.6116480  43.5403950  28.9801730 109.5098310
  43.5349520  28.4938920 108.0761710  36.1791190  29.0497320 110.3888100
  36.0033670  28.1332860 110.1755900  35.3246930  29.4084610 110.6285900
  43.4028940  26.7786350 107.1714480  42.7094100  26.7763640 106.5116760
  44.1451800  26.3545670 106.7408650  42.9678870  28.4049060 111.2462970
  43.4235820  27.6238440 111.5601590  43.3071390  29.1155880 111.7904150
  47.7155680  17.3347910 121.5787410  47.0999950  17.8427580 121.0502870
  47.3952100  16.4346240 121.5213350  30.7181420  24.1765520 118.4053710
  30.8812460  23.7070880 117.5873080  31.1833870  23.6689080 119.0702550
  35.4900190  13.3071280 113.4414280  35.0468340  14.0880820 113.1098800
  36.0485180  13.6301170 114.1485220  39.7770000  16.1739800 119.0449600
  39.3149370  16.3822820 119.8569540  39.3748110  15.3599150 118.7420270
  44.7774510  17.3948750 120.1746260  43.9268100  17.0954500 120.4955330
  44.6176300  17.6390760 119.2630080  41.8724220  18.8950500 122.2745050
  42.1977630  18.0614250 121.9347280  42.6604550  19.4179020 122.4223380
  38.6059010  12.9281980 108.3220110  37.9813190  12.9241850 109.0473420
  38.5189130  12.0612940 107.9256080  37.5276090  13.8518610 115.3003880
  37.8248420  14.7581440 115.2195900  38.0761650  13.3637390 114.6863450
  35.2814410  18.4304850 111.1695530  35.0555330  18.2142020 112.0742150
  34.5006940  18.8633310 110.8241500  42.5112170  18.4368220 109.7686180
  41.9121060  19.1604020 109.5849800  43.0591780  18.3745000 108.9862630
  37.7213620  19.3290430 121.8355800  37.6257220  18.3885160 121.6856200
  38.5645600  19.5505500 121.4403870  41.1177040  17.0731760 111.7989460
  41.5106610  17.3903960 110.9858150  41.4793890  16.1943640 111.9133980
  32.8524160  15.7404100 119.9889580  32.4587550  16.5879310 120.1962360
  32.1642560  15.1030470 120.1798220  39.4269210  15.8239070 123.0586320
  38.7367530  15.6311270 123.6932410  40.1701510  16.1073710 123.5910620
  30.1541210  13.6632560 114.0219660  29.8654260  14.2335420 114.7344640
  30.8986970  13.1837010 114.3850890  30.3411440  17.6052680 105.2322380
  30.2586110  18.5483440 105.3737370  29.9894500  17.4627590 104.3534730
  41.7032180  19.6637510 115.8940240  40.9713300  20.1724320 116.2430340
  41.3056520  18.8467490 115.5929020  38.1409570  16.3391710 114.2992730
  38.1445630  15.8981660 113.4497270  39.0360690  16.6609040 114.4064550
  33.9911950  16.2218200 113.2586940  33.6512000  16.6993430 114.0153990
  33.2289270  15.7683320 112.8988040  38.2029720  17.3403790 107.2899490
  38.3242540  17.2990270 108.2385310  37.8178230  18.2027940 107.1346220
  42.1658090  15.1171190 115.3063180  42.1830830  15.5679840 116.1505030
  41.9173670  14.2176830 115.5196620  37.2151220  19.6504930 106.6882790
  36.6468120  19.2023180 106.0618700  37.9240220  20.0097710 106.1547940
  45.5928840  12.5303370 121.1449560  45.9174610  11.7993030 121.6707540
  45.6285350  12.2117010 120.2430550  32.2920400  23.5516950 120.5649520
  31.9075190  22.9110620 121.1632480  32.6032590  24.2553070 121.1344250
  38.4417540  20.3993490 116.0458140  38.8087670  19.9252060 116.7919480
  38.2522600  21.2735060 116.3866480  31.3058030  15.1437180 112.1751610
  31.0204950  14.7792850 113.0130230  31.2436890  14.4117640 111.5614750
  36.2316910  19.4402130 118.3642350  35.9273980  20.3194110 118.5892710
  37.1863370  19.5001920 118.3999790  34.7598700  23.6463120 108.9609200
  33.9860960  23.1060740 108.8007920  35.4893330  23.1269730 108.6226960
  45.5186680  22.6428480 114.7535590  46.2385800  23.1383770 114.3631700
  45.3168500  21.9646370 114.1089460  40.9796620  14.0366440 108.8964980
  40.1661230  13.5379610 108.8210290  40.7858570  14.8764690 108.4801330
  40.9005480  22.7137540 120.6404590  40.8342790  21.7933210 120.3862180
  40.2710620  22.8112980 121.3549230  43.6945010  18.4086090 107.1927140
  44.5824630  18.7203320 107.0178480  43.6650100  17.5358340 106.8007720
  34.8036100  23.3143500 112.5988010  35.3214770  22.5111760 112.5444900
  34.3520120  23.2522640 113.4404840  39.6905600  24.5809780 107.8715310
  40.0321300  25.3252010 107.3758630  38.8618310  24.8940900 108.2340140
  32.2880640  20.2804870 119.5113710  31.9295580  20.9458720 120.0987050
  31.9935200  19.4488420 119.8826330  35.4893760  20.7389110 122.3953260
  35.1893900  20.8846290 121.4981080  36.2605000  20.1794400 122.3026650
  40.8322210  25.5358110 120.3908390  40.8466750  24.6039070 120.1727300
  40.1247310  25.6217870 121.0298160  45.9659280  19.7197930 106.6607000
  45.8823000  20.1512150 105.8103440  46.6853470  20.1796280 107.0933820
  47.0433420  22.1765450 119.7376970  46.3181610  22.7694230 119.5406360
  47.5708880  22.1688990 118.9390340  46.9946530  26.5740190 109.3889130
  46.3522690  25.9195810 109.6632850  46.6077190  26.9795280 108.6129800
  42.5733010  23.9025620 113.2360820  42.9256830  23.3053750 112.5762190
  41.6895340  23.5769850 113.4069070  38.6596290  24.6623310 110.6431230
  39.3467420  25.2092520 111.0238820  37.8728710  25.2064040 110.6780840
  30.7988690  20.2796130 106.1348310  31.6683540  20.5620930 106.4184230
  30.3079010  21.0932000 106.0197120  37.9623500  21.6669340 110.2556590
  38.4186280  22.4774590 110.4816780  37.6111710  21.3492480 111.0875080
  40.2656110  27.1775680 117.4848890  40.9098330  27.3835060 118.1622310
  40.6285550  26.4164080 117.0319740  33.8635280  12.0106990 110.7279110
  33.7349910  12.0024890 111.6764030  33.0397300  12.3490080 110.3770120
  41.5388190  25.1808030 116.2026340  42.1810420  24.4801190 116.3158510
  42.0637540  25.9606470 116.0223230  45.3843910  25.4656650 105.9265480
  45.1581490  24.7487090 106.5190120  44.9940110  25.2169090 105.0887230
  43.3125810  25.9802930 119.4062400  43.6482050  26.5669620 120.0840320
  42.3926150  25.8495640 119.6360190  31.1659940  29.4923510 106.7009940
  31.5257580  30.0912850 106.0467210  31.0252280  30.0383400 107.4744970
  30.8629210  13.7698110 120.1885810  30.1487730  13.9695030 120.7938420
  31.2824250  12.9937680 120.5600610  44.9660160  23.3828590 107.5879640
  44.6781860  23.8441280 108.3757520  45.7612330  22.9226360 107.8563860
  31.1501800  27.7578370 121.1752340  31.2592920  26.8173110 121.0347730
  30.4982360  28.0233120 120.5266070  39.1414390  26.0294260 122.5750460
  38.8211260  25.3103500 123.1196150  38.4672750  26.7049330 122.6486520
  37.1828560  26.8754710 107.5183610  37.1738660  27.6084400 106.9028120
  36.2626920  26.6286290 107.6110570  32.7835200  22.0969600 108.2630370
  32.1763150  22.8368500 108.2725670  33.2584550  22.1868960 107.4368570
  42.3567990  16.2620420 117.9387260  42.7248810  15.4415630 118.2666830
  41.4966190  16.3222310 118.3542910  45.7230020  15.2177360 108.7474820
  45.0943180  15.3223030 108.0333050  45.2281940  15.4374140 109.5368700
  40.1688160  26.9382950 106.1808800  40.2700140  26.7346940 105.2510780
  39.2689900  26.6841230 106.3856580  37.6914050  17.4963310 110.1632700
  36.9830200  17.9649650 110.6046310  37.9758530  16.8385320 110.7977890
  39.3169980  18.9160010 118.1625230  39.8155230  19.3905830 118.8277080
  39.4592930  17.9923530 118.3695260  41.7229480  14.2213970 111.6028490
  41.5997260  14.2400100 110.6538000  42.6714040  14.2692910 111.7226890
  38.8106270  29.4569270 110.8756470  39.0647770  29.4190660 109.9535840
  37.8618750  29.3302600 110.8684720  35.8949070  15.8048390 107.5383410
  36.7439600  16.2418540 107.4723600  35.5280340  16.1168650 108.3655470
  46.5236840  15.1327970 119.0053620  46.0210440  15.8733370 119.3447430
  47.3393500  15.5211970 118.6890410  44.8158850  20.3761150 112.4514980
  43.8748990  20.3911380 112.6262670  45.1302920  19.5897110 112.8975280
  34.7940490  22.0580750 106.0118940  35.5603760  21.9462110 106.5744370
  34.8715180  21.3618720 105.3595710  33.4887250  19.4905820 106.6951830
  33.5690840  18.5433330 106.8069230  34.3807000  19.8212700 106.8012490
  46.8184430  27.5470000 114.1269240  46.9431850  28.3701170 114.5993050
  47.6849990  27.3360730 113.7793390  34.2901960  29.6401210 113.7986370
  35.0264440  29.0916670 114.0694940  34.6742880  30.5057220 113.6592360
  31.1747440  25.7074780 109.6727880  30.2487220  25.9495920 109.6633290
  31.6403870  26.5349040 109.5512630  33.2960240  28.8247280 122.9871950
  34.0972970  29.1459330 123.4007350  32.7812060  28.4642860 123.7091860
  37.4004270  28.8131520 105.6211940  38.1932880  29.1020350 105.1693730
  36.8808620  28.3823690 104.9424420  42.1324870  24.9327150 122.9347360
  41.5263030  24.9558750 122.1943110  41.8278980  24.2010190 123.4714610
  43.5625240  28.6607440 121.5456770  44.5146990  28.5765460 121.4957010
  43.4153460  29.3249150 122.2190560  46.4534440  28.0401650 107.0448680
  46.1675950  27.6266790 106.2302860  46.2553990  28.9689360 106.9249200
  31.0158050  21.3120740 121.9308000  31.5197070  20.7328020 122.5024230
  30.2765470  21.5960970 122.4684370  37.9181670  24.0334930 105.4854290
  37.8132310  23.4187280 106.2115670  37.7505890  23.5100820 104.7017300
  38.0695990  22.7191730 121.4643520  37.3041660  23.2876730 121.3798190
  38.2511950  22.4267940 120.5711750  41.1584400  23.0954960 106.0896280
  40.6094500  23.5424260 106.7339020  41.7803660  22.5904210 106.6133950
  45.2119340  24.4497060 122.0218540  45.9528810  24.7872820 121.5186000
  44.4492020  24.6189120 121.4688310  33.0481130  19.4550330 122.8258070
  33.0886470  19.1564200 123.7343300  33.9026630  19.8557940 122.6665590
  36.8259520  22.0545880 107.9861580  37.2475940  21.8885750 108.8292970
  36.9510360  21.2446110 107.4916720  34.9886940  18.0342430 120.7932560
  34.4583400  17.5433380 120.1655900  35.6575010  18.4626630 120.2590490
  39.3387160  21.0783490 105.2338680  39.8592820  20.3632510 104.8679830
  39.9855560  21.7169360 105.5339190  43.8865000  22.5011890 120.5573750
  44.3006020  22.6556970 121.4064170  42.9516000  22.6267110 120.7199530
  44.3587170  19.8408050 122.5612900  44.9407940  19.0860370 122.4733380
  44.5348940  20.3715490 121.7844380  35.4759240  15.0004800 120.8729850
  35.3816110  14.3825550 120.1480720  34.8956630  15.7271090 120.6459760
  38.2420680  13.5578040 117.9057240  37.7937980  13.5802300 117.0602790
  37.6085880  13.1597060 118.5027540  38.6480230  22.4532370 118.5269680
  39.0668340  23.2965100 118.3545920  37.7288860  22.5904410 118.2976460
  40.9844130  20.1848550 119.9107520  41.1040340  19.5889690 120.6502360
  41.8438130  20.2218240 119.4908820  43.3232030  20.7385740 118.4870030
  42.7967250  21.2628360 117.8835170  43.6663370  21.3713130 119.1179760
  35.7218420  18.1279110 104.9319740  35.5207480  17.2646470 105.2933080
  35.5510470  18.0412470 103.9941340  36.4987650  28.7585380 119.6427410
  35.9608740  29.4831440 119.3236110  36.7521610  28.2815720 118.8524750
  37.7512900  16.7269900 121.1683340  38.3412590  16.4185750 121.8561160
  36.9333140  16.2549650 121.3243240  42.5706330  16.3435710 121.4016360
  41.8821850  15.6817250 121.3366350  43.2912350  15.8973980 121.8464820
  43.2006730  12.9387340 107.4606620  43.4809020  12.0955240 107.8166040
  42.4272460  13.1710450 107.9745370  34.5201220  15.2279730 104.9197620
  34.8227120  15.2347160 104.0116770  35.2595810  14.8777590 105.4165280
  39.3549860  29.9936590 119.9014060  39.2808560  30.8971730 120.2086430
  38.4528700  29.6748490 119.8736130  37.7386150  14.1714350 105.9053820
  37.3908150  13.4938340 105.3256270  37.9398920  13.7103860 106.7197210
  39.9035190  29.1595100 107.5240420  40.7985980  29.4980070 107.5459180
  39.9352820  28.4374510 106.8964700  33.5431350  24.5322150 105.7527420
  33.9806220  25.0751820 106.4085000  34.0279080  23.7069100 105.7623760
  30.7577150  27.3211180 113.2047680  31.0880160  26.4532240 112.9726320
  31.1868150  27.5269700 114.0352640  35.3539070  25.6520190 110.8649650
  35.0534610  25.5285160 111.7653560  35.2476560  24.7928780 110.4565380
  31.2467360  28.1881770 115.9429310  30.8098350  28.3682570 116.7753460
  31.8145040  28.9456390 115.8011030  46.8829540  27.6898770 120.2306620
  46.2831530  27.7491330 119.4870540  47.0123440  26.7503750 120.3603470
  48.1230990  25.4316590 105.5676330  47.2923950  25.4993240 106.0383560
  48.3002820  26.3220710 105.2643190  47.5787450  22.1764070 108.0710530
  48.3406360  22.7460720 108.1770220  47.5941820  21.6091270 108.8418840
  31.0791790  20.7002000 112.3018190  30.4240630  20.4313640 111.6577890
  31.9169740  20.5906480 111.8520170  48.5847420  23.0314170 112.9152460
  48.9556250  22.2481490 112.5088430  49.2249350  23.7203270 112.7369760
  45.5681180  24.4150750 118.3282780  44.7541020  24.8447910 118.5908570
  45.9755380  25.0269160 117.7151830  47.6306620  22.4698440 105.2283050
  47.9055460  23.3777320 105.1002270  47.4417360  22.4060970 106.1645040
  44.0282230  15.4943290 106.5236680  44.4467110  15.3074270 105.6833340
  43.7218290  14.6422340 106.8339610  47.5271960  20.4067430 110.2212480
  47.1515560  19.6395360 109.7893770  46.7975080  20.7890130 110.7087410
  32.1167720  21.0854570 116.8421530  32.4840760  20.9981970 117.7217550
  31.5478540  20.3221120 116.7428390  46.9171580  19.5538950 119.8552000
  46.6857670  19.3251700 118.9549950  47.1776130  20.4738500 119.8096890
  31.6683720  17.9963660 120.7479950  30.7739770  17.9630420 121.0873660
  32.2081270  18.1950450 121.5131200  45.3559650  14.7795380 122.6331700
  46.2329830  14.7878780 123.0165700  45.3680490  14.0426220 122.0224050
  30.2929870  17.9100930 108.2443520  29.3893950  18.1731130 108.0695180
  30.7770490  18.1812100 107.4643480  46.8022920  18.6324920 113.5219720
  47.3260400  18.1387570 112.8909890  47.3882340  18.7675280 114.2667290
  46.9812640  18.7164790 117.0439270  46.0315350  18.6828330 117.1584260
  47.1625650  19.6264900 116.8089040  32.8357080  16.9666470 106.1537900
  33.5448780  16.5449690 105.6685180  32.1197020  17.0341700 105.5221250
  32.4831240  13.0205800 105.1940550  33.2059370  13.5614740 105.5121770
  32.7555760  12.7469220 104.3182090  46.2922890  17.8898270 109.4612130
  46.7882010  17.6569140 110.2461010  46.0938960  17.0510110 109.0449770
  32.1723430  12.2711990 115.0963170  32.8199620  11.7209370 114.6558330
  32.5925270  12.5255140 115.9178980  47.7210050  16.5259220 111.9949810
  47.6109330  16.3715260 112.9332080  48.4817640  15.9980160 111.7525220
  46.0675770  12.4653350 118.4532810  46.7047990  13.0787490 118.8192000
  46.2150660  12.5014010 117.5082040  48.6100320  14.3567140 105.2355950
  49.5349630  14.2248320 105.0274240  48.5876110  14.4359960 106.1892400
  48.6838810  15.1277800 107.8612660  47.8890310  15.0622920 108.3905570
  48.8882090  16.0628440 107.8498010  45.6257230  29.1669350 111.8551050
  46.2216300  28.8453920 111.1785470  45.8835380  28.6941170 112.6464320
  31.9255430  12.4267660 117.8388490  31.5770250  12.8831480 118.6046670
  31.5943130  11.5324790 117.9210920  33.5319800  25.5987260 122.0041680
  33.4889430  25.2280170 122.8856140  33.6630810  26.5364830 122.1443500
  37.2325830  27.1546850 117.6051400  36.9917190  27.4221410 116.7181920
  38.1728470  27.3252580 117.6602260  39.4380250  13.6179540 121.3607910
  39.3769140  14.2101370 122.1103320  40.3780630  13.5105500 121.2158170
  42.0754810  13.2749600 121.0000200  42.6895220  13.5928890 120.3381280
  42.6204370  12.7898190 121.6196060  48.4929990  29.1741230 118.4062040
  47.9988270  29.5710100 117.6889170  47.8843280  28.5490440 118.7999320
  32.5976070  11.9543860 121.1139260  33.1459060  11.7731910 120.3505370
  32.6631380  11.1637970 121.6495570  33.3707830  28.5449510 119.1239460
  32.7768150  28.4134210 119.8629500  33.3631670  27.7087650 118.6581560
  42.8162850  11.8381740 117.3269490  41.9422690  12.1716850 117.1242420
  42.7073600  11.3654920 118.1521360  43.7234830  14.0452610 118.7111210
  43.3948190  13.2304370 118.3312940  44.6717130  14.0022420 118.5876900
  46.1769440  29.8164650 115.6848780  45.7172410  30.5680460 115.3106800
  45.5481900  29.0971120 115.6263580  33.0020060  25.9107890 118.0747500
  32.2754120  25.2913180 118.0073450  33.0629210  26.3048500 117.2045580
  36.6065160  28.1252890 114.8596910  37.1230180  27.5140250 114.3345170
  37.2562540  28.6281670 115.3507920  39.3460660  29.0161380 115.6865890
  39.6338470  28.7615680 114.8098900  39.8583880  28.4638740 116.2771460
  40.5637670  12.7551580 116.2662400  39.7809460  13.2297080 116.5459160
  40.2700600  11.8506410 116.1575580  45.1158740  13.4574680 114.3111490
  45.5566830  13.4019780 113.4633090  44.8466330  14.3732690 114.3821670
  46.9797310  13.0889920 112.3220310  46.9185710  12.1451140 112.1751330
  47.7589340  13.1970010 112.8673770  31.2850060  29.2282280 111.2844260
  31.1172100  28.5952960 111.9826150  30.4184570  29.4341680 110.9338450
  31.9078080  13.0599060 108.7876120  32.6657440  13.1727940 108.2140150
  31.4455250  13.8968260 108.7419550  38.4491890  15.1738330 111.7778430
  37.6366400  14.7995220 111.4374310  38.9533530  14.4183410 112.0799620
  42.9516870  11.8380780 113.0161500  43.5546240  12.4100990 113.4910020
  42.2109860  12.4020220 112.7935400  46.0951470  12.2402340 108.2901780
  46.2902100  13.1385790 108.5569210  45.3081340  12.0089420 108.7834730
  32.8912760  27.9215510 108.7294400  32.3660380  28.3023540 108.0256360
  32.8157340  28.5466280 109.4504110  34.2803230  13.5863110 107.3278090
  34.8095990  12.7992910 107.1986040  34.9131550  14.2654300 107.5613620
  36.4741070  13.3238250 110.3823480  35.8443810  12.6225560 110.5493610
  35.9346210  14.0842380 110.1656640  39.4133020  29.9377480 123.0534090
  40.3400330  29.7021750 123.0970050  39.3983450  30.7649480 122.5720120
  47.6478080  29.4803050 110.0508340  47.8230270  28.7940790 109.4069260
  46.9499650  30.0050100 109.6585010  36.5996630  12.6022230 122.8175970
  36.3180900  13.1055830 122.0536790  36.9816330  11.8043980 122.4518100
  35.4905730  29.8697890 107.6043650  36.2224550  29.5857170 107.0567540
  35.7499400  29.6311170 108.4943030  34.6520520  25.9862620 107.6089980
  34.0229400  26.4547720 108.1575810  34.7668350  25.1411840 108.0436170
  43.2012090  12.0175810 123.3956440  43.0877540  12.3370420 124.2907960
  44.0181830  12.4188320 123.0993720  45.9810580  29.1647340 122.8775130
  46.7735900  28.6696570 122.6701090  46.2743730  29.8437480 123.4850740
  42.1070240  20.0368280  93.7591180  42.0264290  19.1222890  93.4882890
  41.6934660  20.5335350  93.0530890  40.2388280  21.8147300  95.6400450
  39.4630380  21.3347740  95.9299020  40.8901210  21.1352950  95.4656610
  34.2554110  22.1267110  96.5176210  33.4238990  21.8715820  96.9172720
  34.8635090  22.1977880  97.2534130  34.2355370  26.1607200  96.7134230
  34.5383410  25.2704940  96.5344450  34.9798960  26.7177420  96.4856480
  32.6646060  17.0869000  90.3018600  31.7762760  17.4284970  90.1998480
  32.9487250  16.8869320  89.4099430  30.6279070  19.6874650  96.1858300
  31.1995180  18.9196850  96.1861940  30.6280610  19.9863410  95.2764910
  31.8703940  15.0959010  97.9727230  31.6906780  14.1984760  98.2529990
  31.4684020  15.6430880  98.6474180  40.7102440  17.2974870  95.8739540
  41.0867260  16.4246750  95.7613210  40.6121950  17.6333570  94.9829980
  34.8407450  15.6700500  91.3356980  34.9474200  16.5704230  91.6425740
  33.9299810  15.6218470  91.0451630  44.4926560  14.7925310  92.8067880
  45.3136180  14.3021880  92.8493360  44.5260640  15.3822970  93.5599720
  32.4890610  17.5919510  96.5809570  33.1700720  17.8557880  97.1996970
  32.1738660  16.7520380  96.9147580  36.6815180  18.6386870  95.6682160
  37.1893400  19.1367840  96.3087180  37.2128420  17.8622070  95.4921520
  48.7826110  16.8092060  99.3711510  48.0778280  17.1973770  98.8526620
  49.0484030  17.5042350  99.9732440  34.9651280  13.2785430  99.9345580
  34.9669720  13.7957820  99.1291480  34.1355590  12.8015610  99.9115510
  36.2154130  22.9180610  98.1119080  35.8823510  23.5449530  98.7540150
  36.3920810  23.4442490  97.3320750  44.7288040  16.7325690  95.5795420
  44.0243610  17.0210580  96.1598530  45.0900200  17.5425800  95.2194980
  34.6466610  14.9895390  97.9416030  34.9883420  15.8337440  97.6469900
  33.7082420  15.1379130  98.0581370  35.4273230  24.8861410  99.9268260
  36.0447230  25.5612490  99.6452710  34.5666350  25.2949390  99.8355760
  30.7205570  24.0761270  88.8075110  30.3433550  24.5648370  88.0760010
  30.9778640  24.7486550  89.4381640  46.3450820  26.3500820  97.8422900
  45.6614340  27.0199930  97.8339570  46.8845110  26.5481470  97.0767760
  47.7974960  16.1780480  95.9704630  46.8499870  16.2119460  96.1020060
  48.1224950  16.9919430  96.3553990  38.3294500  12.4777660  94.2660620
  38.6369480  11.9224550  93.5496120  37.3995200  12.6122120  94.0833610
  43.8809560  28.1944950  96.5568080  43.8936720  27.7907240  95.6890340
  43.3284780  28.9692240  96.4529510  40.7175260  20.5426490  91.0020740
  39.7904540  20.4763870  91.2309210  40.8700080  21.4806620  90.8875980
  40.7044340  16.8143490  87.9987900  39.7648010  16.9757450  88.0840360
  41.0227600  17.5329170  87.4523890  47.2257100  21.4962010  97.9766930
  46.3975730  21.5655100  97.5017060  47.8207580  22.0816320  97.5082760
  44.1899110  18.2831330  98.9221800  43.7770290  19.1085040  99.1761790
  43.4575060  17.6976370  98.7298160  36.3231900  21.0691230  93.7840470
  35.9188900  20.3568480  93.2886370  36.4095020  20.7244470  94.6728510
  36.7913600  24.7558790  95.9479680  36.4941890  24.1504260  95.2687460
  37.7413420  24.7936100  95.8369040  35.0360520  17.8434440  97.5639510
  35.5875110  17.9529780  96.7892760  35.5504030  18.2172040  98.2794740
  35.8832030  24.4940480 102.5987480  34.9860560  24.7180450 102.8460880
  35.9084900  24.6175420 101.6498880  42.9237250  21.3433600  88.5128740
  43.3630530  20.5056030  88.3666560  43.6365670  21.9763000  88.5992880
  34.7103250  21.3653800 101.1744850  34.5711020  22.2376600 101.5432250
  33.8284610  21.0226610 101.0292790  36.5083600  27.3075500 103.3830000
  36.4799030  27.7118450 102.5158430  36.3448570  26.3785860 103.2201600
  46.5054390  12.5976410  86.8269780  46.1927050  12.6903240  87.7268850
  47.2666860  13.1757440  86.7767210  33.0236530  19.9636210  91.2847120
  32.9034130  20.6898300  90.6728390  32.7137420  19.1939120  90.8075030
  48.4598420  28.0902600 104.6794170  48.9358140  28.5685490 105.3583250
  49.0805580  28.0220090 103.9539670  30.6621900  23.1351350  97.0915760
  30.7402320  23.2700120  96.1471480  31.2763580  22.4267240  97.2843880
  31.9069530  24.8351540  93.5021940  31.4997610  24.9766130  92.6475540
  32.7982540  24.5511700  93.2993150  47.8631670  25.2815450 101.8394180
  47.9894730  25.0427330 100.9211360  47.9053050  24.4499990 102.3116260
  47.7155680  17.3347910 102.8043920  47.0999950  17.8427580 102.2759380
  47.3952100  16.4346240 102.7469860  30.7181420  24.1765520  99.6310220
  30.8812460  23.7070880  98.8129590  31.1833870  23.6689080 100.2959060
  35.4900190  13.3071280  94.6670790  35.0468340  14.0880820  94.3355310
  36.0485180  13.6301170  95.3741730  39.7770000  16.1739800 100.2706110
  39.3149370  16.3822820 101.0826050  39.3748110  15.3599150  99.9676780
  44.7774510  17.3948750 101.4002770  43.9268100  17.0954500 101.7211840
  44.6176300  17.6390760 100.4886590  41.8724220  18.8950500 103.5001560
  42.1977630  18.0614250 103.1603790  42.6604550  19.4179020 103.6479890
  38.6059010  12.9281980  89.5476620  37.9813190  12.9241850  90.2729930
  38.5189130  12.0612940  89.1512590  37.5276090  13.8518610  96.5260390
  37.8248420  14.7581440  96.4452410  38.0761650  13.3637390  95.9119960
  35.2814410  18.4304850  92.3952040  35.0555330  18.2142020  93.2998660
  34.5006940  18.8633310  92.0498010  42.5112170  18.4368220  90.9942690
  41.9121060  19.1604020  90.8106310  43.0591780  18.3745000  90.2119140
  37.7213620  19.3290430 103.0612310  37.6257220  18.3885160 102.9112710
  38.5645600  19.5505500 102.6660380  41.1177040  17.0731760  93.0245970
  41.5106610  17.3903960  92.2114660  41.4793890  16.1943640  93.1390490
  32.8524160  15.7404100 101.2146090  32.4587550  16.5879310 101.4218870
  32.1642560  15.1030470 101.4054730  39.4269210  15.8239070 104.2842830
  38.7367530  15.6311270 104.9188920  40.1701510  16.1073710 104.8167130
  30.1541210  13.6632560  95.2476170  29.8654260  14.2335420  95.9601150
  30.8986970  13.1837010  95.6107400  30.3411440  17.6052680  86.4578890
  30.2586110  18.5483440  86.5993880  29.9894500  17.4627590  85.5791240
  41.7032180  19.6637510  97.1196750  40.9713300  20.1724320  97.4686850
  41.3056520  18.8467490  96.8185530  38.1409570  16.3391710  95.5249240
  38.1445630  15.8981660  94.6753780  39.0360690  16.6609040  95.6321060
  33.9911950  16.2218200  94.4843450  33.6512000  16.6993430  95.2410500
  33.2289270  15.7683320  94.1244550  38.2029720  17.3403790  88.5156000
  38.3242540  17.2990270  89.4641820  37.8178230  18.2027940  88.3602730
  42.1658090  15.1171190  96.5319690  42.1830830  15.5679840  97.3761540
  41.9173670  14.2176830  96.7453130  37.2151220  19.6504930  87.9139300
  36.6468120  19.2023180  87.2875210  37.9240220  20.0097710  87.3804450
  45.5928840  12.5303370 102.3706070  45.9174610  11.7993030 102.8964050
  45.6285350  12.2117010 101.4687060  32.2920400  23.5516950 101.7906030
  31.9075190  22.9110620 102.3888990  32.6032590  24.2553070 102.3600760
  38.4417540  20.3993490  97.2714650  38.8087670  19.9252060  98.0175990
  38.2522600  21.2735060  97.6122990  31.3058030  15.1437180  93.4008120
  31.0204950  14.7792850  94.2386740  31.2436890  14.4117640  92.7871260
  36.2316910  19.4402130  99.5898860  35.9273980  20.3194110  99.8149220
  37.1863370  19.5001920  99.6256300  34.7598700  23.6463120  90.1865710
  33.9860960  23.1060740  90.0264430  35.4893330  23.1269730  89.8483470
  40.9796620  14.0366440  90.1221490  40.1661230  13.5379610  90.0466800
  40.7858570  14.8764690  89.7057840  40.9005480  22.7137540 101.8661100
  40.8342790  21.7933210 101.6118690  40.2710620  22.8112980 102.5805740
  43.6945010  18.4086090  88.4183650  44.5824630  18.7203320  88.2434990
  43.6650100  17.5358340  88.0264230  34.8036100  23.3143500  93.8244520
  35.3214770  22.5111760  93.7701410  34.3520120  23.2522640  94.6661350
  32.2880640  20.2804870 100.7370220  31.9295580  20.9458720 101.3243560
  31.9935200  19.4488420 101.1082840  35.4893760  20.7389110 103.6209770
  35.1893900  20.8846290 102.7237590  36.2605000  20.1794400 103.5283160
  40.8322210  25.5358110 101.6164900  40.8466750  24.6039070 101.3983810
  40.1247310  25.6217870 102.2554670  45.9659280  19.7197930  87.8863510
  45.8823000  20.1512150  87.0359950  46.6853470  20.1796280  88.3190330
  47.0433420  22.1765450 100.9633480  46.3181610  22.7694230 100.7662870
  47.5708880  22.1688990 100.1646850  30.7988690  20.2796130  87.3604820
  31.6683540  20.5620930  87.6440740  30.3079010  21.0932000  87.2453630
  37.9623500  21.6669340  91.4813100  38.4186280  22.4774590  91.7073290
  37.6111710  21.3492480  92.3131590  40.2656110  27.1775680  98.7105400
  40.9098330  27.3835060  99.3878820  40.6285550  26.4164080  98.2576250
  33.8635280  12.0106990  91.9535620  33.7349910  12.0024890  92.9020540
  33.0397300  12.3490080  91.6026630  45.3843910  25.4656650  87.1521990
  45.1581490  24.7487090  87.7446630  44.9940110  25.2169090  86.3143740
  43.3125810  25.9802930 100.6318910  43.6482050  26.5669620 101.3096830
  42.3926150  25.8495640 100.8616700  31.1659940  29.4923510  87.9266450
  31.5257580  30.0912850  87.2723720  31.0252280  30.0383400  88.7001480
  30.8629210  13.7698110 101.4142320  30.1487730  13.9695030 102.0194930
  31.2824250  12.9937680 101.7857120  31.1501800  27.7578370 102.4008850
  31.2592920  26.8173110 102.2604240  30.4982360  28.0233120 101.7522580
  39.1414390  26.0294260 103.8006970  38.8211260  25.3103500 104.3452660
  38.4672750  26.7049330 103.8743030  32.7835200  22.0969600  89.4886880
  32.1763150  22.8368500  89.4982180  33.2584550  22.1868960  88.6625080
  42.3567990  16.2620420  99.1643770  42.7248810  15.4415630  99.4923340
  41.4966190  16.3222310  99.5799420  45.7230020  15.2177360  89.9731330
  45.0943180  15.3223030  89.2589560  45.2281940  15.4374140  90.7625210
  37.6914050  17.4963310  91.3889210  36.9830200  17.9649650  91.8302820
  37.9758530  16.8385320  92.0234400  39.3169980  18.9160010  99.3881740
  39.8155230  19.3905830 100.0533590  39.4592930  17.9923530  99.5951770
  41.7229480  14.2213970  92.8285000  41.5997260  14.2400100  91.8794510
  42.6714040  14.2692910  92.9483400  35.8949070  15.8048390  88.7639920
  36.7439600  16.2418540  88.6980110  35.5280340  16.1168650  89.5911980
  46.5236840  15.1327970 100.2310130  46.0210440  15.8733370 100.5703940
  47.3393500  15.5211970  99.9146920  44.8158850  20.3761150  93.6771490
  43.8748990  20.3911380  93.8519180  45.1302920  19.5897110  94.1231790
  34.7940490  22.0580750  87.2375450  35.5603760  21.9462110  87.8000880
  34.8715180  21.3618720  86.5852220  33.4887250  19.4905820  87.9208340
  33.5690840  18.5433330  88.0325740  34.3807000  19.8212700  88.0269000
  46.8184430  27.5470000  95.3525750  46.9431850  28.3701170  95.8249560
  47.6849990  27.3360730  95.0049900  34.2901960  29.6401210  95.0242880
  35.0264440  29.0916670  95.2951450  34.6742880  30.5057220  94.8848870
  31.1747440  25.7074780  90.8984390  30.2487220  25.9495920  90.8889800
  31.6403870  26.5349040  90.7769140  33.2960240  28.8247280 104.2128460
  34.0972970  29.1459330 104.6263860  32.7812060  28.4642860 104.9348370
  42.1324870  24.9327150 104.1603870  41.5263030  24.9558750 103.4199620
  41.8278980  24.2010190 104.6971120  43.5625240  28.6607440 102.7713280
  44.5146990  28.5765460 102.7213520  43.4153460  29.3249150 103.4447070
  31.0158050  21.3120740 103.1564510  31.5197070  20.7328020 103.7280740
  30.2765470  21.5960970 103.6940880  37.9181670  24.0334930  86.7110800
  37.8132310  23.4187280  87.4372180  37.7505890  23.5100820  85.9273810
  38.0695990  22.7191730 102.6900030  37.3041660  23.2876730 102.6054700
  38.2511950  22.4267940 101.7968260  41.1584400  23.0954960  87.3152790
  40.6094500  23.5424260  87.9595530  41.7803660  22.5904210  87.8390460
  45.2119340  24.4497060 103.2475050  45.9528810  24.7872820 102.7442510
  44.4492020  24.6189120 102.6944820  33.0481130  19.4550330 104.0514580
  33.0886470  19.1564200 104.9599810  33.9026630  19.8557940 103.8922100
  36.8259520  22.0545880  89.2118090  37.2475940  21.8885750  90.0549480
  36.9510360  21.2446110  88.7173230  34.9886940  18.0342430 102.0189070
  34.4583400  17.5433380 101.3912410  35.6575010  18.4626630 101.4847000
  39.3387160  21.0783490  86.4595190  39.8592820  20.3632510  86.0936340
  39.9855560  21.7169360  86.7595700  43.8865000  22.5011890 101.7830260
  44.3006020  22.6556970 102.6320680  42.9516000  22.6267110 101.9456040
  44.3587170  19.8408050 103.7869410  44.9407940  19.0860370 103.6989890
  44.5348940  20.3715490 103.0100890  35.4759240  15.0004800 102.0986360
  35.3816110  14.3825550 101.3737230  34.8956630  15.7271090 101.8716270
  38.2420680  13.5578040  99.1313750  37.7937980  13.5802300  98.2859300
  37.6085880  13.1597060  99.7284050  38.6480230  22.4532370  99.7526190
  39.0668340  23.2965100  99.5802430  37.7288860  22.5904410  99.5232970
  40.9844130  20.1848550 101.1364030  41.1040340  19.5889690 101.8758870
  41.8438130  20.2218240 100.7165330  43.3232030  20.7385740  99.7126540
  42.7967250  21.2628360  99.1091680  43.6663370  21.3713130 100.3436270
  35.7218420  18.1279110  86.1576250  35.5207480  17.2646470  86.5189590
  35.5510470  18.0412470  85.2197850  36.4987650  28.7585380 100.8683920
  35.9608740  29.4831440 100.5492620  36.7521610  28.2815720 100.0781260
  37.7512900  16.7269900 102.3939850  38.3412590  16.4185750 103.0817670
  36.9333140  16.2549650 102.5499750  42.5706330  16.3435710 102.6272870
  41.8821850  15.6817250 102.5622860  43.2912350  15.8973980 103.0721330
  43.2006730  12.9387340  88.6863130  43.4809020  12.0955240  89.0422550
  42.4272460  13.1710450  89.2001880  34.5201220  15.2279730  86.1454130
  34.8227120  15.2347160  85.2373280  35.2595810  14.8777590  86.6421790
  37.7386150  14.1714350  87.1310330  37.3908150  13.4938340  86.5512780
  37.9398920  13.7103860  87.9453720  33.5431350  24.5322150  86.9783930
  33.9806220  25.0751820  87.6341510  34.0279080  23.7069100  86.9880270
  30.7577150  27.3211180  94.4304190  31.0880160  26.4532240  94.1982830
  31.1868150  27.5269700  95.2609150  31.2467360  28.1881770  97.1685820
  30.8098350  28.3682570  98.0009970  31.8145040  28.9456390  97.0267540
  31.0791790  20.7002000  93.5274700  30.4240630  20.4313640  92.8834400
  31.9169740  20.5906480  93.0776680  45.5681180  24.4150750  99.5539290
  44.7541020  24.8447910  99.8165080  45.9755380  25.0269160  98.9408340
  47.6306620  22.4698440  86.4539560  47.9055460  23.3777320  86.3258780
  47.4417360  22.4060970  87.3901550  44.0282230  15.4943290  87.7493190
  44.4467110  15.3074270  86.9089850  43.7218290  14.6422340  88.0596120
  32.1167720  21.0854570  98.0678040  32.4840760  20.9981970  98.9474060
  31.5478540  20.3221120  97.9684900  46.9171580  19.5538950 101.0808510
  46.6857670  19.3251700 100.1806460  47.1776130  20.4738500 101.0353400
  31.6683720  17.9963660 101.9736460  30.7739770  17.9630420 102.3130170
  32.2081270  18.1950450 102.7387710  45.3559650  14.7795380 103.8588210
  46.2329830  14.7878780 104.2422210  45.3680490  14.0426220 103.2480560
  30.2929870  17.9100930  89.4700030  29.3893950  18.1731130  89.2951690
  30.7770490  18.1812100  88.6899990  46.8022920  18.6324920  94.7476230
  47.3260400  18.1387570  94.1166400  47.3882340  18.7675280  95.4923800
  46.9812640  18.7164790  98.2695780  46.0315350  18.6828330  98.3840770
  47.1625650  19.6264900  98.0345550  32.8357080  16.9666470  87.3794410
  33.5448780  16.5449690  86.8941690  32.1197020  17.0341700  86.7477760
  32.4831240  13.0205800  86.4197060  33.2059370  13.5614740  86.7378280
  32.7555760  12.7469220  85.5438600  46.2922890  17.8898270  90.6868640
  46.7882010  17.6569140  91.4717520  46.0938960  17.0510110  90.2706280
  32.1723430  12.2711990  96.3219680  32.8199620  11.7209370  95.8814840
  32.5925270  12.5255140  97.1435490  47.7210050  16.5259220  93.2206320
  47.6109330  16.3715260  94.1588590  48.4817640  15.9980160  92.9781730
  46.0675770  12.4653350  99.6789320  46.7047990  13.0787490 100.0448510
  46.2150660  12.5014010  98.7338550  48.6100320  14.3567140  86.4612460
  49.5349630  14.2248320  86.2530750  48.5876110  14.4359960  87.4148910
  48.6838810  15.1277800  89.0869170  47.8890310  15.0622920  89.6162080
  48.8882090  16.0628440  89.0754520  45.6257230  29.1669350  93.0807560
  46.2216300  28.8453920  92.4041980  45.8835380  28.6941170  93.8720830
  31.9255430  12.4267660  99.0645000  31.5770250  12.8831480  99.8303180
  31.5943130  11.5324790  99.1467430  33.5319800  25.5987260 103.2298190
  33.4889430  25.2280170 104.1112650  33.6630810  26.5364830 103.3700010
  37.2325830  27.1546850  98.8307910  36.9917190  27.4221410  97.9438430
  38.1728470  27.3252580  98.8858770  39.4380250  13.6179540 102.5864420
  39.3769140  14.2101370 103.3359830  40.3780630  13.5105500 102.4414680
  42.0754810  13.2749600 102.2256710  42.6895220  13.5928890 101.5637790
  42.6204370  12.7898190 102.8452570  32.5976070  11.9543860 102.3395770
  33.1459060  11.7731910 101.5761880  32.6631380  11.1637970 102.8752080
  33.3707830  28.5449510 100.3495970  32.7768150  28.4134210 101.0886010
  33.3631670  27.7087650  99.8838070  42.8162850  11.8381740  98.5526000
  41.9422690  12.1716850  98.3498930  42.7073600  11.3654920  99.3777870
  43.7234830  14.0452610  99.9367720  43.3948190  13.2304370  99.5569450
  44.6717130  14.0022420  99.8133410  46.1769440  29.8164650  96.9105290
  45.7172410  30.5680460  96.5363310  45.5481900  29.0971120  96.8520090
  33.0020060  25.9107890  99.3004010  32.2754120  25.2913180  99.2329960
  33.0629210  26.3048500  98.4302090  36.6065160  28.1252890  96.0853420
  37.1230180  27.5140250  95.5601680  37.2562540  28.6281670  96.5764430
  40.5637670  12.7551580  97.4918910  39.7809460  13.2297080  97.7715670
  40.2700600  11.8506410  97.3832090  45.1158740  13.4574680  95.5368000
  45.5566830  13.4019780  94.6889600  44.8466330  14.3732690  95.6078180
  46.9797310  13.0889920  93.5476820  46.9185710  12.1451140  93.4007840
  47.7589340  13.1970010  94.0930280  31.2850060  29.2282280  92.5100770
  31.1172100  28.5952960  93.2082660  30.4184570  29.4341680  92.1594960
  31.9078080  13.0599060  90.0132630  32.6657440  13.1727940  89.4396660
  31.4455250  13.8968260  89.9676060  38.4491890  15.1738330  93.0034940
  37.6366400  14.7995220  92.6630820  38.9533530  14.4183410  93.3056130
  42.9516870  11.8380780  94.2418010  43.5546240  12.4100990  94.7166530
  42.2109860  12.4020220  94.0191910  46.0951470  12.2402340  89.5158290
  46.2902100  13.1385790  89.7825720  45.3081340  12.0089420  90.0091240
  32.8912760  27.9215510  89.9550910  32.3660380  28.3023540  89.2512870
  32.8157340  28.5466280  90.6760620  34.2803230  13.5863110  88.5534600
  34.8095990  12.7992910  88.4242550  34.9131550  14.2654300  88.7870130
  36.4741070  13.3238250  91.6079990  35.8443810  12.6225560  91.7750120
  35.9346210  14.0842380  91.3913150  39.4133020  29.9377480 104.2790600
  40.3400330  29.7021750 104.3226560  39.3983450  30.7649480 103.7976630
  36.5996630  12.6022230 104.0432480  36.3180900  13.1055830 103.2793300
  36.9816330  11.8043980 103.6774610  43.2012090  12.0175810 104.6212950
  43.0877540  12.3370420 105.5164470  44.0181830  12.4188320 104.3250230
  45.9810580  29.1647340 104.1031640  46.7735900  28.6696570 103.8957600
  46.2743730  29.8437480 104.7107250  34.2554110  22.1267110  77.7432720
  33.4238990  21.8715820  78.1429230  34.8635090  22.1977880  78.4790640
  32.6646060  17.0869000  71.5275110  31.7762760  17.4284970  71.4254990
  32.9487250  16.8869320  70.6355940  30.6279070  19.6874650  77.4114810
  31.1995180  18.9196850  77.4118450  30.6280610  19.9863410  76.5021420
  31.8703940  15.0959010  79.1983740  31.6906780  14.1984760  79.4786500
  31.4684020  15.6430880  79.8730690  40.7102440  17.2974870  77.0996050
  41.0867260  16.4246750  76.9869720  40.6121950  17.6333570  76.2086490
  34.8407450  15.6700500  72.5613490  34.9474200  16.5704230  72.8682250
  33.9299810  15.6218470  72.2708140  44.4926560  14.7925310  74.0324390
  45.3136180  14.3021880  74.0749870  44.5260640  15.3822970  74.7856230
  32.4890610  17.5919510  77.8066080  33.1700720  17.8557880  78.4253480
  32.1738660  16.7520380  78.1404090  36.6815180  18.6386870  76.8938670
  37.1893400  19.1367840  77.5343690  37.2128420  17.8622070  76.7178030
  34.9651280  13.2785430  81.1602090  34.9669720  13.7957820  80.3547990
  34.1355590  12.8015610  81.1372020  36.2154130  22.9180610  79.3375590
  35.8823510  23.5449530  79.9796660  36.3920810  23.4442490  78.5577260
  34.6466610  14.9895390  79.1672540  34.9883420  15.8337440  78.8726410
  33.7082420  15.1379130  79.2837880  35.4273230  24.8861410  81.1524770
  36.0447230  25.5612490  80.8709220  34.5666350  25.2949390  81.0612270
  30.7205570  24.0761270  70.0331620  30.3433550  24.5648370  69.3016520
  30.9778640  24.7486550  70.6638150  46.3450820  26.3500820  79.0679410
  45.6614340  27.0199930  79.0596080  46.8845110  26.5481470  78.3024270
  47.7974960  16.1780480  77.1961140  46.8499870  16.2119460  77.3276570
  48.1224950  16.9919430  77.5810500  38.3294500  12.4777660  75.4917130
  38.6369480  11.9224550  74.7752630  37.3995200  12.6122120  75.3090120
  40.7175260  20.5426490  72.2277250  39.7904540  20.4763870  72.4565720
  40.8700080  21.4806620  72.1132490  40.7044340  16.8143490  69.2244410
  39.7648010  16.9757450  69.3096870  41.0227600  17.5329170  68.6780400
  44.7472550  22.1046790  72.7312500  44.1284970  21.7666340  72.0838800
  44.7297000  21.4606550  73.4391690  36.3231900  21.0691230  75.0096980
  35.9188900  20.3568480  74.5142880  36.4095020  20.7244470  75.8985020
  35.0360520  17.8434440  78.7896020  35.5875110  17.9529780  78.0149270
  35.5504030  18.2172040  79.5051250  44.8799210  28.3290660  80.8359290
  44.4029770  29.1362850  80.6431900  44.1961000  27.6768990  80.9885500
  35.8832030  24.4940480  83.8243990  34.9860560  24.7180450  84.0717390
  35.9084900  24.6175420  82.8755390  42.9237250  21.3433600  69.7385250
  43.3630530  20.5056030  69.5923070  43.6365670  21.9763000  69.8249390
  34.7103250  21.3653800  82.4001360  34.5711020  22.2376600  82.7688760
  33.8284610  21.0226610  82.2549300  36.5083600  27.3075500  84.6086510
  36.4799030  27.7118450  83.7414940  36.3448570  26.3785860  84.4458110
  46.5054390  12.5976410  68.0526290  46.1927050  12.6903240  68.9525360
  47.2666860  13.1757440  68.0023720  33.0236530  19.9636210  72.5103630
  32.9034130  20.6898300  71.8984900  32.7137420  19.1939120  72.0331540
  30.6621900  23.1351350  78.3172270  30.7402320  23.2700120  77.3727990
  31.2763580  22.4267240  78.5100390  31.9069530  24.8351540  74.7278450
  31.4997610  24.9766130  73.8732050  32.7982540  24.5511700  74.5249660
  47.8631670  25.2815450  83.0650690  47.9894730  25.0427330  82.1467870
  47.9053050  24.4499990  83.5372770  30.7181420  24.1765520  80.8566730
  30.8812460  23.7070880  80.0386100  31.1833870  23.6689080  81.5215570
  35.4900190  13.3071280  75.8927300  35.0468340  14.0880820  75.5611820
  36.0485180  13.6301170  76.5998240  39.7770000  16.1739800  81.4962620
  39.3149370  16.3822820  82.3082560  39.3748110  15.3599150  81.1933290
  41.8724220  18.8950500  84.7258070  42.1977630  18.0614250  84.3860300
  42.6604550  19.4179020  84.8736400  38.6059010  12.9281980  70.7733130
  37.9813190  12.9241850  71.4986440  38.5189130  12.0612940  70.3769100
  37.5276090  13.8518610  77.7516900  37.8248420  14.7581440  77.6708920
  38.0761650  13.3637390  77.1376470  35.2814410  18.4304850  73.6208550
  35.0555330  18.2142020  74.5255170  34.5006940  18.8633310  73.2754520
  42.5112170  18.4368220  72.2199200  41.9121060  19.1604020  72.0362820
  43.0591780  18.3745000  71.4375650  37.7213620  19.3290430  84.2868820
  37.6257220  18.3885160  84.1369220  38.5645600  19.5505500  83.8916890
  41.1177040  17.0731760  74.2502480  41.5106610  17.3903960  73.4371170
  41.4793890  16.1943640  74.3647000  32.8524160  15.7404100  82.4402600
  32.4587550  16.5879310  82.6475380  32.1642560  15.1030470  82.6311240
  39.4269210  15.8239070  85.5099340  38.7367530  15.6311270  86.1445430
  40.1701510  16.1073710  86.0423640  30.1541210  13.6632560  76.4732680
  29.8654260  14.2335420  77.1857660  30.8986970  13.1837010  76.8363910
  30.3411440  17.6052680  67.6835400  30.2586110  18.5483440  67.8250390
  29.9894500  17.4627590  66.8047750  38.1409570  16.3391710  76.7505750
  38.1445630  15.8981660  75.9010290  39.0360690  16.6609040  76.8577570
  33.9911950  16.2218200  75.7099960  33.6512000  16.6993430  76.4667010
  33.2289270  15.7683320  75.3501060  38.2029720  17.3403790  69.7412510
  38.3242540  17.2990270  70.6898330  37.8178230  18.2027940  69.5859240
  42.1658090  15.1171190  77.7576200  42.1830830  15.5679840  78.6018050
  41.9173670  14.2176830  77.9709640  37.2151220  19.6504930  69.1395810
  36.6468120  19.2023180  68.5131720  37.9240220  20.0097710  68.6060960
  45.5928840  12.5303370  83.5962580  45.9174610  11.7993030  84.1220560
  45.6285350  12.2117010  82.6943570  32.2920400  23.5516950  83.0162540
  31.9075190  22.9110620  83.6145500  32.6032590  24.2553070  83.5857270
  31.3058030  15.1437180  74.6264630  31.0204950  14.7792850  75.4643250
  31.2436890  14.4117640  74.0127770  36.2316910  19.4402130  80.8155370
  35.9273980  20.3194110  81.0405730  37.1863370  19.5001920  80.8512810
  34.7598700  23.6463120  71.4122220  33.9860960  23.1060740  71.2520940
  35.4893330  23.1269730  71.0739980  40.9796620  14.0366440  71.3478000
  40.1661230  13.5379610  71.2723310  40.7858570  14.8764690  70.9314350
  43.6945010  18.4086090  69.6440160  44.5824630  18.7203320  69.4691500
  43.6650100  17.5358340  69.2520740  34.8036100  23.3143500  75.0501030
  35.3214770  22.5111760  74.9957920  34.3520120  23.2522640  75.8917860
  39.6905600  24.5809780  70.3228330  40.0321300  25.3252010  69.8271650
  38.8618310  24.8940900  70.6853160  32.2880640  20.2804870  81.9626730
  31.9295580  20.9458720  82.5500070  31.9935200  19.4488420  82.3339350
  35.4893760  20.7389110  84.8466280  35.1893900  20.8846290  83.9494100
  36.2605000  20.1794400  84.7539670  45.9659280  19.7197930  69.1120020
  45.8823000  20.1512150  68.2616460  46.6853470  20.1796280  69.5446840
  46.9946530  26.5740190  71.8402150  46.3522690  25.9195810  72.1145870
  46.6077190  26.9795280  71.0642820  30.7988690  20.2796130  68.5861330
  31.6683540  20.5620930  68.8697250  30.3079010  21.0932000  68.4710140
  37.9623500  21.6669340  72.7069610  38.4186280  22.4774590  72.9329800
  37.6111710  21.3492480  73.5388100  33.8635280  12.0106990  73.1792130
  33.7349910  12.0024890  74.1277050  33.0397300  12.3490080  72.8283140
  31.1659940  29.4923510  69.1522960  31.5257580  30.0912850  68.4980230
  31.0252280  30.0383400  69.9257990  30.8629210  13.7698110  82.6398830
  30.1487730  13.9695030  83.2451440  31.2824250  12.9937680  83.0113630
  44.9660160  23.3828590  70.0392660  44.6781860  23.8441280  70.8270540
  45.7612330  22.9226360  70.3076880  31.1501800  27.7578370  83.6265360
  31.2592920  26.8173110  83.4860750  30.4982360  28.0233120  82.9779090
  39.1414390  26.0294260  85.0263480  38.8211260  25.3103500  85.5709170
  38.4672750  26.7049330  85.0999540  37.1828560  26.8754710  69.9696630
  37.1738660  27.6084400  69.3541140  36.2626920  26.6286290  70.0623590
  32.7835200  22.0969600  70.7143390  32.1763150  22.8368500  70.7238690
  33.2584550  22.1868960  69.8881590  42.3567990  16.2620420  80.3900280
  42.7248810  15.4415630  80.7179850  41.4966190  16.3222310  80.8055930
  45.7230020  15.2177360  71.1987840  45.0943180  15.3223030  70.4846070
  45.2281940  15.4374140  71.9881720  40.1688160  26.9382950  68.6321820
  40.2700140  26.7346940  67.7023800  39.2689900  26.6841230  68.8369600
  37.6914050  17.4963310  72.6145720  36.9830200  17.9649650  73.0559330
  37.9758530  16.8385320  73.2490910  41.7229480  14.2213970  74.0541510
  41.5997260  14.2400100  73.1051020  42.6714040  14.2692910  74.1739910
  35.8949070  15.8048390  69.9896430  36.7439600  16.2418540  69.9236620
  35.5280340  16.1168650  70.8168490  46.5236840  15.1327970  81.4566640
  46.0210440  15.8733370  81.7960450  47.3393500  15.5211970  81.1403430
  44.8158850  20.3761150  74.9028000  43.8748990  20.3911380  75.0775690
  45.1302920  19.5897110  75.3488300  34.7940490  22.0580750  68.4631960
  35.5603760  21.9462110  69.0257390  34.8715180  21.3618720  67.8108730
  33.4887250  19.4905820  69.1464850  33.5690840  18.5433330  69.2582250
  34.3807000  19.8212700  69.2525510  46.8184430  27.5470000  76.5782260
  46.9431850  28.3701170  77.0506070  47.6849990  27.3360730  76.2306410
  31.1747440  25.7074780  72.1240900  30.2487220  25.9495920  72.1146310
  31.6403870  26.5349040  72.0025650  33.2960240  28.8247280  85.4384970
  34.0972970  29.1459330  85.8520370  32.7812060  28.4642860  86.1604880
  37.4004270  28.8131520  68.0724960  38.1932880  29.1020350  67.6206750
  36.8808620  28.3823690  67.3937440  42.1324870  24.9327150  85.3860380
  41.5263030  24.9558750  84.6456130  41.8278980  24.2010190  85.9227630
  31.0158050  21.3120740  84.3821020  31.5197070  20.7328020  84.9537250
  30.2765470  21.5960970  84.9197390  37.9181670  24.0334930  67.9367310
  37.8132310  23.4187280  68.6628690  37.7505890  23.5100820  67.1530320
  38.0695990  22.7191730  83.9156540  37.3041660  23.2876730  83.8311210
  38.2511950  22.4267940  83.0224770  41.1584400  23.0954960  68.5409300
  40.6094500  23.5424260  69.1852040  41.7803660  22.5904210  69.0646970
  45.2119340  24.4497060  84.4731560  45.9528810  24.7872820  83.9699020
  44.4492020  24.6189120  83.9201330  33.0481130  19.4550330  85.2771090
  33.0886470  19.1564200  86.1856320  33.9026630  19.8557940  85.1178610
  36.8259520  22.0545880  70.4374600  37.2475940  21.8885750  71.2805990
  36.9510360  21.2446110  69.9429740  34.9886940  18.0342430  83.2445580
  34.4583400  17.5433380  82.6168920  35.6575010  18.4626630  82.7103510
  39.3387160  21.0783490  67.6851700  39.8592820  20.3632510  67.3192850
  39.9855560  21.7169360  67.9852210  35.4759240  15.0004800  83.3242870
  35.3816110  14.3825550  82.5993740  34.8956630  15.7271090  83.0972780
  38.2420680  13.5578040  80.3570260  37.7937980  13.5802300  79.5115810
  37.6085880  13.1597060  80.9540560  35.7218420  18.1279110  67.3832760
  35.5207480  17.2646470  67.7446100  35.5510470  18.0412470  66.4454360
  37.7512900  16.7269900  83.6196360  38.3412590  16.4185750  84.3074180
  36.9333140  16.2549650  83.7756260  42.5706330  16.3435710  83.8529380
  41.8821850  15.6817250  83.7879370  43.2912350  15.8973980  84.2977840
  43.2006730  12.9387340  69.9119640  43.4809020  12.0955240  70.2679060
  42.4272460  13.1710450  70.4258390  34.5201220  15.2279730  67.3710640
  34.8227120  15.2347160  66.4629790  35.2595810  14.8777590  67.8678300
  37.7386150  14.1714350  68.3566840  37.3908150  13.4938340  67.7769290
  37.9398920  13.7103860  69.1710230  33.5431350  24.5322150  68.2040440
  33.9806220  25.0751820  68.8598020  34.0279080  23.7069100  68.2136780
  30.7577150  27.3211180  75.6560700  31.0880160  26.4532240  75.4239340
  31.1868150  27.5269700  76.4865660  35.3539070  25.6520190  73.3162670
  35.0534610  25.5285160  74.2166580  35.2476560  24.7928780  72.9078400
  31.2467360  28.1881770  78.3942330  30.8098350  28.3682570  79.2266480
  31.8145040  28.9456390  78.2524050  46.8829540  27.6898770  82.6819640
  46.2831530  27.7491330  81.9383560  47.0123440  26.7503750  82.8116490
  31.0791790  20.7002000  74.7531210  30.4240630  20.4313640  74.1090910
  31.9169740  20.5906480  74.3033190  48.5847420  23.0314170  75.3665480
  48.9556250  22.2481490  74.9601450  49.2249350  23.7203270  75.1882780
  44.0282230  15.4943290  68.9749700  44.4467110  15.3074270  68.1346360
  43.7218290  14.6422340  69.2852630  47.5271960  20.4067430  72.6725500
  47.1515560  19.6395360  72.2406790  46.7975080  20.7890130  73.1600430
  32.1167720  21.0854570  79.2934550  32.4840760  20.9981970  80.1730570
  31.5478540  20.3221120  79.1941410  31.6683720  17.9963660  83.1992970
  30.7739770  17.9630420  83.5386680  32.2081270  18.1950450  83.9644220
  45.3559650  14.7795380  85.0844720  46.2329830  14.7878780  85.4678720
  45.3680490  14.0426220  84.4737070  30.2929870  17.9100930  70.6956540
  29.3893950  18.1731130  70.5208200  30.7770490  18.1812100  69.9156500
  32.8357080  16.9666470  68.6050920  33.5448780  16.5449690  68.1198200
  32.1197020  17.0341700  67.9734270  32.4831240  13.0205800  67.6453570
  33.2059370  13.5614740  67.9634790  32.7555760  12.7469220  66.7695110
  46.2922890  17.8898270  71.9125150  46.7882010  17.6569140  72.6974030
  46.0938960  17.0510110  71.4962790  32.1723430  12.2711990  77.5476190
  32.8199620  11.7209370  77.1071350  32.5925270  12.5255140  78.3692000
  47.7210050  16.5259220  74.4462830  47.6109330  16.3715260  75.3845100
  48.4817640  15.9980160  74.2038240  46.0675770  12.4653350  80.9045830
  46.7047990  13.0787490  81.2705020  46.2150660  12.5014010  79.9595060
  48.6100320  14.3567140  67.6868970  49.5349630  14.2248320  67.4787260
  48.5876110  14.4359960  68.6405420  48.6838810  15.1277800  70.3125680
  47.8890310  15.0622920  70.8418590  48.8882090  16.0628440  70.3011030
  45.6257230  29.1669350  74.3064070  46.2216300  28.8453920  73.6298490
  45.8835380  28.6941170  75.0977340  31.9255430  12.4267660  80.2901510
  31.5770250  12.8831480  81.0559690  31.5943130  11.5324790  80.3723940
  33.5319800  25.5987260  84.4554700  33.4889430  25.2280170  85.3369160
  33.6630810  26.5364830  84.5956520  39.4380250  13.6179540  83.8120930
  39.3769140  14.2101370  84.5616340  40.3780630  13.5105500  83.6671190
  42.0754810  13.2749600  83.4513220  42.6895220  13.5928890  82.7894300
  42.6204370  12.7898190  84.0709080  48.4929990  29.1741230  80.8575060
  47.9988270  29.5710100  80.1402190  47.8843280  28.5490440  81.2512340
  32.5976070  11.9543860  83.5652280  33.1459060  11.7731910  82.8018390
  32.6631380  11.1637970  84.1008590  33.3707830  28.5449510  81.5752480
  32.7768150  28.4134210  82.3142520  33.3631670  27.7087650  81.1094580
  42.8162850  11.8381740  79.7782510  41.9422690  12.1716850  79.5755440
  42.7073600  11.3654920  80.6034380  43.7234830  14.0452610  81.1624230
  43.3948190  13.2304370  80.7825960  44.6717130  14.0022420  81.0389920
  46.1769440  29.8164650  78.1361800  45.7172410  30.5680460  77.7619820
  45.5481900  29.0971120  78.0776600  33.0020060  25.9107890  80.5260520
  32.2754120  25.2913180  80.4586470  33.0629210  26.3048500  79.6558600
  40.5637670  12.7551580  78.7175420  39.7809460  13.2297080  78.9972180
  40.2700600  11.8506410  78.6088600  45.1158740  13.4574680  76.7624510
  45.5566830  13.4019780  75.9146110  44.8466330  14.3732690  76.8334690
  46.9797310  13.0889920  74.7733330  46.9185710  12.1451140  74.6264350
  47.7589340  13.1970010  75.3186790  31.2850060  29.2282280  73.7357280
  31.1172100  28.5952960  74.4339170  30.4184570  29.4341680  73.3851470
  31.9078080  13.0599060  71.2389140  32.6657440  13.1727940  70.6653170
  31.4455250  13.8968260  71.1932570  38.4491890  15.1738330  74.2291450
  37.6366400  14.7995220  73.8887330  38.9533530  14.4183410  74.5312640
  42.9516870  11.8380780  75.4674520  43.5546240  12.4100990  75.9423040
  42.2109860  12.4020220  75.2448420  46.0951470  12.2402340  70.7414800
  46.2902100  13.1385790  71.0082230  45.3081340  12.0089420  71.2347750
  32.8912760  27.9215510  71.1807420  32.3660380  28.3023540  70.4769380
  32.8157340  28.5466280  71.9017130  34.2803230  13.5863110  69.7791110
  34.8095990  12.7992910  69.6499060  34.9131550  14.2654300  70.0126640
  36.4741070  13.3238250  72.8336500  35.8443810  12.6225560  73.0006630
  35.9346210  14.0842380  72.6169660  47.6478080  29.4803050  72.5021360
  47.8230270  28.7940790  71.8582280  46.9499650  30.0050100  72.1098030
  36.5996630  12.6022230  85.2688990  36.3180900  13.1055830  84.5049810
  36.9816330  11.8043980  84.9031120  35.4905730  29.8697890  70.0556670
  36.2224550  29.5857170  69.5080560  35.7499400  29.6311170  70.9456050
  34.6520520  25.9862620  70.0603000  34.0229400  26.4547720  70.6088830
  34.7668350  25.1411840  70.4949190  43.2012090  12.0175810  85.8469460
  43.0877540  12.3370420  86.7420980  44.0181830  12.4188320  85.5506740
  42.1070240  20.0368280  56.2104200  42.0264290  19.1222890  55.9395910
  41.6934660  20.5335350  55.5043910  40.2388280  21.8147300  58.0913470
  39.4630380  21.3347740  58.3812040  40.8901210  21.1352950  57.9169630
  34.2554110  22.1267110  58.9689230  33.4238990  21.8715820  59.3685740
  34.8635090  22.1977880  59.7047150  44.2595710  26.2207490  56.8712600
  43.7977240  25.4494730  57.1999770  45.0721260  26.2473560  57.3765050
  34.2355370  26.1607200  59.1647250  34.5383410  25.2704940  58.9857470
  34.9798960  26.7177420  58.9369500  32.6646060  17.0869000  52.7531620
  31.7762760  17.4284970  52.6511500  32.9487250  16.8869320  51.8612450
  30.6279070  19.6874650  58.6371320  31.1995180  18.9196850  58.6374960
  30.6280610  19.9863410  57.7277930  31.8703940  15.0959010  60.4240250
  31.6906780  14.1984760  60.7043010  31.4684020  15.6430880  61.0987200
  40.7102440  17.2974870  58.3252560  41.0867260  16.4246750  58.2126230
  40.6121950  17.6333570  57.4343000  34.8407450  15.6700500  53.7870000
  34.9474200  16.5704230  54.0938760  33.9299810  15.6218470  53.4964650
  44.4926560  14.7925310  55.2580900  45.3136180  14.3021880  55.3006380
  44.5260640  15.3822970  56.0112740  32.4890610  17.5919510  59.0322590
  33.1700720  17.8557880  59.6509990  32.1738660  16.7520380  59.3660600
  36.6815180  18.6386870  58.1195180  37.1893400  19.1367840  58.7600200
  37.2128420  17.8622070  57.9434540  48.7826110  16.8092060  61.8224530
  48.0778280  17.1973770  61.3039640  49.0484030  17.5042350  62.4245460
  34.9651280  13.2785430  62.3858600  34.9669720  13.7957820  61.5804500
  34.1355590  12.8015610  62.3628530  41.3522370  23.3904740  53.8848500
  40.7339640  23.8554190  53.3211220  41.8645620  24.0832220  54.3018010
  36.2154130  22.9180610  60.5632100  35.8823510  23.5449530  61.2053170
  36.3920810  23.4442490  59.7833770  44.7288040  16.7325690  58.0308440
  44.0243610  17.0210580  58.6111550  45.0900200  17.5425800  57.6708000
  34.6466610  14.9895390  60.3929050  34.9883420  15.8337440  60.0982920
  33.7082420  15.1379130  60.5094390  35.4273230  24.8861410  62.3781280
  36.0447230  25.5612490  62.0965730  34.5666350  25.2949390  62.2868780
  30.7205570  24.0761270  51.2588130  30.3433550  24.5648370  50.5273030
  30.9778640  24.7486550  51.8894660  47.7974960  16.1780480  58.4217650
  46.8499870  16.2119460  58.5533080  48.1224950  16.9919430  58.8067010
  38.3294500  12.4777660  56.7173640  38.6369480  11.9224550  56.0009140
  37.3995200  12.6122120  56.5346630  45.1754980  24.9161170  54.0971270
  45.0651310  23.9735500  54.2220690  45.1723230  25.2776810  54.9834030
  43.2795000  23.0974790  60.3363710  43.6963790  22.8834900  59.5017170
  44.0034820  23.3547580  60.9072330  40.7175260  20.5426490  53.4533760
  39.7904540  20.4763870  53.6822230  40.8700080  21.4806620  53.3389000
  40.7044340  16.8143490  50.4500920  39.7648010  16.9757450  50.5353380
  41.0227600  17.5329170  49.9036910  44.7472550  22.1046790  53.9569010
  44.1284970  21.7666340  53.3095310  44.7297000  21.4606550  54.6648200
  44.1899110  18.2831330  61.3734820  43.7770290  19.1085040  61.6274810
  43.4575060  17.6976370  61.1811180  36.3231900  21.0691230  56.2353490
  35.9188900  20.3568480  55.7399390  36.4095020  20.7244470  57.1241530
  36.7913600  24.7558790  58.3992700  36.4941890  24.1504260  57.7200480
  37.7413420  24.7936100  58.2882060  35.0360520  17.8434440  60.0152530
  35.5875110  17.9529780  59.2405780  35.5504030  18.2172040  60.7307760
  44.8799210  28.3290660  62.0615800  44.4029770  29.1362850  61.8688410
  44.1961000  27.6768990  62.2142010  35.8832030  24.4940480  65.0500500
  34.9860560  24.7180450  65.2973900  35.9084900  24.6175420  64.1011900
  42.9237250  21.3433600  50.9641760  43.3630530  20.5056030  50.8179580
  43.6365670  21.9763000  51.0505900  34.7103250  21.3653800  63.6257870
  34.5711020  22.2376600  63.9945270  33.8284610  21.0226610  63.4805810
  36.5083600  27.3075500  65.8343020  36.4799030  27.7118450  64.9671450
  36.3448570  26.3785860  65.6714620  46.5054390  12.5976410  49.2782800
  46.1927050  12.6903240  50.1781870  47.2666860  13.1757440  49.2280230
  33.0236530  19.9636210  53.7360140  32.9034130  20.6898300  53.1241410
  32.7137420  19.1939120  53.2588050  30.6621900  23.1351350  59.5428780
  30.7402320  23.2700120  58.5984500  31.2763580  22.4267240  59.7356900
  31.9069530  24.8351540  55.9534960  31.4997610  24.9766130  55.0988560
  32.7982540  24.5511700  55.7506170  41.7248410  28.9843450  62.8602010
  42.2393080  28.8951460  63.6624440  40.8817490  29.3303150  63.1529920
  36.1791190  29.0497320  54.0657630  36.0033670  28.1332860  53.8525430
  35.3246930  29.4084610  54.3055430  43.4028940  26.7786350  50.8484010
  42.7094100  26.7763640  50.1886290  44.1451800  26.3545670  50.4178180
  47.7155680  17.3347910  65.2556940  47.0999950  17.8427580  64.7272400
  47.3952100  16.4346240  65.1982880  30.7181420  24.1765520  62.0823240
  30.8812460  23.7070880  61.2642610  31.1833870  23.6689080  62.7472080
  35.4900190  13.3071280  57.1183810  35.0468340  14.0880820  56.7868330
  36.0485180  13.6301170  57.8254750  39.7770000  16.1739800  62.7219130
  39.3149370  16.3822820  63.5339070  39.3748110  15.3599150  62.4189800
  44.7774510  17.3948750  63.8515790  43.9268100  17.0954500  64.1724860
  44.6176300  17.6390760  62.9399610  41.8724220  18.8950500  65.9514580
  42.1977630  18.0614250  65.6116810  42.6604550  19.4179020  66.0992910
  38.6059010  12.9281980  51.9989640  37.9813190  12.9241850  52.7242950
  38.5189130  12.0612940  51.6025610  37.5276090  13.8518610  58.9773410
  37.8248420  14.7581440  58.8965430  38.0761650  13.3637390  58.3632980
  35.2814410  18.4304850  54.8465060  35.0555330  18.2142020  55.7511680
  34.5006940  18.8633310  54.5011030  42.5112170  18.4368220  53.4455710
  41.9121060  19.1604020  53.2619330  43.0591780  18.3745000  52.6632160
  37.7213620  19.3290430  65.5125330  37.6257220  18.3885160  65.3625730
  38.5645600  19.5505500  65.1173400  41.1177040  17.0731760  55.4758990
  41.5106610  17.3903960  54.6627680  41.4793890  16.1943640  55.5903510
  32.8524160  15.7404100  63.6659110  32.4587550  16.5879310  63.8731890
  32.1642560  15.1030470  63.8567750  39.4269210  15.8239070  66.7355850
  38.7367530  15.6311270  67.3701940  40.1701510  16.1073710  67.2680150
  30.1541210  13.6632560  57.6989190  29.8654260  14.2335420  58.4114170
  30.8986970  13.1837010  58.0620420  30.3411440  17.6052680  48.9091910
  30.2586110  18.5483440  49.0506900  29.9894500  17.4627590  48.0304260
  41.7032180  19.6637510  59.5709770  40.9713300  20.1724320  59.9199870
  41.3056520  18.8467490  59.2698550  38.1409570  16.3391710  57.9762260
  38.1445630  15.8981660  57.1266800  39.0360690  16.6609040  58.0834080
  33.9911950  16.2218200  56.9356470  33.6512000  16.6993430  57.6923520
  33.2289270  15.7683320  56.5757570  38.2029720  17.3403790  50.9669020
  38.3242540  17.2990270  51.9154840  37.8178230  18.2027940  50.8115750
  42.1658090  15.1171190  58.9832710  42.1830830  15.5679840  59.8274560
  41.9173670  14.2176830  59.1966150  37.2151220  19.6504930  50.3652320
  36.6468120  19.2023180  49.7388230  37.9240220  20.0097710  49.8317470
  45.5928840  12.5303370  64.8219090  45.9174610  11.7993030  65.3477070
  45.6285350  12.2117010  63.9200080  32.2920400  23.5516950  64.2419050
  31.9075190  22.9110620  64.8402010  32.6032590  24.2553070  64.8113780
  38.4417540  20.3993490  59.7227670  38.8087670  19.9252060  60.4689010
  38.2522600  21.2735060  60.0636010  31.3058030  15.1437180  55.8521140
  31.0204950  14.7792850  56.6899760  31.2436890  14.4117640  55.2384280
  36.2316910  19.4402130  62.0411880  35.9273980  20.3194110  62.2662240
  37.1863370  19.5001920  62.0769320  34.7598700  23.6463120  52.6378730
  33.9860960  23.1060740  52.4777450  35.4893330  23.1269730  52.2996490
  45.5186680  22.6428480  58.4305120  46.2385800  23.1383770  58.0401230
  45.3168500  21.9646370  57.7858990  40.9796620  14.0366440  52.5734510
  40.1661230  13.5379610  52.4979820  40.7858570  14.8764690  52.1570860
  40.9005480  22.7137540  64.3174120  40.8342790  21.7933210  64.0631710
  40.2710620  22.8112980  65.0318760  43.6945010  18.4086090  50.8696670
  44.5824630  18.7203320  50.6948010  43.6650100  17.5358340  50.4777250
  34.8036100  23.3143500  56.2757540  35.3214770  22.5111760  56.2214430
  34.3520120  23.2522640  57.1174370  39.6905600  24.5809780  51.5484840
  40.0321300  25.3252010  51.0528160  38.8618310  24.8940900  51.9109670
  32.2880640  20.2804870  63.1883240  31.9295580  20.9458720  63.7756580
  31.9935200  19.4488420  63.5595860  35.4893760  20.7389110  66.0722790
  35.1893900  20.8846290  65.1750610  36.2605000  20.1794400  65.9796180
  40.8322210  25.5358110  64.0677920  40.8466750  24.6039070  63.8496830
  40.1247310  25.6217870  64.7067690  45.9659280  19.7197930  50.3376530
  45.8823000  20.1512150  49.4872970  46.6853470  20.1796280  50.7703350
  46.9946530  26.5740190  53.0658660  46.3522690  25.9195810  53.3402380
  46.6077190  26.9795280  52.2899330  42.5733010  23.9025620  56.9130350
  42.9256830  23.3053750  56.2531720  41.6895340  23.5769850  57.0838600
  30.7988690  20.2796130  49.8117840  31.6683540  20.5620930  50.0953760
  30.3079010  21.0932000  49.6966650  37.9623500  21.6669340  53.9326120
  38.4186280  22.4774590  54.1586310  37.6111710  21.3492480  54.7644610
  33.8635280  12.0106990  54.4048640  33.7349910  12.0024890  55.3533560
  33.0397300  12.3490080  54.0539650  41.5388190  25.1808030  59.8795870
  42.1810420  24.4801190  59.9928040  42.0637540  25.9606470  59.6992760
  45.3843910  25.4656650  49.6035010  45.1581490  24.7487090  50.1959650
  44.9940110  25.2169090  48.7656760  43.3125810  25.9802930  63.0831930
  43.6482050  26.5669620  63.7609850  42.3926150  25.8495640  63.3129720
  31.1659940  29.4923510  50.3779470  31.5257580  30.0912850  49.7236740
  31.0252280  30.0383400  51.1514500  30.8629210  13.7698110  63.8655340
  30.1487730  13.9695030  64.4707950  31.2824250  12.9937680  64.2370140
  44.9660160  23.3828590  51.2649170  44.6781860  23.8441280  52.0527050
  45.7612330  22.9226360  51.5333390  31.1501800  27.7578370  64.8521870
  31.2592920  26.8173110  64.7117260  30.4982360  28.0233120  64.2035600
  39.1414390  26.0294260  66.2519990  38.8211260  25.3103500  66.7965680
  38.4672750  26.7049330  66.3256050  37.1828560  26.8754710  51.1953140
  37.1738660  27.6084400  50.5797650  36.2626920  26.6286290  51.2880100
  32.7835200  22.0969600  51.9399900  32.1763150  22.8368500  51.9495200
  33.2584550  22.1868960  51.1138100  42.3567990  16.2620420  61.6156790
  42.7248810  15.4415630  61.9436360  41.4966190  16.3222310  62.0312440
  45.7230020  15.2177360  52.4244350  45.0943180  15.3223030  51.7102580
  45.2281940  15.4374140  53.2138230  40.1688160  26.9382950  49.8578330
  40.2700140  26.7346940  48.9280310  39.2689900  26.6841230  50.0626110
  37.6914050  17.4963310  53.8402230  36.9830200  17.9649650  54.2815840
  37.9758530  16.8385320  54.4747420  39.3169980  18.9160010  61.8394760
  39.8155230  19.3905830  62.5046610  39.4592930  17.9923530  62.0464790
  41.7229480  14.2213970  55.2798020  41.5997260  14.2400100  54.3307530
  42.6714040  14.2692910  55.3996420  35.8949070  15.8048390  51.2152940
  36.7439600  16.2418540  51.1493130  35.5280340  16.1168650  52.0425000
  46.5236840  15.1327970  62.6823150  46.0210440  15.8733370  63.0216960
  47.3393500  15.5211970  62.3659940  44.8158850  20.3761150  56.1284510
  43.8748990  20.3911380  56.3032200  45.1302920  19.5897110  56.5744810
  34.7940490  22.0580750  49.6888470  35.5603760  21.9462110  50.2513900
  34.8715180  21.3618720  49.0365240  33.4887250  19.4905820  50.3721360
  33.5690840  18.5433330  50.4838760  34.3807000  19.8212700  50.4782020
  46.8184430  27.5470000  57.8038770  46.9431850  28.3701170  58.2762580
  47.6849990  27.3360730  57.4562920  34.2901960  29.6401210  57.4755900
  35.0264440  29.0916670  57.7464470  34.6742880  30.5057220  57.3361890
  31.1747440  25.7074780  53.3497410  30.2487220  25.9495920  53.3402820
  31.6403870  26.5349040  53.2282160  33.2960240  28.8247280  66.6641480
  34.0972970  29.1459330  67.0776880  32.7812060  28.4642860  67.3861390
  37.4004270  28.8131520  49.2981470  38.1932880  29.1020350  48.8463260
  36.8808620  28.3823690  48.6193950  42.1324870  24.9327150  66.6116890
  41.5263030  24.9558750  65.8712640  41.8278980  24.2010190  67.1484140
  43.5625240  28.6607440  65.2226300  44.5146990  28.5765460  65.1726540
  43.4153460  29.3249150  65.8960090  46.4534440  28.0401650  50.7218210
  46.1675950  27.6266790  49.9072390  46.2553990  28.9689360  50.6018730
  31.0158050  21.3120740  65.6077530  31.5197070  20.7328020  66.1793760
  30.2765470  21.5960970  66.1453900  37.9181670  24.0334930  49.1623820
  37.8132310  23.4187280  49.8885200  37.7505890  23.5100820  48.3786830
  38.0695990  22.7191730  65.1413050  37.3041660  23.2876730  65.0567720
  38.2511950  22.4267940  64.2481280  41.1584400  23.0954960  49.7665810
  40.6094500  23.5424260  50.4108550  41.7803660  22.5904210  50.2903480
  33.0481130  19.4550330  66.5027600  33.0886470  19.1564200  67.4112830
  33.9026630  19.8557940  66.3435120  36.8259520  22.0545880  51.6631110
  37.2475940  21.8885750  52.5062500  36.9510360  21.2446110  51.1686250
  34.9886940  18.0342430  64.4702090  34.4583400  17.5433380  63.8425430
  35.6575010  18.4626630  63.9360020  39.3387160  21.0783490  48.9108210
  39.8592820  20.3632510  48.5449360  39.9855560  21.7169360  49.2108720
  44.3587170  19.8408050  66.2382430  44.9407940  19.0860370  66.1502910
  44.5348940  20.3715490  65.4613910  35.4759240  15.0004800  64.5499380
  35.3816110  14.3825550  63.8250250  34.8956630  15.7271090  64.3229290
  38.2420680  13.5578040  61.5826770  37.7937980  13.5802300  60.7372320
  37.6085880  13.1597060  62.1797070  38.6480230  22.4532370  62.2039210
  39.0668340  23.2965100  62.0315450  37.7288860  22.5904410  61.9745990
  40.9844130  20.1848550  63.5877050  41.1040340  19.5889690  64.3271890
  41.8438130  20.2218240  63.1678350  43.3232030  20.7385740  62.1639560
  42.7967250  21.2628360  61.5604700  43.6663370  21.3713130  62.7949290
  35.7218420  18.1279110  48.6089270  35.5207480  17.2646470  48.9702610
  35.5510470  18.0412470  47.6710870  36.4987650  28.7585380  63.3196940
  35.9608740  29.4831440  63.0005640  36.7521610  28.2815720  62.5294280
  37.7512900  16.7269900  64.8452870  38.3412590  16.4185750  65.5330690
  36.9333140  16.2549650  65.0012770  42.5706330  16.3435710  65.0785890
  41.8821850  15.6817250  65.0135880  43.2912350  15.8973980  65.5234350
  43.2006730  12.9387340  51.1376150  43.4809020  12.0955240  51.4935570
  42.4272460  13.1710450  51.6514900  34.5201220  15.2279730  48.5967150
  34.8227120  15.2347160  47.6886300  35.2595810  14.8777590  49.0934810
  39.3549860  29.9936590  63.5783590  39.2808560  30.8971730  63.8855960
  38.4528700  29.6748490  63.5505660  37.7386150  14.1714350  49.5823350
  37.3908150  13.4938340  49.0025800  37.9398920  13.7103860  50.3966740
  33.5431350  24.5322150  49.4296950  33.9806220  25.0751820  50.0854530
  34.0279080  23.7069100  49.4393290  30.7577150  27.3211180  56.8817210
  31.0880160  26.4532240  56.6495850  31.1868150  27.5269700  57.7122170
  35.3539070  25.6520190  54.5419180  35.0534610  25.5285160  55.4423090
  35.2476560  24.7928780  54.1334910  31.2467360  28.1881770  59.6198840
  30.8098350  28.3682570  60.4522990  31.8145040  28.9456390  59.4780560
  48.1230990  25.4316590  49.2445860  47.2923950  25.4993240  49.7153090
  48.3002820  26.3220710  48.9412720  47.5787450  22.1764070  51.7480060
  48.3406360  22.7460720  51.8539750  47.5941820  21.6091270  52.5188370
  31.0791790  20.7002000  55.9787720  30.4240630  20.4313640  55.3347420
  31.9169740  20.5906480  55.5289700  48.5847420  23.0314170  56.5921990
  48.9556250  22.2481490  56.1857960  49.2249350  23.7203270  56.4139290
  47.6306620  22.4698440  48.9052580  47.9055460  23.3777320  48.7771800
  47.4417360  22.4060970  49.8414570  44.0282230  15.4943290  50.2006210
  44.4467110  15.3074270  49.3602870  43.7218290  14.6422340  50.5109140
  47.5271960  20.4067430  53.8982010  47.1515560  19.6395360  53.4663300
  46.7975080  20.7890130  54.3856940  32.1167720  21.0854570  60.5191060
  32.4840760  20.9981970  61.3987080  31.5478540  20.3221120  60.4197920
  31.6683720  17.9963660  64.4249480  30.7739770  17.9630420  64.7643190
  32.2081270  18.1950450  65.1900730  45.3559650  14.7795380  66.3101230
  46.2329830  14.7878780  66.6935230  45.3680490  14.0426220  65.6993580
  30.2929870  17.9100930  51.9213050  29.3893950  18.1731130  51.7464710
  30.7770490  18.1812100  51.1413010  46.8022920  18.6324920  57.1989250
  47.3260400  18.1387570  56.5679420  47.3882340  18.7675280  57.9436820
  46.9812640  18.7164790  60.7208800  46.0315350  18.6828330  60.8353790
  47.1625650  19.6264900  60.4858570  32.8357080  16.9666470  49.8307430
  33.5448780  16.5449690  49.3454710  32.1197020  17.0341700  49.1990780
  32.4831240  13.0205800  48.8710080  33.2059370  13.5614740  49.1891300
  32.7555760  12.7469220  47.9951620  46.2922890  17.8898270  53.1381660
  46.7882010  17.6569140  53.9230540  46.0938960  17.0510110  52.7219300
  32.1723430  12.2711990  58.7732700  32.8199620  11.7209370  58.3327860
  32.5925270  12.5255140  59.5948510  47.7210050  16.5259220  55.6719340
  47.6109330  16.3715260  56.6101610  48.4817640  15.9980160  55.4294750
  46.0675770  12.4653350  62.1302340  46.7047990  13.0787490  62.4961530
  46.2150660  12.5014010  61.1851570  48.6100320  14.3567140  48.9125480
  49.5349630  14.2248320  48.7043770  48.5876110  14.4359960  49.8661930
  48.6838810  15.1277800  51.5382190  47.8890310  15.0622920  52.0675100
  48.8882090  16.0628440  51.5267540  45.6257230  29.1669350  55.5320580
  46.2216300  28.8453920  54.8555000  45.8835380  28.6941170  56.3233850
  31.9255430  12.4267660  61.5158020  31.5770250  12.8831480  62.2816200
  31.5943130  11.5324790  61.5980450  33.5319800  25.5987260  65.6811210
  33.4889430  25.2280170  66.5625670  33.6630810  26.5364830  65.8213030
  37.2325830  27.1546850  61.2820930  36.9917190  27.4221410  60.3951450
  38.1728470  27.3252580  61.3371790  39.4380250  13.6179540  65.0377440
  39.3769140  14.2101370  65.7872850  40.3780630  13.5105500  64.8927700
  42.0754810  13.2749600  64.6769730  42.6895220  13.5928890  64.0150810
  42.6204370  12.7898190  65.2965590  48.4929990  29.1741230  62.0831570
  47.9988270  29.5710100  61.3658700  47.8843280  28.5490440  62.4768850
  32.5976070  11.9543860  64.7908790  33.1459060  11.7731910  64.0274900
  32.6631380  11.1637970  65.3265100  33.3707830  28.5449510  62.8008990
  32.7768150  28.4134210  63.5399030  33.3631670  27.7087650  62.3351090
  42.8162850  11.8381740  61.0039020  41.9422690  12.1716850  60.8011950
  42.7073600  11.3654920  61.8290890  43.7234830  14.0452610  62.3880740
  43.3948190  13.2304370  62.0082470  44.6717130  14.0022420  62.2646430
  46.1769440  29.8164650  59.3618310  45.7172410  30.5680460  58.9876330
  45.5481900  29.0971120  59.3033110  33.0020060  25.9107890  61.7517030
  32.2754120  25.2913180  61.6842980  33.0629210  26.3048500  60.8815110
  40.5637670  12.7551580  59.9431930  39.7809460  13.2297080  60.2228690
  40.2700600  11.8506410  59.8345110  45.1158740  13.4574680  57.9881020
  45.5566830  13.4019780  57.1402620  44.8466330  14.3732690  58.0591200
  46.9797310  13.0889920  55.9989840  46.9185710  12.1451140  55.8520860
  47.7589340  13.1970010  56.5443300  31.2850060  29.2282280  54.9613790
  31.1172100  28.5952960  55.6595680  30.4184570  29.4341680  54.6107980
  31.9078080  13.0599060  52.4645650  32.6657440  13.1727940  51.8909680
  31.4455250  13.8968260  52.4189080  38.4491890  15.1738330  55.4547960
  37.6366400  14.7995220  55.1143840  38.9533530  14.4183410  55.7569150
  42.9516870  11.8380780  56.6931030  43.5546240  12.4100990  57.1679550
  42.2109860  12.4020220  56.4704930  46.0951470  12.2402340  51.9671310
  46.2902100  13.1385790  52.2338740  45.3081340  12.0089420  52.4604260
  32.8912760  27.9215510  52.4063930  32.3660380  28.3023540  51.7025890
  32.8157340  28.5466280  53.1273640  34.2803230  13.5863110  51.0047620
  34.8095990  12.7992910  50.8755570  34.9131550  14.2654300  51.2383150
  36.4741070  13.3238250  54.0593010  35.8443810  12.6225560  54.2263140
  35.9346210  14.0842380  53.8426170  39.4133020  29.9377480  66.7303620
  40.3400330  29.7021750  66.7739580  39.3983450  30.7649480  66.2489650
  47.6478080  29.4803050  53.7277870  47.8230270  28.7940790  53.0838790
  46.9499650  30.0050100  53.3354540  36.5996630  12.6022230  66.4945500
  36.3180900  13.1055830  65.7306320  36.9816330  11.8043980  66.1287630
  35.4905730  29.8697890  51.2813180  36.2224550  29.5857170  50.7337070
  35.7499400  29.6311170  52.1712560  34.6520520  25.9862620  51.2859510
  34.0229400  26.4547720  51.8345340  34.7668350  25.1411840  51.7205700
  43.2012090  12.0175810  67.0725970  43.0877540  12.3370420  67.9677490
  44.0181830  12.4188320  66.7763250  42.1070240  20.0368280  37.4360710
  42.0264290  19.1222890  37.1652420  41.6934660  20.5335350  36.7300420
  40.2388280  21.8147300  39.3169980  39.4630380  21.3347740  39.6068550
  40.8901210  21.1352950  39.1426140  34.2554110  22.1267110  40.1945740
  33.4238990  21.8715820  40.5942250  34.8635090  22.1977880  40.9303660
  44.2595710  26.2207490  38.0969110  43.7977240  25.4494730  38.4256280
  45.0721260  26.2473560  38.6021560  34.2355370  26.1607200  40.3903760
  34.5383410  25.2704940  40.2113980  34.9798960  26.7177420  40.1626010
  32.6646060  17.0869000  33.9788130  31.7762760  17.4284970  33.8768010
  32.9487250  16.8869320  33.0868960  30.6279070  19.6874650  39.8627830
  31.1995180  18.9196850  39.8631470  30.6280610  19.9863410  38.9534440
  40.4859020  28.5065500  37.7173100  39.8670460  28.9623000  37.1467540
  41.3410800  28.6616960  37.3162800  39.6797270  24.4904490  39.3240140
  39.6105550  23.5494430  39.1629270  40.4417130  24.5805900  39.8962710
  31.8703940  15.0959010  41.6496760  31.6906780  14.1984760  41.9299520
  31.4684020  15.6430880  42.3243710  40.7102440  17.2974870  39.5509070
  41.0867260  16.4246750  39.4382740  40.6121950  17.6333570  38.6599510
  34.8407450  15.6700500  35.0126510  34.9474200  16.5704230  35.3195270
  33.9299810  15.6218470  34.7221160  44.4926560  14.7925310  36.4837410
  45.3136180  14.3021880  36.5262890  44.5260640  15.3822970  37.2369250
  32.4890610  17.5919510  40.2579100  33.1700720  17.8557880  40.8766500
  32.1738660  16.7520380  40.5917110  36.6815180  18.6386870  39.3451690
  37.1893400  19.1367840  39.9856710  37.2128420  17.8622070  39.1691050
  48.7826110  16.8092060  43.0481040  48.0778280  17.1973770  42.5296150
  49.0484030  17.5042350  43.6501970  34.9651280  13.2785430  43.6115110
  34.9669720  13.7957820  42.8061010  34.1355590  12.8015610  43.5885040
  41.3522370  23.3904740  35.1105010  40.7339640  23.8554190  34.5467730
  41.8645620  24.0832220  35.5274520  36.2154130  22.9180610  41.7888610
  35.8823510  23.5449530  42.4309680  36.3920810  23.4442490  41.0090280
  44.7288040  16.7325690  39.2564950  44.0243610  17.0210580  39.8368060
  45.0900200  17.5425800  38.8964510  34.6466610  14.9895390  41.6185560
  34.9883420  15.8337440  41.3239430  33.7082420  15.1379130  41.7350900
  35.4273230  24.8861410  43.6037790  36.0447230  25.5612490  43.3222240
  34.5666350  25.2949390  43.5125290  30.7205570  24.0761270  32.4844640
  30.3433550  24.5648370  31.7529540  30.9778640  24.7486550  33.1151170
  46.3450820  26.3500820  41.5192430  45.6614340  27.0199930  41.5109100
  46.8845110  26.5481470  40.7537290  47.7974960  16.1780480  39.6474160
  46.8499870  16.2119460  39.7789590  48.1224950  16.9919430  40.0323520
  38.3294500  12.4777660  37.9430150  38.6369480  11.9224550  37.2265650
  37.3995200  12.6122120  37.7603140  43.8809560  28.1944950  40.2337610
  43.8936720  27.7907240  39.3659870  43.3284780  28.9692240  40.1299040
  45.1754980  24.9161170  35.3227780  45.0651310  23.9735500  35.4477200
  45.1723230  25.2776810  36.2090540  43.2795000  23.0974790  41.5620220
  43.6963790  22.8834900  40.7273680  44.0034820  23.3547580  42.1328840
  40.7175260  20.5426490  34.6790270  39.7904540  20.4763870  34.9078740
  40.8700080  21.4806620  34.5645510  40.7044340  16.8143490  31.6757430
  39.7648010  16.9757450  31.7609890  41.0227600  17.5329170  31.1293420
  47.2257100  21.4962010  41.6536460  46.3975730  21.5655100  41.1786590
  47.8207580  22.0816320  41.1852290  44.7472550  22.1046790  35.1825520
  44.1284970  21.7666340  34.5351820  44.7297000  21.4606550  35.8904710
  44.1899110  18.2831330  42.5991330  43.7770290  19.1085040  42.8531320
  43.4575060  17.6976370  42.4067690  36.3231900  21.0691230  37.4610000
  35.9188900  20.3568480  36.9655900  36.4095020  20.7244470  38.3498040
  36.7913600  24.7558790  39.6249210  36.4941890  24.1504260  38.9456990
  37.7413420  24.7936100  39.5138570  35.0360520  17.8434440  41.2409040
  35.5875110  17.9529780  40.4662290  35.5504030  18.2172040  41.9564270
  44.8799210  28.3290660  43.2872310  44.4029770  29.1362850  43.0944920
  44.1961000  27.6768990  43.4398520  35.8832030  24.4940480  46.2757010
  34.9860560  24.7180450  46.5230410  35.9084900  24.6175420  45.3268410
  42.9237250  21.3433600  32.1898270  43.3630530  20.5056030  32.0436090
  43.6365670  21.9763000  32.2762410  34.7103250  21.3653800  44.8514380
  34.5711020  22.2376600  45.2201780  33.8284610  21.0226610  44.7062320
  41.0332630  26.2829670  36.1579510  41.4728540  27.0254000  35.7434900
  40.9719520  26.5256240  37.0818470  36.5083600  27.3075500  47.0599530
  36.4799030  27.7118450  46.1927960  36.3448570  26.3785860  46.8971130
  46.5054390  12.5976410  30.5039310  46.1927050  12.6903240  31.4038380
  47.2666860  13.1757440  30.4536740  33.0236530  19.9636210  34.9616650
  32.9034130  20.6898300  34.3497920  32.7137420  19.1939120  34.4844560
  48.4598420  28.0902600  48.3563700  48.9358140  28.5685490  49.0352780
  49.0805580  28.0220090  47.6309200  30.6621900  23.1351350  40.7685290
  30.7402320  23.2700120  39.8241010  31.2763580  22.4267240  40.9613410
  31.9069530  24.8351540  37.1791470  31.4997610  24.9766130  36.3245070
  32.7982540  24.5511700  36.9762680  47.8631670  25.2815450  45.5163710
  47.9894730  25.0427330  44.5980890  47.9053050  24.4499990  45.9885790
  41.7248410  28.9843450  44.0858520  42.2393080  28.8951460  44.8880950
  40.8817490  29.3303150  44.3786430  43.7002810  29.2698790  33.5142520
  43.5403950  28.9801730  34.4124350  43.5349520  28.4938920  32.9787750
  36.1791190  29.0497320  35.2914140  36.0033670  28.1332860  35.0781940
  35.3246930  29.4084610  35.5311940  43.4028940  26.7786350  32.0740520
  42.7094100  26.7763640  31.4142800  44.1451800  26.3545670  31.6434690
  42.9678870  28.4049060  36.1489010  43.4235820  27.6238440  36.4627630
  43.3071390  29.1155880  36.6930190  47.7155680  17.3347910  46.4813450
  47.0999950  17.8427580  45.9528910  47.3952100  16.4346240  46.4239390
  30.7181420  24.1765520  43.3079750  30.8812460  23.7070880  42.4899120
  31.1833870  23.6689080  43.9728590  35.4900190  13.3071280  38.3440320
  35.0468340  14.0880820  38.0124840  36.0485180  13.6301170  39.0511260
  39.7770000  16.1739800  43.9475640  39.3149370  16.3822820  44.7595580
  39.3748110  15.3599150  43.6446310  44.7774510  17.3948750  45.0772300
  43.9268100  17.0954500  45.3981370  44.6176300  17.6390760  44.1656120
  41.8724220  18.8950500  47.1771090  42.1977630  18.0614250  46.8373320
  42.6604550  19.4179020  47.3249420  38.6059010  12.9281980  33.2246150
  37.9813190  12.9241850  33.9499460  38.5189130  12.0612940  32.8282120
  37.5276090  13.8518610  40.2029920  37.8248420  14.7581440  40.1221940
  38.0761650  13.3637390  39.5889490  35.2814410  18.4304850  36.0721570
  35.0555330  18.2142020  36.9768190  34.5006940  18.8633310  35.7267540
  42.5112170  18.4368220  34.6712220  41.9121060  19.1604020  34.4875840
  43.0591780  18.3745000  33.8888670  37.7213620  19.3290430  46.7381840
  37.6257220  18.3885160  46.5882240  38.5645600  19.5505500  46.3429910
  41.1177040  17.0731760  36.7015500  41.5106610  17.3903960  35.8884190
  41.4793890  16.1943640  36.8160020  32.8524160  15.7404100  44.8915620
  32.4587550  16.5879310  45.0988400  32.1642560  15.1030470  45.0824260
  39.4269210  15.8239070  47.9612360  38.7367530  15.6311270  48.5958450
  40.1701510  16.1073710  48.4936660  30.1541210  13.6632560  38.9245700
  29.8654260  14.2335420  39.6370680  30.8986970  13.1837010  39.2876930
  30.3411440  17.6052680  30.1348420  30.2586110  18.5483440  30.2763410
  29.9894500  17.4627590  29.2560770  41.7032180  19.6637510  40.7966280
  40.9713300  20.1724320  41.1456380  41.3056520  18.8467490  40.4955060
  38.1409570  16.3391710  39.2018770  38.1445630  15.8981660  38.3523310
  39.0360690  16.6609040  39.3090590  33.9911950  16.2218200  38.1612980
  33.6512000  16.6993430  38.9180030  33.2289270  15.7683320  37.8014080
  38.2029720  17.3403790  32.1925530  38.3242540  17.2990270  33.1411350
  37.8178230  18.2027940  32.0372260  42.1658090  15.1171190  40.2089220
  42.1830830  15.5679840  41.0531070  41.9173670  14.2176830  40.4222660
  37.2151220  19.6504930  31.5908830  36.6468120  19.2023180  30.9644740
  37.9240220  20.0097710  31.0573980  45.5928840  12.5303370  46.0475600
  45.9174610  11.7993030  46.5733580  45.6285350  12.2117010  45.1456590
  32.2920400  23.5516950  45.4675560  31.9075190  22.9110620  46.0658520
  32.6032590  24.2553070  46.0370290  38.4417540  20.3993490  40.9484180
  38.8087670  19.9252060  41.6945520  38.2522600  21.2735060  41.2892520
  31.3058030  15.1437180  37.0777650  31.0204950  14.7792850  37.9156270
  31.2436890  14.4117640  36.4640790  36.2316910  19.4402130  43.2668390
  35.9273980  20.3194110  43.4918750  37.1863370  19.5001920  43.3025830
  34.7598700  23.6463120  33.8635240  33.9860960  23.1060740  33.7033960
  35.4893330  23.1269730  33.5253000  45.5186680  22.6428480  39.6561630
  46.2385800  23.1383770  39.2657740  45.3168500  21.9646370  39.0115500
  40.9796620  14.0366440  33.7991020  40.1661230  13.5379610  33.7236330
  40.7858570  14.8764690  33.3827370  40.9005480  22.7137540  45.5430630
  40.8342790  21.7933210  45.2888220  40.2710620  22.8112980  46.2575270
  43.6945010  18.4086090  32.0953180  44.5824630  18.7203320  31.9204520
  43.6650100  17.5358340  31.7033760  34.8036100  23.3143500  37.5014050
  35.3214770  22.5111760  37.4470940  34.3520120  23.2522640  38.3430880
  39.6905600  24.5809780  32.7741350  40.0321300  25.3252010  32.2784670
  38.8618310  24.8940900  33.1366180  32.2880640  20.2804870  44.4139750
  31.9295580  20.9458720  45.0013090  31.9935200  19.4488420  44.7852370
  35.4893760  20.7389110  47.2979300  35.1893900  20.8846290  46.4007120
  36.2605000  20.1794400  47.2052690  40.8322210  25.5358110  45.2934430
  40.8466750  24.6039070  45.0753340  40.1247310  25.6217870  45.9324200
  45.9659280  19.7197930  31.5633040  45.8823000  20.1512150  30.7129480
  46.6853470  20.1796280  31.9959860  47.0433420  22.1765450  44.6403010
  46.3181610  22.7694230  44.4432400  47.5708880  22.1688990  43.8416380
  46.9946530  26.5740190  34.2915170  46.3522690  25.9195810  34.5658890
  46.6077190  26.9795280  33.5155840  42.5733010  23.9025620  38.1386860
  42.9256830  23.3053750  37.4788230  41.6895340  23.5769850  38.3095110
  38.6596290  24.6623310  35.5457270  39.3467420  25.2092520  35.9264860
  37.8728710  25.2064040  35.5806880  30.7988690  20.2796130  31.0374350
  31.6683540  20.5620930  31.3210270  30.3079010  21.0932000  30.9223160
  37.9623500  21.6669340  35.1582630  38.4186280  22.4774590  35.3842820
  37.6111710  21.3492480  35.9901120  40.2656110  27.1775680  42.3874930
  40.9098330  27.3835060  43.0648350  40.6285550  26.4164080  41.9345780
  33.8635280  12.0106990  35.6305150  33.7349910  12.0024890  36.5790070
  33.0397300  12.3490080  35.2796160  41.5388190  25.1808030  41.1052380
  42.1810420  24.4801190  41.2184550  42.0637540  25.9606470  40.9249270
  45.3843910  25.4656650  30.8291520  45.1581490  24.7487090  31.4216160
  44.9940110  25.2169090  29.9913270  43.3125810  25.9802930  44.3088440
  43.6482050  26.5669620  44.9866360  42.3926150  25.8495640  44.5386230
  31.1659940  29.4923510  31.6035980  31.5257580  30.0912850  30.9493250
  31.0252280  30.0383400  32.3771010  30.8629210  13.7698110  45.0911850
  30.1487730  13.9695030  45.6964460  31.2824250  12.9937680  45.4626650
  44.9660160  23.3828590  32.4905680  44.6781860  23.8441280  33.2783560
  45.7612330  22.9226360  32.7589900  31.1501800  27.7578370  46.0778380
  31.2592920  26.8173110  45.9373770  30.4982360  28.0233120  45.4292110
  39.1414390  26.0294260  47.4776500  38.8211260  25.3103500  48.0222190
  38.4672750  26.7049330  47.5512560  37.1828560  26.8754710  32.4209650
  37.1738660  27.6084400  31.8054160  36.2626920  26.6286290  32.5136610
  32.7835200  22.0969600  33.1656410  32.1763150  22.8368500  33.1751710
  33.2584550  22.1868960  32.3394610  42.3567990  16.2620420  42.8413300
  42.7248810  15.4415630  43.1692870  41.4966190  16.3222310  43.2568950
  45.7230020  15.2177360  33.6500860  45.0943180  15.3223030  32.9359090
  45.2281940  15.4374140  34.4394740  40.1688160  26.9382950  31.0834840
  40.2700140  26.7346940  30.1536820  39.2689900  26.6841230  31.2882620
  37.6914050  17.4963310  35.0658740  36.9830200  17.9649650  35.5072350
  37.9758530  16.8385320  35.7003930  39.3169980  18.9160010  43.0651270
  39.8155230  19.3905830  43.7303120  39.4592930  17.9923530  43.2721300
  41.7229480  14.2213970  36.5054530  41.5997260  14.2400100  35.5564040
  42.6714040  14.2692910  36.6252930  38.8106270  29.4569270  35.7782510
  39.0647770  29.4190660  34.8561880  37.8618750  29.3302600  35.7710760
  35.8949070  15.8048390  32.4409450  36.7439600  16.2418540  32.3749640
  35.5280340  16.1168650  33.2681510  46.5236840  15.1327970  43.9079660
  46.0210440  15.8733370  44.2473470  47.3393500  15.5211970  43.5916450
  44.8158850  20.3761150  37.3541020  43.8748990  20.3911380  37.5288710
  45.1302920  19.5897110  37.8001320  34.7940490  22.0580750  30.9144980
  35.5603760  21.9462110  31.4770410  34.8715180  21.3618720  30.2621750
  33.4887250  19.4905820  31.5977870  33.5690840  18.5433330  31.7095270
  34.3807000  19.8212700  31.7038530  46.8184430  27.5470000  39.0295280
  46.9431850  28.3701170  39.5019090  47.6849990  27.3360730  38.6819430
  34.2901960  29.6401210  38.7012410  35.0264440  29.0916670  38.9720980
  34.6742880  30.5057220  38.5618400  31.1747440  25.7074780  34.5753920
  30.2487220  25.9495920  34.5659330  31.6403870  26.5349040  34.4538670
  33.2960240  28.8247280  47.8897990  34.0972970  29.1459330  48.3033390
  32.7812060  28.4642860  48.6117900  37.4004270  28.8131520  30.5237980
  38.1932880  29.1020350  30.0719770  36.8808620  28.3823690  29.8450460
  42.1324870  24.9327150  47.8373400  41.5263030  24.9558750  47.0969150
  41.8278980  24.2010190  48.3740650  43.5625240  28.6607440  46.4482810
  44.5146990  28.5765460  46.3983050  43.4153460  29.3249150  47.1216600
  46.4534440  28.0401650  31.9474720  46.1675950  27.6266790  31.1328900
  46.2553990  28.9689360  31.8275240  31.0158050  21.3120740  46.8334040
  31.5197070  20.7328020  47.4050270  30.2765470  21.5960970  47.3710410
  37.9181670  24.0334930  30.3880330  37.8132310  23.4187280  31.1141710
  37.7505890  23.5100820  29.6043340  38.0695990  22.7191730  46.3669560
  37.3041660  23.2876730  46.2824230  38.2511950  22.4267940  45.4737790
  41.1584400  23.0954960  30.9922320  40.6094500  23.5424260  31.6365060
  41.7803660  22.5904210  31.5159990  45.2119340  24.4497060  46.9244580
  45.9528810  24.7872820  46.4212040  44.4492020  24.6189120  46.3714350
  33.0481130  19.4550330  47.7284110  33.0886470  19.1564200  48.6369340
  33.9026630  19.8557940  47.5691630  36.8259520  22.0545880  32.8887620
  37.2475940  21.8885750  33.7319010  36.9510360  21.2446110  32.3942760
  34.9886940  18.0342430  45.6958600  34.4583400  17.5433380  45.0681940
  35.6575010  18.4626630  45.1616530  39.3387160  21.0783490  30.1364720
  39.8592820  20.3632510  29.7705870  39.9855560  21.7169360  30.4365230
  43.8865000  22.5011890  45.4599790  44.3006020  22.6556970  46.3090210
  42.9516000  22.6267110  45.6225570  44.3587170  19.8408050  47.4638940
  44.9407940  19.0860370  47.3759420  44.5348940  20.3715490  46.6870420
  35.4759240  15.0004800  45.7755890  35.3816110  14.3825550  45.0506760
  34.8956630  15.7271090  45.5485800  38.2420680  13.5578040  42.8083280
  37.7937980  13.5802300  41.9628830  37.6085880  13.1597060  43.4053580
  38.6480230  22.4532370  43.4295720  39.0668340  23.2965100  43.2571960
  37.7288860  22.5904410  43.2002500  40.9844130  20.1848550  44.8133560
  41.1040340  19.5889690  45.5528400  41.8438130  20.2218240  44.3934860
  43.3232030  20.7385740  43.3896070  42.7967250  21.2628360  42.7861210
  43.6663370  21.3713130  44.0205800  35.7218420  18.1279110  29.8345780
  35.5207480  17.2646470  30.1959120  35.5510470  18.0412470  28.8967380
  36.4987650  28.7585380  44.5453450  35.9608740  29.4831440  44.2262150
  36.7521610  28.2815720  43.7550790  37.7512900  16.7269900  46.0709380
  38.3412590  16.4185750  46.7587200  36.9333140  16.2549650  46.2269280
  42.5706330  16.3435710  46.3042400  41.8821850  15.6817250  46.2392390
  43.2912350  15.8973980  46.7490860  43.2006730  12.9387340  32.3632660
  43.4809020  12.0955240  32.7192080  42.4272460  13.1710450  32.8771410
  34.5201220  15.2279730  29.8223660  34.8227120  15.2347160  28.9142810
  35.2595810  14.8777590  30.3191320  39.3549860  29.9936590  44.8040100
  39.2808560  30.8971730  45.1112470  38.4528700  29.6748490  44.7762170
  37.7386150  14.1714350  30.8079860  37.3908150  13.4938340  30.2282310
  37.9398920  13.7103860  31.6223250  39.9035190  29.1595100  32.4266460
  40.7985980  29.4980070  32.4485220  39.9352820  28.4374510  31.7990740
  33.5431350  24.5322150  30.6553460  33.9806220  25.0751820  31.3111040
  34.0279080  23.7069100  30.6649800  30.7577150  27.3211180  38.1073720
  31.0880160  26.4532240  37.8752360  31.1868150  27.5269700  38.9378680
  35.3539070  25.6520190  35.7675690  35.0534610  25.5285160  36.6679600
  35.2476560  24.7928780  35.3591420  31.2467360  28.1881770  40.8455350
  30.8098350  28.3682570  41.6779500  31.8145040  28.9456390  40.7037070
  46.8829540  27.6898770  45.1332660  46.2831530  27.7491330  44.3896580
  47.0123440  26.7503750  45.2629510  48.1230990  25.4316590  30.4702370
  47.2923950  25.4993240  30.9409600  48.3002820  26.3220710  30.1669230
  47.5787450  22.1764070  32.9736570  48.3406360  22.7460720  33.0796260
  47.5941820  21.6091270  33.7444880  31.0791790  20.7002000  37.2044230
  30.4240630  20.4313640  36.5603930  31.9169740  20.5906480  36.7546210
  48.5847420  23.0314170  37.8178500  48.9556250  22.2481490  37.4114470
  49.2249350  23.7203270  37.6395800  45.5681180  24.4150750  43.2308820
  44.7541020  24.8447910  43.4934610  45.9755380  25.0269160  42.6177870
  47.6306620  22.4698440  30.1309090  47.9055460  23.3777320  30.0028310
  47.4417360  22.4060970  31.0671080  44.0282230  15.4943290  31.4262720
  44.4467110  15.3074270  30.5859380  43.7218290  14.6422340  31.7365650
  47.5271960  20.4067430  35.1238520  47.1515560  19.6395360  34.6919810
  46.7975080  20.7890130  35.6113450  32.1167720  21.0854570  41.7447570
  32.4840760  20.9981970  42.6243590  31.5478540  20.3221120  41.6454430
  46.9171580  19.5538950  44.7578040  46.6857670  19.3251700  43.8575990
  47.1776130  20.4738500  44.7122930  31.6683720  17.9963660  45.6505990
  30.7739770  17.9630420  45.9899700  32.2081270  18.1950450  46.4157240
  45.3559650  14.7795380  47.5357740  46.2329830  14.7878780  47.9191740
  45.3680490  14.0426220  46.9250090  30.2929870  17.9100930  33.1469560
  29.3893950  18.1731130  32.9721220  30.7770490  18.1812100  32.3669520
  46.8022920  18.6324920  38.4245760  47.3260400  18.1387570  37.7935930
  47.3882340  18.7675280  39.1693330  46.9812640  18.7164790  41.9465310
  46.0315350  18.6828330  42.0610300  47.1625650  19.6264900  41.7115080
  32.8357080  16.9666470  31.0563940  33.5448780  16.5449690  30.5711220
  32.1197020  17.0341700  30.4247290  32.4831240  13.0205800  30.0966590
  33.2059370  13.5614740  30.4147810  32.7555760  12.7469220  29.2208130
  46.2922890  17.8898270  34.3638170  46.7882010  17.6569140  35.1487050
  46.0938960  17.0510110  33.9475810  32.1723430  12.2711990  39.9989210
  32.8199620  11.7209370  39.5584370  32.5925270  12.5255140  40.8205020
  47.7210050  16.5259220  36.8975850  47.6109330  16.3715260  37.8358120
  48.4817640  15.9980160  36.6551260  46.0675770  12.4653350  43.3558850
  46.7047990  13.0787490  43.7218040  46.2150660  12.5014010  42.4108080
  48.6100320  14.3567140  30.1381990  49.5349630  14.2248320  29.9300280
  48.5876110  14.4359960  31.0918440  48.6838810  15.1277800  32.7638700
  47.8890310  15.0622920  33.2931610  48.8882090  16.0628440  32.7524050
  45.6257230  29.1669350  36.7577090  46.2216300  28.8453920  36.0811510
  45.8835380  28.6941170  37.5490360  31.9255430  12.4267660  42.7414530
  31.5770250  12.8831480  43.5072710  31.5943130  11.5324790  42.8236960
  33.5319800  25.5987260  46.9067720  33.4889430  25.2280170  47.7882180
  33.6630810  26.5364830  47.0469540  37.2325830  27.1546850  42.5077440
  36.9917190  27.4221410  41.6207960  38.1728470  27.3252580  42.5628300
  39.4380250  13.6179540  46.2633950  39.3769140  14.2101370  47.0129360
  40.3780630  13.5105500  46.1184210  42.0754810  13.2749600  45.9026240
  42.6895220  13.5928890  45.2407320  42.6204370  12.7898190  46.5222100
  32.5976070  11.9543860  46.0165300  33.1459060  11.7731910  45.2531410
  32.6631380  11.1637970  46.5521610  33.3707830  28.5449510  44.0265500
  32.7768150  28.4134210  44.7655540  33.3631670  27.7087650  43.5607600
  42.8162850  11.8381740  42.2295530  41.9422690  12.1716850  42.0268460
  42.7073600  11.3654920  43.0547400  43.7234830  14.0452610  43.6137250
  43.3948190  13.2304370  43.2338980  44.6717130  14.0022420  43.4902940
  33.0020060  25.9107890  42.9773540  32.2754120  25.2913180  42.9099490
  33.0629210  26.3048500  42.1071620  36.6065160  28.1252890  39.7622950
  37.1230180  27.5140250  39.2371210  37.2562540  28.6281670  40.2533960
  39.3460660  29.0161380  40.5891930  39.6338470  28.7615680  39.7124940
  39.8583880  28.4638740  41.1797500  40.5637670  12.7551580  41.1688440
  39.7809460  13.2297080  41.4485200  40.2700600  11.8506410  41.0601620
  45.1158740  13.4574680  39.2137530  45.5566830  13.4019780  38.3659130
  44.8466330  14.3732690  39.2847710  46.9797310  13.0889920  37.2246350
  46.9185710  12.1451140  37.0777370  47.7589340  13.1970010  37.7699810
  31.2850060  29.2282280  36.1870300  31.1172100  28.5952960  36.8852190
  30.4184570  29.4341680  35.8364490  31.9078080  13.0599060  33.6902160
  32.6657440  13.1727940  33.1166190  31.4455250  13.8968260  33.6445590
  38.4491890  15.1738330  36.6804470  37.6366400  14.7995220  36.3400350
  38.9533530  14.4183410  36.9825660  42.9516870  11.8380780  37.9187540
  43.5546240  12.4100990  38.3936060  42.2109860  12.4020220  37.6961440
  46.0951470  12.2402340  33.1927820  46.2902100  13.1385790  33.4595250
  45.3081340  12.0089420  33.6860770  32.8912760  27.9215510  33.6320440
  32.3660380  28.3023540  32.9282400  32.8157340  28.5466280  34.3530150
  34.2803230  13.5863110  32.2304130  34.8095990  12.7992910  32.1012080
  34.9131550  14.2654300  32.4639660  36.4741070  13.3238250  35.2849520
  35.8443810  12.6225560  35.4519650  35.9346210  14.0842380  35.0682680
  39.4133020  29.9377480  47.9560130  40.3400330  29.7021750  47.9996090
  39.3983450  30.7649480  47.4746160  47.6478080  29.4803050  34.9534380
  47.8230270  28.7940790  34.3095300  46.9499650  30.0050100  34.5611050
  36.5996630  12.6022230  47.7202010  36.3180900  13.1055830  46.9562830
  36.9816330  11.8043980  47.3544140  35.4905730  29.8697890  32.5069690
  36.2224550  29.5857170  31.9593580  35.7499400  29.6311170  33.3969070
  34.6520520  25.9862620  32.5116020  34.0229400  26.4547720  33.0601850
  34.7668350  25.1411840  32.9462210  43.2012090  12.0175810  48.2982480
  43.0877540  12.3370420  49.1934000  44.0181830  12.4188320  48.0019760
  45.9810580  29.1647340  47.7801170  46.7735900  28.6696570  47.5727130
  46.2743730  29.8437480  48.3876780  42.1070240  20.0368280  18.6617220
  42.0264290  19.1222890  18.3908930  41.6934660  20.5335350  17.9556930
  40.2388280  21.8147300  20.5426490  39.4630380  21.3347740  20.8325060
  40.8901210  21.1352950  20.3682650  34.2554110  22.1267110  21.4202250
  33.4238990  21.8715820  21.8198760  34.8635090  22.1977880  22.1560170
  44.2595710  26.2207490  19.3225620  43.7977240  25.4494730  19.6512790
  45.0721260  26.2473560  19.8278070  34.2355370  26.1607200  21.6160270
  34.5383410  25.2704940  21.4370490  34.9798960  26.7177420  21.3882520
  32.6646060  17.0869000  15.2044640  31.7762760  17.4284970  15.1024520
  32.9487250  16.8869320  14.3125470  30.6279070  19.6874650  21.0884340
  31.1995180  18.9196850  21.0887980  30.6280610  19.9863410  20.1790950
  40.4859020  28.5065500  18.9429610  39.8670460  28.9623000  18.3724050
  41.3410800  28.6616960  18.5419310  39.6797270  24.4904490  20.5496650
  39.6105550  23.5494430  20.3885780  40.4417130  24.5805900  21.1219220
  31.8703940  15.0959010  22.8753270  31.6906780  14.1984760  23.1556030
  31.4684020  15.6430880  23.5500220  40.7102440  17.2974870  20.7765580
  41.0867260  16.4246750  20.6639250  40.6121950  17.6333570  19.8856020
  34.8407450  15.6700500  16.2383020  34.9474200  16.5704230  16.5451780
  33.9299810  15.6218470  15.9477670  44.4926560  14.7925310  17.7093920
  45.3136180  14.3021880  17.7519400  44.5260640  15.3822970  18.4625760
  32.4890610  17.5919510  21.4835610  33.1700720  17.8557880  22.1023010
  32.1738660  16.7520380  21.8173620  36.6815180  18.6386870  20.5708200
  37.1893400  19.1367840  21.2113220  37.2128420  17.8622070  20.3947560
  48.7826110  16.8092060  24.2737550  48.0778280  17.1973770  23.7552660
  49.0484030  17.5042350  24.8758480  34.9651280  13.2785430  24.8371620
  34.9669720  13.7957820  24.0317520  34.1355590  12.8015610  24.8141550
  41.3522370  23.3904740  16.3361520  40.7339640  23.8554190  15.7724240
  41.8645620  24.0832220  16.7531030  36.2154130  22.9180610  23.0145120
  35.8823510  23.5449530  23.6566190  36.3920810  23.4442490  22.2346790
  44.7288040  16.7325690  20.4821460  44.0243610  17.0210580  21.0624570
  45.0900200  17.5425800  20.1221020  34.6466610  14.9895390  22.8442070
  34.9883420  15.8337440  22.5495940  33.7082420  15.1379130  22.9607410
  35.4273230  24.8861410  24.8294300  36.0447230  25.5612490  24.5478750
  34.5666350  25.2949390  24.7381800  30.7205570  24.0761270  13.7101150
  30.3433550  24.5648370  12.9786050  30.9778640  24.7486550  14.3407680
  46.3450820  26.3500820  22.7448940  45.6614340  27.0199930  22.7365610
  46.8845110  26.5481470  21.9793800  47.7974960  16.1780480  20.8730670
  46.8499870  16.2119460  21.0046100  48.1224950  16.9919430  21.2580030
  38.3294500  12.4777660  19.1686660  38.6369480  11.9224550  18.4522160
  37.3995200  12.6122120  18.9859650  43.8809560  28.1944950  21.4594120
  43.8936720  27.7907240  20.5916380  43.3284780  28.9692240  21.3555550
  45.1754980  24.9161170  16.5484290  45.0651310  23.9735500  16.6733710
  45.1723230  25.2776810  17.4347050  43.2795000  23.0974790  22.7876730
  43.6963790  22.8834900  21.9530190  44.0034820  23.3547580  23.3585350
  40.7175260  20.5426490  15.9046780  39.7904540  20.4763870  16.1335250
  40.8700080  21.4806620  15.7902020  40.7044340  16.8143490  12.9013940
  39.7648010  16.9757450  12.9866400  41.0227600  17.5329170  12.3549930
  47.2257100  21.4962010  22.8792970  46.3975730  21.5655100  22.4043100
  47.8207580  22.0816320  22.4108800  44.7472550  22.1046790  16.4082030
  44.1284970  21.7666340  15.7608330  44.7297000  21.4606550  17.1161220
  44.1899110  18.2831330  23.8247840  43.7770290  19.1085040  24.0787830
  43.4575060  17.6976370  23.6324200  36.3231900  21.0691230  18.6866510
  35.9188900  20.3568480  18.1912410  36.4095020  20.7244470  19.5754550
  36.7913600  24.7558790  20.8505720  36.4941890  24.1504260  20.1713500
  37.7413420  24.7936100  20.7395080  35.0360520  17.8434440  22.4665550
  35.5875110  17.9529780  21.6918800  35.5504030  18.2172040  23.1820780
  44.8799210  28.3290660  24.5128820  44.4029770  29.1362850  24.3201430
  44.1961000  27.6768990  24.6655030  35.8832030  24.4940480  27.5013520
  34.9860560  24.7180450  27.7486920  35.9084900  24.6175420  26.5524920
  42.9237250  21.3433600  13.4154780  43.3630530  20.5056030  13.2692600
  43.6365670  21.9763000  13.5018920  34.7103250  21.3653800  26.0770890
  34.5711020  22.2376600  26.4458290  33.8284610  21.0226610  25.9318830
  41.0332630  26.2829670  17.3836020  41.4728540  27.0254000  16.9691410
  40.9719520  26.5256240  18.3074980  36.5083600  27.3075500  28.2856040
  36.4799030  27.7118450  27.4184470  36.3448570  26.3785860  28.1227640
  46.5054390  12.5976410  11.7295820  46.1927050  12.6903240  12.6294890
  47.2666860  13.1757440  11.6793250  33.0236530  19.9636210  16.1873160
  32.9034130  20.6898300  15.5754430  32.7137420  19.1939120  15.7101070
  48.4598420  28.0902600  29.5820210  48.9358140  28.5685490  30.2609290
  49.0805580  28.0220090  28.8565710  30.6621900  23.1351350  21.9941800
  30.7402320  23.2700120  21.0497520  31.2763580  22.4267240  22.1869920
  31.9069530  24.8351540  18.4047980  31.4997610  24.9766130  17.5501580
  32.7982540  24.5511700  18.2019190  47.8631670  25.2815450  26.7420220
  47.9894730  25.0427330  25.8237400  47.9053050  24.4499990  27.2142300
  41.7248410  28.9843450  25.3115030  42.2393080  28.8951460  26.1137460
  40.8817490  29.3303150  25.6042940  43.7002810  29.2698790  14.7399030
  43.5403950  28.9801730  15.6380860  43.5349520  28.4938920  14.2044260
  36.1791190  29.0497320  16.5170650  36.0033670  28.1332860  16.3038450
  35.3246930  29.4084610  16.7568450  43.4028940  26.7786350  13.2997030
  42.7094100  26.7763640  12.6399310  44.1451800  26.3545670  12.8691200
  42.9678870  28.4049060  17.3745520  43.4235820  27.6238440  17.6884140
  43.3071390  29.1155880  17.9186700  47.7155680  17.3347910  27.7069960
  47.0999950  17.8427580  27.1785420  47.3952100  16.4346240  27.6495900
  30.7181420  24.1765520  24.5336260  30.8812460  23.7070880  23.7155630
  31.1833870  23.6689080  25.1985100  35.4900190  13.3071280  19.5696830
  35.0468340  14.0880820  19.2381350  36.0485180  13.6301170  20.2767770
  39.7770000  16.1739800  25.1732150  39.3149370  16.3822820  25.9852090
  39.3748110  15.3599150  24.8702820  44.7774510  17.3948750  26.3028810
  43.9268100  17.0954500  26.6237880  44.6176300  17.6390760  25.3912630
  41.8724220  18.8950500  28.4027600  42.1977630  18.0614250  28.0629830
  42.6604550  19.4179020  28.5505930  38.6059010  12.9281980  14.4502660
  37.9813190  12.9241850  15.1755970  38.5189130  12.0612940  14.0538630
  37.5276090  13.8518610  21.4286430  37.8248420  14.7581440  21.3478450
  38.0761650  13.3637390  20.8146000  35.2814410  18.4304850  17.2978080
  35.0555330  18.2142020  18.2024700  34.5006940  18.8633310  16.9524050
  42.5112170  18.4368220  15.8968730  41.9121060  19.1604020  15.7132350
  43.0591780  18.3745000  15.1145180  37.7213620  19.3290430  27.9638350
  37.6257220  18.3885160  27.8138750  38.5645600  19.5505500  27.5686420
  41.1177040  17.0731760  17.9272010  41.5106610  17.3903960  17.1140700
  41.4793890  16.1943640  18.0416530  32.8524160  15.7404100  26.1172130
  32.4587550  16.5879310  26.3244910  32.1642560  15.1030470  26.3080770
  39.4269210  15.8239070  29.1868870  38.7367530  15.6311270  29.8214960
  40.1701510  16.1073710  29.7193170  30.1541210  13.6632560  20.1502210
  29.8654260  14.2335420  20.8627190  30.8986970  13.1837010  20.5133440
  30.3411440  17.6052680  11.3604930  30.2586110  18.5483440  11.5019920
  29.9894500  17.4627590  10.4817280  41.7032180  19.6637510  22.0222790
  40.9713300  20.1724320  22.3712890  41.3056520  18.8467490  21.7211570
  38.1409570  16.3391710  20.4275280  38.1445630  15.8981660  19.5779820
  39.0360690  16.6609040  20.5347100  33.9911950  16.2218200  19.3869490
  33.6512000  16.6993430  20.1436540  33.2289270  15.7683320  19.0270590
  38.2029720  17.3403790  13.4182040  38.3242540  17.2990270  14.3667860
  37.8178230  18.2027940  13.2628770  42.1658090  15.1171190  21.4345730
  42.1830830  15.5679840  22.2787580  41.9173670  14.2176830  21.6479170
  37.2151220  19.6504930  12.8165340  36.6468120  19.2023180  12.1901250
  37.9240220  20.0097710  12.2830490  45.5928840  12.5303370  27.2732110
  45.9174610  11.7993030  27.7990090  45.6285350  12.2117010  26.3713100
  32.2920400  23.5516950  26.6932070  31.9075190  22.9110620  27.2915030
  32.6032590  24.2553070  27.2626800  38.4417540  20.3993490  22.1740690
  38.8087670  19.9252060  22.9202030  38.2522600  21.2735060  22.5149030
  31.3058030  15.1437180  18.3034160  31.0204950  14.7792850  19.1412780
  31.2436890  14.4117640  17.6897300  36.2316910  19.4402130  24.4924900
  35.9273980  20.3194110  24.7175260  37.1863370  19.5001920  24.5282340
  34.7598700  23.6463120  15.0891750  33.9860960  23.1060740  14.9290470
  35.4893330  23.1269730  14.7509510  45.5186680  22.6428480  20.8818140
  46.2385800  23.1383770  20.4914250  45.3168500  21.9646370  20.2372010
  40.9796620  14.0366440  15.0247530  40.1661230  13.5379610  14.9492840
  40.7858570  14.8764690  14.6083880  40.9005480  22.7137540  26.7687140
  40.8342790  21.7933210  26.5144730  40.2710620  22.8112980  27.4831780
  43.6945010  18.4086090  13.3209690  44.5824630  18.7203320  13.1461030
  43.6650100  17.5358340  12.9290270  34.8036100  23.3143500  18.7270560
  35.3214770  22.5111760  18.6727450  34.3520120  23.2522640  19.5687390
  39.6905600  24.5809780  13.9997860  40.0321300  25.3252010  13.5041180
  38.8618310  24.8940900  14.3622690  32.2880640  20.2804870  25.6396260
  31.9295580  20.9458720  26.2269600  31.9935200  19.4488420  26.0108880
  35.4893760  20.7389110  28.5235810  35.1893900  20.8846290  27.6263630
  36.2605000  20.1794400  28.4309200  40.8322210  25.5358110  26.5190940
  40.8466750  24.6039070  26.3009850  40.1247310  25.6217870  27.1580710
  45.9659280  19.7197930  12.7889550  45.8823000  20.1512150  11.9385990
  46.6853470  20.1796280  13.2216370  47.0433420  22.1765450  25.8659520
  46.3181610  22.7694230  25.6688910  47.5708880  22.1688990  25.0672890
  46.9946530  26.5740190  15.5171680  46.3522690  25.9195810  15.7915400
  46.6077190  26.9795280  14.7412350  42.5733010  23.9025620  19.3643370
  42.9256830  23.3053750  18.7044740  41.6895340  23.5769850  19.5351620
  38.6596290  24.6623310  16.7713780  39.3467420  25.2092520  17.1521370
  37.8728710  25.2064040  16.8063390  30.7988690  20.2796130  12.2630860
  31.6683540  20.5620930  12.5466780  30.3079010  21.0932000  12.1479670
  37.9623500  21.6669340  16.3839140  38.4186280  22.4774590  16.6099330
  37.6111710  21.3492480  17.2157630  40.2656110  27.1775680  23.6131440
  40.9098330  27.3835060  24.2904860  40.6285550  26.4164080  23.1602290
  33.8635280  12.0106990  16.8561660  33.7349910  12.0024890  17.8046580
  33.0397300  12.3490080  16.5052670  41.5388190  25.1808030  22.3308890
  42.1810420  24.4801190  22.4441060  42.0637540  25.9606470  22.1505780
  45.3843910  25.4656650  12.0548030  45.1581490  24.7487090  12.6472670
  44.9940110  25.2169090  11.2169780  43.3125810  25.9802930  25.5344950
  43.6482050  26.5669620  26.2122870  42.3926150  25.8495640  25.7642740
  31.1659940  29.4923510  12.8292490  31.5257580  30.0912850  12.1749760
  31.0252280  30.0383400  13.6027520  30.8629210  13.7698110  26.3168360
  30.1487730  13.9695030  26.9220970  31.2824250  12.9937680  26.6883160
  44.9660160  23.3828590  13.7162190  44.6781860  23.8441280  14.5040070
  45.7612330  22.9226360  13.9846410  31.1501800  27.7578370  27.3034890
  31.2592920  26.8173110  27.1630280  30.4982360  28.0233120  26.6548620
  39.1414390  26.0294260  28.7033010  38.8211260  25.3103500  29.2478700
  38.4672750  26.7049330  28.7769070  37.1828560  26.8754710  13.6466160
  37.1738660  27.6084400  13.0310670  36.2626920  26.6286290  13.7393120
  32.7835200  22.0969600  14.3912920  32.1763150  22.8368500  14.4008220
  33.2584550  22.1868960  13.5651120  42.3567990  16.2620420  24.0669810
  42.7248810  15.4415630  24.3949380  41.4966190  16.3222310  24.4825460
  45.7230020  15.2177360  14.8757370  45.0943180  15.3223030  14.1615600
  45.2281940  15.4374140  15.6651250  40.1688160  26.9382950  12.3091350
  40.2700140  26.7346940  11.3793330  39.2689900  26.6841230  12.5139130
  37.6914050  17.4963310  16.2915250  36.9830200  17.9649650  16.7328860
  37.9758530  16.8385320  16.9260440  39.3169980  18.9160010  24.2907780
  39.8155230  19.3905830  24.9559630  39.4592930  17.9923530  24.4977810
  41.7229480  14.2213970  17.7311040  41.5997260  14.2400100  16.7820550
  42.6714040  14.2692910  17.8509440  38.8106270  29.4569270  17.0039020
  39.0647770  29.4190660  16.0818390  37.8618750  29.3302600  16.9967270
  35.8949070  15.8048390  13.6665960  36.7439600  16.2418540  13.6006150
  35.5280340  16.1168650  14.4938020  46.5236840  15.1327970  25.1336170
  46.0210440  15.8733370  25.4729980  47.3393500  15.5211970  24.8172960
  44.8158850  20.3761150  18.5797530  43.8748990  20.3911380  18.7545220
  45.1302920  19.5897110  19.0257830  34.7940490  22.0580750  12.1401490
  35.5603760  21.9462110  12.7026920  34.8715180  21.3618720  11.4878260
  33.4887250  19.4905820  12.8234380  33.5690840  18.5433330  12.9351780
  34.3807000  19.8212700  12.9295040  46.8184430  27.5470000  20.2551790
  46.9431850  28.3701170  20.7275600  47.6849990  27.3360730  19.9075940
  34.2901960  29.6401210  19.9268920  35.0264440  29.0916670  20.1977490
  34.6742880  30.5057220  19.7874910  31.1747440  25.7074780  15.8010430
  30.2487220  25.9495920  15.7915840  31.6403870  26.5349040  15.6795180
  33.2960240  28.8247280  29.1154500  34.0972970  29.1459330  29.5289900
  32.7812060  28.4642860  29.8374410  37.4004270  28.8131520  11.7494490
  38.1932880  29.1020350  11.2976280  36.8808620  28.3823690  11.0706970
  42.1324870  24.9327150  29.0629910  41.5263030  24.9558750  28.3225660
  41.8278980  24.2010190  29.5997160  43.5625240  28.6607440  27.6739320
  44.5146990  28.5765460  27.6239560  43.4153460  29.3249150  28.3473110
  46.4534440  28.0401650  13.1731230  46.1675950  27.6266790  12.3585410
  46.2553990  28.9689360  13.0531750  31.0158050  21.3120740  28.0590550
  31.5197070  20.7328020  28.6306780  30.2765470  21.5960970  28.5966920
  37.9181670  24.0334930  11.6136840  37.8132310  23.4187280  12.3398220
  37.7505890  23.5100820  10.8299850  38.0695990  22.7191730  27.5926070
  37.3041660  23.2876730  27.5080740  38.2511950  22.4267940  26.6994300
  41.1584400  23.0954960  12.2178830  40.6094500  23.5424260  12.8621570
  41.7803660  22.5904210  12.7416500  45.2119340  24.4497060  28.1501090
  45.9528810  24.7872820  27.6468550  44.4492020  24.6189120  27.5970860
  33.0481130  19.4550330  28.9540620  33.0886470  19.1564200  29.8625850
  33.9026630  19.8557940  28.7948140  36.8259520  22.0545880  14.1144130
  37.2475940  21.8885750  14.9575520  36.9510360  21.2446110  13.6199270
  34.9886940  18.0342430  26.9215110  34.4583400  17.5433380  26.2938450
  35.6575010  18.4626630  26.3873040  39.3387160  21.0783490  11.3621230
  39.8592820  20.3632510  10.9962380  39.9855560  21.7169360  11.6621740
  43.8865000  22.5011890  26.6856300  44.3006020  22.6556970  27.5346720
  42.9516000  22.6267110  26.8482080  44.3587170  19.8408050  28.6895450
  44.9407940  19.0860370  28.6015930  44.5348940  20.3715490  27.9126930
  35.4759240  15.0004800  27.0012400  35.3816110  14.3825550  26.2763270
  34.8956630  15.7271090  26.7742310  38.2420680  13.5578040  24.0339790
  37.7937980  13.5802300  23.1885340  37.6085880  13.1597060  24.6310090
  38.6480230  22.4532370  24.6552230  39.0668340  23.2965100  24.4828470
  37.7288860  22.5904410  24.4259010  40.9844130  20.1848550  26.0390070
  41.1040340  19.5889690  26.7784910  41.8438130  20.2218240  25.6191370
  43.3232030  20.7385740  24.6152580  42.7967250  21.2628360  24.0117720
  43.6663370  21.3713130  25.2462310  35.7218420  18.1279110  11.0602290
  35.5207480  17.2646470  11.4215630  35.5510470  18.0412470  10.1223890
  36.4987650  28.7585380  25.7709960  35.9608740  29.4831440  25.4518660
  36.7521610  28.2815720  24.9807300  37.7512900  16.7269900  27.2965890
  38.3412590  16.4185750  27.9843710  36.9333140  16.2549650  27.4525790
  42.5706330  16.3435710  27.5298910  41.8821850  15.6817250  27.4648900
  43.2912350  15.8973980  27.9747370  43.2006730  12.9387340  13.5889170
  43.4809020  12.0955240  13.9448590  42.4272460  13.1710450  14.1027920
  34.5201220  15.2279730  11.0480170  34.8227120  15.2347160  10.1399320
  35.2595810  14.8777590  11.5447830  39.3549860  29.9936590  26.0296610
  39.2808560  30.8971730  26.3368980  38.4528700  29.6748490  26.0018680
  37.7386150  14.1714350  12.0336370  37.3908150  13.4938340  11.4538820
  37.9398920  13.7103860  12.8479760  39.9035190  29.1595100  13.6522970
  40.7985980  29.4980070  13.6741730  39.9352820  28.4374510  13.0247250
  33.5431350  24.5322150  11.8809970  33.9806220  25.0751820  12.5367550
  34.0279080  23.7069100  11.8906310  30.7577150  27.3211180  19.3330230
  31.0880160  26.4532240  19.1008870  31.1868150  27.5269700  20.1635190
  35.3539070  25.6520190  16.9932200  35.0534610  25.5285160  17.8936110
  35.2476560  24.7928780  16.5847930  31.2467360  28.1881770  22.0711860
  30.8098350  28.3682570  22.9036010  31.8145040  28.9456390  21.9293580
  46.8829540  27.6898770  26.3589170  46.2831530  27.7491330  25.6153090
  47.0123440  26.7503750  26.4886020  48.1230990  25.4316590  11.6958880
  47.2923950  25.4993240  12.1666110  48.3002820  26.3220710  11.3925740
  47.5787450  22.1764070  14.1993080  48.3406360  22.7460720  14.3052770
  47.5941820  21.6091270  14.9701390  31.0791790  20.7002000  18.4300740
  30.4240630  20.4313640  17.7860440  31.9169740  20.5906480  17.9802720
  48.5847420  23.0314170  19.0435010  48.9556250  22.2481490  18.6370980
  49.2249350  23.7203270  18.8652310  45.5681180  24.4150750  24.4565330
  44.7541020  24.8447910  24.7191120  45.9755380  25.0269160  23.8434380
  47.6306620  22.4698440  11.3565600  47.9055460  23.3777320  11.2284820
  47.4417360  22.4060970  12.2927590  44.0282230  15.4943290  12.6519230
  44.4467110  15.3074270  11.8115890  43.7218290  14.6422340  12.9622160
  47.5271960  20.4067430  16.3495030  47.1515560  19.6395360  15.9176320
  46.7975080  20.7890130  16.8369960  32.1167720  21.0854570  22.9704080
  32.4840760  20.9981970  23.8500100  31.5478540  20.3221120  22.8710940
  46.9171580  19.5538950  25.9834550  46.6857670  19.3251700  25.0832500
  47.1776130  20.4738500  25.9379440  31.6683720  17.9963660  26.8762500
  30.7739770  17.9630420  27.2156210  32.2081270  18.1950450  27.6413750
  45.3559650  14.7795380  28.7614250  46.2329830  14.7878780  29.1448250
  45.3680490  14.0426220  28.1506600  30.2929870  17.9100930  14.3726070
  29.3893950  18.1731130  14.1977730  30.7770490  18.1812100  13.5926030
  46.8022920  18.6324920  19.6502270  47.3260400  18.1387570  19.0192440
  47.3882340  18.7675280  20.3949840  46.9812640  18.7164790  23.1721820
  46.0315350  18.6828330  23.2866810  47.1625650  19.6264900  22.9371590
  32.8357080  16.9666470  12.2820450  33.5448780  16.5449690  11.7967730
  32.1197020  17.0341700  11.6503800  32.4831240  13.0205800  11.3223100
  33.2059370  13.5614740  11.6404320  32.7555760  12.7469220  10.4464640
  46.2922890  17.8898270  15.5894680  46.7882010  17.6569140  16.3743560
  46.0938960  17.0510110  15.1732320  32.1723430  12.2711990  21.2245720
  32.8199620  11.7209370  20.7840880  32.5925270  12.5255140  22.0461530
  47.7210050  16.5259220  18.1232360  47.6109330  16.3715260  19.0614630
  48.4817640  15.9980160  17.8807770  46.0675770  12.4653350  24.5815360
  46.7047990  13.0787490  24.9474550  46.2150660  12.5014010  23.6364590
  48.6100320  14.3567140  11.3638500  49.5349630  14.2248320  11.1556790
  48.5876110  14.4359960  12.3174950  48.6838810  15.1277800  13.9895210
  47.8890310  15.0622920  14.5188120  48.8882090  16.0628440  13.9780560
  45.6257230  29.1669350  17.9833600  46.2216300  28.8453920  17.3068020
  45.8835380  28.6941170  18.7746870  31.9255430  12.4267660  23.9671040
  31.5770250  12.8831480  24.7329220  31.5943130  11.5324790  24.0493470
  33.5319800  25.5987260  28.1324230  33.4889430  25.2280170  29.0138690
  33.6630810  26.5364830  28.2726050  37.2325830  27.1546850  23.7333950
  36.9917190  27.4221410  22.8464470  38.1728470  27.3252580  23.7884810
  39.4380250  13.6179540  27.4890460  39.3769140  14.2101370  28.2385870
  40.3780630  13.5105500  27.3440720  42.0754810  13.2749600  27.1282750
  42.6895220  13.5928890  26.4663830  42.6204370  12.7898190  27.7478610
  48.4929990  29.1741230  24.5344590  47.9988270  29.5710100  23.8171720
  47.8843280  28.5490440  24.9281870  32.5976070  11.9543860  27.2421810
  33.1459060  11.7731910  26.4787920  32.6631380  11.1637970  27.7778120
  33.3707830  28.5449510  25.2522010  32.7768150  28.4134210  25.9912050
  33.3631670  27.7087650  24.7864110  42.8162850  11.8381740  23.4552040
  41.9422690  12.1716850  23.2524970  42.7073600  11.3654920  24.2803910
  43.7234830  14.0452610  24.8393760  43.3948190  13.2304370  24.4595490
  44.6717130  14.0022420  24.7159450  46.1769440  29.8164650  21.8131330
  45.7172410  30.5680460  21.4389350  45.5481900  29.0971120  21.7546130
  33.0020060  25.9107890  24.2030050  32.2754120  25.2913180  24.1356000
  33.0629210  26.3048500  23.3328130  36.6065160  28.1252890  20.9879460
  37.1230180  27.5140250  20.4627720  37.2562540  28.6281670  21.4790470
  39.3460660  29.0161380  21.8148440  39.6338470  28.7615680  20.9381450
  39.8583880  28.4638740  22.4054010  40.5637670  12.7551580  22.3944950
  39.7809460  13.2297080  22.6741710  40.2700600  11.8506410  22.2858130
  45.1158740  13.4574680  20.4394040  45.5566830  13.4019780  19.5915640
  44.8466330  14.3732690  20.5104220  46.9797310  13.0889920  18.4502860
  46.9185710  12.1451140  18.3033880  47.7589340  13.1970010  18.9956320
  31.2850060  29.2282280  17.4126810  31.1172100  28.5952960  18.1108700
  30.4184570  29.4341680  17.0621000  31.9078080  13.0599060  14.9158670
  32.6657440  13.1727940  14.3422700  31.4455250  13.8968260  14.8702100
  38.4491890  15.1738330  17.9060980  37.6366400  14.7995220  17.5656860
  38.9533530  14.4183410  18.2082170  42.9516870  11.8380780  19.1444050
  43.5546240  12.4100990  19.6192570  42.2109860  12.4020220  18.9217950
  46.0951470  12.2402340  14.4184330  46.2902100  13.1385790  14.6851760
  45.3081340  12.0089420  14.9117280  32.8912760  27.9215510  14.8576950
  32.3660380  28.3023540  14.1538910  32.8157340  28.5466280  15.5786660
  34.2803230  13.5863110  13.4560640  34.8095990  12.7992910  13.3268590
  34.9131550  14.2654300  13.6896170  36.4741070  13.3238250  16.5106030
  35.8443810  12.6225560  16.6776160  35.9346210  14.0842380  16.2939190
  39.4133020  29.9377480  29.1816640  40.3400330  29.7021750  29.2252600
  39.3983450  30.7649480  28.7002670  47.6478080  29.4803050  16.1790890
  47.8230270  28.7940790  15.5351810  46.9499650  30.0050100  15.7867560
  36.5996630  12.6022230  28.9458520  36.3180900  13.1055830  28.1819340
  36.9816330  11.8043980  28.5800650  35.4905730  29.8697890  13.7326200
  36.2224550  29.5857170  13.1850090  35.7499400  29.6311170  14.6225580
  34.6520520  25.9862620  13.7372530  34.0229400  26.4547720  14.2858360
  34.7668350  25.1411840  14.1718720  43.2012090  12.0175810  29.5238990
  43.0877540  12.3370420  30.4190510  44.0181830  12.4188320  29.2276270
  45.9810580  29.1647340  29.0057680  46.7735900  28.6696570  28.7983640
  46.2743730  29.8437480  29.6133290  40.2388280  21.8147300   1.7683000
  39.4630380  21.3347740   2.0581570  40.8901210  21.1352950   1.5939160
  34.2554110  22.1267110   2.6458760  33.4238990  21.8715820   3.0455270
  34.8635090  22.1977880   3.3816680  34.2355370  26.1607200   2.8416780
  34.5383410  25.2704940   2.6627000  34.9798960  26.7177420   2.6139030
  39.6797270  24.4904490   1.7753160  39.6105550  23.5494430   1.6142290
  40.4417130  24.5805900   2.3475730  31.8703940  15.0959010   4.1009780
  31.6906780  14.1984760   4.3812540  31.4684020  15.6430880   4.7756730
  32.4890610  17.5919510   2.7092120  33.1700720  17.8557880   3.3279520
  32.1738660  16.7520380   3.0430130  36.6815180  18.6386870   1.7964710
  37.1893400  19.1367840   2.4369730  37.2128420  17.8622070   1.6204070
  48.7826110  16.8092060   5.4994060  48.0778280  17.1973770   4.9809170
  49.0484030  17.5042350   6.1014990  34.9651280  13.2785430   6.0628130
  34.9669720  13.7957820   5.2574030  34.1355590  12.8015610   6.0398060
  36.2154130  22.9180610   4.2401630  35.8823510  23.5449530   4.8822700
  36.3920810  23.4442490   3.4603300  34.6466610  14.9895390   4.0698580
  34.9883420  15.8337440   3.7752450  33.7082420  15.1379130   4.1863920
  35.4273230  24.8861410   6.0550810  36.0447230  25.5612490   5.7735260
  34.5666350  25.2949390   5.9638310  46.3450820  26.3500820   3.9705450
  45.6614340  27.0199930   3.9622120  46.8845110  26.5481470   3.2050310
  47.7974960  16.1780480   2.0987180  46.8499870  16.2119460   2.2302610
  48.1224950  16.9919430   2.4836540  43.8809560  28.1944950   2.6850630
  43.8936720  27.7907240   1.8172890  43.3284780  28.9692240   2.5812060
  43.2795000  23.0974790   4.0133240  43.6963790  22.8834900   3.1786700
  44.0034820  23.3547580   4.5841860  47.2257100  21.4962010   4.1049480
  46.3975730  21.5655100   3.6299610  47.8207580  22.0816320   3.6365310
  44.1899110  18.2831330   5.0504350  43.7770290  19.1085040   5.3044340
  43.4575060  17.6976370   4.8580710  35.0360520  17.8434440   3.6922060
  35.5875110  17.9529780   2.9175310  35.5504030  18.2172040   4.4077290
  44.8799210  28.3290660   5.7385330  44.4029770  29.1362850   5.5457940
  44.1961000  27.6768990   5.8911540  35.8832030  24.4940480   8.7270030
  34.9860560  24.7180450   8.9743430  35.9084900  24.6175420   7.7781430
  34.7103250  21.3653800   7.3027400  34.5711020  22.2376600   7.6714800
  33.8284610  21.0226610   7.1575340  36.5083600  27.3075500   9.5112550
  36.4799030  27.7118450   8.6440980  36.3448570  26.3785860   9.3484150
  48.4598420  28.0902600  10.8076720  48.9358140  28.5685490  11.4865800
  49.0805580  28.0220090  10.0822220  30.6621900  23.1351350   3.2198310
  30.7402320  23.2700120   2.2754030  31.2763580  22.4267240   3.4126430
  47.8631670  25.2815450   7.9676730  47.9894730  25.0427330   7.0493910
  47.9053050  24.4499990   8.4398810  41.7248410  28.9843450   6.5371540
  42.2393080  28.8951460   7.3393970  40.8817490  29.3303150   6.8299450
  47.7155680  17.3347910   8.9326470  47.0999950  17.8427580   8.4041930
  47.3952100  16.4346240   8.8752410  30.7181420  24.1765520   5.7592770
  30.8812460  23.7070880   4.9412140  31.1833870  23.6689080   6.4241610
  39.7770000  16.1739800   6.3988660  39.3149370  16.3822820   7.2108600
  39.3748110  15.3599150   6.0959330  44.7774510  17.3948750   7.5285320
  43.9268100  17.0954500   7.8494390  44.6176300  17.6390760   6.6169140
  41.8724220  18.8950500   9.6284110  42.1977630  18.0614250   9.2886340
  42.6604550  19.4179020   9.7762440  37.5276090  13.8518610   2.6542940
  37.8248420  14.7581440   2.5734960  38.0761650  13.3637390   2.0402510
  37.7213620  19.3290430   9.1894860  37.6257220  18.3885160   9.0395260
  38.5645600  19.5505500   8.7942930  32.8524160  15.7404100   7.3428640
  32.4587550  16.5879310   7.5501420  32.1642560  15.1030470   7.5337280
  39.4269210  15.8239070  10.4125380  38.7367530  15.6311270  11.0471470
  40.1701510  16.1073710  10.9449680  41.7032180  19.6637510   3.2479300
  40.9713300  20.1724320   3.5969400  41.3056520  18.8467490   2.9468080
  42.1658090  15.1171190   2.6602240  42.1830830  15.5679840   3.5044090
  41.9173670  14.2176830   2.8735680  45.5928840  12.5303370   8.4988620
  45.9174610  11.7993030   9.0246600  45.6285350  12.2117010   7.5969610
  32.2920400  23.5516950   7.9188580  31.9075190  22.9110620   8.5171540
  32.6032590  24.2553070   8.4883310  38.4417540  20.3993490   3.3997200
  38.8087670  19.9252060   4.1458540  38.2522600  21.2735060   3.7405540
  36.2316910  19.4402130   5.7181410  35.9273980  20.3194110   5.9431770
  37.1863370  19.5001920   5.7538850  45.5186680  22.6428480   2.1074650
  46.2385800  23.1383770   1.7170760  45.3168500  21.9646370   1.4628520
  40.9005480  22.7137540   7.9943650  40.8342790  21.7933210   7.7401240
  40.2710620  22.8112980   8.7088290  32.2880640  20.2804870   6.8652770
  31.9295580  20.9458720   7.4526110  31.9935200  19.4488420   7.2365390
  35.4893760  20.7389110   9.7492320  35.1893900  20.8846290   8.8520140
  36.2605000  20.1794400   9.6565710  40.8322210  25.5358110   7.7447450
  40.8466750  24.6039070   7.5266360  40.1247310  25.6217870   8.3837220
  47.0433420  22.1765450   7.0916030  46.3181610  22.7694230   6.8945420
  47.5708880  22.1688990   6.2929400  40.2656110  27.1775680   4.8387950
  40.9098330  27.3835060   5.5161370  40.6285550  26.4164080   4.3858800
  41.5388190  25.1808030   3.5565400  42.1810420  24.4801190   3.6697570
  42.0637540  25.9606470   3.3762290  43.3125810  25.9802930   6.7601460
  43.6482050  26.5669620   7.4379380  42.3926150  25.8495640   6.9899250
  30.8629210  13.7698110   7.5424870  30.1487730  13.9695030   8.1477480
  31.2824250  12.9937680   7.9139670  31.1501800  27.7578370   8.5291400
  31.2592920  26.8173110   8.3886790  30.4982360  28.0233120   7.8805130
  39.1414390  26.0294260   9.9289520  38.8211260  25.3103500  10.4735210
  38.4672750  26.7049330  10.0025580  42.3567990  16.2620420   5.2926320
  42.7248810  15.4415630   5.6205890  41.4966190  16.3222310   5.7081970
  39.3169980  18.9160010   5.5164290  39.8155230  19.3905830   6.1816140
  39.4592930  17.9923530   5.7234320  46.5236840  15.1327970   6.3592680
  46.0210440  15.8733370   6.6986490  47.3393500  15.5211970   6.0429470
  33.2960240  28.8247280  10.3411010  34.0972970  29.1459330  10.7546410
  32.7812060  28.4642860  11.0630920  42.1324870  24.9327150  10.2886420
  41.5263030  24.9558750   9.5482170  41.8278980  24.2010190  10.8253670
  43.5625240  28.6607440   8.8995830  44.5146990  28.5765460   8.8496070
  43.4153460  29.3249150   9.5729620  31.0158050  21.3120740   9.2847060
  31.5197070  20.7328020   9.8563290  30.2765470  21.5960970   9.8223430
  38.0695990  22.7191730   8.8182580  37.3041660  23.2876730   8.7337250
  38.2511950  22.4267940   7.9250810  45.2119340  24.4497060   9.3757600
  45.9528810  24.7872820   8.8725060  44.4492020  24.6189120   8.8227370
  33.0481130  19.4550330  10.1797130  33.0886470  19.1564200  11.0882360
  33.9026630  19.8557940  10.0204650  34.9886940  18.0342430   8.1471620
  34.4583400  17.5433380   7.5194960  35.6575010  18.4626630   7.6129550
  43.8865000  22.5011890   7.9112810  44.3006020  22.6556970   8.7603230
  42.9516000  22.6267110   8.0738590  44.3587170  19.8408050   9.9151960
  44.9407940  19.0860370   9.8272440  44.5348940  20.3715490   9.1383440
  35.4759240  15.0004800   8.2268910  35.3816110  14.3825550   7.5019780
  34.8956630  15.7271090   7.9998820  38.2420680  13.5578040   5.2596300
  37.7937980  13.5802300   4.4141850  37.6085880  13.1597060   5.8566600
  38.6480230  22.4532370   5.8808740  39.0668340  23.2965100   5.7084980
  37.7288860  22.5904410   5.6515520  40.9844130  20.1848550   7.2646580
  41.1040340  19.5889690   8.0041420  41.8438130  20.2218240   6.8447880
  43.3232030  20.7385740   5.8409090  42.7967250  21.2628360   5.2374230
  43.6663370  21.3713130   6.4718820  36.4987650  28.7585380   6.9966470
  35.9608740  29.4831440   6.6775170  36.7521610  28.2815720   6.2063810
  37.7512900  16.7269900   8.5222400  38.3412590  16.4185750   9.2100220
  36.9333140  16.2549650   8.6782300  42.5706330  16.3435710   8.7555420
  41.8821850  15.6817250   8.6905410  43.2912350  15.8973980   9.2003880
  39.3549860  29.9936590   7.2553120  39.2808560  30.8971730   7.5625490
  38.4528700  29.6748490   7.2275190  31.2467360  28.1881770   3.2968370
  30.8098350  28.3682570   4.1292520  31.8145040  28.9456390   3.1550090
  46.8829540  27.6898770   7.5845680  46.2831530  27.7491330   6.8409600
  47.0123440  26.7503750   7.7142530  45.5681180  24.4150750   5.6821840
  44.7541020  24.8447910   5.9447630  45.9755380  25.0269160   5.0690890
  32.1167720  21.0854570   4.1960590  32.4840760  20.9981970   5.0756610
  31.5478540  20.3221120   4.0967450  46.9171580  19.5538950   7.2091060
  46.6857670  19.3251700   6.3089010  47.1776130  20.4738500   7.1635950
  31.6683720  17.9963660   8.1019010  30.7739770  17.9630420   8.4412720
  32.2081270  18.1950450   8.8670260  45.3559650  14.7795380   9.9870760
  46.2329830  14.7878780  10.3704760  45.3680490  14.0426220   9.3763110
  46.9812640  18.7164790   4.3978330  46.0315350  18.6828330   4.5123320
  47.1625650  19.6264900   4.1628100  32.1723430  12.2711990   2.4502230
  32.8199620  11.7209370   2.0097390  32.5925270  12.5255140   3.2718040
  46.0675770  12.4653350   5.8071870  46.7047990  13.0787490   6.1731060
  46.2150660  12.5014010   4.8621100  31.9255430  12.4267660   5.1927550
  31.5770250  12.8831480   5.9585730  31.5943130  11.5324790   5.2749980
  33.5319800  25.5987260   9.3580740  33.4889430  25.2280170  10.2395200
  33.6630810  26.5364830   9.4982560  37.2325830  27.1546850   4.9590460
  36.9917190  27.4221410   4.0720980  38.1728470  27.3252580   5.0141320
  39.4380250  13.6179540   8.7146970  39.3769140  14.2101370   9.4642380
  40.3780630  13.5105500   8.5697230  42.0754810  13.2749600   8.3539260
  42.6895220  13.5928890   7.6920340  42.6204370  12.7898190   8.9735120
  48.4929990  29.1741230   5.7601100  47.9988270  29.5710100   5.0428230
  47.8843280  28.5490440   6.1538380  32.5976070  11.9543860   8.4678320
  33.1459060  11.7731910   7.7044430  32.6631380  11.1637970   9.0034630
  33.3707830  28.5449510   6.4778520  32.7768150  28.4134210   7.2168560
  33.3631670  27.7087650   6.0120620  42.8162850  11.8381740   4.6808550
  41.9422690  12.1716850   4.4781480  42.7073600  11.3654920   5.5060420
  43.7234830  14.0452610   6.0650270  43.3948190  13.2304370   5.6852000
  44.6717130  14.0022420   5.9415960  46.1769440  29.8164650   3.0387840
  45.7172410  30.5680460   2.6645860  45.5481900  29.0971120   2.9802640
  33.0020060  25.9107890   5.4286560  32.2754120  25.2913180   5.3612510
  33.0629210  26.3048500   4.5584640  36.6065160  28.1252890   2.2135970
  37.1230180  27.5140250   1.6884230  37.2562540  28.6281670   2.7046980
  39.3460660  29.0161380   3.0404950  39.6338470  28.7615680   2.1637960
  39.8583880  28.4638740   3.6310520  40.5637670  12.7551580   3.6201460
  39.7809460  13.2297080   3.8998220  40.2700600  11.8506410   3.5114640
  39.4133020  29.9377480  10.4073150  40.3400330  29.7021750  10.4509110
  39.3983450  30.7649480   9.9259180  36.5996630  12.6022230  10.1715030
  36.3180900  13.1055830   9.4075850  36.9816330  11.8043980   9.8057160
  43.2012090  12.0175810  10.7495500  43.0877540  12.3370420  11.6447020
  44.0181830  12.4188320  10.4532780  45.9810580  29.1647340  10.2314190
  46.7735900  28.6696570  10.0240150  46.2743730  29.8437480  10.8389800
  44.2595710   7.4464000 150.7430050  43.7977240   6.6751240 151.0717220
  45.0721260   7.4730070 151.2482500  40.4859020   9.7322010 150.3634040
  39.8670460  10.1879510 149.7928480  41.3410800   9.8873470 149.9623740
  41.3522370   4.6161250 147.7565950  40.7339640   5.0810700 147.1928670
  41.8645620   5.3088730 148.1735460  30.7205570   5.3017780 145.1305580
  30.3433550   5.7904880 144.3990480  30.9778640   5.9743060 145.7612110
  45.1754980   6.1417680 147.9688720  45.0651310   5.1992010 148.0938140
  45.1723230   6.5033320 148.8551480  40.7175260   1.7683000 147.3251210
  39.7904540   1.7020380 147.5539680  40.8700080   2.7063130 147.2106450
  44.7472550   3.3303300 147.8286460  44.1284970   2.9922850 147.1812760
  44.7297000   2.6863060 148.5365650  42.9237250   2.5690110 144.8359210
  43.3630530   1.7312540 144.6897030  43.6365670   3.2019510 144.9223350
  41.0332630   7.5086180 148.8040450  41.4728540   8.2510510 148.3895840
  40.9719520   7.7512750 149.7279410  31.9069530   6.0608050 149.8252410
  31.4997610   6.2022640 148.9706010  32.7982540   5.7768210 149.6223620
  43.7002810  10.4955300 146.1603460  43.5403950  10.2058240 147.0585290
  43.5349520   9.7195430 145.6248690  36.1791190  10.2753830 147.9375080
  36.0033670   9.3589370 147.7242880  35.3246930  10.6341120 148.1772880
  43.4028940   8.0042860 144.7201460  42.7094100   8.0020150 144.0603740
  44.1451800   7.5802180 144.2895630  42.9678870   9.6305570 148.7949950
  43.4235820   8.8494950 149.1088570  43.3071390  10.3412390 149.3391130
  34.7598700   4.8719630 146.5096180  33.9860960   4.3317250 146.3494900
  35.4893330   4.3526240 146.1713940  34.8036100   4.5400010 150.1474990
  35.3214770   3.7368270 150.0931880  34.3520120   4.4779150 150.9891820
  39.6905600   5.8066290 145.4202290  40.0321300   6.5508520 144.9245610
  38.8618310   6.1197410 145.7827120  46.9946530   7.7996700 146.9376110
  46.3522690   7.1452320 147.2119830  46.6077190   8.2051790 146.1616780
  42.5733010   5.1282130 150.7847800  42.9256830   4.5310260 150.1249170
  41.6895340   4.8026360 150.9556050  38.6596290   5.8879820 148.1918210
  39.3467420   6.4349030 148.5725800  37.8728710   6.4320550 148.2267820
  37.9623500   2.8925850 147.8043570  38.4186280   3.7031100 148.0303760
  37.6111710   2.5748990 148.6362060  45.3843910   6.6913160 143.4752460
  45.1581490   5.9743600 144.0677100  44.9940110   6.4425600 142.6374210
  31.1659940  10.7180020 144.2496920  31.5257580  11.3169360 143.5954190
  31.0252280  11.2639910 145.0231950  44.9660160   4.6085100 145.1366620
  44.6781860   5.0697790 145.9244500  45.7612330   4.1482870 145.4050840
  37.1828560   8.1011220 145.0670590  37.1738660   8.8340910 144.4515100
  36.2626920   7.8542800 145.1597550  32.7835200   3.3226110 145.8117350
  32.1763150   4.0625010 145.8212650  33.2584550   3.4125470 144.9855550
  40.1688160   8.1639460 143.7295780  40.2700140   7.9603450 142.7997760
  39.2689900   7.9097740 143.9343560  38.8106270  10.6825780 148.4243450
  39.0647770  10.6447170 147.5022820  37.8618750  10.5559110 148.4171700
  34.7940490   3.2837260 143.5605920  35.5603760   3.1718620 144.1231350
  34.8715180   2.5875230 142.9082690  34.2901960  10.8657720 151.3473350
  35.0264440  10.3173180 151.6181920  34.6742880  11.7313730 151.2079340
  31.1747440   6.9331290 147.2214860  30.2487220   7.1752430 147.2120270
  31.6403870   7.7605550 147.0999610  37.4004270  10.0388030 143.1698920
  38.1932880  10.3276860 142.7180710  36.8808620   9.6080200 142.4911400
  46.4534440   9.2658160 144.5935660  46.1675950   8.8523300 143.7789840
  46.2553990  10.1945870 144.4736180  37.9181670   5.2591440 143.0341270
  37.8132310   4.6443790 143.7602650  37.7505890   4.7357330 142.2504280
  41.1584400   4.3211470 143.6383260  40.6094500   4.7680770 144.2826000
  41.7803660   3.8160720 144.1620930  36.8259520   3.2802390 145.5348560
  37.2475940   3.1142260 146.3779950  36.9510360   2.4702620 145.0403700
  39.9035190  10.3851610 145.0727400  40.7985980  10.7236580 145.0946160
  39.9352820   9.6631020 144.4451680  33.5431350   5.7578660 143.3014400
  33.9806220   6.3008330 143.9571980  34.0279080   4.9325610 143.3110740
  30.7577150   8.5467690 150.7534660  31.0880160   7.6788750 150.5213300
  31.1868150   8.7526210 151.5839620  35.3539070   6.8776700 148.4136630
  35.0534610   6.7541670 149.3140540  35.2476560   6.0185290 148.0052360
  48.1230990   6.6573100 143.1163310  47.2923950   6.7249750 143.5870540
  48.3002820   7.5477220 142.8130170  47.5787450   3.4020580 145.6197510
  48.3406360   3.9717230 145.7257200  47.5941820   2.8347780 146.3905820
  31.0791790   1.9258510 149.8505170  30.4240630   1.6570150 149.2064870
  31.9169740   1.8162990 149.4007150  48.5847420   4.2570680 150.4639440
  48.9556250   3.4738000 150.0575410  49.2249350   4.9459780 150.2856740
  47.6306620   3.6954950 142.7770030  47.9055460   4.6033830 142.6489250
  47.4417360   3.6317480 143.7132020  45.6257230  10.3925860 149.4038030
  46.2216300  10.0710430 148.7272450  45.8835380   9.9197680 150.1951300
  31.2850060  10.4538790 148.8331240  31.1172100   9.8209470 149.5313130
  30.4184570  10.6598190 148.4825430  32.8912760   9.1472020 146.2781380
  32.3660380   9.5280050 145.5743340  32.8157340   9.7722790 146.9991090
  47.6478080  10.7059560 147.5995320  47.8230270  10.0197300 146.9556240
  46.9499650  11.2306610 147.2071990  35.4905730  11.0954400 145.1530630
  36.2224550  10.8113680 144.6054520  35.7499400  10.8567680 146.0430010
  34.6520520   7.2119130 145.1576960  34.0229400   7.6804230 145.7062790
  34.7668350   6.3668350 145.5923150  40.2388280   3.0403810 133.1887430
  39.4630380   2.5604250 133.4786000  40.8901210   2.3609460 133.0143590
  34.2554110   3.3523620 134.0663190  33.4238990   3.0972330 134.4659700
  34.8635090   3.4234390 134.8021110  44.2595710   7.4464000 131.9686560
  43.7977240   6.6751240 132.2973730  45.0721260   7.4730070 132.4739010
  34.2355370   7.3863710 134.2621210  34.5383410   6.4961450 134.0831430
  34.9798960   7.9433930 134.0343460  40.4859020   9.7322010 131.5890550
  39.8670460  10.1879510 131.0184990  41.3410800   9.8873470 131.1880250
  39.6797270   5.7161000 133.1957590  39.6105550   4.7750940 133.0346720
  40.4417130   5.8062410 133.7680160  41.3522370   4.6161250 128.9822460
  40.7339640   5.0810700 128.4185180  41.8645620   5.3088730 129.3991970
  36.2154130   4.1437120 135.6606060  35.8823510   4.7706040 136.3027130
  36.3920810   4.6699000 134.8807730  35.4273230   6.1117920 137.4755240
  36.0447230   6.7869000 137.1939690  34.5666350   6.5205900 137.3842740
  30.7205570   5.3017780 126.3562090  30.3433550   5.7904880 125.6246990
  30.9778640   5.9743060 126.9868620  46.3450820   7.5757330 135.3909880
  45.6614340   8.2456440 135.3826550  46.8845110   7.7737980 134.6254740
  43.8809560   9.4201460 134.1055060  43.8936720   9.0163750 133.2377320
  43.3284780  10.1948750 134.0016490  45.1754980   6.1417680 129.1945230
  45.0651310   5.1992010 129.3194650  45.1723230   6.5033320 130.0807990
  43.2795000   4.3231300 135.4337670  43.6963790   4.1091410 134.5991130
  44.0034820   4.5804090 136.0046290  40.7175260   1.7683000 128.5507720
  39.7904540   1.7020380 128.7796190  40.8700080   2.7063130 128.4362960
  47.2257100   2.7218520 135.5253910  46.3975730   2.7911610 135.0504040
  47.8207580   3.3072830 135.0569740  44.7472550   3.3303300 129.0542970
  44.1284970   2.9922850 128.4069270  44.7297000   2.6863060 129.7622160
  36.7913600   5.9815300 133.4966660  36.4941890   5.3760770 132.8174440
  37.7413420   6.0192610 133.3856020  44.8799210   9.5547170 137.1589760
  44.4029770  10.3619360 136.9662370  44.1961000   8.9025500 137.3115970
  35.8832030   5.7196990 140.1474460  34.9860560   5.9436960 140.3947860
  35.9084900   5.8431930 139.1985860  42.9237250   2.5690110 126.0615720
  43.3630530   1.7312540 125.9153540  43.6365670   3.2019510 126.1479860
  34.7103250   2.5910310 138.7231830  34.5711020   3.4633110 139.0919230
  33.8284610   2.2483120 138.5779770  41.0332630   7.5086180 130.0296960
  41.4728540   8.2510510 129.6152350  40.9719520   7.7512750 130.9535920
  36.5083600   8.5332010 140.9316980  36.4799030   8.9374960 140.0645410
  36.3448570   7.6042370 140.7688580  48.4598420   9.3159110 142.2281150
  48.9358140   9.7942000 142.9070230  49.0805580   9.2476600 141.5026650
  30.6621900   4.3607860 134.6402740  30.7402320   4.4956630 133.6958460
  31.2763580   3.6523750 134.8330860  31.9069530   6.0608050 131.0508920
  31.4997610   6.2022640 130.1962520  32.7982540   5.7768210 130.8480130
  47.8631670   6.5071960 139.3881160  47.9894730   6.2683840 138.4698340
  47.9053050   5.6756500 139.8603240  41.7248410  10.2099960 137.9575970
  42.2393080  10.1207970 138.7598400  40.8817490  10.5559660 138.2503880
  43.7002810  10.4955300 127.3859970  43.5403950  10.2058240 128.2841800
  43.5349520   9.7195430 126.8505200  36.1791190  10.2753830 129.1631590
  36.0033670   9.3589370 128.9499390  35.3246930  10.6341120 129.4029390
  43.4028940   8.0042860 125.9457970  42.7094100   8.0020150 125.2860250
  44.1451800   7.5802180 125.5152140  42.9678870   9.6305570 130.0206460
  43.4235820   8.8494950 130.3345080  43.3071390  10.3412390 130.5647640
  30.7181420   5.4022030 137.1797200  30.8812460   4.9327390 136.3616570
  31.1833870   4.8945590 137.8446040  32.2920400   4.7773460 139.3393010
  31.9075190   4.1367130 139.9375970  32.6032590   5.4809580 139.9087740
  34.7598700   4.8719630 127.7352690  33.9860960   4.3317250 127.5751410
  35.4893330   4.3526240 127.3970450  45.5186680   3.8684990 133.5279080
  46.2385800   4.3640280 133.1375190  45.3168500   3.1902880 132.8832950
  40.9005480   3.9394050 139.4148080  40.8342790   3.0189720 139.1605670
  40.2710620   4.0369490 140.1292720  34.8036100   4.5400010 131.3731500
  35.3214770   3.7368270 131.3188390  34.3520120   4.4779150 132.2148330
  39.6905600   5.8066290 126.6458800  40.0321300   6.5508520 126.1502120
  38.8618310   6.1197410 127.0083630  40.8322210   6.7614620 139.1651880
  40.8466750   5.8295580 138.9470790  40.1247310   6.8474380 139.8041650
  47.0433420   3.4021960 138.5120460  46.3181610   3.9950740 138.3149850
  47.5708880   3.3945500 137.7133830  46.9946530   7.7996700 128.1632620
  46.3522690   7.1452320 128.4376340  46.6077190   8.2051790 127.3873290
  42.5733010   5.1282130 132.0104310  42.9256830   4.5310260 131.3505680
  41.6895340   4.8026360 132.1812560  38.6596290   5.8879820 129.4174720
  39.3467420   6.4349030 129.7982310  37.8728710   6.4320550 129.4524330
  37.9623500   2.8925850 129.0300080  38.4186280   3.7031100 129.2560270
  37.6111710   2.5748990 129.8618570  40.2656110   8.4032190 136.2592380
  40.9098330   8.6091570 136.9365800  40.6285550   7.6420590 135.8063230
  41.5388190   6.4064540 134.9769830  42.1810420   5.7057700 135.0902000
  42.0637540   7.1862980 134.7966720  45.3843910   6.6913160 124.7008970
  45.1581490   5.9743600 125.2933610  44.9940110   6.4425600 123.8630720
  43.3125810   7.2059440 138.1805890  43.6482050   7.7926130 138.8583810
  42.3926150   7.0752150 138.4103680  31.1659940  10.7180020 125.4753430
  31.5257580  11.3169360 124.8210700  31.0252280  11.2639910 126.2488460
  44.9660160   4.6085100 126.3623130  44.6781860   5.0697790 127.1501010
  45.7612330   4.1482870 126.6307350  31.1501800   8.9834880 139.9495830
  31.2592920   8.0429620 139.8091220  30.4982360   9.2489630 139.3009560
  39.1414390   7.2550770 141.3493950  38.8211260   6.5360010 141.8939640
  38.4672750   7.9305840 141.4230010  37.1828560   8.1011220 126.2927100
  37.1738660   8.8340910 125.6771610  36.2626920   7.8542800 126.3854060
  32.7835200   3.3226110 127.0373860  32.1763150   4.0625010 127.0469160
  33.2584550   3.4125470 126.2112060  40.1688160   8.1639460 124.9552290
  40.2700140   7.9603450 124.0254270  39.2689900   7.9097740 125.1600070
  38.8106270  10.6825780 129.6499960  39.0647770  10.6447170 128.7279330
  37.8618750  10.5559110 129.6428210  34.7940490   3.2837260 124.7862430
  35.5603760   3.1718620 125.3487860  34.8715180   2.5875230 124.1339200
  46.8184430   8.7726510 132.9012730  46.9431850   9.5957680 133.3736540
  47.6849990   8.5617240 132.5536880  34.2901960  10.8657720 132.5729860
  35.0264440  10.3173180 132.8438430  34.6742880  11.7313730 132.4335850
  31.1747440   6.9331290 128.4471370  30.2487220   7.1752430 128.4376780
  31.6403870   7.7605550 128.3256120  33.2960240  10.0503790 141.7615440
  34.0972970  10.3715840 142.1750840  32.7812060   9.6899370 142.4835350
  37.4004270  10.0388030 124.3955430  38.1932880  10.3276860 123.9437220
  36.8808620   9.6080200 123.7167910  42.1324870   6.1583660 141.7090850
  41.5263030   6.1815260 140.9686600  41.8278980   5.4266700 142.2458100
  43.5625240   9.8863950 140.3200260  44.5146990   9.8021970 140.2700500
  43.4153460  10.5505660 140.9934050  46.4534440   9.2658160 125.8192170
  46.1675950   8.8523300 125.0046350  46.2553990  10.1945870 125.6992690
  31.0158050   2.5377250 140.7051490  31.5197070   1.9584530 141.2767720
  30.2765470   2.8217480 141.2427860  37.9181670   5.2591440 124.2597780
  37.8132310   4.6443790 124.9859160  37.7505890   4.7357330 123.4760790
  38.0695990   3.9448240 140.2387010  37.3041660   4.5133240 140.1541680
  38.2511950   3.6524450 139.3455240  41.1584400   4.3211470 124.8639770
  40.6094500   4.7680770 125.5082510  41.7803660   3.8160720 125.3877440
  45.2119340   5.6753570 140.7962030  45.9528810   6.0129330 140.2929490
  44.4492020   5.8445630 140.2431800  36.8259520   3.2802390 126.7605070
  37.2475940   3.1142260 127.6036460  36.9510360   2.4702620 126.2660210
  43.8865000   3.7268400 139.3317240  44.3006020   3.8813480 140.1807660
  42.9516000   3.8523620 139.4943020  38.6480230   3.6788880 137.3013170
  39.0668340   4.5221610 137.1289410  37.7288860   3.8160920 137.0719950
  43.3232030   1.9642250 137.2613520  42.7967250   2.4884870 136.6578660
  43.6663370   2.5969640 137.8923250  36.4987650   9.9841890 138.4170900
  35.9608740  10.7087950 138.0979600  36.7521610   9.5072230 137.6268240
  39.3549860  11.2193100 138.6757550  39.2808560  12.1228240 138.9829920
  38.4528700  10.9005000 138.6479620  39.9035190  10.3851610 126.2983910
  40.7985980  10.7236580 126.3202670  39.9352820   9.6631020 125.6708190
  33.5431350   5.7578660 124.5270910  33.9806220   6.3008330 125.1828490
  34.0279080   4.9325610 124.5367250  30.7577150   8.5467690 131.9791170
  31.0880160   7.6788750 131.7469810  31.1868150   8.7526210 132.8096130
  35.3539070   6.8776700 129.6393140  35.0534610   6.7541670 130.5397050
  35.2476560   6.0185290 129.2308870  31.2467360   9.4138280 134.7172800
  30.8098350   9.5939080 135.5496950  31.8145040  10.1712900 134.5754520
  46.8829540   8.9155280 139.0050110  46.2831530   8.9747840 138.2614030
  47.0123440   7.9760260 139.1346960  48.1230990   6.6573100 124.3419820
  47.2923950   6.7249750 124.8127050  48.3002820   7.5477220 124.0386680
  47.5787450   3.4020580 126.8454020  48.3406360   3.9717230 126.9513710
  47.5941820   2.8347780 127.6162330  31.0791790   1.9258510 131.0761680
  30.4240630   1.6570150 130.4321380  31.9169740   1.8162990 130.6263660
  48.5847420   4.2570680 131.6895950  48.9556250   3.4738000 131.2831920
  49.2249350   4.9459780 131.5113250  45.5681180   5.6407260 137.1026270
  44.7541020   6.0704420 137.3652060  45.9755380   6.2525670 136.4895320
  47.6306620   3.6954950 124.0026540  47.9055460   4.6033830 123.8745760
  47.4417360   3.6317480 124.9388530  45.6257230  10.3925860 130.6294540
  46.2216300  10.0710430 129.9528960  45.8835380   9.9197680 131.4207810
  33.5319800   6.8243770 140.7785170  33.4889430   6.4536680 141.6599630
  33.6630810   7.7621340 140.9186990  37.2325830   8.3803360 136.3794890
  36.9917190   8.6477920 135.4925410  38.1728470   8.5509090 136.4345750
  48.4929990  10.3997740 137.1805530  47.9988270  10.7966610 136.4632660
  47.8843280   9.7746950 137.5742810  33.3707830   9.7706020 137.8982950
  32.7768150   9.6390720 138.6372990  33.3631670   8.9344160 137.4325050
  46.1769440  11.0421160 134.4592270  45.7172410  11.7936970 134.0850290
  45.5481900  10.3227630 134.4007070  33.0020060   7.1364400 136.8490990
  32.2754120   6.5169690 136.7816940  33.0629210   7.5305010 135.9789070
  36.6065160   9.3509400 133.6340400  37.1230180   8.7396760 133.1088660
  37.2562540   9.8538180 134.1251410  39.3460660  10.2417890 134.4609380
  39.6338470   9.9872190 133.5842390  39.8583880   9.6895250 135.0514950
  31.2850060  10.4538790 130.0587750  31.1172100   9.8209470 130.7569640
  30.4184570  10.6598190 129.7081940  32.8912760   9.1472020 127.5037890
  32.3660380   9.5280050 126.7999850  32.8157340   9.7722790 128.2247600
  39.4133020  11.1633990 141.8277580  40.3400330  10.9278260 141.8713540
  39.3983450  11.9905990 141.3463610  47.6478080  10.7059560 128.8251830
  47.8230270  10.0197300 128.1812750  46.9499650  11.2306610 128.4328500
  35.4905730  11.0954400 126.3787140  36.2224550  10.8113680 125.8311030
  35.7499400  10.8567680 127.2686520  34.6520520   7.2119130 126.3833470
  34.0229400   7.6804230 126.9319300  34.7668350   6.3668350 126.8179660
  45.9810580  10.3903850 141.6518620  46.7735900   9.8953080 141.4444580
  46.2743730  11.0693990 142.2594230  40.2388280   3.0403810 114.4143940
  39.4630380   2.5604250 114.7042510  40.8901210   2.3609460 114.2400100
  34.2554110   3.3523620 115.2919700  33.4238990   3.0972330 115.6916210
  34.8635090   3.4234390 116.0277620  44.2595710   7.4464000 113.1943070
  43.7977240   6.6751240 113.5230240  45.0721260   7.4730070 113.6995520
  34.2355370   7.3863710 115.4877720  34.5383410   6.4961450 115.3087940
  34.9798960   7.9433930 115.2599970  40.4859020   9.7322010 112.8147060
  39.8670460  10.1879510 112.2441500  41.3410800   9.8873470 112.4136760
  39.6797270   5.7161000 114.4214100  39.6105550   4.7750940 114.2603230
  40.4417130   5.8062410 114.9936670  41.3522370   4.6161250 110.2078970
  40.7339640   5.0810700 109.6441690  41.8645620   5.3088730 110.6248480
  36.2154130   4.1437120 116.8862570  35.8823510   4.7706040 117.5283640
  36.3920810   4.6699000 116.1064240  35.4273230   6.1117920 118.7011750
  36.0447230   6.7869000 118.4196200  34.5666350   6.5205900 118.6099250
  30.7205570   5.3017780 107.5818600  30.3433550   5.7904880 106.8503500
  30.9778640   5.9743060 108.2125130  46.3450820   7.5757330 116.6166390
  45.6614340   8.2456440 116.6083060  46.8845110   7.7737980 115.8511250
  43.8809560   9.4201460 115.3311570  43.8936720   9.0163750 114.4633830
  43.3284780  10.1948750 115.2273000  45.1754980   6.1417680 110.4201740
  45.0651310   5.1992010 110.5451160  45.1723230   6.5033320 111.3064500
  43.2795000   4.3231300 116.6594180  43.6963790   4.1091410 115.8247640
  44.0034820   4.5804090 117.2302800  40.7175260   1.7683000 109.7764230
  39.7904540   1.7020380 110.0052700  40.8700080   2.7063130 109.6619470
  47.2257100   2.7218520 116.7510420  46.3975730   2.7911610 116.2760550
  47.8207580   3.3072830 116.2826250  44.7472550   3.3303300 110.2799480
  44.1284970   2.9922850 109.6325780  44.7297000   2.6863060 110.9878670
  36.7913600   5.9815300 114.7223170  36.4941890   5.3760770 114.0430950
  37.7413420   6.0192610 114.6112530  44.8799210   9.5547170 118.3846270
  44.4029770  10.3619360 118.1918880  44.1961000   8.9025500 118.5372480
  35.8832030   5.7196990 121.3730970  34.9860560   5.9436960 121.6204370
  35.9084900   5.8431930 120.4242370  42.9237250   2.5690110 107.2872230
  43.3630530   1.7312540 107.1410050  43.6365670   3.2019510 107.3736370
  34.7103250   2.5910310 119.9488340  34.5711020   3.4633110 120.3175740
  33.8284610   2.2483120 119.8036280  41.0332630   7.5086180 111.2553470
  41.4728540   8.2510510 110.8408860  40.9719520   7.7512750 112.1792430
  36.5083600   8.5332010 122.1573490  36.4799030   8.9374960 121.2901920
  36.3448570   7.6042370 121.9945090  48.4598420   9.3159110 123.4537660
  48.9358140   9.7942000 124.1326740  49.0805580   9.2476600 122.7283160
  30.6621900   4.3607860 115.8659250  30.7402320   4.4956630 114.9214970
  31.2763580   3.6523750 116.0587370  31.9069530   6.0608050 112.2765430
  31.4997610   6.2022640 111.4219030  32.7982540   5.7768210 112.0736640
  47.8631670   6.5071960 120.6137670  47.9894730   6.2683840 119.6954850
  47.9053050   5.6756500 121.0859750  41.7248410  10.2099960 119.1832480
  42.2393080  10.1207970 119.9854910  40.8817490  10.5559660 119.4760390
  43.7002810  10.4955300 108.6116480  43.5403950  10.2058240 109.5098310
  43.5349520   9.7195430 108.0761710  36.1791190  10.2753830 110.3888100
  36.0033670   9.3589370 110.1755900  35.3246930  10.6341120 110.6285900
  43.4028940   8.0042860 107.1714480  42.7094100   8.0020150 106.5116760
  44.1451800   7.5802180 106.7408650  42.9678870   9.6305570 111.2462970
  43.4235820   8.8494950 111.5601590  43.3071390  10.3412390 111.7904150
  30.7181420   5.4022030 118.4053710  30.8812460   4.9327390 117.5873080
  31.1833870   4.8945590 119.0702550  32.2920400   4.7773460 120.5649520
  31.9075190   4.1367130 121.1632480  32.6032590   5.4809580 121.1344250
  34.7598700   4.8719630 108.9609200  33.9860960   4.3317250 108.8007920
  35.4893330   4.3526240 108.6226960  45.5186680   3.8684990 114.7535590
  46.2385800   4.3640280 114.3631700  45.3168500   3.1902880 114.1089460
  40.9005480   3.9394050 120.6404590  40.8342790   3.0189720 120.3862180
  40.2710620   4.0369490 121.3549230  34.8036100   4.5400010 112.5988010
  35.3214770   3.7368270 112.5444900  34.3520120   4.4779150 113.4404840
  39.6905600   5.8066290 107.8715310  40.0321300   6.5508520 107.3758630
  38.8618310   6.1197410 108.2340140  40.8322210   6.7614620 120.3908390
  40.8466750   5.8295580 120.1727300  40.1247310   6.8474380 121.0298160
  47.0433420   3.4021960 119.7376970  46.3181610   3.9950740 119.5406360
  47.5708880   3.3945500 118.9390340  46.9946530   7.7996700 109.3889130
  46.3522690   7.1452320 109.6632850  46.6077190   8.2051790 108.6129800
  42.5733010   5.1282130 113.2360820  42.9256830   4.5310260 112.5762190
  41.6895340   4.8026360 113.4069070  38.6596290   5.8879820 110.6431230
  39.3467420   6.4349030 111.0238820  37.8728710   6.4320550 110.6780840
  37.9623500   2.8925850 110.2556590  38.4186280   3.7031100 110.4816780
  37.6111710   2.5748990 111.0875080  40.2656110   8.4032190 117.4848890
  40.9098330   8.6091570 118.1622310  40.6285550   7.6420590 117.0319740
  41.5388190   6.4064540 116.2026340  42.1810420   5.7057700 116.3158510
  42.0637540   7.1862980 116.0223230  45.3843910   6.6913160 105.9265480
  45.1581490   5.9743600 106.5190120  44.9940110   6.4425600 105.0887230
  43.3125810   7.2059440 119.4062400  43.6482050   7.7926130 120.0840320
  42.3926150   7.0752150 119.6360190  31.1659940  10.7180020 106.7009940
  31.5257580  11.3169360 106.0467210  31.0252280  11.2639910 107.4744970
  44.9660160   4.6085100 107.5879640  44.6781860   5.0697790 108.3757520
  45.7612330   4.1482870 107.8563860  31.1501800   8.9834880 121.1752340
  31.2592920   8.0429620 121.0347730  30.4982360   9.2489630 120.5266070
  39.1414390   7.2550770 122.5750460  38.8211260   6.5360010 123.1196150
  38.4672750   7.9305840 122.6486520  37.1828560   8.1011220 107.5183610
  37.1738660   8.8340910 106.9028120  36.2626920   7.8542800 107.6110570
  32.7835200   3.3226110 108.2630370  32.1763150   4.0625010 108.2725670
  33.2584550   3.4125470 107.4368570  40.1688160   8.1639460 106.1808800
  40.2700140   7.9603450 105.2510780  39.2689900   7.9097740 106.3856580
  38.8106270  10.6825780 110.8756470  39.0647770  10.6447170 109.9535840
  37.8618750  10.5559110 110.8684720  34.7940490   3.2837260 106.0118940
  35.5603760   3.1718620 106.5744370  34.8715180   2.5875230 105.3595710
  46.8184430   8.7726510 114.1269240  46.9431850   9.5957680 114.5993050
  47.6849990   8.5617240 113.7793390  34.2901960  10.8657720 113.7986370
  35.0264440  10.3173180 114.0694940  34.6742880  11.7313730 113.6592360
  31.1747440   6.9331290 109.6727880  30.2487220   7.1752430 109.6633290
  31.6403870   7.7605550 109.5512630  33.2960240  10.0503790 122.9871950
  34.0972970  10.3715840 123.4007350  32.7812060   9.6899370 123.7091860
  37.4004270  10.0388030 105.6211940  38.1932880  10.3276860 105.1693730
  36.8808620   9.6080200 104.9424420  42.1324870   6.1583660 122.9347360
  41.5263030   6.1815260 122.1943110  41.8278980   5.4266700 123.4714610
  43.5625240   9.8863950 121.5456770  44.5146990   9.8021970 121.4957010
  43.4153460  10.5505660 122.2190560  46.4534440   9.2658160 107.0448680
  46.1675950   8.8523300 106.2302860  46.2553990  10.1945870 106.9249200
  31.0158050   2.5377250 121.9308000  31.5197070   1.9584530 122.5024230
  30.2765470   2.8217480 122.4684370  37.9181670   5.2591440 105.4854290
  37.8132310   4.6443790 106.2115670  37.7505890   4.7357330 104.7017300
  38.0695990   3.9448240 121.4643520  37.3041660   4.5133240 121.3798190
  38.2511950   3.6524450 120.5711750  41.1584400   4.3211470 106.0896280
  40.6094500   4.7680770 106.7339020  41.7803660   3.8160720 106.6133950
  45.2119340   5.6753570 122.0218540  45.9528810   6.0129330 121.5186000
  44.4492020   5.8445630 121.4688310  36.8259520   3.2802390 107.9861580
  37.2475940   3.1142260 108.8292970  36.9510360   2.4702620 107.4916720
  43.8865000   3.7268400 120.5573750  44.3006020   3.8813480 121.4064170
  42.9516000   3.8523620 120.7199530  38.6480230   3.6788880 118.5269680
  39.0668340   4.5221610 118.3545920  37.7288860   3.8160920 118.2976460
  43.3232030   1.9642250 118.4870030  42.7967250   2.4884870 117.8835170
  43.6663370   2.5969640 119.1179760  36.4987650   9.9841890 119.6427410
  35.9608740  10.7087950 119.3236110  36.7521610   9.5072230 118.8524750
  39.3549860  11.2193100 119.9014060  39.2808560  12.1228240 120.2086430
  38.4528700  10.9005000 119.8736130  39.9035190  10.3851610 107.5240420
  40.7985980  10.7236580 107.5459180  39.9352820   9.6631020 106.8964700
  33.5431350   5.7578660 105.7527420  33.9806220   6.3008330 106.4085000
  34.0279080   4.9325610 105.7623760  30.7577150   8.5467690 113.2047680
  31.0880160   7.6788750 112.9726320  31.1868150   8.7526210 114.0352640
  35.3539070   6.8776700 110.8649650  35.0534610   6.7541670 111.7653560
  35.2476560   6.0185290 110.4565380  31.2467360   9.4138280 115.9429310
  30.8098350   9.5939080 116.7753460  31.8145040  10.1712900 115.8011030
  46.8829540   8.9155280 120.2306620  46.2831530   8.9747840 119.4870540
  47.0123440   7.9760260 120.3603470  48.1230990   6.6573100 105.5676330
  47.2923950   6.7249750 106.0383560  48.3002820   7.5477220 105.2643190
  47.5787450   3.4020580 108.0710530  48.3406360   3.9717230 108.1770220
  47.5941820   2.8347780 108.8418840  31.0791790   1.9258510 112.3018190
  30.4240630   1.6570150 111.6577890  31.9169740   1.8162990 111.8520170
  48.5847420   4.2570680 112.9152460  48.9556250   3.4738000 112.5088430
  49.2249350   4.9459780 112.7369760  45.5681180   5.6407260 118.3282780
  44.7541020   6.0704420 118.5908570  45.9755380   6.2525670 117.7151830
  47.6306620   3.6954950 105.2283050  47.9055460   4.6033830 105.1002270
  47.4417360   3.6317480 106.1645040  45.6257230  10.3925860 111.8551050
  46.2216300  10.0710430 111.1785470  45.8835380   9.9197680 112.6464320
  33.5319800   6.8243770 122.0041680  33.4889430   6.4536680 122.8856140
  33.6630810   7.7621340 122.1443500  37.2325830   8.3803360 117.6051400
  36.9917190   8.6477920 116.7181920  38.1728470   8.5509090 117.6602260
  48.4929990  10.3997740 118.4062040  47.9988270  10.7966610 117.6889170
  47.8843280   9.7746950 118.7999320  33.3707830   9.7706020 119.1239460
  32.7768150   9.6390720 119.8629500  33.3631670   8.9344160 118.6581560
  46.1769440  11.0421160 115.6848780  45.7172410  11.7936970 115.3106800
  45.5481900  10.3227630 115.6263580  33.0020060   7.1364400 118.0747500
  32.2754120   6.5169690 118.0073450  33.0629210   7.5305010 117.2045580
  36.6065160   9.3509400 114.8596910  37.1230180   8.7396760 114.3345170
  37.2562540   9.8538180 115.3507920  39.3460660  10.2417890 115.6865890
  39.6338470   9.9872190 114.8098900  39.8583880   9.6895250 116.2771460
  31.2850060  10.4538790 111.2844260  31.1172100   9.8209470 111.9826150
  30.4184570  10.6598190 110.9338450  32.8912760   9.1472020 108.7294400
  32.3660380   9.5280050 108.0256360  32.8157340   9.7722790 109.4504110
  39.4133020  11.1633990 123.0534090  40.3400330  10.9278260 123.0970050
  39.3983450  11.9905990 122.5720120  47.6478080  10.7059560 110.0508340
  47.8230270  10.0197300 109.4069260  46.9499650  11.2306610 109.6585010
  35.4905730  11.0954400 107.6043650  36.2224550  10.8113680 107.0567540
  35.7499400  10.8567680 108.4943030  34.6520520   7.2119130 107.6089980
  34.0229400   7.6804230 108.1575810  34.7668350   6.3668350 108.0436170
  45.9810580  10.3903850 122.8775130  46.7735900   9.8953080 122.6701090
  46.2743730  11.0693990 123.4850740  40.2388280   3.0403810  95.6400450
  39.4630380   2.5604250  95.9299020  40.8901210   2.3609460  95.4656610
  34.2554110   3.3523620  96.5176210  33.4238990   3.0972330  96.9172720
  34.8635090   3.4234390  97.2534130  44.2595710   7.4464000  94.4199580
  43.7977240   6.6751240  94.7486750  45.0721260   7.4730070  94.9252030
  34.2355370   7.3863710  96.7134230  34.5383410   6.4961450  96.5344450
  34.9798960   7.9433930  96.4856480  40.4859020   9.7322010  94.0403570
  39.8670460  10.1879510  93.4698010  41.3410800   9.8873470  93.6393270
  39.6797270   5.7161000  95.6470610  39.6105550   4.7750940  95.4859740
  40.4417130   5.8062410  96.2193180  41.3522370   4.6161250  91.4335480
  40.7339640   5.0810700  90.8698200  41.8645620   5.3088730  91.8504990
  36.2154130   4.1437120  98.1119080  35.8823510   4.7706040  98.7540150
  36.3920810   4.6699000  97.3320750  35.4273230   6.1117920  99.9268260
  36.0447230   6.7869000  99.6452710  34.5666350   6.5205900  99.8355760
  30.7205570   5.3017780  88.8075110  30.3433550   5.7904880  88.0760010
  30.9778640   5.9743060  89.4381640  46.3450820   7.5757330  97.8422900
  45.6614340   8.2456440  97.8339570  46.8845110   7.7737980  97.0767760
  43.8809560   9.4201460  96.5568080  43.8936720   9.0163750  95.6890340
  43.3284780  10.1948750  96.4529510  45.1754980   6.1417680  91.6458250
  45.0651310   5.1992010  91.7707670  45.1723230   6.5033320  92.5321010
  43.2795000   4.3231300  97.8850690  43.6963790   4.1091410  97.0504150
  44.0034820   4.5804090  98.4559310  40.7175260   1.7683000  91.0020740
  39.7904540   1.7020380  91.2309210  40.8700080   2.7063130  90.8875980
  47.2257100   2.7218520  97.9766930  46.3975730   2.7911610  97.5017060
  47.8207580   3.3072830  97.5082760  44.7472550   3.3303300  91.5055990
  44.1284970   2.9922850  90.8582290  44.7297000   2.6863060  92.2135180
  36.7913600   5.9815300  95.9479680  36.4941890   5.3760770  95.2687460
  37.7413420   6.0192610  95.8369040  44.8799210   9.5547170  99.6102780
  44.4029770  10.3619360  99.4175390  44.1961000   8.9025500  99.7628990
  35.8832030   5.7196990 102.5987480  34.9860560   5.9436960 102.8460880
  35.9084900   5.8431930 101.6498880  42.9237250   2.5690110  88.5128740
  43.3630530   1.7312540  88.3666560  43.6365670   3.2019510  88.5992880
  34.7103250   2.5910310 101.1744850  34.5711020   3.4633110 101.5432250
  33.8284610   2.2483120 101.0292790  41.0332630   7.5086180  92.4809980
  41.4728540   8.2510510  92.0665370  40.9719520   7.7512750  93.4048940
  36.5083600   8.5332010 103.3830000  36.4799030   8.9374960 102.5158430
  36.3448570   7.6042370 103.2201600  48.4598420   9.3159110 104.6794170
  48.9358140   9.7942000 105.3583250  49.0805580   9.2476600 103.9539670
  30.6621900   4.3607860  97.0915760  30.7402320   4.4956630  96.1471480
  31.2763580   3.6523750  97.2843880  31.9069530   6.0608050  93.5021940
  31.4997610   6.2022640  92.6475540  32.7982540   5.7768210  93.2993150
  47.8631670   6.5071960 101.8394180  47.9894730   6.2683840 100.9211360
  47.9053050   5.6756500 102.3116260  41.7248410  10.2099960 100.4088990
  42.2393080  10.1207970 101.2111420  40.8817490  10.5559660 100.7016900
  43.7002810  10.4955300  89.8372990  43.5403950  10.2058240  90.7354820
  43.5349520   9.7195430  89.3018220  36.1791190  10.2753830  91.6144610
  36.0033670   9.3589370  91.4012410  35.3246930  10.6341120  91.8542410
  43.4028940   8.0042860  88.3970990  42.7094100   8.0020150  87.7373270
  44.1451800   7.5802180  87.9665160  42.9678870   9.6305570  92.4719480
  43.4235820   8.8494950  92.7858100  43.3071390  10.3412390  93.0160660
  30.7181420   5.4022030  99.6310220  30.8812460   4.9327390  98.8129590
  31.1833870   4.8945590 100.2959060  32.2920400   4.7773460 101.7906030
  31.9075190   4.1367130 102.3888990  32.6032590   5.4809580 102.3600760
  34.7598700   4.8719630  90.1865710  33.9860960   4.3317250  90.0264430
  35.4893330   4.3526240  89.8483470  45.5186680   3.8684990  95.9792100
  46.2385800   4.3640280  95.5888210  45.3168500   3.1902880  95.3345970
  40.9005480   3.9394050 101.8661100  40.8342790   3.0189720 101.6118690
  40.2710620   4.0369490 102.5805740  34.8036100   4.5400010  93.8244520
  35.3214770   3.7368270  93.7701410  34.3520120   4.4779150  94.6661350
  39.6905600   5.8066290  89.0971820  40.0321300   6.5508520  88.6015140
  38.8618310   6.1197410  89.4596650  40.8322210   6.7614620 101.6164900
  40.8466750   5.8295580 101.3983810  40.1247310   6.8474380 102.2554670
  47.0433420   3.4021960 100.9633480  46.3181610   3.9950740 100.7662870
  47.5708880   3.3945500 100.1646850  46.9946530   7.7996700  90.6145640
  46.3522690   7.1452320  90.8889360  46.6077190   8.2051790  89.8386310
  42.5733010   5.1282130  94.4617330  42.9256830   4.5310260  93.8018700
  41.6895340   4.8026360  94.6325580  38.6596290   5.8879820  91.8687740
  39.3467420   6.4349030  92.2495330  37.8728710   6.4320550  91.9037350
  37.9623500   2.8925850  91.4813100  38.4186280   3.7031100  91.7073290
  37.6111710   2.5748990  92.3131590  40.2656110   8.4032190  98.7105400
  40.9098330   8.6091570  99.3878820  40.6285550   7.6420590  98.2576250
  41.5388190   6.4064540  97.4282850  42.1810420   5.7057700  97.5415020
  42.0637540   7.1862980  97.2479740  45.3843910   6.6913160  87.1521990
  45.1581490   5.9743600  87.7446630  44.9940110   6.4425600  86.3143740
  43.3125810   7.2059440 100.6318910  43.6482050   7.7926130 101.3096830
  42.3926150   7.0752150 100.8616700  31.1659940  10.7180020  87.9266450
  31.5257580  11.3169360  87.2723720  31.0252280  11.2639910  88.7001480
  44.9660160   4.6085100  88.8136150  44.6781860   5.0697790  89.6014030
  45.7612330   4.1482870  89.0820370  31.1501800   8.9834880 102.4008850
  31.2592920   8.0429620 102.2604240  30.4982360   9.2489630 101.7522580
  39.1414390   7.2550770 103.8006970  38.8211260   6.5360010 104.3452660
  38.4672750   7.9305840 103.8743030  37.1828560   8.1011220  88.7440120
  37.1738660   8.8340910  88.1284630  36.2626920   7.8542800  88.8367080
  32.7835200   3.3226110  89.4886880  32.1763150   4.0625010  89.4982180
  33.2584550   3.4125470  88.6625080  40.1688160   8.1639460  87.4065310
  40.2700140   7.9603450  86.4767290  39.2689900   7.9097740  87.6113090
  38.8106270  10.6825780  92.1012980  39.0647770  10.6447170  91.1792350
  37.8618750  10.5559110  92.0941230  34.7940490   3.2837260  87.2375450
  35.5603760   3.1718620  87.8000880  34.8715180   2.5875230  86.5852220
  46.8184430   8.7726510  95.3525750  46.9431850   9.5957680  95.8249560
  47.6849990   8.5617240  95.0049900  34.2901960  10.8657720  95.0242880
  35.0264440  10.3173180  95.2951450  34.6742880  11.7313730  94.8848870
  31.1747440   6.9331290  90.8984390  30.2487220   7.1752430  90.8889800
  31.6403870   7.7605550  90.7769140  33.2960240  10.0503790 104.2128460
  34.0972970  10.3715840 104.6263860  32.7812060   9.6899370 104.9348370
  37.4004270  10.0388030  86.8468450  38.1932880  10.3276860  86.3950240
  36.8808620   9.6080200  86.1680930  42.1324870   6.1583660 104.1603870
  41.5263030   6.1815260 103.4199620  41.8278980   5.4266700 104.6971120
  43.5625240   9.8863950 102.7713280  44.5146990   9.8021970 102.7213520
  43.4153460  10.5505660 103.4447070  46.4534440   9.2658160  88.2705190
  46.1675950   8.8523300  87.4559370  46.2553990  10.1945870  88.1505710
  31.0158050   2.5377250 103.1564510  31.5197070   1.9584530 103.7280740
  30.2765470   2.8217480 103.6940880  37.9181670   5.2591440  86.7110800
  37.8132310   4.6443790  87.4372180  37.7505890   4.7357330  85.9273810
  38.0695990   3.9448240 102.6900030  37.3041660   4.5133240 102.6054700
  38.2511950   3.6524450 101.7968260  41.1584400   4.3211470  87.3152790
  40.6094500   4.7680770  87.9595530  41.7803660   3.8160720  87.8390460
  45.2119340   5.6753570 103.2475050  45.9528810   6.0129330 102.7442510
  44.4492020   5.8445630 102.6944820  36.8259520   3.2802390  89.2118090
  37.2475940   3.1142260  90.0549480  36.9510360   2.4702620  88.7173230
  43.8865000   3.7268400 101.7830260  44.3006020   3.8813480 102.6320680
  42.9516000   3.8523620 101.9456040  38.6480230   3.6788880  99.7526190
  39.0668340   4.5221610  99.5802430  37.7288860   3.8160920  99.5232970
  43.3232030   1.9642250  99.7126540  42.7967250   2.4884870  99.1091680
  43.6663370   2.5969640 100.3436270  36.4987650   9.9841890 100.8683920
  35.9608740  10.7087950 100.5492620  36.7521610   9.5072230 100.0781260
  39.3549860  11.2193100 101.1270570  39.2808560  12.1228240 101.4342940
  38.4528700  10.9005000 101.0992640  39.9035190  10.3851610  88.7496930
  40.7985980  10.7236580  88.7715690  39.9352820   9.6631020  88.1221210
  33.5431350   5.7578660  86.9783930  33.9806220   6.3008330  87.6341510
  34.0279080   4.9325610  86.9880270  30.7577150   8.5467690  94.4304190
  31.0880160   7.6788750  94.1982830  31.1868150   8.7526210  95.2609150
  35.3539070   6.8776700  92.0906160  35.0534610   6.7541670  92.9910070
  35.2476560   6.0185290  91.6821890  31.2467360   9.4138280  97.1685820
  30.8098350   9.5939080  98.0009970  31.8145040  10.1712900  97.0267540
  46.8829540   8.9155280 101.4563130  46.2831530   8.9747840 100.7127050
  47.0123440   7.9760260 101.5859980  48.1230990   6.6573100  86.7932840
  47.2923950   6.7249750  87.2640070  48.3002820   7.5477220  86.4899700
  47.5787450   3.4020580  89.2967040  48.3406360   3.9717230  89.4026730
  47.5941820   2.8347780  90.0675350  31.0791790   1.9258510  93.5274700
  30.4240630   1.6570150  92.8834400  31.9169740   1.8162990  93.0776680
  48.5847420   4.2570680  94.1408970  48.9556250   3.4738000  93.7344940
  49.2249350   4.9459780  93.9626270  45.5681180   5.6407260  99.5539290
  44.7541020   6.0704420  99.8165080  45.9755380   6.2525670  98.9408340
  47.6306620   3.6954950  86.4539560  47.9055460   4.6033830  86.3258780
  47.4417360   3.6317480  87.3901550  45.6257230  10.3925860  93.0807560
  46.2216300  10.0710430  92.4041980  45.8835380   9.9197680  93.8720830
  33.5319800   6.8243770 103.2298190  33.4889430   6.4536680 104.1112650
  33.6630810   7.7621340 103.3700010  37.2325830   8.3803360  98.8307910
  36.9917190   8.6477920  97.9438430  38.1728470   8.5509090  98.8858770
  48.4929990  10.3997740  99.6318550  47.9988270  10.7966610  98.9145680
  47.8843280   9.7746950 100.0255830  33.3707830   9.7706020 100.3495970
  32.7768150   9.6390720 101.0886010  33.3631670   8.9344160  99.8838070
  46.1769440  11.0421160  96.9105290  45.7172410  11.7936970  96.5363310
  45.5481900  10.3227630  96.8520090  33.0020060   7.1364400  99.3004010
  32.2754120   6.5169690  99.2329960  33.0629210   7.5305010  98.4302090
  36.6065160   9.3509400  96.0853420  37.1230180   8.7396760  95.5601680
  37.2562540   9.8538180  96.5764430  39.3460660  10.2417890  96.9122400
  39.6338470   9.9872190  96.0355410  39.8583880   9.6895250  97.5027970
  31.2850060  10.4538790  92.5100770  31.1172100   9.8209470  93.2082660
  30.4184570  10.6598190  92.1594960  32.8912760   9.1472020  89.9550910
  32.3660380   9.5280050  89.2512870  32.8157340   9.7722790  90.6760620
  39.4133020  11.1633990 104.2790600  40.3400330  10.9278260 104.3226560
  39.3983450  11.9905990 103.7976630  47.6478080  10.7059560  91.2764850
  47.8230270  10.0197300  90.6325770  46.9499650  11.2306610  90.8841520
  35.4905730  11.0954400  88.8300160  36.2224550  10.8113680  88.2824050
  35.7499400  10.8567680  89.7199540  34.6520520   7.2119130  88.8346490
  34.0229400   7.6804230  89.3832320  34.7668350   6.3668350  89.2692680
  45.9810580  10.3903850 104.1031640  46.7735900   9.8953080 103.8957600
  46.2743730  11.0693990 104.7107250  40.2388280   3.0403810  76.8656960
  39.4630380   2.5604250  77.1555530  40.8901210   2.3609460  76.6913120
  34.2554110   3.3523620  77.7432720  33.4238990   3.0972330  78.1429230
  34.8635090   3.4234390  78.4790640  44.2595710   7.4464000  75.6456090
  43.7977240   6.6751240  75.9743260  45.0721260   7.4730070  76.1508540
  34.2355370   7.3863710  77.9390740  34.5383410   6.4961450  77.7600960
  34.9798960   7.9433930  77.7112990  40.4859020   9.7322010  75.2660080
  39.8670460  10.1879510  74.6954520  41.3410800   9.8873470  74.8649780
  39.6797270   5.7161000  76.8727120  39.6105550   4.7750940  76.7116250
  40.4417130   5.8062410  77.4449690  41.3522370   4.6161250  72.6591990
  40.7339640   5.0810700  72.0954710  41.8645620   5.3088730  73.0761500
  36.2154130   4.1437120  79.3375590  35.8823510   4.7706040  79.9796660
  36.3920810   4.6699000  78.5577260  35.4273230   6.1117920  81.1524770
  36.0447230   6.7869000  80.8709220  34.5666350   6.5205900  81.0612270
  30.7205570   5.3017780  70.0331620  30.3433550   5.7904880  69.3016520
  30.9778640   5.9743060  70.6638150  46.3450820   7.5757330  79.0679410
  45.6614340   8.2456440  79.0596080  46.8845110   7.7737980  78.3024270
  43.8809560   9.4201460  77.7824590  43.8936720   9.0163750  76.9146850
  43.3284780  10.1948750  77.6786020  45.1754980   6.1417680  72.8714760
  45.0651310   5.1992010  72.9964180  45.1723230   6.5033320  73.7577520
  43.2795000   4.3231300  79.1107200  43.6963790   4.1091410  78.2760660
  44.0034820   4.5804090  79.6815820  40.7175260   1.7683000  72.2277250
  39.7904540   1.7020380  72.4565720  40.8700080   2.7063130  72.1132490
  47.2257100   2.7218520  79.2023440  46.3975730   2.7911610  78.7273570
  47.8207580   3.3072830  78.7339270  44.7472550   3.3303300  72.7312500
  44.1284970   2.9922850  72.0838800  44.7297000   2.6863060  73.4391690
  36.7913600   5.9815300  77.1736190  36.4941890   5.3760770  76.4943970
  37.7413420   6.0192610  77.0625550  44.8799210   9.5547170  80.8359290
  44.4029770  10.3619360  80.6431900  44.1961000   8.9025500  80.9885500
  35.8832030   5.7196990  83.8243990  34.9860560   5.9436960  84.0717390
  35.9084900   5.8431930  82.8755390  42.9237250   2.5690110  69.7385250
  43.3630530   1.7312540  69.5923070  43.6365670   3.2019510  69.8249390
  34.7103250   2.5910310  82.4001360  34.5711020   3.4633110  82.7688760
  33.8284610   2.2483120  82.2549300  41.0332630   7.5086180  73.7066490
  41.4728540   8.2510510  73.2921880  40.9719520   7.7512750  74.6305450
  36.5083600   8.5332010  84.6086510  36.4799030   8.9374960  83.7414940
  36.3448570   7.6042370  84.4458110  48.4598420   9.3159110  85.9050680
  48.9358140   9.7942000  86.5839760  49.0805580   9.2476600  85.1796180
  30.6621900   4.3607860  78.3172270  30.7402320   4.4956630  77.3727990
  31.2763580   3.6523750  78.5100390  31.9069530   6.0608050  74.7278450
  31.4997610   6.2022640  73.8732050  32.7982540   5.7768210  74.5249660
  47.8631670   6.5071960  83.0650690  47.9894730   6.2683840  82.1467870
  47.9053050   5.6756500  83.5372770  41.7248410  10.2099960  81.6345500
  42.2393080  10.1207970  82.4367930  40.8817490  10.5559660  81.9273410
  43.7002810  10.4955300  71.0629500  43.5403950  10.2058240  71.9611330
  43.5349520   9.7195430  70.5274730  36.1791190  10.2753830  72.8401120
  36.0033670   9.3589370  72.6268920  35.3246930  10.6341120  73.0798920
  43.4028940   8.0042860  69.6227500  42.7094100   8.0020150  68.9629780
  44.1451800   7.5802180  69.1921670  42.9678870   9.6305570  73.6975990
  43.4235820   8.8494950  74.0114610  43.3071390  10.3412390  74.2417170
  30.7181420   5.4022030  80.8566730  30.8812460   4.9327390  80.0386100
  31.1833870   4.8945590  81.5215570  32.2920400   4.7773460  83.0162540
  31.9075190   4.1367130  83.6145500  32.6032590   5.4809580  83.5857270
  34.7598700   4.8719630  71.4122220  33.9860960   4.3317250  71.2520940
  35.4893330   4.3526240  71.0739980  45.5186680   3.8684990  77.2048610
  46.2385800   4.3640280  76.8144720  45.3168500   3.1902880  76.5602480
  40.9005480   3.9394050  83.0917610  40.8342790   3.0189720  82.8375200
  40.2710620   4.0369490  83.8062250  34.8036100   4.5400010  75.0501030
  35.3214770   3.7368270  74.9957920  34.3520120   4.4779150  75.8917860
  39.6905600   5.8066290  70.3228330  40.0321300   6.5508520  69.8271650
  38.8618310   6.1197410  70.6853160  40.8322210   6.7614620  82.8421410
  40.8466750   5.8295580  82.6240320  40.1247310   6.8474380  83.4811180
  47.0433420   3.4021960  82.1889990  46.3181610   3.9950740  81.9919380
  47.5708880   3.3945500  81.3903360  46.9946530   7.7996700  71.8402150
  46.3522690   7.1452320  72.1145870  46.6077190   8.2051790  71.0642820
  42.5733010   5.1282130  75.6873840  42.9256830   4.5310260  75.0275210
  41.6895340   4.8026360  75.8582090  38.6596290   5.8879820  73.0944250
  39.3467420   6.4349030  73.4751840  37.8728710   6.4320550  73.1293860
  37.9623500   2.8925850  72.7069610  38.4186280   3.7031100  72.9329800
  37.6111710   2.5748990  73.5388100  40.2656110   8.4032190  79.9361910
  40.9098330   8.6091570  80.6135330  40.6285550   7.6420590  79.4832760
  41.5388190   6.4064540  78.6539360  42.1810420   5.7057700  78.7671530
  42.0637540   7.1862980  78.4736250  45.3843910   6.6913160  68.3778500
  45.1581490   5.9743600  68.9703140  44.9940110   6.4425600  67.5400250
  43.3125810   7.2059440  81.8575420  43.6482050   7.7926130  82.5353340
  42.3926150   7.0752150  82.0873210  31.1659940  10.7180020  69.1522960
  31.5257580  11.3169360  68.4980230  31.0252280  11.2639910  69.9257990
  44.9660160   4.6085100  70.0392660  44.6781860   5.0697790  70.8270540
  45.7612330   4.1482870  70.3076880  31.1501800   8.9834880  83.6265360
  31.2592920   8.0429620  83.4860750  30.4982360   9.2489630  82.9779090
  39.1414390   7.2550770  85.0263480  38.8211260   6.5360010  85.5709170
  38.4672750   7.9305840  85.0999540  37.1828560   8.1011220  69.9696630
  37.1738660   8.8340910  69.3541140  36.2626920   7.8542800  70.0623590
  32.7835200   3.3226110  70.7143390  32.1763150   4.0625010  70.7238690
  33.2584550   3.4125470  69.8881590  40.1688160   8.1639460  68.6321820
  40.2700140   7.9603450  67.7023800  39.2689900   7.9097740  68.8369600
  38.8106270  10.6825780  73.3269490  39.0647770  10.6447170  72.4048860
  37.8618750  10.5559110  73.3197740  34.7940490   3.2837260  68.4631960
  35.5603760   3.1718620  69.0257390  34.8715180   2.5875230  67.8108730
  46.8184430   8.7726510  76.5782260  46.9431850   9.5957680  77.0506070
  47.6849990   8.5617240  76.2306410  34.2901960  10.8657720  76.2499390
  35.0264440  10.3173180  76.5207960  34.6742880  11.7313730  76.1105380
  31.1747440   6.9331290  72.1240900  30.2487220   7.1752430  72.1146310
  31.6403870   7.7605550  72.0025650  33.2960240  10.0503790  85.4384970
  34.0972970  10.3715840  85.8520370  32.7812060   9.6899370  86.1604880
  37.4004270  10.0388030  68.0724960  38.1932880  10.3276860  67.6206750
  36.8808620   9.6080200  67.3937440  42.1324870   6.1583660  85.3860380
  41.5263030   6.1815260  84.6456130  41.8278980   5.4266700  85.9227630
  43.5625240   9.8863950  83.9969790  44.5146990   9.8021970  83.9470030
  43.4153460  10.5505660  84.6703580  46.4534440   9.2658160  69.4961700
  46.1675950   8.8523300  68.6815880  46.2553990  10.1945870  69.3762220
  31.0158050   2.5377250  84.3821020  31.5197070   1.9584530  84.9537250
  30.2765470   2.8217480  84.9197390  37.9181670   5.2591440  67.9367310
  37.8132310   4.6443790  68.6628690  37.7505890   4.7357330  67.1530320
  38.0695990   3.9448240  83.9156540  37.3041660   4.5133240  83.8311210
  38.2511950   3.6524450  83.0224770  41.1584400   4.3211470  68.5409300
  40.6094500   4.7680770  69.1852040  41.7803660   3.8160720  69.0646970
  45.2119340   5.6753570  84.4731560  45.9528810   6.0129330  83.9699020
  44.4492020   5.8445630  83.9201330  36.8259520   3.2802390  70.4374600
  37.2475940   3.1142260  71.2805990  36.9510360   2.4702620  69.9429740
  43.8865000   3.7268400  83.0086770  44.3006020   3.8813480  83.8577190
  42.9516000   3.8523620  83.1712550  38.6480230   3.6788880  80.9782700
  39.0668340   4.5221610  80.8058940  37.7288860   3.8160920  80.7489480
  43.3232030   1.9642250  80.9383050  42.7967250   2.4884870  80.3348190
  43.6663370   2.5969640  81.5692780  36.4987650   9.9841890  82.0940430
  35.9608740  10.7087950  81.7749130  36.7521610   9.5072230  81.3037770
  39.3549860  11.2193100  82.3527080  39.2808560  12.1228240  82.6599450
  38.4528700  10.9005000  82.3249150  39.9035190  10.3851610  69.9753440
  40.7985980  10.7236580  69.9972200  39.9352820   9.6631020  69.3477720
  33.5431350   5.7578660  68.2040440  33.9806220   6.3008330  68.8598020
  34.0279080   4.9325610  68.2136780  30.7577150   8.5467690  75.6560700
  31.0880160   7.6788750  75.4239340  31.1868150   8.7526210  76.4865660
  35.3539070   6.8776700  73.3162670  35.0534610   6.7541670  74.2166580
  35.2476560   6.0185290  72.9078400  31.2467360   9.4138280  78.3942330
  30.8098350   9.5939080  79.2266480  31.8145040  10.1712900  78.2524050
  46.8829540   8.9155280  82.6819640  46.2831530   8.9747840  81.9383560
  47.0123440   7.9760260  82.8116490  48.1230990   6.6573100  68.0189350
  47.2923950   6.7249750  68.4896580  48.3002820   7.5477220  67.7156210
  47.5787450   3.4020580  70.5223550  48.3406360   3.9717230  70.6283240
  47.5941820   2.8347780  71.2931860  31.0791790   1.9258510  74.7531210
  30.4240630   1.6570150  74.1090910  31.9169740   1.8162990  74.3033190
  48.5847420   4.2570680  75.3665480  48.9556250   3.4738000  74.9601450
  49.2249350   4.9459780  75.1882780  45.5681180   5.6407260  80.7795800
  44.7541020   6.0704420  81.0421590  45.9755380   6.2525670  80.1664850
  47.6306620   3.6954950  67.6796070  47.9055460   4.6033830  67.5515290
  47.4417360   3.6317480  68.6158060  45.6257230  10.3925860  74.3064070
  46.2216300  10.0710430  73.6298490  45.8835380   9.9197680  75.0977340
  33.5319800   6.8243770  84.4554700  33.4889430   6.4536680  85.3369160
  33.6630810   7.7621340  84.5956520  37.2325830   8.3803360  80.0564420
  36.9917190   8.6477920  79.1694940  38.1728470   8.5509090  80.1115280
  48.4929990  10.3997740  80.8575060  47.9988270  10.7966610  80.1402190
  47.8843280   9.7746950  81.2512340  33.3707830   9.7706020  81.5752480
  32.7768150   9.6390720  82.3142520  33.3631670   8.9344160  81.1094580
  46.1769440  11.0421160  78.1361800  45.7172410  11.7936970  77.7619820
  45.5481900  10.3227630  78.0776600  33.0020060   7.1364400  80.5260520
  32.2754120   6.5169690  80.4586470  33.0629210   7.5305010  79.6558600
  36.6065160   9.3509400  77.3109930  37.1230180   8.7396760  76.7858190
  37.2562540   9.8538180  77.8020940  39.3460660  10.2417890  78.1378910
  39.6338470   9.9872190  77.2611920  39.8583880   9.6895250  78.7284480
  31.2850060  10.4538790  73.7357280  31.1172100   9.8209470  74.4339170
  30.4184570  10.6598190  73.3851470  32.8912760   9.1472020  71.1807420
  32.3660380   9.5280050  70.4769380  32.8157340   9.7722790  71.9017130
  39.4133020  11.1633990  85.5047110  40.3400330  10.9278260  85.5483070
  39.3983450  11.9905990  85.0233140  47.6478080  10.7059560  72.5021360
  47.8230270  10.0197300  71.8582280  46.9499650  11.2306610  72.1098030
  35.4905730  11.0954400  70.0556670  36.2224550  10.8113680  69.5080560
  35.7499400  10.8567680  70.9456050  34.6520520   7.2119130  70.0603000
  34.0229400   7.6804230  70.6088830  34.7668350   6.3668350  70.4949190
  45.9810580  10.3903850  85.3288150  46.7735900   9.8953080  85.1214110
  46.2743730  11.0693990  85.9363760  40.2388280   3.0403810  58.0913470
  39.4630380   2.5604250  58.3812040  40.8901210   2.3609460  57.9169630
  34.2554110   3.3523620  58.9689230  33.4238990   3.0972330  59.3685740
  34.8635090   3.4234390  59.7047150  44.2595710   7.4464000  56.8712600
  43.7977240   6.6751240  57.1999770  45.0721260   7.4730070  57.3765050
  34.2355370   7.3863710  59.1647250  34.5383410   6.4961450  58.9857470
  34.9798960   7.9433930  58.9369500  40.4859020   9.7322010  56.4916590
  39.8670460  10.1879510  55.9211030  41.3410800   9.8873470  56.0906290
  39.6797270   5.7161000  58.0983630  39.6105550   4.7750940  57.9372760
  40.4417130   5.8062410  58.6706200  41.3522370   4.6161250  53.8848500
  40.7339640   5.0810700  53.3211220  41.8645620   5.3088730  54.3018010
  36.2154130   4.1437120  60.5632100  35.8823510   4.7706040  61.2053170
  36.3920810   4.6699000  59.7833770  35.4273230   6.1117920  62.3781280
  36.0447230   6.7869000  62.0965730  34.5666350   6.5205900  62.2868780
  30.7205570   5.3017780  51.2588130  30.3433550   5.7904880  50.5273030
  30.9778640   5.9743060  51.8894660  46.3450820   7.5757330  60.2935920
  45.6614340   8.2456440  60.2852590  46.8845110   7.7737980  59.5280780
  43.8809560   9.4201460  59.0081100  43.8936720   9.0163750  58.1403360
  43.3284780  10.1948750  58.9042530  45.1754980   6.1417680  54.0971270
  45.0651310   5.1992010  54.2220690  45.1723230   6.5033320  54.9834030
  43.2795000   4.3231300  60.3363710  43.6963790   4.1091410  59.5017170
  44.0034820   4.5804090  60.9072330  40.7175260   1.7683000  53.4533760
  39.7904540   1.7020380  53.6822230  40.8700080   2.7063130  53.3389000
  47.2257100   2.7218520  60.4279950  46.3975730   2.7911610  59.9530080
  47.8207580   3.3072830  59.9595780  44.7472550   3.3303300  53.9569010
  44.1284970   2.9922850  53.3095310  44.7297000   2.6863060  54.6648200
  36.7913600   5.9815300  58.3992700  36.4941890   5.3760770  57.7200480
  37.7413420   6.0192610  58.2882060  44.8799210   9.5547170  62.0615800
  44.4029770  10.3619360  61.8688410  44.1961000   8.9025500  62.2142010
  35.8832030   5.7196990  65.0500500  34.9860560   5.9436960  65.2973900
  35.9084900   5.8431930  64.1011900  42.9237250   2.5690110  50.9641760
  43.3630530   1.7312540  50.8179580  43.6365670   3.2019510  51.0505900
  34.7103250   2.5910310  63.6257870  34.5711020   3.4633110  63.9945270
  33.8284610   2.2483120  63.4805810  41.0332630   7.5086180  54.9323000
  41.4728540   8.2510510  54.5178390  40.9719520   7.7512750  55.8561960
  36.5083600   8.5332010  65.8343020  36.4799030   8.9374960  64.9671450
  36.3448570   7.6042370  65.6714620  48.4598420   9.3159110  67.1307190
  48.9358140   9.7942000  67.8096270  49.0805580   9.2476600  66.4052690
  30.6621900   4.3607860  59.5428780  30.7402320   4.4956630  58.5984500
  31.2763580   3.6523750  59.7356900  31.9069530   6.0608050  55.9534960
  31.4997610   6.2022640  55.0988560  32.7982540   5.7768210  55.7506170
  47.8631670   6.5071960  64.2907200  47.9894730   6.2683840  63.3724380
  47.9053050   5.6756500  64.7629280  41.7248410  10.2099960  62.8602010
  42.2393080  10.1207970  63.6624440  40.8817490  10.5559660  63.1529920
  43.7002810  10.4955300  52.2886010  43.5403950  10.2058240  53.1867840
  43.5349520   9.7195430  51.7531240  36.1791190  10.2753830  54.0657630
  36.0033670   9.3589370  53.8525430  35.3246930  10.6341120  54.3055430
  43.4028940   8.0042860  50.8484010  42.7094100   8.0020150  50.1886290
  44.1451800   7.5802180  50.4178180  42.9678870   9.6305570  54.9232500
  43.4235820   8.8494950  55.2371120  43.3071390  10.3412390  55.4673680
  30.7181420   5.4022030  62.0823240  30.8812460   4.9327390  61.2642610
  31.1833870   4.8945590  62.7472080  32.2920400   4.7773460  64.2419050
  31.9075190   4.1367130  64.8402010  32.6032590   5.4809580  64.8113780
  34.7598700   4.8719630  52.6378730  33.9860960   4.3317250  52.4777450
  35.4893330   4.3526240  52.2996490  45.5186680   3.8684990  58.4305120
  46.2385800   4.3640280  58.0401230  45.3168500   3.1902880  57.7858990
  40.9005480   3.9394050  64.3174120  40.8342790   3.0189720  64.0631710
  40.2710620   4.0369490  65.0318760  34.8036100   4.5400010  56.2757540
  35.3214770   3.7368270  56.2214430  34.3520120   4.4779150  57.1174370
  39.6905600   5.8066290  51.5484840  40.0321300   6.5508520  51.0528160
  38.8618310   6.1197410  51.9109670  40.8322210   6.7614620  64.0677920
  40.8466750   5.8295580  63.8496830  40.1247310   6.8474380  64.7067690
  47.0433420   3.4021960  63.4146500  46.3181610   3.9950740  63.2175890
  47.5708880   3.3945500  62.6159870  46.9946530   7.7996700  53.0658660
  46.3522690   7.1452320  53.3402380  46.6077190   8.2051790  52.2899330
  42.5733010   5.1282130  56.9130350  42.9256830   4.5310260  56.2531720
  41.6895340   4.8026360  57.0838600  38.6596290   5.8879820  54.3200760
  39.3467420   6.4349030  54.7008350  37.8728710   6.4320550  54.3550370
  37.9623500   2.8925850  53.9326120  38.4186280   3.7031100  54.1586310
  37.6111710   2.5748990  54.7644610  40.2656110   8.4032190  61.1618420
  40.9098330   8.6091570  61.8391840  40.6285550   7.6420590  60.7089270
  41.5388190   6.4064540  59.8795870  42.1810420   5.7057700  59.9928040
  42.0637540   7.1862980  59.6992760  45.3843910   6.6913160  49.6035010
  45.1581490   5.9743600  50.1959650  44.9940110   6.4425600  48.7656760
  43.3125810   7.2059440  63.0831930  43.6482050   7.7926130  63.7609850
  42.3926150   7.0752150  63.3129720  31.1659940  10.7180020  50.3779470
  31.5257580  11.3169360  49.7236740  31.0252280  11.2639910  51.1514500
  44.9660160   4.6085100  51.2649170  44.6781860   5.0697790  52.0527050
  45.7612330   4.1482870  51.5333390  31.1501800   8.9834880  64.8521870
  31.2592920   8.0429620  64.7117260  30.4982360   9.2489630  64.2035600
  39.1414390   7.2550770  66.2519990  38.8211260   6.5360010  66.7965680
  38.4672750   7.9305840  66.3256050  37.1828560   8.1011220  51.1953140
  37.1738660   8.8340910  50.5797650  36.2626920   7.8542800  51.2880100
  32.7835200   3.3226110  51.9399900  32.1763150   4.0625010  51.9495200
  33.2584550   3.4125470  51.1138100  40.1688160   8.1639460  49.8578330
  40.2700140   7.9603450  48.9280310  39.2689900   7.9097740  50.0626110
  38.8106270  10.6825780  54.5526000  39.0647770  10.6447170  53.6305370
  37.8618750  10.5559110  54.5454250  34.7940490   3.2837260  49.6888470
  35.5603760   3.1718620  50.2513900  34.8715180   2.5875230  49.0365240
  46.8184430   8.7726510  57.8038770  46.9431850   9.5957680  58.2762580
  47.6849990   8.5617240  57.4562920  34.2901960  10.8657720  57.4755900
  35.0264440  10.3173180  57.7464470  34.6742880  11.7313730  57.3361890
  31.1747440   6.9331290  53.3497410  30.2487220   7.1752430  53.3402820
  31.6403870   7.7605550  53.2282160  33.2960240  10.0503790  66.6641480
  34.0972970  10.3715840  67.0776880  32.7812060   9.6899370  67.3861390
  37.4004270  10.0388030  49.2981470  38.1932880  10.3276860  48.8463260
  36.8808620   9.6080200  48.6193950  42.1324870   6.1583660  66.6116890
  41.5263030   6.1815260  65.8712640  41.8278980   5.4266700  67.1484140
  43.5625240   9.8863950  65.2226300  44.5146990   9.8021970  65.1726540
  43.4153460  10.5505660  65.8960090  46.4534440   9.2658160  50.7218210
  46.1675950   8.8523300  49.9072390  46.2553990  10.1945870  50.6018730
  31.0158050   2.5377250  65.6077530  31.5197070   1.9584530  66.1793760
  30.2765470   2.8217480  66.1453900  37.9181670   5.2591440  49.1623820
  37.8132310   4.6443790  49.8885200  37.7505890   4.7357330  48.3786830
  38.0695990   3.9448240  65.1413050  37.3041660   4.5133240  65.0567720
  38.2511950   3.6524450  64.2481280  41.1584400   4.3211470  49.7665810
  40.6094500   4.7680770  50.4108550  41.7803660   3.8160720  50.2903480
  45.2119340   5.6753570  65.6988070  45.9528810   6.0129330  65.1955530
  44.4492020   5.8445630  65.1457840  36.8259520   3.2802390  51.6631110
  37.2475940   3.1142260  52.5062500  36.9510360   2.4702620  51.1686250
  43.8865000   3.7268400  64.2343280  44.3006020   3.8813480  65.0833700
  42.9516000   3.8523620  64.3969060  38.6480230   3.6788880  62.2039210
  39.0668340   4.5221610  62.0315450  37.7288860   3.8160920  61.9745990
  43.3232030   1.9642250  62.1639560  42.7967250   2.4884870  61.5604700
  43.6663370   2.5969640  62.7949290  36.4987650   9.9841890  63.3196940
  35.9608740  10.7087950  63.0005640  36.7521610   9.5072230  62.5294280
  39.3549860  11.2193100  63.5783590  39.2808560  12.1228240  63.8855960
  38.4528700  10.9005000  63.5505660  39.9035190  10.3851610  51.2009950
  40.7985980  10.7236580  51.2228710  39.9352820   9.6631020  50.5734230
  33.5431350   5.7578660  49.4296950  33.9806220   6.3008330  50.0854530
  34.0279080   4.9325610  49.4393290  30.7577150   8.5467690  56.8817210
  31.0880160   7.6788750  56.6495850  31.1868150   8.7526210  57.7122170
  35.3539070   6.8776700  54.5419180  35.0534610   6.7541670  55.4423090
  35.2476560   6.0185290  54.1334910  31.2467360   9.4138280  59.6198840
  30.8098350   9.5939080  60.4522990  31.8145040  10.1712900  59.4780560
  46.8829540   8.9155280  63.9076150  46.2831530   8.9747840  63.1640070
  47.0123440   7.9760260  64.0373000  48.1230990   6.6573100  49.2445860
  47.2923950   6.7249750  49.7153090  48.3002820   7.5477220  48.9412720
  47.5787450   3.4020580  51.7480060  48.3406360   3.9717230  51.8539750
  47.5941820   2.8347780  52.5188370  31.0791790   1.9258510  55.9787720
  30.4240630   1.6570150  55.3347420  31.9169740   1.8162990  55.5289700
  48.5847420   4.2570680  56.5921990  48.9556250   3.4738000  56.1857960
  49.2249350   4.9459780  56.4139290  45.5681180   5.6407260  62.0052310
  44.7541020   6.0704420  62.2678100  45.9755380   6.2525670  61.3921360
  47.6306620   3.6954950  48.9052580  47.9055460   4.6033830  48.7771800
  47.4417360   3.6317480  49.8414570  45.6257230  10.3925860  55.5320580
  46.2216300  10.0710430  54.8555000  45.8835380   9.9197680  56.3233850
  33.5319800   6.8243770  65.6811210  33.4889430   6.4536680  66.5625670
  33.6630810   7.7621340  65.8213030  37.2325830   8.3803360  61.2820930
  36.9917190   8.6477920  60.3951450  38.1728470   8.5509090  61.3371790
  48.4929990  10.3997740  62.0831570  47.9988270  10.7966610  61.3658700
  47.8843280   9.7746950  62.4768850  33.3707830   9.7706020  62.8008990
  32.7768150   9.6390720  63.5399030  33.3631670   8.9344160  62.3351090
  46.1769440  11.0421160  59.3618310  45.7172410  11.7936970  58.9876330
  45.5481900  10.3227630  59.3033110  33.0020060   7.1364400  61.7517030
  32.2754120   6.5169690  61.6842980  33.0629210   7.5305010  60.8815110
  36.6065160   9.3509400  58.5366440  37.1230180   8.7396760  58.0114700
  37.2562540   9.8538180  59.0277450  39.3460660  10.2417890  59.3635420
  39.6338470   9.9872190  58.4868430  39.8583880   9.6895250  59.9540990
  31.2850060  10.4538790  54.9613790  31.1172100   9.8209470  55.6595680
  30.4184570  10.6598190  54.6107980  32.8912760   9.1472020  52.4063930
  32.3660380   9.5280050  51.7025890  32.8157340   9.7722790  53.1273640
  39.4133020  11.1633990  66.7303620  40.3400330  10.9278260  66.7739580
  39.3983450  11.9905990  66.2489650  47.6478080  10.7059560  53.7277870
  47.8230270  10.0197300  53.0838790  46.9499650  11.2306610  53.3354540
  35.4905730  11.0954400  51.2813180  36.2224550  10.8113680  50.7337070
  35.7499400  10.8567680  52.1712560  34.6520520   7.2119130  51.2859510
  34.0229400   7.6804230  51.8345340  34.7668350   6.3668350  51.7205700
  45.9810580  10.3903850  66.5544660  46.7735900   9.8953080  66.3470620
  46.2743730  11.0693990  67.1620270  40.2388280   3.0403810  39.3169980
  39.4630380   2.5604250  39.6068550  40.8901210   2.3609460  39.1426140
  34.2554110   3.3523620  40.1945740  33.4238990   3.0972330  40.5942250
  34.8635090   3.4234390  40.9303660  44.2595710   7.4464000  38.0969110
  43.7977240   6.6751240  38.4256280  45.0721260   7.4730070  38.6021560
  34.2355370   7.3863710  40.3903760  34.5383410   6.4961450  40.2113980
  34.9798960   7.9433930  40.1626010  40.4859020   9.7322010  37.7173100
  39.8670460  10.1879510  37.1467540  41.3410800   9.8873470  37.3162800
  39.6797270   5.7161000  39.3240140  39.6105550   4.7750940  39.1629270
  40.4417130   5.8062410  39.8962710  41.3522370   4.6161250  35.1105010
  40.7339640   5.0810700  34.5467730  41.8645620   5.3088730  35.5274520
  36.2154130   4.1437120  41.7888610  35.8823510   4.7706040  42.4309680
  36.3920810   4.6699000  41.0090280  35.4273230   6.1117920  43.6037790
  36.0447230   6.7869000  43.3222240  34.5666350   6.5205900  43.5125290
  30.7205570   5.3017780  32.4844640  30.3433550   5.7904880  31.7529540
  30.9778640   5.9743060  33.1151170  46.3450820   7.5757330  41.5192430
  45.6614340   8.2456440  41.5109100  46.8845110   7.7737980  40.7537290
  43.8809560   9.4201460  40.2337610  43.8936720   9.0163750  39.3659870
  43.3284780  10.1948750  40.1299040  45.1754980   6.1417680  35.3227780
  45.0651310   5.1992010  35.4477200  45.1723230   6.5033320  36.2090540
  43.2795000   4.3231300  41.5620220  43.6963790   4.1091410  40.7273680
  44.0034820   4.5804090  42.1328840  40.7175260   1.7683000  34.6790270
  39.7904540   1.7020380  34.9078740  40.8700080   2.7063130  34.5645510
  47.2257100   2.7218520  41.6536460  46.3975730   2.7911610  41.1786590
  47.8207580   3.3072830  41.1852290  44.7472550   3.3303300  35.1825520
  44.1284970   2.9922850  34.5351820  44.7297000   2.6863060  35.8904710
  36.7913600   5.9815300  39.6249210  36.4941890   5.3760770  38.9456990
  37.7413420   6.0192610  39.5138570  44.8799210   9.5547170  43.2872310
  44.4029770  10.3619360  43.0944920  44.1961000   8.9025500  43.4398520
  35.8832030   5.7196990  46.2757010  34.9860560   5.9436960  46.5230410
  35.9084900   5.8431930  45.3268410  42.9237250   2.5690110  32.1898270
  43.3630530   1.7312540  32.0436090  43.6365670   3.2019510  32.2762410
  34.7103250   2.5910310  44.8514380  34.5711020   3.4633110  45.2201780
  33.8284610   2.2483120  44.7062320  41.0332630   7.5086180  36.1579510
  41.4728540   8.2510510  35.7434900  40.9719520   7.7512750  37.0818470
  36.5083600   8.5332010  47.0599530  36.4799030   8.9374960  46.1927960
  36.3448570   7.6042370  46.8971130  48.4598420   9.3159110  48.3563700
  48.9358140   9.7942000  49.0352780  49.0805580   9.2476600  47.6309200
  30.6621900   4.3607860  40.7685290  30.7402320   4.4956630  39.8241010
  31.2763580   3.6523750  40.9613410  31.9069530   6.0608050  37.1791470
  31.4997610   6.2022640  36.3245070  32.7982540   5.7768210  36.9762680
  47.8631670   6.5071960  45.5163710  47.9894730   6.2683840  44.5980890
  47.9053050   5.6756500  45.9885790  41.7248410  10.2099960  44.0858520
  42.2393080  10.1207970  44.8880950  40.8817490  10.5559660  44.3786430
  43.7002810  10.4955300  33.5142520  43.5403950  10.2058240  34.4124350
  43.5349520   9.7195430  32.9787750  36.1791190  10.2753830  35.2914140
  36.0033670   9.3589370  35.0781940  35.3246930  10.6341120  35.5311940
  43.4028940   8.0042860  32.0740520  42.7094100   8.0020150  31.4142800
  44.1451800   7.5802180  31.6434690  42.9678870   9.6305570  36.1489010
  43.4235820   8.8494950  36.4627630  43.3071390  10.3412390  36.6930190
  30.7181420   5.4022030  43.3079750  30.8812460   4.9327390  42.4899120
  31.1833870   4.8945590  43.9728590  32.2920400   4.7773460  45.4675560
  31.9075190   4.1367130  46.0658520  32.6032590   5.4809580  46.0370290
  34.7598700   4.8719630  33.8635240  33.9860960   4.3317250  33.7033960
  35.4893330   4.3526240  33.5253000  45.5186680   3.8684990  39.6561630
  46.2385800   4.3640280  39.2657740  45.3168500   3.1902880  39.0115500
  40.9005480   3.9394050  45.5430630  40.8342790   3.0189720  45.2888220
  40.2710620   4.0369490  46.2575270  34.8036100   4.5400010  37.5014050
  35.3214770   3.7368270  37.4470940  34.3520120   4.4779150  38.3430880
  39.6905600   5.8066290  32.7741350  40.0321300   6.5508520  32.2784670
  38.8618310   6.1197410  33.1366180  40.8322210   6.7614620  45.2934430
  40.8466750   5.8295580  45.0753340  40.1247310   6.8474380  45.9324200
  47.0433420   3.4021960  44.6403010  46.3181610   3.9950740  44.4432400
  47.5708880   3.3945500  43.8416380  46.9946530   7.7996700  34.2915170
  46.3522690   7.1452320  34.5658890  46.6077190   8.2051790  33.5155840
  42.5733010   5.1282130  38.1386860  42.9256830   4.5310260  37.4788230
  41.6895340   4.8026360  38.3095110  38.6596290   5.8879820  35.5457270
  39.3467420   6.4349030  35.9264860  37.8728710   6.4320550  35.5806880
  37.9623500   2.8925850  35.1582630  38.4186280   3.7031100  35.3842820
  37.6111710   2.5748990  35.9901120  40.2656110   8.4032190  42.3874930
  40.9098330   8.6091570  43.0648350  40.6285550   7.6420590  41.9345780
  41.5388190   6.4064540  41.1052380  42.1810420   5.7057700  41.2184550
  42.0637540   7.1862980  40.9249270  45.3843910   6.6913160  30.8291520
  45.1581490   5.9743600  31.4216160  44.9940110   6.4425600  29.9913270
  43.3125810   7.2059440  44.3088440  43.6482050   7.7926130  44.9866360
  42.3926150   7.0752150  44.5386230  31.1659940  10.7180020  31.6035980
  31.5257580  11.3169360  30.9493250  31.0252280  11.2639910  32.3771010
  44.9660160   4.6085100  32.4905680  44.6781860   5.0697790  33.2783560
  45.7612330   4.1482870  32.7589900  31.1501800   8.9834880  46.0778380
  31.2592920   8.0429620  45.9373770  30.4982360   9.2489630  45.4292110
  39.1414390   7.2550770  47.4776500  38.8211260   6.5360010  48.0222190
  38.4672750   7.9305840  47.5512560  37.1828560   8.1011220  32.4209650
  37.1738660   8.8340910  31.8054160  36.2626920   7.8542800  32.5136610
  32.7835200   3.3226110  33.1656410  32.1763150   4.0625010  33.1751710
  33.2584550   3.4125470  32.3394610  40.1688160   8.1639460  31.0834840
  40.2700140   7.9603450  30.1536820  39.2689900   7.9097740  31.2882620
  38.8106270  10.6825780  35.7782510  39.0647770  10.6447170  34.8561880
  37.8618750  10.5559110  35.7710760  34.7940490   3.2837260  30.9144980
  35.5603760   3.1718620  31.4770410  34.8715180   2.5875230  30.2621750
  46.8184430   8.7726510  39.0295280  46.9431850   9.5957680  39.5019090
  47.6849990   8.5617240  38.6819430  34.2901960  10.8657720  38.7012410
  35.0264440  10.3173180  38.9720980  34.6742880  11.7313730  38.5618400
  31.1747440   6.9331290  34.5753920  30.2487220   7.1752430  34.5659330
  31.6403870   7.7605550  34.4538670  33.2960240  10.0503790  47.8897990
  34.0972970  10.3715840  48.3033390  32.7812060   9.6899370  48.6117900
  37.4004270  10.0388030  30.5237980  38.1932880  10.3276860  30.0719770
  36.8808620   9.6080200  29.8450460  42.1324870   6.1583660  47.8373400
  41.5263030   6.1815260  47.0969150  41.8278980   5.4266700  48.3740650
  43.5625240   9.8863950  46.4482810  44.5146990   9.8021970  46.3983050
  43.4153460  10.5505660  47.1216600  46.4534440   9.2658160  31.9474720
  46.1675950   8.8523300  31.1328900  46.2553990  10.1945870  31.8275240
  31.0158050   2.5377250  46.8334040  31.5197070   1.9584530  47.4050270
  30.2765470   2.8217480  47.3710410  37.9181670   5.2591440  30.3880330
  37.8132310   4.6443790  31.1141710  37.7505890   4.7357330  29.6043340
  38.0695990   3.9448240  46.3669560  37.3041660   4.5133240  46.2824230
  38.2511950   3.6524450  45.4737790  41.1584400   4.3211470  30.9922320
  40.6094500   4.7680770  31.6365060  41.7803660   3.8160720  31.5159990
  45.2119340   5.6753570  46.9244580  45.9528810   6.0129330  46.4212040
  44.4492020   5.8445630  46.3714350  36.8259520   3.2802390  32.8887620
  37.2475940   3.1142260  33.7319010  36.9510360   2.4702620  32.3942760
  43.8865000   3.7268400  45.4599790  44.3006020   3.8813480  46.3090210
  42.9516000   3.8523620  45.6225570  38.6480230   3.6788880  43.4295720
  39.0668340   4.5221610  43.2571960  37.7288860   3.8160920  43.2002500
  43.3232030   1.9642250  43.3896070  42.7967250   2.4884870  42.7861210
  43.6663370   2.5969640  44.0205800  36.4987650   9.9841890  44.5453450
  35.9608740  10.7087950  44.2262150  36.7521610   9.5072230  43.7550790
  39.3549860  11.2193100  44.8040100  39.2808560  12.1228240  45.1112470
  38.4528700  10.9005000  44.7762170  39.9035190  10.3851610  32.4266460
  40.7985980  10.7236580  32.4485220  39.9352820   9.6631020  31.7990740
  33.5431350   5.7578660  30.6553460  33.9806220   6.3008330  31.3111040
  34.0279080   4.9325610  30.6649800  30.7577150   8.5467690  38.1073720
  31.0880160   7.6788750  37.8752360  31.1868150   8.7526210  38.9378680
  35.3539070   6.8776700  35.7675690  35.0534610   6.7541670  36.6679600
  35.2476560   6.0185290  35.3591420  31.2467360   9.4138280  40.8455350
  30.8098350   9.5939080  41.6779500  31.8145040  10.1712900  40.7037070
  46.8829540   8.9155280  45.1332660  46.2831530   8.9747840  44.3896580
  47.0123440   7.9760260  45.2629510  48.1230990   6.6573100  30.4702370
  47.2923950   6.7249750  30.9409600  48.3002820   7.5477220  30.1669230
  47.5787450   3.4020580  32.9736570  48.3406360   3.9717230  33.0796260
  47.5941820   2.8347780  33.7444880  31.0791790   1.9258510  37.2044230
  30.4240630   1.6570150  36.5603930  31.9169740   1.8162990  36.7546210
  48.5847420   4.2570680  37.8178500  48.9556250   3.4738000  37.4114470
  49.2249350   4.9459780  37.6395800  45.5681180   5.6407260  43.2308820
  44.7541020   6.0704420  43.4934610  45.9755380   6.2525670  42.6177870
  47.6306620   3.6954950  30.1309090  47.9055460   4.6033830  30.0028310
  47.4417360   3.6317480  31.0671080  45.6257230  10.3925860  36.7577090
  46.2216300  10.0710430  36.0811510  45.8835380   9.9197680  37.5490360
  33.5319800   6.8243770  46.9067720  33.4889430   6.4536680  47.7882180
  33.6630810   7.7621340  47.0469540  37.2325830   8.3803360  42.5077440
  36.9917190   8.6477920  41.6207960  38.1728470   8.5509090  42.5628300
  48.4929990  10.3997740  43.3088080  47.9988270  10.7966610  42.5915210
  47.8843280   9.7746950  43.7025360  33.3707830   9.7706020  44.0265500
  32.7768150   9.6390720  44.7655540  33.3631670   8.9344160  43.5607600
  46.1769440  11.0421160  40.5874820  45.7172410  11.7936970  40.2132840
  45.5481900  10.3227630  40.5289620  33.0020060   7.1364400  42.9773540
  32.2754120   6.5169690  42.9099490  33.0629210   7.5305010  42.1071620
  36.6065160   9.3509400  39.7622950  37.1230180   8.7396760  39.2371210
  37.2562540   9.8538180  40.2533960  39.3460660  10.2417890  40.5891930
  39.6338470   9.9872190  39.7124940  39.8583880   9.6895250  41.1797500
  31.2850060  10.4538790  36.1870300  31.1172100   9.8209470  36.8852190
  30.4184570  10.6598190  35.8364490  32.8912760   9.1472020  33.6320440
  32.3660380   9.5280050  32.9282400  32.8157340   9.7722790  34.3530150
  39.4133020  11.1633990  47.9560130  40.3400330  10.9278260  47.9996090
  39.3983450  11.9905990  47.4746160  47.6478080  10.7059560  34.9534380
  47.8230270  10.0197300  34.3095300  46.9499650  11.2306610  34.5611050
  35.4905730  11.0954400  32.5069690  36.2224550  10.8113680  31.9593580
  35.7499400  10.8567680  33.3969070  34.6520520   7.2119130  32.5116020
  34.0229400   7.6804230  33.0601850  34.7668350   6.3668350  32.9462210
  45.9810580  10.3903850  47.7801170  46.7735900   9.8953080  47.5727130
  46.2743730  11.0693990  48.3876780  40.2388280   3.0403810  20.5426490
  39.4630380   2.5604250  20.8325060  40.8901210   2.3609460  20.3682650
  34.2554110   3.3523620  21.4202250  33.4238990   3.0972330  21.8198760
  34.8635090   3.4234390  22.1560170  44.2595710   7.4464000  19.3225620
  43.7977240   6.6751240  19.6512790  45.0721260   7.4730070  19.8278070
  34.2355370   7.3863710  21.6160270  34.5383410   6.4961450  21.4370490
  34.9798960   7.9433930  21.3882520  40.4859020   9.7322010  18.9429610
  39.8670460  10.1879510  18.3724050  41.3410800   9.8873470  18.5419310
  39.6797270   5.7161000  20.5496650  39.6105550   4.7750940  20.3885780
  40.4417130   5.8062410  21.1219220  41.3522370   4.6161250  16.3361520
  40.7339640   5.0810700  15.7724240  41.8645620   5.3088730  16.7531030
  36.2154130   4.1437120  23.0145120  35.8823510   4.7706040  23.6566190
  36.3920810   4.6699000  22.2346790  35.4273230   6.1117920  24.8294300
  36.0447230   6.7869000  24.5478750  34.5666350   6.5205900  24.7381800
  30.7205570   5.3017780  13.7101150  30.3433550   5.7904880  12.9786050
  30.9778640   5.9743060  14.3407680  46.3450820   7.5757330  22.7448940
  45.6614340   8.2456440  22.7365610  46.8845110   7.7737980  21.9793800
  43.8809560   9.4201460  21.4594120  43.8936720   9.0163750  20.5916380
  43.3284780  10.1948750  21.3555550  45.1754980   6.1417680  16.5484290
  45.0651310   5.1992010  16.6733710  45.1723230   6.5033320  17.4347050
  43.2795000   4.3231300  22.7876730  43.6963790   4.1091410  21.9530190
  44.0034820   4.5804090  23.3585350  40.7175260   1.7683000  15.9046780
  39.7904540   1.7020380  16.1335250  40.8700080   2.7063130  15.7902020
  47.2257100   2.7218520  22.8792970  46.3975730   2.7911610  22.4043100
  47.8207580   3.3072830  22.4108800  44.7472550   3.3303300  16.4082030
  44.1284970   2.9922850  15.7608330  44.7297000   2.6863060  17.1161220
  36.7913600   5.9815300  20.8505720  36.4941890   5.3760770  20.1713500
  37.7413420   6.0192610  20.7395080  44.8799210   9.5547170  24.5128820
  44.4029770  10.3619360  24.3201430  44.1961000   8.9025500  24.6655030
  35.8832030   5.7196990  27.5013520  34.9860560   5.9436960  27.7486920
  35.9084900   5.8431930  26.5524920  42.9237250   2.5690110  13.4154780
  43.3630530   1.7312540  13.2692600  43.6365670   3.2019510  13.5018920
  34.7103250   2.5910310  26.0770890  34.5711020   3.4633110  26.4458290
  33.8284610   2.2483120  25.9318830  41.0332630   7.5086180  17.3836020
  41.4728540   8.2510510  16.9691410  40.9719520   7.7512750  18.3074980
  36.5083600   8.5332010  28.2856040  36.4799030   8.9374960  27.4184470
  36.3448570   7.6042370  28.1227640  48.4598420   9.3159110  29.5820210
  48.9358140   9.7942000  30.2609290  49.0805580   9.2476600  28.8565710
  30.6621900   4.3607860  21.9941800  30.7402320   4.4956630  21.0497520
  31.2763580   3.6523750  22.1869920  31.9069530   6.0608050  18.4047980
  31.4997610   6.2022640  17.5501580  32.7982540   5.7768210  18.2019190
  47.8631670   6.5071960  26.7420220  47.9894730   6.2683840  25.8237400
  47.9053050   5.6756500  27.2142300  41.7248410  10.2099960  25.3115030
  42.2393080  10.1207970  26.1137460  40.8817490  10.5559660  25.6042940
  43.7002810  10.4955300  14.7399030  43.5403950  10.2058240  15.6380860
  43.5349520   9.7195430  14.2044260  36.1791190  10.2753830  16.5170650
  36.0033670   9.3589370  16.3038450  35.3246930  10.6341120  16.7568450
  43.4028940   8.0042860  13.2997030  42.7094100   8.0020150  12.6399310
  44.1451800   7.5802180  12.8691200  42.9678870   9.6305570  17.3745520
  43.4235820   8.8494950  17.6884140  43.3071390  10.3412390  17.9186700
  30.7181420   5.4022030  24.5336260  30.8812460   4.9327390  23.7155630
  31.1833870   4.8945590  25.1985100  32.2920400   4.7773460  26.6932070
  31.9075190   4.1367130  27.2915030  32.6032590   5.4809580  27.2626800
  34.7598700   4.8719630  15.0891750  33.9860960   4.3317250  14.9290470
  35.4893330   4.3526240  14.7509510  45.5186680   3.8684990  20.8818140
  46.2385800   4.3640280  20.4914250  45.3168500   3.1902880  20.2372010
  40.9005480   3.9394050  26.7687140  40.8342790   3.0189720  26.5144730
  40.2710620   4.0369490  27.4831780  34.8036100   4.5400010  18.7270560
  35.3214770   3.7368270  18.6727450  34.3520120   4.4779150  19.5687390
  39.6905600   5.8066290  13.9997860  40.0321300   6.5508520  13.5041180
  38.8618310   6.1197410  14.3622690  40.8322210   6.7614620  26.5190940
  40.8466750   5.8295580  26.3009850  40.1247310   6.8474380  27.1580710
  47.0433420   3.4021960  25.8659520  46.3181610   3.9950740  25.6688910
  47.5708880   3.3945500  25.0672890  46.9946530   7.7996700  15.5171680
  46.3522690   7.1452320  15.7915400  46.6077190   8.2051790  14.7412350
  42.5733010   5.1282130  19.3643370  42.9256830   4.5310260  18.7044740
  41.6895340   4.8026360  19.5351620  38.6596290   5.8879820  16.7713780
  39.3467420   6.4349030  17.1521370  37.8728710   6.4320550  16.8063390
  37.9623500   2.8925850  16.3839140  38.4186280   3.7031100  16.6099330
  37.6111710   2.5748990  17.2157630  40.2656110   8.4032190  23.6131440
  40.9098330   8.6091570  24.2904860  40.6285550   7.6420590  23.1602290
  41.5388190   6.4064540  22.3308890  42.1810420   5.7057700  22.4441060
  42.0637540   7.1862980  22.1505780  45.3843910   6.6913160  12.0548030
  45.1581490   5.9743600  12.6472670  44.9940110   6.4425600  11.2169780
  43.3125810   7.2059440  25.5344950  43.6482050   7.7926130  26.2122870
  42.3926150   7.0752150  25.7642740  31.1659940  10.7180020  12.8292490
  31.5257580  11.3169360  12.1749760  31.0252280  11.2639910  13.6027520
  44.9660160   4.6085100  13.7162190  44.6781860   5.0697790  14.5040070
  45.7612330   4.1482870  13.9846410  31.1501800   8.9834880  27.3034890
  31.2592920   8.0429620  27.1630280  30.4982360   9.2489630  26.6548620
  39.1414390   7.2550770  28.7033010  38.8211260   6.5360010  29.2478700
  38.4672750   7.9305840  28.7769070  37.1828560   8.1011220  13.6466160
  37.1738660   8.8340910  13.0310670  36.2626920   7.8542800  13.7393120
  32.7835200   3.3226110  14.3912920  32.1763150   4.0625010  14.4008220
  33.2584550   3.4125470  13.5651120  40.1688160   8.1639460  12.3091350
  40.2700140   7.9603450  11.3793330  39.2689900   7.9097740  12.5139130
  38.8106270  10.6825780  17.0039020  39.0647770  10.6447170  16.0818390
  37.8618750  10.5559110  16.9967270  34.7940490   3.2837260  12.1401490
  35.5603760   3.1718620  12.7026920  34.8715180   2.5875230  11.4878260
  46.8184430   8.7726510  20.2551790  46.9431850   9.5957680  20.7275600
  47.6849990   8.5617240  19.9075940  34.2901960  10.8657720  19.9268920
  35.0264440  10.3173180  20.1977490  34.6742880  11.7313730  19.7874910
  31.1747440   6.9331290  15.8010430  30.2487220   7.1752430  15.7915840
  31.6403870   7.7605550  15.6795180  33.2960240  10.0503790  29.1154500
  34.0972970  10.3715840  29.5289900  32.7812060   9.6899370  29.8374410
  37.4004270  10.0388030  11.7494490  38.1932880  10.3276860  11.2976280
  36.8808620   9.6080200  11.0706970  42.1324870   6.1583660  29.0629910
  41.5263030   6.1815260  28.3225660  41.8278980   5.4266700  29.5997160
  43.5625240   9.8863950  27.6739320  44.5146990   9.8021970  27.6239560
  43.4153460  10.5505660  28.3473110  46.4534440   9.2658160  13.1731230
  46.1675950   8.8523300  12.3585410  46.2553990  10.1945870  13.0531750
  31.0158050   2.5377250  28.0590550  31.5197070   1.9584530  28.6306780
  30.2765470   2.8217480  28.5966920  37.9181670   5.2591440  11.6136840
  37.8132310   4.6443790  12.3398220  37.7505890   4.7357330  10.8299850
  38.0695990   3.9448240  27.5926070  37.3041660   4.5133240  27.5080740
  38.2511950   3.6524450  26.6994300  41.1584400   4.3211470  12.2178830
  40.6094500   4.7680770  12.8621570  41.7803660   3.8160720  12.7416500
  45.2119340   5.6753570  28.1501090  45.9528810   6.0129330  27.6468550
  44.4492020   5.8445630  27.5970860  36.8259520   3.2802390  14.1144130
  37.2475940   3.1142260  14.9575520  36.9510360   2.4702620  13.6199270
  43.8865000   3.7268400  26.6856300  44.3006020   3.8813480  27.5346720
  42.9516000   3.8523620  26.8482080  38.6480230   3.6788880  24.6552230
  39.0668340   4.5221610  24.4828470  37.7288860   3.8160920  24.4259010
  43.3232030   1.9642250  24.6152580  42.7967250   2.4884870  24.0117720
  43.6663370   2.5969640  25.2462310  36.4987650   9.9841890  25.7709960
  35.9608740  10.7087950  25.4518660  36.7521610   9.5072230  24.9807300
  39.3549860  11.2193100  26.0296610  39.2808560  12.1228240  26.3368980
  38.4528700  10.9005000  26.0018680  39.9035190  10.3851610  13.6522970
  40.7985980  10.7236580  13.6741730  39.9352820   9.6631020  13.0247250
  33.5431350   5.7578660  11.8809970  33.9806220   6.3008330  12.5367550
  34.0279080   4.9325610  11.8906310  30.7577150   8.5467690  19.3330230
  31.0880160   7.6788750  19.1008870  31.1868150   8.7526210  20.1635190
  35.3539070   6.8776700  16.9932200  35.0534610   6.7541670  17.8936110
  35.2476560   6.0185290  16.5847930  31.2467360   9.4138280  22.0711860
  30.8098350   9.5939080  22.9036010  31.8145040  10.1712900  21.9293580
  46.8829540   8.9155280  26.3589170  46.2831530   8.9747840  25.6153090
  47.0123440   7.9760260  26.4886020  48.1230990   6.6573100  11.6958880
  47.2923950   6.7249750  12.1666110  48.3002820   7.5477220  11.3925740
  47.5787450   3.4020580  14.1993080  48.3406360   3.9717230  14.3052770
  47.5941820   2.8347780  14.9701390  31.0791790   1.9258510  18.4300740
  30.4240630   1.6570150  17.7860440  31.9169740   1.8162990  17.9802720
  48.5847420   4.2570680  19.0435010  48.9556250   3.4738000  18.6370980
  49.2249350   4.9459780  18.8652310  45.5681180   5.6407260  24.4565330
  44.7541020   6.0704420  24.7191120  45.9755380   6.2525670  23.8434380
  47.6306620   3.6954950  11.3565600  47.9055460   4.6033830  11.2284820
  47.4417360   3.6317480  12.2927590  45.6257230  10.3925860  17.9833600
  46.2216300  10.0710430  17.3068020  45.8835380   9.9197680  18.7746870
  33.5319800   6.8243770  28.1324230  33.4889430   6.4536680  29.0138690
  33.6630810   7.7621340  28.2726050  37.2325830   8.3803360  23.7333950
  36.9917190   8.6477920  22.8464470  38.1728470   8.5509090  23.7884810
  48.4929990  10.3997740  24.5344590  47.9988270  10.7966610  23.8171720
  47.8843280   9.7746950  24.9281870  33.3707830   9.7706020  25.2522010
  32.7768150   9.6390720  25.9912050  33.3631670   8.9344160  24.7864110
  46.1769440  11.0421160  21.8131330  45.7172410  11.7936970  21.4389350
  45.5481900  10.3227630  21.7546130  33.0020060   7.1364400  24.2030050
  32.2754120   6.5169690  24.1356000  33.0629210   7.5305010  23.3328130
  36.6065160   9.3509400  20.9879460  37.1230180   8.7396760  20.4627720
  37.2562540   9.8538180  21.4790470  39.3460660  10.2417890  21.8148440
  39.6338470   9.9872190  20.9381450  39.8583880   9.6895250  22.4054010
  31.2850060  10.4538790  17.4126810  31.1172100   9.8209470  18.1108700
  30.4184570  10.6598190  17.0621000  32.8912760   9.1472020  14.8576950
  32.3660380   9.5280050  14.1538910  32.8157340   9.7722790  15.5786660
  39.4133020  11.1633990  29.1816640  40.3400330  10.9278260  29.2252600
  39.3983450  11.9905990  28.7002670  47.6478080  10.7059560  16.1790890
  47.8230270  10.0197300  15.5351810  46.9499650  11.2306610  15.7867560
  35.4905730  11.0954400  13.7326200  36.2224550  10.8113680  13.1850090
  35.7499400  10.8567680  14.6225580  34.6520520   7.2119130  13.7372530
  34.0229400   7.6804230  14.2858360  34.7668350   6.3668350  14.1718720
  45.9810580  10.3903850  29.0057680  46.7735900   9.8953080  28.7983640
  46.2743730  11.0693990  29.6133290  40.2388280   3.0403810   1.7683000
  39.4630380   2.5604250   2.0581570  40.8901210   2.3609460   1.5939160
  34.2554110   3.3523620   2.6458760  33.4238990   3.0972330   3.0455270
  34.8635090   3.4234390   3.3816680  34.2355370   7.3863710   2.8416780
  34.5383410   6.4961450   2.6627000  34.9798960   7.9433930   2.6139030
  39.6797270   5.7161000   1.7753160  39.6105550   4.7750940   1.6142290
  40.4417130   5.8062410   2.3475730  36.2154130   4.1437120   4.2401630
  35.8823510   4.7706040   4.8822700  36.3920810   4.6699000   3.4603300
  35.4273230   6.1117920   6.0550810  36.0447230   6.7869000   5.7735260
  34.5666350   6.5205900   5.9638310  46.3450820   7.5757330   3.9705450
  45.6614340   8.2456440   3.9622120  46.8845110   7.7737980   3.2050310
  43.8809560   9.4201460   2.6850630  43.8936720   9.0163750   1.8172890
  43.3284780  10.1948750   2.5812060  43.2795000   4.3231300   4.0133240
  43.6963790   4.1091410   3.1786700  44.0034820   4.5804090   4.5841860
  47.2257100   2.7218520   4.1049480  46.3975730   2.7911610   3.6299610
  47.8207580   3.3072830   3.6365310  44.8799210   9.5547170   5.7385330
  44.4029770  10.3619360   5.5457940  44.1961000   8.9025500   5.8911540
  35.8832030   5.7196990   8.7270030  34.9860560   5.9436960   8.9743430
  35.9084900   5.8431930   7.7781430  34.7103250   2.5910310   7.3027400
  34.5711020   3.4633110   7.6714800  33.8284610   2.2483120   7.1575340
  36.5083600   8.5332010   9.5112550  36.4799030   8.9374960   8.6440980
  36.3448570   7.6042370   9.3484150  48.4598420   9.3159110  10.8076720
  48.9358140   9.7942000  11.4865800  49.0805580   9.2476600  10.0822220
  30.6621900   4.3607860   3.2198310  30.7402320   4.4956630   2.2754030
  31.2763580   3.6523750   3.4126430  47.8631670   6.5071960   7.9676730
  47.9894730   6.2683840   7.0493910  47.9053050   5.6756500   8.4398810
  41.7248410  10.2099960   6.5371540  42.2393080  10.1207970   7.3393970
  40.8817490  10.5559660   6.8299450  30.7181420   5.4022030   5.7592770
  30.8812460   4.9327390   4.9412140  31.1833870   4.8945590   6.4241610
  32.2920400   4.7773460   7.9188580  31.9075190   4.1367130   8.5171540
  32.6032590   5.4809580   8.4883310  45.5186680   3.8684990   2.1074650
  46.2385800   4.3640280   1.7170760  45.3168500   3.1902880   1.4628520
  40.9005480   3.9394050   7.9943650  40.8342790   3.0189720   7.7401240
  40.2710620   4.0369490   8.7088290  40.8322210   6.7614620   7.7447450
  40.8466750   5.8295580   7.5266360  40.1247310   6.8474380   8.3837220
  47.0433420   3.4021960   7.0916030  46.3181610   3.9950740   6.8945420
  47.5708880   3.3945500   6.2929400  40.2656110   8.4032190   4.8387950
  40.9098330   8.6091570   5.5161370  40.6285550   7.6420590   4.3858800
  41.5388190   6.4064540   3.5565400  42.1810420   5.7057700   3.6697570
  42.0637540   7.1862980   3.3762290  43.3125810   7.2059440   6.7601460
  43.6482050   7.7926130   7.4379380  42.3926150   7.0752150   6.9899250
  31.1501800   8.9834880   8.5291400  31.2592920   8.0429620   8.3886790
  30.4982360   9.2489630   7.8805130  39.1414390   7.2550770   9.9289520
  38.8211260   6.5360010  10.4735210  38.4672750   7.9305840  10.0025580
  33.2960240  10.0503790  10.3411010  34.0972970  10.3715840  10.7546410
  32.7812060   9.6899370  11.0630920  42.1324870   6.1583660  10.2886420
  41.5263030   6.1815260   9.5482170  41.8278980   5.4266700  10.8253670
  43.5625240   9.8863950   8.8995830  44.5146990   9.8021970   8.8496070
  43.4153460  10.5505660   9.5729620  31.0158050   2.5377250   9.2847060
  31.5197070   1.9584530   9.8563290  30.2765470   2.8217480   9.8223430
  38.0695990   3.9448240   8.8182580  37.3041660   4.5133240   8.7337250
  38.2511950   3.6524450   7.9250810  45.2119340   5.6753570   9.3757600
  45.9528810   6.0129330   8.8725060  44.4492020   5.8445630   8.8227370
  43.8865000   3.7268400   7.9112810  44.3006020   3.8813480   8.7603230
  42.9516000   3.8523620   8.0738590  38.6480230   3.6788880   5.8808740
  39.0668340   4.5221610   5.7084980  37.7288860   3.8160920   5.6515520
  43.3232030   1.9642250   5.8409090  42.7967250   2.4884870   5.2374230
  43.6663370   2.5969640   6.4718820  36.4987650   9.9841890   6.9966470
  35.9608740  10.7087950   6.6775170  36.7521610   9.5072230   6.2063810
  39.3549860  11.2193100   7.2553120  39.2808560  12.1228240   7.5625490
  38.4528700  10.9005000   7.2275190  31.2467360   9.4138280   3.2968370
  30.8098350   9.5939080   4.1292520  31.8145040  10.1712900   3.1550090
  46.8829540   8.9155280   7.5845680  46.2831530   8.9747840   6.8409600
  47.0123440   7.9760260   7.7142530  45.5681180   5.6407260   5.6821840
  44.7541020   6.0704420   5.9447630  45.9755380   6.2525670   5.0690890
  33.5319800   6.8243770   9.3580740  33.4889430   6.4536680  10.2395200
  33.6630810   7.7621340   9.4982560  37.2325830   8.3803360   4.9590460
  36.9917190   8.6477920   4.0720980  38.1728470   8.5509090   5.0141320
  48.4929990  10.3997740   5.7601100  47.9988270  10.7966610   5.0428230
  47.8843280   9.7746950   6.1538380  33.3707830   9.7706020   6.4778520
  32.7768150   9.6390720   7.2168560  33.3631670   8.9344160   6.0120620
  46.1769440  11.0421160   3.0387840  45.7172410  11.7936970   2.6645860
  45.5481900  10.3227630   2.9802640  33.0020060   7.1364400   5.4286560
  32.2754120   6.5169690   5.3612510  33.0629210   7.5305010   4.5584640
  36.6065160   9.3509400   2.2135970  37.1230180   8.7396760   1.6884230
  37.2562540   9.8538180   2.7046980  39.3460660  10.2417890   3.0404950
  39.6338470   9.9872190   2.1637960  39.8583880   9.6895250   3.6310520
  39.4133020  11.1633990  10.4073150  40.3400330  10.9278260  10.4509110
  39.3983450  11.9905990   9.9259180  45.9810580  10.3903850  10.2314190
  46.7735900   9.8953080  10.0240150  46.2743730  11.0693990  10.8389800
  23.3326750 151.4572710 150.0821650  23.2520800 150.5427320 149.8113360
  22.9191170 151.9539780 149.3761360  13.8902570 148.5073430 146.6249070
  13.0019270 148.8489400 146.5228950  14.1743760 148.3073750 145.7329900
  16.0663960 147.0904930 147.6587450  16.1730710 147.9908660 147.9656210
  15.1556320 147.0422900 147.3682100  25.7183070 146.2129740 149.1298350
  26.5392690 145.7226310 149.1723830  25.7517150 146.8027400 149.8830190
  19.5551010 143.8982090 150.5891090  19.8625990 143.3428980 149.8726590
  18.6251710 144.0326550 150.4064080  21.9300850 148.2347920 144.3218370
  20.9904520 148.3961880 144.4070830  22.2484110 148.9533600 143.7754360
  17.5488410 152.4895660 150.1070940  17.1445410 151.7772910 149.6116840
  17.6351530 152.1448900 150.9958980  27.7310900 144.0180840 143.1500250
  27.4183560 144.1107670 144.0499320  28.4923370 144.5961870 143.0997680
  14.2493040 151.3840640 147.6077590  14.1290640 152.1102730 146.9958860
  13.9393930 150.6143550 147.1305500  16.7156700 144.7275710 150.9901260
  16.2724850 145.5085250 150.6585780  17.2741690 145.0505600 151.6972200
  19.8315520 144.3486410 145.8707090  19.2069700 144.3446280 146.5960400
  19.7445640 143.4817370 145.4743060  16.5070920 149.8509280 148.7182510
  16.2811840 149.6346450 149.6229130  15.7263450 150.2837740 148.3728480
  23.7368680 149.8572650 147.3173160  23.1377570 150.5808450 147.1336780
  24.2848290 149.7949430 146.5349610  22.3433550 148.4936190 149.3476440
  22.7363120 148.8108390 148.5345130  22.7050400 147.6148070 149.4620960
  11.5667950 149.0257110 142.7809360  11.4842620 149.9687870 142.9224350
  11.2151010 148.8832020 141.9021710  15.2168460 147.6422630 150.8073920
  14.8768510 148.1197860 151.5640970  14.4545780 147.1887750 150.4475020
  19.4286230 148.7608220 144.8386470  19.5499050 148.7194700 145.7872290
  19.0434740 149.6232370 144.6833200  18.4407730 151.0709360 144.2369770
  17.8724630 150.6227610 143.6105680  19.1496730 151.4302140 143.7034920
  12.5314540 146.5641610 149.7238590  12.2461460 146.1997280 150.5617210
  12.4693400 145.8322070 149.1101730  22.2053130 145.4570870 146.4451960
  21.3917740 144.9584040 146.3697270  22.0115080 146.2969120 146.0288310
  24.9201520 149.8290520 144.7414120  25.8081140 150.1407750 144.5665460
  24.8906610 148.9562770 144.3494700  27.1915790 151.1402360 144.2093980
  27.1079510 151.5716580 143.3590420  27.9109980 151.6000710 144.6420800
  12.0245200 151.7000560 143.6835290  12.8940050 151.9825360 143.9671210
  11.5335520 152.5136430 143.5684100  15.0891790 143.4311420 148.2766090
  14.9606420 143.4229320 149.2251010  14.2653810 143.7694510 147.9257100
  26.9486530 146.6381790 146.2961800  26.3199690 146.7427460 145.5820030
  26.4538450 146.8578570 147.0855680  18.9170560 148.9167740 147.7119680
  18.2086710 149.3854080 148.1533290  19.2015040 148.2589750 148.3464870
  22.9485990 145.6418400 149.1515470  22.8253770 145.6604530 148.2024980
  23.8970550 145.6897340 149.2713870  17.1205580 147.2252820 145.0870390
  17.9696110 147.6622970 145.0210580  16.7536850 147.5373080 145.9142450
  26.0415360 151.7965580 150.0001960  25.1005500 151.8115810 150.1749650
  26.3559430 151.0101540 150.4462260  14.7143760 150.9110250 144.2438810
  14.7947350 149.9637760 144.3556210  15.6063510 151.2417130 144.3499470
  16.9474930 149.5483540 142.4806720  16.7463990 148.6850900 142.8420060
  16.7766980 149.4616900 141.5428320  24.4263240 144.3591770 145.0093600
  24.7065530 143.5159670 145.3653020  23.6528970 144.5914880 145.5232350
  15.7457730 146.6484160 142.4684600  16.0483630 146.6551590 141.5603750
  16.4852320 146.2982020 142.9652260  18.9642660 145.5918780 143.4540800
  18.6164660 144.9142770 142.8743250  19.1655430 145.1308290 144.2684190
  12.3048300 152.1206430 149.8505170  11.6497140 151.8518070 149.2064870
  13.1426250 152.0110910 149.4007150  25.2538740 146.9147720 144.0723660
  25.6723620 146.7278700 143.2320320  24.9474800 146.0626770 144.3826590
  28.7528470 151.8271860 147.7699460  28.3772070 151.0599790 147.3380750
  28.0231590 152.2094560 148.2574390  11.5186380 149.3305360 145.7930500
  10.6150460 149.5935560 145.6182160  12.0027000 149.6016530 145.0130460
  14.0613590 148.3870900 143.7024880  14.7705290 147.9654120 143.2172160
  13.3453530 148.4546130 143.0708230  13.7087750 144.4410230 142.7427530
  14.4315880 144.9819170 143.0608750  13.9812270 144.1673650 141.8669070
  27.5179400 149.3102700 147.0099110  28.0138520 149.0773570 147.7947990
  27.3195470 148.4714540 146.5936750  28.9466560 147.9463650 149.5436790
  28.8365840 147.7919690 150.4819060  29.7074150 147.4184590 149.3012200
  29.8356830 145.7771570 142.7842930  30.7606140 145.6452750 142.5761220
  29.8132620 145.8564390 143.7379380  29.9095320 146.5482230 145.4099640
  29.1146820 146.4827350 145.9392550  30.1138600 147.4832870 145.3984990
  28.2053820 144.5094350 149.8707290  28.1442220 143.5655570 149.7238310
  28.9845850 144.6174440 150.4160750  13.1334590 144.4803490 146.3363100
  13.8913950 144.5932370 145.7627130  12.6711760 145.3172690 146.2906530
  19.6748400 146.5942760 149.3265410  18.8622910 146.2199650 148.9861290
  20.1790040 145.8387840 149.6286600  24.1773380 143.2585210 150.5648480
  24.7802750 143.8305420 151.0397000  23.4366370 143.8224650 150.3422380
  27.3207980 143.6606770 145.8388760  27.5158610 144.5590220 146.1056190
  26.5337850 143.4293850 146.3321710  15.5059740 145.0067540 144.8765070
  16.0352500 144.2197340 144.7473020  16.1388060 145.6858730 145.1100600
  17.6997580 144.7442680 147.9310460  17.0700320 144.0429990 148.0980590
  17.1602720 145.5046810 147.7143620  23.3326750 151.4572710 131.3078160
  23.2520800 150.5427320 131.0369870  22.9191170 151.9539780 130.6017870
  13.8902570 148.5073430 127.8505580  13.0019270 148.8489400 127.7485460
  14.1743760 148.3073750 126.9586410  11.8535580 151.1079080 133.7345280
  12.4251690 150.3401280 133.7348920  11.8537120 151.4067840 132.8251890
  13.0960450 146.5163440 135.5214210  12.9163290 145.6189190 135.8016970
  12.6940530 147.0635310 136.1961160  21.9358950 148.7179300 133.4226520
  22.3123770 147.8451180 133.3100190  21.8378460 149.0538000 132.5316960
  16.0663960 147.0904930 128.8843960  16.1730710 147.9908660 129.1912720
  15.1556320 147.0422900 128.5938610  25.7183070 146.2129740 130.3554860
  26.5392690 145.7226310 130.3980340  25.7517150 146.8027400 131.1086700
  13.7147120 149.0123940 134.1296550  14.3957230 149.2762310 134.7483950
  13.3995170 148.1724810 134.4634560  17.9071690 150.0591300 133.2169140
  18.4149910 150.5572270 133.8574160  18.4384930 149.2826500 133.0408500
  30.0082620 148.2296490 136.9198490  29.3034790 148.6178200 136.4013600
  30.2740540 148.9246780 137.5219420  16.1907790 144.6989860 137.4832560
  16.1926230 145.2162250 136.6778460  15.3612100 144.2220040 137.4602490
  25.9544550 148.1530120 133.1282400  25.2500120 148.4415010 133.7085510
  26.3156710 148.9630230 132.7681960  15.8723120 146.4099820 135.4903010
  16.2139930 147.2541870 135.1956880  14.9338930 146.5583560 135.6068350
  29.0231470 147.5984910 133.5191610  28.0756380 147.6323890 133.6507040
  29.3481460 148.4123860 133.9040970  19.5551010 143.8982090 131.8147600
  19.8625990 143.3428980 131.0983100  18.6251710 144.0326550 131.6320590
  21.9300850 148.2347920 125.5474880  20.9904520 148.3961880 125.6327340
  22.2484110 148.9533600 125.0010870  25.4155620 149.7035760 136.4708780
  25.0026800 150.5289470 136.7248770  24.6831570 149.1180800 136.2785140
  17.5488410 152.4895660 131.3327450  17.1445410 151.7772910 130.8373350
  17.6351530 152.1448900 132.2215490  16.2617030 149.2638870 135.1126490
  16.8131620 149.3734210 134.3379740  16.7760540 149.6376470 135.8281720
  27.7310900 144.0180840 124.3756760  27.4183560 144.1107670 125.2755830
  28.4923370 144.5961870 124.3254190  14.2493040 151.3840640 128.8334100
  14.1290640 152.1102730 128.2215370  13.9393930 150.6143550 128.3562010
  28.9412190 148.7552340 140.3530900  28.3256460 149.2632010 139.8246360
  28.6208610 147.8550670 140.2956840  16.7156700 144.7275710 132.2157770
  16.2724850 145.5085250 131.8842290  17.2741690 145.0505600 132.9228710
  21.0026510 147.5944230 137.8193090  20.5405880 147.8027250 138.6313030
  20.6004620 146.7803580 137.5163760  26.0031020 148.8153180 138.9489750
  25.1524610 148.5158930 139.2698820  25.8432810 149.0595190 138.0373570
  23.0980730 150.3154930 141.0488540  23.4234140 149.4818680 140.7090770
  23.8861060 150.8383450 141.1966870  19.8315520 144.3486410 127.0963600
  19.2069700 144.3446280 127.8216910  19.7445640 143.4817370 126.6999570
  18.7532600 145.2723040 134.0747370  19.0504930 146.1785870 133.9939390
  19.3018160 144.7841820 133.4606940  16.5070920 149.8509280 129.9439020
  16.2811840 149.6346450 130.8485640  15.7263450 150.2837740 129.5984990
  23.7368680 149.8572650 128.5429670  23.1377570 150.5808450 128.3593290
  24.2848290 149.7949430 127.7606120  18.9470130 150.7494860 140.6099290
  18.8513730 149.8089590 140.4599690  19.7902110 150.9709930 140.2147360
  22.3433550 148.4936190 130.5732950  22.7363120 148.8108390 129.7601640
  22.7050400 147.6148070 130.6877470  14.0780670 147.1608530 138.7633070
  13.6844060 148.0083740 138.9705850  13.3899070 146.5234900 138.9541710
  20.6525720 147.2443500 141.8329810  19.9624040 147.0515700 142.4675900
  21.3958020 147.5278140 142.3654110  11.3797720 145.0836990 132.7963150
  11.0910770 145.6539850 133.5088130  12.1243480 144.6041440 133.1594380
  11.5667950 149.0257110 124.0065870  11.4842620 149.9687870 124.1480860
  11.2151010 148.8832020 123.1278220  22.9288690 151.0841940 134.6683730
  22.1969810 151.5928750 135.0173830  22.5313030 150.2671920 134.3672510
  19.3666080 147.7596140 133.0736220  19.3702140 147.3186090 132.2240760
  20.2617200 148.0813470 133.1808040  15.2168460 147.6422630 132.0330430
  14.8768510 148.1197860 132.7897480  14.4545780 147.1887750 131.6731530
  19.4286230 148.7608220 126.0642980  19.5499050 148.7194700 127.0128800
  19.0434740 149.6232370 125.9089710  23.3914600 146.5375620 134.0806670
  23.4087340 146.9884270 134.9248520  23.1430180 145.6381260 134.2940110
  18.4407730 151.0709360 125.4626280  17.8724630 150.6227610 124.8362190
  19.1496730 151.4302140 124.9291430  26.8185350 143.9507800 139.9193050
  27.1431120 143.2197460 140.4451030  26.8541860 143.6321440 139.0174040
  12.5314540 146.5641610 130.9495100  12.2461460 146.1997280 131.7873720
  12.4693400 145.8322070 130.3358240  17.4573420 150.8606560 137.1385840
  17.1530490 151.7398540 137.3636200  18.4119880 150.9206350 137.1743280
  22.2053130 145.4570870 127.6708470  21.3917740 144.9584040 127.5953780
  22.0115080 146.2969120 127.2544820  24.9201520 149.8290520 125.9670630
  25.8081140 150.1407750 125.7921970  24.8906610 148.9562770 125.5751210
  13.5137150 151.7009300 138.2857200  13.1552090 152.3663150 138.8730540
  13.2191710 150.8692850 138.6569820  16.7150270 152.1593540 141.1696750
  16.4150410 152.3050720 140.2724570  17.4861510 151.5998830 141.0770140
  27.1915790 151.1402360 125.4350490  27.1079510 151.5716580 124.5846930
  27.9109980 151.6000710 125.8677310  12.0245200 151.7000560 124.9091800
  12.8940050 151.9825360 125.1927720  11.5335520 152.5136430 124.7940610
  15.0891790 143.4311420 129.5022600  14.9606420 143.4229320 130.4507520
  14.2653810 143.7694510 129.1513610  12.0885720 145.1902540 138.9629300
  11.3744240 145.3899460 139.5681910  12.5080760 144.4142110 139.3344100
  23.5824500 147.6824850 136.7130750  23.9505320 146.8620060 137.0410320
  22.7222700 147.7426740 137.1286400  26.9486530 146.6381790 127.5218310
  26.3199690 146.7427460 126.8076540  26.4538450 146.8578570 128.3112190
  18.9170560 148.9167740 128.9376190  18.2086710 149.3854080 129.3789800
  19.2015040 148.2589750 129.5721380  20.5426490 150.3364440 136.9368720
  21.0411740 150.8110260 137.6020570  20.6849440 149.4127960 137.1438750
  22.9485990 145.6418400 130.3771980  22.8253770 145.6604530 129.4281490
  23.8970550 145.6897340 130.4970380  17.1205580 147.2252820 126.3126900
  17.9696110 147.6622970 126.2467090  16.7536850 147.5373080 127.1398960
  27.7493350 146.5532400 137.7797110  27.2466950 147.2937800 138.1190920
  28.5650010 146.9416400 137.4633900  26.0415360 151.7965580 131.2258470
  25.1005500 151.8115810 131.4006160  26.3559430 151.0101540 131.6718770
  14.7143760 150.9110250 125.4695320  14.7947350 149.9637760 125.5812720
  15.6063510 151.2417130 125.5755980  14.2737640 150.8754760 141.6001560
  14.3142980 150.5768630 142.5086790  15.1283140 151.2762370 141.4409080
  16.2143450 149.4546860 139.5676050  15.6839910 148.9637810 138.9399390
  16.8831520 149.8831060 139.0333980  25.5843680 151.2612480 141.3356390
  26.1664450 150.5064800 141.2476870  25.7605450 151.7919920 140.5587870
  16.7015750 146.4209230 139.6473340  16.6072620 145.8029980 138.9224210
  16.1213140 147.1475520 139.4203250  19.4677190 144.9782470 136.6800730
  19.0194490 145.0006730 135.8346280  18.8342390 144.5801490 137.2771030
  22.2100640 151.6052980 138.6851010  22.3296850 151.0094120 139.4245850
  23.0694640 151.6422670 138.2652310  16.9474930 149.5483540 123.7063230
  16.7463990 148.6850900 124.0676570  16.7766980 149.4616900 122.7684830
  18.9769410 148.1474330 139.9426830  19.5669100 147.8390180 140.6304650
  18.1589650 147.6754080 140.0986730  23.7962840 147.7640140 140.1759850
  23.1078360 147.1021680 140.1109840  24.5168860 147.3178410 140.6208310
  24.4263240 144.3591770 126.2350110  24.7065530 143.5159670 126.5909530
  23.6528970 144.5914880 126.7488860  15.7457730 146.6484160 123.6941110
  16.0483630 146.6551590 122.7860260  16.4852320 146.2982020 124.1908770
  18.9642660 145.5918780 124.6797310  18.6164660 144.9142770 124.0999760
  19.1655430 145.1308290 125.4940700  12.3048300 152.1206430 131.0761680
  11.6497140 151.8518070 130.4321380  13.1426250 152.0110910 130.6263660
  25.2538740 146.9147720 125.2980170  25.6723620 146.7278700 124.4576830
  24.9474800 146.0626770 125.6083100  28.7528470 151.8271860 128.9955970
  28.3772070 151.0599790 128.5637260  28.0231590 152.2094560 129.4830900
  13.3424230 152.5059000 135.6165020  13.7097270 152.4186400 136.4961040
  12.7735050 151.7425550 135.5171880  28.1428090 150.9743380 138.6295490
  27.9114180 150.7456130 137.7293440  28.4032640 151.8942930 138.5840380
  12.8940230 149.4168090 139.5223440  11.9996280 149.3834850 139.8617150
  13.4337780 149.6154880 140.2874690  26.5816160 146.1999810 141.4075190
  27.4586340 146.2083210 141.7909190  26.5937000 145.4630650 140.7967540
  11.5186380 149.3305360 127.0187010  10.6150460 149.5935560 126.8438670
  12.0027000 149.6016530 126.2386970  28.0279430 150.0529350 132.2963210
  28.5516910 149.5592000 131.6653380  28.6138850 150.1879710 133.0410780
  28.2069150 150.1369220 135.8182760  27.2571860 150.1032760 135.9327750
  28.3882160 151.0469330 135.5832530  14.0613590 148.3870900 124.9281390
  14.7705290 147.9654120 124.4428670  13.3453530 148.4546130 124.2964740
  13.7087750 144.4410230 123.9684040  14.4315880 144.9819170 124.2865260
  13.9812270 144.1673650 123.0925580  27.5179400 149.3102700 128.2355620
  28.0138520 149.0773570 129.0204500  27.3195470 148.4714540 127.8193260
  13.3979940 143.6916420 133.8706660  14.0456130 143.1413800 133.4301820
  13.8181780 143.9459570 134.6922470  28.9466560 147.9463650 130.7693300
  28.8365840 147.7919690 131.7075570  29.7074150 147.4184590 130.5268710
  27.2932280 143.8857780 137.2276300  27.9304500 144.4991920 137.5935490
  27.4407170 143.9218440 136.2825530  29.8356830 145.7771570 124.0099440
  30.7606140 145.6452750 123.8017730  29.8132620 145.8564390 124.9635890
  29.9095320 146.5482230 126.6356150  29.1146820 146.4827350 127.1649060
  30.1138600 147.4832870 126.6241500  13.1511940 143.8472090 136.6131980
  12.8026760 144.3035910 137.3790160  12.8199640 142.9529220 136.6954410
  20.6636760 145.0383970 140.1351400  20.6025650 145.6305800 140.8846810
  21.6037140 144.9309930 139.9901660  23.3011320 144.6954030 139.7743690
  23.9151730 145.0133320 139.1124770  23.8460880 144.2102620 140.3939550
  13.8232580 143.3748290 139.8882750  14.3715570 143.1936340 139.1248860
  13.8887890 142.5842400 140.4239060  24.0419360 143.2586170 136.1012980
  23.1679200 143.5921280 135.8985910  23.9330110 142.7859350 136.9264850
  24.9491340 145.4657040 137.4854700  24.6204700 144.6508800 137.1056430
  25.8973640 145.4226850 137.3620390  21.7894180 144.1756010 135.0405890
  21.0065970 144.6501510 135.3202650  21.4957110 143.2710840 134.9319070
  26.3415250 144.8779110 133.0854980  26.7823340 144.8224210 132.2376580
  26.0722840 145.7937120 133.1565160  28.2053820 144.5094350 131.0963800
  28.1442220 143.5655570 130.9494820  28.9845850 144.6174440 131.6417260
  13.1334590 144.4803490 127.5619610  13.8913950 144.5932370 126.9883640
  12.6711760 145.3172690 127.5163040  19.6748400 146.5942760 130.5521920
  18.8622910 146.2199650 130.2117800  20.1790040 145.8387840 130.8543110
  24.1773380 143.2585210 131.7904990  24.7802750 143.8305420 132.2653510
  23.4366370 143.8224650 131.5678890  27.3207980 143.6606770 127.0645270
  27.5158610 144.5590220 127.3312700  26.5337850 143.4293850 127.5578220
  15.5059740 145.0067540 126.1021580  16.0352500 144.2197340 125.9729530
  16.1388060 145.6858730 126.3357110  17.6997580 144.7442680 129.1566970
  17.0700320 144.0429990 129.3237100  17.1602720 145.5046810 128.9400130
  17.8253140 144.0226660 141.5919460  17.5437410 144.5260260 140.8280280
  18.2072840 143.2248410 141.2261590  24.4268600 143.4380240 142.1699930
  24.3134050 143.7574850 143.0651450  25.2438340 143.8392750 141.8737210
  23.3326750 151.4572710 112.5334670  23.2520800 150.5427320 112.2626380
  22.9191170 151.9539780 111.8274380  13.8902570 148.5073430 109.0762090
  13.0019270 148.8489400 108.9741970  14.1743760 148.3073750 108.1842920
  11.8535580 151.1079080 114.9601790  12.4251690 150.3401280 114.9605430
  11.8537120 151.4067840 114.0508400  13.0960450 146.5163440 116.7470720
  12.9163290 145.6189190 117.0273480  12.6940530 147.0635310 117.4217670
  21.9358950 148.7179300 114.6483030  22.3123770 147.8451180 114.5356700
  21.8378460 149.0538000 113.7573470  16.0663960 147.0904930 110.1100470
  16.1730710 147.9908660 110.4169230  15.1556320 147.0422900 109.8195120
  25.7183070 146.2129740 111.5811370  26.5392690 145.7226310 111.6236850
  25.7517150 146.8027400 112.3343210  13.7147120 149.0123940 115.3553060
  14.3957230 149.2762310 115.9740460  13.3995170 148.1724810 115.6891070
  17.9071690 150.0591300 114.4425650  18.4149910 150.5572270 115.0830670
  18.4384930 149.2826500 114.2665010  30.0082620 148.2296490 118.1455000
  29.3034790 148.6178200 117.6270110  30.2740540 148.9246780 118.7475930
  16.1907790 144.6989860 118.7089070  16.1926230 145.2162250 117.9034970
  15.3612100 144.2220040 118.6859000  25.9544550 148.1530120 114.3538910
  25.2500120 148.4415010 114.9342020  26.3156710 148.9630230 113.9938470
  15.8723120 146.4099820 116.7159520  16.2139930 147.2541870 116.4213390
  14.9338930 146.5583560 116.8324860  29.0231470 147.5984910 114.7448120
  28.0756380 147.6323890 114.8763550  29.3481460 148.4123860 115.1297480
  19.5551010 143.8982090 113.0404110  19.8625990 143.3428980 112.3239610
  18.6251710 144.0326550 112.8577100  21.9300850 148.2347920 106.7731390
  20.9904520 148.3961880 106.8583850  22.2484110 148.9533600 106.2267380
  25.4155620 149.7035760 117.6965290  25.0026800 150.5289470 117.9505280
  24.6831570 149.1180800 117.5041650  17.5488410 152.4895660 112.5583960
  17.1445410 151.7772910 112.0629860  17.6351530 152.1448900 113.4472000
  16.2617030 149.2638870 116.3383000  16.8131620 149.3734210 115.5636250
  16.7760540 149.6376470 117.0538230  27.7310900 144.0180840 105.6013270
  27.4183560 144.1107670 106.5012340  28.4923370 144.5961870 105.5510700
  14.2493040 151.3840640 110.0590610  14.1290640 152.1102730 109.4471880
  13.9393930 150.6143550 109.5818520  28.9412190 148.7552340 121.5787410
  28.3256460 149.2632010 121.0502870  28.6208610 147.8550670 121.5213350
  16.7156700 144.7275710 113.4414280  16.2724850 145.5085250 113.1098800
  17.2741690 145.0505600 114.1485220  21.0026510 147.5944230 119.0449600
  20.5405880 147.8027250 119.8569540  20.6004620 146.7803580 118.7420270
  26.0031020 148.8153180 120.1746260  25.1524610 148.5158930 120.4955330
  25.8432810 149.0595190 119.2630080  23.0980730 150.3154930 122.2745050
  23.4234140 149.4818680 121.9347280  23.8861060 150.8383450 122.4223380
  19.8315520 144.3486410 108.3220110  19.2069700 144.3446280 109.0473420
  19.7445640 143.4817370 107.9256080  18.7532600 145.2723040 115.3003880
  19.0504930 146.1785870 115.2195900  19.3018160 144.7841820 114.6863450
  16.5070920 149.8509280 111.1695530  16.2811840 149.6346450 112.0742150
  15.7263450 150.2837740 110.8241500  23.7368680 149.8572650 109.7686180
  23.1377570 150.5808450 109.5849800  24.2848290 149.7949430 108.9862630
  18.9470130 150.7494860 121.8355800  18.8513730 149.8089590 121.6856200
  19.7902110 150.9709930 121.4403870  22.3433550 148.4936190 111.7989460
  22.7363120 148.8108390 110.9858150  22.7050400 147.6148070 111.9133980
  14.0780670 147.1608530 119.9889580  13.6844060 148.0083740 120.1962360
  13.3899070 146.5234900 120.1798220  20.6525720 147.2443500 123.0586320
  19.9624040 147.0515700 123.6932410  21.3958020 147.5278140 123.5910620
  11.3797720 145.0836990 114.0219660  11.0910770 145.6539850 114.7344640
  12.1243480 144.6041440 114.3850890  11.5667950 149.0257110 105.2322380
  11.4842620 149.9687870 105.3737370  11.2151010 148.8832020 104.3534730
  22.9288690 151.0841940 115.8940240  22.1969810 151.5928750 116.2430340
  22.5313030 150.2671920 115.5929020  19.3666080 147.7596140 114.2992730
  19.3702140 147.3186090 113.4497270  20.2617200 148.0813470 114.4064550
  15.2168460 147.6422630 113.2586940  14.8768510 148.1197860 114.0153990
  14.4545780 147.1887750 112.8988040  19.4286230 148.7608220 107.2899490
  19.5499050 148.7194700 108.2385310  19.0434740 149.6232370 107.1346220
  23.3914600 146.5375620 115.3063180  23.4087340 146.9884270 116.1505030
  23.1430180 145.6381260 115.5196620  18.4407730 151.0709360 106.6882790
  17.8724630 150.6227610 106.0618700  19.1496730 151.4302140 106.1547940
  26.8185350 143.9507800 121.1449560  27.1431120 143.2197460 121.6707540
  26.8541860 143.6321440 120.2430550  12.5314540 146.5641610 112.1751610
  12.2461460 146.1997280 113.0130230  12.4693400 145.8322070 111.5614750
  17.4573420 150.8606560 118.3642350  17.1530490 151.7398540 118.5892710
  18.4119880 150.9206350 118.3999790  22.2053130 145.4570870 108.8964980
  21.3917740 144.9584040 108.8210290  22.0115080 146.2969120 108.4801330
  24.9201520 149.8290520 107.1927140  25.8081140 150.1407750 107.0178480
  24.8906610 148.9562770 106.8007720  13.5137150 151.7009300 119.5113710
  13.1552090 152.3663150 120.0987050  13.2191710 150.8692850 119.8826330
  16.7150270 152.1593540 122.3953260  16.4150410 152.3050720 121.4981080
  17.4861510 151.5998830 122.3026650  27.1915790 151.1402360 106.6607000
  27.1079510 151.5716580 105.8103440  27.9109980 151.6000710 107.0933820
  12.0245200 151.7000560 106.1348310  12.8940050 151.9825360 106.4184230
  11.5335520 152.5136430 106.0197120  15.0891790 143.4311420 110.7279110
  14.9606420 143.4229320 111.6764030  14.2653810 143.7694510 110.3770120
  12.0885720 145.1902540 120.1885810  11.3744240 145.3899460 120.7938420
  12.5080760 144.4142110 120.5600610  23.5824500 147.6824850 117.9387260
  23.9505320 146.8620060 118.2666830  22.7222700 147.7426740 118.3542910
  26.9486530 146.6381790 108.7474820  26.3199690 146.7427460 108.0333050
  26.4538450 146.8578570 109.5368700  18.9170560 148.9167740 110.1632700
  18.2086710 149.3854080 110.6046310  19.2015040 148.2589750 110.7977890
  20.5426490 150.3364440 118.1625230  21.0411740 150.8110260 118.8277080
  20.6849440 149.4127960 118.3695260  22.9485990 145.6418400 111.6028490
  22.8253770 145.6604530 110.6538000  23.8970550 145.6897340 111.7226890
  17.1205580 147.2252820 107.5383410  17.9696110 147.6622970 107.4723600
  16.7536850 147.5373080 108.3655470  27.7493350 146.5532400 119.0053620
  27.2466950 147.2937800 119.3447430  28.5650010 146.9416400 118.6890410
  26.0415360 151.7965580 112.4514980  25.1005500 151.8115810 112.6262670
  26.3559430 151.0101540 112.8975280  14.7143760 150.9110250 106.6951830
  14.7947350 149.9637760 106.8069230  15.6063510 151.2417130 106.8012490
  14.2737640 150.8754760 122.8258070  14.3142980 150.5768630 123.7343300
  15.1283140 151.2762370 122.6665590  16.2143450 149.4546860 120.7932560
  15.6839910 148.9637810 120.1655900  16.8831520 149.8831060 120.2590490
  25.5843680 151.2612480 122.5612900  26.1664450 150.5064800 122.4733380
  25.7605450 151.7919920 121.7844380  16.7015750 146.4209230 120.8729850
  16.6072620 145.8029980 120.1480720  16.1213140 147.1475520 120.6459760
  19.4677190 144.9782470 117.9057240  19.0194490 145.0006730 117.0602790
  18.8342390 144.5801490 118.5027540  22.2100640 151.6052980 119.9107520
  22.3296850 151.0094120 120.6502360  23.0694640 151.6422670 119.4908820
  16.9474930 149.5483540 104.9319740  16.7463990 148.6850900 105.2933080
  16.7766980 149.4616900 103.9941340  18.9769410 148.1474330 121.1683340
  19.5669100 147.8390180 121.8561160  18.1589650 147.6754080 121.3243240
  23.7962840 147.7640140 121.4016360  23.1078360 147.1021680 121.3366350
  24.5168860 147.3178410 121.8464820  24.4263240 144.3591770 107.4606620
  24.7065530 143.5159670 107.8166040  23.6528970 144.5914880 107.9745370
  15.7457730 146.6484160 104.9197620  16.0483630 146.6551590 104.0116770
  16.4852320 146.2982020 105.4165280  18.9642660 145.5918780 105.9053820
  18.6164660 144.9142770 105.3256270  19.1655430 145.1308290 106.7197210
  12.3048300 152.1206430 112.3018190  11.6497140 151.8518070 111.6577890
  13.1426250 152.0110910 111.8520170  25.2538740 146.9147720 106.5236680
  25.6723620 146.7278700 105.6833340  24.9474800 146.0626770 106.8339610
  28.7528470 151.8271860 110.2212480  28.3772070 151.0599790 109.7893770
  28.0231590 152.2094560 110.7087410  13.3424230 152.5059000 116.8421530
  13.7097270 152.4186400 117.7217550  12.7735050 151.7425550 116.7428390
  28.1428090 150.9743380 119.8552000  27.9114180 150.7456130 118.9549950
  28.4032640 151.8942930 119.8096890  12.8940230 149.4168090 120.7479950
  11.9996280 149.3834850 121.0873660  13.4337780 149.6154880 121.5131200
  26.5816160 146.1999810 122.6331700  27.4586340 146.2083210 123.0165700
  26.5937000 145.4630650 122.0224050  11.5186380 149.3305360 108.2443520
  10.6150460 149.5935560 108.0695180  12.0027000 149.6016530 107.4643480
  28.0279430 150.0529350 113.5219720  28.5516910 149.5592000 112.8909890
  28.6138850 150.1879710 114.2667290  28.2069150 150.1369220 117.0439270
  27.2571860 150.1032760 117.1584260  28.3882160 151.0469330 116.8089040
  14.0613590 148.3870900 106.1537900  14.7705290 147.9654120 105.6685180
  13.3453530 148.4546130 105.5221250  13.7087750 144.4410230 105.1940550
  14.4315880 144.9819170 105.5121770  13.9812270 144.1673650 104.3182090
  27.5179400 149.3102700 109.4612130  28.0138520 149.0773570 110.2461010
  27.3195470 148.4714540 109.0449770  13.3979940 143.6916420 115.0963170
  14.0456130 143.1413800 114.6558330  13.8181780 143.9459570 115.9178980
  28.9466560 147.9463650 111.9949810  28.8365840 147.7919690 112.9332080
  29.7074150 147.4184590 111.7525220  27.2932280 143.8857780 118.4532810
  27.9304500 144.4991920 118.8192000  27.4407170 143.9218440 117.5082040
  29.8356830 145.7771570 105.2355950  30.7606140 145.6452750 105.0274240
  29.8132620 145.8564390 106.1892400  29.9095320 146.5482230 107.8612660
  29.1146820 146.4827350 108.3905570  30.1138600 147.4832870 107.8498010
  13.1511940 143.8472090 117.8388490  12.8026760 144.3035910 118.6046670
  12.8199640 142.9529220 117.9210920  20.6636760 145.0383970 121.3607910
  20.6025650 145.6305800 122.1103320  21.6037140 144.9309930 121.2158170
  23.3011320 144.6954030 121.0000200  23.9151730 145.0133320 120.3381280
  23.8460880 144.2102620 121.6196060  13.8232580 143.3748290 121.1139260
  14.3715570 143.1936340 120.3505370  13.8887890 142.5842400 121.6495570
  24.0419360 143.2586170 117.3269490  23.1679200 143.5921280 117.1242420
  23.9330110 142.7859350 118.1521360  24.9491340 145.4657040 118.7111210
  24.6204700 144.6508800 118.3312940  25.8973640 145.4226850 118.5876900
  21.7894180 144.1756010 116.2662400  21.0065970 144.6501510 116.5459160
  21.4957110 143.2710840 116.1575580  26.3415250 144.8779110 114.3111490
  26.7823340 144.8224210 113.4633090  26.0722840 145.7937120 114.3821670
  28.2053820 144.5094350 112.3220310  28.1442220 143.5655570 112.1751330
  28.9845850 144.6174440 112.8673770  13.1334590 144.4803490 108.7876120
  13.8913950 144.5932370 108.2140150  12.6711760 145.3172690 108.7419550
  19.6748400 146.5942760 111.7778430  18.8622910 146.2199650 111.4374310
  20.1790040 145.8387840 112.0799620  24.1773380 143.2585210 113.0161500
  24.7802750 143.8305420 113.4910020  23.4366370 143.8224650 112.7935400
  27.3207980 143.6606770 108.2901780  27.5158610 144.5590220 108.5569210
  26.5337850 143.4293850 108.7834730  15.5059740 145.0067540 107.3278090
  16.0352500 144.2197340 107.1986040  16.1388060 145.6858730 107.5613620
  17.6997580 144.7442680 110.3823480  17.0700320 144.0429990 110.5493610
  17.1602720 145.5046810 110.1656640  17.8253140 144.0226660 122.8175970
  17.5437410 144.5260260 122.0536790  18.2072840 143.2248410 122.4518100
  24.4268600 143.4380240 123.3956440  24.3134050 143.7574850 124.2907960
  25.2438340 143.8392750 123.0993720  23.3326750 151.4572710  93.7591180
  23.2520800 150.5427320  93.4882890  22.9191170 151.9539780  93.0530890
  13.8902570 148.5073430  90.3018600  13.0019270 148.8489400  90.1998480
  14.1743760 148.3073750  89.4099430  11.8535580 151.1079080  96.1858300
  12.4251690 150.3401280  96.1861940  11.8537120 151.4067840  95.2764910
  13.0960450 146.5163440  97.9727230  12.9163290 145.6189190  98.2529990
  12.6940530 147.0635310  98.6474180  21.9358950 148.7179300  95.8739540
  22.3123770 147.8451180  95.7613210  21.8378460 149.0538000  94.9829980
  16.0663960 147.0904930  91.3356980  16.1730710 147.9908660  91.6425740
  15.1556320 147.0422900  91.0451630  25.7183070 146.2129740  92.8067880
  26.5392690 145.7226310  92.8493360  25.7517150 146.8027400  93.5599720
  13.7147120 149.0123940  96.5809570  14.3957230 149.2762310  97.1996970
  13.3995170 148.1724810  96.9147580  17.9071690 150.0591300  95.6682160
  18.4149910 150.5572270  96.3087180  18.4384930 149.2826500  95.4921520
  30.0082620 148.2296490  99.3711510  29.3034790 148.6178200  98.8526620
  30.2740540 148.9246780  99.9732440  16.1907790 144.6989860  99.9345580
  16.1926230 145.2162250  99.1291480  15.3612100 144.2220040  99.9115510
  25.9544550 148.1530120  95.5795420  25.2500120 148.4415010  96.1598530
  26.3156710 148.9630230  95.2194980  15.8723120 146.4099820  97.9416030
  16.2139930 147.2541870  97.6469900  14.9338930 146.5583560  98.0581370
  29.0231470 147.5984910  95.9704630  28.0756380 147.6323890  96.1020060
  29.3481460 148.4123860  96.3553990  19.5551010 143.8982090  94.2660620
  19.8625990 143.3428980  93.5496120  18.6251710 144.0326550  94.0833610
  21.9300850 148.2347920  87.9987900  20.9904520 148.3961880  88.0840360
  22.2484110 148.9533600  87.4523890  25.4155620 149.7035760  98.9221800
  25.0026800 150.5289470  99.1761790  24.6831570 149.1180800  98.7298160
  17.5488410 152.4895660  93.7840470  17.1445410 151.7772910  93.2886370
  17.6351530 152.1448900  94.6728510  16.2617030 149.2638870  97.5639510
  16.8131620 149.3734210  96.7892760  16.7760540 149.6376470  98.2794740
  27.7310900 144.0180840  86.8269780  27.4183560 144.1107670  87.7268850
  28.4923370 144.5961870  86.7767210  14.2493040 151.3840640  91.2847120
  14.1290640 152.1102730  90.6728390  13.9393930 150.6143550  90.8075030
  28.9412190 148.7552340 102.8043920  28.3256460 149.2632010 102.2759380
  28.6208610 147.8550670 102.7469860  16.7156700 144.7275710  94.6670790
  16.2724850 145.5085250  94.3355310  17.2741690 145.0505600  95.3741730
  21.0026510 147.5944230 100.2706110  20.5405880 147.8027250 101.0826050
  20.6004620 146.7803580  99.9676780  26.0031020 148.8153180 101.4002770
  25.1524610 148.5158930 101.7211840  25.8432810 149.0595190 100.4886590
  23.0980730 150.3154930 103.5001560  23.4234140 149.4818680 103.1603790
  23.8861060 150.8383450 103.6479890  19.8315520 144.3486410  89.5476620
  19.2069700 144.3446280  90.2729930  19.7445640 143.4817370  89.1512590
  18.7532600 145.2723040  96.5260390  19.0504930 146.1785870  96.4452410
  19.3018160 144.7841820  95.9119960  16.5070920 149.8509280  92.3952040
  16.2811840 149.6346450  93.2998660  15.7263450 150.2837740  92.0498010
  23.7368680 149.8572650  90.9942690  23.1377570 150.5808450  90.8106310
  24.2848290 149.7949430  90.2119140  18.9470130 150.7494860 103.0612310
  18.8513730 149.8089590 102.9112710  19.7902110 150.9709930 102.6660380
  22.3433550 148.4936190  93.0245970  22.7363120 148.8108390  92.2114660
  22.7050400 147.6148070  93.1390490  14.0780670 147.1608530 101.2146090
  13.6844060 148.0083740 101.4218870  13.3899070 146.5234900 101.4054730
  20.6525720 147.2443500 104.2842830  19.9624040 147.0515700 104.9188920
  21.3958020 147.5278140 104.8167130  11.3797720 145.0836990  95.2476170
  11.0910770 145.6539850  95.9601150  12.1243480 144.6041440  95.6107400
  11.5667950 149.0257110  86.4578890  11.4842620 149.9687870  86.5993880
  11.2151010 148.8832020  85.5791240  22.9288690 151.0841940  97.1196750
  22.1969810 151.5928750  97.4686850  22.5313030 150.2671920  96.8185530
  19.3666080 147.7596140  95.5249240  19.3702140 147.3186090  94.6753780
  20.2617200 148.0813470  95.6321060  15.2168460 147.6422630  94.4843450
  14.8768510 148.1197860  95.2410500  14.4545780 147.1887750  94.1244550
  19.4286230 148.7608220  88.5156000  19.5499050 148.7194700  89.4641820
  19.0434740 149.6232370  88.3602730  23.3914600 146.5375620  96.5319690
  23.4087340 146.9884270  97.3761540  23.1430180 145.6381260  96.7453130
  18.4407730 151.0709360  87.9139300  17.8724630 150.6227610  87.2875210
  19.1496730 151.4302140  87.3804450  26.8185350 143.9507800 102.3706070
  27.1431120 143.2197460 102.8964050  26.8541860 143.6321440 101.4687060
  12.5314540 146.5641610  93.4008120  12.2461460 146.1997280  94.2386740
  12.4693400 145.8322070  92.7871260  17.4573420 150.8606560  99.5898860
  17.1530490 151.7398540  99.8149220  18.4119880 150.9206350  99.6256300
  22.2053130 145.4570870  90.1221490  21.3917740 144.9584040  90.0466800
  22.0115080 146.2969120  89.7057840  24.9201520 149.8290520  88.4183650
  25.8081140 150.1407750  88.2434990  24.8906610 148.9562770  88.0264230
  13.5137150 151.7009300 100.7370220  13.1552090 152.3663150 101.3243560
  13.2191710 150.8692850 101.1082840  16.7150270 152.1593540 103.6209770
  16.4150410 152.3050720 102.7237590  17.4861510 151.5998830 103.5283160
  27.1915790 151.1402360  87.8863510  27.1079510 151.5716580  87.0359950
  27.9109980 151.6000710  88.3190330  12.0245200 151.7000560  87.3604820
  12.8940050 151.9825360  87.6440740  11.5335520 152.5136430  87.2453630
  15.0891790 143.4311420  91.9535620  14.9606420 143.4229320  92.9020540
  14.2653810 143.7694510  91.6026630  12.0885720 145.1902540 101.4142320
  11.3744240 145.3899460 102.0194930  12.5080760 144.4142110 101.7857120
  23.5824500 147.6824850  99.1643770  23.9505320 146.8620060  99.4923340
  22.7222700 147.7426740  99.5799420  26.9486530 146.6381790  89.9731330
  26.3199690 146.7427460  89.2589560  26.4538450 146.8578570  90.7625210
  18.9170560 148.9167740  91.3889210  18.2086710 149.3854080  91.8302820
  19.2015040 148.2589750  92.0234400  20.5426490 150.3364440  99.3881740
  21.0411740 150.8110260 100.0533590  20.6849440 149.4127960  99.5951770
  22.9485990 145.6418400  92.8285000  22.8253770 145.6604530  91.8794510
  23.8970550 145.6897340  92.9483400  17.1205580 147.2252820  88.7639920
  17.9696110 147.6622970  88.6980110  16.7536850 147.5373080  89.5911980
  27.7493350 146.5532400 100.2310130  27.2466950 147.2937800 100.5703940
  28.5650010 146.9416400  99.9146920  26.0415360 151.7965580  93.6771490
  25.1005500 151.8115810  93.8519180  26.3559430 151.0101540  94.1231790
  14.7143760 150.9110250  87.9208340  14.7947350 149.9637760  88.0325740
  15.6063510 151.2417130  88.0269000  14.2737640 150.8754760 104.0514580
  14.3142980 150.5768630 104.9599810  15.1283140 151.2762370 103.8922100
  16.2143450 149.4546860 102.0189070  15.6839910 148.9637810 101.3912410
  16.8831520 149.8831060 101.4847000  25.5843680 151.2612480 103.7869410
  26.1664450 150.5064800 103.6989890  25.7605450 151.7919920 103.0100890
  16.7015750 146.4209230 102.0986360  16.6072620 145.8029980 101.3737230
  16.1213140 147.1475520 101.8716270  19.4677190 144.9782470  99.1313750
  19.0194490 145.0006730  98.2859300  18.8342390 144.5801490  99.7284050
  22.2100640 151.6052980 101.1364030  22.3296850 151.0094120 101.8758870
  23.0694640 151.6422670 100.7165330  16.9474930 149.5483540  86.1576250
  16.7463990 148.6850900  86.5189590  16.7766980 149.4616900  85.2197850
  18.9769410 148.1474330 102.3939850  19.5669100 147.8390180 103.0817670
  18.1589650 147.6754080 102.5499750  23.7962840 147.7640140 102.6272870
  23.1078360 147.1021680 102.5622860  24.5168860 147.3178410 103.0721330
  24.4263240 144.3591770  88.6863130  24.7065530 143.5159670  89.0422550
  23.6528970 144.5914880  89.2001880  15.7457730 146.6484160  86.1454130
  16.0483630 146.6551590  85.2373280  16.4852320 146.2982020  86.6421790
  18.9642660 145.5918780  87.1310330  18.6164660 144.9142770  86.5512780
  19.1655430 145.1308290  87.9453720  12.3048300 152.1206430  93.5274700
  11.6497140 151.8518070  92.8834400  13.1426250 152.0110910  93.0776680
  25.2538740 146.9147720  87.7493190  25.6723620 146.7278700  86.9089850
  24.9474800 146.0626770  88.0596120  28.7528470 151.8271860  91.4468990
  28.3772070 151.0599790  91.0150280  28.0231590 152.2094560  91.9343920
  13.3424230 152.5059000  98.0678040  13.7097270 152.4186400  98.9474060
  12.7735050 151.7425550  97.9684900  28.1428090 150.9743380 101.0808510
  27.9114180 150.7456130 100.1806460  28.4032640 151.8942930 101.0353400
  12.8940230 149.4168090 101.9736460  11.9996280 149.3834850 102.3130170
  13.4337780 149.6154880 102.7387710  26.5816160 146.1999810 103.8588210
  27.4586340 146.2083210 104.2422210  26.5937000 145.4630650 103.2480560
  11.5186380 149.3305360  89.4700030  10.6150460 149.5935560  89.2951690
  12.0027000 149.6016530  88.6899990  28.0279430 150.0529350  94.7476230
  28.5516910 149.5592000  94.1166400  28.6138850 150.1879710  95.4923800
  28.2069150 150.1369220  98.2695780  27.2571860 150.1032760  98.3840770
  28.3882160 151.0469330  98.0345550  14.0613590 148.3870900  87.3794410
  14.7705290 147.9654120  86.8941690  13.3453530 148.4546130  86.7477760
  13.7087750 144.4410230  86.4197060  14.4315880 144.9819170  86.7378280
  13.9812270 144.1673650  85.5438600  27.5179400 149.3102700  90.6868640
  28.0138520 149.0773570  91.4717520  27.3195470 148.4714540  90.2706280
  13.3979940 143.6916420  96.3219680  14.0456130 143.1413800  95.8814840
  13.8181780 143.9459570  97.1435490  28.9466560 147.9463650  93.2206320
  28.8365840 147.7919690  94.1588590  29.7074150 147.4184590  92.9781730
  27.2932280 143.8857780  99.6789320  27.9304500 144.4991920 100.0448510
  27.4407170 143.9218440  98.7338550  29.8356830 145.7771570  86.4612460
  30.7606140 145.6452750  86.2530750  29.8132620 145.8564390  87.4148910
  29.9095320 146.5482230  89.0869170  29.1146820 146.4827350  89.6162080
  30.1138600 147.4832870  89.0754520  13.1511940 143.8472090  99.0645000
  12.8026760 144.3035910  99.8303180  12.8199640 142.9529220  99.1467430
  20.6636760 145.0383970 102.5864420  20.6025650 145.6305800 103.3359830
  21.6037140 144.9309930 102.4414680  23.3011320 144.6954030 102.2256710
  23.9151730 145.0133320 101.5637790  23.8460880 144.2102620 102.8452570
  13.8232580 143.3748290 102.3395770  14.3715570 143.1936340 101.5761880
  13.8887890 142.5842400 102.8752080  24.0419360 143.2586170  98.5526000
  23.1679200 143.5921280  98.3498930  23.9330110 142.7859350  99.3777870
  24.9491340 145.4657040  99.9367720  24.6204700 144.6508800  99.5569450
  25.8973640 145.4226850  99.8133410  21.7894180 144.1756010  97.4918910
  21.0065970 144.6501510  97.7715670  21.4957110 143.2710840  97.3832090
  26.3415250 144.8779110  95.5368000  26.7823340 144.8224210  94.6889600
  26.0722840 145.7937120  95.6078180  28.2053820 144.5094350  93.5476820
  28.1442220 143.5655570  93.4007840  28.9845850 144.6174440  94.0930280
  13.1334590 144.4803490  90.0132630  13.8913950 144.5932370  89.4396660
  12.6711760 145.3172690  89.9676060  19.6748400 146.5942760  93.0034940
  18.8622910 146.2199650  92.6630820  20.1790040 145.8387840  93.3056130
  24.1773380 143.2585210  94.2418010  24.7802750 143.8305420  94.7166530
  23.4366370 143.8224650  94.0191910  27.3207980 143.6606770  89.5158290
  27.5158610 144.5590220  89.7825720  26.5337850 143.4293850  90.0091240
  15.5059740 145.0067540  88.5534600  16.0352500 144.2197340  88.4242550
  16.1388060 145.6858730  88.7870130  17.6997580 144.7442680  91.6079990
  17.0700320 144.0429990  91.7750120  17.1602720 145.5046810  91.3913150
  17.8253140 144.0226660 104.0432480  17.5437410 144.5260260 103.2793300
  18.2072840 143.2248410 103.6774610  24.4268600 143.4380240 104.6212950
  24.3134050 143.7574850 105.5164470  25.2438340 143.8392750 104.3250230
  23.3326750 151.4572710  74.9847690  23.2520800 150.5427320  74.7139400
  22.9191170 151.9539780  74.2787400  13.8902570 148.5073430  71.5275110
  13.0019270 148.8489400  71.4254990  14.1743760 148.3073750  70.6355940
  11.8535580 151.1079080  77.4114810  12.4251690 150.3401280  77.4118450
  11.8537120 151.4067840  76.5021420  13.0960450 146.5163440  79.1983740
  12.9163290 145.6189190  79.4786500  12.6940530 147.0635310  79.8730690
  21.9358950 148.7179300  77.0996050  22.3123770 147.8451180  76.9869720
  21.8378460 149.0538000  76.2086490  16.0663960 147.0904930  72.5613490
  16.1730710 147.9908660  72.8682250  15.1556320 147.0422900  72.2708140
  25.7183070 146.2129740  74.0324390  26.5392690 145.7226310  74.0749870
  25.7517150 146.8027400  74.7856230  13.7147120 149.0123940  77.8066080
  14.3957230 149.2762310  78.4253480  13.3995170 148.1724810  78.1404090
  17.9071690 150.0591300  76.8938670  18.4149910 150.5572270  77.5343690
  18.4384930 149.2826500  76.7178030  30.0082620 148.2296490  80.5968020
  29.3034790 148.6178200  80.0783130  30.2740540 148.9246780  81.1988950
  16.1907790 144.6989860  81.1602090  16.1926230 145.2162250  80.3547990
  15.3612100 144.2220040  81.1372020  25.9544550 148.1530120  76.8051930
  25.2500120 148.4415010  77.3855040  26.3156710 148.9630230  76.4451490
  15.8723120 146.4099820  79.1672540  16.2139930 147.2541870  78.8726410
  14.9338930 146.5583560  79.2837880  29.0231470 147.5984910  77.1961140
  28.0756380 147.6323890  77.3276570  29.3481460 148.4123860  77.5810500
  19.5551010 143.8982090  75.4917130  19.8625990 143.3428980  74.7752630
  18.6251710 144.0326550  75.3090120  21.9300850 148.2347920  69.2244410
  20.9904520 148.3961880  69.3096870  22.2484110 148.9533600  68.6780400
  25.4155620 149.7035760  80.1478310  25.0026800 150.5289470  80.4018300
  24.6831570 149.1180800  79.9554670  17.5488410 152.4895660  75.0096980
  17.1445410 151.7772910  74.5142880  17.6351530 152.1448900  75.8985020
  16.2617030 149.2638870  78.7896020  16.8131620 149.3734210  78.0149270
  16.7760540 149.6376470  79.5051250  27.7310900 144.0180840  68.0526290
  27.4183560 144.1107670  68.9525360  28.4923370 144.5961870  68.0023720
  14.2493040 151.3840640  72.5103630  14.1290640 152.1102730  71.8984900
  13.9393930 150.6143550  72.0331540  28.9412190 148.7552340  84.0300430
  28.3256460 149.2632010  83.5015890  28.6208610 147.8550670  83.9726370
  16.7156700 144.7275710  75.8927300  16.2724850 145.5085250  75.5611820
  17.2741690 145.0505600  76.5998240  21.0026510 147.5944230  81.4962620
  20.5405880 147.8027250  82.3082560  20.6004620 146.7803580  81.1933290
  26.0031020 148.8153180  82.6259280  25.1524610 148.5158930  82.9468350
  25.8432810 149.0595190  81.7143100  23.0980730 150.3154930  84.7258070
  23.4234140 149.4818680  84.3860300  23.8861060 150.8383450  84.8736400
  19.8315520 144.3486410  70.7733130  19.2069700 144.3446280  71.4986440
  19.7445640 143.4817370  70.3769100  18.7532600 145.2723040  77.7516900
  19.0504930 146.1785870  77.6708920  19.3018160 144.7841820  77.1376470
  16.5070920 149.8509280  73.6208550  16.2811840 149.6346450  74.5255170
  15.7263450 150.2837740  73.2754520  23.7368680 149.8572650  72.2199200
  23.1377570 150.5808450  72.0362820  24.2848290 149.7949430  71.4375650
  18.9470130 150.7494860  84.2868820  18.8513730 149.8089590  84.1369220
  19.7902110 150.9709930  83.8916890  22.3433550 148.4936190  74.2502480
  22.7363120 148.8108390  73.4371170  22.7050400 147.6148070  74.3647000
  14.0780670 147.1608530  82.4402600  13.6844060 148.0083740  82.6475380
  13.3899070 146.5234900  82.6311240  20.6525720 147.2443500  85.5099340
  19.9624040 147.0515700  86.1445430  21.3958020 147.5278140  86.0423640
  11.3797720 145.0836990  76.4732680  11.0910770 145.6539850  77.1857660
  12.1243480 144.6041440  76.8363910  11.5667950 149.0257110  67.6835400
  11.4842620 149.9687870  67.8250390  11.2151010 148.8832020  66.8047750
  22.9288690 151.0841940  78.3453260  22.1969810 151.5928750  78.6943360
  22.5313030 150.2671920  78.0442040  19.3666080 147.7596140  76.7505750
  19.3702140 147.3186090  75.9010290  20.2617200 148.0813470  76.8577570
  15.2168460 147.6422630  75.7099960  14.8768510 148.1197860  76.4667010
  14.4545780 147.1887750  75.3501060  19.4286230 148.7608220  69.7412510
  19.5499050 148.7194700  70.6898330  19.0434740 149.6232370  69.5859240
  23.3914600 146.5375620  77.7576200  23.4087340 146.9884270  78.6018050
  23.1430180 145.6381260  77.9709640  18.4407730 151.0709360  69.1395810
  17.8724630 150.6227610  68.5131720  19.1496730 151.4302140  68.6060960
  26.8185350 143.9507800  83.5962580  27.1431120 143.2197460  84.1220560
  26.8541860 143.6321440  82.6943570  12.5314540 146.5641610  74.6264630
  12.2461460 146.1997280  75.4643250  12.4693400 145.8322070  74.0127770
  17.4573420 150.8606560  80.8155370  17.1530490 151.7398540  81.0405730
  18.4119880 150.9206350  80.8512810  22.2053130 145.4570870  71.3478000
  21.3917740 144.9584040  71.2723310  22.0115080 146.2969120  70.9314350
  24.9201520 149.8290520  69.6440160  25.8081140 150.1407750  69.4691500
  24.8906610 148.9562770  69.2520740  13.5137150 151.7009300  81.9626730
  13.1552090 152.3663150  82.5500070  13.2191710 150.8692850  82.3339350
  16.7150270 152.1593540  84.8466280  16.4150410 152.3050720  83.9494100
  17.4861510 151.5998830  84.7539670  27.1915790 151.1402360  69.1120020
  27.1079510 151.5716580  68.2616460  27.9109980 151.6000710  69.5446840
  12.0245200 151.7000560  68.5861330  12.8940050 151.9825360  68.8697250
  11.5335520 152.5136430  68.4710140  15.0891790 143.4311420  73.1792130
  14.9606420 143.4229320  74.1277050  14.2653810 143.7694510  72.8283140
  12.0885720 145.1902540  82.6398830  11.3744240 145.3899460  83.2451440
  12.5080760 144.4142110  83.0113630  23.5824500 147.6824850  80.3900280
  23.9505320 146.8620060  80.7179850  22.7222700 147.7426740  80.8055930
  26.9486530 146.6381790  71.1987840  26.3199690 146.7427460  70.4846070
  26.4538450 146.8578570  71.9881720  18.9170560 148.9167740  72.6145720
  18.2086710 149.3854080  73.0559330  19.2015040 148.2589750  73.2490910
  20.5426490 150.3364440  80.6138250  21.0411740 150.8110260  81.2790100
  20.6849440 149.4127960  80.8208280  22.9485990 145.6418400  74.0541510
  22.8253770 145.6604530  73.1051020  23.8970550 145.6897340  74.1739910
  17.1205580 147.2252820  69.9896430  17.9696110 147.6622970  69.9236620
  16.7536850 147.5373080  70.8168490  27.7493350 146.5532400  81.4566640
  27.2466950 147.2937800  81.7960450  28.5650010 146.9416400  81.1403430
  26.0415360 151.7965580  74.9028000  25.1005500 151.8115810  75.0775690
  26.3559430 151.0101540  75.3488300  14.7143760 150.9110250  69.1464850
  14.7947350 149.9637760  69.2582250  15.6063510 151.2417130  69.2525510
  14.2737640 150.8754760  85.2771090  14.3142980 150.5768630  86.1856320
  15.1283140 151.2762370  85.1178610  16.2143450 149.4546860  83.2445580
  15.6839910 148.9637810  82.6168920  16.8831520 149.8831060  82.7103510
  25.5843680 151.2612480  85.0125920  26.1664450 150.5064800  84.9246400
  25.7605450 151.7919920  84.2357400  16.7015750 146.4209230  83.3242870
  16.6072620 145.8029980  82.5993740  16.1213140 147.1475520  83.0972780
  19.4677190 144.9782470  80.3570260  19.0194490 145.0006730  79.5115810
  18.8342390 144.5801490  80.9540560  22.2100640 151.6052980  82.3620540
  22.3296850 151.0094120  83.1015380  23.0694640 151.6422670  81.9421840
  16.9474930 149.5483540  67.3832760  16.7463990 148.6850900  67.7446100
  16.7766980 149.4616900  66.4454360  18.9769410 148.1474330  83.6196360
  19.5669100 147.8390180  84.3074180  18.1589650 147.6754080  83.7756260
  23.7962840 147.7640140  83.8529380  23.1078360 147.1021680  83.7879370
  24.5168860 147.3178410  84.2977840  24.4263240 144.3591770  69.9119640
  24.7065530 143.5159670  70.2679060  23.6528970 144.5914880  70.4258390
  15.7457730 146.6484160  67.3710640  16.0483630 146.6551590  66.4629790
  16.4852320 146.2982020  67.8678300  18.9642660 145.5918780  68.3566840
  18.6164660 144.9142770  67.7769290  19.1655430 145.1308290  69.1710230
  12.3048300 152.1206430  74.7531210  11.6497140 151.8518070  74.1090910
  13.1426250 152.0110910  74.3033190  25.2538740 146.9147720  68.9749700
  25.6723620 146.7278700  68.1346360  24.9474800 146.0626770  69.2852630
  28.7528470 151.8271860  72.6725500  28.3772070 151.0599790  72.2406790
  28.0231590 152.2094560  73.1600430  13.3424230 152.5059000  79.2934550
  13.7097270 152.4186400  80.1730570  12.7735050 151.7425550  79.1941410
  28.1428090 150.9743380  82.3065020  27.9114180 150.7456130  81.4062970
  28.4032640 151.8942930  82.2609910  12.8940230 149.4168090  83.1992970
  11.9996280 149.3834850  83.5386680  13.4337780 149.6154880  83.9644220
  26.5816160 146.1999810  85.0844720  27.4586340 146.2083210  85.4678720
  26.5937000 145.4630650  84.4737070  11.5186380 149.3305360  70.6956540
  10.6150460 149.5935560  70.5208200  12.0027000 149.6016530  69.9156500
  28.0279430 150.0529350  75.9732740  28.5516910 149.5592000  75.3422910
  28.6138850 150.1879710  76.7180310  28.2069150 150.1369220  79.4952290
  27.2571860 150.1032760  79.6097280  28.3882160 151.0469330  79.2602060
  14.0613590 148.3870900  68.6050920  14.7705290 147.9654120  68.1198200
  13.3453530 148.4546130  67.9734270  13.7087750 144.4410230  67.6453570
  14.4315880 144.9819170  67.9634790  13.9812270 144.1673650  66.7695110
  27.5179400 149.3102700  71.9125150  28.0138520 149.0773570  72.6974030
  27.3195470 148.4714540  71.4962790  13.3979940 143.6916420  77.5476190
  14.0456130 143.1413800  77.1071350  13.8181780 143.9459570  78.3692000
  28.9466560 147.9463650  74.4462830  28.8365840 147.7919690  75.3845100
  29.7074150 147.4184590  74.2038240  27.2932280 143.8857780  80.9045830
  27.9304500 144.4991920  81.2705020  27.4407170 143.9218440  79.9595060
  29.8356830 145.7771570  67.6868970  30.7606140 145.6452750  67.4787260
  29.8132620 145.8564390  68.6405420  29.9095320 146.5482230  70.3125680
  29.1146820 146.4827350  70.8418590  30.1138600 147.4832870  70.3011030
  13.1511940 143.8472090  80.2901510  12.8026760 144.3035910  81.0559690
  12.8199640 142.9529220  80.3723940  20.6636760 145.0383970  83.8120930
  20.6025650 145.6305800  84.5616340  21.6037140 144.9309930  83.6671190
  23.3011320 144.6954030  83.4513220  23.9151730 145.0133320  82.7894300
  23.8460880 144.2102620  84.0709080  13.8232580 143.3748290  83.5652280
  14.3715570 143.1936340  82.8018390  13.8887890 142.5842400  84.1008590
  24.0419360 143.2586170  79.7782510  23.1679200 143.5921280  79.5755440
  23.9330110 142.7859350  80.6034380  24.9491340 145.4657040  81.1624230
  24.6204700 144.6508800  80.7825960  25.8973640 145.4226850  81.0389920
  21.7894180 144.1756010  78.7175420  21.0065970 144.6501510  78.9972180
  21.4957110 143.2710840  78.6088600  26.3415250 144.8779110  76.7624510
  26.7823340 144.8224210  75.9146110  26.0722840 145.7937120  76.8334690
  28.2053820 144.5094350  74.7733330  28.1442220 143.5655570  74.6264350
  28.9845850 144.6174440  75.3186790  13.1334590 144.4803490  71.2389140
  13.8913950 144.5932370  70.6653170  12.6711760 145.3172690  71.1932570
  19.6748400 146.5942760  74.2291450  18.8622910 146.2199650  73.8887330
  20.1790040 145.8387840  74.5312640  24.1773380 143.2585210  75.4674520
  24.7802750 143.8305420  75.9423040  23.4366370 143.8224650  75.2448420
  27.3207980 143.6606770  70.7414800  27.5158610 144.5590220  71.0082230
  26.5337850 143.4293850  71.2347750  15.5059740 145.0067540  69.7791110
  16.0352500 144.2197340  69.6499060  16.1388060 145.6858730  70.0126640
  17.6997580 144.7442680  72.8336500  17.0700320 144.0429990  73.0006630
  17.1602720 145.5046810  72.6169660  17.8253140 144.0226660  85.2688990
  17.5437410 144.5260260  84.5049810  18.2072840 143.2248410  84.9031120
  24.4268600 143.4380240  85.8469460  24.3134050 143.7574850  86.7420980
  25.2438340 143.8392750  85.5506740  23.3326750 151.4572710  56.2104200
  23.2520800 150.5427320  55.9395910  22.9191170 151.9539780  55.5043910
  13.8902570 148.5073430  52.7531620  13.0019270 148.8489400  52.6511500
  14.1743760 148.3073750  51.8612450  11.8535580 151.1079080  58.6371320
  12.4251690 150.3401280  58.6374960  11.8537120 151.4067840  57.7277930
  13.0960450 146.5163440  60.4240250  12.9163290 145.6189190  60.7043010
  12.6940530 147.0635310  61.0987200  21.9358950 148.7179300  58.3252560
  22.3123770 147.8451180  58.2126230  21.8378460 149.0538000  57.4343000
  16.0663960 147.0904930  53.7870000  16.1730710 147.9908660  54.0938760
  15.1556320 147.0422900  53.4964650  25.7183070 146.2129740  55.2580900
  26.5392690 145.7226310  55.3006380  25.7517150 146.8027400  56.0112740
  13.7147120 149.0123940  59.0322590  14.3957230 149.2762310  59.6509990
  13.3995170 148.1724810  59.3660600  17.9071690 150.0591300  58.1195180
  18.4149910 150.5572270  58.7600200  18.4384930 149.2826500  57.9434540
  30.0082620 148.2296490  61.8224530  29.3034790 148.6178200  61.3039640
  30.2740540 148.9246780  62.4245460  16.1907790 144.6989860  62.3858600
  16.1926230 145.2162250  61.5804500  15.3612100 144.2220040  62.3628530
  25.9544550 148.1530120  58.0308440  25.2500120 148.4415010  58.6111550
  26.3156710 148.9630230  57.6708000  15.8723120 146.4099820  60.3929050
  16.2139930 147.2541870  60.0982920  14.9338930 146.5583560  60.5094390
  29.0231470 147.5984910  58.4217650  28.0756380 147.6323890  58.5533080
  29.3481460 148.4123860  58.8067010  19.5551010 143.8982090  56.7173640
  19.8625990 143.3428980  56.0009140  18.6251710 144.0326550  56.5346630
  21.9300850 148.2347920  50.4500920  20.9904520 148.3961880  50.5353380
  22.2484110 148.9533600  49.9036910  25.4155620 149.7035760  61.3734820
  25.0026800 150.5289470  61.6274810  24.6831570 149.1180800  61.1811180
  17.5488410 152.4895660  56.2353490  17.1445410 151.7772910  55.7399390
  17.6351530 152.1448900  57.1241530  16.2617030 149.2638870  60.0152530
  16.8131620 149.3734210  59.2405780  16.7760540 149.6376470  60.7307760
  27.7310900 144.0180840  49.2782800  27.4183560 144.1107670  50.1781870
  28.4923370 144.5961870  49.2280230  14.2493040 151.3840640  53.7360140
  14.1290640 152.1102730  53.1241410  13.9393930 150.6143550  53.2588050
  28.9412190 148.7552340  65.2556940  28.3256460 149.2632010  64.7272400
  28.6208610 147.8550670  65.1982880  16.7156700 144.7275710  57.1183810
  16.2724850 145.5085250  56.7868330  17.2741690 145.0505600  57.8254750
  21.0026510 147.5944230  62.7219130  20.5405880 147.8027250  63.5339070
  20.6004620 146.7803580  62.4189800  26.0031020 148.8153180  63.8515790
  25.1524610 148.5158930  64.1724860  25.8432810 149.0595190  62.9399610
  23.0980730 150.3154930  65.9514580  23.4234140 149.4818680  65.6116810
  23.8861060 150.8383450  66.0992910  19.8315520 144.3486410  51.9989640
  19.2069700 144.3446280  52.7242950  19.7445640 143.4817370  51.6025610
  18.7532600 145.2723040  58.9773410  19.0504930 146.1785870  58.8965430
  19.3018160 144.7841820  58.3632980  16.5070920 149.8509280  54.8465060
  16.2811840 149.6346450  55.7511680  15.7263450 150.2837740  54.5011030
  23.7368680 149.8572650  53.4455710  23.1377570 150.5808450  53.2619330
  24.2848290 149.7949430  52.6632160  18.9470130 150.7494860  65.5125330
  18.8513730 149.8089590  65.3625730  19.7902110 150.9709930  65.1173400
  22.3433550 148.4936190  55.4758990  22.7363120 148.8108390  54.6627680
  22.7050400 147.6148070  55.5903510  14.0780670 147.1608530  63.6659110
  13.6844060 148.0083740  63.8731890  13.3899070 146.5234900  63.8567750
  20.6525720 147.2443500  66.7355850  19.9624040 147.0515700  67.3701940
  21.3958020 147.5278140  67.2680150  11.3797720 145.0836990  57.6989190
  11.0910770 145.6539850  58.4114170  12.1243480 144.6041440  58.0620420
  11.5667950 149.0257110  48.9091910  11.4842620 149.9687870  49.0506900
  11.2151010 148.8832020  48.0304260  22.9288690 151.0841940  59.5709770
  22.1969810 151.5928750  59.9199870  22.5313030 150.2671920  59.2698550
  19.3666080 147.7596140  57.9762260  19.3702140 147.3186090  57.1266800
  20.2617200 148.0813470  58.0834080  15.2168460 147.6422630  56.9356470
  14.8768510 148.1197860  57.6923520  14.4545780 147.1887750  56.5757570
  19.4286230 148.7608220  50.9669020  19.5499050 148.7194700  51.9154840
  19.0434740 149.6232370  50.8115750  23.3914600 146.5375620  58.9832710
  23.4087340 146.9884270  59.8274560  23.1430180 145.6381260  59.1966150
  18.4407730 151.0709360  50.3652320  17.8724630 150.6227610  49.7388230
  19.1496730 151.4302140  49.8317470  26.8185350 143.9507800  64.8219090
  27.1431120 143.2197460  65.3477070  26.8541860 143.6321440  63.9200080
  12.5314540 146.5641610  55.8521140  12.2461460 146.1997280  56.6899760
  12.4693400 145.8322070  55.2384280  17.4573420 150.8606560  62.0411880
  17.1530490 151.7398540  62.2662240  18.4119880 150.9206350  62.0769320
  22.2053130 145.4570870  52.5734510  21.3917740 144.9584040  52.4979820
  22.0115080 146.2969120  52.1570860  24.9201520 149.8290520  50.8696670
  25.8081140 150.1407750  50.6948010  24.8906610 148.9562770  50.4777250
  13.5137150 151.7009300  63.1883240  13.1552090 152.3663150  63.7756580
  13.2191710 150.8692850  63.5595860  16.7150270 152.1593540  66.0722790
  16.4150410 152.3050720  65.1750610  17.4861510 151.5998830  65.9796180
  27.1915790 151.1402360  50.3376530  27.1079510 151.5716580  49.4872970
  27.9109980 151.6000710  50.7703350  12.0245200 151.7000560  49.8117840
  12.8940050 151.9825360  50.0953760  11.5335520 152.5136430  49.6966650
  15.0891790 143.4311420  54.4048640  14.9606420 143.4229320  55.3533560
  14.2653810 143.7694510  54.0539650  12.0885720 145.1902540  63.8655340
  11.3744240 145.3899460  64.4707950  12.5080760 144.4142110  64.2370140
  23.5824500 147.6824850  61.6156790  23.9505320 146.8620060  61.9436360
  22.7222700 147.7426740  62.0312440  26.9486530 146.6381790  52.4244350
  26.3199690 146.7427460  51.7102580  26.4538450 146.8578570  53.2138230
  18.9170560 148.9167740  53.8402230  18.2086710 149.3854080  54.2815840
  19.2015040 148.2589750  54.4747420  20.5426490 150.3364440  61.8394760
  21.0411740 150.8110260  62.5046610  20.6849440 149.4127960  62.0464790
  22.9485990 145.6418400  55.2798020  22.8253770 145.6604530  54.3307530
  23.8970550 145.6897340  55.3996420  17.1205580 147.2252820  51.2152940
  17.9696110 147.6622970  51.1493130  16.7536850 147.5373080  52.0425000
  27.7493350 146.5532400  62.6823150  27.2466950 147.2937800  63.0216960
  28.5650010 146.9416400  62.3659940  26.0415360 151.7965580  56.1284510
  25.1005500 151.8115810  56.3032200  26.3559430 151.0101540  56.5744810
  14.7143760 150.9110250  50.3721360  14.7947350 149.9637760  50.4838760
  15.6063510 151.2417130  50.4782020  14.2737640 150.8754760  66.5027600
  14.3142980 150.5768630  67.4112830  15.1283140 151.2762370  66.3435120
  16.2143450 149.4546860  64.4702090  15.6839910 148.9637810  63.8425430
  16.8831520 149.8831060  63.9360020  25.5843680 151.2612480  66.2382430
  26.1664450 150.5064800  66.1502910  25.7605450 151.7919920  65.4613910
  16.7015750 146.4209230  64.5499380  16.6072620 145.8029980  63.8250250
  16.1213140 147.1475520  64.3229290  19.4677190 144.9782470  61.5826770
  19.0194490 145.0006730  60.7372320  18.8342390 144.5801490  62.1797070
  22.2100640 151.6052980  63.5877050  22.3296850 151.0094120  64.3271890
  23.0694640 151.6422670  63.1678350  16.9474930 149.5483540  48.6089270
  16.7463990 148.6850900  48.9702610  16.7766980 149.4616900  47.6710870
  18.9769410 148.1474330  64.8452870  19.5669100 147.8390180  65.5330690
  18.1589650 147.6754080  65.0012770  23.7962840 147.7640140  65.0785890
  23.1078360 147.1021680  65.0135880  24.5168860 147.3178410  65.5234350
  24.4263240 144.3591770  51.1376150  24.7065530 143.5159670  51.4935570
  23.6528970 144.5914880  51.6514900  15.7457730 146.6484160  48.5967150
  16.0483630 146.6551590  47.6886300  16.4852320 146.2982020  49.0934810
  18.9642660 145.5918780  49.5823350  18.6164660 144.9142770  49.0025800
  19.1655430 145.1308290  50.3966740  12.3048300 152.1206430  55.9787720
  11.6497140 151.8518070  55.3347420  13.1426250 152.0110910  55.5289700
  25.2538740 146.9147720  50.2006210  25.6723620 146.7278700  49.3602870
  24.9474800 146.0626770  50.5109140  28.7528470 151.8271860  53.8982010
  28.3772070 151.0599790  53.4663300  28.0231590 152.2094560  54.3856940
  13.3424230 152.5059000  60.5191060  13.7097270 152.4186400  61.3987080
  12.7735050 151.7425550  60.4197920  28.1428090 150.9743380  63.5321530
  27.9114180 150.7456130  62.6319480  28.4032640 151.8942930  63.4866420
  12.8940230 149.4168090  64.4249480  11.9996280 149.3834850  64.7643190
  13.4337780 149.6154880  65.1900730  26.5816160 146.1999810  66.3101230
  27.4586340 146.2083210  66.6935230  26.5937000 145.4630650  65.6993580
  11.5186380 149.3305360  51.9213050  10.6150460 149.5935560  51.7464710
  12.0027000 149.6016530  51.1413010  28.0279430 150.0529350  57.1989250
  28.5516910 149.5592000  56.5679420  28.6138850 150.1879710  57.9436820
  28.2069150 150.1369220  60.7208800  27.2571860 150.1032760  60.8353790
  28.3882160 151.0469330  60.4858570  14.0613590 148.3870900  49.8307430
  14.7705290 147.9654120  49.3454710  13.3453530 148.4546130  49.1990780
  13.7087750 144.4410230  48.8710080  14.4315880 144.9819170  49.1891300
  13.9812270 144.1673650  47.9951620  27.5179400 149.3102700  53.1381660
  28.0138520 149.0773570  53.9230540  27.3195470 148.4714540  52.7219300
  13.3979940 143.6916420  58.7732700  14.0456130 143.1413800  58.3327860
  13.8181780 143.9459570  59.5948510  28.9466560 147.9463650  55.6719340
  28.8365840 147.7919690  56.6101610  29.7074150 147.4184590  55.4294750
  27.2932280 143.8857780  62.1302340  27.9304500 144.4991920  62.4961530
  27.4407170 143.9218440  61.1851570  29.8356830 145.7771570  48.9125480
  30.7606140 145.6452750  48.7043770  29.8132620 145.8564390  49.8661930
  29.9095320 146.5482230  51.5382190  29.1146820 146.4827350  52.0675100
  30.1138600 147.4832870  51.5267540  13.1511940 143.8472090  61.5158020
  12.8026760 144.3035910  62.2816200  12.8199640 142.9529220  61.5980450
  20.6636760 145.0383970  65.0377440  20.6025650 145.6305800  65.7872850
  21.6037140 144.9309930  64.8927700  23.3011320 144.6954030  64.6769730
  23.9151730 145.0133320  64.0150810  23.8460880 144.2102620  65.2965590
  13.8232580 143.3748290  64.7908790  14.3715570 143.1936340  64.0274900
  13.8887890 142.5842400  65.3265100  24.0419360 143.2586170  61.0039020
  23.1679200 143.5921280  60.8011950  23.9330110 142.7859350  61.8290890
  24.9491340 145.4657040  62.3880740  24.6204700 144.6508800  62.0082470
  25.8973640 145.4226850  62.2646430  21.7894180 144.1756010  59.9431930
  21.0065970 144.6501510  60.2228690  21.4957110 143.2710840  59.8345110
  26.3415250 144.8779110  57.9881020  26.7823340 144.8224210  57.1402620
  26.0722840 145.7937120  58.0591200  28.2053820 144.5094350  55.9989840
  28.1442220 143.5655570  55.8520860  28.9845850 144.6174440  56.5443300
  13.1334590 144.4803490  52.4645650  13.8913950 144.5932370  51.8909680
  12.6711760 145.3172690  52.4189080  19.6748400 146.5942760  55.4547960
  18.8622910 146.2199650  55.1143840  20.1790040 145.8387840  55.7569150
  24.1773380 143.2585210  56.6931030  24.7802750 143.8305420  57.1679550
  23.4366370 143.8224650  56.4704930  27.3207980 143.6606770  51.9671310
  27.5158610 144.5590220  52.2338740  26.5337850 143.4293850  52.4604260
  15.5059740 145.0067540  51.0047620  16.0352500 144.2197340  50.8755570
  16.1388060 145.6858730  51.2383150  17.6997580 144.7442680  54.0593010
  17.0700320 144.0429990  54.2263140  17.1602720 145.5046810  53.8426170
  17.8253140 144.0226660  66.4945500  17.5437410 144.5260260  65.7306320
  18.2072840 143.2248410  66.1287630  24.4268600 143.4380240  67.0725970
  24.3134050 143.7574850  67.9677490  25.2438340 143.8392750  66.7763250
  23.3326750 151.4572710  37.4360710  23.2520800 150.5427320  37.1652420
  22.9191170 151.9539780  36.7300420  13.8902570 148.5073430  33.9788130
  13.0019270 148.8489400  33.8768010  14.1743760 148.3073750  33.0868960
  11.8535580 151.1079080  39.8627830  12.4251690 150.3401280  39.8631470
  11.8537120 151.4067840  38.9534440  13.0960450 146.5163440  41.6496760
  12.9163290 145.6189190  41.9299520  12.6940530 147.0635310  42.3243710
  21.9358950 148.7179300  39.5509070  22.3123770 147.8451180  39.4382740
  21.8378460 149.0538000  38.6599510  16.0663960 147.0904930  35.0126510
  16.1730710 147.9908660  35.3195270  15.1556320 147.0422900  34.7221160
  25.7183070 146.2129740  36.4837410  26.5392690 145.7226310  36.5262890
  25.7517150 146.8027400  37.2369250  13.7147120 149.0123940  40.2579100
  14.3957230 149.2762310  40.8766500  13.3995170 148.1724810  40.5917110
  17.9071690 150.0591300  39.3451690  18.4149910 150.5572270  39.9856710
  18.4384930 149.2826500  39.1691050  30.0082620 148.2296490  43.0481040
  29.3034790 148.6178200  42.5296150  30.2740540 148.9246780  43.6501970
  16.1907790 144.6989860  43.6115110  16.1926230 145.2162250  42.8061010
  15.3612100 144.2220040  43.5885040  25.9544550 148.1530120  39.2564950
  25.2500120 148.4415010  39.8368060  26.3156710 148.9630230  38.8964510
  15.8723120 146.4099820  41.6185560  16.2139930 147.2541870  41.3239430
  14.9338930 146.5583560  41.7350900  29.0231470 147.5984910  39.6474160
  28.0756380 147.6323890  39.7789590  29.3481460 148.4123860  40.0323520
  19.5551010 143.8982090  37.9430150  19.8625990 143.3428980  37.2265650
  18.6251710 144.0326550  37.7603140  21.9300850 148.2347920  31.6757430
  20.9904520 148.3961880  31.7609890  22.2484110 148.9533600  31.1293420
  25.4155620 149.7035760  42.5991330  25.0026800 150.5289470  42.8531320
  24.6831570 149.1180800  42.4067690  17.5488410 152.4895660  37.4610000
  17.1445410 151.7772910  36.9655900  17.6351530 152.1448900  38.3498040
  16.2617030 149.2638870  41.2409040  16.8131620 149.3734210  40.4662290
  16.7760540 149.6376470  41.9564270  27.7310900 144.0180840  30.5039310
  27.4183560 144.1107670  31.4038380  28.4923370 144.5961870  30.4536740
  14.2493040 151.3840640  34.9616650  14.1290640 152.1102730  34.3497920
  13.9393930 150.6143550  34.4844560  28.9412190 148.7552340  46.4813450
  28.3256460 149.2632010  45.9528910  28.6208610 147.8550670  46.4239390
  16.7156700 144.7275710  38.3440320  16.2724850 145.5085250  38.0124840
  17.2741690 145.0505600  39.0511260  21.0026510 147.5944230  43.9475640
  20.5405880 147.8027250  44.7595580  20.6004620 146.7803580  43.6446310
  26.0031020 148.8153180  45.0772300  25.1524610 148.5158930  45.3981370
  25.8432810 149.0595190  44.1656120  23.0980730 150.3154930  47.1771090
  23.4234140 149.4818680  46.8373320  23.8861060 150.8383450  47.3249420
  19.8315520 144.3486410  33.2246150  19.2069700 144.3446280  33.9499460
  19.7445640 143.4817370  32.8282120  18.7532600 145.2723040  40.2029920
  19.0504930 146.1785870  40.1221940  19.3018160 144.7841820  39.5889490
  16.5070920 149.8509280  36.0721570  16.2811840 149.6346450  36.9768190
  15.7263450 150.2837740  35.7267540  23.7368680 149.8572650  34.6712220
  23.1377570 150.5808450  34.4875840  24.2848290 149.7949430  33.8888670
  18.9470130 150.7494860  46.7381840  18.8513730 149.8089590  46.5882240
  19.7902110 150.9709930  46.3429910  22.3433550 148.4936190  36.7015500
  22.7363120 148.8108390  35.8884190  22.7050400 147.6148070  36.8160020
  14.0780670 147.1608530  44.8915620  13.6844060 148.0083740  45.0988400
  13.3899070 146.5234900  45.0824260  20.6525720 147.2443500  47.9612360
  19.9624040 147.0515700  48.5958450  21.3958020 147.5278140  48.4936660
  11.3797720 145.0836990  38.9245700  11.0910770 145.6539850  39.6370680
  12.1243480 144.6041440  39.2876930  11.5667950 149.0257110  30.1348420
  11.4842620 149.9687870  30.2763410  11.2151010 148.8832020  29.2560770
  22.9288690 151.0841940  40.7966280  22.1969810 151.5928750  41.1456380
  22.5313030 150.2671920  40.4955060  19.3666080 147.7596140  39.2018770
  19.3702140 147.3186090  38.3523310  20.2617200 148.0813470  39.3090590
  15.2168460 147.6422630  38.1612980  14.8768510 148.1197860  38.9180030
  14.4545780 147.1887750  37.8014080  19.4286230 148.7608220  32.1925530
  19.5499050 148.7194700  33.1411350  19.0434740 149.6232370  32.0372260
  23.3914600 146.5375620  40.2089220  23.4087340 146.9884270  41.0531070
  23.1430180 145.6381260  40.4222660  18.4407730 151.0709360  31.5908830
  17.8724630 150.6227610  30.9644740  19.1496730 151.4302140  31.0573980
  26.8185350 143.9507800  46.0475600  27.1431120 143.2197460  46.5733580
  26.8541860 143.6321440  45.1456590  12.5314540 146.5641610  37.0777650
  12.2461460 146.1997280  37.9156270  12.4693400 145.8322070  36.4640790
  17.4573420 150.8606560  43.2668390  17.1530490 151.7398540  43.4918750
  18.4119880 150.9206350  43.3025830  22.2053130 145.4570870  33.7991020
  21.3917740 144.9584040  33.7236330  22.0115080 146.2969120  33.3827370
  24.9201520 149.8290520  32.0953180  25.8081140 150.1407750  31.9204520
  24.8906610 148.9562770  31.7033760  13.5137150 151.7009300  44.4139750
  13.1552090 152.3663150  45.0013090  13.2191710 150.8692850  44.7852370
  16.7150270 152.1593540  47.2979300  16.4150410 152.3050720  46.4007120
  17.4861510 151.5998830  47.2052690  27.1915790 151.1402360  31.5633040
  27.1079510 151.5716580  30.7129480  27.9109980 151.6000710  31.9959860
  12.0245200 151.7000560  31.0374350  12.8940050 151.9825360  31.3210270
  11.5335520 152.5136430  30.9223160  15.0891790 143.4311420  35.6305150
  14.9606420 143.4229320  36.5790070  14.2653810 143.7694510  35.2796160
  12.0885720 145.1902540  45.0911850  11.3744240 145.3899460  45.6964460
  12.5080760 144.4142110  45.4626650  23.5824500 147.6824850  42.8413300
  23.9505320 146.8620060  43.1692870  22.7222700 147.7426740  43.2568950
  26.9486530 146.6381790  33.6500860  26.3199690 146.7427460  32.9359090
  26.4538450 146.8578570  34.4394740  18.9170560 148.9167740  35.0658740
  18.2086710 149.3854080  35.5072350  19.2015040 148.2589750  35.7003930
  20.5426490 150.3364440  43.0651270  21.0411740 150.8110260  43.7303120
  20.6849440 149.4127960  43.2721300  22.9485990 145.6418400  36.5054530
  22.8253770 145.6604530  35.5564040  23.8970550 145.6897340  36.6252930
  17.1205580 147.2252820  32.4409450  17.9696110 147.6622970  32.3749640
  16.7536850 147.5373080  33.2681510  27.7493350 146.5532400  43.9079660
  27.2466950 147.2937800  44.2473470  28.5650010 146.9416400  43.5916450
  26.0415360 151.7965580  37.3541020  25.1005500 151.8115810  37.5288710
  26.3559430 151.0101540  37.8001320  14.7143760 150.9110250  31.5977870
  14.7947350 149.9637760  31.7095270  15.6063510 151.2417130  31.7038530
  14.2737640 150.8754760  47.7284110  14.3142980 150.5768630  48.6369340
  15.1283140 151.2762370  47.5691630  16.2143450 149.4546860  45.6958600
  15.6839910 148.9637810  45.0681940  16.8831520 149.8831060  45.1616530
  25.5843680 151.2612480  47.4638940  26.1664450 150.5064800  47.3759420
  25.7605450 151.7919920  46.6870420  16.7015750 146.4209230  45.7755890
  16.6072620 145.8029980  45.0506760  16.1213140 147.1475520  45.5485800
  19.4677190 144.9782470  42.8083280  19.0194490 145.0006730  41.9628830
  18.8342390 144.5801490  43.4053580  22.2100640 151.6052980  44.8133560
  22.3296850 151.0094120  45.5528400  23.0694640 151.6422670  44.3934860
  16.9474930 149.5483540  29.8345780  16.7463990 148.6850900  30.1959120
  16.7766980 149.4616900  28.8967380  18.9769410 148.1474330  46.0709380
  19.5669100 147.8390180  46.7587200  18.1589650 147.6754080  46.2269280
  23.7962840 147.7640140  46.3042400  23.1078360 147.1021680  46.2392390
  24.5168860 147.3178410  46.7490860  24.4263240 144.3591770  32.3632660
  24.7065530 143.5159670  32.7192080  23.6528970 144.5914880  32.8771410
  15.7457730 146.6484160  29.8223660  16.0483630 146.6551590  28.9142810
  16.4852320 146.2982020  30.3191320  18.9642660 145.5918780  30.8079860
  18.6164660 144.9142770  30.2282310  19.1655430 145.1308290  31.6223250
  12.3048300 152.1206430  37.2044230  11.6497140 151.8518070  36.5603930
  13.1426250 152.0110910  36.7546210  25.2538740 146.9147720  31.4262720
  25.6723620 146.7278700  30.5859380  24.9474800 146.0626770  31.7365650
  28.7528470 151.8271860  35.1238520  28.3772070 151.0599790  34.6919810
  28.0231590 152.2094560  35.6113450  13.3424230 152.5059000  41.7447570
  13.7097270 152.4186400  42.6243590  12.7735050 151.7425550  41.6454430
  28.1428090 150.9743380  44.7578040  27.9114180 150.7456130  43.8575990
  28.4032640 151.8942930  44.7122930  12.8940230 149.4168090  45.6505990
  11.9996280 149.3834850  45.9899700  13.4337780 149.6154880  46.4157240
  26.5816160 146.1999810  47.5357740  27.4586340 146.2083210  47.9191740
  26.5937000 145.4630650  46.9250090  11.5186380 149.3305360  33.1469560
  10.6150460 149.5935560  32.9721220  12.0027000 149.6016530  32.3669520
  28.0279430 150.0529350  38.4245760  28.5516910 149.5592000  37.7935930
  28.6138850 150.1879710  39.1693330  28.2069150 150.1369220  41.9465310
  27.2571860 150.1032760  42.0610300  28.3882160 151.0469330  41.7115080
  14.0613590 148.3870900  31.0563940  14.7705290 147.9654120  30.5711220
  13.3453530 148.4546130  30.4247290  13.7087750 144.4410230  30.0966590
  14.4315880 144.9819170  30.4147810  13.9812270 144.1673650  29.2208130
  27.5179400 149.3102700  34.3638170  28.0138520 149.0773570  35.1487050
  27.3195470 148.4714540  33.9475810  13.3979940 143.6916420  39.9989210
  14.0456130 143.1413800  39.5584370  13.8181780 143.9459570  40.8205020
  28.9466560 147.9463650  36.8975850  28.8365840 147.7919690  37.8358120
  29.7074150 147.4184590  36.6551260  27.2932280 143.8857780  43.3558850
  27.9304500 144.4991920  43.7218040  27.4407170 143.9218440  42.4108080
  29.8356830 145.7771570  30.1381990  30.7606140 145.6452750  29.9300280
  29.8132620 145.8564390  31.0918440  29.9095320 146.5482230  32.7638700
  29.1146820 146.4827350  33.2931610  30.1138600 147.4832870  32.7524050
  13.1511940 143.8472090  42.7414530  12.8026760 144.3035910  43.5072710
  12.8199640 142.9529220  42.8236960  20.6636760 145.0383970  46.2633950
  20.6025650 145.6305800  47.0129360  21.6037140 144.9309930  46.1184210
  23.3011320 144.6954030  45.9026240  23.9151730 145.0133320  45.2407320
  23.8460880 144.2102620  46.5222100  13.8232580 143.3748290  46.0165300
  14.3715570 143.1936340  45.2531410  13.8887890 142.5842400  46.5521610
  24.0419360 143.2586170  42.2295530  23.1679200 143.5921280  42.0268460
  23.9330110 142.7859350  43.0547400  24.9491340 145.4657040  43.6137250
  24.6204700 144.6508800  43.2338980  25.8973640 145.4226850  43.4902940
  21.7894180 144.1756010  41.1688440  21.0065970 144.6501510  41.4485200
  21.4957110 143.2710840  41.0601620  26.3415250 144.8779110  39.2137530
  26.7823340 144.8224210  38.3659130  26.0722840 145.7937120  39.2847710
  28.2053820 144.5094350  37.2246350  28.1442220 143.5655570  37.0777370
  28.9845850 144.6174440  37.7699810  13.1334590 144.4803490  33.6902160
  13.8913950 144.5932370  33.1166190  12.6711760 145.3172690  33.6445590
  19.6748400 146.5942760  36.6804470  18.8622910 146.2199650  36.3400350
  20.1790040 145.8387840  36.9825660  24.1773380 143.2585210  37.9187540
  24.7802750 143.8305420  38.3936060  23.4366370 143.8224650  37.6961440
  27.3207980 143.6606770  33.1927820  27.5158610 144.5590220  33.4595250
  26.5337850 143.4293850  33.6860770  15.5059740 145.0067540  32.2304130
  16.0352500 144.2197340  32.1012080  16.1388060 145.6858730  32.4639660
  17.6997580 144.7442680  35.2849520  17.0700320 144.0429990  35.4519650
  17.1602720 145.5046810  35.0682680  17.8253140 144.0226660  47.7202010
  17.5437410 144.5260260  46.9562830  18.2072840 143.2248410  47.3544140
  24.4268600 143.4380240  48.2982480  24.3134050 143.7574850  49.1934000
  25.2438340 143.8392750  48.0019760  23.3326750 151.4572710  18.6617220
  23.2520800 150.5427320  18.3908930  22.9191170 151.9539780  17.9556930
  13.8902570 148.5073430  15.2044640  13.0019270 148.8489400  15.1024520
  14.1743760 148.3073750  14.3125470  11.8535580 151.1079080  21.0884340
  12.4251690 150.3401280  21.0887980  11.8537120 151.4067840  20.1790950
  13.0960450 146.5163440  22.8753270  12.9163290 145.6189190  23.1556030
  12.6940530 147.0635310  23.5500220  21.9358950 148.7179300  20.7765580
  22.3123770 147.8451180  20.6639250  21.8378460 149.0538000  19.8856020
  16.0663960 147.0904930  16.2383020  16.1730710 147.9908660  16.5451780
  15.1556320 147.0422900  15.9477670  25.7183070 146.2129740  17.7093920
  26.5392690 145.7226310  17.7519400  25.7517150 146.8027400  18.4625760
  13.7147120 149.0123940  21.4835610  14.3957230 149.2762310  22.1023010
  13.3995170 148.1724810  21.8173620  17.9071690 150.0591300  20.5708200
  18.4149910 150.5572270  21.2113220  18.4384930 149.2826500  20.3947560
  30.0082620 148.2296490  24.2737550  29.3034790 148.6178200  23.7552660
  30.2740540 148.9246780  24.8758480  16.1907790 144.6989860  24.8371620
  16.1926230 145.2162250  24.0317520  15.3612100 144.2220040  24.8141550
  25.9544550 148.1530120  20.4821460  25.2500120 148.4415010  21.0624570
  26.3156710 148.9630230  20.1221020  15.8723120 146.4099820  22.8442070
  16.2139930 147.2541870  22.5495940  14.9338930 146.5583560  22.9607410
  29.0231470 147.5984910  20.8730670  28.0756380 147.6323890  21.0046100
  29.3481460 148.4123860  21.2580030  19.5551010 143.8982090  19.1686660
  19.8625990 143.3428980  18.4522160  18.6251710 144.0326550  18.9859650
  21.9300850 148.2347920  12.9013940  20.9904520 148.3961880  12.9866400
  22.2484110 148.9533600  12.3549930  25.4155620 149.7035760  23.8247840
  25.0026800 150.5289470  24.0787830  24.6831570 149.1180800  23.6324200
  17.5488410 152.4895660  18.6866510  17.1445410 151.7772910  18.1912410
  17.6351530 152.1448900  19.5754550  16.2617030 149.2638870  22.4665550
  16.8131620 149.3734210  21.6918800  16.7760540 149.6376470  23.1820780
  27.7310900 144.0180840  11.7295820  27.4183560 144.1107670  12.6294890
  28.4923370 144.5961870  11.6793250  14.2493040 151.3840640  16.1873160
  14.1290640 152.1102730  15.5754430  13.9393930 150.6143550  15.7101070
  28.9412190 148.7552340  27.7069960  28.3256460 149.2632010  27.1785420
  28.6208610 147.8550670  27.6495900  16.7156700 144.7275710  19.5696830
  16.2724850 145.5085250  19.2381350  17.2741690 145.0505600  20.2767770
  21.0026510 147.5944230  25.1732150  20.5405880 147.8027250  25.9852090
  20.6004620 146.7803580  24.8702820  26.0031020 148.8153180  26.3028810
  25.1524610 148.5158930  26.6237880  25.8432810 149.0595190  25.3912630
  23.0980730 150.3154930  28.4027600  23.4234140 149.4818680  28.0629830
  23.8861060 150.8383450  28.5505930  19.8315520 144.3486410  14.4502660
  19.2069700 144.3446280  15.1755970  19.7445640 143.4817370  14.0538630
  18.7532600 145.2723040  21.4286430  19.0504930 146.1785870  21.3478450
  19.3018160 144.7841820  20.8146000  16.5070920 149.8509280  17.2978080
  16.2811840 149.6346450  18.2024700  15.7263450 150.2837740  16.9524050
  23.7368680 149.8572650  15.8968730  23.1377570 150.5808450  15.7132350
  24.2848290 149.7949430  15.1145180  18.9470130 150.7494860  27.9638350
  18.8513730 149.8089590  27.8138750  19.7902110 150.9709930  27.5686420
  22.3433550 148.4936190  17.9272010  22.7363120 148.8108390  17.1140700
  22.7050400 147.6148070  18.0416530  14.0780670 147.1608530  26.1172130
  13.6844060 148.0083740  26.3244910  13.3899070 146.5234900  26.3080770
  20.6525720 147.2443500  29.1868870  19.9624040 147.0515700  29.8214960
  21.3958020 147.5278140  29.7193170  11.3797720 145.0836990  20.1502210
  11.0910770 145.6539850  20.8627190  12.1243480 144.6041440  20.5133440
  11.5667950 149.0257110  11.3604930  11.4842620 149.9687870  11.5019920
  11.2151010 148.8832020  10.4817280  22.9288690 151.0841940  22.0222790
  22.1969810 151.5928750  22.3712890  22.5313030 150.2671920  21.7211570
  19.3666080 147.7596140  20.4275280  19.3702140 147.3186090  19.5779820
  20.2617200 148.0813470  20.5347100  15.2168460 147.6422630  19.3869490
  14.8768510 148.1197860  20.1436540  14.4545780 147.1887750  19.0270590
  19.4286230 148.7608220  13.4182040  19.5499050 148.7194700  14.3667860
  19.0434740 149.6232370  13.2628770  23.3914600 146.5375620  21.4345730
  23.4087340 146.9884270  22.2787580  23.1430180 145.6381260  21.6479170
  18.4407730 151.0709360  12.8165340  17.8724630 150.6227610  12.1901250
  19.1496730 151.4302140  12.2830490  26.8185350 143.9507800  27.2732110
  27.1431120 143.2197460  27.7990090  26.8541860 143.6321440  26.3713100
  12.5314540 146.5641610  18.3034160  12.2461460 146.1997280  19.1412780
  12.4693400 145.8322070  17.6897300  17.4573420 150.8606560  24.4924900
  17.1530490 151.7398540  24.7175260  18.4119880 150.9206350  24.5282340
  22.2053130 145.4570870  15.0247530  21.3917740 144.9584040  14.9492840
  22.0115080 146.2969120  14.6083880  24.9201520 149.8290520  13.3209690
  25.8081140 150.1407750  13.1461030  24.8906610 148.9562770  12.9290270
  13.5137150 151.7009300  25.6396260  13.1552090 152.3663150  26.2269600
  13.2191710 150.8692850  26.0108880  16.7150270 152.1593540  28.5235810
  16.4150410 152.3050720  27.6263630  17.4861510 151.5998830  28.4309200
  27.1915790 151.1402360  12.7889550  27.1079510 151.5716580  11.9385990
  27.9109980 151.6000710  13.2216370  12.0245200 151.7000560  12.2630860
  12.8940050 151.9825360  12.5466780  11.5335520 152.5136430  12.1479670
  15.0891790 143.4311420  16.8561660  14.9606420 143.4229320  17.8046580
  14.2653810 143.7694510  16.5052670  12.0885720 145.1902540  26.3168360
  11.3744240 145.3899460  26.9220970  12.5080760 144.4142110  26.6883160
  23.5824500 147.6824850  24.0669810  23.9505320 146.8620060  24.3949380
  22.7222700 147.7426740  24.4825460  26.9486530 146.6381790  14.8757370
  26.3199690 146.7427460  14.1615600  26.4538450 146.8578570  15.6651250
  18.9170560 148.9167740  16.2915250  18.2086710 149.3854080  16.7328860
  19.2015040 148.2589750  16.9260440  20.5426490 150.3364440  24.2907780
  21.0411740 150.8110260  24.9559630  20.6849440 149.4127960  24.4977810
  22.9485990 145.6418400  17.7311040  22.8253770 145.6604530  16.7820550
  23.8970550 145.6897340  17.8509440  17.1205580 147.2252820  13.6665960
  17.9696110 147.6622970  13.6006150  16.7536850 147.5373080  14.4938020
  27.7493350 146.5532400  25.1336170  27.2466950 147.2937800  25.4729980
  28.5650010 146.9416400  24.8172960  26.0415360 151.7965580  18.5797530
  25.1005500 151.8115810  18.7545220  26.3559430 151.0101540  19.0257830
  14.7143760 150.9110250  12.8234380  14.7947350 149.9637760  12.9351780
  15.6063510 151.2417130  12.9295040  14.2737640 150.8754760  28.9540620
  14.3142980 150.5768630  29.8625850  15.1283140 151.2762370  28.7948140
  16.2143450 149.4546860  26.9215110  15.6839910 148.9637810  26.2938450
  16.8831520 149.8831060  26.3873040  25.5843680 151.2612480  28.6895450
  26.1664450 150.5064800  28.6015930  25.7605450 151.7919920  27.9126930
  16.7015750 146.4209230  27.0012400  16.6072620 145.8029980  26.2763270
  16.1213140 147.1475520  26.7742310  19.4677190 144.9782470  24.0339790
  19.0194490 145.0006730  23.1885340  18.8342390 144.5801490  24.6310090
  22.2100640 151.6052980  26.0390070  22.3296850 151.0094120  26.7784910
  23.0694640 151.6422670  25.6191370  16.9474930 149.5483540  11.0602290
  16.7463990 148.6850900  11.4215630  16.7766980 149.4616900  10.1223890
  18.9769410 148.1474330  27.2965890  19.5669100 147.8390180  27.9843710
  18.1589650 147.6754080  27.4525790  23.7962840 147.7640140  27.5298910
  23.1078360 147.1021680  27.4648900  24.5168860 147.3178410  27.9747370
  24.4263240 144.3591770  13.5889170  24.7065530 143.5159670  13.9448590
  23.6528970 144.5914880  14.1027920  15.7457730 146.6484160  11.0480170
  16.0483630 146.6551590  10.1399320  16.4852320 146.2982020  11.5447830
  18.9642660 145.5918780  12.0336370  18.6164660 144.9142770  11.4538820
  19.1655430 145.1308290  12.8479760  12.3048300 152.1206430  18.4300740
  11.6497140 151.8518070  17.7860440  13.1426250 152.0110910  17.9802720
  25.2538740 146.9147720  12.6519230  25.6723620 146.7278700  11.8115890
  24.9474800 146.0626770  12.9622160  28.7528470 151.8271860  16.3495030
  28.3772070 151.0599790  15.9176320  28.0231590 152.2094560  16.8369960
  13.3424230 152.5059000  22.9704080  13.7097270 152.4186400  23.8500100
  12.7735050 151.7425550  22.8710940  28.1428090 150.9743380  25.9834550
  27.9114180 150.7456130  25.0832500  28.4032640 151.8942930  25.9379440
  12.8940230 149.4168090  26.8762500  11.9996280 149.3834850  27.2156210
  13.4337780 149.6154880  27.6413750  26.5816160 146.1999810  28.7614250
  27.4586340 146.2083210  29.1448250  26.5937000 145.4630650  28.1506600
  11.5186380 149.3305360  14.3726070  10.6150460 149.5935560  14.1977730
  12.0027000 149.6016530  13.5926030  28.0279430 150.0529350  19.6502270
  28.5516910 149.5592000  19.0192440  28.6138850 150.1879710  20.3949840
  28.2069150 150.1369220  23.1721820  27.2571860 150.1032760  23.2866810
  28.3882160 151.0469330  22.9371590  14.0613590 148.3870900  12.2820450
  14.7705290 147.9654120  11.7967730  13.3453530 148.4546130  11.6503800
  13.7087750 144.4410230  11.3223100  14.4315880 144.9819170  11.6404320
  13.9812270 144.1673650  10.4464640  27.5179400 149.3102700  15.5894680
  28.0138520 149.0773570  16.3743560  27.3195470 148.4714540  15.1732320
  13.3979940 143.6916420  21.2245720  14.0456130 143.1413800  20.7840880
  13.8181780 143.9459570  22.0461530  28.9466560 147.9463650  18.1232360
  28.8365840 147.7919690  19.0614630  29.7074150 147.4184590  17.8807770
  27.2932280 143.8857780  24.5815360  27.9304500 144.4991920  24.9474550
  27.4407170 143.9218440  23.6364590  29.8356830 145.7771570  11.3638500
  30.7606140 145.6452750  11.1556790  29.8132620 145.8564390  12.3174950
  29.9095320 146.5482230  13.9895210  29.1146820 146.4827350  14.5188120
  30.1138600 147.4832870  13.9780560  13.1511940 143.8472090  23.9671040
  12.8026760 144.3035910  24.7329220  12.8199640 142.9529220  24.0493470
  20.6636760 145.0383970  27.4890460  20.6025650 145.6305800  28.2385870
  21.6037140 144.9309930  27.3440720  23.3011320 144.6954030  27.1282750
  23.9151730 145.0133320  26.4663830  23.8460880 144.2102620  27.7478610
  13.8232580 143.3748290  27.2421810  14.3715570 143.1936340  26.4787920
  13.8887890 142.5842400  27.7778120  24.0419360 143.2586170  23.4552040
  23.1679200 143.5921280  23.2524970  23.9330110 142.7859350  24.2803910
  24.9491340 145.4657040  24.8393760  24.6204700 144.6508800  24.4595490
  25.8973640 145.4226850  24.7159450  21.7894180 144.1756010  22.3944950
  21.0065970 144.6501510  22.6741710  21.4957110 143.2710840  22.2858130
  26.3415250 144.8779110  20.4394040  26.7823340 144.8224210  19.5915640
  26.0722840 145.7937120  20.5104220  28.2053820 144.5094350  18.4502860
  28.1442220 143.5655570  18.3033880  28.9845850 144.6174440  18.9956320
  13.1334590 144.4803490  14.9158670  13.8913950 144.5932370  14.3422700
  12.6711760 145.3172690  14.8702100  19.6748400 146.5942760  17.9060980
  18.8622910 146.2199650  17.5656860  20.1790040 145.8387840  18.2082170
  24.1773380 143.2585210  19.1444050  24.7802750 143.8305420  19.6192570
  23.4366370 143.8224650  18.9217950  27.3207980 143.6606770  14.4184330
  27.5158610 144.5590220  14.6851760  26.5337850 143.4293850  14.9117280
  15.5059740 145.0067540  13.4560640  16.0352500 144.2197340  13.3268590
  16.1388060 145.6858730  13.6896170  17.6997580 144.7442680  16.5106030
  17.0700320 144.0429990  16.6776160  17.1602720 145.5046810  16.2939190
  17.8253140 144.0226660  28.9458520  17.5437410 144.5260260  28.1819340
  18.2072840 143.2248410  28.5800650  24.4268600 143.4380240  29.5238990
  24.3134050 143.7574850  30.4190510  25.2438340 143.8392750  29.2276270
  13.0960450 146.5163440   4.1009780  12.9163290 145.6189190   4.3812540
  12.6940530 147.0635310   4.7756730  13.7147120 149.0123940   2.7092120
  14.3957230 149.2762310   3.3279520  13.3995170 148.1724810   3.0430130
  17.9071690 150.0591300   1.7964710  18.4149910 150.5572270   2.4369730
  18.4384930 149.2826500   1.6204070  30.0082620 148.2296490   5.4994060
  29.3034790 148.6178200   4.9809170  30.2740540 148.9246780   6.1014990
  16.1907790 144.6989860   6.0628130  16.1926230 145.2162250   5.2574030
  15.3612100 144.2220040   6.0398060  15.8723120 146.4099820   4.0698580
  16.2139930 147.2541870   3.7752450  14.9338930 146.5583560   4.1863920
  29.0231470 147.5984910   2.0987180  28.0756380 147.6323890   2.2302610
  29.3481460 148.4123860   2.4836540  25.4155620 149.7035760   5.0504350
  25.0026800 150.5289470   5.3044340  24.6831570 149.1180800   4.8580710
  16.2617030 149.2638870   3.6922060  16.8131620 149.3734210   2.9175310
  16.7760540 149.6376470   4.4077290  28.9412190 148.7552340   8.9326470
  28.3256460 149.2632010   8.4041930  28.6208610 147.8550670   8.8752410
  21.0026510 147.5944230   6.3988660  20.5405880 147.8027250   7.2108600
  20.6004620 146.7803580   6.0959330  26.0031020 148.8153180   7.5285320
  25.1524610 148.5158930   7.8494390  25.8432810 149.0595190   6.6169140
  23.0980730 150.3154930   9.6284110  23.4234140 149.4818680   9.2886340
  23.8861060 150.8383450   9.7762440  18.7532600 145.2723040   2.6542940
  19.0504930 146.1785870   2.5734960  19.3018160 144.7841820   2.0402510
  18.9470130 150.7494860   9.1894860  18.8513730 149.8089590   9.0395260
  19.7902110 150.9709930   8.7942930  14.0780670 147.1608530   7.3428640
  13.6844060 148.0083740   7.5501420  13.3899070 146.5234900   7.5337280
  20.6525720 147.2443500  10.4125380  19.9624040 147.0515700  11.0471470
  21.3958020 147.5278140  10.9449680  22.9288690 151.0841940   3.2479300
  22.1969810 151.5928750   3.5969400  22.5313030 150.2671920   2.9468080
  23.3914600 146.5375620   2.6602240  23.4087340 146.9884270   3.5044090
  23.1430180 145.6381260   2.8735680  26.8185350 143.9507800   8.4988620
  27.1431120 143.2197460   9.0246600  26.8541860 143.6321440   7.5969610
  17.4573420 150.8606560   5.7181410  17.1530490 151.7398540   5.9431770
  18.4119880 150.9206350   5.7538850  13.5137150 151.7009300   6.8652770
  13.1552090 152.3663150   7.4526110  13.2191710 150.8692850   7.2365390
  16.7150270 152.1593540   9.7492320  16.4150410 152.3050720   8.8520140
  17.4861510 151.5998830   9.6565710  12.0885720 145.1902540   7.5424870
  11.3744240 145.3899460   8.1477480  12.5080760 144.4142110   7.9139670
  23.5824500 147.6824850   5.2926320  23.9505320 146.8620060   5.6205890
  22.7222700 147.7426740   5.7081970  20.5426490 150.3364440   5.5164290
  21.0411740 150.8110260   6.1816140  20.6849440 149.4127960   5.7234320
  27.7493350 146.5532400   6.3592680  27.2466950 147.2937800   6.6986490
  28.5650010 146.9416400   6.0429470  14.2737640 150.8754760  10.1797130
  14.3142980 150.5768630  11.0882360  15.1283140 151.2762370  10.0204650
  16.2143450 149.4546860   8.1471620  15.6839910 148.9637810   7.5194960
  16.8831520 149.8831060   7.6129550  25.5843680 151.2612480   9.9151960
  26.1664450 150.5064800   9.8272440  25.7605450 151.7919920   9.1383440
  16.7015750 146.4209230   8.2268910  16.6072620 145.8029980   7.5019780
  16.1213140 147.1475520   7.9998820  19.4677190 144.9782470   5.2596300
  19.0194490 145.0006730   4.4141850  18.8342390 144.5801490   5.8566600
  22.2100640 151.6052980   7.2646580  22.3296850 151.0094120   8.0041420
  23.0694640 151.6422670   6.8447880  18.9769410 148.1474330   8.5222400
  19.5669100 147.8390180   9.2100220  18.1589650 147.6754080   8.6782300
  23.7962840 147.7640140   8.7555420  23.1078360 147.1021680   8.6905410
  24.5168860 147.3178410   9.2003880  13.3424230 152.5059000   4.1960590
  13.7097270 152.4186400   5.0756610  12.7735050 151.7425550   4.0967450
  28.1428090 150.9743380   7.2091060  27.9114180 150.7456130   6.3089010
  28.4032640 151.8942930   7.1635950  12.8940230 149.4168090   8.1019010
  11.9996280 149.3834850   8.4412720  13.4337780 149.6154880   8.8670260
  26.5816160 146.1999810   9.9870760  27.4586340 146.2083210  10.3704760
  26.5937000 145.4630650   9.3763110  28.2069150 150.1369220   4.3978330
  27.2571860 150.1032760   4.5123320  28.3882160 151.0469330   4.1628100
  13.3979940 143.6916420   2.4502230  14.0456130 143.1413800   2.0097390
  13.8181780 143.9459570   3.2718040  27.2932280 143.8857780   5.8071870
  27.9304500 144.4991920   6.1731060  27.4407170 143.9218440   4.8621100
  13.1511940 143.8472090   5.1927550  12.8026760 144.3035910   5.9585730
  12.8199640 142.9529220   5.2749980  20.6636760 145.0383970   8.7146970
  20.6025650 145.6305800   9.4642380  21.6037140 144.9309930   8.5697230
  23.3011320 144.6954030   8.3539260  23.9151730 145.0133320   7.6920340
  23.8460880 144.2102620   8.9735120  13.8232580 143.3748290   8.4678320
  14.3715570 143.1936340   7.7044430  13.8887890 142.5842400   9.0034630
  24.0419360 143.2586170   4.6808550  23.1679200 143.5921280   4.4781480
  23.9330110 142.7859350   5.5060420  24.9491340 145.4657040   6.0650270
  24.6204700 144.6508800   5.6852000  25.8973640 145.4226850   5.9415960
  21.7894180 144.1756010   3.6201460  21.0065970 144.6501510   3.8998220
  21.4957110 143.2710840   3.5114640  17.8253140 144.0226660  10.1715030
  17.5437410 144.5260260   9.4075850  18.2072840 143.2248410   9.8057160
  24.4268600 143.4380240  10.7495500  24.3134050 143.7574850  11.6447020
  25.2438340 143.8392750  10.4532780  23.3326750 132.6829220 150.0821650
  23.2520800 131.7683830 149.8113360  22.9191170 133.1796290 149.3761360
  25.4852220 138.8668430 150.7430050  25.0233750 138.0955670 151.0717220
  26.2977770 138.8934500 151.2482500  13.8902570 129.7329940 146.6249070
  13.0019270 130.0745910 146.5228950  14.1743760 129.5330260 145.7329900
  21.7115530 141.1526440 150.3634040  21.0926970 141.6083940 149.7928480
  22.5667310 141.3077900 149.9623740  16.0663960 128.3161440 147.6587450
  16.1730710 129.2165170 147.9656210  15.1556320 128.2679410 147.3682100
  25.7183070 127.4386250 149.1298350  26.5392690 126.9482820 149.1723830
  25.7517150 128.0283910 149.8830190  22.5778880 136.0365680 147.7565950
  21.9596150 136.5015130 147.1928670  23.0902130 136.7293160 148.1735460
  11.9462080 136.7222210 145.1305580  11.5690060 137.2109310 144.3990480
  12.2035150 137.3947490 145.7612110  19.5551010 125.1238600 150.5891090
  19.8625990 124.5685490 149.8726590  18.6251710 125.2583060 150.4064080
  26.4011490 137.5622110 147.9688720  26.2907820 136.6196440 148.0938140
  26.3979740 137.9237750 148.8551480  21.9431770 133.1887430 147.3251210
  21.0161050 133.1224810 147.5539680  22.0956590 134.1267560 147.2106450
  21.9300850 129.4604430 144.3218370  20.9904520 129.6218390 144.4070830
  22.2484110 130.1790110 143.7754360  25.9729060 134.7507730 147.8286460
  25.3541480 134.4127280 147.1812760  25.9553510 134.1067490 148.5365650
  17.5488410 133.7152170 150.1070940  17.1445410 133.0029420 149.6116840
  17.6351530 133.3705410 150.9958980  24.1493760 133.9894540 144.8359210
  24.5887040 133.1516970 144.6897030  24.8622180 134.6223940 144.9223350
  22.2589140 138.9290610 148.8040450  22.6985050 139.6714940 148.3895840
  22.1976030 139.1717180 149.7279410  27.7310900 125.2437350 143.1500250
  27.4183560 125.3364180 144.0499320  28.4923370 125.8218380 143.0997680
  14.2493040 132.6097150 147.6077590  14.1290640 133.3359240 146.9958860
  13.9393930 131.8400060 147.1305500  13.1326040 137.4812480 149.8252410
  12.7254120 137.6227070 148.9706010  14.0239050 137.1972640 149.6223620
  24.9259320 141.9159730 146.1603460  24.7660460 141.6262670 147.0585290
  24.7606030 141.1399860 145.6248690  17.4047700 141.6958260 147.9375080
  17.2290180 140.7793800 147.7242880  16.5503440 142.0545550 148.1772880
  24.6285450 139.4247290 144.7201460  23.9350610 139.4224580 144.0603740
  25.3708310 139.0006610 144.2895630  24.1935380 141.0510000 148.7949950
  24.6492330 140.2699380 149.1088570  24.5327900 141.7616820 149.3391130
  16.7156700 125.9532220 150.9901260  16.2724850 126.7341760 150.6585780
  17.2741690 126.2762110 151.6972200  19.8315520 125.5742920 145.8707090
  19.2069700 125.5702790 146.5960400  19.7445640 124.7073880 145.4743060
  16.5070920 131.0765790 148.7182510  16.2811840 130.8602960 149.6229130
  15.7263450 131.5094250 148.3728480  23.7368680 131.0829160 147.3173160
  23.1377570 131.8064960 147.1336780  24.2848290 131.0205940 146.5349610
  22.3433550 129.7192700 149.3476440  22.7363120 130.0364900 148.5345130
  22.7050400 128.8404580 149.4620960  11.5667950 130.2513620 142.7809360
  11.4842620 131.1944380 142.9224350  11.2151010 130.1088530 141.9021710
  15.2168460 128.8679140 150.8073920  14.8768510 129.3454370 151.5640970
  14.4545780 128.4144260 150.4475020  19.4286230 129.9864730 144.8386470
  19.5499050 129.9451210 145.7872290  19.0434740 130.8488880 144.6833200
  18.4407730 132.2965870 144.2369770  17.8724630 131.8484120 143.6105680
  19.1496730 132.6558650 143.7034920  12.5314540 127.7898120 149.7238590
  12.2461460 127.4253790 150.5617210  12.4693400 127.0578580 149.1101730
  15.9855210 136.2924060 146.5096180  15.2117470 135.7521680 146.3494900
  16.7149840 135.7730670 146.1713940  22.2053130 126.6827380 146.4451960
  21.3917740 126.1840550 146.3697270  22.0115080 127.5225630 146.0288310
  24.9201520 131.0547030 144.7414120  25.8081140 131.3664260 144.5665460
  24.8906610 130.1819280 144.3494700  16.0292610 135.9604440 150.1474990
  16.5471280 135.1572700 150.0931880  15.5776630 135.8983580 150.9891820
  20.9162110 137.2270720 145.4202290  21.2577810 137.9712950 144.9245610
  20.0874820 137.5401840 145.7827120  27.1915790 132.3658870 144.2093980
  27.1079510 132.7973090 143.3590420  27.9109980 132.8257220 144.6420800
  28.2203040 139.2201130 146.9376110  27.5779200 138.5656750 147.2119830
  27.8333700 139.6256220 146.1616780  23.7989520 136.5486560 150.7847800
  24.1513340 135.9514690 150.1249170  22.9151850 136.2230790 150.9556050
  19.8852800 137.3084250 148.1918210  20.5723930 137.8553460 148.5725800
  19.0985220 137.8524980 148.2267820  12.0245200 132.9257070 143.6835290
  12.8940050 133.2081870 143.9671210  11.5335520 133.7392940 143.5684100
  19.1880010 134.3130280 147.8043570  19.6442790 135.1235530 148.0303760
  18.8368220 133.9953420 148.6362060  15.0891790 124.6567930 148.2766090
  14.9606420 124.6485830 149.2251010  14.2653810 124.9951020 147.9257100
  26.6100420 138.1117590 143.4752460  26.3838000 137.3948030 144.0677100
  26.2196620 137.8630030 142.6374210  12.3916450 142.1384450 144.2496920
  12.7514090 142.7373790 143.5954190  12.2508790 142.6844340 145.0231950
  26.1916670 136.0289530 145.1366620  25.9038370 136.4902220 145.9244500
  26.9868840 135.5687300 145.4050840  18.4085070 139.5215650 145.0670590
  18.3995170 140.2545340 144.4515100  17.4883430 139.2747230 145.1597550
  14.0091710 134.7430540 145.8117350  13.4019660 135.4829440 145.8212650
  14.4841060 134.8329900 144.9855550  26.9486530 127.8638300 146.2961800
  26.3199690 127.9683970 145.5820030  26.4538450 128.0835080 147.0855680
  21.3944670 139.5843890 143.7295780  21.4956650 139.3807880 142.7997760
  20.4946410 139.3302170 143.9343560  18.9170560 130.1424250 147.7119680
  18.2086710 130.6110590 148.1533290  19.2015040 129.4846260 148.3464870
  22.9485990 126.8674910 149.1515470  22.8253770 126.8861040 148.2024980
  23.8970550 126.9153850 149.2713870  20.0362780 142.1030210 148.4243450
  20.2904280 142.0651600 147.5022820  19.0875260 141.9763540 148.4171700
  17.1205580 128.4509330 145.0870390  17.9696110 128.8879480 145.0210580
  16.7536850 128.7629590 145.9142450  26.0415360 133.0222090 150.0001960
  25.1005500 133.0372320 150.1749650  26.3559430 132.2358050 150.4462260
  16.0197000 134.7041690 143.5605920  16.7860270 134.5923050 144.1231350
  16.0971690 134.0079660 142.9082690  14.7143760 132.1366760 144.2438810
  14.7947350 131.1894270 144.3556210  15.6063510 132.4673640 144.3499470
  15.5158470 142.2862150 151.3473350  16.2520950 141.7377610 151.6181920
  15.8999390 143.1518160 151.2079340  12.4003950 138.3535720 147.2214860
  11.4743730 138.5956860 147.2120270  12.8660380 139.1809980 147.0999610
  18.6260780 141.4592460 143.1698920  19.4189390 141.7481290 142.7180710
  18.1065130 141.0284630 142.4911400  27.6790950 140.6862590 144.5935660
  27.3932460 140.2727730 143.7789840  27.4810500 141.6150300 144.4736180
  19.1438180 136.6795870 143.0341270  19.0388820 136.0648220 143.7602650
  18.9762400 136.1561760 142.2504280  22.3840910 135.7415900 143.6383260
  21.8351010 136.1885200 144.2826000  23.0060170 135.2365150 144.1620930
  18.0516030 134.7006820 145.5348560  18.4732450 134.5346690 146.3779950
  18.1766870 133.8907050 145.0403700  20.5643670 133.7244430 142.7825660
  21.0849330 133.0093450 142.4166810  21.2112070 134.3630300 143.0826170
  16.9474930 130.7740050 142.4806720  16.7463990 129.9107410 142.8420060
  16.7766980 130.6873410 141.5428320  24.4263240 125.5848280 145.0093600
  24.7065530 124.7416180 145.3653020  23.6528970 125.8171390 145.5232350
  15.7457730 127.8740670 142.4684600  16.0483630 127.8808100 141.5603750
  16.4852320 127.5238530 142.9652260  18.9642660 126.8175290 143.4540800
  18.6164660 126.1399280 142.8743250  19.1655430 126.3564800 144.2684190
  21.1291700 141.8056040 145.0727400  22.0242490 142.1441010 145.0946160
  21.1609330 141.0835450 144.4451680  14.7687860 137.1783090 143.3014400
  15.2062730 137.7212760 143.9571980  15.2535590 136.3530040 143.3110740
  11.9833660 139.9672120 150.7534660  12.3136670 139.0993180 150.5213300
  12.4124660 140.1730640 151.5839620  16.5795580 138.2981130 148.4136630
  16.2791120 138.1746100 149.3140540  16.4733070 137.4389720 148.0052360
  29.3487500 138.0777530 143.1163310  28.5180460 138.1454180 143.5870540
  29.5259330 138.9681650 142.8130170  28.8043960 134.8225010 145.6197510
  29.5662870 135.3921660 145.7257200  28.8198330 134.2552210 146.3905820
  12.3048300 133.3462940 149.8505170  11.6497140 133.0774580 149.2064870
  13.1426250 133.2367420 149.4007150  29.8103930 135.6775110 150.4639440
  30.1812760 134.8942430 150.0575410  30.4505860 136.3664210 150.2856740
  28.8563130 135.1159380 142.7770030  29.1311970 136.0238260 142.6489250
  28.6673870 135.0521910 143.7132020  25.2538740 128.1404230 144.0723660
  25.6723620 127.9535210 143.2320320  24.9474800 127.2883280 144.3826590
  28.7528470 133.0528370 147.7699460  28.3772070 132.2856300 147.3380750
  28.0231590 133.4351070 148.2574390  11.5186380 130.5561870 145.7930500
  10.6150460 130.8192070 145.6182160  12.0027000 130.8273040 145.0130460
  14.0613590 129.6127410 143.7024880  14.7705290 129.1910630 143.2172160
  13.3453530 129.6802640 143.0708230  13.7087750 125.6666740 142.7427530
  14.4315880 126.2075680 143.0608750  13.9812270 125.3930160 141.8669070
  27.5179400 130.5359210 147.0099110  28.0138520 130.3030080 147.7947990
  27.3195470 129.6971050 146.5936750  28.9466560 129.1720160 149.5436790
  28.8365840 129.0176200 150.4819060  29.7074150 128.6441100 149.3012200
  29.8356830 127.0028080 142.7842930  30.7606140 126.8709260 142.5761220
  29.8132620 127.0820900 143.7379380  29.9095320 127.7738740 145.4099640
  29.1146820 127.7083860 145.9392550  30.1138600 128.7089380 145.3984990
  26.8513740 141.8130290 149.4038030  27.4472810 141.4914860 148.7272450
  27.1091890 141.3402110 150.1951300  28.2053820 125.7350860 149.8707290
  28.1442220 124.7912080 149.7238310  28.9845850 125.8430950 150.4160750
  12.5106570 141.8743220 148.8331240  12.3428610 141.2413900 149.5313130
  11.6441080 142.0802620 148.4825430  13.1334590 125.7060000 146.3363100
  13.8913950 125.8188880 145.7627130  12.6711760 126.5429200 146.2906530
  19.6748400 127.8199270 149.3265410  18.8622910 127.4456160 148.9861290
  20.1790040 127.0644350 149.6286600  24.1773380 124.4841720 150.5648480
  24.7802750 125.0561930 151.0397000  23.4366370 125.0481160 150.3422380
  27.3207980 124.8863280 145.8388760  27.5158610 125.7846730 146.1056190
  26.5337850 124.6550360 146.3321710  14.1169270 140.5676450 146.2781380
  13.5916890 140.9484480 145.5743340  14.0413850 141.1927220 146.9991090
  15.5059740 126.2324050 144.8765070  16.0352500 125.4453850 144.7473020
  16.1388060 126.9115240 145.1100600  17.6997580 125.9699190 147.9310460
  17.0700320 125.2686500 148.0980590  17.1602720 126.7303320 147.7143620
  28.8734590 142.1263990 147.5995320  29.0486780 141.4401730 146.9556240
  28.1756160 142.6511040 147.2071990  16.7162240 142.5158830 145.1530630
  17.4481060 142.2318110 144.6054520  16.9755910 142.2772110 146.0430010
  15.8777030 138.6323560 145.1576960  15.2485910 139.1008660 145.7062790
  15.9924860 137.7872780 145.5923150  23.3326750 132.6829220 131.3078160
  23.2520800 131.7683830 131.0369870  22.9191170 133.1796290 130.6017870
  21.4644790 134.4608240 133.1887430  20.6886890 133.9808680 133.4786000
  22.1157720 133.7813890 133.0143590  15.4810620 134.7728050 134.0663190
  14.6495500 134.5176760 134.4659700  16.0891600 134.8438820 134.8021110
  25.4852220 138.8668430 131.9686560  25.0233750 138.0955670 132.2973730
  26.2977770 138.8934500 132.4739010  15.4611880 138.8068140 134.2621210
  15.7639920 137.9165880 134.0831430  16.2055470 139.3638360 134.0343460
  13.8902570 129.7329940 127.8505580  13.0019270 130.0745910 127.7485460
  14.1743760 129.5330260 126.9586410  11.8535580 132.3335590 133.7345280
  12.4251690 131.5657790 133.7348920  11.8537120 132.6324350 132.8251890
  21.7115530 141.1526440 131.5890550  21.0926970 141.6083940 131.0184990
  22.5667310 141.3077900 131.1880250  20.9053780 137.1365430 133.1957590
  20.8362060 136.1955370 133.0346720  21.6673640 137.2266840 133.7680160
  13.0960450 127.7419950 135.5214210  12.9163290 126.8445700 135.8016970
  12.6940530 128.2891820 136.1961160  21.9358950 129.9435810 133.4226520
  22.3123770 129.0707690 133.3100190  21.8378460 130.2794510 132.5316960
  16.0663960 128.3161440 128.8843960  16.1730710 129.2165170 129.1912720
  15.1556320 128.2679410 128.5938610  25.7183070 127.4386250 130.3554860
  26.5392690 126.9482820 130.3980340  25.7517150 128.0283910 131.1086700
  13.7147120 130.2380450 134.1296550  14.3957230 130.5018820 134.7483950
  13.3995170 129.3981320 134.4634560  17.9071690 131.2847810 133.2169140
  18.4149910 131.7828780 133.8574160  18.4384930 130.5083010 133.0408500
  30.0082620 129.4553000 136.9198490  29.3034790 129.8434710 136.4013600
  30.2740540 130.1503290 137.5219420  16.1907790 125.9246370 137.4832560
  16.1926230 126.4418760 136.6778460  15.3612100 125.4476550 137.4602490
  22.5778880 136.0365680 128.9822460  21.9596150 136.5015130 128.4185180
  23.0902130 136.7293160 129.3991970  17.4410640 135.5641550 135.6606060
  17.1080020 136.1910470 136.3027130  17.6177320 136.0903430 134.8807730
  25.9544550 129.3786630 133.1282400  25.2500120 129.6671520 133.7085510
  26.3156710 130.1886740 132.7681960  15.8723120 127.6356330 135.4903010
  16.2139930 128.4798380 135.1956880  14.9338930 127.7840070 135.6068350
  16.6529740 137.5322350 137.4755240  17.2703740 138.2073430 137.1939690
  15.7922860 137.9410330 137.3842740  11.9462080 136.7222210 126.3562090
  11.5690060 137.2109310 125.6246990  12.2035150 137.3947490 126.9868620
  27.5707330 138.9961760 135.3909880  26.8870850 139.6660870 135.3826550
  28.1101620 139.1942410 134.6254740  29.0231470 128.8241420 133.5191610
  28.0756380 128.8580400 133.6507040  29.3481460 129.6380370 133.9040970
  19.5551010 125.1238600 131.8147600  19.8625990 124.5685490 131.0983100
  18.6251710 125.2583060 131.6320590  25.1066070 140.8405890 134.1055060
  25.1193230 140.4368180 133.2377320  24.5541290 141.6153180 134.0016490
  26.4011490 137.5622110 129.1945230  26.2907820 136.6196440 129.3194650
  26.3979740 137.9237750 130.0807990  24.5051510 135.7435730 135.4337670
  24.9220300 135.5295840 134.5991130  25.2291330 136.0008520 136.0046290
  21.9431770 133.1887430 128.5507720  21.0161050 133.1224810 128.7796190
  22.0956590 134.1267560 128.4362960  21.9300850 129.4604430 125.5474880
  20.9904520 129.6218390 125.6327340  22.2484110 130.1790110 125.0010870
  28.4513610 134.1422950 135.5253910  27.6232240 134.2116040 135.0504040
  29.0464090 134.7277260 135.0569740  25.9729060 134.7507730 129.0542970
  25.3541480 134.4127280 128.4069270  25.9553510 134.1067490 129.7622160
  25.4155620 130.9292270 136.4708780  25.0026800 131.7545980 136.7248770
  24.6831570 130.3437310 136.2785140  17.5488410 133.7152170 131.3327450
  17.1445410 133.0029420 130.8373350  17.6351530 133.3705410 132.2215490
  18.0170110 137.4019730 133.4966660  17.7198400 136.7965200 132.8174440
  18.9669930 137.4397040 133.3856020  16.2617030 130.4895380 135.1126490
  16.8131620 130.5990720 134.3379740  16.7760540 130.8632980 135.8281720
  26.1055720 140.9751600 137.1589760  25.6286280 141.7823790 136.9662370
  25.4217510 140.3229930 137.3115970  17.1088540 137.1401420 140.1474460
  16.2117070 137.3641390 140.3947860  17.1341410 137.2636360 139.1985860
  24.1493760 133.9894540 126.0615720  24.5887040 133.1516970 125.9153540
  24.8622180 134.6223940 126.1479860  15.9359760 134.0114740 138.7231830
  15.7967530 134.8837540 139.0919230  15.0541120 133.6687550 138.5779770
  22.2589140 138.9290610 130.0296960  22.6985050 139.6714940 129.6152350
  22.1976030 139.1717180 130.9535920  17.7340110 139.9536440 140.9316980
  17.7055540 140.3579390 140.0645410  17.5705080 139.0246800 140.7688580
  27.7310900 125.2437350 124.3756760  27.4183560 125.3364180 125.2755830
  28.4923370 125.8218380 124.3254190  14.2493040 132.6097150 128.8334100
  14.1290640 133.3359240 128.2215370  13.9393930 131.8400060 128.3562010
  29.6854930 140.7363540 142.2281150  30.1614650 141.2146430 142.9070230
  30.3062090 140.6681030 141.5026650  11.8878410 135.7812290 134.6402740
  11.9658830 135.9161060 133.6958460  12.5020090 135.0728180 134.8330860
  13.1326040 137.4812480 131.0508920  12.7254120 137.6227070 130.1962520
  14.0239050 137.1972640 130.8480130  29.0888180 137.9276390 139.3881160
  29.2151240 137.6888270 138.4698340  29.1309560 137.0960930 139.8603240
  22.9504920 141.6304390 137.9575970  23.4649590 141.5412400 138.7598400
  22.1074000 141.9764090 138.2503880  24.9259320 141.9159730 127.3859970
  24.7660460 141.6262670 128.2841800  24.7606030 141.1399860 126.8505200
  17.4047700 141.6958260 129.1631590  17.2290180 140.7793800 128.9499390
  16.5503440 142.0545550 129.4029390  24.6285450 139.4247290 125.9457970
  23.9350610 139.4224580 125.2860250  25.3708310 139.0006610 125.5152140
  24.1935380 141.0510000 130.0206460  24.6492330 140.2699380 130.3345080
  24.5327900 141.7616820 130.5647640  28.9412190 129.9808850 140.3530900
  28.3256460 130.4888520 139.8246360  28.6208610 129.0807180 140.2956840
  11.9437930 136.8226460 137.1797200  12.1068970 136.3531820 136.3616570
  12.4090380 136.3150020 137.8446040  16.7156700 125.9532220 132.2157770
  16.2724850 126.7341760 131.8842290  17.2741690 126.2762110 132.9228710
  21.0026510 128.8200740 137.8193090  20.5405880 129.0283760 138.6313030
  20.6004620 128.0060090 137.5163760  26.0031020 130.0409690 138.9489750
  25.1524610 129.7415440 139.2698820  25.8432810 130.2851700 138.0373570
  23.0980730 131.5411440 141.0488540  23.4234140 130.7075190 140.7090770
  23.8861060 132.0639960 141.1966870  19.8315520 125.5742920 127.0963600
  19.2069700 125.5702790 127.8216910  19.7445640 124.7073880 126.6999570
  18.7532600 126.4979550 134.0747370  19.0504930 127.4042380 133.9939390
  19.3018160 126.0098330 133.4606940  16.5070920 131.0765790 129.9439020
  16.2811840 130.8602960 130.8485640  15.7263450 131.5094250 129.5984990
  23.7368680 131.0829160 128.5429670  23.1377570 131.8064960 128.3593290
  24.2848290 131.0205940 127.7606120  18.9470130 131.9751370 140.6099290
  18.8513730 131.0346100 140.4599690  19.7902110 132.1966440 140.2147360
  22.3433550 129.7192700 130.5732950  22.7363120 130.0364900 129.7601640
  22.7050400 128.8404580 130.6877470  14.0780670 128.3865040 138.7633070
  13.6844060 129.2340250 138.9705850  13.3899070 127.7491410 138.9541710
  20.6525720 128.4700010 141.8329810  19.9624040 128.2772210 142.4675900
  21.3958020 128.7534650 142.3654110  11.3797720 126.3093500 132.7963150
  11.0910770 126.8796360 133.5088130  12.1243480 125.8297950 133.1594380
  11.5667950 130.2513620 124.0065870  11.4842620 131.1944380 124.1480860
  11.2151010 130.1088530 123.1278220  22.9288690 132.3098450 134.6683730
  22.1969810 132.8185260 135.0173830  22.5313030 131.4928430 134.3672510
  19.3666080 128.9852650 133.0736220  19.3702140 128.5442600 132.2240760
  20.2617200 129.3069980 133.1808040  15.2168460 128.8679140 132.0330430
  14.8768510 129.3454370 132.7897480  14.4545780 128.4144260 131.6731530
  19.4286230 129.9864730 126.0642980  19.5499050 129.9451210 127.0128800
  19.0434740 130.8488880 125.9089710  23.3914600 127.7632130 134.0806670
  23.4087340 128.2140780 134.9248520  23.1430180 126.8637770 134.2940110
  18.4407730 132.2965870 125.4626280  17.8724630 131.8484120 124.8362190
  19.1496730 132.6558650 124.9291430  26.8185350 125.1764310 139.9193050
  27.1431120 124.4453970 140.4451030  26.8541860 124.8577950 139.0174040
  13.5176910 136.1977890 139.3393010  13.1331700 135.5571560 139.9375970
  13.8289100 136.9014010 139.9087740  19.6674050 133.0454430 134.8201630
  20.0344180 132.5713000 135.5662970  19.4779110 133.9196000 135.1609970
  12.5314540 127.7898120 130.9495100  12.2461460 127.4253790 131.7873720
  12.4693400 127.0578580 130.3358240  17.4573420 132.0863070 137.1385840
  17.1530490 132.9655050 137.3636200  18.4119880 132.1462860 137.1743280
  15.9855210 136.2924060 127.7352690  15.2117470 135.7521680 127.5751410
  16.7149840 135.7730670 127.3970450  26.7443190 135.2889420 133.5279080
  27.4642310 135.7844710 133.1375190  26.5425010 134.6107310 132.8832950
  22.2053130 126.6827380 127.6708470  21.3917740 126.1840550 127.5953780
  22.0115080 127.5225630 127.2544820  22.1261990 135.3598480 139.4148080
  22.0599300 134.4394150 139.1605670  21.4967130 135.4573920 140.1292720
  24.9201520 131.0547030 125.9670630  25.8081140 131.3664260 125.7921970
  24.8906610 130.1819280 125.5751210  16.0292610 135.9604440 131.3731500
  16.5471280 135.1572700 131.3188390  15.5776630 135.8983580 132.2148330
  20.9162110 137.2270720 126.6458800  21.2577810 137.9712950 126.1502120
  20.0874820 137.5401840 127.0083630  13.5137150 132.9265810 138.2857200
  13.1552090 133.5919660 138.8730540  13.2191710 132.0949360 138.6569820
  16.7150270 133.3850050 141.1696750  16.4150410 133.5307230 140.2724570
  17.4861510 132.8255340 141.0770140  22.0578720 138.1819050 139.1651880
  22.0723260 137.2500010 138.9470790  21.3503820 138.2678810 139.8041650
  27.1915790 132.3658870 125.4350490  27.1079510 132.7973090 124.5846930
  27.9109980 132.8257220 125.8677310  28.2689930 134.8226390 138.5120460
  27.5438120 135.4155170 138.3149850  28.7965390 134.8149930 137.7133830
  28.2203040 139.2201130 128.1632620  27.5779200 138.5656750 128.4376340
  27.8333700 139.6256220 127.3873290  23.7989520 136.5486560 132.0104310
  24.1513340 135.9514690 131.3505680  22.9151850 136.2230790 132.1812560
  19.8852800 137.3084250 129.4174720  20.5723930 137.8553460 129.7982310
  19.0985220 137.8524980 129.4524330  12.0245200 132.9257070 124.9091800
  12.8940050 133.2081870 125.1927720  11.5335520 133.7392940 124.7940610
  19.1880010 134.3130280 129.0300080  19.6442790 135.1235530 129.2560270
  18.8368220 133.9953420 129.8618570  21.4912620 139.8236620 136.2592380
  22.1354840 140.0296000 136.9365800  21.8542060 139.0625020 135.8063230
  15.0891790 124.6567930 129.5022600  14.9606420 124.6485830 130.4507520
  14.2653810 124.9951020 129.1513610  22.7644700 137.8268970 134.9769830
  23.4066930 137.1262130 135.0902000  23.2894050 138.6067410 134.7966720
  26.6100420 138.1117590 124.7008970  26.3838000 137.3948030 125.2933610
  26.2196620 137.8630030 123.8630720  24.5382320 138.6263870 138.1805890
  24.8738560 139.2130560 138.8583810  23.6182660 138.4956580 138.4103680
  12.3916450 142.1384450 125.4753430  12.7514090 142.7373790 124.8210700
  12.2508790 142.6844340 126.2488460  12.0885720 126.4159050 138.9629300
  11.3744240 126.6155970 139.5681910  12.5080760 125.6398620 139.3344100
  26.1916670 136.0289530 126.3623130  25.9038370 136.4902220 127.1501010
  26.9868840 135.5687300 126.6307350  12.3758310 140.4039310 139.9495830
  12.4849430 139.4634050 139.8091220  11.7238870 140.6694060 139.3009560
  20.3670900 138.6755200 141.3493950  20.0467770 137.9564440 141.8939640
  19.6929260 139.3510270 141.4230010  18.4085070 139.5215650 126.2927100
  18.3995170 140.2545340 125.6771610  17.4883430 139.2747230 126.3854060
  14.0091710 134.7430540 127.0373860  13.4019660 135.4829440 127.0469160
  14.4841060 134.8329900 126.2112060  23.5824500 128.9081360 136.7130750
  23.9505320 128.0876570 137.0410320  22.7222700 128.9683250 137.1286400
  26.9486530 127.8638300 127.5218310  26.3199690 127.9683970 126.8076540
  26.4538450 128.0835080 128.3112190  21.3944670 139.5843890 124.9552290
  21.4956650 139.3807880 124.0254270  20.4946410 139.3302170 125.1600070
  18.9170560 130.1424250 128.9376190  18.2086710 130.6110590 129.3789800
  19.2015040 129.4846260 129.5721380  20.5426490 131.5620950 136.9368720
  21.0411740 132.0366770 137.6020570  20.6849440 130.6384470 137.1438750
  22.9485990 126.8674910 130.3771980  22.8253770 126.8861040 129.4281490
  23.8970550 126.9153850 130.4970380  20.0362780 142.1030210 129.6499960
  20.2904280 142.0651600 128.7279330  19.0875260 141.9763540 129.6428210
  17.1205580 128.4509330 126.3126900  17.9696110 128.8879480 126.2467090
  16.7536850 128.7629590 127.1398960  27.7493350 127.7788910 137.7797110
  27.2466950 128.5194310 138.1190920  28.5650010 128.1672910 137.4633900
  26.0415360 133.0222090 131.2258470  25.1005500 133.0372320 131.4006160
  26.3559430 132.2358050 131.6718770  16.0197000 134.7041690 124.7862430
  16.7860270 134.5923050 125.3487860  16.0971690 134.0079660 124.1339200
  14.7143760 132.1366760 125.4695320  14.7947350 131.1894270 125.5812720
  15.6063510 132.4673640 125.5755980  28.0440940 140.1930940 132.9012730
  28.1688360 141.0162110 133.3736540  28.9106500 139.9821670 132.5536880
  15.5158470 142.2862150 132.5729860  16.2520950 141.7377610 132.8438430
  15.8999390 143.1518160 132.4335850  12.4003950 138.3535720 128.4471370
  11.4743730 138.5956860 128.4376780  12.8660380 139.1809980 128.3256120
  14.5216750 141.4708220 141.7615440  15.3229480 141.7920270 142.1750840
  14.0068570 141.1103800 142.4835350  18.6260780 141.4592460 124.3955430
  19.4189390 141.7481290 123.9437220  18.1065130 141.0284630 123.7167910
  23.3581380 137.5788090 141.7090850  22.7519540 137.6019690 140.9686600
  23.0535490 136.8471130 142.2458100  24.7881750 141.3068380 140.3200260
  25.7403500 141.2226400 140.2700500  24.6409970 141.9710090 140.9934050
  27.6790950 140.6862590 125.8192170  27.3932460 140.2727730 125.0046350
  27.4810500 141.6150300 125.6992690  12.2414560 133.9581680 140.7051490
  12.7453580 133.3788960 141.2767720  11.5021980 134.2421910 141.2427860
  19.1438180 136.6795870 124.2597780  19.0388820 136.0648220 124.9859160
  18.9762400 136.1561760 123.4760790  19.2952500 135.3652670 140.2387010
  18.5298170 135.9337670 140.1541680  19.4768460 135.0728880 139.3455240
  22.3840910 135.7415900 124.8639770  21.8351010 136.1885200 125.5082510
  23.0060170 135.2365150 125.3877440  26.4375850 137.0958000 140.7962030
  27.1785320 137.4333760 140.2929490  25.6748530 137.2650060 140.2431800
  14.2737640 132.1011270 141.6001560  14.3142980 131.8025140 142.5086790
  15.1283140 132.5018880 141.4409080  18.0516030 134.7006820 126.7605070
  18.4732450 134.5346690 127.6036460  18.1766870 133.8907050 126.2660210
  16.2143450 130.6803370 139.5676050  15.6839910 130.1894320 138.9399390
  16.8831520 131.1087570 139.0333980  20.5643670 133.7244430 124.0082170
  21.0849330 133.0093450 123.6423320  21.2112070 134.3630300 124.3082680
  25.1121510 135.1472830 139.3317240  25.5262530 135.3017910 140.1807660
  24.1772510 135.2728050 139.4943020  25.5843680 132.4868990 141.3356390
  26.1664450 131.7321310 141.2476870  25.7605450 133.0176430 140.5587870
  16.7015750 127.6465740 139.6473340  16.6072620 127.0286490 138.9224210
  16.1213140 128.3732030 139.4203250  19.4677190 126.2038980 136.6800730
  19.0194490 126.2263240 135.8346280  18.8342390 125.8058000 137.2771030
  19.8736740 135.0993310 137.3013170  20.2924850 135.9426040 137.1289410
  18.9545370 135.2365350 137.0719950  22.2100640 132.8309490 138.6851010
  22.3296850 132.2350630 139.4245850  23.0694640 132.8679180 138.2652310
  24.5488540 133.3846680 137.2613520  24.0223760 133.9089300 136.6578660
  24.8919880 134.0174070 137.8923250  16.9474930 130.7740050 123.7063230
  16.7463990 129.9107410 124.0676570  16.7766980 130.6873410 122.7684830
  17.7244160 141.4046320 138.4170900  17.1865250 142.1292380 138.0979600
  17.9778120 140.9276660 137.6268240  18.9769410 129.3730840 139.9426830
  19.5669100 129.0646690 140.6304650  18.1589650 128.9010590 140.0986730
  23.7962840 128.9896650 140.1759850  23.1078360 128.3278190 140.1109840
  24.5168860 128.5434920 140.6208310  24.4263240 125.5848280 126.2350110
  24.7065530 124.7416180 126.5909530  23.6528970 125.8171390 126.7488860
  15.7457730 127.8740670 123.6941110  16.0483630 127.8808100 122.7860260
  16.4852320 127.5238530 124.1908770  20.5806370 142.6397530 138.6757550
  20.5065070 143.5432670 138.9829920  19.6785210 142.3209430 138.6479620
  18.9642660 126.8175290 124.6797310  18.6164660 126.1399280 124.0999760
  19.1655430 126.3564800 125.4940700  21.1291700 141.8056040 126.2983910
  22.0242490 142.1441010 126.3202670  21.1609330 141.0835450 125.6708190
  14.7687860 137.1783090 124.5270910  15.2062730 137.7212760 125.1828490
  15.2535590 136.3530040 124.5367250  11.9833660 139.9672120 131.9791170
  12.3136670 139.0993180 131.7469810  12.4124660 140.1730640 132.8096130
  16.5795580 138.2981130 129.6393140  16.2791120 138.1746100 130.5397050
  16.4733070 137.4389720 129.2308870  12.4723870 140.8342710 134.7172800
  12.0354860 141.0143510 135.5496950  13.0401550 141.5917330 134.5754520
  28.1086050 140.3359710 139.0050110  27.5088040 140.3952270 138.2614030
  28.2379950 139.3964690 139.1346960  29.3487500 138.0777530 124.3419820
  28.5180460 138.1454180 124.8127050  29.5259330 138.9681650 124.0386680
  28.8043960 134.8225010 126.8454020  29.5662870 135.3921660 126.9513710
  28.8198330 134.2552210 127.6162330  12.3048300 133.3462940 131.0761680
  11.6497140 133.0774580 130.4321380  13.1426250 133.2367420 130.6263660
  29.8103930 135.6775110 131.6895950  30.1812760 134.8942430 131.2831920
  30.4505860 136.3664210 131.5113250  26.7937690 137.0611690 137.1026270
  25.9797530 137.4908850 137.3652060  27.2011890 137.6730100 136.4895320
  28.8563130 135.1159380 124.0026540  29.1311970 136.0238260 123.8745760
  28.6673870 135.0521910 124.9388530  25.2538740 128.1404230 125.2980170
  25.6723620 127.9535210 124.4576830  24.9474800 127.2883280 125.6083100
  28.7528470 133.0528370 128.9955970  28.3772070 132.2856300 128.5637260
  28.0231590 133.4351070 129.4830900  13.3424230 133.7315510 135.6165020
  13.7097270 133.6442910 136.4961040  12.7735050 132.9682060 135.5171880
  28.1428090 132.1999890 138.6295490  27.9114180 131.9712640 137.7293440
  28.4032640 133.1199440 138.5840380  12.8940230 130.6424600 139.5223440
  11.9996280 130.6091360 139.8617150  13.4337780 130.8411390 140.2874690
  26.5816160 127.4256320 141.4075190  27.4586340 127.4339720 141.7909190
  26.5937000 126.6887160 140.7967540  11.5186380 130.5561870 127.0187010
  10.6150460 130.8192070 126.8438670  12.0027000 130.8273040 126.2386970
  28.0279430 131.2785860 132.2963210  28.5516910 130.7848510 131.6653380
  28.6138850 131.4136220 133.0410780  28.2069150 131.3625730 135.8182760
  27.2571860 131.3289270 135.9327750  28.3882160 132.2725840 135.5832530
  14.0613590 129.6127410 124.9281390  14.7705290 129.1910630 124.4428670
  13.3453530 129.6802640 124.2964740  13.7087750 125.6666740 123.9684040
  14.4315880 126.2075680 124.2865260  13.9812270 125.3930160 123.0925580
  27.5179400 130.5359210 128.2355620  28.0138520 130.3030080 129.0204500
  27.3195470 129.6971050 127.8193260  13.3979940 124.9172930 133.8706660
  14.0456130 124.3670310 133.4301820  13.8181780 125.1716080 134.6922470
  28.9466560 129.1720160 130.7693300  28.8365840 129.0176200 131.7075570
  29.7074150 128.6441100 130.5268710  27.2932280 125.1114290 137.2276300
  27.9304500 125.7248430 137.5935490  27.4407170 125.1474950 136.2825530
  29.8356830 127.0028080 124.0099440  30.7606140 126.8709260 123.8017730
  29.8132620 127.0820900 124.9635890  29.9095320 127.7738740 126.6356150
  29.1146820 127.7083860 127.1649060  30.1138600 128.7089380 126.6241500
  26.8513740 141.8130290 130.6294540  27.4472810 141.4914860 129.9528960
  27.1091890 141.3402110 131.4207810  13.1511940 125.0728600 136.6131980
  12.8026760 125.5292420 137.3790160  12.8199640 124.1785730 136.6954410
  14.7576310 138.2448200 140.7785170  14.7145940 137.8741110 141.6599630
  14.8887320 139.1825770 140.9186990  18.4582340 139.8007790 136.3794890
  18.2173700 140.0682350 135.4925410  19.3984980 139.9713520 136.4345750
  20.6636760 126.2640480 140.1351400  20.6025650 126.8562310 140.8846810
  21.6037140 126.1566440 139.9901660  23.3011320 125.9210540 139.7743690
  23.9151730 126.2389830 139.1124770  23.8460880 125.4359130 140.3939550
  29.7186500 141.8202170 137.1805530  29.2244780 142.2171040 136.4632660
  29.1099790 141.1951380 137.5742810  13.8232580 124.6004800 139.8882750
  14.3715570 124.4192850 139.1248860  13.8887890 123.8098910 140.4239060
  14.5964340 141.1910450 137.8982950  14.0024660 141.0595150 138.6372990
  14.5888180 140.3548590 137.4325050  24.0419360 124.4842680 136.1012980
  23.1679200 124.8177790 135.8985910  23.9330110 124.0115860 136.9264850
  24.9491340 126.6913550 137.4854700  24.6204700 125.8765310 137.1056430
  25.8973640 126.6483360 137.3620390  27.4025950 142.4625590 134.4592270
  26.9428920 143.2141400 134.0850290  26.7738410 141.7432060 134.4007070
  14.2276570 138.5568830 136.8490990  13.5010630 137.9374120 136.7816940
  14.2885720 138.9509440 135.9789070  17.8321670 140.7713830 133.6340400
  18.3486690 140.1601190 133.1088660  18.4819050 141.2742610 134.1251410
  20.5717170 141.6622320 134.4609380  20.8594980 141.4076620 133.5842390
  21.0840390 141.1099680 135.0514950  21.7894180 125.4012520 135.0405890
  21.0065970 125.8758020 135.3202650  21.4957110 124.4967350 134.9319070
  26.3415250 126.1035620 133.0854980  26.7823340 126.0480720 132.2376580
  26.0722840 127.0193630 133.1565160  28.2053820 125.7350860 131.0963800
  28.1442220 124.7912080 130.9494820  28.9845850 125.8430950 131.6417260
  12.5106570 141.8743220 130.0587750  12.3428610 141.2413900 130.7569640
  11.6441080 142.0802620 129.7081940  13.1334590 125.7060000 127.5619610
  13.8913950 125.8188880 126.9883640  12.6711760 126.5429200 127.5163040
  19.6748400 127.8199270 130.5521920  18.8622910 127.4456160 130.2117800
  20.1790040 127.0644350 130.8543110  24.1773380 124.4841720 131.7904990
  24.7802750 125.0561930 132.2653510  23.4366370 125.0481160 131.5678890
  27.3207980 124.8863280 127.0645270  27.5158610 125.7846730 127.3312700
  26.5337850 124.6550360 127.5578220  14.1169270 140.5676450 127.5037890
  13.5916890 140.9484480 126.7999850  14.0413850 141.1927220 128.2247600
  15.5059740 126.2324050 126.1021580  16.0352500 125.4453850 125.9729530
  16.1388060 126.9115240 126.3357110  17.6997580 125.9699190 129.1566970
  17.0700320 125.2686500 129.3237100  17.1602720 126.7303320 128.9400130
  20.6389530 142.5838420 141.8277580  21.5656840 142.3482690 141.8713540
  20.6239960 143.4110420 141.3463610  28.8734590 142.1263990 128.8251830
  29.0486780 141.4401730 128.1812750  28.1756160 142.6511040 128.4328500
  17.8253140 125.2483170 141.5919460  17.5437410 125.7516770 140.8280280
  18.2072840 124.4504920 141.2261590  16.7162240 142.5158830 126.3787140
  17.4481060 142.2318110 125.8311030  16.9755910 142.2772110 127.2686520
  15.8777030 138.6323560 126.3833470  15.2485910 139.1008660 126.9319300
  15.9924860 137.7872780 126.8179660  24.4268600 124.6636750 142.1699930
  24.3134050 124.9831360 143.0651450  25.2438340 125.0649260 141.8737210
  27.2067090 141.8108280 141.6518620  27.9992410 141.3157510 141.4444580
  27.5000240 142.4898420 142.2594230  23.3326750 132.6829220 112.5334670
  23.2520800 131.7683830 112.2626380  22.9191170 133.1796290 111.8274380
  21.4644790 134.4608240 114.4143940  20.6886890 133.9808680 114.7042510
  22.1157720 133.7813890 114.2400100  15.4810620 134.7728050 115.2919700
  14.6495500 134.5176760 115.6916210  16.0891600 134.8438820 116.0277620
  25.4852220 138.8668430 113.1943070  25.0233750 138.0955670 113.5230240
  26.2977770 138.8934500 113.6995520  15.4611880 138.8068140 115.4877720
  15.7639920 137.9165880 115.3087940  16.2055470 139.3638360 115.2599970
  13.8902570 129.7329940 109.0762090  13.0019270 130.0745910 108.9741970
  14.1743760 129.5330260 108.1842920  11.8535580 132.3335590 114.9601790
  12.4251690 131.5657790 114.9605430  11.8537120 132.6324350 114.0508400
  21.7115530 141.1526440 112.8147060  21.0926970 141.6083940 112.2441500
  22.5667310 141.3077900 112.4136760  20.9053780 137.1365430 114.4214100
  20.8362060 136.1955370 114.2603230  21.6673640 137.2266840 114.9936670
  13.0960450 127.7419950 116.7470720  12.9163290 126.8445700 117.0273480
  12.6940530 128.2891820 117.4217670  21.9358950 129.9435810 114.6483030
  22.3123770 129.0707690 114.5356700  21.8378460 130.2794510 113.7573470
  16.0663960 128.3161440 110.1100470  16.1730710 129.2165170 110.4169230
  15.1556320 128.2679410 109.8195120  25.7183070 127.4386250 111.5811370
  26.5392690 126.9482820 111.6236850  25.7517150 128.0283910 112.3343210
  13.7147120 130.2380450 115.3553060  14.3957230 130.5018820 115.9740460
  13.3995170 129.3981320 115.6891070  17.9071690 131.2847810 114.4425650
  18.4149910 131.7828780 115.0830670  18.4384930 130.5083010 114.2665010
  30.0082620 129.4553000 118.1455000  29.3034790 129.8434710 117.6270110
  30.2740540 130.1503290 118.7475930  16.1907790 125.9246370 118.7089070
  16.1926230 126.4418760 117.9034970  15.3612100 125.4476550 118.6859000
  22.5778880 136.0365680 110.2078970  21.9596150 136.5015130 109.6441690
  23.0902130 136.7293160 110.6248480  17.4410640 135.5641550 116.8862570
  17.1080020 136.1910470 117.5283640  17.6177320 136.0903430 116.1064240
  25.9544550 129.3786630 114.3538910  25.2500120 129.6671520 114.9342020
  26.3156710 130.1886740 113.9938470  15.8723120 127.6356330 116.7159520
  16.2139930 128.4798380 116.4213390  14.9338930 127.7840070 116.8324860
  16.6529740 137.5322350 118.7011750  17.2703740 138.2073430 118.4196200
  15.7922860 137.9410330 118.6099250  11.9462080 136.7222210 107.5818600
  11.5690060 137.2109310 106.8503500  12.2035150 137.3947490 108.2125130
  27.5707330 138.9961760 116.6166390  26.8870850 139.6660870 116.6083060
  28.1101620 139.1942410 115.8511250  29.0231470 128.8241420 114.7448120
  28.0756380 128.8580400 114.8763550  29.3481460 129.6380370 115.1297480
  19.5551010 125.1238600 113.0404110  19.8625990 124.5685490 112.3239610
  18.6251710 125.2583060 112.8577100  25.1066070 140.8405890 115.3311570
  25.1193230 140.4368180 114.4633830  24.5541290 141.6153180 115.2273000
  26.4011490 137.5622110 110.4201740  26.2907820 136.6196440 110.5451160
  26.3979740 137.9237750 111.3064500  24.5051510 135.7435730 116.6594180
  24.9220300 135.5295840 115.8247640  25.2291330 136.0008520 117.2302800
  21.9431770 133.1887430 109.7764230  21.0161050 133.1224810 110.0052700
  22.0956590 134.1267560 109.6619470  21.9300850 129.4604430 106.7731390
  20.9904520 129.6218390 106.8583850  22.2484110 130.1790110 106.2267380
  28.4513610 134.1422950 116.7510420  27.6232240 134.2116040 116.2760550
  29.0464090 134.7277260 116.2826250  25.9729060 134.7507730 110.2799480
  25.3541480 134.4127280 109.6325780  25.9553510 134.1067490 110.9878670
  25.4155620 130.9292270 117.6965290  25.0026800 131.7545980 117.9505280
  24.6831570 130.3437310 117.5041650  17.5488410 133.7152170 112.5583960
  17.1445410 133.0029420 112.0629860  17.6351530 133.3705410 113.4472000
  18.0170110 137.4019730 114.7223170  17.7198400 136.7965200 114.0430950
  18.9669930 137.4397040 114.6112530  16.2617030 130.4895380 116.3383000
  16.8131620 130.5990720 115.5636250  16.7760540 130.8632980 117.0538230
  26.1055720 140.9751600 118.3846270  25.6286280 141.7823790 118.1918880
  25.4217510 140.3229930 118.5372480  17.1088540 137.1401420 121.3730970
  16.2117070 137.3641390 121.6204370  17.1341410 137.2636360 120.4242370
  24.1493760 133.9894540 107.2872230  24.5887040 133.1516970 107.1410050
  24.8622180 134.6223940 107.3736370  15.9359760 134.0114740 119.9488340
  15.7967530 134.8837540 120.3175740  15.0541120 133.6687550 119.8036280
  22.2589140 138.9290610 111.2553470  22.6985050 139.6714940 110.8408860
  22.1976030 139.1717180 112.1792430  17.7340110 139.9536440 122.1573490
  17.7055540 140.3579390 121.2901920  17.5705080 139.0246800 121.9945090
  27.7310900 125.2437350 105.6013270  27.4183560 125.3364180 106.5012340
  28.4923370 125.8218380 105.5510700  14.2493040 132.6097150 110.0590610
  14.1290640 133.3359240 109.4471880  13.9393930 131.8400060 109.5818520
  29.6854930 140.7363540 123.4537660  30.1614650 141.2146430 124.1326740
  30.3062090 140.6681030 122.7283160  11.8878410 135.7812290 115.8659250
  11.9658830 135.9161060 114.9214970  12.5020090 135.0728180 116.0587370
  13.1326040 137.4812480 112.2765430  12.7254120 137.6227070 111.4219030
  14.0239050 137.1972640 112.0736640  29.0888180 137.9276390 120.6137670
  29.2151240 137.6888270 119.6954850  29.1309560 137.0960930 121.0859750
  22.9504920 141.6304390 119.1832480  23.4649590 141.5412400 119.9854910
  22.1074000 141.9764090 119.4760390  24.9259320 141.9159730 108.6116480
  24.7660460 141.6262670 109.5098310  24.7606030 141.1399860 108.0761710
  17.4047700 141.6958260 110.3888100  17.2290180 140.7793800 110.1755900
  16.5503440 142.0545550 110.6285900  24.6285450 139.4247290 107.1714480
  23.9350610 139.4224580 106.5116760  25.3708310 139.0006610 106.7408650
  24.1935380 141.0510000 111.2462970  24.6492330 140.2699380 111.5601590
  24.5327900 141.7616820 111.7904150  28.9412190 129.9808850 121.5787410
  28.3256460 130.4888520 121.0502870  28.6208610 129.0807180 121.5213350
  11.9437930 136.8226460 118.4053710  12.1068970 136.3531820 117.5873080
  12.4090380 136.3150020 119.0702550  16.7156700 125.9532220 113.4414280
  16.2724850 126.7341760 113.1098800  17.2741690 126.2762110 114.1485220
  21.0026510 128.8200740 119.0449600  20.5405880 129.0283760 119.8569540
  20.6004620 128.0060090 118.7420270  26.0031020 130.0409690 120.1746260
  25.1524610 129.7415440 120.4955330  25.8432810 130.2851700 119.2630080
  23.0980730 131.5411440 122.2745050  23.4234140 130.7075190 121.9347280
  23.8861060 132.0639960 122.4223380  19.8315520 125.5742920 108.3220110
  19.2069700 125.5702790 109.0473420  19.7445640 124.7073880 107.9256080
  18.7532600 126.4979550 115.3003880  19.0504930 127.4042380 115.2195900
  19.3018160 126.0098330 114.6863450  16.5070920 131.0765790 111.1695530
  16.2811840 130.8602960 112.0742150  15.7263450 131.5094250 110.8241500
  23.7368680 131.0829160 109.7686180  23.1377570 131.8064960 109.5849800
  24.2848290 131.0205940 108.9862630  18.9470130 131.9751370 121.8355800
  18.8513730 131.0346100 121.6856200  19.7902110 132.1966440 121.4403870
  22.3433550 129.7192700 111.7989460  22.7363120 130.0364900 110.9858150
  22.7050400 128.8404580 111.9133980  14.0780670 128.3865040 119.9889580
  13.6844060 129.2340250 120.1962360  13.3899070 127.7491410 120.1798220
  20.6525720 128.4700010 123.0586320  19.9624040 128.2772210 123.6932410
  21.3958020 128.7534650 123.5910620  11.3797720 126.3093500 114.0219660
  11.0910770 126.8796360 114.7344640  12.1243480 125.8297950 114.3850890
  11.5667950 130.2513620 105.2322380  11.4842620 131.1944380 105.3737370
  11.2151010 130.1088530 104.3534730  22.9288690 132.3098450 115.8940240
  22.1969810 132.8185260 116.2430340  22.5313030 131.4928430 115.5929020
  19.3666080 128.9852650 114.2992730  19.3702140 128.5442600 113.4497270
  20.2617200 129.3069980 114.4064550  15.2168460 128.8679140 113.2586940
  14.8768510 129.3454370 114.0153990  14.4545780 128.4144260 112.8988040
  19.4286230 129.9864730 107.2899490  19.5499050 129.9451210 108.2385310
  19.0434740 130.8488880 107.1346220  23.3914600 127.7632130 115.3063180
  23.4087340 128.2140780 116.1505030  23.1430180 126.8637770 115.5196620
  18.4407730 132.2965870 106.6882790  17.8724630 131.8484120 106.0618700
  19.1496730 132.6558650 106.1547940  26.8185350 125.1764310 121.1449560
  27.1431120 124.4453970 121.6707540  26.8541860 124.8577950 120.2430550
  13.5176910 136.1977890 120.5649520  13.1331700 135.5571560 121.1632480
  13.8289100 136.9014010 121.1344250  19.6674050 133.0454430 116.0458140
  20.0344180 132.5713000 116.7919480  19.4779110 133.9196000 116.3866480
  12.5314540 127.7898120 112.1751610  12.2461460 127.4253790 113.0130230
  12.4693400 127.0578580 111.5614750  17.4573420 132.0863070 118.3642350
  17.1530490 132.9655050 118.5892710  18.4119880 132.1462860 118.3999790
  15.9855210 136.2924060 108.9609200  15.2117470 135.7521680 108.8007920
  16.7149840 135.7730670 108.6226960  26.7443190 135.2889420 114.7535590
  27.4642310 135.7844710 114.3631700  26.5425010 134.6107310 114.1089460
  22.2053130 126.6827380 108.8964980  21.3917740 126.1840550 108.8210290
  22.0115080 127.5225630 108.4801330  22.1261990 135.3598480 120.6404590
  22.0599300 134.4394150 120.3862180  21.4967130 135.4573920 121.3549230
  24.9201520 131.0547030 107.1927140  25.8081140 131.3664260 107.0178480
  24.8906610 130.1819280 106.8007720  16.0292610 135.9604440 112.5988010
  16.5471280 135.1572700 112.5444900  15.5776630 135.8983580 113.4404840
  20.9162110 137.2270720 107.8715310  21.2577810 137.9712950 107.3758630
  20.0874820 137.5401840 108.2340140  13.5137150 132.9265810 119.5113710
  13.1552090 133.5919660 120.0987050  13.2191710 132.0949360 119.8826330
  16.7150270 133.3850050 122.3953260  16.4150410 133.5307230 121.4981080
  17.4861510 132.8255340 122.3026650  22.0578720 138.1819050 120.3908390
  22.0723260 137.2500010 120.1727300  21.3503820 138.2678810 121.0298160
  27.1915790 132.3658870 106.6607000  27.1079510 132.7973090 105.8103440
  27.9109980 132.8257220 107.0933820  28.2689930 134.8226390 119.7376970
  27.5438120 135.4155170 119.5406360  28.7965390 134.8149930 118.9390340
  28.2203040 139.2201130 109.3889130  27.5779200 138.5656750 109.6632850
  27.8333700 139.6256220 108.6129800  23.7989520 136.5486560 113.2360820
  24.1513340 135.9514690 112.5762190  22.9151850 136.2230790 113.4069070
  19.8852800 137.3084250 110.6431230  20.5723930 137.8553460 111.0238820
  19.0985220 137.8524980 110.6780840  12.0245200 132.9257070 106.1348310
  12.8940050 133.2081870 106.4184230  11.5335520 133.7392940 106.0197120
  19.1880010 134.3130280 110.2556590  19.6442790 135.1235530 110.4816780
  18.8368220 133.9953420 111.0875080  21.4912620 139.8236620 117.4848890
  22.1354840 140.0296000 118.1622310  21.8542060 139.0625020 117.0319740
  15.0891790 124.6567930 110.7279110  14.9606420 124.6485830 111.6764030
  14.2653810 124.9951020 110.3770120  22.7644700 137.8268970 116.2026340
  23.4066930 137.1262130 116.3158510  23.2894050 138.6067410 116.0223230
  26.6100420 138.1117590 105.9265480  26.3838000 137.3948030 106.5190120
  26.2196620 137.8630030 105.0887230  24.5382320 138.6263870 119.4062400
  24.8738560 139.2130560 120.0840320  23.6182660 138.4956580 119.6360190
  12.3916450 142.1384450 106.7009940  12.7514090 142.7373790 106.0467210
  12.2508790 142.6844340 107.4744970  12.0885720 126.4159050 120.1885810
  11.3744240 126.6155970 120.7938420  12.5080760 125.6398620 120.5600610
  26.1916670 136.0289530 107.5879640  25.9038370 136.4902220 108.3757520
  26.9868840 135.5687300 107.8563860  12.3758310 140.4039310 121.1752340
  12.4849430 139.4634050 121.0347730  11.7238870 140.6694060 120.5266070
  20.3670900 138.6755200 122.5750460  20.0467770 137.9564440 123.1196150
  19.6929260 139.3510270 122.6486520  18.4085070 139.5215650 107.5183610
  18.3995170 140.2545340 106.9028120  17.4883430 139.2747230 107.6110570
  14.0091710 134.7430540 108.2630370  13.4019660 135.4829440 108.2725670
  14.4841060 134.8329900 107.4368570  23.5824500 128.9081360 117.9387260
  23.9505320 128.0876570 118.2666830  22.7222700 128.9683250 118.3542910
  26.9486530 127.8638300 108.7474820  26.3199690 127.9683970 108.0333050
  26.4538450 128.0835080 109.5368700  21.3944670 139.5843890 106.1808800
  21.4956650 139.3807880 105.2510780  20.4946410 139.3302170 106.3856580
  18.9170560 130.1424250 110.1632700  18.2086710 130.6110590 110.6046310
  19.2015040 129.4846260 110.7977890  20.5426490 131.5620950 118.1625230
  21.0411740 132.0366770 118.8277080  20.6849440 130.6384470 118.3695260
  22.9485990 126.8674910 111.6028490  22.8253770 126.8861040 110.6538000
  23.8970550 126.9153850 111.7226890  20.0362780 142.1030210 110.8756470
  20.2904280 142.0651600 109.9535840  19.0875260 141.9763540 110.8684720
  17.1205580 128.4509330 107.5383410  17.9696110 128.8879480 107.4723600
  16.7536850 128.7629590 108.3655470  27.7493350 127.7788910 119.0053620
  27.2466950 128.5194310 119.3447430  28.5650010 128.1672910 118.6890410
  26.0415360 133.0222090 112.4514980  25.1005500 133.0372320 112.6262670
  26.3559430 132.2358050 112.8975280  16.0197000 134.7041690 106.0118940
  16.7860270 134.5923050 106.5744370  16.0971690 134.0079660 105.3595710
  14.7143760 132.1366760 106.6951830  14.7947350 131.1894270 106.8069230
  15.6063510 132.4673640 106.8012490  28.0440940 140.1930940 114.1269240
  28.1688360 141.0162110 114.5993050  28.9106500 139.9821670 113.7793390
  15.5158470 142.2862150 113.7986370  16.2520950 141.7377610 114.0694940
  15.8999390 143.1518160 113.6592360  12.4003950 138.3535720 109.6727880
  11.4743730 138.5956860 109.6633290  12.8660380 139.1809980 109.5512630
  14.5216750 141.4708220 122.9871950  15.3229480 141.7920270 123.4007350
  14.0068570 141.1103800 123.7091860  18.6260780 141.4592460 105.6211940
  19.4189390 141.7481290 105.1693730  18.1065130 141.0284630 104.9424420
  23.3581380 137.5788090 122.9347360  22.7519540 137.6019690 122.1943110
  23.0535490 136.8471130 123.4714610  24.7881750 141.3068380 121.5456770
  25.7403500 141.2226400 121.4957010  24.6409970 141.9710090 122.2190560
  27.6790950 140.6862590 107.0448680  27.3932460 140.2727730 106.2302860
  27.4810500 141.6150300 106.9249200  12.2414560 133.9581680 121.9308000
  12.7453580 133.3788960 122.5024230  11.5021980 134.2421910 122.4684370
  19.1438180 136.6795870 105.4854290  19.0388820 136.0648220 106.2115670
  18.9762400 136.1561760 104.7017300  19.2952500 135.3652670 121.4643520
  18.5298170 135.9337670 121.3798190  19.4768460 135.0728880 120.5711750
  22.3840910 135.7415900 106.0896280  21.8351010 136.1885200 106.7339020
  23.0060170 135.2365150 106.6133950  26.4375850 137.0958000 122.0218540
  27.1785320 137.4333760 121.5186000  25.6748530 137.2650060 121.4688310
  14.2737640 132.1011270 122.8258070  14.3142980 131.8025140 123.7343300
  15.1283140 132.5018880 122.6665590  18.0516030 134.7006820 107.9861580
  18.4732450 134.5346690 108.8292970  18.1766870 133.8907050 107.4916720
  16.2143450 130.6803370 120.7932560  15.6839910 130.1894320 120.1655900
  16.8831520 131.1087570 120.2590490  20.5643670 133.7244430 105.2338680
  21.0849330 133.0093450 104.8679830  21.2112070 134.3630300 105.5339190
  25.1121510 135.1472830 120.5573750  25.5262530 135.3017910 121.4064170
  24.1772510 135.2728050 120.7199530  25.5843680 132.4868990 122.5612900
  26.1664450 131.7321310 122.4733380  25.7605450 133.0176430 121.7844380
  16.7015750 127.6465740 120.8729850  16.6072620 127.0286490 120.1480720
  16.1213140 128.3732030 120.6459760  19.4677190 126.2038980 117.9057240
  19.0194490 126.2263240 117.0602790  18.8342390 125.8058000 118.5027540
  19.8736740 135.0993310 118.5269680  20.2924850 135.9426040 118.3545920
  18.9545370 135.2365350 118.2976460  22.2100640 132.8309490 119.9107520
  22.3296850 132.2350630 120.6502360  23.0694640 132.8679180 119.4908820
  24.5488540 133.3846680 118.4870030  24.0223760 133.9089300 117.8835170
  24.8919880 134.0174070 119.1179760  16.9474930 130.7740050 104.9319740
  16.7463990 129.9107410 105.2933080  16.7766980 130.6873410 103.9941340
  17.7244160 141.4046320 119.6427410  17.1865250 142.1292380 119.3236110
  17.9778120 140.9276660 118.8524750  18.9769410 129.3730840 121.1683340
  19.5669100 129.0646690 121.8561160  18.1589650 128.9010590 121.3243240
  23.7962840 128.9896650 121.4016360  23.1078360 128.3278190 121.3366350
  24.5168860 128.5434920 121.8464820  24.4263240 125.5848280 107.4606620
  24.7065530 124.7416180 107.8166040  23.6528970 125.8171390 107.9745370
  15.7457730 127.8740670 104.9197620  16.0483630 127.8808100 104.0116770
  16.4852320 127.5238530 105.4165280  20.5806370 142.6397530 119.9014060
  20.5065070 143.5432670 120.2086430  19.6785210 142.3209430 119.8736130
  18.9642660 126.8175290 105.9053820  18.6164660 126.1399280 105.3256270
  19.1655430 126.3564800 106.7197210  21.1291700 141.8056040 107.5240420
  22.0242490 142.1441010 107.5459180  21.1609330 141.0835450 106.8964700
  14.7687860 137.1783090 105.7527420  15.2062730 137.7212760 106.4085000
  15.2535590 136.3530040 105.7623760  11.9833660 139.9672120 113.2047680
  12.3136670 139.0993180 112.9726320  12.4124660 140.1730640 114.0352640
  16.5795580 138.2981130 110.8649650  16.2791120 138.1746100 111.7653560
  16.4733070 137.4389720 110.4565380  12.4723870 140.8342710 115.9429310
  12.0354860 141.0143510 116.7753460  13.0401550 141.5917330 115.8011030
  28.1086050 140.3359710 120.2306620  27.5088040 140.3952270 119.4870540
  28.2379950 139.3964690 120.3603470  29.3487500 138.0777530 105.5676330
  28.5180460 138.1454180 106.0383560  29.5259330 138.9681650 105.2643190
  28.8043960 134.8225010 108.0710530  29.5662870 135.3921660 108.1770220
  28.8198330 134.2552210 108.8418840  12.3048300 133.3462940 112.3018190
  11.6497140 133.0774580 111.6577890  13.1426250 133.2367420 111.8520170
  29.8103930 135.6775110 112.9152460  30.1812760 134.8942430 112.5088430
  30.4505860 136.3664210 112.7369760  26.7937690 137.0611690 118.3282780
  25.9797530 137.4908850 118.5908570  27.2011890 137.6730100 117.7151830
  28.8563130 135.1159380 105.2283050  29.1311970 136.0238260 105.1002270
  28.6673870 135.0521910 106.1645040  25.2538740 128.1404230 106.5236680
  25.6723620 127.9535210 105.6833340  24.9474800 127.2883280 106.8339610
  28.7528470 133.0528370 110.2212480  28.3772070 132.2856300 109.7893770
  28.0231590 133.4351070 110.7087410  13.3424230 133.7315510 116.8421530
  13.7097270 133.6442910 117.7217550  12.7735050 132.9682060 116.7428390
  28.1428090 132.1999890 119.8552000  27.9114180 131.9712640 118.9549950
  28.4032640 133.1199440 119.8096890  12.8940230 130.6424600 120.7479950
  11.9996280 130.6091360 121.0873660  13.4337780 130.8411390 121.5131200
  26.5816160 127.4256320 122.6331700  27.4586340 127.4339720 123.0165700
  26.5937000 126.6887160 122.0224050  11.5186380 130.5561870 108.2443520
  10.6150460 130.8192070 108.0695180  12.0027000 130.8273040 107.4643480
  28.0279430 131.2785860 113.5219720  28.5516910 130.7848510 112.8909890
  28.6138850 131.4136220 114.2667290  28.2069150 131.3625730 117.0439270
  27.2571860 131.3289270 117.1584260  28.3882160 132.2725840 116.8089040
  14.0613590 129.6127410 106.1537900  14.7705290 129.1910630 105.6685180
  13.3453530 129.6802640 105.5221250  13.7087750 125.6666740 105.1940550
  14.4315880 126.2075680 105.5121770  13.9812270 125.3930160 104.3182090
  27.5179400 130.5359210 109.4612130  28.0138520 130.3030080 110.2461010
  27.3195470 129.6971050 109.0449770  13.3979940 124.9172930 115.0963170
  14.0456130 124.3670310 114.6558330  13.8181780 125.1716080 115.9178980
  28.9466560 129.1720160 111.9949810  28.8365840 129.0176200 112.9332080
  29.7074150 128.6441100 111.7525220  27.2932280 125.1114290 118.4532810
  27.9304500 125.7248430 118.8192000  27.4407170 125.1474950 117.5082040
  29.8356830 127.0028080 105.2355950  30.7606140 126.8709260 105.0274240
  29.8132620 127.0820900 106.1892400  29.9095320 127.7738740 107.8612660
  29.1146820 127.7083860 108.3905570  30.1138600 128.7089380 107.8498010
  26.8513740 141.8130290 111.8551050  27.4472810 141.4914860 111.1785470
  27.1091890 141.3402110 112.6464320  13.1511940 125.0728600 117.8388490
  12.8026760 125.5292420 118.6046670  12.8199640 124.1785730 117.9210920
  14.7576310 138.2448200 122.0041680  14.7145940 137.8741110 122.8856140
  14.8887320 139.1825770 122.1443500  18.4582340 139.8007790 117.6051400
  18.2173700 140.0682350 116.7181920  19.3984980 139.9713520 117.6602260
  20.6636760 126.2640480 121.3607910  20.6025650 126.8562310 122.1103320
  21.6037140 126.1566440 121.2158170  23.3011320 125.9210540 121.0000200
  23.9151730 126.2389830 120.3381280  23.8460880 125.4359130 121.6196060
  29.7186500 141.8202170 118.4062040  29.2244780 142.2171040 117.6889170
  29.1099790 141.1951380 118.7999320  13.8232580 124.6004800 121.1139260
  14.3715570 124.4192850 120.3505370  13.8887890 123.8098910 121.6495570
  14.5964340 141.1910450 119.1239460  14.0024660 141.0595150 119.8629500
  14.5888180 140.3548590 118.6581560  24.0419360 124.4842680 117.3269490
  23.1679200 124.8177790 117.1242420  23.9330110 124.0115860 118.1521360
  24.9491340 126.6913550 118.7111210  24.6204700 125.8765310 118.3312940
  25.8973640 126.6483360 118.5876900  27.4025950 142.4625590 115.6848780
  26.9428920 143.2141400 115.3106800  26.7738410 141.7432060 115.6263580
  14.2276570 138.5568830 118.0747500  13.5010630 137.9374120 118.0073450
  14.2885720 138.9509440 117.2045580  17.8321670 140.7713830 114.8596910
  18.3486690 140.1601190 114.3345170  18.4819050 141.2742610 115.3507920
  20.5717170 141.6622320 115.6865890  20.8594980 141.4076620 114.8098900
  21.0840390 141.1099680 116.2771460  21.7894180 125.4012520 116.2662400
  21.0065970 125.8758020 116.5459160  21.4957110 124.4967350 116.1575580
  26.3415250 126.1035620 114.3111490  26.7823340 126.0480720 113.4633090
  26.0722840 127.0193630 114.3821670  28.2053820 125.7350860 112.3220310
  28.1442220 124.7912080 112.1751330  28.9845850 125.8430950 112.8673770
  12.5106570 141.8743220 111.2844260  12.3428610 141.2413900 111.9826150
  11.6441080 142.0802620 110.9338450  13.1334590 125.7060000 108.7876120
  13.8913950 125.8188880 108.2140150  12.6711760 126.5429200 108.7419550
  19.6748400 127.8199270 111.7778430  18.8622910 127.4456160 111.4374310
  20.1790040 127.0644350 112.0799620  24.1773380 124.4841720 113.0161500
  24.7802750 125.0561930 113.4910020  23.4366370 125.0481160 112.7935400
  27.3207980 124.8863280 108.2901780  27.5158610 125.7846730 108.5569210
  26.5337850 124.6550360 108.7834730  14.1169270 140.5676450 108.7294400
  13.5916890 140.9484480 108.0256360  14.0413850 141.1927220 109.4504110
  15.5059740 126.2324050 107.3278090  16.0352500 125.4453850 107.1986040
  16.1388060 126.9115240 107.5613620  17.6997580 125.9699190 110.3823480
  17.0700320 125.2686500 110.5493610  17.1602720 126.7303320 110.1656640
  20.6389530 142.5838420 123.0534090  21.5656840 142.3482690 123.0970050
  20.6239960 143.4110420 122.5720120  28.8734590 142.1263990 110.0508340
  29.0486780 141.4401730 109.4069260  28.1756160 142.6511040 109.6585010
  17.8253140 125.2483170 122.8175970  17.5437410 125.7516770 122.0536790
  18.2072840 124.4504920 122.4518100  16.7162240 142.5158830 107.6043650
  17.4481060 142.2318110 107.0567540  16.9755910 142.2772110 108.4943030
  15.8777030 138.6323560 107.6089980  15.2485910 139.1008660 108.1575810
  15.9924860 137.7872780 108.0436170  24.4268600 124.6636750 123.3956440
  24.3134050 124.9831360 124.2907960  25.2438340 125.0649260 123.0993720
  27.2067090 141.8108280 122.8775130  27.9992410 141.3157510 122.6701090
  27.5000240 142.4898420 123.4850740  23.3326750 132.6829220  93.7591180
  23.2520800 131.7683830  93.4882890  22.9191170 133.1796290  93.0530890
  21.4644790 134.4608240  95.6400450  20.6886890 133.9808680  95.9299020
  22.1157720 133.7813890  95.4656610  15.4810620 134.7728050  96.5176210
  14.6495500 134.5176760  96.9172720  16.0891600 134.8438820  97.2534130
  25.4852220 138.8668430  94.4199580  25.0233750 138.0955670  94.7486750
  26.2977770 138.8934500  94.9252030  15.4611880 138.8068140  96.7134230
  15.7639920 137.9165880  96.5344450  16.2055470 139.3638360  96.4856480
  13.8902570 129.7329940  90.3018600  13.0019270 130.0745910  90.1998480
  14.1743760 129.5330260  89.4099430  11.8535580 132.3335590  96.1858300
  12.4251690 131.5657790  96.1861940  11.8537120 132.6324350  95.2764910
  21.7115530 141.1526440  94.0403570  21.0926970 141.6083940  93.4698010
  22.5667310 141.3077900  93.6393270  20.9053780 137.1365430  95.6470610
  20.8362060 136.1955370  95.4859740  21.6673640 137.2266840  96.2193180
  13.0960450 127.7419950  97.9727230  12.9163290 126.8445700  98.2529990
  12.6940530 128.2891820  98.6474180  21.9358950 129.9435810  95.8739540
  22.3123770 129.0707690  95.7613210  21.8378460 130.2794510  94.9829980
  16.0663960 128.3161440  91.3356980  16.1730710 129.2165170  91.6425740
  15.1556320 128.2679410  91.0451630  25.7183070 127.4386250  92.8067880
  26.5392690 126.9482820  92.8493360  25.7517150 128.0283910  93.5599720
  13.7147120 130.2380450  96.5809570  14.3957230 130.5018820  97.1996970
  13.3995170 129.3981320  96.9147580  17.9071690 131.2847810  95.6682160
  18.4149910 131.7828780  96.3087180  18.4384930 130.5083010  95.4921520
  30.0082620 129.4553000  99.3711510  29.3034790 129.8434710  98.8526620
  30.2740540 130.1503290  99.9732440  16.1907790 125.9246370  99.9345580
  16.1926230 126.4418760  99.1291480  15.3612100 125.4476550  99.9115510
  22.5778880 136.0365680  91.4335480  21.9596150 136.5015130  90.8698200
  23.0902130 136.7293160  91.8504990  17.4410640 135.5641550  98.1119080
  17.1080020 136.1910470  98.7540150  17.6177320 136.0903430  97.3320750
  25.9544550 129.3786630  95.5795420  25.2500120 129.6671520  96.1598530
  26.3156710 130.1886740  95.2194980  15.8723120 127.6356330  97.9416030
  16.2139930 128.4798380  97.6469900  14.9338930 127.7840070  98.0581370
  16.6529740 137.5322350  99.9268260  17.2703740 138.2073430  99.6452710
  15.7922860 137.9410330  99.8355760  11.9462080 136.7222210  88.8075110
  11.5690060 137.2109310  88.0760010  12.2035150 137.3947490  89.4381640
  27.5707330 138.9961760  97.8422900  26.8870850 139.6660870  97.8339570
  28.1101620 139.1942410  97.0767760  29.0231470 128.8241420  95.9704630
  28.0756380 128.8580400  96.1020060  29.3481460 129.6380370  96.3553990
  19.5551010 125.1238600  94.2660620  19.8625990 124.5685490  93.5496120
  18.6251710 125.2583060  94.0833610  25.1066070 140.8405890  96.5568080
  25.1193230 140.4368180  95.6890340  24.5541290 141.6153180  96.4529510
  26.4011490 137.5622110  91.6458250  26.2907820 136.6196440  91.7707670
  26.3979740 137.9237750  92.5321010  24.5051510 135.7435730  97.8850690
  24.9220300 135.5295840  97.0504150  25.2291330 136.0008520  98.4559310
  21.9431770 133.1887430  91.0020740  21.0161050 133.1224810  91.2309210
  22.0956590 134.1267560  90.8875980  21.9300850 129.4604430  87.9987900
  20.9904520 129.6218390  88.0840360  22.2484110 130.1790110  87.4523890
  28.4513610 134.1422950  97.9766930  27.6232240 134.2116040  97.5017060
  29.0464090 134.7277260  97.5082760  25.9729060 134.7507730  91.5055990
  25.3541480 134.4127280  90.8582290  25.9553510 134.1067490  92.2135180
  25.4155620 130.9292270  98.9221800  25.0026800 131.7545980  99.1761790
  24.6831570 130.3437310  98.7298160  17.5488410 133.7152170  93.7840470
  17.1445410 133.0029420  93.2886370  17.6351530 133.3705410  94.6728510
  18.0170110 137.4019730  95.9479680  17.7198400 136.7965200  95.2687460
  18.9669930 137.4397040  95.8369040  16.2617030 130.4895380  97.5639510
  16.8131620 130.5990720  96.7892760  16.7760540 130.8632980  98.2794740
  26.1055720 140.9751600  99.6102780  25.6286280 141.7823790  99.4175390
  25.4217510 140.3229930  99.7628990  17.1088540 137.1401420 102.5987480
  16.2117070 137.3641390 102.8460880  17.1341410 137.2636360 101.6498880
  24.1493760 133.9894540  88.5128740  24.5887040 133.1516970  88.3666560
  24.8622180 134.6223940  88.5992880  15.9359760 134.0114740 101.1744850
  15.7967530 134.8837540 101.5432250  15.0541120 133.6687550 101.0292790
  22.2589140 138.9290610  92.4809980  22.6985050 139.6714940  92.0665370
  22.1976030 139.1717180  93.4048940  17.7340110 139.9536440 103.3830000
  17.7055540 140.3579390 102.5158430  17.5705080 139.0246800 103.2201600
  27.7310900 125.2437350  86.8269780  27.4183560 125.3364180  87.7268850
  28.4923370 125.8218380  86.7767210  14.2493040 132.6097150  91.2847120
  14.1290640 133.3359240  90.6728390  13.9393930 131.8400060  90.8075030
  29.6854930 140.7363540 104.6794170  30.1614650 141.2146430 105.3583250
  30.3062090 140.6681030 103.9539670  11.8878410 135.7812290  97.0915760
  11.9658830 135.9161060  96.1471480  12.5020090 135.0728180  97.2843880
  13.1326040 137.4812480  93.5021940  12.7254120 137.6227070  92.6475540
  14.0239050 137.1972640  93.2993150  29.0888180 137.9276390 101.8394180
  29.2151240 137.6888270 100.9211360  29.1309560 137.0960930 102.3116260
  22.9504920 141.6304390 100.4088990  23.4649590 141.5412400 101.2111420
  22.1074000 141.9764090 100.7016900  24.9259320 141.9159730  89.8372990
  24.7660460 141.6262670  90.7354820  24.7606030 141.1399860  89.3018220
  17.4047700 141.6958260  91.6144610  17.2290180 140.7793800  91.4012410
  16.5503440 142.0545550  91.8542410  24.6285450 139.4247290  88.3970990
  23.9350610 139.4224580  87.7373270  25.3708310 139.0006610  87.9665160
  24.1935380 141.0510000  92.4719480  24.6492330 140.2699380  92.7858100
  24.5327900 141.7616820  93.0160660  28.9412190 129.9808850 102.8043920
  28.3256460 130.4888520 102.2759380  28.6208610 129.0807180 102.7469860
  11.9437930 136.8226460  99.6310220  12.1068970 136.3531820  98.8129590
  12.4090380 136.3150020 100.2959060  16.7156700 125.9532220  94.6670790
  16.2724850 126.7341760  94.3355310  17.2741690 126.2762110  95.3741730
  21.0026510 128.8200740 100.2706110  20.5405880 129.0283760 101.0826050
  20.6004620 128.0060090  99.9676780  26.0031020 130.0409690 101.4002770
  25.1524610 129.7415440 101.7211840  25.8432810 130.2851700 100.4886590
  23.0980730 131.5411440 103.5001560  23.4234140 130.7075190 103.1603790
  23.8861060 132.0639960 103.6479890  19.8315520 125.5742920  89.5476620
  19.2069700 125.5702790  90.2729930  19.7445640 124.7073880  89.1512590
  18.7532600 126.4979550  96.5260390  19.0504930 127.4042380  96.4452410
  19.3018160 126.0098330  95.9119960  16.5070920 131.0765790  92.3952040
  16.2811840 130.8602960  93.2998660  15.7263450 131.5094250  92.0498010
  23.7368680 131.0829160  90.9942690  23.1377570 131.8064960  90.8106310
  24.2848290 131.0205940  90.2119140  18.9470130 131.9751370 103.0612310
  18.8513730 131.0346100 102.9112710  19.7902110 132.1966440 102.6660380
  22.3433550 129.7192700  93.0245970  22.7363120 130.0364900  92.2114660
  22.7050400 128.8404580  93.1390490  14.0780670 128.3865040 101.2146090
  13.6844060 129.2340250 101.4218870  13.3899070 127.7491410 101.4054730
  20.6525720 128.4700010 104.2842830  19.9624040 128.2772210 104.9188920
  21.3958020 128.7534650 104.8167130  11.3797720 126.3093500  95.2476170
  11.0910770 126.8796360  95.9601150  12.1243480 125.8297950  95.6107400
  11.5667950 130.2513620  86.4578890  11.4842620 131.1944380  86.5993880
  11.2151010 130.1088530  85.5791240  22.9288690 132.3098450  97.1196750
  22.1969810 132.8185260  97.4686850  22.5313030 131.4928430  96.8185530
  19.3666080 128.9852650  95.5249240  19.3702140 128.5442600  94.6753780
  20.2617200 129.3069980  95.6321060  15.2168460 128.8679140  94.4843450
  14.8768510 129.3454370  95.2410500  14.4545780 128.4144260  94.1244550
  19.4286230 129.9864730  88.5156000  19.5499050 129.9451210  89.4641820
  19.0434740 130.8488880  88.3602730  23.3914600 127.7632130  96.5319690
  23.4087340 128.2140780  97.3761540  23.1430180 126.8637770  96.7453130
  18.4407730 132.2965870  87.9139300  17.8724630 131.8484120  87.2875210
  19.1496730 132.6558650  87.3804450  26.8185350 125.1764310 102.3706070
  27.1431120 124.4453970 102.8964050  26.8541860 124.8577950 101.4687060
  13.5176910 136.1977890 101.7906030  13.1331700 135.5571560 102.3888990
  13.8289100 136.9014010 102.3600760  19.6674050 133.0454430  97.2714650
  20.0344180 132.5713000  98.0175990  19.4779110 133.9196000  97.6122990
  12.5314540 127.7898120  93.4008120  12.2461460 127.4253790  94.2386740
  12.4693400 127.0578580  92.7871260  17.4573420 132.0863070  99.5898860
  17.1530490 132.9655050  99.8149220  18.4119880 132.1462860  99.6256300
  15.9855210 136.2924060  90.1865710  15.2117470 135.7521680  90.0264430
  16.7149840 135.7730670  89.8483470  26.7443190 135.2889420  95.9792100
  27.4642310 135.7844710  95.5888210  26.5425010 134.6107310  95.3345970
  22.2053130 126.6827380  90.1221490  21.3917740 126.1840550  90.0466800
  22.0115080 127.5225630  89.7057840  22.1261990 135.3598480 101.8661100
  22.0599300 134.4394150 101.6118690  21.4967130 135.4573920 102.5805740
  24.9201520 131.0547030  88.4183650  25.8081140 131.3664260  88.2434990
  24.8906610 130.1819280  88.0264230  16.0292610 135.9604440  93.8244520
  16.5471280 135.1572700  93.7701410  15.5776630 135.8983580  94.6661350
  20.9162110 137.2270720  89.0971820  21.2577810 137.9712950  88.6015140
  20.0874820 137.5401840  89.4596650  13.5137150 132.9265810 100.7370220
  13.1552090 133.5919660 101.3243560  13.2191710 132.0949360 101.1082840
  16.7150270 133.3850050 103.6209770  16.4150410 133.5307230 102.7237590
  17.4861510 132.8255340 103.5283160  22.0578720 138.1819050 101.6164900
  22.0723260 137.2500010 101.3983810  21.3503820 138.2678810 102.2554670
  27.1915790 132.3658870  87.8863510  27.1079510 132.7973090  87.0359950
  27.9109980 132.8257220  88.3190330  28.2689930 134.8226390 100.9633480
  27.5438120 135.4155170 100.7662870  28.7965390 134.8149930 100.1646850
  28.2203040 139.2201130  90.6145640  27.5779200 138.5656750  90.8889360
  27.8333700 139.6256220  89.8386310  23.7989520 136.5486560  94.4617330
  24.1513340 135.9514690  93.8018700  22.9151850 136.2230790  94.6325580
  19.8852800 137.3084250  91.8687740  20.5723930 137.8553460  92.2495330
  19.0985220 137.8524980  91.9037350  12.0245200 132.9257070  87.3604820
  12.8940050 133.2081870  87.6440740  11.5335520 133.7392940  87.2453630
  19.1880010 134.3130280  91.4813100  19.6442790 135.1235530  91.7073290
  18.8368220 133.9953420  92.3131590  21.4912620 139.8236620  98.7105400
  22.1354840 140.0296000  99.3878820  21.8542060 139.0625020  98.2576250
  15.0891790 124.6567930  91.9535620  14.9606420 124.6485830  92.9020540
  14.2653810 124.9951020  91.6026630  22.7644700 137.8268970  97.4282850
  23.4066930 137.1262130  97.5415020  23.2894050 138.6067410  97.2479740
  26.6100420 138.1117590  87.1521990  26.3838000 137.3948030  87.7446630
  26.2196620 137.8630030  86.3143740  24.5382320 138.6263870 100.6318910
  24.8738560 139.2130560 101.3096830  23.6182660 138.4956580 100.8616700
  12.3916450 142.1384450  87.9266450  12.7514090 142.7373790  87.2723720
  12.2508790 142.6844340  88.7001480  12.0885720 126.4159050 101.4142320
  11.3744240 126.6155970 102.0194930  12.5080760 125.6398620 101.7857120
  26.1916670 136.0289530  88.8136150  25.9038370 136.4902220  89.6014030
  26.9868840 135.5687300  89.0820370  12.3758310 140.4039310 102.4008850
  12.4849430 139.4634050 102.2604240  11.7238870 140.6694060 101.7522580
  20.3670900 138.6755200 103.8006970  20.0467770 137.9564440 104.3452660
  19.6929260 139.3510270 103.8743030  18.4085070 139.5215650  88.7440120
  18.3995170 140.2545340  88.1284630  17.4883430 139.2747230  88.8367080
  14.0091710 134.7430540  89.4886880  13.4019660 135.4829440  89.4982180
  14.4841060 134.8329900  88.6625080  23.5824500 128.9081360  99.1643770
  23.9505320 128.0876570  99.4923340  22.7222700 128.9683250  99.5799420
  26.9486530 127.8638300  89.9731330  26.3199690 127.9683970  89.2589560
  26.4538450 128.0835080  90.7625210  21.3944670 139.5843890  87.4065310
  21.4956650 139.3807880  86.4767290  20.4946410 139.3302170  87.6113090
  18.9170560 130.1424250  91.3889210  18.2086710 130.6110590  91.8302820
  19.2015040 129.4846260  92.0234400  20.5426490 131.5620950  99.3881740
  21.0411740 132.0366770 100.0533590  20.6849440 130.6384470  99.5951770
  22.9485990 126.8674910  92.8285000  22.8253770 126.8861040  91.8794510
  23.8970550 126.9153850  92.9483400  20.0362780 142.1030210  92.1012980
  20.2904280 142.0651600  91.1792350  19.0875260 141.9763540  92.0941230
  17.1205580 128.4509330  88.7639920  17.9696110 128.8879480  88.6980110
  16.7536850 128.7629590  89.5911980  27.7493350 127.7788910 100.2310130
  27.2466950 128.5194310 100.5703940  28.5650010 128.1672910  99.9146920
  26.0415360 133.0222090  93.6771490  25.1005500 133.0372320  93.8519180
  26.3559430 132.2358050  94.1231790  16.0197000 134.7041690  87.2375450
  16.7860270 134.5923050  87.8000880  16.0971690 134.0079660  86.5852220
  14.7143760 132.1366760  87.9208340  14.7947350 131.1894270  88.0325740
  15.6063510 132.4673640  88.0269000  28.0440940 140.1930940  95.3525750
  28.1688360 141.0162110  95.8249560  28.9106500 139.9821670  95.0049900
  15.5158470 142.2862150  95.0242880  16.2520950 141.7377610  95.2951450
  15.8999390 143.1518160  94.8848870  12.4003950 138.3535720  90.8984390
  11.4743730 138.5956860  90.8889800  12.8660380 139.1809980  90.7769140
  14.5216750 141.4708220 104.2128460  15.3229480 141.7920270 104.6263860
  14.0068570 141.1103800 104.9348370  18.6260780 141.4592460  86.8468450
  19.4189390 141.7481290  86.3950240  18.1065130 141.0284630  86.1680930
  23.3581380 137.5788090 104.1603870  22.7519540 137.6019690 103.4199620
  23.0535490 136.8471130 104.6971120  24.7881750 141.3068380 102.7713280
  25.7403500 141.2226400 102.7213520  24.6409970 141.9710090 103.4447070
  27.6790950 140.6862590  88.2705190  27.3932460 140.2727730  87.4559370
  27.4810500 141.6150300  88.1505710  12.2414560 133.9581680 103.1564510
  12.7453580 133.3788960 103.7280740  11.5021980 134.2421910 103.6940880
  19.1438180 136.6795870  86.7110800  19.0388820 136.0648220  87.4372180
  18.9762400 136.1561760  85.9273810  19.2952500 135.3652670 102.6900030
  18.5298170 135.9337670 102.6054700  19.4768460 135.0728880 101.7968260
  22.3840910 135.7415900  87.3152790  21.8351010 136.1885200  87.9595530
  23.0060170 135.2365150  87.8390460  26.4375850 137.0958000 103.2475050
  27.1785320 137.4333760 102.7442510  25.6748530 137.2650060 102.6944820
  14.2737640 132.1011270 104.0514580  14.3142980 131.8025140 104.9599810
  15.1283140 132.5018880 103.8922100  18.0516030 134.7006820  89.2118090
  18.4732450 134.5346690  90.0549480  18.1766870 133.8907050  88.7173230
  16.2143450 130.6803370 102.0189070  15.6839910 130.1894320 101.3912410
  16.8831520 131.1087570 101.4847000  20.5643670 133.7244430  86.4595190
  21.0849330 133.0093450  86.0936340  21.2112070 134.3630300  86.7595700
  25.1121510 135.1472830 101.7830260  25.5262530 135.3017910 102.6320680
  24.1772510 135.2728050 101.9456040  25.5843680 132.4868990 103.7869410
  26.1664450 131.7321310 103.6989890  25.7605450 133.0176430 103.0100890
  16.7015750 127.6465740 102.0986360  16.6072620 127.0286490 101.3737230
  16.1213140 128.3732030 101.8716270  19.4677190 126.2038980  99.1313750
  19.0194490 126.2263240  98.2859300  18.8342390 125.8058000  99.7284050
  19.8736740 135.0993310  99.7526190  20.2924850 135.9426040  99.5802430
  18.9545370 135.2365350  99.5232970  22.2100640 132.8309490 101.1364030
  22.3296850 132.2350630 101.8758870  23.0694640 132.8679180 100.7165330
  24.5488540 133.3846680  99.7126540  24.0223760 133.9089300  99.1091680
  24.8919880 134.0174070 100.3436270  16.9474930 130.7740050  86.1576250
  16.7463990 129.9107410  86.5189590  16.7766980 130.6873410  85.2197850
  17.7244160 141.4046320 100.8683920  17.1865250 142.1292380 100.5492620
  17.9778120 140.9276660 100.0781260  18.9769410 129.3730840 102.3939850
  19.5669100 129.0646690 103.0817670  18.1589650 128.9010590 102.5499750
  23.7962840 128.9896650 102.6272870  23.1078360 128.3278190 102.5622860
  24.5168860 128.5434920 103.0721330  24.4263240 125.5848280  88.6863130
  24.7065530 124.7416180  89.0422550  23.6528970 125.8171390  89.2001880
  15.7457730 127.8740670  86.1454130  16.0483630 127.8808100  85.2373280
  16.4852320 127.5238530  86.6421790  20.5806370 142.6397530 101.1270570
  20.5065070 143.5432670 101.4342940  19.6785210 142.3209430 101.0992640
  18.9642660 126.8175290  87.1310330  18.6164660 126.1399280  86.5512780
  19.1655430 126.3564800  87.9453720  21.1291700 141.8056040  88.7496930
  22.0242490 142.1441010  88.7715690  21.1609330 141.0835450  88.1221210
  14.7687860 137.1783090  86.9783930  15.2062730 137.7212760  87.6341510
  15.2535590 136.3530040  86.9880270  11.9833660 139.9672120  94.4304190
  12.3136670 139.0993180  94.1982830  12.4124660 140.1730640  95.2609150
  16.5795580 138.2981130  92.0906160  16.2791120 138.1746100  92.9910070
  16.4733070 137.4389720  91.6821890  12.4723870 140.8342710  97.1685820
  12.0354860 141.0143510  98.0009970  13.0401550 141.5917330  97.0267540
  28.1086050 140.3359710 101.4563130  27.5088040 140.3952270 100.7127050
  28.2379950 139.3964690 101.5859980  29.3487500 138.0777530  86.7932840
  28.5180460 138.1454180  87.2640070  29.5259330 138.9681650  86.4899700
  28.8043960 134.8225010  89.2967040  29.5662870 135.3921660  89.4026730
  28.8198330 134.2552210  90.0675350  12.3048300 133.3462940  93.5274700
  11.6497140 133.0774580  92.8834400  13.1426250 133.2367420  93.0776680
  29.8103930 135.6775110  94.1408970  30.1812760 134.8942430  93.7344940
  30.4505860 136.3664210  93.9626270  26.7937690 137.0611690  99.5539290
  25.9797530 137.4908850  99.8165080  27.2011890 137.6730100  98.9408340
  28.8563130 135.1159380  86.4539560  29.1311970 136.0238260  86.3258780
  28.6673870 135.0521910  87.3901550  25.2538740 128.1404230  87.7493190
  25.6723620 127.9535210  86.9089850  24.9474800 127.2883280  88.0596120
  28.7528470 133.0528370  91.4468990  28.3772070 132.2856300  91.0150280
  28.0231590 133.4351070  91.9343920  13.3424230 133.7315510  98.0678040
  13.7097270 133.6442910  98.9474060  12.7735050 132.9682060  97.9684900
  28.1428090 132.1999890 101.0808510  27.9114180 131.9712640 100.1806460
  28.4032640 133.1199440 101.0353400  12.8940230 130.6424600 101.9736460
  11.9996280 130.6091360 102.3130170  13.4337780 130.8411390 102.7387710
  26.5816160 127.4256320 103.8588210  27.4586340 127.4339720 104.2422210
  26.5937000 126.6887160 103.2480560  11.5186380 130.5561870  89.4700030
  10.6150460 130.8192070  89.2951690  12.0027000 130.8273040  88.6899990
  28.0279430 131.2785860  94.7476230  28.5516910 130.7848510  94.1166400
  28.6138850 131.4136220  95.4923800  28.2069150 131.3625730  98.2695780
  27.2571860 131.3289270  98.3840770  28.3882160 132.2725840  98.0345550
  14.0613590 129.6127410  87.3794410  14.7705290 129.1910630  86.8941690
  13.3453530 129.6802640  86.7477760  13.7087750 125.6666740  86.4197060
  14.4315880 126.2075680  86.7378280  13.9812270 125.3930160  85.5438600
  27.5179400 130.5359210  90.6868640  28.0138520 130.3030080  91.4717520
  27.3195470 129.6971050  90.2706280  13.3979940 124.9172930  96.3219680
  14.0456130 124.3670310  95.8814840  13.8181780 125.1716080  97.1435490
  28.9466560 129.1720160  93.2206320  28.8365840 129.0176200  94.1588590
  29.7074150 128.6441100  92.9781730  27.2932280 125.1114290  99.6789320
  27.9304500 125.7248430 100.0448510  27.4407170 125.1474950  98.7338550
  29.8356830 127.0028080  86.4612460  30.7606140 126.8709260  86.2530750
  29.8132620 127.0820900  87.4148910  29.9095320 127.7738740  89.0869170
  29.1146820 127.7083860  89.6162080  30.1138600 128.7089380  89.0754520
  26.8513740 141.8130290  93.0807560  27.4472810 141.4914860  92.4041980
  27.1091890 141.3402110  93.8720830  13.1511940 125.0728600  99.0645000
  12.8026760 125.5292420  99.8303180  12.8199640 124.1785730  99.1467430
  14.7576310 138.2448200 103.2298190  14.7145940 137.8741110 104.1112650
  14.8887320 139.1825770 103.3700010  18.4582340 139.8007790  98.8307910
  18.2173700 140.0682350  97.9438430  19.3984980 139.9713520  98.8858770
  20.6636760 126.2640480 102.5864420  20.6025650 126.8562310 103.3359830
  21.6037140 126.1566440 102.4414680  23.3011320 125.9210540 102.2256710
  23.9151730 126.2389830 101.5637790  23.8460880 125.4359130 102.8452570
  29.7186500 141.8202170  99.6318550  29.2244780 142.2171040  98.9145680
  29.1099790 141.1951380 100.0255830  13.8232580 124.6004800 102.3395770
  14.3715570 124.4192850 101.5761880  13.8887890 123.8098910 102.8752080
  14.5964340 141.1910450 100.3495970  14.0024660 141.0595150 101.0886010
  14.5888180 140.3548590  99.8838070  24.0419360 124.4842680  98.5526000
  23.1679200 124.8177790  98.3498930  23.9330110 124.0115860  99.3777870
  24.9491340 126.6913550  99.9367720  24.6204700 125.8765310  99.5569450
  25.8973640 126.6483360  99.8133410  27.4025950 142.4625590  96.9105290
  26.9428920 143.2141400  96.5363310  26.7738410 141.7432060  96.8520090
  14.2276570 138.5568830  99.3004010  13.5010630 137.9374120  99.2329960
  14.2885720 138.9509440  98.4302090  17.8321670 140.7713830  96.0853420
  18.3486690 140.1601190  95.5601680  18.4819050 141.2742610  96.5764430
  20.5717170 141.6622320  96.9122400  20.8594980 141.4076620  96.0355410
  21.0840390 141.1099680  97.5027970  21.7894180 125.4012520  97.4918910
  21.0065970 125.8758020  97.7715670  21.4957110 124.4967350  97.3832090
  26.3415250 126.1035620  95.5368000  26.7823340 126.0480720  94.6889600
  26.0722840 127.0193630  95.6078180  28.2053820 125.7350860  93.5476820
  28.1442220 124.7912080  93.4007840  28.9845850 125.8430950  94.0930280
  12.5106570 141.8743220  92.5100770  12.3428610 141.2413900  93.2082660
  11.6441080 142.0802620  92.1594960  13.1334590 125.7060000  90.0132630
  13.8913950 125.8188880  89.4396660  12.6711760 126.5429200  89.9676060
  19.6748400 127.8199270  93.0034940  18.8622910 127.4456160  92.6630820
  20.1790040 127.0644350  93.3056130  24.1773380 124.4841720  94.2418010
  24.7802750 125.0561930  94.7166530  23.4366370 125.0481160  94.0191910
  27.3207980 124.8863280  89.5158290  27.5158610 125.7846730  89.7825720
  26.5337850 124.6550360  90.0091240  14.1169270 140.5676450  89.9550910
  13.5916890 140.9484480  89.2512870  14.0413850 141.1927220  90.6760620
  15.5059740 126.2324050  88.5534600  16.0352500 125.4453850  88.4242550
  16.1388060 126.9115240  88.7870130  17.6997580 125.9699190  91.6079990
  17.0700320 125.2686500  91.7750120  17.1602720 126.7303320  91.3913150
  20.6389530 142.5838420 104.2790600  21.5656840 142.3482690 104.3226560
  20.6239960 143.4110420 103.7976630  28.8734590 142.1263990  91.2764850
  29.0486780 141.4401730  90.6325770  28.1756160 142.6511040  90.8841520
  17.8253140 125.2483170 104.0432480  17.5437410 125.7516770 103.2793300
  18.2072840 124.4504920 103.6774610  16.7162240 142.5158830  88.8300160
  17.4481060 142.2318110  88.2824050  16.9755910 142.2772110  89.7199540
  15.8777030 138.6323560  88.8346490  15.2485910 139.1008660  89.3832320
  15.9924860 137.7872780  89.2692680  24.4268600 124.6636750 104.6212950
  24.3134050 124.9831360 105.5164470  25.2438340 125.0649260 104.3250230
  27.2067090 141.8108280 104.1031640  27.9992410 141.3157510 103.8957600
  27.5000240 142.4898420 104.7107250  23.3326750 132.6829220  74.9847690
  23.2520800 131.7683830  74.7139400  22.9191170 133.1796290  74.2787400
  21.4644790 134.4608240  76.8656960  20.6886890 133.9808680  77.1555530
  22.1157720 133.7813890  76.6913120  15.4810620 134.7728050  77.7432720
  14.6495500 134.5176760  78.1429230  16.0891600 134.8438820  78.4790640
  25.4852220 138.8668430  75.6456090  25.0233750 138.0955670  75.9743260
  26.2977770 138.8934500  76.1508540  15.4611880 138.8068140  77.9390740
  15.7639920 137.9165880  77.7600960  16.2055470 139.3638360  77.7112990
  13.8902570 129.7329940  71.5275110  13.0019270 130.0745910  71.4254990
  14.1743760 129.5330260  70.6355940  11.8535580 132.3335590  77.4114810
  12.4251690 131.5657790  77.4118450  11.8537120 132.6324350  76.5021420
  21.7115530 141.1526440  75.2660080  21.0926970 141.6083940  74.6954520
  22.5667310 141.3077900  74.8649780  20.9053780 137.1365430  76.8727120
  20.8362060 136.1955370  76.7116250  21.6673640 137.2266840  77.4449690
  13.0960450 127.7419950  79.1983740  12.9163290 126.8445700  79.4786500
  12.6940530 128.2891820  79.8730690  21.9358950 129.9435810  77.0996050
  22.3123770 129.0707690  76.9869720  21.8378460 130.2794510  76.2086490
  16.0663960 128.3161440  72.5613490  16.1730710 129.2165170  72.8682250
  15.1556320 128.2679410  72.2708140  25.7183070 127.4386250  74.0324390
  26.5392690 126.9482820  74.0749870  25.7517150 128.0283910  74.7856230
  13.7147120 130.2380450  77.8066080  14.3957230 130.5018820  78.4253480
  13.3995170 129.3981320  78.1404090  17.9071690 131.2847810  76.8938670
  18.4149910 131.7828780  77.5343690  18.4384930 130.5083010  76.7178030
  30.0082620 129.4553000  80.5968020  29.3034790 129.8434710  80.0783130
  30.2740540 130.1503290  81.1988950  16.1907790 125.9246370  81.1602090
  16.1926230 126.4418760  80.3547990  15.3612100 125.4476550  81.1372020
  22.5778880 136.0365680  72.6591990  21.9596150 136.5015130  72.0954710
  23.0902130 136.7293160  73.0761500  17.4410640 135.5641550  79.3375590
  17.1080020 136.1910470  79.9796660  17.6177320 136.0903430  78.5577260
  25.9544550 129.3786630  76.8051930  25.2500120 129.6671520  77.3855040
  26.3156710 130.1886740  76.4451490  15.8723120 127.6356330  79.1672540
  16.2139930 128.4798380  78.8726410  14.9338930 127.7840070  79.2837880
  16.6529740 137.5322350  81.1524770  17.2703740 138.2073430  80.8709220
  15.7922860 137.9410330  81.0612270  11.9462080 136.7222210  70.0331620
  11.5690060 137.2109310  69.3016520  12.2035150 137.3947490  70.6638150
  27.5707330 138.9961760  79.0679410  26.8870850 139.6660870  79.0596080
  28.1101620 139.1942410  78.3024270  29.0231470 128.8241420  77.1961140
  28.0756380 128.8580400  77.3276570  29.3481460 129.6380370  77.5810500
  19.5551010 125.1238600  75.4917130  19.8625990 124.5685490  74.7752630
  18.6251710 125.2583060  75.3090120  25.1066070 140.8405890  77.7824590
  25.1193230 140.4368180  76.9146850  24.5541290 141.6153180  77.6786020
  26.4011490 137.5622110  72.8714760  26.2907820 136.6196440  72.9964180
  26.3979740 137.9237750  73.7577520  24.5051510 135.7435730  79.1107200
  24.9220300 135.5295840  78.2760660  25.2291330 136.0008520  79.6815820
  21.9431770 133.1887430  72.2277250  21.0161050 133.1224810  72.4565720
  22.0956590 134.1267560  72.1132490  21.9300850 129.4604430  69.2244410
  20.9904520 129.6218390  69.3096870  22.2484110 130.1790110  68.6780400
  28.4513610 134.1422950  79.2023440  27.6232240 134.2116040  78.7273570
  29.0464090 134.7277260  78.7339270  25.9729060 134.7507730  72.7312500
  25.3541480 134.4127280  72.0838800  25.9553510 134.1067490  73.4391690
  25.4155620 130.9292270  80.1478310  25.0026800 131.7545980  80.4018300
  24.6831570 130.3437310  79.9554670  17.5488410 133.7152170  75.0096980
  17.1445410 133.0029420  74.5142880  17.6351530 133.3705410  75.8985020
  18.0170110 137.4019730  77.1736190  17.7198400 136.7965200  76.4943970
  18.9669930 137.4397040  77.0625550  16.2617030 130.4895380  78.7896020
  16.8131620 130.5990720  78.0149270  16.7760540 130.8632980  79.5051250
  26.1055720 140.9751600  80.8359290  25.6286280 141.7823790  80.6431900
  25.4217510 140.3229930  80.9885500  17.1088540 137.1401420  83.8243990
  16.2117070 137.3641390  84.0717390  17.1341410 137.2636360  82.8755390
  24.1493760 133.9894540  69.7385250  24.5887040 133.1516970  69.5923070
  24.8622180 134.6223940  69.8249390  15.9359760 134.0114740  82.4001360
  15.7967530 134.8837540  82.7688760  15.0541120 133.6687550  82.2549300
  22.2589140 138.9290610  73.7066490  22.6985050 139.6714940  73.2921880
  22.1976030 139.1717180  74.6305450  17.7340110 139.9536440  84.6086510
  17.7055540 140.3579390  83.7414940  17.5705080 139.0246800  84.4458110
  27.7310900 125.2437350  68.0526290  27.4183560 125.3364180  68.9525360
  28.4923370 125.8218380  68.0023720  14.2493040 132.6097150  72.5103630
  14.1290640 133.3359240  71.8984900  13.9393930 131.8400060  72.0331540
  29.6854930 140.7363540  85.9050680  30.1614650 141.2146430  86.5839760
  30.3062090 140.6681030  85.1796180  11.8878410 135.7812290  78.3172270
  11.9658830 135.9161060  77.3727990  12.5020090 135.0728180  78.5100390
  13.1326040 137.4812480  74.7278450  12.7254120 137.6227070  73.8732050
  14.0239050 137.1972640  74.5249660  29.0888180 137.9276390  83.0650690
  29.2151240 137.6888270  82.1467870  29.1309560 137.0960930  83.5372770
  22.9504920 141.6304390  81.6345500  23.4649590 141.5412400  82.4367930
  22.1074000 141.9764090  81.9273410  24.9259320 141.9159730  71.0629500
  24.7660460 141.6262670  71.9611330  24.7606030 141.1399860  70.5274730
  17.4047700 141.6958260  72.8401120  17.2290180 140.7793800  72.6268920
  16.5503440 142.0545550  73.0798920  24.6285450 139.4247290  69.6227500
  23.9350610 139.4224580  68.9629780  25.3708310 139.0006610  69.1921670
  24.1935380 141.0510000  73.6975990  24.6492330 140.2699380  74.0114610
  24.5327900 141.7616820  74.2417170  28.9412190 129.9808850  84.0300430
  28.3256460 130.4888520  83.5015890  28.6208610 129.0807180  83.9726370
  11.9437930 136.8226460  80.8566730  12.1068970 136.3531820  80.0386100
  12.4090380 136.3150020  81.5215570  16.7156700 125.9532220  75.8927300
  16.2724850 126.7341760  75.5611820  17.2741690 126.2762110  76.5998240
  21.0026510 128.8200740  81.4962620  20.5405880 129.0283760  82.3082560
  20.6004620 128.0060090  81.1933290  26.0031020 130.0409690  82.6259280
  25.1524610 129.7415440  82.9468350  25.8432810 130.2851700  81.7143100
  23.0980730 131.5411440  84.7258070  23.4234140 130.7075190  84.3860300
  23.8861060 132.0639960  84.8736400  19.8315520 125.5742920  70.7733130
  19.2069700 125.5702790  71.4986440  19.7445640 124.7073880  70.3769100
  18.7532600 126.4979550  77.7516900  19.0504930 127.4042380  77.6708920
  19.3018160 126.0098330  77.1376470  16.5070920 131.0765790  73.6208550
  16.2811840 130.8602960  74.5255170  15.7263450 131.5094250  73.2754520
  23.7368680 131.0829160  72.2199200  23.1377570 131.8064960  72.0362820
  24.2848290 131.0205940  71.4375650  18.9470130 131.9751370  84.2868820
  18.8513730 131.0346100  84.1369220  19.7902110 132.1966440  83.8916890
  22.3433550 129.7192700  74.2502480  22.7363120 130.0364900  73.4371170
  22.7050400 128.8404580  74.3647000  14.0780670 128.3865040  82.4402600
  13.6844060 129.2340250  82.6475380  13.3899070 127.7491410  82.6311240
  20.6525720 128.4700010  85.5099340  19.9624040 128.2772210  86.1445430
  21.3958020 128.7534650  86.0423640  11.3797720 126.3093500  76.4732680
  11.0910770 126.8796360  77.1857660  12.1243480 125.8297950  76.8363910
  11.5667950 130.2513620  67.6835400  11.4842620 131.1944380  67.8250390
  11.2151010 130.1088530  66.8047750  22.9288690 132.3098450  78.3453260
  22.1969810 132.8185260  78.6943360  22.5313030 131.4928430  78.0442040
  19.3666080 128.9852650  76.7505750  19.3702140 128.5442600  75.9010290
  20.2617200 129.3069980  76.8577570  15.2168460 128.8679140  75.7099960
  14.8768510 129.3454370  76.4667010  14.4545780 128.4144260  75.3501060
  19.4286230 129.9864730  69.7412510  19.5499050 129.9451210  70.6898330
  19.0434740 130.8488880  69.5859240  23.3914600 127.7632130  77.7576200
  23.4087340 128.2140780  78.6018050  23.1430180 126.8637770  77.9709640
  18.4407730 132.2965870  69.1395810  17.8724630 131.8484120  68.5131720
  19.1496730 132.6558650  68.6060960  26.8185350 125.1764310  83.5962580
  27.1431120 124.4453970  84.1220560  26.8541860 124.8577950  82.6943570
  13.5176910 136.1977890  83.0162540  13.1331700 135.5571560  83.6145500
  13.8289100 136.9014010  83.5857270  19.6674050 133.0454430  78.4971160
  20.0344180 132.5713000  79.2432500  19.4779110 133.9196000  78.8379500
  12.5314540 127.7898120  74.6264630  12.2461460 127.4253790  75.4643250
  12.4693400 127.0578580  74.0127770  17.4573420 132.0863070  80.8155370
  17.1530490 132.9655050  81.0405730  18.4119880 132.1462860  80.8512810
  15.9855210 136.2924060  71.4122220  15.2117470 135.7521680  71.2520940
  16.7149840 135.7730670  71.0739980  26.7443190 135.2889420  77.2048610
  27.4642310 135.7844710  76.8144720  26.5425010 134.6107310  76.5602480
  22.2053130 126.6827380  71.3478000  21.3917740 126.1840550  71.2723310
  22.0115080 127.5225630  70.9314350  22.1261990 135.3598480  83.0917610
  22.0599300 134.4394150  82.8375200  21.4967130 135.4573920  83.8062250
  24.9201520 131.0547030  69.6440160  25.8081140 131.3664260  69.4691500
  24.8906610 130.1819280  69.2520740  16.0292610 135.9604440  75.0501030
  16.5471280 135.1572700  74.9957920  15.5776630 135.8983580  75.8917860
  20.9162110 137.2270720  70.3228330  21.2577810 137.9712950  69.8271650
  20.0874820 137.5401840  70.6853160  13.5137150 132.9265810  81.9626730
  13.1552090 133.5919660  82.5500070  13.2191710 132.0949360  82.3339350
  16.7150270 133.3850050  84.8466280  16.4150410 133.5307230  83.9494100
  17.4861510 132.8255340  84.7539670  22.0578720 138.1819050  82.8421410
  22.0723260 137.2500010  82.6240320  21.3503820 138.2678810  83.4811180
  27.1915790 132.3658870  69.1120020  27.1079510 132.7973090  68.2616460
  27.9109980 132.8257220  69.5446840  28.2689930 134.8226390  82.1889990
  27.5438120 135.4155170  81.9919380  28.7965390 134.8149930  81.3903360
  28.2203040 139.2201130  71.8402150  27.5779200 138.5656750  72.1145870
  27.8333700 139.6256220  71.0642820  23.7989520 136.5486560  75.6873840
  24.1513340 135.9514690  75.0275210  22.9151850 136.2230790  75.8582090
  19.8852800 137.3084250  73.0944250  20.5723930 137.8553460  73.4751840
  19.0985220 137.8524980  73.1293860  12.0245200 132.9257070  68.5861330
  12.8940050 133.2081870  68.8697250  11.5335520 133.7392940  68.4710140
  19.1880010 134.3130280  72.7069610  19.6442790 135.1235530  72.9329800
  18.8368220 133.9953420  73.5388100  21.4912620 139.8236620  79.9361910
  22.1354840 140.0296000  80.6135330  21.8542060 139.0625020  79.4832760
  15.0891790 124.6567930  73.1792130  14.9606420 124.6485830  74.1277050
  14.2653810 124.9951020  72.8283140  22.7644700 137.8268970  78.6539360
  23.4066930 137.1262130  78.7671530  23.2894050 138.6067410  78.4736250
  26.6100420 138.1117590  68.3778500  26.3838000 137.3948030  68.9703140
  26.2196620 137.8630030  67.5400250  24.5382320 138.6263870  81.8575420
  24.8738560 139.2130560  82.5353340  23.6182660 138.4956580  82.0873210
  12.3916450 142.1384450  69.1522960  12.7514090 142.7373790  68.4980230
  12.2508790 142.6844340  69.9257990  12.0885720 126.4159050  82.6398830
  11.3744240 126.6155970  83.2451440  12.5080760 125.6398620  83.0113630
  26.1916670 136.0289530  70.0392660  25.9038370 136.4902220  70.8270540
  26.9868840 135.5687300  70.3076880  12.3758310 140.4039310  83.6265360
  12.4849430 139.4634050  83.4860750  11.7238870 140.6694060  82.9779090
  20.3670900 138.6755200  85.0263480  20.0467770 137.9564440  85.5709170
  19.6929260 139.3510270  85.0999540  18.4085070 139.5215650  69.9696630
  18.3995170 140.2545340  69.3541140  17.4883430 139.2747230  70.0623590
  14.0091710 134.7430540  70.7143390  13.4019660 135.4829440  70.7238690
  14.4841060 134.8329900  69.8881590  23.5824500 128.9081360  80.3900280
  23.9505320 128.0876570  80.7179850  22.7222700 128.9683250  80.8055930
  26.9486530 127.8638300  71.1987840  26.3199690 127.9683970  70.4846070
  26.4538450 128.0835080  71.9881720  21.3944670 139.5843890  68.6321820
  21.4956650 139.3807880  67.7023800  20.4946410 139.3302170  68.8369600
  18.9170560 130.1424250  72.6145720  18.2086710 130.6110590  73.0559330
  19.2015040 129.4846260  73.2490910  20.5426490 131.5620950  80.6138250
  21.0411740 132.0366770  81.2790100  20.6849440 130.6384470  80.8208280
  22.9485990 126.8674910  74.0541510  22.8253770 126.8861040  73.1051020
  23.8970550 126.9153850  74.1739910  20.0362780 142.1030210  73.3269490
  20.2904280 142.0651600  72.4048860  19.0875260 141.9763540  73.3197740
  17.1205580 128.4509330  69.9896430  17.9696110 128.8879480  69.9236620
  16.7536850 128.7629590  70.8168490  27.7493350 127.7788910  81.4566640
  27.2466950 128.5194310  81.7960450  28.5650010 128.1672910  81.1403430
  26.0415360 133.0222090  74.9028000  25.1005500 133.0372320  75.0775690
  26.3559430 132.2358050  75.3488300  16.0197000 134.7041690  68.4631960
  16.7860270 134.5923050  69.0257390  16.0971690 134.0079660  67.8108730
  14.7143760 132.1366760  69.1464850  14.7947350 131.1894270  69.2582250
  15.6063510 132.4673640  69.2525510  28.0440940 140.1930940  76.5782260
  28.1688360 141.0162110  77.0506070  28.9106500 139.9821670  76.2306410
  15.5158470 142.2862150  76.2499390  16.2520950 141.7377610  76.5207960
  15.8999390 143.1518160  76.1105380  12.4003950 138.3535720  72.1240900
  11.4743730 138.5956860  72.1146310  12.8660380 139.1809980  72.0025650
  14.5216750 141.4708220  85.4384970  15.3229480 141.7920270  85.8520370
  14.0068570 141.1103800  86.1604880  18.6260780 141.4592460  68.0724960
  19.4189390 141.7481290  67.6206750  18.1065130 141.0284630  67.3937440
  23.3581380 137.5788090  85.3860380  22.7519540 137.6019690  84.6456130
  23.0535490 136.8471130  85.9227630  24.7881750 141.3068380  83.9969790
  25.7403500 141.2226400  83.9470030  24.6409970 141.9710090  84.6703580
  27.6790950 140.6862590  69.4961700  27.3932460 140.2727730  68.6815880
  27.4810500 141.6150300  69.3762220  12.2414560 133.9581680  84.3821020
  12.7453580 133.3788960  84.9537250  11.5021980 134.2421910  84.9197390
  19.1438180 136.6795870  67.9367310  19.0388820 136.0648220  68.6628690
  18.9762400 136.1561760  67.1530320  19.2952500 135.3652670  83.9156540
  18.5298170 135.9337670  83.8311210  19.4768460 135.0728880  83.0224770
  22.3840910 135.7415900  68.5409300  21.8351010 136.1885200  69.1852040
  23.0060170 135.2365150  69.0646970  26.4375850 137.0958000  84.4731560
  27.1785320 137.4333760  83.9699020  25.6748530 137.2650060  83.9201330
  14.2737640 132.1011270  85.2771090  14.3142980 131.8025140  86.1856320
  15.1283140 132.5018880  85.1178610  18.0516030 134.7006820  70.4374600
  18.4732450 134.5346690  71.2805990  18.1766870 133.8907050  69.9429740
  16.2143450 130.6803370  83.2445580  15.6839910 130.1894320  82.6168920
  16.8831520 131.1087570  82.7103510  20.5643670 133.7244430  67.6851700
  21.0849330 133.0093450  67.3192850  21.2112070 134.3630300  67.9852210
  25.1121510 135.1472830  83.0086770  25.5262530 135.3017910  83.8577190
  24.1772510 135.2728050  83.1712550  25.5843680 132.4868990  85.0125920
  26.1664450 131.7321310  84.9246400  25.7605450 133.0176430  84.2357400
  16.7015750 127.6465740  83.3242870  16.6072620 127.0286490  82.5993740
  16.1213140 128.3732030  83.0972780  19.4677190 126.2038980  80.3570260
  19.0194490 126.2263240  79.5115810  18.8342390 125.8058000  80.9540560
  19.8736740 135.0993310  80.9782700  20.2924850 135.9426040  80.8058940
  18.9545370 135.2365350  80.7489480  22.2100640 132.8309490  82.3620540
  22.3296850 132.2350630  83.1015380  23.0694640 132.8679180  81.9421840
  24.5488540 133.3846680  80.9383050  24.0223760 133.9089300  80.3348190
  24.8919880 134.0174070  81.5692780  16.9474930 130.7740050  67.3832760
  16.7463990 129.9107410  67.7446100  16.7766980 130.6873410  66.4454360
  17.7244160 141.4046320  82.0940430  17.1865250 142.1292380  81.7749130
  17.9778120 140.9276660  81.3037770  18.9769410 129.3730840  83.6196360
  19.5669100 129.0646690  84.3074180  18.1589650 128.9010590  83.7756260
  23.7962840 128.9896650  83.8529380  23.1078360 128.3278190  83.7879370
  24.5168860 128.5434920  84.2977840  24.4263240 125.5848280  69.9119640
  24.7065530 124.7416180  70.2679060  23.6528970 125.8171390  70.4258390
  15.7457730 127.8740670  67.3710640  16.0483630 127.8808100  66.4629790
  16.4852320 127.5238530  67.8678300  20.5806370 142.6397530  82.3527080
  20.5065070 143.5432670  82.6599450  19.6785210 142.3209430  82.3249150
  18.9642660 126.8175290  68.3566840  18.6164660 126.1399280  67.7769290
  19.1655430 126.3564800  69.1710230  21.1291700 141.8056040  69.9753440
  22.0242490 142.1441010  69.9972200  21.1609330 141.0835450  69.3477720
  14.7687860 137.1783090  68.2040440  15.2062730 137.7212760  68.8598020
  15.2535590 136.3530040  68.2136780  11.9833660 139.9672120  75.6560700
  12.3136670 139.0993180  75.4239340  12.4124660 140.1730640  76.4865660
  16.5795580 138.2981130  73.3162670  16.2791120 138.1746100  74.2166580
  16.4733070 137.4389720  72.9078400  12.4723870 140.8342710  78.3942330
  12.0354860 141.0143510  79.2266480  13.0401550 141.5917330  78.2524050
  28.1086050 140.3359710  82.6819640  27.5088040 140.3952270  81.9383560
  28.2379950 139.3964690  82.8116490  29.3487500 138.0777530  68.0189350
  28.5180460 138.1454180  68.4896580  29.5259330 138.9681650  67.7156210
  28.8043960 134.8225010  70.5223550  29.5662870 135.3921660  70.6283240
  28.8198330 134.2552210  71.2931860  12.3048300 133.3462940  74.7531210
  11.6497140 133.0774580  74.1090910  13.1426250 133.2367420  74.3033190
  29.8103930 135.6775110  75.3665480  30.1812760 134.8942430  74.9601450
  30.4505860 136.3664210  75.1882780  26.7937690 137.0611690  80.7795800
  25.9797530 137.4908850  81.0421590  27.2011890 137.6730100  80.1664850
  28.8563130 135.1159380  67.6796070  29.1311970 136.0238260  67.5515290
  28.6673870 135.0521910  68.6158060  25.2538740 128.1404230  68.9749700
  25.6723620 127.9535210  68.1346360  24.9474800 127.2883280  69.2852630
  28.7528470 133.0528370  72.6725500  28.3772070 132.2856300  72.2406790
  28.0231590 133.4351070  73.1600430  13.3424230 133.7315510  79.2934550
  13.7097270 133.6442910  80.1730570  12.7735050 132.9682060  79.1941410
  28.1428090 132.1999890  82.3065020  27.9114180 131.9712640  81.4062970
  28.4032640 133.1199440  82.2609910  12.8940230 130.6424600  83.1992970
  11.9996280 130.6091360  83.5386680  13.4337780 130.8411390  83.9644220
  26.5816160 127.4256320  85.0844720  27.4586340 127.4339720  85.4678720
  26.5937000 126.6887160  84.4737070  11.5186380 130.5561870  70.6956540
  10.6150460 130.8192070  70.5208200  12.0027000 130.8273040  69.9156500
  28.0279430 131.2785860  75.9732740  28.5516910 130.7848510  75.3422910
  28.6138850 131.4136220  76.7180310  28.2069150 131.3625730  79.4952290
  27.2571860 131.3289270  79.6097280  28.3882160 132.2725840  79.2602060
  14.0613590 129.6127410  68.6050920  14.7705290 129.1910630  68.1198200
  13.3453530 129.6802640  67.9734270  13.7087750 125.6666740  67.6453570
  14.4315880 126.2075680  67.9634790  13.9812270 125.3930160  66.7695110
  27.5179400 130.5359210  71.9125150  28.0138520 130.3030080  72.6974030
  27.3195470 129.6971050  71.4962790  13.3979940 124.9172930  77.5476190
  14.0456130 124.3670310  77.1071350  13.8181780 125.1716080  78.3692000
  28.9466560 129.1720160  74.4462830  28.8365840 129.0176200  75.3845100
  29.7074150 128.6441100  74.2038240  27.2932280 125.1114290  80.9045830
  27.9304500 125.7248430  81.2705020  27.4407170 125.1474950  79.9595060
  29.8356830 127.0028080  67.6868970  30.7606140 126.8709260  67.4787260
  29.8132620 127.0820900  68.6405420  29.9095320 127.7738740  70.3125680
  29.1146820 127.7083860  70.8418590  30.1138600 128.7089380  70.3011030
  26.8513740 141.8130290  74.3064070  27.4472810 141.4914860  73.6298490
  27.1091890 141.3402110  75.0977340  13.1511940 125.0728600  80.2901510
  12.8026760 125.5292420  81.0559690  12.8199640 124.1785730  80.3723940
  14.7576310 138.2448200  84.4554700  14.7145940 137.8741110  85.3369160
  14.8887320 139.1825770  84.5956520  18.4582340 139.8007790  80.0564420
  18.2173700 140.0682350  79.1694940  19.3984980 139.9713520  80.1115280
  20.6636760 126.2640480  83.8120930  20.6025650 126.8562310  84.5616340
  21.6037140 126.1566440  83.6671190  23.3011320 125.9210540  83.4513220
  23.9151730 126.2389830  82.7894300  23.8460880 125.4359130  84.0709080
  29.7186500 141.8202170  80.8575060  29.2244780 142.2171040  80.1402190
  29.1099790 141.1951380  81.2512340  13.8232580 124.6004800  83.5652280
  14.3715570 124.4192850  82.8018390  13.8887890 123.8098910  84.1008590
  14.5964340 141.1910450  81.5752480  14.0024660 141.0595150  82.3142520
  14.5888180 140.3548590  81.1094580  24.0419360 124.4842680  79.7782510
  23.1679200 124.8177790  79.5755440  23.9330110 124.0115860  80.6034380
  24.9491340 126.6913550  81.1624230  24.6204700 125.8765310  80.7825960
  25.8973640 126.6483360  81.0389920  27.4025950 142.4625590  78.1361800
  26.9428920 143.2141400  77.7619820  26.7738410 141.7432060  78.0776600
  14.2276570 138.5568830  80.5260520  13.5010630 137.9374120  80.4586470
  14.2885720 138.9509440  79.6558600  17.8321670 140.7713830  77.3109930
  18.3486690 140.1601190  76.7858190  18.4819050 141.2742610  77.8020940
  20.5717170 141.6622320  78.1378910  20.8594980 141.4076620  77.2611920
  21.0840390 141.1099680  78.7284480  21.7894180 125.4012520  78.7175420
  21.0065970 125.8758020  78.9972180  21.4957110 124.4967350  78.6088600
  26.3415250 126.1035620  76.7624510  26.7823340 126.0480720  75.9146110
  26.0722840 127.0193630  76.8334690  28.2053820 125.7350860  74.7733330
  28.1442220 124.7912080  74.6264350  28.9845850 125.8430950  75.3186790
  12.5106570 141.8743220  73.7357280  12.3428610 141.2413900  74.4339170
  11.6441080 142.0802620  73.3851470  13.1334590 125.7060000  71.2389140
  13.8913950 125.8188880  70.6653170  12.6711760 126.5429200  71.1932570
  19.6748400 127.8199270  74.2291450  18.8622910 127.4456160  73.8887330
  20.1790040 127.0644350  74.5312640  24.1773380 124.4841720  75.4674520
  24.7802750 125.0561930  75.9423040  23.4366370 125.0481160  75.2448420
  27.3207980 124.8863280  70.7414800  27.5158610 125.7846730  71.0082230
  26.5337850 124.6550360  71.2347750  14.1169270 140.5676450  71.1807420
  13.5916890 140.9484480  70.4769380  14.0413850 141.1927220  71.9017130
  15.5059740 126.2324050  69.7791110  16.0352500 125.4453850  69.6499060
  16.1388060 126.9115240  70.0126640  17.6997580 125.9699190  72.8336500
  17.0700320 125.2686500  73.0006630  17.1602720 126.7303320  72.6169660
  20.6389530 142.5838420  85.5047110  21.5656840 142.3482690  85.5483070
  20.6239960 143.4110420  85.0233140  28.8734590 142.1263990  72.5021360
  29.0486780 141.4401730  71.8582280  28.1756160 142.6511040  72.1098030
  17.8253140 125.2483170  85.2688990  17.5437410 125.7516770  84.5049810
  18.2072840 124.4504920  84.9031120  16.7162240 142.5158830  70.0556670
  17.4481060 142.2318110  69.5080560  16.9755910 142.2772110  70.9456050
  15.8777030 138.6323560  70.0603000  15.2485910 139.1008660  70.6088830
  15.9924860 137.7872780  70.4949190  24.4268600 124.6636750  85.8469460
  24.3134050 124.9831360  86.7420980  25.2438340 125.0649260  85.5506740
  27.2067090 141.8108280  85.3288150  27.9992410 141.3157510  85.1214110
  27.5000240 142.4898420  85.9363760  23.3326750 132.6829220  56.2104200
  23.2520800 131.7683830  55.9395910  22.9191170 133.1796290  55.5043910
  21.4644790 134.4608240  58.0913470  20.6886890 133.9808680  58.3812040
  22.1157720 133.7813890  57.9169630  15.4810620 134.7728050  58.9689230
  14.6495500 134.5176760  59.3685740  16.0891600 134.8438820  59.7047150
  25.4852220 138.8668430  56.8712600  25.0233750 138.0955670  57.1999770
  26.2977770 138.8934500  57.3765050  15.4611880 138.8068140  59.1647250
  15.7639920 137.9165880  58.9857470  16.2055470 139.3638360  58.9369500
  13.8902570 129.7329940  52.7531620  13.0019270 130.0745910  52.6511500
  14.1743760 129.5330260  51.8612450  11.8535580 132.3335590  58.6371320
  12.4251690 131.5657790  58.6374960  11.8537120 132.6324350  57.7277930
  21.7115530 141.1526440  56.4916590  21.0926970 141.6083940  55.9211030
  22.5667310 141.3077900  56.0906290  20.9053780 137.1365430  58.0983630
  20.8362060 136.1955370  57.9372760  21.6673640 137.2266840  58.6706200
  13.0960450 127.7419950  60.4240250  12.9163290 126.8445700  60.7043010
  12.6940530 128.2891820  61.0987200  21.9358950 129.9435810  58.3252560
  22.3123770 129.0707690  58.2126230  21.8378460 130.2794510  57.4343000
  16.0663960 128.3161440  53.7870000  16.1730710 129.2165170  54.0938760
  15.1556320 128.2679410  53.4964650  25.7183070 127.4386250  55.2580900
  26.5392690 126.9482820  55.3006380  25.7517150 128.0283910  56.0112740
  13.7147120 130.2380450  59.0322590  14.3957230 130.5018820  59.6509990
  13.3995170 129.3981320  59.3660600  17.9071690 131.2847810  58.1195180
  18.4149910 131.7828780  58.7600200  18.4384930 130.5083010  57.9434540
  30.0082620 129.4553000  61.8224530  29.3034790 129.8434710  61.3039640
  30.2740540 130.1503290  62.4245460  16.1907790 125.9246370  62.3858600
  16.1926230 126.4418760  61.5804500  15.3612100 125.4476550  62.3628530
  22.5778880 136.0365680  53.8848500  21.9596150 136.5015130  53.3211220
  23.0902130 136.7293160  54.3018010  17.4410640 135.5641550  60.5632100
  17.1080020 136.1910470  61.2053170  17.6177320 136.0903430  59.7833770
  25.9544550 129.3786630  58.0308440  25.2500120 129.6671520  58.6111550
  26.3156710 130.1886740  57.6708000  15.8723120 127.6356330  60.3929050
  16.2139930 128.4798380  60.0982920  14.9338930 127.7840070  60.5094390
  16.6529740 137.5322350  62.3781280  17.2703740 138.2073430  62.0965730
  15.7922860 137.9410330  62.2868780  11.9462080 136.7222210  51.2588130
  11.5690060 137.2109310  50.5273030  12.2035150 137.3947490  51.8894660
  27.5707330 138.9961760  60.2935920  26.8870850 139.6660870  60.2852590
  28.1101620 139.1942410  59.5280780  29.0231470 128.8241420  58.4217650
  28.0756380 128.8580400  58.5533080  29.3481460 129.6380370  58.8067010
  19.5551010 125.1238600  56.7173640  19.8625990 124.5685490  56.0009140
  18.6251710 125.2583060  56.5346630  25.1066070 140.8405890  59.0081100
  25.1193230 140.4368180  58.1403360  24.5541290 141.6153180  58.9042530
  26.4011490 137.5622110  54.0971270  26.2907820 136.6196440  54.2220690
  26.3979740 137.9237750  54.9834030  24.5051510 135.7435730  60.3363710
  24.9220300 135.5295840  59.5017170  25.2291330 136.0008520  60.9072330
  21.9431770 133.1887430  53.4533760  21.0161050 133.1224810  53.6822230
  22.0956590 134.1267560  53.3389000  21.9300850 129.4604430  50.4500920
  20.9904520 129.6218390  50.5353380  22.2484110 130.1790110  49.9036910
  28.4513610 134.1422950  60.4279950  27.6232240 134.2116040  59.9530080
  29.0464090 134.7277260  59.9595780  25.9729060 134.7507730  53.9569010
  25.3541480 134.4127280  53.3095310  25.9553510 134.1067490  54.6648200
  25.4155620 130.9292270  61.3734820  25.0026800 131.7545980  61.6274810
  24.6831570 130.3437310  61.1811180  17.5488410 133.7152170  56.2353490
  17.1445410 133.0029420  55.7399390  17.6351530 133.3705410  57.1241530
  18.0170110 137.4019730  58.3992700  17.7198400 136.7965200  57.7200480
  18.9669930 137.4397040  58.2882060  16.2617030 130.4895380  60.0152530
  16.8131620 130.5990720  59.2405780  16.7760540 130.8632980  60.7307760
  26.1055720 140.9751600  62.0615800  25.6286280 141.7823790  61.8688410
  25.4217510 140.3229930  62.2142010  17.1088540 137.1401420  65.0500500
  16.2117070 137.3641390  65.2973900  17.1341410 137.2636360  64.1011900
  24.1493760 133.9894540  50.9641760  24.5887040 133.1516970  50.8179580
  24.8622180 134.6223940  51.0505900  15.9359760 134.0114740  63.6257870
  15.7967530 134.8837540  63.9945270  15.0541120 133.6687550  63.4805810
  22.2589140 138.9290610  54.9323000  22.6985050 139.6714940  54.5178390
  22.1976030 139.1717180  55.8561960  17.7340110 139.9536440  65.8343020
  17.7055540 140.3579390  64.9671450  17.5705080 139.0246800  65.6714620
  27.7310900 125.2437350  49.2782800  27.4183560 125.3364180  50.1781870
  28.4923370 125.8218380  49.2280230  14.2493040 132.6097150  53.7360140
  14.1290640 133.3359240  53.1241410  13.9393930 131.8400060  53.2588050
  29.6854930 140.7363540  67.1307190  30.1614650 141.2146430  67.8096270
  30.3062090 140.6681030  66.4052690  11.8878410 135.7812290  59.5428780
  11.9658830 135.9161060  58.5984500  12.5020090 135.0728180  59.7356900
  13.1326040 137.4812480  55.9534960  12.7254120 137.6227070  55.0988560
  14.0239050 137.1972640  55.7506170  29.0888180 137.9276390  64.2907200
  29.2151240 137.6888270  63.3724380  29.1309560 137.0960930  64.7629280
  22.9504920 141.6304390  62.8602010  23.4649590 141.5412400  63.6624440
  22.1074000 141.9764090  63.1529920  24.9259320 141.9159730  52.2886010
  24.7660460 141.6262670  53.1867840  24.7606030 141.1399860  51.7531240
  17.4047700 141.6958260  54.0657630  17.2290180 140.7793800  53.8525430
  16.5503440 142.0545550  54.3055430  24.6285450 139.4247290  50.8484010
  23.9350610 139.4224580  50.1886290  25.3708310 139.0006610  50.4178180
  24.1935380 141.0510000  54.9232500  24.6492330 140.2699380  55.2371120
  24.5327900 141.7616820  55.4673680  28.9412190 129.9808850  65.2556940
  28.3256460 130.4888520  64.7272400  28.6208610 129.0807180  65.1982880
  11.9437930 136.8226460  62.0823240  12.1068970 136.3531820  61.2642610
  12.4090380 136.3150020  62.7472080  16.7156700 125.9532220  57.1183810
  16.2724850 126.7341760  56.7868330  17.2741690 126.2762110  57.8254750
  21.0026510 128.8200740  62.7219130  20.5405880 129.0283760  63.5339070
  20.6004620 128.0060090  62.4189800  26.0031020 130.0409690  63.8515790
  25.1524610 129.7415440  64.1724860  25.8432810 130.2851700  62.9399610
  23.0980730 131.5411440  65.9514580  23.4234140 130.7075190  65.6116810
  23.8861060 132.0639960  66.0992910  19.8315520 125.5742920  51.9989640
  19.2069700 125.5702790  52.7242950  19.7445640 124.7073880  51.6025610
  18.7532600 126.4979550  58.9773410  19.0504930 127.4042380  58.8965430
  19.3018160 126.0098330  58.3632980  16.5070920 131.0765790  54.8465060
  16.2811840 130.8602960  55.7511680  15.7263450 131.5094250  54.5011030
  23.7368680 131.0829160  53.4455710  23.1377570 131.8064960  53.2619330
  24.2848290 131.0205940  52.6632160  18.9470130 131.9751370  65.5125330
  18.8513730 131.0346100  65.3625730  19.7902110 132.1966440  65.1173400
  22.3433550 129.7192700  55.4758990  22.7363120 130.0364900  54.6627680
  22.7050400 128.8404580  55.5903510  14.0780670 128.3865040  63.6659110
  13.6844060 129.2340250  63.8731890  13.3899070 127.7491410  63.8567750
  20.6525720 128.4700010  66.7355850  19.9624040 128.2772210  67.3701940
  21.3958020 128.7534650  67.2680150  11.3797720 126.3093500  57.6989190
  11.0910770 126.8796360  58.4114170  12.1243480 125.8297950  58.0620420
  11.5667950 130.2513620  48.9091910  11.4842620 131.1944380  49.0506900
  11.2151010 130.1088530  48.0304260  22.9288690 132.3098450  59.5709770
  22.1969810 132.8185260  59.9199870  22.5313030 131.4928430  59.2698550
  19.3666080 128.9852650  57.9762260  19.3702140 128.5442600  57.1266800
  20.2617200 129.3069980  58.0834080  15.2168460 128.8679140  56.9356470
  14.8768510 129.3454370  57.6923520  14.4545780 128.4144260  56.5757570
  19.4286230 129.9864730  50.9669020  19.5499050 129.9451210  51.9154840
  19.0434740 130.8488880  50.8115750  23.3914600 127.7632130  58.9832710
  23.4087340 128.2140780  59.8274560  23.1430180 126.8637770  59.1966150
  18.4407730 132.2965870  50.3652320  17.8724630 131.8484120  49.7388230
  19.1496730 132.6558650  49.8317470  26.8185350 125.1764310  64.8219090
  27.1431120 124.4453970  65.3477070  26.8541860 124.8577950  63.9200080
  13.5176910 136.1977890  64.2419050  13.1331700 135.5571560  64.8402010
  13.8289100 136.9014010  64.8113780  19.6674050 133.0454430  59.7227670
  20.0344180 132.5713000  60.4689010  19.4779110 133.9196000  60.0636010
  12.5314540 127.7898120  55.8521140  12.2461460 127.4253790  56.6899760
  12.4693400 127.0578580  55.2384280  17.4573420 132.0863070  62.0411880
  17.1530490 132.9655050  62.2662240  18.4119880 132.1462860  62.0769320
  15.9855210 136.2924060  52.6378730  15.2117470 135.7521680  52.4777450
  16.7149840 135.7730670  52.2996490  26.7443190 135.2889420  58.4305120
  27.4642310 135.7844710  58.0401230  26.5425010 134.6107310  57.7858990
  22.2053130 126.6827380  52.5734510  21.3917740 126.1840550  52.4979820
  22.0115080 127.5225630  52.1570860  22.1261990 135.3598480  64.3174120
  22.0599300 134.4394150  64.0631710  21.4967130 135.4573920  65.0318760
  24.9201520 131.0547030  50.8696670  25.8081140 131.3664260  50.6948010
  24.8906610 130.1819280  50.4777250  16.0292610 135.9604440  56.2757540
  16.5471280 135.1572700  56.2214430  15.5776630 135.8983580  57.1174370
  20.9162110 137.2270720  51.5484840  21.2577810 137.9712950  51.0528160
  20.0874820 137.5401840  51.9109670  13.5137150 132.9265810  63.1883240
  13.1552090 133.5919660  63.7756580  13.2191710 132.0949360  63.5595860
  16.7150270 133.3850050  66.0722790  16.4150410 133.5307230  65.1750610
  17.4861510 132.8255340  65.9796180  22.0578720 138.1819050  64.0677920
  22.0723260 137.2500010  63.8496830  21.3503820 138.2678810  64.7067690
  27.1915790 132.3658870  50.3376530  27.1079510 132.7973090  49.4872970
  27.9109980 132.8257220  50.7703350  28.2689930 134.8226390  63.4146500
  27.5438120 135.4155170  63.2175890  28.7965390 134.8149930  62.6159870
  28.2203040 139.2201130  53.0658660  27.5779200 138.5656750  53.3402380
  27.8333700 139.6256220  52.2899330  23.7989520 136.5486560  56.9130350
  24.1513340 135.9514690  56.2531720  22.9151850 136.2230790  57.0838600
  19.8852800 137.3084250  54.3200760  20.5723930 137.8553460  54.7008350
  19.0985220 137.8524980  54.3550370  12.0245200 132.9257070  49.8117840
  12.8940050 133.2081870  50.0953760  11.5335520 133.7392940  49.6966650
  19.1880010 134.3130280  53.9326120  19.6442790 135.1235530  54.1586310
  18.8368220 133.9953420  54.7644610  21.4912620 139.8236620  61.1618420
  22.1354840 140.0296000  61.8391840  21.8542060 139.0625020  60.7089270
  15.0891790 124.6567930  54.4048640  14.9606420 124.6485830  55.3533560
  14.2653810 124.9951020  54.0539650  22.7644700 137.8268970  59.8795870
  23.4066930 137.1262130  59.9928040  23.2894050 138.6067410  59.6992760
  26.6100420 138.1117590  49.6035010  26.3838000 137.3948030  50.1959650
  26.2196620 137.8630030  48.7656760  24.5382320 138.6263870  63.0831930
  24.8738560 139.2130560  63.7609850  23.6182660 138.4956580  63.3129720
  12.3916450 142.1384450  50.3779470  12.7514090 142.7373790  49.7236740
  12.2508790 142.6844340  51.1514500  12.0885720 126.4159050  63.8655340
  11.3744240 126.6155970  64.4707950  12.5080760 125.6398620  64.2370140
  26.1916670 136.0289530  51.2649170  25.9038370 136.4902220  52.0527050
  26.9868840 135.5687300  51.5333390  12.3758310 140.4039310  64.8521870
  12.4849430 139.4634050  64.7117260  11.7238870 140.6694060  64.2035600
  20.3670900 138.6755200  66.2519990  20.0467770 137.9564440  66.7965680
  19.6929260 139.3510270  66.3256050  18.4085070 139.5215650  51.1953140
  18.3995170 140.2545340  50.5797650  17.4883430 139.2747230  51.2880100
  14.0091710 134.7430540  51.9399900  13.4019660 135.4829440  51.9495200
  14.4841060 134.8329900  51.1138100  23.5824500 128.9081360  61.6156790
  23.9505320 128.0876570  61.9436360  22.7222700 128.9683250  62.0312440
  26.9486530 127.8638300  52.4244350  26.3199690 127.9683970  51.7102580
  26.4538450 128.0835080  53.2138230  21.3944670 139.5843890  49.8578330
  21.4956650 139.3807880  48.9280310  20.4946410 139.3302170  50.0626110
  18.9170560 130.1424250  53.8402230  18.2086710 130.6110590  54.2815840
  19.2015040 129.4846260  54.4747420  20.5426490 131.5620950  61.8394760
  21.0411740 132.0366770  62.5046610  20.6849440 130.6384470  62.0464790
  22.9485990 126.8674910  55.2798020  22.8253770 126.8861040  54.3307530
  23.8970550 126.9153850  55.3996420  20.0362780 142.1030210  54.5526000
  20.2904280 142.0651600  53.6305370  19.0875260 141.9763540  54.5454250
  17.1205580 128.4509330  51.2152940  17.9696110 128.8879480  51.1493130
  16.7536850 128.7629590  52.0425000  27.7493350 127.7788910  62.6823150
  27.2466950 128.5194310  63.0216960  28.5650010 128.1672910  62.3659940
  26.0415360 133.0222090  56.1284510  25.1005500 133.0372320  56.3032200
  26.3559430 132.2358050  56.5744810  16.0197000 134.7041690  49.6888470
  16.7860270 134.5923050  50.2513900  16.0971690 134.0079660  49.0365240
  14.7143760 132.1366760  50.3721360  14.7947350 131.1894270  50.4838760
  15.6063510 132.4673640  50.4782020  28.0440940 140.1930940  57.8038770
  28.1688360 141.0162110  58.2762580  28.9106500 139.9821670  57.4562920
  15.5158470 142.2862150  57.4755900  16.2520950 141.7377610  57.7464470
  15.8999390 143.1518160  57.3361890  12.4003950 138.3535720  53.3497410
  11.4743730 138.5956860  53.3402820  12.8660380 139.1809980  53.2282160
  14.5216750 141.4708220  66.6641480  15.3229480 141.7920270  67.0776880
  14.0068570 141.1103800  67.3861390  18.6260780 141.4592460  49.2981470
  19.4189390 141.7481290  48.8463260  18.1065130 141.0284630  48.6193950
  23.3581380 137.5788090  66.6116890  22.7519540 137.6019690  65.8712640
  23.0535490 136.8471130  67.1484140  24.7881750 141.3068380  65.2226300
  25.7403500 141.2226400  65.1726540  24.6409970 141.9710090  65.8960090
  27.6790950 140.6862590  50.7218210  27.3932460 140.2727730  49.9072390
  27.4810500 141.6150300  50.6018730  12.2414560 133.9581680  65.6077530
  12.7453580 133.3788960  66.1793760  11.5021980 134.2421910  66.1453900
  19.1438180 136.6795870  49.1623820  19.0388820 136.0648220  49.8885200
  18.9762400 136.1561760  48.3786830  19.2952500 135.3652670  65.1413050
  18.5298170 135.9337670  65.0567720  19.4768460 135.0728880  64.2481280
  22.3840910 135.7415900  49.7665810  21.8351010 136.1885200  50.4108550
  23.0060170 135.2365150  50.2903480  26.4375850 137.0958000  65.6988070
  27.1785320 137.4333760  65.1955530  25.6748530 137.2650060  65.1457840
  14.2737640 132.1011270  66.5027600  14.3142980 131.8025140  67.4112830
  15.1283140 132.5018880  66.3435120  18.0516030 134.7006820  51.6631110
  18.4732450 134.5346690  52.5062500  18.1766870 133.8907050  51.1686250
  16.2143450 130.6803370  64.4702090  15.6839910 130.1894320  63.8425430
  16.8831520 131.1087570  63.9360020  20.5643670 133.7244430  48.9108210
  21.0849330 133.0093450  48.5449360  21.2112070 134.3630300  49.2108720
  25.1121510 135.1472830  64.2343280  25.5262530 135.3017910  65.0833700
  24.1772510 135.2728050  64.3969060  25.5843680 132.4868990  66.2382430
  26.1664450 131.7321310  66.1502910  25.7605450 133.0176430  65.4613910
  16.7015750 127.6465740  64.5499380  16.6072620 127.0286490  63.8250250
  16.1213140 128.3732030  64.3229290  19.4677190 126.2038980  61.5826770
  19.0194490 126.2263240  60.7372320  18.8342390 125.8058000  62.1797070
  19.8736740 135.0993310  62.2039210  20.2924850 135.9426040  62.0315450
  18.9545370 135.2365350  61.9745990  22.2100640 132.8309490  63.5877050
  22.3296850 132.2350630  64.3271890  23.0694640 132.8679180  63.1678350
  24.5488540 133.3846680  62.1639560  24.0223760 133.9089300  61.5604700
  24.8919880 134.0174070  62.7949290  16.9474930 130.7740050  48.6089270
  16.7463990 129.9107410  48.9702610  16.7766980 130.6873410  47.6710870
  17.7244160 141.4046320  63.3196940  17.1865250 142.1292380  63.0005640
  17.9778120 140.9276660  62.5294280  18.9769410 129.3730840  64.8452870
  19.5669100 129.0646690  65.5330690  18.1589650 128.9010590  65.0012770
  23.7962840 128.9896650  65.0785890  23.1078360 128.3278190  65.0135880
  24.5168860 128.5434920  65.5234350  24.4263240 125.5848280  51.1376150
  24.7065530 124.7416180  51.4935570  23.6528970 125.8171390  51.6514900
  15.7457730 127.8740670  48.5967150  16.0483630 127.8808100  47.6886300
  16.4852320 127.5238530  49.0934810  20.5806370 142.6397530  63.5783590
  20.5065070 143.5432670  63.8855960  19.6785210 142.3209430  63.5505660
  18.9642660 126.8175290  49.5823350  18.6164660 126.1399280  49.0025800
  19.1655430 126.3564800  50.3966740  21.1291700 141.8056040  51.2009950
  22.0242490 142.1441010  51.2228710  21.1609330 141.0835450  50.5734230
  14.7687860 137.1783090  49.4296950  15.2062730 137.7212760  50.0854530
  15.2535590 136.3530040  49.4393290  11.9833660 139.9672120  56.8817210
  12.3136670 139.0993180  56.6495850  12.4124660 140.1730640  57.7122170
  16.5795580 138.2981130  54.5419180  16.2791120 138.1746100  55.4423090
  16.4733070 137.4389720  54.1334910  12.4723870 140.8342710  59.6198840
  12.0354860 141.0143510  60.4522990  13.0401550 141.5917330  59.4780560
  28.1086050 140.3359710  63.9076150  27.5088040 140.3952270  63.1640070
  28.2379950 139.3964690  64.0373000  29.3487500 138.0777530  49.2445860
  28.5180460 138.1454180  49.7153090  29.5259330 138.9681650  48.9412720
  28.8043960 134.8225010  51.7480060  29.5662870 135.3921660  51.8539750
  28.8198330 134.2552210  52.5188370  12.3048300 133.3462940  55.9787720
  11.6497140 133.0774580  55.3347420  13.1426250 133.2367420  55.5289700
  29.8103930 135.6775110  56.5921990  30.1812760 134.8942430  56.1857960
  30.4505860 136.3664210  56.4139290  26.7937690 137.0611690  62.0052310
  25.9797530 137.4908850  62.2678100  27.2011890 137.6730100  61.3921360
  28.8563130 135.1159380  48.9052580  29.1311970 136.0238260  48.7771800
  28.6673870 135.0521910  49.8414570  25.2538740 128.1404230  50.2006210
  25.6723620 127.9535210  49.3602870  24.9474800 127.2883280  50.5109140
  28.7528470 133.0528370  53.8982010  28.3772070 132.2856300  53.4663300
  28.0231590 133.4351070  54.3856940  13.3424230 133.7315510  60.5191060
  13.7097270 133.6442910  61.3987080  12.7735050 132.9682060  60.4197920
  28.1428090 132.1999890  63.5321530  27.9114180 131.9712640  62.6319480
  28.4032640 133.1199440  63.4866420  12.8940230 130.6424600  64.4249480
  11.9996280 130.6091360  64.7643190  13.4337780 130.8411390  65.1900730
  26.5816160 127.4256320  66.3101230  27.4586340 127.4339720  66.6935230
  26.5937000 126.6887160  65.6993580  11.5186380 130.5561870  51.9213050
  10.6150460 130.8192070  51.7464710  12.0027000 130.8273040  51.1413010
  28.0279430 131.2785860  57.1989250  28.5516910 130.7848510  56.5679420
  28.6138850 131.4136220  57.9436820  28.2069150 131.3625730  60.7208800
  27.2571860 131.3289270  60.8353790  28.3882160 132.2725840  60.4858570
  14.0613590 129.6127410  49.8307430  14.7705290 129.1910630  49.3454710
  13.3453530 129.6802640  49.1990780  13.7087750 125.6666740  48.8710080
  14.4315880 126.2075680  49.1891300  13.9812270 125.3930160  47.9951620
  27.5179400 130.5359210  53.1381660  28.0138520 130.3030080  53.9230540
  27.3195470 129.6971050  52.7219300  13.3979940 124.9172930  58.7732700
  14.0456130 124.3670310  58.3327860  13.8181780 125.1716080  59.5948510
  28.9466560 129.1720160  55.6719340  28.8365840 129.0176200  56.6101610
  29.7074150 128.6441100  55.4294750  27.2932280 125.1114290  62.1302340
  27.9304500 125.7248430  62.4961530  27.4407170 125.1474950  61.1851570
  29.8356830 127.0028080  48.9125480  30.7606140 126.8709260  48.7043770
  29.8132620 127.0820900  49.8661930  29.9095320 127.7738740  51.5382190
  29.1146820 127.7083860  52.0675100  30.1138600 128.7089380  51.5267540
  26.8513740 141.8130290  55.5320580  27.4472810 141.4914860  54.8555000
  27.1091890 141.3402110  56.3233850  13.1511940 125.0728600  61.5158020
  12.8026760 125.5292420  62.2816200  12.8199640 124.1785730  61.5980450
  14.7576310 138.2448200  65.6811210  14.7145940 137.8741110  66.5625670
  14.8887320 139.1825770  65.8213030  18.4582340 139.8007790  61.2820930
  18.2173700 140.0682350  60.3951450  19.3984980 139.9713520  61.3371790
  20.6636760 126.2640480  65.0377440  20.6025650 126.8562310  65.7872850
  21.6037140 126.1566440  64.8927700  23.3011320 125.9210540  64.6769730
  23.9151730 126.2389830  64.0150810  23.8460880 125.4359130  65.2965590
  29.7186500 141.8202170  62.0831570  29.2244780 142.2171040  61.3658700
  29.1099790 141.1951380  62.4768850  13.8232580 124.6004800  64.7908790
  14.3715570 124.4192850  64.0274900  13.8887890 123.8098910  65.3265100
  14.5964340 141.1910450  62.8008990  14.0024660 141.0595150  63.5399030
  14.5888180 140.3548590  62.3351090  24.0419360 124.4842680  61.0039020
  23.1679200 124.8177790  60.8011950  23.9330110 124.0115860  61.8290890
  24.9491340 126.6913550  62.3880740  24.6204700 125.8765310  62.0082470
  25.8973640 126.6483360  62.2646430  27.4025950 142.4625590  59.3618310
  26.9428920 143.2141400  58.9876330  26.7738410 141.7432060  59.3033110
  14.2276570 138.5568830  61.7517030  13.5010630 137.9374120  61.6842980
  14.2885720 138.9509440  60.8815110  17.8321670 140.7713830  58.5366440
  18.3486690 140.1601190  58.0114700  18.4819050 141.2742610  59.0277450
  20.5717170 141.6622320  59.3635420  20.8594980 141.4076620  58.4868430
  21.0840390 141.1099680  59.9540990  21.7894180 125.4012520  59.9431930
  21.0065970 125.8758020  60.2228690  21.4957110 124.4967350  59.8345110
  26.3415250 126.1035620  57.9881020  26.7823340 126.0480720  57.1402620
  26.0722840 127.0193630  58.0591200  28.2053820 125.7350860  55.9989840
  28.1442220 124.7912080  55.8520860  28.9845850 125.8430950  56.5443300
  12.5106570 141.8743220  54.9613790  12.3428610 141.2413900  55.6595680
  11.6441080 142.0802620  54.6107980  13.1334590 125.7060000  52.4645650
  13.8913950 125.8188880  51.8909680  12.6711760 126.5429200  52.4189080
  19.6748400 127.8199270  55.4547960  18.8622910 127.4456160  55.1143840
  20.1790040 127.0644350  55.7569150  24.1773380 124.4841720  56.6931030
  24.7802750 125.0561930  57.1679550  23.4366370 125.0481160  56.4704930
  27.3207980 124.8863280  51.9671310  27.5158610 125.7846730  52.2338740
  26.5337850 124.6550360  52.4604260  14.1169270 140.5676450  52.4063930
  13.5916890 140.9484480  51.7025890  14.0413850 141.1927220  53.1273640
  15.5059740 126.2324050  51.0047620  16.0352500 125.4453850  50.8755570
  16.1388060 126.9115240  51.2383150  17.6997580 125.9699190  54.0593010
  17.0700320 125.2686500  54.2263140  17.1602720 126.7303320  53.8426170
  20.6389530 142.5838420  66.7303620  21.5656840 142.3482690  66.7739580
  20.6239960 143.4110420  66.2489650  28.8734590 142.1263990  53.7277870
  29.0486780 141.4401730  53.0838790  28.1756160 142.6511040  53.3354540
  17.8253140 125.2483170  66.4945500  17.5437410 125.7516770  65.7306320
  18.2072840 124.4504920  66.1287630  16.7162240 142.5158830  51.2813180
  17.4481060 142.2318110  50.7337070  16.9755910 142.2772110  52.1712560
  15.8777030 138.6323560  51.2859510  15.2485910 139.1008660  51.8345340
  15.9924860 137.7872780  51.7205700  24.4268600 124.6636750  67.0725970
  24.3134050 124.9831360  67.9677490  25.2438340 125.0649260  66.7763250
  27.2067090 141.8108280  66.5544660  27.9992410 141.3157510  66.3470620
  27.5000240 142.4898420  67.1620270  23.3326750 132.6829220  37.4360710
  23.2520800 131.7683830  37.1652420  22.9191170 133.1796290  36.7300420
  21.4644790 134.4608240  39.3169980  20.6886890 133.9808680  39.6068550
  22.1157720 133.7813890  39.1426140  15.4810620 134.7728050  40.1945740
  14.6495500 134.5176760  40.5942250  16.0891600 134.8438820  40.9303660
  25.4852220 138.8668430  38.0969110  25.0233750 138.0955670  38.4256280
  26.2977770 138.8934500  38.6021560  15.4611880 138.8068140  40.3903760
  15.7639920 137.9165880  40.2113980  16.2055470 139.3638360  40.1626010
  13.8902570 129.7329940  33.9788130  13.0019270 130.0745910  33.8768010
  14.1743760 129.5330260  33.0868960  11.8535580 132.3335590  39.8627830
  12.4251690 131.5657790  39.8631470  11.8537120 132.6324350  38.9534440
  21.7115530 141.1526440  37.7173100  21.0926970 141.6083940  37.1467540
  22.5667310 141.3077900  37.3162800  20.9053780 137.1365430  39.3240140
  20.8362060 136.1955370  39.1629270  21.6673640 137.2266840  39.8962710
  13.0960450 127.7419950  41.6496760  12.9163290 126.8445700  41.9299520
  12.6940530 128.2891820  42.3243710  21.9358950 129.9435810  39.5509070
  22.3123770 129.0707690  39.4382740  21.8378460 130.2794510  38.6599510
  16.0663960 128.3161440  35.0126510  16.1730710 129.2165170  35.3195270
  15.1556320 128.2679410  34.7221160  25.7183070 127.4386250  36.4837410
  26.5392690 126.9482820  36.5262890  25.7517150 128.0283910  37.2369250
  13.7147120 130.2380450  40.2579100  14.3957230 130.5018820  40.8766500
  13.3995170 129.3981320  40.5917110  17.9071690 131.2847810  39.3451690
  18.4149910 131.7828780  39.9856710  18.4384930 130.5083010  39.1691050
  30.0082620 129.4553000  43.0481040  29.3034790 129.8434710  42.5296150
  30.2740540 130.1503290  43.6501970  16.1907790 125.9246370  43.6115110
  16.1926230 126.4418760  42.8061010  15.3612100 125.4476550  43.5885040
  22.5778880 136.0365680  35.1105010  21.9596150 136.5015130  34.5467730
  23.0902130 136.7293160  35.5274520  17.4410640 135.5641550  41.7888610
  17.1080020 136.1910470  42.4309680  17.6177320 136.0903430  41.0090280
  25.9544550 129.3786630  39.2564950  25.2500120 129.6671520  39.8368060
  26.3156710 130.1886740  38.8964510  15.8723120 127.6356330  41.6185560
  16.2139930 128.4798380  41.3239430  14.9338930 127.7840070  41.7350900
  16.6529740 137.5322350  43.6037790  17.2703740 138.2073430  43.3222240
  15.7922860 137.9410330  43.5125290  11.9462080 136.7222210  32.4844640
  11.5690060 137.2109310  31.7529540  12.2035150 137.3947490  33.1151170
  27.5707330 138.9961760  41.5192430  26.8870850 139.6660870  41.5109100
  28.1101620 139.1942410  40.7537290  29.0231470 128.8241420  39.6474160
  28.0756380 128.8580400  39.7789590  29.3481460 129.6380370  40.0323520
  19.5551010 125.1238600  37.9430150  19.8625990 124.5685490  37.2265650
  18.6251710 125.2583060  37.7603140  25.1066070 140.8405890  40.2337610
  25.1193230 140.4368180  39.3659870  24.5541290 141.6153180  40.1299040
  26.4011490 137.5622110  35.3227780  26.2907820 136.6196440  35.4477200
  26.3979740 137.9237750  36.2090540  24.5051510 135.7435730  41.5620220
  24.9220300 135.5295840  40.7273680  25.2291330 136.0008520  42.1328840
  21.9431770 133.1887430  34.6790270  21.0161050 133.1224810  34.9078740
  22.0956590 134.1267560  34.5645510  21.9300850 129.4604430  31.6757430
  20.9904520 129.6218390  31.7609890  22.2484110 130.1790110  31.1293420
  28.4513610 134.1422950  41.6536460  27.6232240 134.2116040  41.1786590
  29.0464090 134.7277260  41.1852290  25.9729060 134.7507730  35.1825520
  25.3541480 134.4127280  34.5351820  25.9553510 134.1067490  35.8904710
  25.4155620 130.9292270  42.5991330  25.0026800 131.7545980  42.8531320
  24.6831570 130.3437310  42.4067690  17.5488410 133.7152170  37.4610000
  17.1445410 133.0029420  36.9655900  17.6351530 133.3705410  38.3498040
  18.0170110 137.4019730  39.6249210  17.7198400 136.7965200  38.9456990
  18.9669930 137.4397040  39.5138570  16.2617030 130.4895380  41.2409040
  16.8131620 130.5990720  40.4662290  16.7760540 130.8632980  41.9564270
  26.1055720 140.9751600  43.2872310  25.6286280 141.7823790  43.0944920
  25.4217510 140.3229930  43.4398520  17.1088540 137.1401420  46.2757010
  16.2117070 137.3641390  46.5230410  17.1341410 137.2636360  45.3268410
  24.1493760 133.9894540  32.1898270  24.5887040 133.1516970  32.0436090
  24.8622180 134.6223940  32.2762410  15.9359760 134.0114740  44.8514380
  15.7967530 134.8837540  45.2201780  15.0541120 133.6687550  44.7062320
  22.2589140 138.9290610  36.1579510  22.6985050 139.6714940  35.7434900
  22.1976030 139.1717180  37.0818470  17.7340110 139.9536440  47.0599530
  17.7055540 140.3579390  46.1927960  17.5705080 139.0246800  46.8971130
  27.7310900 125.2437350  30.5039310  27.4183560 125.3364180  31.4038380
  28.4923370 125.8218380  30.4536740  14.2493040 132.6097150  34.9616650
  14.1290640 133.3359240  34.3497920  13.9393930 131.8400060  34.4844560
  29.6854930 140.7363540  48.3563700  30.1614650 141.2146430  49.0352780
  30.3062090 140.6681030  47.6309200  11.8878410 135.7812290  40.7685290
  11.9658830 135.9161060  39.8241010  12.5020090 135.0728180  40.9613410
  13.1326040 137.4812480  37.1791470  12.7254120 137.6227070  36.3245070
  14.0239050 137.1972640  36.9762680  29.0888180 137.9276390  45.5163710
  29.2151240 137.6888270  44.5980890  29.1309560 137.0960930  45.9885790
  22.9504920 141.6304390  44.0858520  23.4649590 141.5412400  44.8880950
  22.1074000 141.9764090  44.3786430  24.9259320 141.9159730  33.5142520
  24.7660460 141.6262670  34.4124350  24.7606030 141.1399860  32.9787750
  17.4047700 141.6958260  35.2914140  17.2290180 140.7793800  35.0781940
  16.5503440 142.0545550  35.5311940  24.6285450 139.4247290  32.0740520
  23.9350610 139.4224580  31.4142800  25.3708310 139.0006610  31.6434690
  24.1935380 141.0510000  36.1489010  24.6492330 140.2699380  36.4627630
  24.5327900 141.7616820  36.6930190  28.9412190 129.9808850  46.4813450
  28.3256460 130.4888520  45.9528910  28.6208610 129.0807180  46.4239390
  11.9437930 136.8226460  43.3079750  12.1068970 136.3531820  42.4899120
  12.4090380 136.3150020  43.9728590  16.7156700 125.9532220  38.3440320
  16.2724850 126.7341760  38.0124840  17.2741690 126.2762110  39.0511260
  21.0026510 128.8200740  43.9475640  20.5405880 129.0283760  44.7595580
  20.6004620 128.0060090  43.6446310  26.0031020 130.0409690  45.0772300
  25.1524610 129.7415440  45.3981370  25.8432810 130.2851700  44.1656120
  23.0980730 131.5411440  47.1771090  23.4234140 130.7075190  46.8373320
  23.8861060 132.0639960  47.3249420  19.8315520 125.5742920  33.2246150
  19.2069700 125.5702790  33.9499460  19.7445640 124.7073880  32.8282120
  18.7532600 126.4979550  40.2029920  19.0504930 127.4042380  40.1221940
  19.3018160 126.0098330  39.5889490  16.5070920 131.0765790  36.0721570
  16.2811840 130.8602960  36.9768190  15.7263450 131.5094250  35.7267540
  23.7368680 131.0829160  34.6712220  23.1377570 131.8064960  34.4875840
  24.2848290 131.0205940  33.8888670  18.9470130 131.9751370  46.7381840
  18.8513730 131.0346100  46.5882240  19.7902110 132.1966440  46.3429910
  22.3433550 129.7192700  36.7015500  22.7363120 130.0364900  35.8884190
  22.7050400 128.8404580  36.8160020  14.0780670 128.3865040  44.8915620
  13.6844060 129.2340250  45.0988400  13.3899070 127.7491410  45.0824260
  20.6525720 128.4700010  47.9612360  19.9624040 128.2772210  48.5958450
  21.3958020 128.7534650  48.4936660  11.3797720 126.3093500  38.9245700
  11.0910770 126.8796360  39.6370680  12.1243480 125.8297950  39.2876930
  11.5667950 130.2513620  30.1348420  11.4842620 131.1944380  30.2763410
  11.2151010 130.1088530  29.2560770  22.9288690 132.3098450  40.7966280
  22.1969810 132.8185260  41.1456380  22.5313030 131.4928430  40.4955060
  19.3666080 128.9852650  39.2018770  19.3702140 128.5442600  38.3523310
  20.2617200 129.3069980  39.3090590  15.2168460 128.8679140  38.1612980
  14.8768510 129.3454370  38.9180030  14.4545780 128.4144260  37.8014080
  19.4286230 129.9864730  32.1925530  19.5499050 129.9451210  33.1411350
  19.0434740 130.8488880  32.0372260  23.3914600 127.7632130  40.2089220
  23.4087340 128.2140780  41.0531070  23.1430180 126.8637770  40.4222660
  18.4407730 132.2965870  31.5908830  17.8724630 131.8484120  30.9644740
  19.1496730 132.6558650  31.0573980  26.8185350 125.1764310  46.0475600
  27.1431120 124.4453970  46.5733580  26.8541860 124.8577950  45.1456590
  13.5176910 136.1977890  45.4675560  13.1331700 135.5571560  46.0658520
  13.8289100 136.9014010  46.0370290  19.6674050 133.0454430  40.9484180
  20.0344180 132.5713000  41.6945520  19.4779110 133.9196000  41.2892520
  12.5314540 127.7898120  37.0777650  12.2461460 127.4253790  37.9156270
  12.4693400 127.0578580  36.4640790  17.4573420 132.0863070  43.2668390
  17.1530490 132.9655050  43.4918750  18.4119880 132.1462860  43.3025830
  15.9855210 136.2924060  33.8635240  15.2117470 135.7521680  33.7033960
  16.7149840 135.7730670  33.5253000  26.7443190 135.2889420  39.6561630
  27.4642310 135.7844710  39.2657740  26.5425010 134.6107310  39.0115500
  22.2053130 126.6827380  33.7991020  21.3917740 126.1840550  33.7236330
  22.0115080 127.5225630  33.3827370  22.1261990 135.3598480  45.5430630
  22.0599300 134.4394150  45.2888220  21.4967130 135.4573920  46.2575270
  24.9201520 131.0547030  32.0953180  25.8081140 131.3664260  31.9204520
  24.8906610 130.1819280  31.7033760  16.0292610 135.9604440  37.5014050
  16.5471280 135.1572700  37.4470940  15.5776630 135.8983580  38.3430880
  20.9162110 137.2270720  32.7741350  21.2577810 137.9712950  32.2784670
  20.0874820 137.5401840  33.1366180  13.5137150 132.9265810  44.4139750
  13.1552090 133.5919660  45.0013090  13.2191710 132.0949360  44.7852370
  16.7150270 133.3850050  47.2979300  16.4150410 133.5307230  46.4007120
  17.4861510 132.8255340  47.2052690  22.0578720 138.1819050  45.2934430
  22.0723260 137.2500010  45.0753340  21.3503820 138.2678810  45.9324200
  27.1915790 132.3658870  31.5633040  27.1079510 132.7973090  30.7129480
  27.9109980 132.8257220  31.9959860  28.2689930 134.8226390  44.6403010
  27.5438120 135.4155170  44.4432400  28.7965390 134.8149930  43.8416380
  28.2203040 139.2201130  34.2915170  27.5779200 138.5656750  34.5658890
  27.8333700 139.6256220  33.5155840  23.7989520 136.5486560  38.1386860
  24.1513340 135.9514690  37.4788230  22.9151850 136.2230790  38.3095110
  19.8852800 137.3084250  35.5457270  20.5723930 137.8553460  35.9264860
  19.0985220 137.8524980  35.5806880  12.0245200 132.9257070  31.0374350
  12.8940050 133.2081870  31.3210270  11.5335520 133.7392940  30.9223160
  19.1880010 134.3130280  35.1582630  19.6442790 135.1235530  35.3842820
  18.8368220 133.9953420  35.9901120  21.4912620 139.8236620  42.3874930
  22.1354840 140.0296000  43.0648350  21.8542060 139.0625020  41.9345780
  15.0891790 124.6567930  35.6305150  14.9606420 124.6485830  36.5790070
  14.2653810 124.9951020  35.2796160  22.7644700 137.8268970  41.1052380
  23.4066930 137.1262130  41.2184550  23.2894050 138.6067410  40.9249270
  26.6100420 138.1117590  30.8291520  26.3838000 137.3948030  31.4216160
  26.2196620 137.8630030  29.9913270  24.5382320 138.6263870  44.3088440
  24.8738560 139.2130560  44.9866360  23.6182660 138.4956580  44.5386230
  12.3916450 142.1384450  31.6035980  12.7514090 142.7373790  30.9493250
  12.2508790 142.6844340  32.3771010  12.0885720 126.4159050  45.0911850
  11.3744240 126.6155970  45.6964460  12.5080760 125.6398620  45.4626650
  26.1916670 136.0289530  32.4905680  25.9038370 136.4902220  33.2783560
  26.9868840 135.5687300  32.7589900  12.3758310 140.4039310  46.0778380
  12.4849430 139.4634050  45.9373770  11.7238870 140.6694060  45.4292110
  20.3670900 138.6755200  47.4776500  20.0467770 137.9564440  48.0222190
  19.6929260 139.3510270  47.5512560  18.4085070 139.5215650  32.4209650
  18.3995170 140.2545340  31.8054160  17.4883430 139.2747230  32.5136610
  14.0091710 134.7430540  33.1656410  13.4019660 135.4829440  33.1751710
  14.4841060 134.8329900  32.3394610  23.5824500 128.9081360  42.8413300
  23.9505320 128.0876570  43.1692870  22.7222700 128.9683250  43.2568950
  26.9486530 127.8638300  33.6500860  26.3199690 127.9683970  32.9359090
  26.4538450 128.0835080  34.4394740  21.3944670 139.5843890  31.0834840
  21.4956650 139.3807880  30.1536820  20.4946410 139.3302170  31.2882620
  18.9170560 130.1424250  35.0658740  18.2086710 130.6110590  35.5072350
  19.2015040 129.4846260  35.7003930  20.5426490 131.5620950  43.0651270
  21.0411740 132.0366770  43.7303120  20.6849440 130.6384470  43.2721300
  22.9485990 126.8674910  36.5054530  22.8253770 126.8861040  35.5564040
  23.8970550 126.9153850  36.6252930  20.0362780 142.1030210  35.7782510
  20.2904280 142.0651600  34.8561880  19.0875260 141.9763540  35.7710760
  17.1205580 128.4509330  32.4409450  17.9696110 128.8879480  32.3749640
  16.7536850 128.7629590  33.2681510  27.7493350 127.7788910  43.9079660
  27.2466950 128.5194310  44.2473470  28.5650010 128.1672910  43.5916450
  26.0415360 133.0222090  37.3541020  25.1005500 133.0372320  37.5288710
  26.3559430 132.2358050  37.8001320  16.0197000 134.7041690  30.9144980
  16.7860270 134.5923050  31.4770410  16.0971690 134.0079660  30.2621750
  14.7143760 132.1366760  31.5977870  14.7947350 131.1894270  31.7095270
  15.6063510 132.4673640  31.7038530  28.0440940 140.1930940  39.0295280
  28.1688360 141.0162110  39.5019090  28.9106500 139.9821670  38.6819430
  15.5158470 142.2862150  38.7012410  16.2520950 141.7377610  38.9720980
  15.8999390 143.1518160  38.5618400  12.4003950 138.3535720  34.5753920
  11.4743730 138.5956860  34.5659330  12.8660380 139.1809980  34.4538670
  14.5216750 141.4708220  47.8897990  15.3229480 141.7920270  48.3033390
  14.0068570 141.1103800  48.6117900  18.6260780 141.4592460  30.5237980
  19.4189390 141.7481290  30.0719770  18.1065130 141.0284630  29.8450460
  23.3581380 137.5788090  47.8373400  22.7519540 137.6019690  47.0969150
  23.0535490 136.8471130  48.3740650  24.7881750 141.3068380  46.4482810
  25.7403500 141.2226400  46.3983050  24.6409970 141.9710090  47.1216600
  27.6790950 140.6862590  31.9474720  27.3932460 140.2727730  31.1328900
  27.4810500 141.6150300  31.8275240  12.2414560 133.9581680  46.8334040
  12.7453580 133.3788960  47.4050270  11.5021980 134.2421910  47.3710410
  19.1438180 136.6795870  30.3880330  19.0388820 136.0648220  31.1141710
  18.9762400 136.1561760  29.6043340  19.2952500 135.3652670  46.3669560
  18.5298170 135.9337670  46.2824230  19.4768460 135.0728880  45.4737790
  22.3840910 135.7415900  30.9922320  21.8351010 136.1885200  31.6365060
  23.0060170 135.2365150  31.5159990  26.4375850 137.0958000  46.9244580
  27.1785320 137.4333760  46.4212040  25.6748530 137.2650060  46.3714350
  14.2737640 132.1011270  47.7284110  14.3142980 131.8025140  48.6369340
  15.1283140 132.5018880  47.5691630  18.0516030 134.7006820  32.8887620
  18.4732450 134.5346690  33.7319010  18.1766870 133.8907050  32.3942760
  16.2143450 130.6803370  45.6958600  15.6839910 130.1894320  45.0681940
  16.8831520 131.1087570  45.1616530  20.5643670 133.7244430  30.1364720
  21.0849330 133.0093450  29.7705870  21.2112070 134.3630300  30.4365230
  25.1121510 135.1472830  45.4599790  25.5262530 135.3017910  46.3090210
  24.1772510 135.2728050  45.6225570  25.5843680 132.4868990  47.4638940
  26.1664450 131.7321310  47.3759420  25.7605450 133.0176430  46.6870420
  16.7015750 127.6465740  45.7755890  16.6072620 127.0286490  45.0506760
  16.1213140 128.3732030  45.5485800  19.4677190 126.2038980  42.8083280
  19.0194490 126.2263240  41.9628830  18.8342390 125.8058000  43.4053580
  19.8736740 135.0993310  43.4295720  20.2924850 135.9426040  43.2571960
  18.9545370 135.2365350  43.2002500  22.2100640 132.8309490  44.8133560
  22.3296850 132.2350630  45.5528400  23.0694640 132.8679180  44.3934860
  24.5488540 133.3846680  43.3896070  24.0223760 133.9089300  42.7861210
  24.8919880 134.0174070  44.0205800  16.9474930 130.7740050  29.8345780
  16.7463990 129.9107410  30.1959120  16.7766980 130.6873410  28.8967380
  17.7244160 141.4046320  44.5453450  17.1865250 142.1292380  44.2262150
  17.9778120 140.9276660  43.7550790  18.9769410 129.3730840  46.0709380
  19.5669100 129.0646690  46.7587200  18.1589650 128.9010590  46.2269280
  23.7962840 128.9896650  46.3042400  23.1078360 128.3278190  46.2392390
  24.5168860 128.5434920  46.7490860  24.4263240 125.5848280  32.3632660
  24.7065530 124.7416180  32.7192080  23.6528970 125.8171390  32.8771410
  15.7457730 127.8740670  29.8223660  16.0483630 127.8808100  28.9142810
  16.4852320 127.5238530  30.3191320  20.5806370 142.6397530  44.8040100
  20.5065070 143.5432670  45.1112470  19.6785210 142.3209430  44.7762170
  18.9642660 126.8175290  30.8079860  18.6164660 126.1399280  30.2282310
  19.1655430 126.3564800  31.6223250  21.1291700 141.8056040  32.4266460
  22.0242490 142.1441010  32.4485220  21.1609330 141.0835450  31.7990740
  14.7687860 137.1783090  30.6553460  15.2062730 137.7212760  31.3111040
  15.2535590 136.3530040  30.6649800  11.9833660 139.9672120  38.1073720
  12.3136670 139.0993180  37.8752360  12.4124660 140.1730640  38.9378680
  16.5795580 138.2981130  35.7675690  16.2791120 138.1746100  36.6679600
  16.4733070 137.4389720  35.3591420  12.4723870 140.8342710  40.8455350
  12.0354860 141.0143510  41.6779500  13.0401550 141.5917330  40.7037070
  28.1086050 140.3359710  45.1332660  27.5088040 140.3952270  44.3896580
  28.2379950 139.3964690  45.2629510  29.3487500 138.0777530  30.4702370
  28.5180460 138.1454180  30.9409600  29.5259330 138.9681650  30.1669230
  28.8043960 134.8225010  32.9736570  29.5662870 135.3921660  33.0796260
  28.8198330 134.2552210  33.7444880  12.3048300 133.3462940  37.2044230
  11.6497140 133.0774580  36.5603930  13.1426250 133.2367420  36.7546210
  29.8103930 135.6775110  37.8178500  30.1812760 134.8942430  37.4114470
  30.4505860 136.3664210  37.6395800  26.7937690 137.0611690  43.2308820
  25.9797530 137.4908850  43.4934610  27.2011890 137.6730100  42.6177870
  28.8563130 135.1159380  30.1309090  29.1311970 136.0238260  30.0028310
  28.6673870 135.0521910  31.0671080  25.2538740 128.1404230  31.4262720
  25.6723620 127.9535210  30.5859380  24.9474800 127.2883280  31.7365650
  28.7528470 133.0528370  35.1238520  28.3772070 132.2856300  34.6919810
  28.0231590 133.4351070  35.6113450  13.3424230 133.7315510  41.7447570
  13.7097270 133.6442910  42.6243590  12.7735050 132.9682060  41.6454430
  28.1428090 132.1999890  44.7578040  27.9114180 131.9712640  43.8575990
  28.4032640 133.1199440  44.7122930  12.8940230 130.6424600  45.6505990
  11.9996280 130.6091360  45.9899700  13.4337780 130.8411390  46.4157240
  26.5816160 127.4256320  47.5357740  27.4586340 127.4339720  47.9191740
  26.5937000 126.6887160  46.9250090  11.5186380 130.5561870  33.1469560
  10.6150460 130.8192070  32.9721220  12.0027000 130.8273040  32.3669520
  28.0279430 131.2785860  38.4245760  28.5516910 130.7848510  37.7935930
  28.6138850 131.4136220  39.1693330  28.2069150 131.3625730  41.9465310
  27.2571860 131.3289270  42.0610300  28.3882160 132.2725840  41.7115080
  14.0613590 129.6127410  31.0563940  14.7705290 129.1910630  30.5711220
  13.3453530 129.6802640  30.4247290  13.7087750 125.6666740  30.0966590
  14.4315880 126.2075680  30.4147810  13.9812270 125.3930160  29.2208130
  27.5179400 130.5359210  34.3638170  28.0138520 130.3030080  35.1487050
  27.3195470 129.6971050  33.9475810  13.3979940 124.9172930  39.9989210
  14.0456130 124.3670310  39.5584370  13.8181780 125.1716080  40.8205020
  28.9466560 129.1720160  36.8975850  28.8365840 129.0176200  37.8358120
  29.7074150 128.6441100  36.6551260  27.2932280 125.1114290  43.3558850
  27.9304500 125.7248430  43.7218040  27.4407170 125.1474950  42.4108080
  29.8356830 127.0028080  30.1381990  30.7606140 126.8709260  29.9300280
  29.8132620 127.0820900  31.0918440  29.9095320 127.7738740  32.7638700
  29.1146820 127.7083860  33.2931610  30.1138600 128.7089380  32.7524050
  26.8513740 141.8130290  36.7577090  27.4472810 141.4914860  36.0811510
  27.1091890 141.3402110  37.5490360  13.1511940 125.0728600  42.7414530
  12.8026760 125.5292420  43.5072710  12.8199640 124.1785730  42.8236960
  14.7576310 138.2448200  46.9067720  14.7145940 137.8741110  47.7882180
  14.8887320 139.1825770  47.0469540  18.4582340 139.8007790  42.5077440
  18.2173700 140.0682350  41.6207960  19.3984980 139.9713520  42.5628300
  20.6636760 126.2640480  46.2633950  20.6025650 126.8562310  47.0129360
  21.6037140 126.1566440  46.1184210  23.3011320 125.9210540  45.9026240
  23.9151730 126.2389830  45.2407320  23.8460880 125.4359130  46.5222100
  29.7186500 141.8202170  43.3088080  29.2244780 142.2171040  42.5915210
  29.1099790 141.1951380  43.7025360  13.8232580 124.6004800  46.0165300
  14.3715570 124.4192850  45.2531410  13.8887890 123.8098910  46.5521610
  14.5964340 141.1910450  44.0265500  14.0024660 141.0595150  44.7655540
  14.5888180 140.3548590  43.5607600  24.0419360 124.4842680  42.2295530
  23.1679200 124.8177790  42.0268460  23.9330110 124.0115860  43.0547400
  24.9491340 126.6913550  43.6137250  24.6204700 125.8765310  43.2338980
  25.8973640 126.6483360  43.4902940  27.4025950 142.4625590  40.5874820
  26.9428920 143.2141400  40.2132840  26.7738410 141.7432060  40.5289620
  14.2276570 138.5568830  42.9773540  13.5010630 137.9374120  42.9099490
  14.2885720 138.9509440  42.1071620  17.8321670 140.7713830  39.7622950
  18.3486690 140.1601190  39.2371210  18.4819050 141.2742610  40.2533960
  20.5717170 141.6622320  40.5891930  20.8594980 141.4076620  39.7124940
  21.0840390 141.1099680  41.1797500  21.7894180 125.4012520  41.1688440
  21.0065970 125.8758020  41.4485200  21.4957110 124.4967350  41.0601620
  26.3415250 126.1035620  39.2137530  26.7823340 126.0480720  38.3659130
  26.0722840 127.0193630  39.2847710  28.2053820 125.7350860  37.2246350
  28.1442220 124.7912080  37.0777370  28.9845850 125.8430950  37.7699810
  12.5106570 141.8743220  36.1870300  12.3428610 141.2413900  36.8852190
  11.6441080 142.0802620  35.8364490  13.1334590 125.7060000  33.6902160
  13.8913950 125.8188880  33.1166190  12.6711760 126.5429200  33.6445590
  19.6748400 127.8199270  36.6804470  18.8622910 127.4456160  36.3400350
  20.1790040 127.0644350  36.9825660  24.1773380 124.4841720  37.9187540
  24.7802750 125.0561930  38.3936060  23.4366370 125.0481160  37.6961440
  27.3207980 124.8863280  33.1927820  27.5158610 125.7846730  33.4595250
  26.5337850 124.6550360  33.6860770  14.1169270 140.5676450  33.6320440
  13.5916890 140.9484480  32.9282400  14.0413850 141.1927220  34.3530150
  15.5059740 126.2324050  32.2304130  16.0352500 125.4453850  32.1012080
  16.1388060 126.9115240  32.4639660  17.6997580 125.9699190  35.2849520
  17.0700320 125.2686500  35.4519650  17.1602720 126.7303320  35.0682680
  20.6389530 142.5838420  47.9560130  21.5656840 142.3482690  47.9996090
  20.6239960 143.4110420  47.4746160  28.8734590 142.1263990  34.9534380
  29.0486780 141.4401730  34.3095300  28.1756160 142.6511040  34.5611050
  17.8253140 125.2483170  47.7202010  17.5437410 125.7516770  46.9562830
  18.2072840 124.4504920  47.3544140  16.7162240 142.5158830  32.5069690
  17.4481060 142.2318110  31.9593580  16.9755910 142.2772110  33.3969070
  15.8777030 138.6323560  32.5116020  15.2485910 139.1008660  33.0601850
  15.9924860 137.7872780  32.9462210  24.4268600 124.6636750  48.2982480
  24.3134050 124.9831360  49.1934000  25.2438340 125.0649260  48.0019760
  27.2067090 141.8108280  47.7801170  27.9992410 141.3157510  47.5727130
  27.5000240 142.4898420  48.3876780  23.3326750 132.6829220  18.6617220
  23.2520800 131.7683830  18.3908930  22.9191170 133.1796290  17.9556930
  21.4644790 134.4608240  20.5426490  20.6886890 133.9808680  20.8325060
  22.1157720 133.7813890  20.3682650  15.4810620 134.7728050  21.4202250
  14.6495500 134.5176760  21.8198760  16.0891600 134.8438820  22.1560170
  25.4852220 138.8668430  19.3225620  25.0233750 138.0955670  19.6512790
  26.2977770 138.8934500  19.8278070  15.4611880 138.8068140  21.6160270
  15.7639920 137.9165880  21.4370490  16.2055470 139.3638360  21.3882520
  13.8902570 129.7329940  15.2044640  13.0019270 130.0745910  15.1024520
  14.1743760 129.5330260  14.3125470  11.8535580 132.3335590  21.0884340
  12.4251690 131.5657790  21.0887980  11.8537120 132.6324350  20.1790950
  21.7115530 141.1526440  18.9429610  21.0926970 141.6083940  18.3724050
  22.5667310 141.3077900  18.5419310  20.9053780 137.1365430  20.5496650
  20.8362060 136.1955370  20.3885780  21.6673640 137.2266840  21.1219220
  13.0960450 127.7419950  22.8753270  12.9163290 126.8445700  23.1556030
  12.6940530 128.2891820  23.5500220  21.9358950 129.9435810  20.7765580
  22.3123770 129.0707690  20.6639250  21.8378460 130.2794510  19.8856020
  16.0663960 128.3161440  16.2383020  16.1730710 129.2165170  16.5451780
  15.1556320 128.2679410  15.9477670  25.7183070 127.4386250  17.7093920
  26.5392690 126.9482820  17.7519400  25.7517150 128.0283910  18.4625760
  13.7147120 130.2380450  21.4835610  14.3957230 130.5018820  22.1023010
  13.3995170 129.3981320  21.8173620  17.9071690 131.2847810  20.5708200
  18.4149910 131.7828780  21.2113220  18.4384930 130.5083010  20.3947560
  30.0082620 129.4553000  24.2737550  29.3034790 129.8434710  23.7552660
  30.2740540 130.1503290  24.8758480  16.1907790 125.9246370  24.8371620
  16.1926230 126.4418760  24.0317520  15.3612100 125.4476550  24.8141550
  22.5778880 136.0365680  16.3361520  21.9596150 136.5015130  15.7724240
  23.0902130 136.7293160  16.7531030  17.4410640 135.5641550  23.0145120
  17.1080020 136.1910470  23.6566190  17.6177320 136.0903430  22.2346790
  25.9544550 129.3786630  20.4821460  25.2500120 129.6671520  21.0624570
  26.3156710 130.1886740  20.1221020  15.8723120 127.6356330  22.8442070
  16.2139930 128.4798380  22.5495940  14.9338930 127.7840070  22.9607410
  16.6529740 137.5322350  24.8294300  17.2703740 138.2073430  24.5478750
  15.7922860 137.9410330  24.7381800  11.9462080 136.7222210  13.7101150
  11.5690060 137.2109310  12.9786050  12.2035150 137.3947490  14.3407680
  27.5707330 138.9961760  22.7448940  26.8870850 139.6660870  22.7365610
  28.1101620 139.1942410  21.9793800  29.0231470 128.8241420  20.8730670
  28.0756380 128.8580400  21.0046100  29.3481460 129.6380370  21.2580030
  19.5551010 125.1238600  19.1686660  19.8625990 124.5685490  18.4522160
  18.6251710 125.2583060  18.9859650  25.1066070 140.8405890  21.4594120
  25.1193230 140.4368180  20.5916380  24.5541290 141.6153180  21.3555550
  26.4011490 137.5622110  16.5484290  26.2907820 136.6196440  16.6733710
  26.3979740 137.9237750  17.4347050  24.5051510 135.7435730  22.7876730
  24.9220300 135.5295840  21.9530190  25.2291330 136.0008520  23.3585350
  21.9431770 133.1887430  15.9046780  21.0161050 133.1224810  16.1335250
  22.0956590 134.1267560  15.7902020  21.9300850 129.4604430  12.9013940
  20.9904520 129.6218390  12.9866400  22.2484110 130.1790110  12.3549930
  28.4513610 134.1422950  22.8792970  27.6232240 134.2116040  22.4043100
  29.0464090 134.7277260  22.4108800  25.9729060 134.7507730  16.4082030
  25.3541480 134.4127280  15.7608330  25.9553510 134.1067490  17.1161220
  25.4155620 130.9292270  23.8247840  25.0026800 131.7545980  24.0787830
  24.6831570 130.3437310  23.6324200  17.5488410 133.7152170  18.6866510
  17.1445410 133.0029420  18.1912410  17.6351530 133.3705410  19.5754550
  18.0170110 137.4019730  20.8505720  17.7198400 136.7965200  20.1713500
  18.9669930 137.4397040  20.7395080  16.2617030 130.4895380  22.4665550
  16.8131620 130.5990720  21.6918800  16.7760540 130.8632980  23.1820780
  26.1055720 140.9751600  24.5128820  25.6286280 141.7823790  24.3201430
  25.4217510 140.3229930  24.6655030  17.1088540 137.1401420  27.5013520
  16.2117070 137.3641390  27.7486920  17.1341410 137.2636360  26.5524920
  24.1493760 133.9894540  13.4154780  24.5887040 133.1516970  13.2692600
  24.8622180 134.6223940  13.5018920  15.9359760 134.0114740  26.0770890
  15.7967530 134.8837540  26.4458290  15.0541120 133.6687550  25.9318830
  22.2589140 138.9290610  17.3836020  22.6985050 139.6714940  16.9691410
  22.1976030 139.1717180  18.3074980  17.7340110 139.9536440  28.2856040
  17.7055540 140.3579390  27.4184470  17.5705080 139.0246800  28.1227640
  27.7310900 125.2437350  11.7295820  27.4183560 125.3364180  12.6294890
  28.4923370 125.8218380  11.6793250  14.2493040 132.6097150  16.1873160
  14.1290640 133.3359240  15.5754430  13.9393930 131.8400060  15.7101070
  29.6854930 140.7363540  29.5820210  30.1614650 141.2146430  30.2609290
  30.3062090 140.6681030  28.8565710  11.8878410 135.7812290  21.9941800
  11.9658830 135.9161060  21.0497520  12.5020090 135.0728180  22.1869920
  13.1326040 137.4812480  18.4047980  12.7254120 137.6227070  17.5501580
  14.0239050 137.1972640  18.2019190  29.0888180 137.9276390  26.7420220
  29.2151240 137.6888270  25.8237400  29.1309560 137.0960930  27.2142300
  22.9504920 141.6304390  25.3115030  23.4649590 141.5412400  26.1137460
  22.1074000 141.9764090  25.6042940  24.9259320 141.9159730  14.7399030
  24.7660460 141.6262670  15.6380860  24.7606030 141.1399860  14.2044260
  17.4047700 141.6958260  16.5170650  17.2290180 140.7793800  16.3038450
  16.5503440 142.0545550  16.7568450  24.6285450 139.4247290  13.2997030
  23.9350610 139.4224580  12.6399310  25.3708310 139.0006610  12.8691200
  24.1935380 141.0510000  17.3745520  24.6492330 140.2699380  17.6884140
  24.5327900 141.7616820  17.9186700  28.9412190 129.9808850  27.7069960
  28.3256460 130.4888520  27.1785420  28.6208610 129.0807180  27.6495900
  11.9437930 136.8226460  24.5336260  12.1068970 136.3531820  23.7155630
  12.4090380 136.3150020  25.1985100  16.7156700 125.9532220  19.5696830
  16.2724850 126.7341760  19.2381350  17.2741690 126.2762110  20.2767770
  21.0026510 128.8200740  25.1732150  20.5405880 129.0283760  25.9852090
  20.6004620 128.0060090  24.8702820  26.0031020 130.0409690  26.3028810
  25.1524610 129.7415440  26.6237880  25.8432810 130.2851700  25.3912630
  23.0980730 131.5411440  28.4027600  23.4234140 130.7075190  28.0629830
  23.8861060 132.0639960  28.5505930  19.8315520 125.5742920  14.4502660
  19.2069700 125.5702790  15.1755970  19.7445640 124.7073880  14.0538630
  18.7532600 126.4979550  21.4286430  19.0504930 127.4042380  21.3478450
  19.3018160 126.0098330  20.8146000  16.5070920 131.0765790  17.2978080
  16.2811840 130.8602960  18.2024700  15.7263450 131.5094250  16.9524050
  23.7368680 131.0829160  15.8968730  23.1377570 131.8064960  15.7132350
  24.2848290 131.0205940  15.1145180  18.9470130 131.9751370  27.9638350
  18.8513730 131.0346100  27.8138750  19.7902110 132.1966440  27.5686420
  22.3433550 129.7192700  17.9272010  22.7363120 130.0364900  17.1140700
  22.7050400 128.8404580  18.0416530  14.0780670 128.3865040  26.1172130
  13.6844060 129.2340250  26.3244910  13.3899070 127.7491410  26.3080770
  20.6525720 128.4700010  29.1868870  19.9624040 128.2772210  29.8214960
  21.3958020 128.7534650  29.7193170  11.3797720 126.3093500  20.1502210
  11.0910770 126.8796360  20.8627190  12.1243480 125.8297950  20.5133440
  11.5667950 130.2513620  11.3604930  11.4842620 131.1944380  11.5019920
  11.2151010 130.1088530  10.4817280  22.9288690 132.3098450  22.0222790
  22.1969810 132.8185260  22.3712890  22.5313030 131.4928430  21.7211570
  19.3666080 128.9852650  20.4275280  19.3702140 128.5442600  19.5779820
  20.2617200 129.3069980  20.5347100  15.2168460 128.8679140  19.3869490
  14.8768510 129.3454370  20.1436540  14.4545780 128.4144260  19.0270590
  19.4286230 129.9864730  13.4182040  19.5499050 129.9451210  14.3667860
  19.0434740 130.8488880  13.2628770  23.3914600 127.7632130  21.4345730
  23.4087340 128.2140780  22.2787580  23.1430180 126.8637770  21.6479170
  18.4407730 132.2965870  12.8165340  17.8724630 131.8484120  12.1901250
  19.1496730 132.6558650  12.2830490  26.8185350 125.1764310  27.2732110
  27.1431120 124.4453970  27.7990090  26.8541860 124.8577950  26.3713100
  13.5176910 136.1977890  26.6932070  13.1331700 135.5571560  27.2915030
  13.8289100 136.9014010  27.2626800  19.6674050 133.0454430  22.1740690
  20.0344180 132.5713000  22.9202030  19.4779110 133.9196000  22.5149030
  12.5314540 127.7898120  18.3034160  12.2461460 127.4253790  19.1412780
  12.4693400 127.0578580  17.6897300  17.4573420 132.0863070  24.4924900
  17.1530490 132.9655050  24.7175260  18.4119880 132.1462860  24.5282340
  15.9855210 136.2924060  15.0891750  15.2117470 135.7521680  14.9290470
  16.7149840 135.7730670  14.7509510  26.7443190 135.2889420  20.8818140
  27.4642310 135.7844710  20.4914250  26.5425010 134.6107310  20.2372010
  22.2053130 126.6827380  15.0247530  21.3917740 126.1840550  14.9492840
  22.0115080 127.5225630  14.6083880  22.1261990 135.3598480  26.7687140
  22.0599300 134.4394150  26.5144730  21.4967130 135.4573920  27.4831780
  24.9201520 131.0547030  13.3209690  25.8081140 131.3664260  13.1461030
  24.8906610 130.1819280  12.9290270  16.0292610 135.9604440  18.7270560
  16.5471280 135.1572700  18.6727450  15.5776630 135.8983580  19.5687390
  20.9162110 137.2270720  13.9997860  21.2577810 137.9712950  13.5041180
  20.0874820 137.5401840  14.3622690  13.5137150 132.9265810  25.6396260
  13.1552090 133.5919660  26.2269600  13.2191710 132.0949360  26.0108880
  16.7150270 133.3850050  28.5235810  16.4150410 133.5307230  27.6263630
  17.4861510 132.8255340  28.4309200  22.0578720 138.1819050  26.5190940
  22.0723260 137.2500010  26.3009850  21.3503820 138.2678810  27.1580710
  27.1915790 132.3658870  12.7889550  27.1079510 132.7973090  11.9385990
  27.9109980 132.8257220  13.2216370  28.2689930 134.8226390  25.8659520
  27.5438120 135.4155170  25.6688910  28.7965390 134.8149930  25.0672890
  28.2203040 139.2201130  15.5171680  27.5779200 138.5656750  15.7915400
  27.8333700 139.6256220  14.7412350  23.7989520 136.5486560  19.3643370
  24.1513340 135.9514690  18.7044740  22.9151850 136.2230790  19.5351620
  19.8852800 137.3084250  16.7713780  20.5723930 137.8553460  17.1521370
  19.0985220 137.8524980  16.8063390  12.0245200 132.9257070  12.2630860
  12.8940050 133.2081870  12.5466780  11.5335520 133.7392940  12.1479670
  19.1880010 134.3130280  16.3839140  19.6442790 135.1235530  16.6099330
  18.8368220 133.9953420  17.2157630  21.4912620 139.8236620  23.6131440
  22.1354840 140.0296000  24.2904860  21.8542060 139.0625020  23.1602290
  15.0891790 124.6567930  16.8561660  14.9606420 124.6485830  17.8046580
  14.2653810 124.9951020  16.5052670  22.7644700 137.8268970  22.3308890
  23.4066930 137.1262130  22.4441060  23.2894050 138.6067410  22.1505780
  26.6100420 138.1117590  12.0548030  26.3838000 137.3948030  12.6472670
  26.2196620 137.8630030  11.2169780  24.5382320 138.6263870  25.5344950
  24.8738560 139.2130560  26.2122870  23.6182660 138.4956580  25.7642740
  12.3916450 142.1384450  12.8292490  12.7514090 142.7373790  12.1749760
  12.2508790 142.6844340  13.6027520  12.0885720 126.4159050  26.3168360
  11.3744240 126.6155970  26.9220970  12.5080760 125.6398620  26.6883160
  26.1916670 136.0289530  13.7162190  25.9038370 136.4902220  14.5040070
  26.9868840 135.5687300  13.9846410  12.3758310 140.4039310  27.3034890
  12.4849430 139.4634050  27.1630280  11.7238870 140.6694060  26.6548620
  20.3670900 138.6755200  28.7033010  20.0467770 137.9564440  29.2478700
  19.6929260 139.3510270  28.7769070  18.4085070 139.5215650  13.6466160
  18.3995170 140.2545340  13.0310670  17.4883430 139.2747230  13.7393120
  14.0091710 134.7430540  14.3912920  13.4019660 135.4829440  14.4008220
  14.4841060 134.8329900  13.5651120  23.5824500 128.9081360  24.0669810
  23.9505320 128.0876570  24.3949380  22.7222700 128.9683250  24.4825460
  26.9486530 127.8638300  14.8757370  26.3199690 127.9683970  14.1615600
  26.4538450 128.0835080  15.6651250  21.3944670 139.5843890  12.3091350
  21.4956650 139.3807880  11.3793330  20.4946410 139.3302170  12.5139130
  18.9170560 130.1424250  16.2915250  18.2086710 130.6110590  16.7328860
  19.2015040 129.4846260  16.9260440  20.5426490 131.5620950  24.2907780
  21.0411740 132.0366770  24.9559630  20.6849440 130.6384470  24.4977810
  22.9485990 126.8674910  17.7311040  22.8253770 126.8861040  16.7820550
  23.8970550 126.9153850  17.8509440  20.0362780 142.1030210  17.0039020
  20.2904280 142.0651600  16.0818390  19.0875260 141.9763540  16.9967270
  17.1205580 128.4509330  13.6665960  17.9696110 128.8879480  13.6006150
  16.7536850 128.7629590  14.4938020  27.7493350 127.7788910  25.1336170
  27.2466950 128.5194310  25.4729980  28.5650010 128.1672910  24.8172960
  26.0415360 133.0222090  18.5797530  25.1005500 133.0372320  18.7545220
  26.3559430 132.2358050  19.0257830  16.0197000 134.7041690  12.1401490
  16.7860270 134.5923050  12.7026920  16.0971690 134.0079660  11.4878260
  14.7143760 132.1366760  12.8234380  14.7947350 131.1894270  12.9351780
  15.6063510 132.4673640  12.9295040  28.0440940 140.1930940  20.2551790
  28.1688360 141.0162110  20.7275600  28.9106500 139.9821670  19.9075940
  15.5158470 142.2862150  19.9268920  16.2520950 141.7377610  20.1977490
  15.8999390 143.1518160  19.7874910  12.4003950 138.3535720  15.8010430
  11.4743730 138.5956860  15.7915840  12.8660380 139.1809980  15.6795180
  14.5216750 141.4708220  29.1154500  15.3229480 141.7920270  29.5289900
  14.0068570 141.1103800  29.8374410  18.6260780 141.4592460  11.7494490
  19.4189390 141.7481290  11.2976280  18.1065130 141.0284630  11.0706970
  23.3581380 137.5788090  29.0629910  22.7519540 137.6019690  28.3225660
  23.0535490 136.8471130  29.5997160  24.7881750 141.3068380  27.6739320
  25.7403500 141.2226400  27.6239560  24.6409970 141.9710090  28.3473110
  27.6790950 140.6862590  13.1731230  27.3932460 140.2727730  12.3585410
  27.4810500 141.6150300  13.0531750  12.2414560 133.9581680  28.0590550
  12.7453580 133.3788960  28.6306780  11.5021980 134.2421910  28.5966920
  19.1438180 136.6795870  11.6136840  19.0388820 136.0648220  12.3398220
  18.9762400 136.1561760  10.8299850  19.2952500 135.3652670  27.5926070
  18.5298170 135.9337670  27.5080740  19.4768460 135.0728880  26.6994300
  22.3840910 135.7415900  12.2178830  21.8351010 136.1885200  12.8621570
  23.0060170 135.2365150  12.7416500  26.4375850 137.0958000  28.1501090
  27.1785320 137.4333760  27.6468550  25.6748530 137.2650060  27.5970860
  14.2737640 132.1011270  28.9540620  14.3142980 131.8025140  29.8625850
  15.1283140 132.5018880  28.7948140  18.0516030 134.7006820  14.1144130
  18.4732450 134.5346690  14.9575520  18.1766870 133.8907050  13.6199270
  16.2143450 130.6803370  26.9215110  15.6839910 130.1894320  26.2938450
  16.8831520 131.1087570  26.3873040  20.5643670 133.7244430  11.3621230
  21.0849330 133.0093450  10.9962380  21.2112070 134.3630300  11.6621740
  25.1121510 135.1472830  26.6856300  25.5262530 135.3017910  27.5346720
  24.1772510 135.2728050  26.8482080  25.5843680 132.4868990  28.6895450
  26.1664450 131.7321310  28.6015930  25.7605450 133.0176430  27.9126930
  16.7015750 127.6465740  27.0012400  16.6072620 127.0286490  26.2763270
  16.1213140 128.3732030  26.7742310  19.4677190 126.2038980  24.0339790
  19.0194490 126.2263240  23.1885340  18.8342390 125.8058000  24.6310090
  19.8736740 135.0993310  24.6552230  20.2924850 135.9426040  24.4828470
  18.9545370 135.2365350  24.4259010  22.2100640 132.8309490  26.0390070
  22.3296850 132.2350630  26.7784910  23.0694640 132.8679180  25.6191370
  24.5488540 133.3846680  24.6152580  24.0223760 133.9089300  24.0117720
  24.8919880 134.0174070  25.2462310  16.9474930 130.7740050  11.0602290
  16.7463990 129.9107410  11.4215630  16.7766980 130.6873410  10.1223890
  17.7244160 141.4046320  25.7709960  17.1865250 142.1292380  25.4518660
  17.9778120 140.9276660  24.9807300  18.9769410 129.3730840  27.2965890
  19.5669100 129.0646690  27.9843710  18.1589650 128.9010590  27.4525790
  23.7962840 128.9896650  27.5298910  23.1078360 128.3278190  27.4648900
  24.5168860 128.5434920  27.9747370  24.4263240 125.5848280  13.5889170
  24.7065530 124.7416180  13.9448590  23.6528970 125.8171390  14.1027920
  15.7457730 127.8740670  11.0480170  16.0483630 127.8808100  10.1399320
  16.4852320 127.5238530  11.5447830  20.5806370 142.6397530  26.0296610
  20.5065070 143.5432670  26.3368980  19.6785210 142.3209430  26.0018680
  18.9642660 126.8175290  12.0336370  18.6164660 126.1399280  11.4538820
  19.1655430 126.3564800  12.8479760  21.1291700 141.8056040  13.6522970
  22.0242490 142.1441010  13.6741730  21.1609330 141.0835450  13.0247250
  14.7687860 137.1783090  11.8809970  15.2062730 137.7212760  12.5367550
  15.2535590 136.3530040  11.8906310  11.9833660 139.9672120  19.3330230
  12.3136670 139.0993180  19.1008870  12.4124660 140.1730640  20.1635190
  16.5795580 138.2981130  16.9932200  16.2791120 138.1746100  17.8936110
  16.4733070 137.4389720  16.5847930  12.4723870 140.8342710  22.0711860
  12.0354860 141.0143510  22.9036010  13.0401550 141.5917330  21.9293580
  28.1086050 140.3359710  26.3589170  27.5088040 140.3952270  25.6153090
  28.2379950 139.3964690  26.4886020  29.3487500 138.0777530  11.6958880
  28.5180460 138.1454180  12.1666110  29.5259330 138.9681650  11.3925740
  28.8043960 134.8225010  14.1993080  29.5662870 135.3921660  14.3052770
  28.8198330 134.2552210  14.9701390  12.3048300 133.3462940  18.4300740
  11.6497140 133.0774580  17.7860440  13.1426250 133.2367420  17.9802720
  29.8103930 135.6775110  19.0435010  30.1812760 134.8942430  18.6370980
  30.4505860 136.3664210  18.8652310  26.7937690 137.0611690  24.4565330
  25.9797530 137.4908850  24.7191120  27.2011890 137.6730100  23.8434380
  28.8563130 135.1159380  11.3565600  29.1311970 136.0238260  11.2284820
  28.6673870 135.0521910  12.2927590  25.2538740 128.1404230  12.6519230
  25.6723620 127.9535210  11.8115890  24.9474800 127.2883280  12.9622160
  28.7528470 133.0528370  16.3495030  28.3772070 132.2856300  15.9176320
  28.0231590 133.4351070  16.8369960  13.3424230 133.7315510  22.9704080
  13.7097270 133.6442910  23.8500100  12.7735050 132.9682060  22.8710940
  28.1428090 132.1999890  25.9834550  27.9114180 131.9712640  25.0832500
  28.4032640 133.1199440  25.9379440  12.8940230 130.6424600  26.8762500
  11.9996280 130.6091360  27.2156210  13.4337780 130.8411390  27.6413750
  26.5816160 127.4256320  28.7614250  27.4586340 127.4339720  29.1448250
  26.5937000 126.6887160  28.1506600  11.5186380 130.5561870  14.3726070
  10.6150460 130.8192070  14.1977730  12.0027000 130.8273040  13.5926030
  28.0279430 131.2785860  19.6502270  28.5516910 130.7848510  19.0192440
  28.6138850 131.4136220  20.3949840  28.2069150 131.3625730  23.1721820
  27.2571860 131.3289270  23.2866810  28.3882160 132.2725840  22.9371590
  14.0613590 129.6127410  12.2820450  14.7705290 129.1910630  11.7967730
  13.3453530 129.6802640  11.6503800  13.7087750 125.6666740  11.3223100
  14.4315880 126.2075680  11.6404320  13.9812270 125.3930160  10.4464640
  27.5179400 130.5359210  15.5894680  28.0138520 130.3030080  16.3743560
  27.3195470 129.6971050  15.1732320  13.3979940 124.9172930  21.2245720
  14.0456130 124.3670310  20.7840880  13.8181780 125.1716080  22.0461530
  28.9466560 129.1720160  18.1232360  28.8365840 129.0176200  19.0614630
  29.7074150 128.6441100  17.8807770  27.2932280 125.1114290  24.5815360
  27.9304500 125.7248430  24.9474550  27.4407170 125.1474950  23.6364590
  29.8356830 127.0028080  11.3638500  30.7606140 126.8709260  11.1556790
  29.8132620 127.0820900  12.3174950  29.9095320 127.7738740  13.9895210
  29.1146820 127.7083860  14.5188120  30.1138600 128.7089380  13.9780560
  26.8513740 141.8130290  17.9833600  27.4472810 141.4914860  17.3068020
  27.1091890 141.3402110  18.7746870  13.1511940 125.0728600  23.9671040
  12.8026760 125.5292420  24.7329220  12.8199640 124.1785730  24.0493470
  14.7576310 138.2448200  28.1324230  14.7145940 137.8741110  29.0138690
  14.8887320 139.1825770  28.2726050  18.4582340 139.8007790  23.7333950
  18.2173700 140.0682350  22.8464470  19.3984980 139.9713520  23.7884810
  20.6636760 126.2640480  27.4890460  20.6025650 126.8562310  28.2385870
  21.6037140 126.1566440  27.3440720  23.3011320 125.9210540  27.1282750
  23.9151730 126.2389830  26.4663830  23.8460880 125.4359130  27.7478610
  29.7186500 141.8202170  24.5344590  29.2244780 142.2171040  23.8171720
  29.1099790 141.1951380  24.9281870  13.8232580 124.6004800  27.2421810
  14.3715570 124.4192850  26.4787920  13.8887890 123.8098910  27.7778120
  14.5964340 141.1910450  25.2522010  14.0024660 141.0595150  25.9912050
  14.5888180 140.3548590  24.7864110  24.0419360 124.4842680  23.4552040
  23.1679200 124.8177790  23.2524970  23.9330110 124.0115860  24.2803910
  24.9491340 126.6913550  24.8393760  24.6204700 125.8765310  24.4595490
  25.8973640 126.6483360  24.7159450  27.4025950 142.4625590  21.8131330
  26.9428920 143.2141400  21.4389350  26.7738410 141.7432060  21.7546130
  14.2276570 138.5568830  24.2030050  13.5010630 137.9374120  24.1356000
  14.2885720 138.9509440  23.3328130  17.8321670 140.7713830  20.9879460
  18.3486690 140.1601190  20.4627720  18.4819050 141.2742610  21.4790470
  20.5717170 141.6622320  21.8148440  20.8594980 141.4076620  20.9381450
  21.0840390 141.1099680  22.4054010  21.7894180 125.4012520  22.3944950
  21.0065970 125.8758020  22.6741710  21.4957110 124.4967350  22.2858130
  26.3415250 126.1035620  20.4394040  26.7823340 126.0480720  19.5915640
  26.0722840 127.0193630  20.5104220  28.2053820 125.7350860  18.4502860
  28.1442220 124.7912080  18.3033880  28.9845850 125.8430950  18.9956320
  12.5106570 141.8743220  17.4126810  12.3428610 141.2413900  18.1108700
  11.6441080 142.0802620  17.0621000  13.1334590 125.7060000  14.9158670
  13.8913950 125.8188880  14.3422700  12.6711760 126.5429200  14.8702100
  19.6748400 127.8199270  17.9060980  18.8622910 127.4456160  17.5656860
  20.1790040 127.0644350  18.2082170  24.1773380 124.4841720  19.1444050
  24.7802750 125.0561930  19.6192570  23.4366370 125.0481160  18.9217950
  27.3207980 124.8863280  14.4184330  27.5158610 125.7846730  14.6851760
  26.5337850 124.6550360  14.9117280  14.1169270 140.5676450  14.8576950
  13.5916890 140.9484480  14.1538910  14.0413850 141.1927220  15.5786660
  15.5059740 126.2324050  13.4560640  16.0352500 125.4453850  13.3268590
  16.1388060 126.9115240  13.6896170  17.6997580 125.9699190  16.5106030
  17.0700320 125.2686500  16.6776160  17.1602720 126.7303320  16.2939190
  20.6389530 142.5838420  29.1816640  21.5656840 142.3482690  29.2252600
  20.6239960 143.4110420  28.7002670  28.8734590 142.1263990  16.1790890
  29.0486780 141.4401730  15.5351810  28.1756160 142.6511040  15.7867560
  17.8253140 125.2483170  28.9458520  17.5437410 125.7516770  28.1819340
  18.2072840 124.4504920  28.5800650  16.7162240 142.5158830  13.7326200
  17.4481060 142.2318110  13.1850090  16.9755910 142.2772110  14.6225580
  15.8777030 138.6323560  13.7372530  15.2485910 139.1008660  14.2858360
  15.9924860 137.7872780  14.1718720  24.4268600 124.6636750  29.5238990
  24.3134050 124.9831360  30.4190510  25.2438340 125.0649260  29.2276270
  27.2067090 141.8108280  29.0057680  27.9992410 141.3157510  28.7983640
  27.5000240 142.4898420  29.6133290  21.4644790 134.4608240   1.7683000
  20.6886890 133.9808680   2.0581570  22.1157720 133.7813890   1.5939160
  15.4810620 134.7728050   2.6458760  14.6495500 134.5176760   3.0455270
  16.0891600 134.8438820   3.3816680  15.4611880 138.8068140   2.8416780
  15.7639920 137.9165880   2.6627000  16.2055470 139.3638360   2.6139030
  20.9053780 137.1365430   1.7753160  20.8362060 136.1955370   1.6142290
  21.6673640 137.2266840   2.3475730  13.0960450 127.7419950   4.1009780
  12.9163290 126.8445700   4.3812540  12.6940530 128.2891820   4.7756730
  13.7147120 130.2380450   2.7092120  14.3957230 130.5018820   3.3279520
  13.3995170 129.3981320   3.0430130  17.9071690 131.2847810   1.7964710
  18.4149910 131.7828780   2.4369730  18.4384930 130.5083010   1.6204070
  30.0082620 129.4553000   5.4994060  29.3034790 129.8434710   4.9809170
  30.2740540 130.1503290   6.1014990  16.1907790 125.9246370   6.0628130
  16.1926230 126.4418760   5.2574030  15.3612100 125.4476550   6.0398060
  17.4410640 135.5641550   4.2401630  17.1080020 136.1910470   4.8822700
  17.6177320 136.0903430   3.4603300  15.8723120 127.6356330   4.0698580
  16.2139930 128.4798380   3.7752450  14.9338930 127.7840070   4.1863920
  16.6529740 137.5322350   6.0550810  17.2703740 138.2073430   5.7735260
  15.7922860 137.9410330   5.9638310  27.5707330 138.9961760   3.9705450
  26.8870850 139.6660870   3.9622120  28.1101620 139.1942410   3.2050310
  29.0231470 128.8241420   2.0987180  28.0756380 128.8580400   2.2302610
  29.3481460 129.6380370   2.4836540  25.1066070 140.8405890   2.6850630
  25.1193230 140.4368180   1.8172890  24.5541290 141.6153180   2.5812060
  24.5051510 135.7435730   4.0133240  24.9220300 135.5295840   3.1786700
  25.2291330 136.0008520   4.5841860  28.4513610 134.1422950   4.1049480
  27.6232240 134.2116040   3.6299610  29.0464090 134.7277260   3.6365310
  25.4155620 130.9292270   5.0504350  25.0026800 131.7545980   5.3044340
  24.6831570 130.3437310   4.8580710  16.2617030 130.4895380   3.6922060
  16.8131620 130.5990720   2.9175310  16.7760540 130.8632980   4.4077290
  26.1055720 140.9751600   5.7385330  25.6286280 141.7823790   5.5457940
  25.4217510 140.3229930   5.8911540  17.1088540 137.1401420   8.7270030
  16.2117070 137.3641390   8.9743430  17.1341410 137.2636360   7.7781430
  15.9359760 134.0114740   7.3027400  15.7967530 134.8837540   7.6714800
  15.0541120 133.6687550   7.1575340  17.7340110 139.9536440   9.5112550
  17.7055540 140.3579390   8.6440980  17.5705080 139.0246800   9.3484150
  29.6854930 140.7363540  10.8076720  30.1614650 141.2146430  11.4865800
  30.3062090 140.6681030  10.0822220  11.8878410 135.7812290   3.2198310
  11.9658830 135.9161060   2.2754030  12.5020090 135.0728180   3.4126430
  29.0888180 137.9276390   7.9676730  29.2151240 137.6888270   7.0493910
  29.1309560 137.0960930   8.4398810  22.9504920 141.6304390   6.5371540
  23.4649590 141.5412400   7.3393970  22.1074000 141.9764090   6.8299450
  28.9412190 129.9808850   8.9326470  28.3256460 130.4888520   8.4041930
  28.6208610 129.0807180   8.8752410  11.9437930 136.8226460   5.7592770
  12.1068970 136.3531820   4.9412140  12.4090380 136.3150020   6.4241610
  21.0026510 128.8200740   6.3988660  20.5405880 129.0283760   7.2108600
  20.6004620 128.0060090   6.0959330  26.0031020 130.0409690   7.5285320
  25.1524610 129.7415440   7.8494390  25.8432810 130.2851700   6.6169140
  23.0980730 131.5411440   9.6284110  23.4234140 130.7075190   9.2886340
  23.8861060 132.0639960   9.7762440  18.7532600 126.4979550   2.6542940
  19.0504930 127.4042380   2.5734960  19.3018160 126.0098330   2.0402510
  18.9470130 131.9751370   9.1894860  18.8513730 131.0346100   9.0395260
  19.7902110 132.1966440   8.7942930  14.0780670 128.3865040   7.3428640
  13.6844060 129.2340250   7.5501420  13.3899070 127.7491410   7.5337280
  20.6525720 128.4700010  10.4125380  19.9624040 128.2772210  11.0471470
  21.3958020 128.7534650  10.9449680  22.9288690 132.3098450   3.2479300
  22.1969810 132.8185260   3.5969400  22.5313030 131.4928430   2.9468080
  23.3914600 127.7632130   2.6602240  23.4087340 128.2140780   3.5044090
  23.1430180 126.8637770   2.8735680  26.8185350 125.1764310   8.4988620
  27.1431120 124.4453970   9.0246600  26.8541860 124.8577950   7.5969610
  13.5176910 136.1977890   7.9188580  13.1331700 135.5571560   8.5171540
  13.8289100 136.9014010   8.4883310  19.6674050 133.0454430   3.3997200
  20.0344180 132.5713000   4.1458540  19.4779110 133.9196000   3.7405540
  17.4573420 132.0863070   5.7181410  17.1530490 132.9655050   5.9431770
  18.4119880 132.1462860   5.7538850  26.7443190 135.2889420   2.1074650
  27.4642310 135.7844710   1.7170760  26.5425010 134.6107310   1.4628520
  22.1261990 135.3598480   7.9943650  22.0599300 134.4394150   7.7401240
  21.4967130 135.4573920   8.7088290  13.5137150 132.9265810   6.8652770
  13.1552090 133.5919660   7.4526110  13.2191710 132.0949360   7.2365390
  16.7150270 133.3850050   9.7492320  16.4150410 133.5307230   8.8520140
  17.4861510 132.8255340   9.6565710  22.0578720 138.1819050   7.7447450
  22.0723260 137.2500010   7.5266360  21.3503820 138.2678810   8.3837220
  28.2689930 134.8226390   7.0916030  27.5438120 135.4155170   6.8945420
  28.7965390 134.8149930   6.2929400  21.4912620 139.8236620   4.8387950
  22.1354840 140.0296000   5.5161370  21.8542060 139.0625020   4.3858800
  22.7644700 137.8268970   3.5565400  23.4066930 137.1262130   3.6697570
  23.2894050 138.6067410   3.3762290  24.5382320 138.6263870   6.7601460
  24.8738560 139.2130560   7.4379380  23.6182660 138.4956580   6.9899250
  12.0885720 126.4159050   7.5424870  11.3744240 126.6155970   8.1477480
  12.5080760 125.6398620   7.9139670  12.3758310 140.4039310   8.5291400
  12.4849430 139.4634050   8.3886790  11.7238870 140.6694060   7.8805130
  20.3670900 138.6755200   9.9289520  20.0467770 137.9564440  10.4735210
  19.6929260 139.3510270  10.0025580  23.5824500 128.9081360   5.2926320
  23.9505320 128.0876570   5.6205890  22.7222700 128.9683250   5.7081970
  20.5426490 131.5620950   5.5164290  21.0411740 132.0366770   6.1816140
  20.6849440 130.6384470   5.7234320  27.7493350 127.7788910   6.3592680
  27.2466950 128.5194310   6.6986490  28.5650010 128.1672910   6.0429470
  14.5216750 141.4708220  10.3411010  15.3229480 141.7920270  10.7546410
  14.0068570 141.1103800  11.0630920  23.3581380 137.5788090  10.2886420
  22.7519540 137.6019690   9.5482170  23.0535490 136.8471130  10.8253670
  24.7881750 141.3068380   8.8995830  25.7403500 141.2226400   8.8496070
  24.6409970 141.9710090   9.5729620  12.2414560 133.9581680   9.2847060
  12.7453580 133.3788960   9.8563290  11.5021980 134.2421910   9.8223430
  19.2952500 135.3652670   8.8182580  18.5298170 135.9337670   8.7337250
  19.4768460 135.0728880   7.9250810  26.4375850 137.0958000   9.3757600
  27.1785320 137.4333760   8.8725060  25.6748530 137.2650060   8.8227370
  14.2737640 132.1011270  10.1797130  14.3142980 131.8025140  11.0882360
  15.1283140 132.5018880  10.0204650  16.2143450 130.6803370   8.1471620
  15.6839910 130.1894320   7.5194960  16.8831520 131.1087570   7.6129550
  25.1121510 135.1472830   7.9112810  25.5262530 135.3017910   8.7603230
  24.1772510 135.2728050   8.0738590  25.5843680 132.4868990   9.9151960
  26.1664450 131.7321310   9.8272440  25.7605450 133.0176430   9.1383440
  16.7015750 127.6465740   8.2268910  16.6072620 127.0286490   7.5019780
  16.1213140 128.3732030   7.9998820  19.4677190 126.2038980   5.2596300
  19.0194490 126.2263240   4.4141850  18.8342390 125.8058000   5.8566600
  19.8736740 135.0993310   5.8808740  20.2924850 135.9426040   5.7084980
  18.9545370 135.2365350   5.6515520  22.2100640 132.8309490   7.2646580
  22.3296850 132.2350630   8.0041420  23.0694640 132.8679180   6.8447880
  24.5488540 133.3846680   5.8409090  24.0223760 133.9089300   5.2374230
  24.8919880 134.0174070   6.4718820  17.7244160 141.4046320   6.9966470
  17.1865250 142.1292380   6.6775170  17.9778120 140.9276660   6.2063810
  18.9769410 129.3730840   8.5222400  19.5669100 129.0646690   9.2100220
  18.1589650 128.9010590   8.6782300  23.7962840 128.9896650   8.7555420
  23.1078360 128.3278190   8.6905410  24.5168860 128.5434920   9.2003880
  20.5806370 142.6397530   7.2553120  20.5065070 143.5432670   7.5625490
  19.6785210 142.3209430   7.2275190  12.4723870 140.8342710   3.2968370
  12.0354860 141.0143510   4.1292520  13.0401550 141.5917330   3.1550090
  28.1086050 140.3359710   7.5845680  27.5088040 140.3952270   6.8409600
  28.2379950 139.3964690   7.7142530  26.7937690 137.0611690   5.6821840
  25.9797530 137.4908850   5.9447630  27.2011890 137.6730100   5.0690890
  13.3424230 133.7315510   4.1960590  13.7097270 133.6442910   5.0756610
  12.7735050 132.9682060   4.0967450  28.1428090 132.1999890   7.2091060
  27.9114180 131.9712640   6.3089010  28.4032640 133.1199440   7.1635950
  12.8940230 130.6424600   8.1019010  11.9996280 130.6091360   8.4412720
  13.4337780 130.8411390   8.8670260  26.5816160 127.4256320   9.9870760
  27.4586340 127.4339720  10.3704760  26.5937000 126.6887160   9.3763110
  28.2069150 131.3625730   4.3978330  27.2571860 131.3289270   4.5123320
  28.3882160 132.2725840   4.1628100  13.3979940 124.9172930   2.4502230
  14.0456130 124.3670310   2.0097390  13.8181780 125.1716080   3.2718040
  27.2932280 125.1114290   5.8071870  27.9304500 125.7248430   6.1731060
  27.4407170 125.1474950   4.8621100  13.1511940 125.0728600   5.1927550
  12.8026760 125.5292420   5.9585730  12.8199640 124.1785730   5.2749980
  14.7576310 138.2448200   9.3580740  14.7145940 137.8741110  10.2395200
  14.8887320 139.1825770   9.4982560  18.4582340 139.8007790   4.9590460
  18.2173700 140.0682350   4.0720980  19.3984980 139.9713520   5.0141320
  20.6636760 126.2640480   8.7146970  20.6025650 126.8562310   9.4642380
  21.6037140 126.1566440   8.5697230  23.3011320 125.9210540   8.3539260
  23.9151730 126.2389830   7.6920340  23.8460880 125.4359130   8.9735120
  29.7186500 141.8202170   5.7601100  29.2244780 142.2171040   5.0428230
  29.1099790 141.1951380   6.1538380  13.8232580 124.6004800   8.4678320
  14.3715570 124.4192850   7.7044430  13.8887890 123.8098910   9.0034630
  14.5964340 141.1910450   6.4778520  14.0024660 141.0595150   7.2168560
  14.5888180 140.3548590   6.0120620  24.0419360 124.4842680   4.6808550
  23.1679200 124.8177790   4.4781480  23.9330110 124.0115860   5.5060420
  24.9491340 126.6913550   6.0650270  24.6204700 125.8765310   5.6852000
  25.8973640 126.6483360   5.9415960  27.4025950 142.4625590   3.0387840
  26.9428920 143.2141400   2.6645860  26.7738410 141.7432060   2.9802640
  14.2276570 138.5568830   5.4286560  13.5010630 137.9374120   5.3612510
  14.2885720 138.9509440   4.5584640  17.8321670 140.7713830   2.2135970
  18.3486690 140.1601190   1.6884230  18.4819050 141.2742610   2.7046980
  20.5717170 141.6622320   3.0404950  20.8594980 141.4076620   2.1637960
  21.0840390 141.1099680   3.6310520  21.7894180 125.4012520   3.6201460
  21.0065970 125.8758020   3.8998220  21.4957110 124.4967350   3.5114640
  20.6389530 142.5838420  10.4073150  21.5656840 142.3482690  10.4509110
  20.6239960 143.4110420   9.9259180  17.8253140 125.2483170  10.1715030
  17.5437410 125.7516770   9.4075850  18.2072840 124.4504920   9.8057160
  24.4268600 124.6636750  10.7495500  24.3134050 124.9831360  11.6447020
  25.2438340 125.0649260  10.4532780  27.2067090 141.8108280  10.2314190
  27.9992410 141.3157510  10.0240150  27.5000240 142.4898420  10.8389800
  23.3326750 113.9085730 150.0821650  23.2520800 112.9940340 149.8113360
  22.9191170 114.4052800 149.3761360  25.4852220 120.0924940 150.7430050
  25.0233750 119.3212180 151.0717220  26.2977770 120.1191010 151.2482500
  13.8902570 110.9586450 146.6249070  13.0019270 111.3002420 146.5228950
  14.1743760 110.7586770 145.7329900  21.7115530 122.3782950 150.3634040
  21.0926970 122.8340450 149.7928480  22.5667310 122.5334410 149.9623740
  16.0663960 109.5417950 147.6587450  16.1730710 110.4421680 147.9656210
  15.1556320 109.4935920 147.3682100  25.7183070 108.6642760 149.1298350
  26.5392690 108.1739330 149.1723830  25.7517150 109.2540420 149.8830190
  22.5778880 117.2622190 147.7565950  21.9596150 117.7271640 147.1928670
  23.0902130 117.9549670 148.1735460  11.9462080 117.9478720 145.1305580
  11.5690060 118.4365820 144.3990480  12.2035150 118.6204000 145.7612110
  19.5551010 106.3495110 150.5891090  19.8625990 105.7942000 149.8726590
  18.6251710 106.4839570 150.4064080  26.4011490 118.7878620 147.9688720
  26.2907820 117.8452950 148.0938140  26.3979740 119.1494260 148.8551480
  21.9431770 114.4143940 147.3251210  21.0161050 114.3481320 147.5539680
  22.0956590 115.3524070 147.2106450  21.9300850 110.6860940 144.3218370
  20.9904520 110.8474900 144.4070830  22.2484110 111.4046620 143.7754360
  25.9729060 115.9764240 147.8286460  25.3541480 115.6383790 147.1812760
  25.9553510 115.3324000 148.5365650  17.5488410 114.9408680 150.1070940
  17.1445410 114.2285930 149.6116840  17.6351530 114.5961920 150.9958980
  24.1493760 115.2151050 144.8359210  24.5887040 114.3773480 144.6897030
  24.8622180 115.8480450 144.9223350  22.2589140 120.1547120 148.8040450
  22.6985050 120.8971450 148.3895840  22.1976030 120.3973690 149.7279410
  27.7310900 106.4693860 143.1500250  27.4183560 106.5620690 144.0499320
  28.4923370 107.0474890 143.0997680  14.2493040 113.8353660 147.6077590
  14.1290640 114.5615750 146.9958860  13.9393930 113.0656570 147.1305500
  13.1326040 118.7068990 149.8252410  12.7254120 118.8483580 148.9706010
  14.0239050 118.4229150 149.6223620  24.9259320 123.1416240 146.1603460
  24.7660460 122.8519180 147.0585290  24.7606030 122.3656370 145.6248690
  17.4047700 122.9214770 147.9375080  17.2290180 122.0050310 147.7242880
  16.5503440 123.2802060 148.1772880  24.6285450 120.6503800 144.7201460
  23.9350610 120.6481090 144.0603740  25.3708310 120.2263120 144.2895630
  24.1935380 122.2766510 148.7949950  24.6492330 121.4955890 149.1088570
  24.5327900 122.9873330 149.3391130  16.7156700 107.1788730 150.9901260
  16.2724850 107.9598270 150.6585780  17.2741690 107.5018620 151.6972200
  19.8315520 106.7999430 145.8707090  19.2069700 106.7959300 146.5960400
  19.7445640 105.9330390 145.4743060  16.5070920 112.3022300 148.7182510
  16.2811840 112.0859470 149.6229130  15.7263450 112.7350760 148.3728480
  23.7368680 112.3085670 147.3173160  23.1377570 113.0321470 147.1336780
  24.2848290 112.2462450 146.5349610  22.3433550 110.9449210 149.3476440
  22.7363120 111.2621410 148.5345130  22.7050400 110.0661090 149.4620960
  11.5667950 111.4770130 142.7809360  11.4842620 112.4200890 142.9224350
  11.2151010 111.3345040 141.9021710  15.2168460 110.0935650 150.8073920
  14.8768510 110.5710880 151.5640970  14.4545780 109.6400770 150.4475020
  19.4286230 111.2121240 144.8386470  19.5499050 111.1707720 145.7872290
  19.0434740 112.0745390 144.6833200  18.4407730 113.5222380 144.2369770
  17.8724630 113.0740630 143.6105680  19.1496730 113.8815160 143.7034920
  12.5314540 109.0154630 149.7238590  12.2461460 108.6510300 150.5617210
  12.4693400 108.2835090 149.1101730  15.9855210 117.5180570 146.5096180
  15.2117470 116.9778190 146.3494900  16.7149840 116.9987180 146.1713940
  22.2053130 107.9083890 146.4451960  21.3917740 107.4097060 146.3697270
  22.0115080 108.7482140 146.0288310  24.9201520 112.2803540 144.7414120
  25.8081140 112.5920770 144.5665460  24.8906610 111.4075790 144.3494700
  16.0292610 117.1860950 150.1474990  16.5471280 116.3829210 150.0931880
  15.5776630 117.1240090 150.9891820  20.9162110 118.4527230 145.4202290
  21.2577810 119.1969460 144.9245610  20.0874820 118.7658350 145.7827120
  27.1915790 113.5915380 144.2093980  27.1079510 114.0229600 143.3590420
  27.9109980 114.0513730 144.6420800  28.2203040 120.4457640 146.9376110
  27.5779200 119.7913260 147.2119830  27.8333700 120.8512730 146.1616780
  23.7989520 117.7743070 150.7847800  24.1513340 117.1771200 150.1249170
  22.9151850 117.4487300 150.9556050  19.8852800 118.5340760 148.1918210
  20.5723930 119.0809970 148.5725800  19.0985220 119.0781490 148.2267820
  12.0245200 114.1513580 143.6835290  12.8940050 114.4338380 143.9671210
  11.5335520 114.9649450 143.5684100  19.1880010 115.5386790 147.8043570
  19.6442790 116.3492040 148.0303760  18.8368220 115.2209930 148.6362060
  15.0891790 105.8824440 148.2766090  14.9606420 105.8742340 149.2251010
  14.2653810 106.2207530 147.9257100  26.6100420 119.3374100 143.4752460
  26.3838000 118.6204540 144.0677100  26.2196620 119.0886540 142.6374210
  12.3916450 123.3640960 144.2496920  12.7514090 123.9630300 143.5954190
  12.2508790 123.9100850 145.0231950  26.1916670 117.2546040 145.1366620
  25.9038370 117.7158730 145.9244500  26.9868840 116.7943810 145.4050840
  18.4085070 120.7472160 145.0670590  18.3995170 121.4801850 144.4515100
  17.4883430 120.5003740 145.1597550  14.0091710 115.9687050 145.8117350
  13.4019660 116.7085950 145.8212650  14.4841060 116.0586410 144.9855550
  26.9486530 109.0894810 146.2961800  26.3199690 109.1940480 145.5820030
  26.4538450 109.3091590 147.0855680  21.3944670 120.8100400 143.7295780
  21.4956650 120.6064390 142.7997760  20.4946410 120.5558680 143.9343560
  18.9170560 111.3680760 147.7119680  18.2086710 111.8367100 148.1533290
  19.2015040 110.7102770 148.3464870  22.9485990 108.0931420 149.1515470
  22.8253770 108.1117550 148.2024980  23.8970550 108.1410360 149.2713870
  20.0362780 123.3286720 148.4243450  20.2904280 123.2908110 147.5022820
  19.0875260 123.2020050 148.4171700  17.1205580 109.6765840 145.0870390
  17.9696110 110.1135990 145.0210580  16.7536850 109.9886100 145.9142450
  26.0415360 114.2478600 150.0001960  25.1005500 114.2628830 150.1749650
  26.3559430 113.4614560 150.4462260  16.0197000 115.9298200 143.5605920
  16.7860270 115.8179560 144.1231350  16.0971690 115.2336170 142.9082690
  14.7143760 113.3623270 144.2438810  14.7947350 112.4150780 144.3556210
  15.6063510 113.6930150 144.3499470  15.5158470 123.5118660 151.3473350
  16.2520950 122.9634120 151.6181920  15.8999390 124.3774670 151.2079340
  12.4003950 119.5792230 147.2214860  11.4743730 119.8213370 147.2120270
  12.8660380 120.4066490 147.0999610  18.6260780 122.6848970 143.1698920
  19.4189390 122.9737800 142.7180710  18.1065130 122.2541140 142.4911400
  27.6790950 121.9119100 144.5935660  27.3932460 121.4984240 143.7789840
  27.4810500 122.8406810 144.4736180  19.1438180 117.9052380 143.0341270
  19.0388820 117.2904730 143.7602650  18.9762400 117.3818270 142.2504280
  22.3840910 116.9672410 143.6383260  21.8351010 117.4141710 144.2826000
  23.0060170 116.4621660 144.1620930  18.0516030 115.9263330 145.5348560
  18.4732450 115.7603200 146.3779950  18.1766870 115.1163560 145.0403700
  20.5643670 114.9500940 142.7825660  21.0849330 114.2349960 142.4166810
  21.2112070 115.5886810 143.0826170  16.9474930 111.9996560 142.4806720
  16.7463990 111.1363920 142.8420060  16.7766980 111.9129920 141.5428320
  24.4263240 106.8104790 145.0093600  24.7065530 105.9672690 145.3653020
  23.6528970 107.0427900 145.5232350  15.7457730 109.0997180 142.4684600
  16.0483630 109.1064610 141.5603750  16.4852320 108.7495040 142.9652260
  18.9642660 108.0431800 143.4540800  18.6164660 107.3655790 142.8743250
  19.1655430 107.5821310 144.2684190  21.1291700 123.0312550 145.0727400
  22.0242490 123.3697520 145.0946160  21.1609330 122.3091960 144.4451680
  14.7687860 118.4039600 143.3014400  15.2062730 118.9469270 143.9571980
  15.2535590 117.5786550 143.3110740  11.9833660 121.1928630 150.7534660
  12.3136670 120.3249690 150.5213300  12.4124660 121.3987150 151.5839620
  16.5795580 119.5237640 148.4136630  16.2791120 119.4002610 149.3140540
  16.4733070 118.6646230 148.0052360  29.3487500 119.3034040 143.1163310
  28.5180460 119.3710690 143.5870540  29.5259330 120.1938160 142.8130170
  28.8043960 116.0481520 145.6197510  29.5662870 116.6178170 145.7257200
  28.8198330 115.4808720 146.3905820  12.3048300 114.5719450 149.8505170
  11.6497140 114.3031090 149.2064870  13.1426250 114.4623930 149.4007150
  29.8103930 116.9031620 150.4639440  30.1812760 116.1198940 150.0575410
  30.4505860 117.5920720 150.2856740  28.8563130 116.3415890 142.7770030
  29.1311970 117.2494770 142.6489250  28.6673870 116.2778420 143.7132020
  25.2538740 109.3660740 144.0723660  25.6723620 109.1791720 143.2320320
  24.9474800 108.5139790 144.3826590  28.7528470 114.2784880 147.7699460
  28.3772070 113.5112810 147.3380750  28.0231590 114.6607580 148.2574390
  11.5186380 111.7818380 145.7930500  10.6150460 112.0448580 145.6182160
  12.0027000 112.0529550 145.0130460  14.0613590 110.8383920 143.7024880
  14.7705290 110.4167140 143.2172160  13.3453530 110.9059150 143.0708230
  13.7087750 106.8923250 142.7427530  14.4315880 107.4332190 143.0608750
  13.9812270 106.6186670 141.8669070  27.5179400 111.7615720 147.0099110
  28.0138520 111.5286590 147.7947990  27.3195470 110.9227560 146.5936750
  28.9466560 110.3976670 149.5436790  28.8365840 110.2432710 150.4819060
  29.7074150 109.8697610 149.3012200  29.8356830 108.2284590 142.7842930
  30.7606140 108.0965770 142.5761220  29.8132620 108.3077410 143.7379380
  29.9095320 108.9995250 145.4099640  29.1146820 108.9340370 145.9392550
  30.1138600 109.9345890 145.3984990  26.8513740 123.0386800 149.4038030
  27.4472810 122.7171370 148.7272450  27.1091890 122.5658620 150.1951300
  28.2053820 106.9607370 149.8707290  28.1442220 106.0168590 149.7238310
  28.9845850 107.0687460 150.4160750  12.5106570 123.0999730 148.8331240
  12.3428610 122.4670410 149.5313130  11.6441080 123.3059130 148.4825430
  13.1334590 106.9316510 146.3363100  13.8913950 107.0445390 145.7627130
  12.6711760 107.7685710 146.2906530  19.6748400 109.0455780 149.3265410
  18.8622910 108.6712670 148.9861290  20.1790040 108.2900860 149.6286600
  24.1773380 105.7098230 150.5648480  24.7802750 106.2818440 151.0397000
  23.4366370 106.2737670 150.3422380  27.3207980 106.1119790 145.8388760
  27.5158610 107.0103240 146.1056190  26.5337850 105.8806870 146.3321710
  14.1169270 121.7932960 146.2781380  13.5916890 122.1740990 145.5743340
  14.0413850 122.4183730 146.9991090  15.5059740 107.4580560 144.8765070
  16.0352500 106.6710360 144.7473020  16.1388060 108.1371750 145.1100600
  17.6997580 107.1955700 147.9310460  17.0700320 106.4943010 148.0980590
  17.1602720 107.9559830 147.7143620  28.8734590 123.3520500 147.5995320
  29.0486780 122.6658240 146.9556240  28.1756160 123.8767550 147.2071990
  16.7162240 123.7415340 145.1530630  17.4481060 123.4574620 144.6054520
  16.9755910 123.5028620 146.0430010  15.8777030 119.8580070 145.1576960
  15.2485910 120.3265170 145.7062790  15.9924860 119.0129290 145.5923150
  23.3326750 113.9085730 131.3078160  23.2520800 112.9940340 131.0369870
  22.9191170 114.4052800 130.6017870  21.4644790 115.6864750 133.1887430
  20.6886890 115.2065190 133.4786000  22.1157720 115.0070400 133.0143590
  15.4810620 115.9984560 134.0663190  14.6495500 115.7433270 134.4659700
  16.0891600 116.0695330 134.8021110  25.4852220 120.0924940 131.9686560
  25.0233750 119.3212180 132.2973730  26.2977770 120.1191010 132.4739010
  15.4611880 120.0324650 134.2621210  15.7639920 119.1422390 134.0831430
  16.2055470 120.5894870 134.0343460  13.8902570 110.9586450 127.8505580
  13.0019270 111.3002420 127.7485460  14.1743760 110.7586770 126.9586410
  11.8535580 113.5592100 133.7345280  12.4251690 112.7914300 133.7348920
  11.8537120 113.8580860 132.8251890  21.7115530 122.3782950 131.5890550
  21.0926970 122.8340450 131.0184990  22.5667310 122.5334410 131.1880250
  20.9053780 118.3621940 133.1957590  20.8362060 117.4211880 133.0346720
  21.6673640 118.4523350 133.7680160  13.0960450 108.9676460 135.5214210
  12.9163290 108.0702210 135.8016970  12.6940530 109.5148330 136.1961160
  21.9358950 111.1692320 133.4226520  22.3123770 110.2964200 133.3100190
  21.8378460 111.5051020 132.5316960  16.0663960 109.5417950 128.8843960
  16.1730710 110.4421680 129.1912720  15.1556320 109.4935920 128.5938610
  25.7183070 108.6642760 130.3554860  26.5392690 108.1739330 130.3980340
  25.7517150 109.2540420 131.1086700  13.7147120 111.4636960 134.1296550
  14.3957230 111.7275330 134.7483950  13.3995170 110.6237830 134.4634560
  17.9071690 112.5104320 133.2169140  18.4149910 113.0085290 133.8574160
  18.4384930 111.7339520 133.0408500  30.0082620 110.6809510 136.9198490
  29.3034790 111.0691220 136.4013600  30.2740540 111.3759800 137.5219420
  16.1907790 107.1502880 137.4832560  16.1926230 107.6675270 136.6778460
  15.3612100 106.6733060 137.4602490  22.5778880 117.2622190 128.9822460
  21.9596150 117.7271640 128.4185180  23.0902130 117.9549670 129.3991970
  17.4410640 116.7898060 135.6606060  17.1080020 117.4166980 136.3027130
  17.6177320 117.3159940 134.8807730  25.9544550 110.6043140 133.1282400
  25.2500120 110.8928030 133.7085510  26.3156710 111.4143250 132.7681960
  15.8723120 108.8612840 135.4903010  16.2139930 109.7054890 135.1956880
  14.9338930 109.0096580 135.6068350  16.6529740 118.7578860 137.4755240
  17.2703740 119.4329940 137.1939690  15.7922860 119.1666840 137.3842740
  11.9462080 117.9478720 126.3562090  11.5690060 118.4365820 125.6246990
  12.2035150 118.6204000 126.9868620  27.5707330 120.2218270 135.3909880
  26.8870850 120.8917380 135.3826550  28.1101620 120.4198920 134.6254740
  29.0231470 110.0497930 133.5191610  28.0756380 110.0836910 133.6507040
  29.3481460 110.8636880 133.9040970  19.5551010 106.3495110 131.8147600
  19.8625990 105.7942000 131.0983100  18.6251710 106.4839570 131.6320590
  25.1066070 122.0662400 134.1055060  25.1193230 121.6624690 133.2377320
  24.5541290 122.8409690 134.0016490  26.4011490 118.7878620 129.1945230
  26.2907820 117.8452950 129.3194650  26.3979740 119.1494260 130.0807990
  24.5051510 116.9692240 135.4337670  24.9220300 116.7552350 134.5991130
  25.2291330 117.2265030 136.0046290  21.9431770 114.4143940 128.5507720
  21.0161050 114.3481320 128.7796190  22.0956590 115.3524070 128.4362960
  21.9300850 110.6860940 125.5474880  20.9904520 110.8474900 125.6327340
  22.2484110 111.4046620 125.0010870  28.4513610 115.3679460 135.5253910
  27.6232240 115.4372550 135.0504040  29.0464090 115.9533770 135.0569740
  25.9729060 115.9764240 129.0542970  25.3541480 115.6383790 128.4069270
  25.9553510 115.3324000 129.7622160  25.4155620 112.1548780 136.4708780
  25.0026800 112.9802490 136.7248770  24.6831570 111.5693820 136.2785140
  17.5488410 114.9408680 131.3327450  17.1445410 114.2285930 130.8373350
  17.6351530 114.5961920 132.2215490  18.0170110 118.6276240 133.4966660
  17.7198400 118.0221710 132.8174440  18.9669930 118.6653550 133.3856020
  16.2617030 111.7151890 135.1126490  16.8131620 111.8247230 134.3379740
  16.7760540 112.0889490 135.8281720  26.1055720 122.2008110 137.1589760
  25.6286280 123.0080300 136.9662370  25.4217510 121.5486440 137.3115970
  17.1088540 118.3657930 140.1474460  16.2117070 118.5897900 140.3947860
  17.1341410 118.4892870 139.1985860  24.1493760 115.2151050 126.0615720
  24.5887040 114.3773480 125.9153540  24.8622180 115.8480450 126.1479860
  15.9359760 115.2371250 138.7231830  15.7967530 116.1094050 139.0919230
  15.0541120 114.8944060 138.5779770  22.2589140 120.1547120 130.0296960
  22.6985050 120.8971450 129.6152350  22.1976030 120.3973690 130.9535920
  17.7340110 121.1792950 140.9316980  17.7055540 121.5835900 140.0645410
  17.5705080 120.2503310 140.7688580  27.7310900 106.4693860 124.3756760
  27.4183560 106.5620690 125.2755830  28.4923370 107.0474890 124.3254190
  14.2493040 113.8353660 128.8334100  14.1290640 114.5615750 128.2215370
  13.9393930 113.0656570 128.3562010  29.6854930 121.9620050 142.2281150
  30.1614650 122.4402940 142.9070230  30.3062090 121.8937540 141.5026650
  11.8878410 117.0068800 134.6402740  11.9658830 117.1417570 133.6958460
  12.5020090 116.2984690 134.8330860  13.1326040 118.7068990 131.0508920
  12.7254120 118.8483580 130.1962520  14.0239050 118.4229150 130.8480130
  29.0888180 119.1532900 139.3881160  29.2151240 118.9144780 138.4698340
  29.1309560 118.3217440 139.8603240  22.9504920 122.8560900 137.9575970
  23.4649590 122.7668910 138.7598400  22.1074000 123.2020600 138.2503880
  24.9259320 123.1416240 127.3859970  24.7660460 122.8519180 128.2841800
  24.7606030 122.3656370 126.8505200  17.4047700 122.9214770 129.1631590
  17.2290180 122.0050310 128.9499390  16.5503440 123.2802060 129.4029390
  24.6285450 120.6503800 125.9457970  23.9350610 120.6481090 125.2860250
  25.3708310 120.2263120 125.5152140  24.1935380 122.2766510 130.0206460
  24.6492330 121.4955890 130.3345080  24.5327900 122.9873330 130.5647640
  28.9412190 111.2065360 140.3530900  28.3256460 111.7145030 139.8246360
  28.6208610 110.3063690 140.2956840  11.9437930 118.0482970 137.1797200
  12.1068970 117.5788330 136.3616570  12.4090380 117.5406530 137.8446040
  16.7156700 107.1788730 132.2157770  16.2724850 107.9598270 131.8842290
  17.2741690 107.5018620 132.9228710  21.0026510 110.0457250 137.8193090
  20.5405880 110.2540270 138.6313030  20.6004620 109.2316600 137.5163760
  26.0031020 111.2666200 138.9489750  25.1524610 110.9671950 139.2698820
  25.8432810 111.5108210 138.0373570  23.0980730 112.7667950 141.0488540
  23.4234140 111.9331700 140.7090770  23.8861060 113.2896470 141.1966870
  19.8315520 106.7999430 127.0963600  19.2069700 106.7959300 127.8216910
  19.7445640 105.9330390 126.6999570  18.7532600 107.7236060 134.0747370
  19.0504930 108.6298890 133.9939390  19.3018160 107.2354840 133.4606940
  16.5070920 112.3022300 129.9439020  16.2811840 112.0859470 130.8485640
  15.7263450 112.7350760 129.5984990  23.7368680 112.3085670 128.5429670
  23.1377570 113.0321470 128.3593290  24.2848290 112.2462450 127.7606120
  18.9470130 113.2007880 140.6099290  18.8513730 112.2602610 140.4599690
  19.7902110 113.4222950 140.2147360  22.3433550 110.9449210 130.5732950
  22.7363120 111.2621410 129.7601640  22.7050400 110.0661090 130.6877470
  14.0780670 109.6121550 138.7633070  13.6844060 110.4596760 138.9705850
  13.3899070 108.9747920 138.9541710  20.6525720 109.6956520 141.8329810
  19.9624040 109.5028720 142.4675900  21.3958020 109.9791160 142.3654110
  11.3797720 107.5350010 132.7963150  11.0910770 108.1052870 133.5088130
  12.1243480 107.0554460 133.1594380  11.5667950 111.4770130 124.0065870
  11.4842620 112.4200890 124.1480860  11.2151010 111.3345040 123.1278220
  22.9288690 113.5354960 134.6683730  22.1969810 114.0441770 135.0173830
  22.5313030 112.7184940 134.3672510  19.3666080 110.2109160 133.0736220
  19.3702140 109.7699110 132.2240760  20.2617200 110.5326490 133.1808040
  15.2168460 110.0935650 132.0330430  14.8768510 110.5710880 132.7897480
  14.4545780 109.6400770 131.6731530  19.4286230 111.2121240 126.0642980
  19.5499050 111.1707720 127.0128800  19.0434740 112.0745390 125.9089710
  23.3914600 108.9888640 134.0806670  23.4087340 109.4397290 134.9248520
  23.1430180 108.0894280 134.2940110  18.4407730 113.5222380 125.4626280
  17.8724630 113.0740630 124.8362190  19.1496730 113.8815160 124.9291430
  26.8185350 106.4020820 139.9193050  27.1431120 105.6710480 140.4451030
  26.8541860 106.0834460 139.0174040  13.5176910 117.4234400 139.3393010
  13.1331700 116.7828070 139.9375970  13.8289100 118.1270520 139.9087740
  19.6674050 114.2710940 134.8201630  20.0344180 113.7969510 135.5662970
  19.4779110 115.1452510 135.1609970  12.5314540 109.0154630 130.9495100
  12.2461460 108.6510300 131.7873720  12.4693400 108.2835090 130.3358240
  17.4573420 113.3119580 137.1385840  17.1530490 114.1911560 137.3636200
  18.4119880 113.3719370 137.1743280  15.9855210 117.5180570 127.7352690
  15.2117470 116.9778190 127.5751410  16.7149840 116.9987180 127.3970450
  26.7443190 116.5145930 133.5279080  27.4642310 117.0101220 133.1375190
  26.5425010 115.8363820 132.8832950  22.2053130 107.9083890 127.6708470
  21.3917740 107.4097060 127.5953780  22.0115080 108.7482140 127.2544820
  22.1261990 116.5854990 139.4148080  22.0599300 115.6650660 139.1605670
  21.4967130 116.6830430 140.1292720  24.9201520 112.2803540 125.9670630
  25.8081140 112.5920770 125.7921970  24.8906610 111.4075790 125.5751210
  16.0292610 117.1860950 131.3731500  16.5471280 116.3829210 131.3188390
  15.5776630 117.1240090 132.2148330  20.9162110 118.4527230 126.6458800
  21.2577810 119.1969460 126.1502120  20.0874820 118.7658350 127.0083630
  13.5137150 114.1522320 138.2857200  13.1552090 114.8176170 138.8730540
  13.2191710 113.3205870 138.6569820  16.7150270 114.6106560 141.1696750
  16.4150410 114.7563740 140.2724570  17.4861510 114.0511850 141.0770140
  22.0578720 119.4075560 139.1651880  22.0723260 118.4756520 138.9470790
  21.3503820 119.4935320 139.8041650  27.1915790 113.5915380 125.4350490
  27.1079510 114.0229600 124.5846930  27.9109980 114.0513730 125.8677310
  28.2689930 116.0482900 138.5120460  27.5438120 116.6411680 138.3149850
  28.7965390 116.0406440 137.7133830  28.2203040 120.4457640 128.1632620
  27.5779200 119.7913260 128.4376340  27.8333700 120.8512730 127.3873290
  23.7989520 117.7743070 132.0104310  24.1513340 117.1771200 131.3505680
  22.9151850 117.4487300 132.1812560  19.8852800 118.5340760 129.4174720
  20.5723930 119.0809970 129.7982310  19.0985220 119.0781490 129.4524330
  12.0245200 114.1513580 124.9091800  12.8940050 114.4338380 125.1927720
  11.5335520 114.9649450 124.7940610  19.1880010 115.5386790 129.0300080
  19.6442790 116.3492040 129.2560270  18.8368220 115.2209930 129.8618570
  21.4912620 121.0493130 136.2592380  22.1354840 121.2552510 136.9365800
  21.8542060 120.2881530 135.8063230  15.0891790 105.8824440 129.5022600
  14.9606420 105.8742340 130.4507520  14.2653810 106.2207530 129.1513610
  22.7644700 119.0525480 134.9769830  23.4066930 118.3518640 135.0902000
  23.2894050 119.8323920 134.7966720  26.6100420 119.3374100 124.7008970
  26.3838000 118.6204540 125.2933610  26.2196620 119.0886540 123.8630720
  24.5382320 119.8520380 138.1805890  24.8738560 120.4387070 138.8583810
  23.6182660 119.7213090 138.4103680  12.3916450 123.3640960 125.4753430
  12.7514090 123.9630300 124.8210700  12.2508790 123.9100850 126.2488460
  12.0885720 107.6415560 138.9629300  11.3744240 107.8412480 139.5681910
  12.5080760 106.8655130 139.3344100  26.1916670 117.2546040 126.3623130
  25.9038370 117.7158730 127.1501010  26.9868840 116.7943810 126.6307350
  12.3758310 121.6295820 139.9495830  12.4849430 120.6890560 139.8091220
  11.7238870 121.8950570 139.3009560  20.3670900 119.9011710 141.3493950
  20.0467770 119.1820950 141.8939640  19.6929260 120.5766780 141.4230010
  18.4085070 120.7472160 126.2927100  18.3995170 121.4801850 125.6771610
  17.4883430 120.5003740 126.3854060  14.0091710 115.9687050 127.0373860
  13.4019660 116.7085950 127.0469160  14.4841060 116.0586410 126.2112060
  23.5824500 110.1337870 136.7130750  23.9505320 109.3133080 137.0410320
  22.7222700 110.1939760 137.1286400  26.9486530 109.0894810 127.5218310
  26.3199690 109.1940480 126.8076540  26.4538450 109.3091590 128.3112190
  21.3944670 120.8100400 124.9552290  21.4956650 120.6064390 124.0254270
  20.4946410 120.5558680 125.1600070  18.9170560 111.3680760 128.9376190
  18.2086710 111.8367100 129.3789800  19.2015040 110.7102770 129.5721380
  20.5426490 112.7877460 136.9368720  21.0411740 113.2623280 137.6020570
  20.6849440 111.8640980 137.1438750  22.9485990 108.0931420 130.3771980
  22.8253770 108.1117550 129.4281490  23.8970550 108.1410360 130.4970380
  20.0362780 123.3286720 129.6499960  20.2904280 123.2908110 128.7279330
  19.0875260 123.2020050 129.6428210  17.1205580 109.6765840 126.3126900
  17.9696110 110.1135990 126.2467090  16.7536850 109.9886100 127.1398960
  27.7493350 109.0045420 137.7797110  27.2466950 109.7450820 138.1190920
  28.5650010 109.3929420 137.4633900  26.0415360 114.2478600 131.2258470
  25.1005500 114.2628830 131.4006160  26.3559430 113.4614560 131.6718770
  16.0197000 115.9298200 124.7862430  16.7860270 115.8179560 125.3487860
  16.0971690 115.2336170 124.1339200  14.7143760 113.3623270 125.4695320
  14.7947350 112.4150780 125.5812720  15.6063510 113.6930150 125.5755980
  28.0440940 121.4187450 132.9012730  28.1688360 122.2418620 133.3736540
  28.9106500 121.2078180 132.5536880  15.5158470 123.5118660 132.5729860
  16.2520950 122.9634120 132.8438430  15.8999390 124.3774670 132.4335850
  12.4003950 119.5792230 128.4471370  11.4743730 119.8213370 128.4376780
  12.8660380 120.4066490 128.3256120  14.5216750 122.6964730 141.7615440
  15.3229480 123.0176780 142.1750840  14.0068570 122.3360310 142.4835350
  18.6260780 122.6848970 124.3955430  19.4189390 122.9737800 123.9437220
  18.1065130 122.2541140 123.7167910  23.3581380 118.8044600 141.7090850
  22.7519540 118.8276200 140.9686600  23.0535490 118.0727640 142.2458100
  24.7881750 122.5324890 140.3200260  25.7403500 122.4482910 140.2700500
  24.6409970 123.1966600 140.9934050  27.6790950 121.9119100 125.8192170
  27.3932460 121.4984240 125.0046350  27.4810500 122.8406810 125.6992690
  12.2414560 115.1838190 140.7051490  12.7453580 114.6045470 141.2767720
  11.5021980 115.4678420 141.2427860  19.1438180 117.9052380 124.2597780
  19.0388820 117.2904730 124.9859160  18.9762400 117.3818270 123.4760790
  19.2952500 116.5909180 140.2387010  18.5298170 117.1594180 140.1541680
  19.4768460 116.2985390 139.3455240  22.3840910 116.9672410 124.8639770
  21.8351010 117.4141710 125.5082510  23.0060170 116.4621660 125.3877440
  26.4375850 118.3214510 140.7962030  27.1785320 118.6590270 140.2929490
  25.6748530 118.4906570 140.2431800  14.2737640 113.3267780 141.6001560
  14.3142980 113.0281650 142.5086790  15.1283140 113.7275390 141.4409080
  18.0516030 115.9263330 126.7605070  18.4732450 115.7603200 127.6036460
  18.1766870 115.1163560 126.2660210  16.2143450 111.9059880 139.5676050
  15.6839910 111.4150830 138.9399390  16.8831520 112.3344080 139.0333980
  20.5643670 114.9500940 124.0082170  21.0849330 114.2349960 123.6423320
  21.2112070 115.5886810 124.3082680  25.1121510 116.3729340 139.3317240
  25.5262530 116.5274420 140.1807660  24.1772510 116.4984560 139.4943020
  25.5843680 113.7125500 141.3356390  26.1664450 112.9577820 141.2476870
  25.7605450 114.2432940 140.5587870  16.7015750 108.8722250 139.6473340
  16.6072620 108.2543000 138.9224210  16.1213140 109.5988540 139.4203250
  19.4677190 107.4295490 136.6800730  19.0194490 107.4519750 135.8346280
  18.8342390 107.0314510 137.2771030  19.8736740 116.3249820 137.3013170
  20.2924850 117.1682550 137.1289410  18.9545370 116.4621860 137.0719950
  22.2100640 114.0566000 138.6851010  22.3296850 113.4607140 139.4245850
  23.0694640 114.0935690 138.2652310  24.5488540 114.6103190 137.2613520
  24.0223760 115.1345810 136.6578660  24.8919880 115.2430580 137.8923250
  16.9474930 111.9996560 123.7063230  16.7463990 111.1363920 124.0676570
  16.7766980 111.9129920 122.7684830  17.7244160 122.6302830 138.4170900
  17.1865250 123.3548890 138.0979600  17.9778120 122.1533170 137.6268240
  18.9769410 110.5987350 139.9426830  19.5669100 110.2903200 140.6304650
  18.1589650 110.1267100 140.0986730  23.7962840 110.2153160 140.1759850
  23.1078360 109.5534700 140.1109840  24.5168860 109.7691430 140.6208310
  24.4263240 106.8104790 126.2350110  24.7065530 105.9672690 126.5909530
  23.6528970 107.0427900 126.7488860  15.7457730 109.0997180 123.6941110
  16.0483630 109.1064610 122.7860260  16.4852320 108.7495040 124.1908770
  20.5806370 123.8654040 138.6757550  20.5065070 124.7689180 138.9829920
  19.6785210 123.5465940 138.6479620  18.9642660 108.0431800 124.6797310
  18.6164660 107.3655790 124.0999760  19.1655430 107.5821310 125.4940700
  21.1291700 123.0312550 126.2983910  22.0242490 123.3697520 126.3202670
  21.1609330 122.3091960 125.6708190  14.7687860 118.4039600 124.5270910
  15.2062730 118.9469270 125.1828490  15.2535590 117.5786550 124.5367250
  11.9833660 121.1928630 131.9791170  12.3136670 120.3249690 131.7469810
  12.4124660 121.3987150 132.8096130  16.5795580 119.5237640 129.6393140
  16.2791120 119.4002610 130.5397050  16.4733070 118.6646230 129.2308870
  12.4723870 122.0599220 134.7172800  12.0354860 122.2400020 135.5496950
  13.0401550 122.8173840 134.5754520  28.1086050 121.5616220 139.0050110
  27.5088040 121.6208780 138.2614030  28.2379950 120.6221200 139.1346960
  29.3487500 119.3034040 124.3419820  28.5180460 119.3710690 124.8127050
  29.5259330 120.1938160 124.0386680  28.8043960 116.0481520 126.8454020
  29.5662870 116.6178170 126.9513710  28.8198330 115.4808720 127.6162330
  12.3048300 114.5719450 131.0761680  11.6497140 114.3031090 130.4321380
  13.1426250 114.4623930 130.6263660  29.8103930 116.9031620 131.6895950
  30.1812760 116.1198940 131.2831920  30.4505860 117.5920720 131.5113250
  26.7937690 118.2868200 137.1026270  25.9797530 118.7165360 137.3652060
  27.2011890 118.8986610 136.4895320  28.8563130 116.3415890 124.0026540
  29.1311970 117.2494770 123.8745760  28.6673870 116.2778420 124.9388530
  25.2538740 109.3660740 125.2980170  25.6723620 109.1791720 124.4576830
  24.9474800 108.5139790 125.6083100  28.7528470 114.2784880 128.9955970
  28.3772070 113.5112810 128.5637260  28.0231590 114.6607580 129.4830900
  13.3424230 114.9572020 135.6165020  13.7097270 114.8699420 136.4961040
  12.7735050 114.1938570 135.5171880  28.1428090 113.4256400 138.6295490
  27.9114180 113.1969150 137.7293440  28.4032640 114.3455950 138.5840380
  12.8940230 111.8681110 139.5223440  11.9996280 111.8347870 139.8617150
  13.4337780 112.0667900 140.2874690  26.5816160 108.6512830 141.4075190
  27.4586340 108.6596230 141.7909190  26.5937000 107.9143670 140.7967540
  11.5186380 111.7818380 127.0187010  10.6150460 112.0448580 126.8438670
  12.0027000 112.0529550 126.2386970  28.0279430 112.5042370 132.2963210
  28.5516910 112.0105020 131.6653380  28.6138850 112.6392730 133.0410780
  28.2069150 112.5882240 135.8182760  27.2571860 112.5545780 135.9327750
  28.3882160 113.4982350 135.5832530  14.0613590 110.8383920 124.9281390
  14.7705290 110.4167140 124.4428670  13.3453530 110.9059150 124.2964740
  13.7087750 106.8923250 123.9684040  14.4315880 107.4332190 124.2865260
  13.9812270 106.6186670 123.0925580  27.5179400 111.7615720 128.2355620
  28.0138520 111.5286590 129.0204500  27.3195470 110.9227560 127.8193260
  13.3979940 106.1429440 133.8706660  14.0456130 105.5926820 133.4301820
  13.8181780 106.3972590 134.6922470  28.9466560 110.3976670 130.7693300
  28.8365840 110.2432710 131.7075570  29.7074150 109.8697610 130.5268710
  27.2932280 106.3370800 137.2276300  27.9304500 106.9504940 137.5935490
  27.4407170 106.3731460 136.2825530  29.8356830 108.2284590 124.0099440
  30.7606140 108.0965770 123.8017730  29.8132620 108.3077410 124.9635890
  29.9095320 108.9995250 126.6356150  29.1146820 108.9340370 127.1649060
  30.1138600 109.9345890 126.6241500  26.8513740 123.0386800 130.6294540
  27.4472810 122.7171370 129.9528960  27.1091890 122.5658620 131.4207810
  13.1511940 106.2985110 136.6131980  12.8026760 106.7548930 137.3790160
  12.8199640 105.4042240 136.6954410  14.7576310 119.4704710 140.7785170
  14.7145940 119.0997620 141.6599630  14.8887320 120.4082280 140.9186990
  18.4582340 121.0264300 136.3794890  18.2173700 121.2938860 135.4925410
  19.3984980 121.1970030 136.4345750  20.6636760 107.4896990 140.1351400
  20.6025650 108.0818820 140.8846810  21.6037140 107.3822950 139.9901660
  23.3011320 107.1467050 139.7743690  23.9151730 107.4646340 139.1124770
  23.8460880 106.6615640 140.3939550  29.7186500 123.0458680 137.1805530
  29.2244780 123.4427550 136.4632660  29.1099790 122.4207890 137.5742810
  13.8232580 105.8261310 139.8882750  14.3715570 105.6449360 139.1248860
  13.8887890 105.0355420 140.4239060  14.5964340 122.4166960 137.8982950
  14.0024660 122.2851660 138.6372990  14.5888180 121.5805100 137.4325050
  24.0419360 105.7099190 136.1012980  23.1679200 106.0434300 135.8985910
  23.9330110 105.2372370 136.9264850  24.9491340 107.9170060 137.4854700
  24.6204700 107.1021820 137.1056430  25.8973640 107.8739870 137.3620390
  27.4025950 123.6882100 134.4592270  26.9428920 124.4397910 134.0850290
  26.7738410 122.9688570 134.4007070  14.2276570 119.7825340 136.8490990
  13.5010630 119.1630630 136.7816940  14.2885720 120.1765950 135.9789070
  17.8321670 121.9970340 133.6340400  18.3486690 121.3857700 133.1088660
  18.4819050 122.4999120 134.1251410  20.5717170 122.8878830 134.4609380
  20.8594980 122.6333130 133.5842390  21.0840390 122.3356190 135.0514950
  21.7894180 106.6269030 135.0405890  21.0065970 107.1014530 135.3202650
  21.4957110 105.7223860 134.9319070  26.3415250 107.3292130 133.0854980
  26.7823340 107.2737230 132.2376580  26.0722840 108.2450140 133.1565160
  28.2053820 106.9607370 131.0963800  28.1442220 106.0168590 130.9494820
  28.9845850 107.0687460 131.6417260  12.5106570 123.0999730 130.0587750
  12.3428610 122.4670410 130.7569640  11.6441080 123.3059130 129.7081940
  13.1334590 106.9316510 127.5619610  13.8913950 107.0445390 126.9883640
  12.6711760 107.7685710 127.5163040  19.6748400 109.0455780 130.5521920
  18.8622910 108.6712670 130.2117800  20.1790040 108.2900860 130.8543110
  24.1773380 105.7098230 131.7904990  24.7802750 106.2818440 132.2653510
  23.4366370 106.2737670 131.5678890  27.3207980 106.1119790 127.0645270
  27.5158610 107.0103240 127.3312700  26.5337850 105.8806870 127.5578220
  14.1169270 121.7932960 127.5037890  13.5916890 122.1740990 126.7999850
  14.0413850 122.4183730 128.2247600  15.5059740 107.4580560 126.1021580
  16.0352500 106.6710360 125.9729530  16.1388060 108.1371750 126.3357110
  17.6997580 107.1955700 129.1566970  17.0700320 106.4943010 129.3237100
  17.1602720 107.9559830 128.9400130  20.6389530 123.8094930 141.8277580
  21.5656840 123.5739200 141.8713540  20.6239960 124.6366930 141.3463610
  28.8734590 123.3520500 128.8251830  29.0486780 122.6658240 128.1812750
  28.1756160 123.8767550 128.4328500  17.8253140 106.4739680 141.5919460
  17.5437410 106.9773280 140.8280280  18.2072840 105.6761430 141.2261590
  16.7162240 123.7415340 126.3787140  17.4481060 123.4574620 125.8311030
  16.9755910 123.5028620 127.2686520  15.8777030 119.8580070 126.3833470
  15.2485910 120.3265170 126.9319300  15.9924860 119.0129290 126.8179660
  24.4268600 105.8893260 142.1699930  24.3134050 106.2087870 143.0651450
  25.2438340 106.2905770 141.8737210  27.2067090 123.0364790 141.6518620
  27.9992410 122.5414020 141.4444580  27.5000240 123.7154930 142.2594230
  23.3326750 113.9085730 112.5334670  23.2520800 112.9940340 112.2626380
  22.9191170 114.4052800 111.8274380  21.4644790 115.6864750 114.4143940
  20.6886890 115.2065190 114.7042510  22.1157720 115.0070400 114.2400100
  15.4810620 115.9984560 115.2919700  14.6495500 115.7433270 115.6916210
  16.0891600 116.0695330 116.0277620  25.4852220 120.0924940 113.1943070
  25.0233750 119.3212180 113.5230240  26.2977770 120.1191010 113.6995520
  15.4611880 120.0324650 115.4877720  15.7639920 119.1422390 115.3087940
  16.2055470 120.5894870 115.2599970  13.8902570 110.9586450 109.0762090
  13.0019270 111.3002420 108.9741970  14.1743760 110.7586770 108.1842920
  11.8535580 113.5592100 114.9601790  12.4251690 112.7914300 114.9605430
  11.8537120 113.8580860 114.0508400  21.7115530 122.3782950 112.8147060
  21.0926970 122.8340450 112.2441500  22.5667310 122.5334410 112.4136760
  20.9053780 118.3621940 114.4214100  20.8362060 117.4211880 114.2603230
  21.6673640 118.4523350 114.9936670  13.0960450 108.9676460 116.7470720
  12.9163290 108.0702210 117.0273480  12.6940530 109.5148330 117.4217670
  21.9358950 111.1692320 114.6483030  22.3123770 110.2964200 114.5356700
  21.8378460 111.5051020 113.7573470  16.0663960 109.5417950 110.1100470
  16.1730710 110.4421680 110.4169230  15.1556320 109.4935920 109.8195120
  25.7183070 108.6642760 111.5811370  26.5392690 108.1739330 111.6236850
  25.7517150 109.2540420 112.3343210  13.7147120 111.4636960 115.3553060
  14.3957230 111.7275330 115.9740460  13.3995170 110.6237830 115.6891070
  17.9071690 112.5104320 114.4425650  18.4149910 113.0085290 115.0830670
  18.4384930 111.7339520 114.2665010  30.0082620 110.6809510 118.1455000
  29.3034790 111.0691220 117.6270110  30.2740540 111.3759800 118.7475930
  16.1907790 107.1502880 118.7089070  16.1926230 107.6675270 117.9034970
  15.3612100 106.6733060 118.6859000  22.5778880 117.2622190 110.2078970
  21.9596150 117.7271640 109.6441690  23.0902130 117.9549670 110.6248480
  17.4410640 116.7898060 116.8862570  17.1080020 117.4166980 117.5283640
  17.6177320 117.3159940 116.1064240  25.9544550 110.6043140 114.3538910
  25.2500120 110.8928030 114.9342020  26.3156710 111.4143250 113.9938470
  15.8723120 108.8612840 116.7159520  16.2139930 109.7054890 116.4213390
  14.9338930 109.0096580 116.8324860  16.6529740 118.7578860 118.7011750
  17.2703740 119.4329940 118.4196200  15.7922860 119.1666840 118.6099250
  11.9462080 117.9478720 107.5818600  11.5690060 118.4365820 106.8503500
  12.2035150 118.6204000 108.2125130  27.5707330 120.2218270 116.6166390
  26.8870850 120.8917380 116.6083060  28.1101620 120.4198920 115.8511250
  29.0231470 110.0497930 114.7448120  28.0756380 110.0836910 114.8763550
  29.3481460 110.8636880 115.1297480  19.5551010 106.3495110 113.0404110
  19.8625990 105.7942000 112.3239610  18.6251710 106.4839570 112.8577100
  25.1066070 122.0662400 115.3311570  25.1193230 121.6624690 114.4633830
  24.5541290 122.8409690 115.2273000  26.4011490 118.7878620 110.4201740
  26.2907820 117.8452950 110.5451160  26.3979740 119.1494260 111.3064500
  24.5051510 116.9692240 116.6594180  24.9220300 116.7552350 115.8247640
  25.2291330 117.2265030 117.2302800  21.9431770 114.4143940 109.7764230
  21.0161050 114.3481320 110.0052700  22.0956590 115.3524070 109.6619470
  21.9300850 110.6860940 106.7731390  20.9904520 110.8474900 106.8583850
  22.2484110 111.4046620 106.2267380  28.4513610 115.3679460 116.7510420
  27.6232240 115.4372550 116.2760550  29.0464090 115.9533770 116.2826250
  25.9729060 115.9764240 110.2799480  25.3541480 115.6383790 109.6325780
  25.9553510 115.3324000 110.9878670  25.4155620 112.1548780 117.6965290
  25.0026800 112.9802490 117.9505280  24.6831570 111.5693820 117.5041650
  17.5488410 114.9408680 112.5583960  17.1445410 114.2285930 112.0629860
  17.6351530 114.5961920 113.4472000  18.0170110 118.6276240 114.7223170
  17.7198400 118.0221710 114.0430950  18.9669930 118.6653550 114.6112530
  16.2617030 111.7151890 116.3383000  16.8131620 111.8247230 115.5636250
  16.7760540 112.0889490 117.0538230  26.1055720 122.2008110 118.3846270
  25.6286280 123.0080300 118.1918880  25.4217510 121.5486440 118.5372480
  17.1088540 118.3657930 121.3730970  16.2117070 118.5897900 121.6204370
  17.1341410 118.4892870 120.4242370  24.1493760 115.2151050 107.2872230
  24.5887040 114.3773480 107.1410050  24.8622180 115.8480450 107.3736370
  15.9359760 115.2371250 119.9488340  15.7967530 116.1094050 120.3175740
  15.0541120 114.8944060 119.8036280  22.2589140 120.1547120 111.2553470
  22.6985050 120.8971450 110.8408860  22.1976030 120.3973690 112.1792430
  17.7340110 121.1792950 122.1573490  17.7055540 121.5835900 121.2901920
  17.5705080 120.2503310 121.9945090  27.7310900 106.4693860 105.6013270
  27.4183560 106.5620690 106.5012340  28.4923370 107.0474890 105.5510700
  14.2493040 113.8353660 110.0590610  14.1290640 114.5615750 109.4471880
  13.9393930 113.0656570 109.5818520  29.6854930 121.9620050 123.4537660
  30.1614650 122.4402940 124.1326740  30.3062090 121.8937540 122.7283160
  11.8878410 117.0068800 115.8659250  11.9658830 117.1417570 114.9214970
  12.5020090 116.2984690 116.0587370  13.1326040 118.7068990 112.2765430
  12.7254120 118.8483580 111.4219030  14.0239050 118.4229150 112.0736640
  29.0888180 119.1532900 120.6137670  29.2151240 118.9144780 119.6954850
  29.1309560 118.3217440 121.0859750  22.9504920 122.8560900 119.1832480
  23.4649590 122.7668910 119.9854910  22.1074000 123.2020600 119.4760390
  24.9259320 123.1416240 108.6116480  24.7660460 122.8519180 109.5098310
  24.7606030 122.3656370 108.0761710  17.4047700 122.9214770 110.3888100
  17.2290180 122.0050310 110.1755900  16.5503440 123.2802060 110.6285900
  24.6285450 120.6503800 107.1714480  23.9350610 120.6481090 106.5116760
  25.3708310 120.2263120 106.7408650  24.1935380 122.2766510 111.2462970
  24.6492330 121.4955890 111.5601590  24.5327900 122.9873330 111.7904150
  28.9412190 111.2065360 121.5787410  28.3256460 111.7145030 121.0502870
  28.6208610 110.3063690 121.5213350  11.9437930 118.0482970 118.4053710
  12.1068970 117.5788330 117.5873080  12.4090380 117.5406530 119.0702550
  16.7156700 107.1788730 113.4414280  16.2724850 107.9598270 113.1098800
  17.2741690 107.5018620 114.1485220  21.0026510 110.0457250 119.0449600
  20.5405880 110.2540270 119.8569540  20.6004620 109.2316600 118.7420270
  26.0031020 111.2666200 120.1746260  25.1524610 110.9671950 120.4955330
  25.8432810 111.5108210 119.2630080  23.0980730 112.7667950 122.2745050
  23.4234140 111.9331700 121.9347280  23.8861060 113.2896470 122.4223380
  19.8315520 106.7999430 108.3220110  19.2069700 106.7959300 109.0473420
  19.7445640 105.9330390 107.9256080  18.7532600 107.7236060 115.3003880
  19.0504930 108.6298890 115.2195900  19.3018160 107.2354840 114.6863450
  16.5070920 112.3022300 111.1695530  16.2811840 112.0859470 112.0742150
  15.7263450 112.7350760 110.8241500  23.7368680 112.3085670 109.7686180
  23.1377570 113.0321470 109.5849800  24.2848290 112.2462450 108.9862630
  18.9470130 113.2007880 121.8355800  18.8513730 112.2602610 121.6856200
  19.7902110 113.4222950 121.4403870  22.3433550 110.9449210 111.7989460
  22.7363120 111.2621410 110.9858150  22.7050400 110.0661090 111.9133980
  14.0780670 109.6121550 119.9889580  13.6844060 110.4596760 120.1962360
  13.3899070 108.9747920 120.1798220  20.6525720 109.6956520 123.0586320
  19.9624040 109.5028720 123.6932410  21.3958020 109.9791160 123.5910620
  11.3797720 107.5350010 114.0219660  11.0910770 108.1052870 114.7344640
  12.1243480 107.0554460 114.3850890  11.5667950 111.4770130 105.2322380
  11.4842620 112.4200890 105.3737370  11.2151010 111.3345040 104.3534730
  22.9288690 113.5354960 115.8940240  22.1969810 114.0441770 116.2430340
  22.5313030 112.7184940 115.5929020  19.3666080 110.2109160 114.2992730
  19.3702140 109.7699110 113.4497270  20.2617200 110.5326490 114.4064550
  15.2168460 110.0935650 113.2586940  14.8768510 110.5710880 114.0153990
  14.4545780 109.6400770 112.8988040  19.4286230 111.2121240 107.2899490
  19.5499050 111.1707720 108.2385310  19.0434740 112.0745390 107.1346220
  23.3914600 108.9888640 115.3063180  23.4087340 109.4397290 116.1505030
  23.1430180 108.0894280 115.5196620  18.4407730 113.5222380 106.6882790
  17.8724630 113.0740630 106.0618700  19.1496730 113.8815160 106.1547940
  26.8185350 106.4020820 121.1449560  27.1431120 105.6710480 121.6707540
  26.8541860 106.0834460 120.2430550  13.5176910 117.4234400 120.5649520
  13.1331700 116.7828070 121.1632480  13.8289100 118.1270520 121.1344250
  19.6674050 114.2710940 116.0458140  20.0344180 113.7969510 116.7919480
  19.4779110 115.1452510 116.3866480  12.5314540 109.0154630 112.1751610
  12.2461460 108.6510300 113.0130230  12.4693400 108.2835090 111.5614750
  17.4573420 113.3119580 118.3642350  17.1530490 114.1911560 118.5892710
  18.4119880 113.3719370 118.3999790  15.9855210 117.5180570 108.9609200
  15.2117470 116.9778190 108.8007920  16.7149840 116.9987180 108.6226960
  26.7443190 116.5145930 114.7535590  27.4642310 117.0101220 114.3631700
  26.5425010 115.8363820 114.1089460  22.2053130 107.9083890 108.8964980
  21.3917740 107.4097060 108.8210290  22.0115080 108.7482140 108.4801330
  22.1261990 116.5854990 120.6404590  22.0599300 115.6650660 120.3862180
  21.4967130 116.6830430 121.3549230  24.9201520 112.2803540 107.1927140
  25.8081140 112.5920770 107.0178480  24.8906610 111.4075790 106.8007720
  16.0292610 117.1860950 112.5988010  16.5471280 116.3829210 112.5444900
  15.5776630 117.1240090 113.4404840  20.9162110 118.4527230 107.8715310
  21.2577810 119.1969460 107.3758630  20.0874820 118.7658350 108.2340140
  13.5137150 114.1522320 119.5113710  13.1552090 114.8176170 120.0987050
  13.2191710 113.3205870 119.8826330  16.7150270 114.6106560 122.3953260
  16.4150410 114.7563740 121.4981080  17.4861510 114.0511850 122.3026650
  22.0578720 119.4075560 120.3908390  22.0723260 118.4756520 120.1727300
  21.3503820 119.4935320 121.0298160  27.1915790 113.5915380 106.6607000
  27.1079510 114.0229600 105.8103440  27.9109980 114.0513730 107.0933820
  28.2689930 116.0482900 119.7376970  27.5438120 116.6411680 119.5406360
  28.7965390 116.0406440 118.9390340  28.2203040 120.4457640 109.3889130
  27.5779200 119.7913260 109.6632850  27.8333700 120.8512730 108.6129800
  23.7989520 117.7743070 113.2360820  24.1513340 117.1771200 112.5762190
  22.9151850 117.4487300 113.4069070  19.8852800 118.5340760 110.6431230
  20.5723930 119.0809970 111.0238820  19.0985220 119.0781490 110.6780840
  12.0245200 114.1513580 106.1348310  12.8940050 114.4338380 106.4184230
  11.5335520 114.9649450 106.0197120  19.1880010 115.5386790 110.2556590
  19.6442790 116.3492040 110.4816780  18.8368220 115.2209930 111.0875080
  21.4912620 121.0493130 117.4848890  22.1354840 121.2552510 118.1622310
  21.8542060 120.2881530 117.0319740  15.0891790 105.8824440 110.7279110
  14.9606420 105.8742340 111.6764030  14.2653810 106.2207530 110.3770120
  22.7644700 119.0525480 116.2026340  23.4066930 118.3518640 116.3158510
  23.2894050 119.8323920 116.0223230  26.6100420 119.3374100 105.9265480
  26.3838000 118.6204540 106.5190120  26.2196620 119.0886540 105.0887230
  24.5382320 119.8520380 119.4062400  24.8738560 120.4387070 120.0840320
  23.6182660 119.7213090 119.6360190  12.3916450 123.3640960 106.7009940
  12.7514090 123.9630300 106.0467210  12.2508790 123.9100850 107.4744970
  12.0885720 107.6415560 120.1885810  11.3744240 107.8412480 120.7938420
  12.5080760 106.8655130 120.5600610  26.1916670 117.2546040 107.5879640
  25.9038370 117.7158730 108.3757520  26.9868840 116.7943810 107.8563860
  12.3758310 121.6295820 121.1752340  12.4849430 120.6890560 121.0347730
  11.7238870 121.8950570 120.5266070  20.3670900 119.9011710 122.5750460
  20.0467770 119.1820950 123.1196150  19.6929260 120.5766780 122.6486520
  18.4085070 120.7472160 107.5183610  18.3995170 121.4801850 106.9028120
  17.4883430 120.5003740 107.6110570  14.0091710 115.9687050 108.2630370
  13.4019660 116.7085950 108.2725670  14.4841060 116.0586410 107.4368570
  23.5824500 110.1337870 117.9387260  23.9505320 109.3133080 118.2666830
  22.7222700 110.1939760 118.3542910  26.9486530 109.0894810 108.7474820
  26.3199690 109.1940480 108.0333050  26.4538450 109.3091590 109.5368700
  21.3944670 120.8100400 106.1808800  21.4956650 120.6064390 105.2510780
  20.4946410 120.5558680 106.3856580  18.9170560 111.3680760 110.1632700
  18.2086710 111.8367100 110.6046310  19.2015040 110.7102770 110.7977890
  20.5426490 112.7877460 118.1625230  21.0411740 113.2623280 118.8277080
  20.6849440 111.8640980 118.3695260  22.9485990 108.0931420 111.6028490
  22.8253770 108.1117550 110.6538000  23.8970550 108.1410360 111.7226890
  20.0362780 123.3286720 110.8756470  20.2904280 123.2908110 109.9535840
  19.0875260 123.2020050 110.8684720  17.1205580 109.6765840 107.5383410
  17.9696110 110.1135990 107.4723600  16.7536850 109.9886100 108.3655470
  27.7493350 109.0045420 119.0053620  27.2466950 109.7450820 119.3447430
  28.5650010 109.3929420 118.6890410  26.0415360 114.2478600 112.4514980
  25.1005500 114.2628830 112.6262670  26.3559430 113.4614560 112.8975280
  16.0197000 115.9298200 106.0118940  16.7860270 115.8179560 106.5744370
  16.0971690 115.2336170 105.3595710  14.7143760 113.3623270 106.6951830
  14.7947350 112.4150780 106.8069230  15.6063510 113.6930150 106.8012490
  28.0440940 121.4187450 114.1269240  28.1688360 122.2418620 114.5993050
  28.9106500 121.2078180 113.7793390  15.5158470 123.5118660 113.7986370
  16.2520950 122.9634120 114.0694940  15.8999390 124.3774670 113.6592360
  12.4003950 119.5792230 109.6727880  11.4743730 119.8213370 109.6633290
  12.8660380 120.4066490 109.5512630  14.5216750 122.6964730 122.9871950
  15.3229480 123.0176780 123.4007350  14.0068570 122.3360310 123.7091860
  18.6260780 122.6848970 105.6211940  19.4189390 122.9737800 105.1693730
  18.1065130 122.2541140 104.9424420  23.3581380 118.8044600 122.9347360
  22.7519540 118.8276200 122.1943110  23.0535490 118.0727640 123.4714610
  24.7881750 122.5324890 121.5456770  25.7403500 122.4482910 121.4957010
  24.6409970 123.1966600 122.2190560  27.6790950 121.9119100 107.0448680
  27.3932460 121.4984240 106.2302860  27.4810500 122.8406810 106.9249200
  12.2414560 115.1838190 121.9308000  12.7453580 114.6045470 122.5024230
  11.5021980 115.4678420 122.4684370  19.1438180 117.9052380 105.4854290
  19.0388820 117.2904730 106.2115670  18.9762400 117.3818270 104.7017300
  19.2952500 116.5909180 121.4643520  18.5298170 117.1594180 121.3798190
  19.4768460 116.2985390 120.5711750  22.3840910 116.9672410 106.0896280
  21.8351010 117.4141710 106.7339020  23.0060170 116.4621660 106.6133950
  26.4375850 118.3214510 122.0218540  27.1785320 118.6590270 121.5186000
  25.6748530 118.4906570 121.4688310  14.2737640 113.3267780 122.8258070
  14.3142980 113.0281650 123.7343300  15.1283140 113.7275390 122.6665590
  18.0516030 115.9263330 107.9861580  18.4732450 115.7603200 108.8292970
  18.1766870 115.1163560 107.4916720  16.2143450 111.9059880 120.7932560
  15.6839910 111.4150830 120.1655900  16.8831520 112.3344080 120.2590490
  20.5643670 114.9500940 105.2338680  21.0849330 114.2349960 104.8679830
  21.2112070 115.5886810 105.5339190  25.1121510 116.3729340 120.5573750
  25.5262530 116.5274420 121.4064170  24.1772510 116.4984560 120.7199530
  25.5843680 113.7125500 122.5612900  26.1664450 112.9577820 122.4733380
  25.7605450 114.2432940 121.7844380  16.7015750 108.8722250 120.8729850
  16.6072620 108.2543000 120.1480720  16.1213140 109.5988540 120.6459760
  19.4677190 107.4295490 117.9057240  19.0194490 107.4519750 117.0602790
  18.8342390 107.0314510 118.5027540  19.8736740 116.3249820 118.5269680
  20.2924850 117.1682550 118.3545920  18.9545370 116.4621860 118.2976460
  22.2100640 114.0566000 119.9107520  22.3296850 113.4607140 120.6502360
  23.0694640 114.0935690 119.4908820  24.5488540 114.6103190 118.4870030
  24.0223760 115.1345810 117.8835170  24.8919880 115.2430580 119.1179760
  16.9474930 111.9996560 104.9319740  16.7463990 111.1363920 105.2933080
  16.7766980 111.9129920 103.9941340  17.7244160 122.6302830 119.6427410
  17.1865250 123.3548890 119.3236110  17.9778120 122.1533170 118.8524750
  18.9769410 110.5987350 121.1683340  19.5669100 110.2903200 121.8561160
  18.1589650 110.1267100 121.3243240  23.7962840 110.2153160 121.4016360
  23.1078360 109.5534700 121.3366350  24.5168860 109.7691430 121.8464820
  24.4263240 106.8104790 107.4606620  24.7065530 105.9672690 107.8166040
  23.6528970 107.0427900 107.9745370  15.7457730 109.0997180 104.9197620
  16.0483630 109.1064610 104.0116770  16.4852320 108.7495040 105.4165280
  20.5806370 123.8654040 119.9014060  20.5065070 124.7689180 120.2086430
  19.6785210 123.5465940 119.8736130  18.9642660 108.0431800 105.9053820
  18.6164660 107.3655790 105.3256270  19.1655430 107.5821310 106.7197210
  21.1291700 123.0312550 107.5240420  22.0242490 123.3697520 107.5459180
  21.1609330 122.3091960 106.8964700  14.7687860 118.4039600 105.7527420
  15.2062730 118.9469270 106.4085000  15.2535590 117.5786550 105.7623760
  11.9833660 121.1928630 113.2047680  12.3136670 120.3249690 112.9726320
  12.4124660 121.3987150 114.0352640  16.5795580 119.5237640 110.8649650
  16.2791120 119.4002610 111.7653560  16.4733070 118.6646230 110.4565380
  12.4723870 122.0599220 115.9429310  12.0354860 122.2400020 116.7753460
  13.0401550 122.8173840 115.8011030  28.1086050 121.5616220 120.2306620
  27.5088040 121.6208780 119.4870540  28.2379950 120.6221200 120.3603470
  29.3487500 119.3034040 105.5676330  28.5180460 119.3710690 106.0383560
  29.5259330 120.1938160 105.2643190  28.8043960 116.0481520 108.0710530
  29.5662870 116.6178170 108.1770220  28.8198330 115.4808720 108.8418840
  12.3048300 114.5719450 112.3018190  11.6497140 114.3031090 111.6577890
  13.1426250 114.4623930 111.8520170  29.8103930 116.9031620 112.9152460
  30.1812760 116.1198940 112.5088430  30.4505860 117.5920720 112.7369760
  26.7937690 118.2868200 118.3282780  25.9797530 118.7165360 118.5908570
  27.2011890 118.8986610 117.7151830  28.8563130 116.3415890 105.2283050
  29.1311970 117.2494770 105.1002270  28.6673870 116.2778420 106.1645040
  25.2538740 109.3660740 106.5236680  25.6723620 109.1791720 105.6833340
  24.9474800 108.5139790 106.8339610  28.7528470 114.2784880 110.2212480
  28.3772070 113.5112810 109.7893770  28.0231590 114.6607580 110.7087410
  13.3424230 114.9572020 116.8421530  13.7097270 114.8699420 117.7217550
  12.7735050 114.1938570 116.7428390  28.1428090 113.4256400 119.8552000
  27.9114180 113.1969150 118.9549950  28.4032640 114.3455950 119.8096890
  12.8940230 111.8681110 120.7479950  11.9996280 111.8347870 121.0873660
  13.4337780 112.0667900 121.5131200  26.5816160 108.6512830 122.6331700
  27.4586340 108.6596230 123.0165700  26.5937000 107.9143670 122.0224050
  11.5186380 111.7818380 108.2443520  10.6150460 112.0448580 108.0695180
  12.0027000 112.0529550 107.4643480  28.0279430 112.5042370 113.5219720
  28.5516910 112.0105020 112.8909890  28.6138850 112.6392730 114.2667290
  28.2069150 112.5882240 117.0439270  27.2571860 112.5545780 117.1584260
  28.3882160 113.4982350 116.8089040  14.0613590 110.8383920 106.1537900
  14.7705290 110.4167140 105.6685180  13.3453530 110.9059150 105.5221250
  13.7087750 106.8923250 105.1940550  14.4315880 107.4332190 105.5121770
  13.9812270 106.6186670 104.3182090  27.5179400 111.7615720 109.4612130
  28.0138520 111.5286590 110.2461010  27.3195470 110.9227560 109.0449770
  13.3979940 106.1429440 115.0963170  14.0456130 105.5926820 114.6558330
  13.8181780 106.3972590 115.9178980  28.9466560 110.3976670 111.9949810
  28.8365840 110.2432710 112.9332080  29.7074150 109.8697610 111.7525220
  27.2932280 106.3370800 118.4532810  27.9304500 106.9504940 118.8192000
  27.4407170 106.3731460 117.5082040  29.8356830 108.2284590 105.2355950
  30.7606140 108.0965770 105.0274240  29.8132620 108.3077410 106.1892400
  29.9095320 108.9995250 107.8612660  29.1146820 108.9340370 108.3905570
  30.1138600 109.9345890 107.8498010  26.8513740 123.0386800 111.8551050
  27.4472810 122.7171370 111.1785470  27.1091890 122.5658620 112.6464320
  13.1511940 106.2985110 117.8388490  12.8026760 106.7548930 118.6046670
  12.8199640 105.4042240 117.9210920  14.7576310 119.4704710 122.0041680
  14.7145940 119.0997620 122.8856140  14.8887320 120.4082280 122.1443500
  18.4582340 121.0264300 117.6051400  18.2173700 121.2938860 116.7181920
  19.3984980 121.1970030 117.6602260  20.6636760 107.4896990 121.3607910
  20.6025650 108.0818820 122.1103320  21.6037140 107.3822950 121.2158170
  23.3011320 107.1467050 121.0000200  23.9151730 107.4646340 120.3381280
  23.8460880 106.6615640 121.6196060  29.7186500 123.0458680 118.4062040
  29.2244780 123.4427550 117.6889170  29.1099790 122.4207890 118.7999320
  13.8232580 105.8261310 121.1139260  14.3715570 105.6449360 120.3505370
  13.8887890 105.0355420 121.6495570  14.5964340 122.4166960 119.1239460
  14.0024660 122.2851660 119.8629500  14.5888180 121.5805100 118.6581560
  24.0419360 105.7099190 117.3269490  23.1679200 106.0434300 117.1242420
  23.9330110 105.2372370 118.1521360  24.9491340 107.9170060 118.7111210
  24.6204700 107.1021820 118.3312940  25.8973640 107.8739870 118.5876900
  27.4025950 123.6882100 115.6848780  26.9428920 124.4397910 115.3106800
  26.7738410 122.9688570 115.6263580  14.2276570 119.7825340 118.0747500
  13.5010630 119.1630630 118.0073450  14.2885720 120.1765950 117.2045580
  17.8321670 121.9970340 114.8596910  18.3486690 121.3857700 114.3345170
  18.4819050 122.4999120 115.3507920  20.5717170 122.8878830 115.6865890
  20.8594980 122.6333130 114.8098900  21.0840390 122.3356190 116.2771460
  21.7894180 106.6269030 116.2662400  21.0065970 107.1014530 116.5459160
  21.4957110 105.7223860 116.1575580  26.3415250 107.3292130 114.3111490
  26.7823340 107.2737230 113.4633090  26.0722840 108.2450140 114.3821670
  28.2053820 106.9607370 112.3220310  28.1442220 106.0168590 112.1751330
  28.9845850 107.0687460 112.8673770  12.5106570 123.0999730 111.2844260
  12.3428610 122.4670410 111.9826150  11.6441080 123.3059130 110.9338450
  13.1334590 106.9316510 108.7876120  13.8913950 107.0445390 108.2140150
  12.6711760 107.7685710 108.7419550  19.6748400 109.0455780 111.7778430
  18.8622910 108.6712670 111.4374310  20.1790040 108.2900860 112.0799620
  24.1773380 105.7098230 113.0161500  24.7802750 106.2818440 113.4910020
  23.4366370 106.2737670 112.7935400  27.3207980 106.1119790 108.2901780
  27.5158610 107.0103240 108.5569210  26.5337850 105.8806870 108.7834730
  14.1169270 121.7932960 108.7294400  13.5916890 122.1740990 108.0256360
  14.0413850 122.4183730 109.4504110  15.5059740 107.4580560 107.3278090
  16.0352500 106.6710360 107.1986040  16.1388060 108.1371750 107.5613620
  17.6997580 107.1955700 110.3823480  17.0700320 106.4943010 110.5493610
  17.1602720 107.9559830 110.1656640  20.6389530 123.8094930 123.0534090
  21.5656840 123.5739200 123.0970050  20.6239960 124.6366930 122.5720120
  28.8734590 123.3520500 110.0508340  29.0486780 122.6658240 109.4069260
  28.1756160 123.8767550 109.6585010  17.8253140 106.4739680 122.8175970
  17.5437410 106.9773280 122.0536790  18.2072840 105.6761430 122.4518100
  16.7162240 123.7415340 107.6043650  17.4481060 123.4574620 107.0567540
  16.9755910 123.5028620 108.4943030  15.8777030 119.8580070 107.6089980
  15.2485910 120.3265170 108.1575810  15.9924860 119.0129290 108.0436170
  24.4268600 105.8893260 123.3956440  24.3134050 106.2087870 124.2907960
  25.2438340 106.2905770 123.0993720  27.2067090 123.0364790 122.8775130
  27.9992410 122.5414020 122.6701090  27.5000240 123.7154930 123.4850740
  23.3326750 113.9085730  93.7591180  23.2520800 112.9940340  93.4882890
  22.9191170 114.4052800  93.0530890  21.4644790 115.6864750  95.6400450
  20.6886890 115.2065190  95.9299020  22.1157720 115.0070400  95.4656610
  15.4810620 115.9984560  96.5176210  14.6495500 115.7433270  96.9172720
  16.0891600 116.0695330  97.2534130  25.4852220 120.0924940  94.4199580
  25.0233750 119.3212180  94.7486750  26.2977770 120.1191010  94.9252030
  15.4611880 120.0324650  96.7134230  15.7639920 119.1422390  96.5344450
  16.2055470 120.5894870  96.4856480  13.8902570 110.9586450  90.3018600
  13.0019270 111.3002420  90.1998480  14.1743760 110.7586770  89.4099430
  11.8535580 113.5592100  96.1858300  12.4251690 112.7914300  96.1861940
  11.8537120 113.8580860  95.2764910  21.7115530 122.3782950  94.0403570
  21.0926970 122.8340450  93.4698010  22.5667310 122.5334410  93.6393270
  20.9053780 118.3621940  95.6470610  20.8362060 117.4211880  95.4859740
  21.6673640 118.4523350  96.2193180  13.0960450 108.9676460  97.9727230
  12.9163290 108.0702210  98.2529990  12.6940530 109.5148330  98.6474180
  21.9358950 111.1692320  95.8739540  22.3123770 110.2964200  95.7613210
  21.8378460 111.5051020  94.9829980  16.0663960 109.5417950  91.3356980
  16.1730710 110.4421680  91.6425740  15.1556320 109.4935920  91.0451630
  25.7183070 108.6642760  92.8067880  26.5392690 108.1739330  92.8493360
  25.7517150 109.2540420  93.5599720  13.7147120 111.4636960  96.5809570
  14.3957230 111.7275330  97.1996970  13.3995170 110.6237830  96.9147580
  17.9071690 112.5104320  95.6682160  18.4149910 113.0085290  96.3087180
  18.4384930 111.7339520  95.4921520  30.0082620 110.6809510  99.3711510
  29.3034790 111.0691220  98.8526620  30.2740540 111.3759800  99.9732440
  16.1907790 107.1502880  99.9345580  16.1926230 107.6675270  99.1291480
  15.3612100 106.6733060  99.9115510  22.5778880 117.2622190  91.4335480
  21.9596150 117.7271640  90.8698200  23.0902130 117.9549670  91.8504990
  17.4410640 116.7898060  98.1119080  17.1080020 117.4166980  98.7540150
  17.6177320 117.3159940  97.3320750  25.9544550 110.6043140  95.5795420
  25.2500120 110.8928030  96.1598530  26.3156710 111.4143250  95.2194980
  15.8723120 108.8612840  97.9416030  16.2139930 109.7054890  97.6469900
  14.9338930 109.0096580  98.0581370  16.6529740 118.7578860  99.9268260
  17.2703740 119.4329940  99.6452710  15.7922860 119.1666840  99.8355760
  11.9462080 117.9478720  88.8075110  11.5690060 118.4365820  88.0760010
  12.2035150 118.6204000  89.4381640  27.5707330 120.2218270  97.8422900
  26.8870850 120.8917380  97.8339570  28.1101620 120.4198920  97.0767760
  29.0231470 110.0497930  95.9704630  28.0756380 110.0836910  96.1020060
  29.3481460 110.8636880  96.3553990  19.5551010 106.3495110  94.2660620
  19.8625990 105.7942000  93.5496120  18.6251710 106.4839570  94.0833610
  25.1066070 122.0662400  96.5568080  25.1193230 121.6624690  95.6890340
  24.5541290 122.8409690  96.4529510  26.4011490 118.7878620  91.6458250
  26.2907820 117.8452950  91.7707670  26.3979740 119.1494260  92.5321010
  24.5051510 116.9692240  97.8850690  24.9220300 116.7552350  97.0504150
  25.2291330 117.2265030  98.4559310  21.9431770 114.4143940  91.0020740
  21.0161050 114.3481320  91.2309210  22.0956590 115.3524070  90.8875980
  21.9300850 110.6860940  87.9987900  20.9904520 110.8474900  88.0840360
  22.2484110 111.4046620  87.4523890  28.4513610 115.3679460  97.9766930
  27.6232240 115.4372550  97.5017060  29.0464090 115.9533770  97.5082760
  25.9729060 115.9764240  91.5055990  25.3541480 115.6383790  90.8582290
  25.9553510 115.3324000  92.2135180  25.4155620 112.1548780  98.9221800
  25.0026800 112.9802490  99.1761790  24.6831570 111.5693820  98.7298160
  17.5488410 114.9408680  93.7840470  17.1445410 114.2285930  93.2886370
  17.6351530 114.5961920  94.6728510  18.0170110 118.6276240  95.9479680
  17.7198400 118.0221710  95.2687460  18.9669930 118.6653550  95.8369040
  16.2617030 111.7151890  97.5639510  16.8131620 111.8247230  96.7892760
  16.7760540 112.0889490  98.2794740  26.1055720 122.2008110  99.6102780
  25.6286280 123.0080300  99.4175390  25.4217510 121.5486440  99.7628990
  17.1088540 118.3657930 102.5987480  16.2117070 118.5897900 102.8460880
  17.1341410 118.4892870 101.6498880  24.1493760 115.2151050  88.5128740
  24.5887040 114.3773480  88.3666560  24.8622180 115.8480450  88.5992880
  15.9359760 115.2371250 101.1744850  15.7967530 116.1094050 101.5432250
  15.0541120 114.8944060 101.0292790  22.2589140 120.1547120  92.4809980
  22.6985050 120.8971450  92.0665370  22.1976030 120.3973690  93.4048940
  17.7340110 121.1792950 103.3830000  17.7055540 121.5835900 102.5158430
  17.5705080 120.2503310 103.2201600  27.7310900 106.4693860  86.8269780
  27.4183560 106.5620690  87.7268850  28.4923370 107.0474890  86.7767210
  14.2493040 113.8353660  91.2847120  14.1290640 114.5615750  90.6728390
  13.9393930 113.0656570  90.8075030  29.6854930 121.9620050 104.6794170
  30.1614650 122.4402940 105.3583250  30.3062090 121.8937540 103.9539670
  11.8878410 117.0068800  97.0915760  11.9658830 117.1417570  96.1471480
  12.5020090 116.2984690  97.2843880  13.1326040 118.7068990  93.5021940
  12.7254120 118.8483580  92.6475540  14.0239050 118.4229150  93.2993150
  29.0888180 119.1532900 101.8394180  29.2151240 118.9144780 100.9211360
  29.1309560 118.3217440 102.3116260  22.9504920 122.8560900 100.4088990
  23.4649590 122.7668910 101.2111420  22.1074000 123.2020600 100.7016900
  24.9259320 123.1416240  89.8372990  24.7660460 122.8519180  90.7354820
  24.7606030 122.3656370  89.3018220  17.4047700 122.9214770  91.6144610
  17.2290180 122.0050310  91.4012410  16.5503440 123.2802060  91.8542410
  24.6285450 120.6503800  88.3970990  23.9350610 120.6481090  87.7373270
  25.3708310 120.2263120  87.9665160  24.1935380 122.2766510  92.4719480
  24.6492330 121.4955890  92.7858100  24.5327900 122.9873330  93.0160660
  28.9412190 111.2065360 102.8043920  28.3256460 111.7145030 102.2759380
  28.6208610 110.3063690 102.7469860  11.9437930 118.0482970  99.6310220
  12.1068970 117.5788330  98.8129590  12.4090380 117.5406530 100.2959060
  16.7156700 107.1788730  94.6670790  16.2724850 107.9598270  94.3355310
  17.2741690 107.5018620  95.3741730  21.0026510 110.0457250 100.2706110
  20.5405880 110.2540270 101.0826050  20.6004620 109.2316600  99.9676780
  26.0031020 111.2666200 101.4002770  25.1524610 110.9671950 101.7211840
  25.8432810 111.5108210 100.4886590  23.0980730 112.7667950 103.5001560
  23.4234140 111.9331700 103.1603790  23.8861060 113.2896470 103.6479890
  19.8315520 106.7999430  89.5476620  19.2069700 106.7959300  90.2729930
  19.7445640 105.9330390  89.1512590  18.7532600 107.7236060  96.5260390
  19.0504930 108.6298890  96.4452410  19.3018160 107.2354840  95.9119960
  16.5070920 112.3022300  92.3952040  16.2811840 112.0859470  93.2998660
  15.7263450 112.7350760  92.0498010  23.7368680 112.3085670  90.9942690
  23.1377570 113.0321470  90.8106310  24.2848290 112.2462450  90.2119140
  18.9470130 113.2007880 103.0612310  18.8513730 112.2602610 102.9112710
  19.7902110 113.4222950 102.6660380  22.3433550 110.9449210  93.0245970
  22.7363120 111.2621410  92.2114660  22.7050400 110.0661090  93.1390490
  14.0780670 109.6121550 101.2146090  13.6844060 110.4596760 101.4218870
  13.3899070 108.9747920 101.4054730  20.6525720 109.6956520 104.2842830
  19.9624040 109.5028720 104.9188920  21.3958020 109.9791160 104.8167130
  11.3797720 107.5350010  95.2476170  11.0910770 108.1052870  95.9601150
  12.1243480 107.0554460  95.6107400  11.5667950 111.4770130  86.4578890
  11.4842620 112.4200890  86.5993880  11.2151010 111.3345040  85.5791240
  22.9288690 113.5354960  97.1196750  22.1969810 114.0441770  97.4686850
  22.5313030 112.7184940  96.8185530  19.3666080 110.2109160  95.5249240
  19.3702140 109.7699110  94.6753780  20.2617200 110.5326490  95.6321060
  15.2168460 110.0935650  94.4843450  14.8768510 110.5710880  95.2410500
  14.4545780 109.6400770  94.1244550  19.4286230 111.2121240  88.5156000
  19.5499050 111.1707720  89.4641820  19.0434740 112.0745390  88.3602730
  23.3914600 108.9888640  96.5319690  23.4087340 109.4397290  97.3761540
  23.1430180 108.0894280  96.7453130  18.4407730 113.5222380  87.9139300
  17.8724630 113.0740630  87.2875210  19.1496730 113.8815160  87.3804450
  26.8185350 106.4020820 102.3706070  27.1431120 105.6710480 102.8964050
  26.8541860 106.0834460 101.4687060  13.5176910 117.4234400 101.7906030
  13.1331700 116.7828070 102.3888990  13.8289100 118.1270520 102.3600760
  19.6674050 114.2710940  97.2714650  20.0344180 113.7969510  98.0175990
  19.4779110 115.1452510  97.6122990  12.5314540 109.0154630  93.4008120
  12.2461460 108.6510300  94.2386740  12.4693400 108.2835090  92.7871260
  17.4573420 113.3119580  99.5898860  17.1530490 114.1911560  99.8149220
  18.4119880 113.3719370  99.6256300  15.9855210 117.5180570  90.1865710
  15.2117470 116.9778190  90.0264430  16.7149840 116.9987180  89.8483470
  26.7443190 116.5145930  95.9792100  27.4642310 117.0101220  95.5888210
  26.5425010 115.8363820  95.3345970  22.2053130 107.9083890  90.1221490
  21.3917740 107.4097060  90.0466800  22.0115080 108.7482140  89.7057840
  22.1261990 116.5854990 101.8661100  22.0599300 115.6650660 101.6118690
  21.4967130 116.6830430 102.5805740  24.9201520 112.2803540  88.4183650
  25.8081140 112.5920770  88.2434990  24.8906610 111.4075790  88.0264230
  16.0292610 117.1860950  93.8244520  16.5471280 116.3829210  93.7701410
  15.5776630 117.1240090  94.6661350  20.9162110 118.4527230  89.0971820
  21.2577810 119.1969460  88.6015140  20.0874820 118.7658350  89.4596650
  13.5137150 114.1522320 100.7370220  13.1552090 114.8176170 101.3243560
  13.2191710 113.3205870 101.1082840  16.7150270 114.6106560 103.6209770
  16.4150410 114.7563740 102.7237590  17.4861510 114.0511850 103.5283160
  22.0578720 119.4075560 101.6164900  22.0723260 118.4756520 101.3983810
  21.3503820 119.4935320 102.2554670  27.1915790 113.5915380  87.8863510
  27.1079510 114.0229600  87.0359950  27.9109980 114.0513730  88.3190330
  28.2689930 116.0482900 100.9633480  27.5438120 116.6411680 100.7662870
  28.7965390 116.0406440 100.1646850  28.2203040 120.4457640  90.6145640
  27.5779200 119.7913260  90.8889360  27.8333700 120.8512730  89.8386310
  23.7989520 117.7743070  94.4617330  24.1513340 117.1771200  93.8018700
  22.9151850 117.4487300  94.6325580  19.8852800 118.5340760  91.8687740
  20.5723930 119.0809970  92.2495330  19.0985220 119.0781490  91.9037350
  12.0245200 114.1513580  87.3604820  12.8940050 114.4338380  87.6440740
  11.5335520 114.9649450  87.2453630  19.1880010 115.5386790  91.4813100
  19.6442790 116.3492040  91.7073290  18.8368220 115.2209930  92.3131590
  21.4912620 121.0493130  98.7105400  22.1354840 121.2552510  99.3878820
  21.8542060 120.2881530  98.2576250  15.0891790 105.8824440  91.9535620
  14.9606420 105.8742340  92.9020540  14.2653810 106.2207530  91.6026630
  22.7644700 119.0525480  97.4282850  23.4066930 118.3518640  97.5415020
  23.2894050 119.8323920  97.2479740  26.6100420 119.3374100  87.1521990
  26.3838000 118.6204540  87.7446630  26.2196620 119.0886540  86.3143740
  24.5382320 119.8520380 100.6318910  24.8738560 120.4387070 101.3096830
  23.6182660 119.7213090 100.8616700  12.3916450 123.3640960  87.9266450
  12.7514090 123.9630300  87.2723720  12.2508790 123.9100850  88.7001480
  12.0885720 107.6415560 101.4142320  11.3744240 107.8412480 102.0194930
  12.5080760 106.8655130 101.7857120  26.1916670 117.2546040  88.8136150
  25.9038370 117.7158730  89.6014030  26.9868840 116.7943810  89.0820370
  12.3758310 121.6295820 102.4008850  12.4849430 120.6890560 102.2604240
  11.7238870 121.8950570 101.7522580  20.3670900 119.9011710 103.8006970
  20.0467770 119.1820950 104.3452660  19.6929260 120.5766780 103.8743030
  18.4085070 120.7472160  88.7440120  18.3995170 121.4801850  88.1284630
  17.4883430 120.5003740  88.8367080  14.0091710 115.9687050  89.4886880
  13.4019660 116.7085950  89.4982180  14.4841060 116.0586410  88.6625080
  23.5824500 110.1337870  99.1643770  23.9505320 109.3133080  99.4923340
  22.7222700 110.1939760  99.5799420  26.9486530 109.0894810  89.9731330
  26.3199690 109.1940480  89.2589560  26.4538450 109.3091590  90.7625210
  21.3944670 120.8100400  87.4065310  21.4956650 120.6064390  86.4767290
  20.4946410 120.5558680  87.6113090  18.9170560 111.3680760  91.3889210
  18.2086710 111.8367100  91.8302820  19.2015040 110.7102770  92.0234400
  20.5426490 112.7877460  99.3881740  21.0411740 113.2623280 100.0533590
  20.6849440 111.8640980  99.5951770  22.9485990 108.0931420  92.8285000
  22.8253770 108.1117550  91.8794510  23.8970550 108.1410360  92.9483400
  20.0362780 123.3286720  92.1012980  20.2904280 123.2908110  91.1792350
  19.0875260 123.2020050  92.0941230  17.1205580 109.6765840  88.7639920
  17.9696110 110.1135990  88.6980110  16.7536850 109.9886100  89.5911980
  27.7493350 109.0045420 100.2310130  27.2466950 109.7450820 100.5703940
  28.5650010 109.3929420  99.9146920  26.0415360 114.2478600  93.6771490
  25.1005500 114.2628830  93.8519180  26.3559430 113.4614560  94.1231790
  16.0197000 115.9298200  87.2375450  16.7860270 115.8179560  87.8000880
  16.0971690 115.2336170  86.5852220  14.7143760 113.3623270  87.9208340
  14.7947350 112.4150780  88.0325740  15.6063510 113.6930150  88.0269000
  28.0440940 121.4187450  95.3525750  28.1688360 122.2418620  95.8249560
  28.9106500 121.2078180  95.0049900  15.5158470 123.5118660  95.0242880
  16.2520950 122.9634120  95.2951450  15.8999390 124.3774670  94.8848870
  12.4003950 119.5792230  90.8984390  11.4743730 119.8213370  90.8889800
  12.8660380 120.4066490  90.7769140  14.5216750 122.6964730 104.2128460
  15.3229480 123.0176780 104.6263860  14.0068570 122.3360310 104.9348370
  18.6260780 122.6848970  86.8468450  19.4189390 122.9737800  86.3950240
  18.1065130 122.2541140  86.1680930  23.3581380 118.8044600 104.1603870
  22.7519540 118.8276200 103.4199620  23.0535490 118.0727640 104.6971120
  24.7881750 122.5324890 102.7713280  25.7403500 122.4482910 102.7213520
  24.6409970 123.1966600 103.4447070  27.6790950 121.9119100  88.2705190
  27.3932460 121.4984240  87.4559370  27.4810500 122.8406810  88.1505710
  12.2414560 115.1838190 103.1564510  12.7453580 114.6045470 103.7280740
  11.5021980 115.4678420 103.6940880  19.1438180 117.9052380  86.7110800
  19.0388820 117.2904730  87.4372180  18.9762400 117.3818270  85.9273810
  19.2952500 116.5909180 102.6900030  18.5298170 117.1594180 102.6054700
  19.4768460 116.2985390 101.7968260  22.3840910 116.9672410  87.3152790
  21.8351010 117.4141710  87.9595530  23.0060170 116.4621660  87.8390460
  26.4375850 118.3214510 103.2475050  27.1785320 118.6590270 102.7442510
  25.6748530 118.4906570 102.6944820  14.2737640 113.3267780 104.0514580
  14.3142980 113.0281650 104.9599810  15.1283140 113.7275390 103.8922100
  18.0516030 115.9263330  89.2118090  18.4732450 115.7603200  90.0549480
  18.1766870 115.1163560  88.7173230  16.2143450 111.9059880 102.0189070
  15.6839910 111.4150830 101.3912410  16.8831520 112.3344080 101.4847000
  20.5643670 114.9500940  86.4595190  21.0849330 114.2349960  86.0936340
  21.2112070 115.5886810  86.7595700  25.1121510 116.3729340 101.7830260
  25.5262530 116.5274420 102.6320680  24.1772510 116.4984560 101.9456040
  25.5843680 113.7125500 103.7869410  26.1664450 112.9577820 103.6989890
  25.7605450 114.2432940 103.0100890  16.7015750 108.8722250 102.0986360
  16.6072620 108.2543000 101.3737230  16.1213140 109.5988540 101.8716270
  19.4677190 107.4295490  99.1313750  19.0194490 107.4519750  98.2859300
  18.8342390 107.0314510  99.7284050  19.8736740 116.3249820  99.7526190
  20.2924850 117.1682550  99.5802430  18.9545370 116.4621860  99.5232970
  22.2100640 114.0566000 101.1364030  22.3296850 113.4607140 101.8758870
  23.0694640 114.0935690 100.7165330  24.5488540 114.6103190  99.7126540
  24.0223760 115.1345810  99.1091680  24.8919880 115.2430580 100.3436270
  16.9474930 111.9996560  86.1576250  16.7463990 111.1363920  86.5189590
  16.7766980 111.9129920  85.2197850  17.7244160 122.6302830 100.8683920
  17.1865250 123.3548890 100.5492620  17.9778120 122.1533170 100.0781260
  18.9769410 110.5987350 102.3939850  19.5669100 110.2903200 103.0817670
  18.1589650 110.1267100 102.5499750  23.7962840 110.2153160 102.6272870
  23.1078360 109.5534700 102.5622860  24.5168860 109.7691430 103.0721330
  24.4263240 106.8104790  88.6863130  24.7065530 105.9672690  89.0422550
  23.6528970 107.0427900  89.2001880  15.7457730 109.0997180  86.1454130
  16.0483630 109.1064610  85.2373280  16.4852320 108.7495040  86.6421790
  20.5806370 123.8654040 101.1270570  20.5065070 124.7689180 101.4342940
  19.6785210 123.5465940 101.0992640  18.9642660 108.0431800  87.1310330
  18.6164660 107.3655790  86.5512780  19.1655430 107.5821310  87.9453720
  21.1291700 123.0312550  88.7496930  22.0242490 123.3697520  88.7715690
  21.1609330 122.3091960  88.1221210  14.7687860 118.4039600  86.9783930
  15.2062730 118.9469270  87.6341510  15.2535590 117.5786550  86.9880270
  11.9833660 121.1928630  94.4304190  12.3136670 120.3249690  94.1982830
  12.4124660 121.3987150  95.2609150  16.5795580 119.5237640  92.0906160
  16.2791120 119.4002610  92.9910070  16.4733070 118.6646230  91.6821890
  12.4723870 122.0599220  97.1685820  12.0354860 122.2400020  98.0009970
  13.0401550 122.8173840  97.0267540  28.1086050 121.5616220 101.4563130
  27.5088040 121.6208780 100.7127050  28.2379950 120.6221200 101.5859980
  29.3487500 119.3034040  86.7932840  28.5180460 119.3710690  87.2640070
  29.5259330 120.1938160  86.4899700  28.8043960 116.0481520  89.2967040
  29.5662870 116.6178170  89.4026730  28.8198330 115.4808720  90.0675350
  12.3048300 114.5719450  93.5274700  11.6497140 114.3031090  92.8834400
  13.1426250 114.4623930  93.0776680  29.8103930 116.9031620  94.1408970
  30.1812760 116.1198940  93.7344940  30.4505860 117.5920720  93.9626270
  26.7937690 118.2868200  99.5539290  25.9797530 118.7165360  99.8165080
  27.2011890 118.8986610  98.9408340  28.8563130 116.3415890  86.4539560
  29.1311970 117.2494770  86.3258780  28.6673870 116.2778420  87.3901550
  25.2538740 109.3660740  87.7493190  25.6723620 109.1791720  86.9089850
  24.9474800 108.5139790  88.0596120  28.7528470 114.2784880  91.4468990
  28.3772070 113.5112810  91.0150280  28.0231590 114.6607580  91.9343920
  13.3424230 114.9572020  98.0678040  13.7097270 114.8699420  98.9474060
  12.7735050 114.1938570  97.9684900  28.1428090 113.4256400 101.0808510
  27.9114180 113.1969150 100.1806460  28.4032640 114.3455950 101.0353400
  12.8940230 111.8681110 101.9736460  11.9996280 111.8347870 102.3130170
  13.4337780 112.0667900 102.7387710  26.5816160 108.6512830 103.8588210
  27.4586340 108.6596230 104.2422210  26.5937000 107.9143670 103.2480560
  11.5186380 111.7818380  89.4700030  10.6150460 112.0448580  89.2951690
  12.0027000 112.0529550  88.6899990  28.0279430 112.5042370  94.7476230
  28.5516910 112.0105020  94.1166400  28.6138850 112.6392730  95.4923800
  28.2069150 112.5882240  98.2695780  27.2571860 112.5545780  98.3840770
  28.3882160 113.4982350  98.0345550  14.0613590 110.8383920  87.3794410
  14.7705290 110.4167140  86.8941690  13.3453530 110.9059150  86.7477760
  13.7087750 106.8923250  86.4197060  14.4315880 107.4332190  86.7378280
  13.9812270 106.6186670  85.5438600  27.5179400 111.7615720  90.6868640
  28.0138520 111.5286590  91.4717520  27.3195470 110.9227560  90.2706280
  13.3979940 106.1429440  96.3219680  14.0456130 105.5926820  95.8814840
  13.8181780 106.3972590  97.1435490  28.9466560 110.3976670  93.2206320
  28.8365840 110.2432710  94.1588590  29.7074150 109.8697610  92.9781730
  27.2932280 106.3370800  99.6789320  27.9304500 106.9504940 100.0448510
  27.4407170 106.3731460  98.7338550  29.8356830 108.2284590  86.4612460
  30.7606140 108.0965770  86.2530750  29.8132620 108.3077410  87.4148910
  29.9095320 108.9995250  89.0869170  29.1146820 108.9340370  89.6162080
  30.1138600 109.9345890  89.0754520  26.8513740 123.0386800  93.0807560
  27.4472810 122.7171370  92.4041980  27.1091890 122.5658620  93.8720830
  13.1511940 106.2985110  99.0645000  12.8026760 106.7548930  99.8303180
  12.8199640 105.4042240  99.1467430  14.7576310 119.4704710 103.2298190
  14.7145940 119.0997620 104.1112650  14.8887320 120.4082280 103.3700010
  18.4582340 121.0264300  98.8307910  18.2173700 121.2938860  97.9438430
  19.3984980 121.1970030  98.8858770  20.6636760 107.4896990 102.5864420
  20.6025650 108.0818820 103.3359830  21.6037140 107.3822950 102.4414680
  23.3011320 107.1467050 102.2256710  23.9151730 107.4646340 101.5637790
  23.8460880 106.6615640 102.8452570  29.7186500 123.0458680  99.6318550
  29.2244780 123.4427550  98.9145680  29.1099790 122.4207890 100.0255830
  13.8232580 105.8261310 102.3395770  14.3715570 105.6449360 101.5761880
  13.8887890 105.0355420 102.8752080  14.5964340 122.4166960 100.3495970
  14.0024660 122.2851660 101.0886010  14.5888180 121.5805100  99.8838070
  24.0419360 105.7099190  98.5526000  23.1679200 106.0434300  98.3498930
  23.9330110 105.2372370  99.3777870  24.9491340 107.9170060  99.9367720
  24.6204700 107.1021820  99.5569450  25.8973640 107.8739870  99.8133410
  27.4025950 123.6882100  96.9105290  26.9428920 124.4397910  96.5363310
  26.7738410 122.9688570  96.8520090  14.2276570 119.7825340  99.3004010
  13.5010630 119.1630630  99.2329960  14.2885720 120.1765950  98.4302090
  17.8321670 121.9970340  96.0853420  18.3486690 121.3857700  95.5601680
  18.4819050 122.4999120  96.5764430  20.5717170 122.8878830  96.9122400
  20.8594980 122.6333130  96.0355410  21.0840390 122.3356190  97.5027970
  21.7894180 106.6269030  97.4918910  21.0065970 107.1014530  97.7715670
  21.4957110 105.7223860  97.3832090  26.3415250 107.3292130  95.5368000
  26.7823340 107.2737230  94.6889600  26.0722840 108.2450140  95.6078180
  28.2053820 106.9607370  93.5476820  28.1442220 106.0168590  93.4007840
  28.9845850 107.0687460  94.0930280  12.5106570 123.0999730  92.5100770
  12.3428610 122.4670410  93.2082660  11.6441080 123.3059130  92.1594960
  13.1334590 106.9316510  90.0132630  13.8913950 107.0445390  89.4396660
  12.6711760 107.7685710  89.9676060  19.6748400 109.0455780  93.0034940
  18.8622910 108.6712670  92.6630820  20.1790040 108.2900860  93.3056130
  24.1773380 105.7098230  94.2418010  24.7802750 106.2818440  94.7166530
  23.4366370 106.2737670  94.0191910  27.3207980 106.1119790  89.5158290
  27.5158610 107.0103240  89.7825720  26.5337850 105.8806870  90.0091240
  14.1169270 121.7932960  89.9550910  13.5916890 122.1740990  89.2512870
  14.0413850 122.4183730  90.6760620  15.5059740 107.4580560  88.5534600
  16.0352500 106.6710360  88.4242550  16.1388060 108.1371750  88.7870130
  17.6997580 107.1955700  91.6079990  17.0700320 106.4943010  91.7750120
  17.1602720 107.9559830  91.3913150  20.6389530 123.8094930 104.2790600
  21.5656840 123.5739200 104.3226560  20.6239960 124.6366930 103.7976630
  28.8734590 123.3520500  91.2764850  29.0486780 122.6658240  90.6325770
  28.1756160 123.8767550  90.8841520  17.8253140 106.4739680 104.0432480
  17.5437410 106.9773280 103.2793300  18.2072840 105.6761430 103.6774610
  16.7162240 123.7415340  88.8300160  17.4481060 123.4574620  88.2824050
  16.9755910 123.5028620  89.7199540  15.8777030 119.8580070  88.8346490
  15.2485910 120.3265170  89.3832320  15.9924860 119.0129290  89.2692680
  27.2067090 123.0364790 104.1031640  27.9992410 122.5414020 103.8957600
  27.5000240 123.7154930 104.7107250  23.3326750 113.9085730  74.9847690
  23.2520800 112.9940340  74.7139400  22.9191170 114.4052800  74.2787400
  21.4644790 115.6864750  76.8656960  20.6886890 115.2065190  77.1555530
  22.1157720 115.0070400  76.6913120  15.4810620 115.9984560  77.7432720
  14.6495500 115.7433270  78.1429230  16.0891600 116.0695330  78.4790640
  25.4852220 120.0924940  75.6456090  25.0233750 119.3212180  75.9743260
  26.2977770 120.1191010  76.1508540  15.4611880 120.0324650  77.9390740
  15.7639920 119.1422390  77.7600960  16.2055470 120.5894870  77.7112990
  13.8902570 110.9586450  71.5275110  13.0019270 111.3002420  71.4254990
  14.1743760 110.7586770  70.6355940  11.8535580 113.5592100  77.4114810
  12.4251690 112.7914300  77.4118450  11.8537120 113.8580860  76.5021420
  21.7115530 122.3782950  75.2660080  21.0926970 122.8340450  74.6954520
  22.5667310 122.5334410  74.8649780  20.9053780 118.3621940  76.8727120
  20.8362060 117.4211880  76.7116250  21.6673640 118.4523350  77.4449690
  13.0960450 108.9676460  79.1983740  12.9163290 108.0702210  79.4786500
  12.6940530 109.5148330  79.8730690  21.9358950 111.1692320  77.0996050
  22.3123770 110.2964200  76.9869720  21.8378460 111.5051020  76.2086490
  16.0663960 109.5417950  72.5613490  16.1730710 110.4421680  72.8682250
  15.1556320 109.4935920  72.2708140  25.7183070 108.6642760  74.0324390
  26.5392690 108.1739330  74.0749870  25.7517150 109.2540420  74.7856230
  13.7147120 111.4636960  77.8066080  14.3957230 111.7275330  78.4253480
  13.3995170 110.6237830  78.1404090  17.9071690 112.5104320  76.8938670
  18.4149910 113.0085290  77.5343690  18.4384930 111.7339520  76.7178030
  30.0082620 110.6809510  80.5968020  29.3034790 111.0691220  80.0783130
  30.2740540 111.3759800  81.1988950  16.1907790 107.1502880  81.1602090
  16.1926230 107.6675270  80.3547990  15.3612100 106.6733060  81.1372020
  22.5778880 117.2622190  72.6591990  21.9596150 117.7271640  72.0954710
  23.0902130 117.9549670  73.0761500  17.4410640 116.7898060  79.3375590
  17.1080020 117.4166980  79.9796660  17.6177320 117.3159940  78.5577260
  25.9544550 110.6043140  76.8051930  25.2500120 110.8928030  77.3855040
  26.3156710 111.4143250  76.4451490  15.8723120 108.8612840  79.1672540
  16.2139930 109.7054890  78.8726410  14.9338930 109.0096580  79.2837880
  16.6529740 118.7578860  81.1524770  17.2703740 119.4329940  80.8709220
  15.7922860 119.1666840  81.0612270  11.9462080 117.9478720  70.0331620
  11.5690060 118.4365820  69.3016520  12.2035150 118.6204000  70.6638150
  27.5707330 120.2218270  79.0679410  26.8870850 120.8917380  79.0596080
  28.1101620 120.4198920  78.3024270  29.0231470 110.0497930  77.1961140
  28.0756380 110.0836910  77.3276570  29.3481460 110.8636880  77.5810500
  19.5551010 106.3495110  75.4917130  19.8625990 105.7942000  74.7752630
  18.6251710 106.4839570  75.3090120  25.1066070 122.0662400  77.7824590
  25.1193230 121.6624690  76.9146850  24.5541290 122.8409690  77.6786020
  26.4011490 118.7878620  72.8714760  26.2907820 117.8452950  72.9964180
  26.3979740 119.1494260  73.7577520  24.5051510 116.9692240  79.1107200
  24.9220300 116.7552350  78.2760660  25.2291330 117.2265030  79.6815820
  21.9431770 114.4143940  72.2277250  21.0161050 114.3481320  72.4565720
  22.0956590 115.3524070  72.1132490  21.9300850 110.6860940  69.2244410
  20.9904520 110.8474900  69.3096870  22.2484110 111.4046620  68.6780400
  28.4513610 115.3679460  79.2023440  27.6232240 115.4372550  78.7273570
  29.0464090 115.9533770  78.7339270  25.9729060 115.9764240  72.7312500
  25.3541480 115.6383790  72.0838800  25.9553510 115.3324000  73.4391690
  25.4155620 112.1548780  80.1478310  25.0026800 112.9802490  80.4018300
  24.6831570 111.5693820  79.9554670  17.5488410 114.9408680  75.0096980
  17.1445410 114.2285930  74.5142880  17.6351530 114.5961920  75.8985020
  18.0170110 118.6276240  77.1736190  17.7198400 118.0221710  76.4943970
  18.9669930 118.6653550  77.0625550  16.2617030 111.7151890  78.7896020
  16.8131620 111.8247230  78.0149270  16.7760540 112.0889490  79.5051250
  26.1055720 122.2008110  80.8359290  25.6286280 123.0080300  80.6431900
  25.4217510 121.5486440  80.9885500  17.1088540 118.3657930  83.8243990
  16.2117070 118.5897900  84.0717390  17.1341410 118.4892870  82.8755390
  15.9359760 115.2371250  82.4001360  15.7967530 116.1094050  82.7688760
  15.0541120 114.8944060  82.2549300  22.2589140 120.1547120  73.7066490
  22.6985050 120.8971450  73.2921880  22.1976030 120.3973690  74.6305450
  17.7340110 121.1792950  84.6086510  17.7055540 121.5835900  83.7414940
  17.5705080 120.2503310  84.4458110  27.7310900 106.4693860  68.0526290
  27.4183560 106.5620690  68.9525360  28.4923370 107.0474890  68.0023720
  14.2493040 113.8353660  72.5103630  14.1290640 114.5615750  71.8984900
  13.9393930 113.0656570  72.0331540  29.6854930 121.9620050  85.9050680
  30.1614650 122.4402940  86.5839760  30.3062090 121.8937540  85.1796180
  11.8878410 117.0068800  78.3172270  11.9658830 117.1417570  77.3727990
  12.5020090 116.2984690  78.5100390  13.1326040 118.7068990  74.7278450
  12.7254120 118.8483580  73.8732050  14.0239050 118.4229150  74.5249660
  29.0888180 119.1532900  83.0650690  29.2151240 118.9144780  82.1467870
  29.1309560 118.3217440  83.5372770  22.9504920 122.8560900  81.6345500
  23.4649590 122.7668910  82.4367930  22.1074000 123.2020600  81.9273410
  24.9259320 123.1416240  71.0629500  24.7660460 122.8519180  71.9611330
  24.7606030 122.3656370  70.5274730  17.4047700 122.9214770  72.8401120
  17.2290180 122.0050310  72.6268920  16.5503440 123.2802060  73.0798920
  24.6285450 120.6503800  69.6227500  23.9350610 120.6481090  68.9629780
  25.3708310 120.2263120  69.1921670  24.1935380 122.2766510  73.6975990
  24.6492330 121.4955890  74.0114610  24.5327900 122.9873330  74.2417170
  28.9412190 111.2065360  84.0300430  28.3256460 111.7145030  83.5015890
  28.6208610 110.3063690  83.9726370  11.9437930 118.0482970  80.8566730
  12.1068970 117.5788330  80.0386100  12.4090380 117.5406530  81.5215570
  16.7156700 107.1788730  75.8927300  16.2724850 107.9598270  75.5611820
  17.2741690 107.5018620  76.5998240  21.0026510 110.0457250  81.4962620
  20.5405880 110.2540270  82.3082560  20.6004620 109.2316600  81.1933290
  26.0031020 111.2666200  82.6259280  25.1524610 110.9671950  82.9468350
  25.8432810 111.5108210  81.7143100  23.0980730 112.7667950  84.7258070
  23.4234140 111.9331700  84.3860300  23.8861060 113.2896470  84.8736400
  19.8315520 106.7999430  70.7733130  19.2069700 106.7959300  71.4986440
  19.7445640 105.9330390  70.3769100  18.7532600 107.7236060  77.7516900
  19.0504930 108.6298890  77.6708920  19.3018160 107.2354840  77.1376470
  16.5070920 112.3022300  73.6208550  16.2811840 112.0859470  74.5255170
  15.7263450 112.7350760  73.2754520  18.9470130 113.2007880  84.2868820
  18.8513730 112.2602610  84.1369220  19.7902110 113.4222950  83.8916890
  22.3433550 110.9449210  74.2502480  22.7363120 111.2621410  73.4371170
  22.7050400 110.0661090  74.3647000  14.0780670 109.6121550  82.4402600
  13.6844060 110.4596760  82.6475380  13.3899070 108.9747920  82.6311240
  20.6525720 109.6956520  85.5099340  19.9624040 109.5028720  86.1445430
  21.3958020 109.9791160  86.0423640  11.3797720 107.5350010  76.4732680
  11.0910770 108.1052870  77.1857660  12.1243480 107.0554460  76.8363910
  11.5667950 111.4770130  67.6835400  11.4842620 112.4200890  67.8250390
  11.2151010 111.3345040  66.8047750  22.9288690 113.5354960  78.3453260
  22.1969810 114.0441770  78.6943360  22.5313030 112.7184940  78.0442040
  19.3666080 110.2109160  76.7505750  19.3702140 109.7699110  75.9010290
  20.2617200 110.5326490  76.8577570  15.2168460 110.0935650  75.7099960
  14.8768510 110.5710880  76.4667010  14.4545780 109.6400770  75.3501060
  19.4286230 111.2121240  69.7412510  19.5499050 111.1707720  70.6898330
  19.0434740 112.0745390  69.5859240  23.3914600 108.9888640  77.7576200
  23.4087340 109.4397290  78.6018050  23.1430180 108.0894280  77.9709640
  18.4407730 113.5222380  69.1395810  17.8724630 113.0740630  68.5131720
  19.1496730 113.8815160  68.6060960  26.8185350 106.4020820  83.5962580
  27.1431120 105.6710480  84.1220560  26.8541860 106.0834460  82.6943570
  13.5176910 117.4234400  83.0162540  13.1331700 116.7828070  83.6145500
  13.8289100 118.1270520  83.5857270  19.6674050 114.2710940  78.4971160
  20.0344180 113.7969510  79.2432500  19.4779110 115.1452510  78.8379500
  12.5314540 109.0154630  74.6264630  12.2461460 108.6510300  75.4643250
  12.4693400 108.2835090  74.0127770  17.4573420 113.3119580  80.8155370
  17.1530490 114.1911560  81.0405730  18.4119880 113.3719370  80.8512810
  15.9855210 117.5180570  71.4122220  15.2117470 116.9778190  71.2520940
  16.7149840 116.9987180  71.0739980  26.7443190 116.5145930  77.2048610
  27.4642310 117.0101220  76.8144720  26.5425010 115.8363820  76.5602480
  22.2053130 107.9083890  71.3478000  21.3917740 107.4097060  71.2723310
  22.0115080 108.7482140  70.9314350  22.1261990 116.5854990  83.0917610
  22.0599300 115.6650660  82.8375200  21.4967130 116.6830430  83.8062250
  16.0292610 117.1860950  75.0501030  16.5471280 116.3829210  74.9957920
  15.5776630 117.1240090  75.8917860  20.9162110 118.4527230  70.3228330
  21.2577810 119.1969460  69.8271650  20.0874820 118.7658350  70.6853160
  13.5137150 114.1522320  81.9626730  13.1552090 114.8176170  82.5500070
  13.2191710 113.3205870  82.3339350  16.7150270 114.6106560  84.8466280
  16.4150410 114.7563740  83.9494100  17.4861510 114.0511850  84.7539670
  22.0578720 119.4075560  82.8421410  22.0723260 118.4756520  82.6240320
  21.3503820 119.4935320  83.4811180  28.2689930 116.0482900  82.1889990
  27.5438120 116.6411680  81.9919380  28.7965390 116.0406440  81.3903360
  28.2203040 120.4457640  71.8402150  27.5779200 119.7913260  72.1145870
  27.8333700 120.8512730  71.0642820  23.7989520 117.7743070  75.6873840
  24.1513340 117.1771200  75.0275210  22.9151850 117.4487300  75.8582090
  19.8852800 118.5340760  73.0944250  20.5723930 119.0809970  73.4751840
  19.0985220 119.0781490  73.1293860  12.0245200 114.1513580  68.5861330
  12.8940050 114.4338380  68.8697250  11.5335520 114.9649450  68.4710140
  19.1880010 115.5386790  72.7069610  19.6442790 116.3492040  72.9329800
  18.8368220 115.2209930  73.5388100  21.4912620 121.0493130  79.9361910
  22.1354840 121.2552510  80.6135330  21.8542060 120.2881530  79.4832760
  15.0891790 105.8824440  73.1792130  14.9606420 105.8742340  74.1277050
  14.2653810 106.2207530  72.8283140  22.7644700 119.0525480  78.6539360
  23.4066930 118.3518640  78.7671530  23.2894050 119.8323920  78.4736250
  26.6100420 119.3374100  68.3778500  26.3838000 118.6204540  68.9703140
  26.2196620 119.0886540  67.5400250  24.5382320 119.8520380  81.8575420
  24.8738560 120.4387070  82.5353340  23.6182660 119.7213090  82.0873210
  12.3916450 123.3640960  69.1522960  12.7514090 123.9630300  68.4980230
  12.2508790 123.9100850  69.9257990  12.0885720 107.6415560  82.6398830
  11.3744240 107.8412480  83.2451440  12.5080760 106.8655130  83.0113630
  12.3758310 121.6295820  83.6265360  12.4849430 120.6890560  83.4860750
  11.7238870 121.8950570  82.9779090  20.3670900 119.9011710  85.0263480
  20.0467770 119.1820950  85.5709170  19.6929260 120.5766780  85.0999540
  18.4085070 120.7472160  69.9696630  18.3995170 121.4801850  69.3541140
  17.4883430 120.5003740  70.0623590  14.0091710 115.9687050  70.7143390
  13.4019660 116.7085950  70.7238690  14.4841060 116.0586410  69.8881590
  23.5824500 110.1337870  80.3900280  23.9505320 109.3133080  80.7179850
  22.7222700 110.1939760  80.8055930  21.3944670 120.8100400  68.6321820
  21.4956650 120.6064390  67.7023800  20.4946410 120.5558680  68.8369600
  18.9170560 111.3680760  72.6145720  18.2086710 111.8367100  73.0559330
  19.2015040 110.7102770  73.2490910  20.5426490 112.7877460  80.6138250
  21.0411740 113.2623280  81.2790100  20.6849440 111.8640980  80.8208280
  22.9485990 108.0931420  74.0541510  22.8253770 108.1117550  73.1051020
  23.8970550 108.1410360  74.1739910  20.0362780 123.3286720  73.3269490
  20.2904280 123.2908110  72.4048860  19.0875260 123.2020050  73.3197740
  17.1205580 109.6765840  69.9896430  17.9696110 110.1135990  69.9236620
  16.7536850 109.9886100  70.8168490  27.7493350 109.0045420  81.4566640
  27.2466950 109.7450820  81.7960450  28.5650010 109.3929420  81.1403430
  26.0415360 114.2478600  74.9028000  25.1005500 114.2628830  75.0775690
  26.3559430 113.4614560  75.3488300  16.0197000 115.9298200  68.4631960
  16.7860270 115.8179560  69.0257390  16.0971690 115.2336170  67.8108730
  14.7143760 113.3623270  69.1464850  14.7947350 112.4150780  69.2582250
  15.6063510 113.6930150  69.2525510  28.0440940 121.4187450  76.5782260
  28.1688360 122.2418620  77.0506070  28.9106500 121.2078180  76.2306410
  15.5158470 123.5118660  76.2499390  16.2520950 122.9634120  76.5207960
  15.8999390 124.3774670  76.1105380  12.4003950 119.5792230  72.1240900
  11.4743730 119.8213370  72.1146310  12.8660380 120.4066490  72.0025650
  14.5216750 122.6964730  85.4384970  15.3229480 123.0176780  85.8520370
  14.0068570 122.3360310  86.1604880  18.6260780 122.6848970  68.0724960
  19.4189390 122.9737800  67.6206750  18.1065130 122.2541140  67.3937440
  23.3581380 118.8044600  85.3860380  22.7519540 118.8276200  84.6456130
  23.0535490 118.0727640  85.9227630  24.7881750 122.5324890  83.9969790
  25.7403500 122.4482910  83.9470030  24.6409970 123.1966600  84.6703580
  27.6790950 121.9119100  69.4961700  27.3932460 121.4984240  68.6815880
  27.4810500 122.8406810  69.3762220  12.2414560 115.1838190  84.3821020
  12.7453580 114.6045470  84.9537250  11.5021980 115.4678420  84.9197390
  19.1438180 117.9052380  67.9367310  19.0388820 117.2904730  68.6628690
  18.9762400 117.3818270  67.1530320  19.2952500 116.5909180  83.9156540
  18.5298170 117.1594180  83.8311210  19.4768460 116.2985390  83.0224770
  22.3840910 116.9672410  68.5409300  21.8351010 117.4141710  69.1852040
  23.0060170 116.4621660  69.0646970  26.4375850 118.3214510  84.4731560
  27.1785320 118.6590270  83.9699020  25.6748530 118.4906570  83.9201330
  14.2737640 113.3267780  85.2771090  14.3142980 113.0281650  86.1856320
  15.1283140 113.7275390  85.1178610  18.0516030 115.9263330  70.4374600
  18.4732450 115.7603200  71.2805990  18.1766870 115.1163560  69.9429740
  16.2143450 111.9059880  83.2445580  15.6839910 111.4150830  82.6168920
  16.8831520 112.3344080  82.7103510  20.5643670 114.9500940  67.6851700
  21.0849330 114.2349960  67.3192850  21.2112070 115.5886810  67.9852210
  25.1121510 116.3729340  83.0086770  25.5262530 116.5274420  83.8577190
  24.1772510 116.4984560  83.1712550  25.5843680 113.7125500  85.0125920
  26.1664450 112.9577820  84.9246400  25.7605450 114.2432940  84.2357400
  16.7015750 108.8722250  83.3242870  16.6072620 108.2543000  82.5993740
  16.1213140 109.5988540  83.0972780  19.4677190 107.4295490  80.3570260
  19.0194490 107.4519750  79.5115810  18.8342390 107.0314510  80.9540560
  19.8736740 116.3249820  80.9782700  20.2924850 117.1682550  80.8058940
  18.9545370 116.4621860  80.7489480  22.2100640 114.0566000  82.3620540
  22.3296850 113.4607140  83.1015380  23.0694640 114.0935690  81.9421840
  24.5488540 114.6103190  80.9383050  24.0223760 115.1345810  80.3348190
  24.8919880 115.2430580  81.5692780  16.9474930 111.9996560  67.3832760
  16.7463990 111.1363920  67.7446100  16.7766980 111.9129920  66.4454360
  17.7244160 122.6302830  82.0940430  17.1865250 123.3548890  81.7749130
  17.9778120 122.1533170  81.3037770  18.9769410 110.5987350  83.6196360
  19.5669100 110.2903200  84.3074180  18.1589650 110.1267100  83.7756260
  23.7962840 110.2153160  83.8529380  23.1078360 109.5534700  83.7879370
  24.5168860 109.7691430  84.2977840  15.7457730 109.0997180  67.3710640
  16.0483630 109.1064610  66.4629790  16.4852320 108.7495040  67.8678300
  20.5806370 123.8654040  82.3527080  20.5065070 124.7689180  82.6599450
  19.6785210 123.5465940  82.3249150  18.9642660 108.0431800  68.3566840
  18.6164660 107.3655790  67.7769290  19.1655430 107.5821310  69.1710230
  21.1291700 123.0312550  69.9753440  22.0242490 123.3697520  69.9972200
  21.1609330 122.3091960  69.3477720  14.7687860 118.4039600  68.2040440
  15.2062730 118.9469270  68.8598020  15.2535590 117.5786550  68.2136780
  11.9833660 121.1928630  75.6560700  12.3136670 120.3249690  75.4239340
  12.4124660 121.3987150  76.4865660  16.5795580 119.5237640  73.3162670
  16.2791120 119.4002610  74.2166580  16.4733070 118.6646230  72.9078400
  12.4723870 122.0599220  78.3942330  12.0354860 122.2400020  79.2266480
  13.0401550 122.8173840  78.2524050  28.1086050 121.5616220  82.6819640
  27.5088040 121.6208780  81.9383560  28.2379950 120.6221200  82.8116490
  29.3487500 119.3034040  68.0189350  28.5180460 119.3710690  68.4896580
  29.5259330 120.1938160  67.7156210  12.3048300 114.5719450  74.7531210
  11.6497140 114.3031090  74.1090910  13.1426250 114.4623930  74.3033190
  29.8103930 116.9031620  75.3665480  30.1812760 116.1198940  74.9601450
  30.4505860 117.5920720  75.1882780  26.7937690 118.2868200  80.7795800
  25.9797530 118.7165360  81.0421590  27.2011890 118.8986610  80.1664850
  25.2538740 109.3660740  68.9749700  25.6723620 109.1791720  68.1346360
  24.9474800 108.5139790  69.2852630  13.3424230 114.9572020  79.2934550
  13.7097270 114.8699420  80.1730570  12.7735050 114.1938570  79.1941410
  28.1428090 113.4256400  82.3065020  27.9114180 113.1969150  81.4062970
  28.4032640 114.3455950  82.2609910  12.8940230 111.8681110  83.1992970
  11.9996280 111.8347870  83.5386680  13.4337780 112.0667900  83.9644220
  26.5816160 108.6512830  85.0844720  27.4586340 108.6596230  85.4678720
  26.5937000 107.9143670  84.4737070  11.5186380 111.7818380  70.6956540
  10.6150460 112.0448580  70.5208200  12.0027000 112.0529550  69.9156500
  28.0279430 112.5042370  75.9732740  28.5516910 112.0105020  75.3422910
  28.6138850 112.6392730  76.7180310  28.2069150 112.5882240  79.4952290
  27.2571860 112.5545780  79.6097280  28.3882160 113.4982350  79.2602060
  14.0613590 110.8383920  68.6050920  14.7705290 110.4167140  68.1198200
  13.3453530 110.9059150  67.9734270  13.7087750 106.8923250  67.6453570
  14.4315880 107.4332190  67.9634790  13.9812270 106.6186670  66.7695110
  13.3979940 106.1429440  77.5476190  14.0456130 105.5926820  77.1071350
  13.8181780 106.3972590  78.3692000  28.9466560 110.3976670  74.4462830
  28.8365840 110.2432710  75.3845100  29.7074150 109.8697610  74.2038240
  27.2932280 106.3370800  80.9045830  27.9304500 106.9504940  81.2705020
  27.4407170 106.3731460  79.9595060  29.9095320 108.9995250  70.3125680
  29.1146820 108.9340370  70.8418590  30.1138600 109.9345890  70.3011030
  26.8513740 123.0386800  74.3064070  27.4472810 122.7171370  73.6298490
  27.1091890 122.5658620  75.0977340  13.1511940 106.2985110  80.2901510
  12.8026760 106.7548930  81.0559690  12.8199640 105.4042240  80.3723940
  14.7576310 119.4704710  84.4554700  14.7145940 119.0997620  85.3369160
  14.8887320 120.4082280  84.5956520  18.4582340 121.0264300  80.0564420
  18.2173700 121.2938860  79.1694940  19.3984980 121.1970030  80.1115280
  20.6636760 107.4896990  83.8120930  20.6025650 108.0818820  84.5616340
  21.6037140 107.3822950  83.6671190  23.3011320 107.1467050  83.4513220
  23.9151730 107.4646340  82.7894300  23.8460880 106.6615640  84.0709080
  29.7186500 123.0458680  80.8575060  29.2244780 123.4427550  80.1402190
  29.1099790 122.4207890  81.2512340  13.8232580 105.8261310  83.5652280
  14.3715570 105.6449360  82.8018390  13.8887890 105.0355420  84.1008590
  14.5964340 122.4166960  81.5752480  14.0024660 122.2851660  82.3142520
  14.5888180 121.5805100  81.1094580  24.0419360 105.7099190  79.7782510
  23.1679200 106.0434300  79.5755440  23.9330110 105.2372370  80.6034380
  24.9491340 107.9170060  81.1624230  24.6204700 107.1021820  80.7825960
  25.8973640 107.8739870  81.0389920  27.4025950 123.6882100  78.1361800
  26.9428920 124.4397910  77.7619820  26.7738410 122.9688570  78.0776600
  14.2276570 119.7825340  80.5260520  13.5010630 119.1630630  80.4586470
  14.2885720 120.1765950  79.6558600  17.8321670 121.9970340  77.3109930
  18.3486690 121.3857700  76.7858190  18.4819050 122.4999120  77.8020940
  20.5717170 122.8878830  78.1378910  20.8594980 122.6333130  77.2611920
  21.0840390 122.3356190  78.7284480  21.7894180 106.6269030  78.7175420
  21.0065970 107.1014530  78.9972180  21.4957110 105.7223860  78.6088600
  26.3415250 107.3292130  76.7624510  26.7823340 107.2737230  75.9146110
  26.0722840 108.2450140  76.8334690  12.5106570 123.0999730  73.7357280
  12.3428610 122.4670410  74.4339170  11.6441080 123.3059130  73.3851470
  13.1334590 106.9316510  71.2389140  13.8913950 107.0445390  70.6653170
  12.6711760 107.7685710  71.1932570  19.6748400 109.0455780  74.2291450
  18.8622910 108.6712670  73.8887330  20.1790040 108.2900860  74.5312640
  14.1169270 121.7932960  71.1807420  13.5916890 122.1740990  70.4769380
  14.0413850 122.4183730  71.9017130  15.5059740 107.4580560  69.7791110
  16.0352500 106.6710360  69.6499060  16.1388060 108.1371750  70.0126640
  17.6997580 107.1955700  72.8336500  17.0700320 106.4943010  73.0006630
  17.1602720 107.9559830  72.6169660  20.6389530 123.8094930  85.5047110
  21.5656840 123.5739200  85.5483070  20.6239960 124.6366930  85.0233140
  28.8734590 123.3520500  72.5021360  29.0486780 122.6658240  71.8582280
  28.1756160 123.8767550  72.1098030  17.8253140 106.4739680  85.2688990
  17.5437410 106.9773280  84.5049810  18.2072840 105.6761430  84.9031120
  16.7162240 123.7415340  70.0556670  17.4481060 123.4574620  69.5080560
  16.9755910 123.5028620  70.9456050  15.8777030 119.8580070  70.0603000
  15.2485910 120.3265170  70.6088830  15.9924860 119.0129290  70.4949190
  24.4268600 105.8893260  85.8469460  24.3134050 106.2087870  86.7420980
  25.2438340 106.2905770  85.5506740  27.2067090 123.0364790  85.3288150
  27.9992410 122.5414020  85.1214110  27.5000240 123.7154930  85.9363760
  23.3326750 113.9085730  56.2104200  23.2520800 112.9940340  55.9395910
  22.9191170 114.4052800  55.5043910  21.4644790 115.6864750  58.0913470
  20.6886890 115.2065190  58.3812040  22.1157720 115.0070400  57.9169630
  15.4810620 115.9984560  58.9689230  14.6495500 115.7433270  59.3685740
  16.0891600 116.0695330  59.7047150  25.4852220 120.0924940  56.8712600
  25.0233750 119.3212180  57.1999770  26.2977770 120.1191010  57.3765050
  15.4611880 120.0324650  59.1647250  15.7639920 119.1422390  58.9857470
  16.2055470 120.5894870  58.9369500  13.8902570 110.9586450  52.7531620
  13.0019270 111.3002420  52.6511500  14.1743760 110.7586770  51.8612450
  11.8535580 113.5592100  58.6371320  12.4251690 112.7914300  58.6374960
  11.8537120 113.8580860  57.7277930  21.7115530 122.3782950  56.4916590
  21.0926970 122.8340450  55.9211030  22.5667310 122.5334410  56.0906290
  20.9053780 118.3621940  58.0983630  20.8362060 117.4211880  57.9372760
  21.6673640 118.4523350  58.6706200  13.0960450 108.9676460  60.4240250
  12.9163290 108.0702210  60.7043010  12.6940530 109.5148330  61.0987200
  21.9358950 111.1692320  58.3252560  22.3123770 110.2964200  58.2126230
  21.8378460 111.5051020  57.4343000  16.0663960 109.5417950  53.7870000
  16.1730710 110.4421680  54.0938760  15.1556320 109.4935920  53.4964650
  25.7183070 108.6642760  55.2580900  26.5392690 108.1739330  55.3006380
  25.7517150 109.2540420  56.0112740  13.7147120 111.4636960  59.0322590
  14.3957230 111.7275330  59.6509990  13.3995170 110.6237830  59.3660600
  17.9071690 112.5104320  58.1195180  18.4149910 113.0085290  58.7600200
  18.4384930 111.7339520  57.9434540  16.1907790 107.1502880  62.3858600
  16.1926230 107.6675270  61.5804500  15.3612100 106.6733060  62.3628530
  22.5778880 117.2622190  53.8848500  21.9596150 117.7271640  53.3211220
  23.0902130 117.9549670  54.3018010  17.4410640 116.7898060  60.5632100
  17.1080020 117.4166980  61.2053170  17.6177320 117.3159940  59.7833770
  15.8723120 108.8612840  60.3929050  16.2139930 109.7054890  60.0982920
  14.9338930 109.0096580  60.5094390  16.6529740 118.7578860  62.3781280
  17.2703740 119.4329940  62.0965730  15.7922860 119.1666840  62.2868780
  11.9462080 117.9478720  51.2588130  11.5690060 118.4365820  50.5273030
  12.2035150 118.6204000  51.8894660  27.5707330 120.2218270  60.2935920
  26.8870850 120.8917380  60.2852590  28.1101620 120.4198920  59.5280780
  19.5551010 106.3495110  56.7173640  19.8625990 105.7942000  56.0009140
  18.6251710 106.4839570  56.5346630  25.1066070 122.0662400  59.0081100
  25.1193230 121.6624690  58.1403360  24.5541290 122.8409690  58.9042530
  26.4011490 118.7878620  54.0971270  26.2907820 117.8452950  54.2220690
  26.3979740 119.1494260  54.9834030  24.5051510 116.9692240  60.3363710
  24.9220300 116.7552350  59.5017170  25.2291330 117.2265030  60.9072330
  21.9431770 114.4143940  53.4533760  21.0161050 114.3481320  53.6822230
  22.0956590 115.3524070  53.3389000  21.9300850 110.6860940  50.4500920
  20.9904520 110.8474900  50.5353380  22.2484110 111.4046620  49.9036910
  25.9729060 115.9764240  53.9569010  25.3541480 115.6383790  53.3095310
  25.9553510 115.3324000  54.6648200  17.5488410 114.9408680  56.2353490
  17.1445410 114.2285930  55.7399390  17.6351530 114.5961920  57.1241530
  18.0170110 118.6276240  58.3992700  17.7198400 118.0221710  57.7200480
  18.9669930 118.6653550  58.2882060  16.2617030 111.7151890  60.0152530
  16.8131620 111.8247230  59.2405780  16.7760540 112.0889490  60.7307760
  26.1055720 122.2008110  62.0615800  25.6286280 123.0080300  61.8688410
  25.4217510 121.5486440  62.2142010  17.1088540 118.3657930  65.0500500
  16.2117070 118.5897900  65.2973900  17.1341410 118.4892870  64.1011900
  24.1493760 115.2151050  50.9641760  24.5887040 114.3773480  50.8179580
  24.8622180 115.8480450  51.0505900  15.9359760 115.2371250  63.6257870
  15.7967530 116.1094050  63.9945270  15.0541120 114.8944060  63.4805810
  22.2589140 120.1547120  54.9323000  22.6985050 120.8971450  54.5178390
  22.1976030 120.3973690  55.8561960  17.7340110 121.1792950  65.8343020
  17.7055540 121.5835900  64.9671450  17.5705080 120.2503310  65.6714620
  27.7310900 106.4693860  49.2782800  27.4183560 106.5620690  50.1781870
  28.4923370 107.0474890  49.2280230  14.2493040 113.8353660  53.7360140
  14.1290640 114.5615750  53.1241410  13.9393930 113.0656570  53.2588050
  29.6854930 121.9620050  67.1307190  30.1614650 122.4402940  67.8096270
  30.3062090 121.8937540  66.4052690  11.8878410 117.0068800  59.5428780
  11.9658830 117.1417570  58.5984500  12.5020090 116.2984690  59.7356900
  13.1326040 118.7068990  55.9534960  12.7254120 118.8483580  55.0988560
  14.0239050 118.4229150  55.7506170  29.0888180 119.1532900  64.2907200
  29.2151240 118.9144780  63.3724380  29.1309560 118.3217440  64.7629280
  22.9504920 122.8560900  62.8602010  23.4649590 122.7668910  63.6624440
  22.1074000 123.2020600  63.1529920  24.9259320 123.1416240  52.2886010
  24.7660460 122.8519180  53.1867840  24.7606030 122.3656370  51.7531240
  17.4047700 122.9214770  54.0657630  17.2290180 122.0050310  53.8525430
  16.5503440 123.2802060  54.3055430  24.6285450 120.6503800  50.8484010
  23.9350610 120.6481090  50.1886290  25.3708310 120.2263120  50.4178180
  24.1935380 122.2766510  54.9232500  24.6492330 121.4955890  55.2371120
  24.5327900 122.9873330  55.4673680  11.9437930 118.0482970  62.0823240
  12.1068970 117.5788330  61.2642610  12.4090380 117.5406530  62.7472080
  16.7156700 107.1788730  57.1183810  16.2724850 107.9598270  56.7868330
  17.2741690 107.5018620  57.8254750  21.0026510 110.0457250  62.7219130
  20.5405880 110.2540270  63.5339070  20.6004620 109.2316600  62.4189800
  19.8315520 106.7999430  51.9989640  19.2069700 106.7959300  52.7242950
  19.7445640 105.9330390  51.6025610  18.7532600 107.7236060  58.9773410
  19.0504930 108.6298890  58.8965430  19.3018160 107.2354840  58.3632980
  16.5070920 112.3022300  54.8465060  16.2811840 112.0859470  55.7511680
  15.7263450 112.7350760  54.5011030  23.7368680 112.3085670  53.4455710
  23.1377570 113.0321470  53.2619330  24.2848290 112.2462450  52.6632160
  18.9470130 113.2007880  65.5125330  18.8513730 112.2602610  65.3625730
  19.7902110 113.4222950  65.1173400  22.3433550 110.9449210  55.4758990
  22.7363120 111.2621410  54.6627680  22.7050400 110.0661090  55.5903510
  14.0780670 109.6121550  63.6659110  13.6844060 110.4596760  63.8731890
  13.3899070 108.9747920  63.8567750  20.6525720 109.6956520  66.7355850
  19.9624040 109.5028720  67.3701940  21.3958020 109.9791160  67.2680150
  11.3797720 107.5350010  57.6989190  11.0910770 108.1052870  58.4114170
  12.1243480 107.0554460  58.0620420  11.5667950 111.4770130  48.9091910
  11.4842620 112.4200890  49.0506900  11.2151010 111.3345040  48.0304260
  22.9288690 113.5354960  59.5709770  22.1969810 114.0441770  59.9199870
  22.5313030 112.7184940  59.2698550  19.3666080 110.2109160  57.9762260
  19.3702140 109.7699110  57.1266800  20.2617200 110.5326490  58.0834080
  15.2168460 110.0935650  56.9356470  14.8768510 110.5710880  57.6923520
  14.4545780 109.6400770  56.5757570  19.4286230 111.2121240  50.9669020
  19.5499050 111.1707720  51.9154840  19.0434740 112.0745390  50.8115750
  18.4407730 113.5222380  50.3652320  17.8724630 113.0740630  49.7388230
  19.1496730 113.8815160  49.8317470  13.5176910 117.4234400  64.2419050
  13.1331700 116.7828070  64.8402010  13.8289100 118.1270520  64.8113780
  19.6674050 114.2710940  59.7227670  20.0344180 113.7969510  60.4689010
  19.4779110 115.1452510  60.0636010  12.5314540 109.0154630  55.8521140
  12.2461460 108.6510300  56.6899760  12.4693400 108.2835090  55.2384280
  17.4573420 113.3119580  62.0411880  17.1530490 114.1911560  62.2662240
  18.4119880 113.3719370  62.0769320  15.9855210 117.5180570  52.6378730
  15.2117470 116.9778190  52.4777450  16.7149840 116.9987180  52.2996490
  26.7443190 116.5145930  58.4305120  27.4642310 117.0101220  58.0401230
  26.5425010 115.8363820  57.7858990  22.2053130 107.9083890  52.5734510
  21.3917740 107.4097060  52.4979820  22.0115080 108.7482140  52.1570860
  22.1261990 116.5854990  64.3174120  22.0599300 115.6650660  64.0631710
  21.4967130 116.6830430  65.0318760  24.9201520 112.2803540  50.8696670
  25.8081140 112.5920770  50.6948010  24.8906610 111.4075790  50.4777250
  16.0292610 117.1860950  56.2757540  16.5471280 116.3829210  56.2214430
  15.5776630 117.1240090  57.1174370  20.9162110 118.4527230  51.5484840
  21.2577810 119.1969460  51.0528160  20.0874820 118.7658350  51.9109670
  13.5137150 114.1522320  63.1883240  13.1552090 114.8176170  63.7756580
  13.2191710 113.3205870  63.5595860  16.7150270 114.6106560  66.0722790
  16.4150410 114.7563740  65.1750610  17.4861510 114.0511850  65.9796180
  22.0578720 119.4075560  64.0677920  22.0723260 118.4756520  63.8496830
  21.3503820 119.4935320  64.7067690  27.1915790 113.5915380  50.3376530
  27.1079510 114.0229600  49.4872970  27.9109980 114.0513730  50.7703350
  28.2203040 120.4457640  53.0658660  27.5779200 119.7913260  53.3402380
  27.8333700 120.8512730  52.2899330  23.7989520 117.7743070  56.9130350
  24.1513340 117.1771200  56.2531720  22.9151850 117.4487300  57.0838600
  19.8852800 118.5340760  54.3200760  20.5723930 119.0809970  54.7008350
  19.0985220 119.0781490  54.3550370  12.0245200 114.1513580  49.8117840
  12.8940050 114.4338380  50.0953760  11.5335520 114.9649450  49.6966650
  19.1880010 115.5386790  53.9326120  19.6442790 116.3492040  54.1586310
  18.8368220 115.2209930  54.7644610  21.4912620 121.0493130  61.1618420
  22.1354840 121.2552510  61.8391840  21.8542060 120.2881530  60.7089270
  15.0891790 105.8824440  54.4048640  14.9606420 105.8742340  55.3533560
  14.2653810 106.2207530  54.0539650  22.7644700 119.0525480  59.8795870
  23.4066930 118.3518640  59.9928040  23.2894050 119.8323920  59.6992760
  26.6100420 119.3374100  49.6035010  26.3838000 118.6204540  50.1959650
  26.2196620 119.0886540  48.7656760  24.5382320 119.8520380  63.0831930
  24.8738560 120.4387070  63.7609850  23.6182660 119.7213090  63.3129720
  12.3916450 123.3640960  50.3779470  12.7514090 123.9630300  49.7236740
  12.2508790 123.9100850  51.1514500  12.0885720 107.6415560  63.8655340
  11.3744240 107.8412480  64.4707950  12.5080760 106.8655130  64.2370140
  26.1916670 117.2546040  51.2649170  25.9038370 117.7158730  52.0527050
  26.9868840 116.7943810  51.5333390  12.3758310 121.6295820  64.8521870
  12.4849430 120.6890560  64.7117260  11.7238870 121.8950570  64.2035600
  20.3670900 119.9011710  66.2519990  20.0467770 119.1820950  66.7965680
  19.6929260 120.5766780  66.3256050  18.4085070 120.7472160  51.1953140
  18.3995170 121.4801850  50.5797650  17.4883430 120.5003740  51.2880100
  14.0091710 115.9687050  51.9399900  13.4019660 116.7085950  51.9495200
  14.4841060 116.0586410  51.1138100  26.9486530 109.0894810  52.4244350
  26.3199690 109.1940480  51.7102580  26.4538450 109.3091590  53.2138230
  21.3944670 120.8100400  49.8578330  21.4956650 120.6064390  48.9280310
  20.4946410 120.5558680  50.0626110  18.9170560 111.3680760  53.8402230
  18.2086710 111.8367100  54.2815840  19.2015040 110.7102770  54.4747420
  20.5426490 112.7877460  61.8394760  21.0411740 113.2623280  62.5046610
  20.6849440 111.8640980  62.0464790  22.9485990 108.0931420  55.2798020
  22.8253770 108.1117550  54.3307530  23.8970550 108.1410360  55.3996420
  20.0362780 123.3286720  54.5526000  20.2904280 123.2908110  53.6305370
  19.0875260 123.2020050  54.5454250  17.1205580 109.6765840  51.2152940
  17.9696110 110.1135990  51.1493130  16.7536850 109.9886100  52.0425000
  26.0415360 114.2478600  56.1284510  25.1005500 114.2628830  56.3032200
  26.3559430 113.4614560  56.5744810  16.0197000 115.9298200  49.6888470
  16.7860270 115.8179560  50.2513900  16.0971690 115.2336170  49.0365240
  14.7143760 113.3623270  50.3721360  14.7947350 112.4150780  50.4838760
  15.6063510 113.6930150  50.4782020  28.0440940 121.4187450  57.8038770
  28.1688360 122.2418620  58.2762580  28.9106500 121.2078180  57.4562920
  15.5158470 123.5118660  57.4755900  16.2520950 122.9634120  57.7464470
  15.8999390 124.3774670  57.3361890  12.4003950 119.5792230  53.3497410
  11.4743730 119.8213370  53.3402820  12.8660380 120.4066490  53.2282160
  14.5216750 122.6964730  66.6641480  15.3229480 123.0176780  67.0776880
  14.0068570 122.3360310  67.3861390  18.6260780 122.6848970  49.2981470
  19.4189390 122.9737800  48.8463260  18.1065130 122.2541140  48.6193950
  23.3581380 118.8044600  66.6116890  22.7519540 118.8276200  65.8712640
  23.0535490 118.0727640  67.1484140  24.7881750 122.5324890  65.2226300
  25.7403500 122.4482910  65.1726540  24.6409970 123.1966600  65.8960090
  27.6790950 121.9119100  50.7218210  27.3932460 121.4984240  49.9072390
  27.4810500 122.8406810  50.6018730  12.2414560 115.1838190  65.6077530
  12.7453580 114.6045470  66.1793760  11.5021980 115.4678420  66.1453900
  19.1438180 117.9052380  49.1623820  19.0388820 117.2904730  49.8885200
  18.9762400 117.3818270  48.3786830  19.2952500 116.5909180  65.1413050
  18.5298170 117.1594180  65.0567720  19.4768460 116.2985390  64.2481280
  22.3840910 116.9672410  49.7665810  21.8351010 117.4141710  50.4108550
  23.0060170 116.4621660  50.2903480  14.2737640 113.3267780  66.5027600
  14.3142980 113.0281650  67.4112830  15.1283140 113.7275390  66.3435120
  18.0516030 115.9263330  51.6631110  18.4732450 115.7603200  52.5062500
  18.1766870 115.1163560  51.1686250  16.2143450 111.9059880  64.4702090
  15.6839910 111.4150830  63.8425430  16.8831520 112.3344080  63.9360020
  20.5643670 114.9500940  48.9108210  21.0849330 114.2349960  48.5449360
  21.2112070 115.5886810  49.2108720  16.7015750 108.8722250  64.5499380
  16.6072620 108.2543000  63.8250250  16.1213140 109.5988540  64.3229290
  19.4677190 107.4295490  61.5826770  19.0194490 107.4519750  60.7372320
  18.8342390 107.0314510  62.1797070  19.8736740 116.3249820  62.2039210
  20.2924850 117.1682550  62.0315450  18.9545370 116.4621860  61.9745990
  16.9474930 111.9996560  48.6089270  16.7463990 111.1363920  48.9702610
  16.7766980 111.9129920  47.6710870  17.7244160 122.6302830  63.3196940
  17.1865250 123.3548890  63.0005640  17.9778120 122.1533170  62.5294280
  18.9769410 110.5987350  64.8452870  19.5669100 110.2903200  65.5330690
  18.1589650 110.1267100  65.0012770  24.4263240 106.8104790  51.1376150
  24.7065530 105.9672690  51.4935570  23.6528970 107.0427900  51.6514900
  15.7457730 109.0997180  48.5967150  16.0483630 109.1064610  47.6886300
  16.4852320 108.7495040  49.0934810  20.5806370 123.8654040  63.5783590
  20.5065070 124.7689180  63.8855960  19.6785210 123.5465940  63.5505660
  18.9642660 108.0431800  49.5823350  18.6164660 107.3655790  49.0025800
  19.1655430 107.5821310  50.3966740  21.1291700 123.0312550  51.2009950
  22.0242490 123.3697520  51.2228710  21.1609330 122.3091960  50.5734230
  14.7687860 118.4039600  49.4296950  15.2062730 118.9469270  50.0854530
  15.2535590 117.5786550  49.4393290  11.9833660 121.1928630  56.8817210
  12.3136670 120.3249690  56.6495850  12.4124660 121.3987150  57.7122170
  16.5795580 119.5237640  54.5419180  16.2791120 119.4002610  55.4423090
  16.4733070 118.6646230  54.1334910  12.4723870 122.0599220  59.6198840
  12.0354860 122.2400020  60.4522990  13.0401550 122.8173840  59.4780560
  28.1086050 121.5616220  63.9076150  27.5088040 121.6208780  63.1640070
  28.2379950 120.6221200  64.0373000  29.3487500 119.3034040  49.2445860
  28.5180460 119.3710690  49.7153090  29.5259330 120.1938160  48.9412720
  28.8043960 116.0481520  51.7480060  29.5662870 116.6178170  51.8539750
  28.8198330 115.4808720  52.5188370  12.3048300 114.5719450  55.9787720
  11.6497140 114.3031090  55.3347420  13.1426250 114.4623930  55.5289700
  29.8103930 116.9031620  56.5921990  30.1812760 116.1198940  56.1857960
  30.4505860 117.5920720  56.4139290  26.7937690 118.2868200  62.0052310
  25.9797530 118.7165360  62.2678100  27.2011890 118.8986610  61.3921360
  28.8563130 116.3415890  48.9052580  29.1311970 117.2494770  48.7771800
  28.6673870 116.2778420  49.8414570  25.2538740 109.3660740  50.2006210
  25.6723620 109.1791720  49.3602870  24.9474800 108.5139790  50.5109140
  28.7528470 114.2784880  53.8982010  28.3772070 113.5112810  53.4663300
  28.0231590 114.6607580  54.3856940  13.3424230 114.9572020  60.5191060
  13.7097270 114.8699420  61.3987080  12.7735050 114.1938570  60.4197920
  12.8940230 111.8681110  64.4249480  11.9996280 111.8347870  64.7643190
  13.4337780 112.0667900  65.1900730  11.5186380 111.7818380  51.9213050
  10.6150460 112.0448580  51.7464710  12.0027000 112.0529550  51.1413010
  28.0279430 112.5042370  57.1989250  28.5516910 112.0105020  56.5679420
  28.6138850 112.6392730  57.9436820  14.0613590 110.8383920  49.8307430
  14.7705290 110.4167140  49.3454710  13.3453530 110.9059150  49.1990780
  13.7087750 106.8923250  48.8710080  14.4315880 107.4332190  49.1891300
  13.9812270 106.6186670  47.9951620  27.5179400 111.7615720  53.1381660
  28.0138520 111.5286590  53.9230540  27.3195470 110.9227560  52.7219300
  13.3979940 106.1429440  58.7732700  14.0456130 105.5926820  58.3327860
  13.8181780 106.3972590  59.5948510  28.9466560 110.3976670  55.6719340
  28.8365840 110.2432710  56.6101610  29.7074150 109.8697610  55.4294750
  29.8356830 108.2284590  48.9125480  30.7606140 108.0965770  48.7043770
  29.8132620 108.3077410  49.8661930  29.9095320 108.9995250  51.5382190
  29.1146820 108.9340370  52.0675100  30.1138600 109.9345890  51.5267540
  26.8513740 123.0386800  55.5320580  27.4472810 122.7171370  54.8555000
  27.1091890 122.5658620  56.3233850  13.1511940 106.2985110  61.5158020
  12.8026760 106.7548930  62.2816200  12.8199640 105.4042240  61.5980450
  14.7576310 119.4704710  65.6811210  14.7145940 119.0997620  66.5625670
  14.8887320 120.4082280  65.8213030  18.4582340 121.0264300  61.2820930
  18.2173700 121.2938860  60.3951450  19.3984980 121.1970030  61.3371790
  20.6636760 107.4896990  65.0377440  20.6025650 108.0818820  65.7872850
  21.6037140 107.3822950  64.8927700  29.7186500 123.0458680  62.0831570
  29.2244780 123.4427550  61.3658700  29.1099790 122.4207890  62.4768850
  13.8232580 105.8261310  64.7908790  14.3715570 105.6449360  64.0274900
  13.8887890 105.0355420  65.3265100  14.5964340 122.4166960  62.8008990
  14.0024660 122.2851660  63.5399030  14.5888180 121.5805100  62.3351090
  27.4025950 123.6882100  59.3618310  26.9428920 124.4397910  58.9876330
  26.7738410 122.9688570  59.3033110  14.2276570 119.7825340  61.7517030
  13.5010630 119.1630630  61.6842980  14.2885720 120.1765950  60.8815110
  17.8321670 121.9970340  58.5366440  18.3486690 121.3857700  58.0114700
  18.4819050 122.4999120  59.0277450  20.5717170 122.8878830  59.3635420
  20.8594980 122.6333130  58.4868430  21.0840390 122.3356190  59.9540990
  12.5106570 123.0999730  54.9613790  12.3428610 122.4670410  55.6595680
  11.6441080 123.3059130  54.6107980  13.1334590 106.9316510  52.4645650
  13.8913950 107.0445390  51.8909680  12.6711760 107.7685710  52.4189080
  19.6748400 109.0455780  55.4547960  18.8622910 108.6712670  55.1143840
  20.1790040 108.2900860  55.7569150  24.1773380 105.7098230  56.6931030
  24.7802750 106.2818440  57.1679550  23.4366370 106.2737670  56.4704930
  27.3207980 106.1119790  51.9671310  27.5158610 107.0103240  52.2338740
  26.5337850 105.8806870  52.4604260  14.1169270 121.7932960  52.4063930
  13.5916890 122.1740990  51.7025890  14.0413850 122.4183730  53.1273640
  15.5059740 107.4580560  51.0047620  16.0352500 106.6710360  50.8755570
  16.1388060 108.1371750  51.2383150  17.6997580 107.1955700  54.0593010
  17.0700320 106.4943010  54.2263140  17.1602720 107.9559830  53.8426170
  20.6389530 123.8094930  66.7303620  21.5656840 123.5739200  66.7739580
  20.6239960 124.6366930  66.2489650  28.8734590 123.3520500  53.7277870
  29.0486780 122.6658240  53.0838790  28.1756160 123.8767550  53.3354540
  17.8253140 106.4739680  66.4945500  17.5437410 106.9773280  65.7306320
  18.2072840 105.6761430  66.1287630  16.7162240 123.7415340  51.2813180
  17.4481060 123.4574620  50.7337070  16.9755910 123.5028620  52.1712560
  15.8777030 119.8580070  51.2859510  15.2485910 120.3265170  51.8345340
  15.9924860 119.0129290  51.7205700  24.4268600 105.8893260  67.0725970
  24.3134050 106.2087870  67.9677490  25.2438340 106.2905770  66.7763250
  27.2067090 123.0364790  66.5544660  27.9992410 122.5414020  66.3470620
  27.5000240 123.7154930  67.1620270  23.3326750 113.9085730  37.4360710
  23.2520800 112.9940340  37.1652420  22.9191170 114.4052800  36.7300420
  21.4644790 115.6864750  39.3169980  20.6886890 115.2065190  39.6068550
  22.1157720 115.0070400  39.1426140  15.4810620 115.9984560  40.1945740
  14.6495500 115.7433270  40.5942250  16.0891600 116.0695330  40.9303660
  25.4852220 120.0924940  38.0969110  25.0233750 119.3212180  38.4256280
  26.2977770 120.1191010  38.6021560  15.4611880 120.0324650  40.3903760
  15.7639920 119.1422390  40.2113980  16.2055470 120.5894870  40.1626010
  13.8902570 110.9586450  33.9788130  13.0019270 111.3002420  33.8768010
  14.1743760 110.7586770  33.0868960  11.8535580 113.5592100  39.8627830
  12.4251690 112.7914300  39.8631470  11.8537120 113.8580860  38.9534440
  21.7115530 122.3782950  37.7173100  21.0926970 122.8340450  37.1467540
  22.5667310 122.5334410  37.3162800  20.9053780 118.3621940  39.3240140
  20.8362060 117.4211880  39.1629270  21.6673640 118.4523350  39.8962710
  13.0960450 108.9676460  41.6496760  12.9163290 108.0702210  41.9299520
  12.6940530 109.5148330  42.3243710  21.9358950 111.1692320  39.5509070
  22.3123770 110.2964200  39.4382740  21.8378460 111.5051020  38.6599510
  16.0663960 109.5417950  35.0126510  16.1730710 110.4421680  35.3195270
  15.1556320 109.4935920  34.7221160  25.7183070 108.6642760  36.4837410
  26.5392690 108.1739330  36.5262890  25.7517150 109.2540420  37.2369250
  13.7147120 111.4636960  40.2579100  14.3957230 111.7275330  40.8766500
  13.3995170 110.6237830  40.5917110  17.9071690 112.5104320  39.3451690
  18.4149910 113.0085290  39.9856710  18.4384930 111.7339520  39.1691050
  30.0082620 110.6809510  43.0481040  29.3034790 111.0691220  42.5296150
  30.2740540 111.3759800  43.6501970  16.1907790 107.1502880  43.6115110
  16.1926230 107.6675270  42.8061010  15.3612100 106.6733060  43.5885040
  22.5778880 117.2622190  35.1105010  21.9596150 117.7271640  34.5467730
  23.0902130 117.9549670  35.5274520  17.4410640 116.7898060  41.7888610
  17.1080020 117.4166980  42.4309680  17.6177320 117.3159940  41.0090280
  25.9544550 110.6043140  39.2564950  25.2500120 110.8928030  39.8368060
  26.3156710 111.4143250  38.8964510  15.8723120 108.8612840  41.6185560
  16.2139930 109.7054890  41.3239430  14.9338930 109.0096580  41.7350900
  16.6529740 118.7578860  43.6037790  17.2703740 119.4329940  43.3222240
  15.7922860 119.1666840  43.5125290  11.9462080 117.9478720  32.4844640
  11.5690060 118.4365820  31.7529540  12.2035150 118.6204000  33.1151170
  27.5707330 120.2218270  41.5192430  26.8870850 120.8917380  41.5109100
  28.1101620 120.4198920  40.7537290  29.0231470 110.0497930  39.6474160
  28.0756380 110.0836910  39.7789590  29.3481460 110.8636880  40.0323520
  19.5551010 106.3495110  37.9430150  19.8625990 105.7942000  37.2265650
  18.6251710 106.4839570  37.7603140  25.1066070 122.0662400  40.2337610
  25.1193230 121.6624690  39.3659870  24.5541290 122.8409690  40.1299040
  26.4011490 118.7878620  35.3227780  26.2907820 117.8452950  35.4477200
  26.3979740 119.1494260  36.2090540  24.5051510 116.9692240  41.5620220
  24.9220300 116.7552350  40.7273680  25.2291330 117.2265030  42.1328840
  21.9431770 114.4143940  34.6790270  21.0161050 114.3481320  34.9078740
  22.0956590 115.3524070  34.5645510  21.9300850 110.6860940  31.6757430
  20.9904520 110.8474900  31.7609890  22.2484110 111.4046620  31.1293420
  28.4513610 115.3679460  41.6536460  27.6232240 115.4372550  41.1786590
  29.0464090 115.9533770  41.1852290  25.9729060 115.9764240  35.1825520
  25.3541480 115.6383790  34.5351820  25.9553510 115.3324000  35.8904710
  25.4155620 112.1548780  42.5991330  25.0026800 112.9802490  42.8531320
  24.6831570 111.5693820  42.4067690  17.5488410 114.9408680  37.4610000
  17.1445410 114.2285930  36.9655900  17.6351530 114.5961920  38.3498040
  18.0170110 118.6276240  39.6249210  17.7198400 118.0221710  38.9456990
  18.9669930 118.6653550  39.5138570  16.2617030 111.7151890  41.2409040
  16.8131620 111.8247230  40.4662290  16.7760540 112.0889490  41.9564270
  26.1055720 122.2008110  43.2872310  25.6286280 123.0080300  43.0944920
  25.4217510 121.5486440  43.4398520  17.1088540 118.3657930  46.2757010
  16.2117070 118.5897900  46.5230410  17.1341410 118.4892870  45.3268410
  24.1493760 115.2151050  32.1898270  24.5887040 114.3773480  32.0436090
  24.8622180 115.8480450  32.2762410  15.9359760 115.2371250  44.8514380
  15.7967530 116.1094050  45.2201780  15.0541120 114.8944060  44.7062320
  22.2589140 120.1547120  36.1579510  22.6985050 120.8971450  35.7434900
  22.1976030 120.3973690  37.0818470  17.7340110 121.1792950  47.0599530
  17.7055540 121.5835900  46.1927960  17.5705080 120.2503310  46.8971130
  27.7310900 106.4693860  30.5039310  27.4183560 106.5620690  31.4038380
  28.4923370 107.0474890  30.4536740  14.2493040 113.8353660  34.9616650
  14.1290640 114.5615750  34.3497920  13.9393930 113.0656570  34.4844560
  29.6854930 121.9620050  48.3563700  30.1614650 122.4402940  49.0352780
  30.3062090 121.8937540  47.6309200  11.8878410 117.0068800  40.7685290
  11.9658830 117.1417570  39.8241010  12.5020090 116.2984690  40.9613410
  13.1326040 118.7068990  37.1791470  12.7254120 118.8483580  36.3245070
  14.0239050 118.4229150  36.9762680  29.0888180 119.1532900  45.5163710
  29.2151240 118.9144780  44.5980890  29.1309560 118.3217440  45.9885790
  22.9504920 122.8560900  44.0858520  23.4649590 122.7668910  44.8880950
  22.1074000 123.2020600  44.3786430  24.9259320 123.1416240  33.5142520
  24.7660460 122.8519180  34.4124350  24.7606030 122.3656370  32.9787750
  17.4047700 122.9214770  35.2914140  17.2290180 122.0050310  35.0781940
  16.5503440 123.2802060  35.5311940  24.6285450 120.6503800  32.0740520
  23.9350610 120.6481090  31.4142800  25.3708310 120.2263120  31.6434690
  24.1935380 122.2766510  36.1489010  24.6492330 121.4955890  36.4627630
  24.5327900 122.9873330  36.6930190  28.9412190 111.2065360  46.4813450
  28.3256460 111.7145030  45.9528910  28.6208610 110.3063690  46.4239390
  11.9437930 118.0482970  43.3079750  12.1068970 117.5788330  42.4899120
  12.4090380 117.5406530  43.9728590  16.7156700 107.1788730  38.3440320
  16.2724850 107.9598270  38.0124840  17.2741690 107.5018620  39.0511260
  21.0026510 110.0457250  43.9475640  20.5405880 110.2540270  44.7595580
  20.6004620 109.2316600  43.6446310  26.0031020 111.2666200  45.0772300
  25.1524610 110.9671950  45.3981370  25.8432810 111.5108210  44.1656120
  23.0980730 112.7667950  47.1771090  23.4234140 111.9331700  46.8373320
  23.8861060 113.2896470  47.3249420  19.8315520 106.7999430  33.2246150
  19.2069700 106.7959300  33.9499460  19.7445640 105.9330390  32.8282120
  18.7532600 107.7236060  40.2029920  19.0504930 108.6298890  40.1221940
  19.3018160 107.2354840  39.5889490  16.5070920 112.3022300  36.0721570
  16.2811840 112.0859470  36.9768190  15.7263450 112.7350760  35.7267540
  23.7368680 112.3085670  34.6712220  23.1377570 113.0321470  34.4875840
  24.2848290 112.2462450  33.8888670  18.9470130 113.2007880  46.7381840
  18.8513730 112.2602610  46.5882240  19.7902110 113.4222950  46.3429910
  22.3433550 110.9449210  36.7015500  22.7363120 111.2621410  35.8884190
  22.7050400 110.0661090  36.8160020  14.0780670 109.6121550  44.8915620
  13.6844060 110.4596760  45.0988400  13.3899070 108.9747920  45.0824260
  20.6525720 109.6956520  47.9612360  19.9624040 109.5028720  48.5958450
  21.3958020 109.9791160  48.4936660  11.3797720 107.5350010  38.9245700
  11.0910770 108.1052870  39.6370680  12.1243480 107.0554460  39.2876930
  11.5667950 111.4770130  30.1348420  11.4842620 112.4200890  30.2763410
  11.2151010 111.3345040  29.2560770  22.9288690 113.5354960  40.7966280
  22.1969810 114.0441770  41.1456380  22.5313030 112.7184940  40.4955060
  19.3666080 110.2109160  39.2018770  19.3702140 109.7699110  38.3523310
  20.2617200 110.5326490  39.3090590  15.2168460 110.0935650  38.1612980
  14.8768510 110.5710880  38.9180030  14.4545780 109.6400770  37.8014080
  19.4286230 111.2121240  32.1925530  19.5499050 111.1707720  33.1411350
  19.0434740 112.0745390  32.0372260  23.3914600 108.9888640  40.2089220
  23.4087340 109.4397290  41.0531070  23.1430180 108.0894280  40.4222660
  18.4407730 113.5222380  31.5908830  17.8724630 113.0740630  30.9644740
  19.1496730 113.8815160  31.0573980  26.8185350 106.4020820  46.0475600
  27.1431120 105.6710480  46.5733580  26.8541860 106.0834460  45.1456590
  13.5176910 117.4234400  45.4675560  13.1331700 116.7828070  46.0658520
  13.8289100 118.1270520  46.0370290  19.6674050 114.2710940  40.9484180
  20.0344180 113.7969510  41.6945520  19.4779110 115.1452510  41.2892520
  12.5314540 109.0154630  37.0777650  12.2461460 108.6510300  37.9156270
  12.4693400 108.2835090  36.4640790  17.4573420 113.3119580  43.2668390
  17.1530490 114.1911560  43.4918750  18.4119880 113.3719370  43.3025830
  15.9855210 117.5180570  33.8635240  15.2117470 116.9778190  33.7033960
  16.7149840 116.9987180  33.5253000  26.7443190 116.5145930  39.6561630
  27.4642310 117.0101220  39.2657740  26.5425010 115.8363820  39.0115500
  22.2053130 107.9083890  33.7991020  21.3917740 107.4097060  33.7236330
  22.0115080 108.7482140  33.3827370  22.1261990 116.5854990  45.5430630
  22.0599300 115.6650660  45.2888220  21.4967130 116.6830430  46.2575270
  24.9201520 112.2803540  32.0953180  25.8081140 112.5920770  31.9204520
  24.8906610 111.4075790  31.7033760  16.0292610 117.1860950  37.5014050
  16.5471280 116.3829210  37.4470940  15.5776630 117.1240090  38.3430880
  20.9162110 118.4527230  32.7741350  21.2577810 119.1969460  32.2784670
  20.0874820 118.7658350  33.1366180  13.5137150 114.1522320  44.4139750
  13.1552090 114.8176170  45.0013090  13.2191710 113.3205870  44.7852370
  16.7150270 114.6106560  47.2979300  16.4150410 114.7563740  46.4007120
  17.4861510 114.0511850  47.2052690  22.0578720 119.4075560  45.2934430
  22.0723260 118.4756520  45.0753340  21.3503820 119.4935320  45.9324200
  27.1915790 113.5915380  31.5633040  27.1079510 114.0229600  30.7129480
  27.9109980 114.0513730  31.9959860  28.2689930 116.0482900  44.6403010
  27.5438120 116.6411680  44.4432400  28.7965390 116.0406440  43.8416380
  28.2203040 120.4457640  34.2915170  27.5779200 119.7913260  34.5658890
  27.8333700 120.8512730  33.5155840  23.7989520 117.7743070  38.1386860
  24.1513340 117.1771200  37.4788230  22.9151850 117.4487300  38.3095110
  19.8852800 118.5340760  35.5457270  20.5723930 119.0809970  35.9264860
  19.0985220 119.0781490  35.5806880  12.0245200 114.1513580  31.0374350
  12.8940050 114.4338380  31.3210270  11.5335520 114.9649450  30.9223160
  19.1880010 115.5386790  35.1582630  19.6442790 116.3492040  35.3842820
  18.8368220 115.2209930  35.9901120  21.4912620 121.0493130  42.3874930
  22.1354840 121.2552510  43.0648350  21.8542060 120.2881530  41.9345780
  15.0891790 105.8824440  35.6305150  14.9606420 105.8742340  36.5790070
  14.2653810 106.2207530  35.2796160  22.7644700 119.0525480  41.1052380
  23.4066930 118.3518640  41.2184550  23.2894050 119.8323920  40.9249270
  26.6100420 119.3374100  30.8291520  26.3838000 118.6204540  31.4216160
  26.2196620 119.0886540  29.9913270  24.5382320 119.8520380  44.3088440
  24.8738560 120.4387070  44.9866360  23.6182660 119.7213090  44.5386230
  12.3916450 123.3640960  31.6035980  12.7514090 123.9630300  30.9493250
  12.2508790 123.9100850  32.3771010  12.0885720 107.6415560  45.0911850
  11.3744240 107.8412480  45.6964460  12.5080760 106.8655130  45.4626650
  26.1916670 117.2546040  32.4905680  25.9038370 117.7158730  33.2783560
  26.9868840 116.7943810  32.7589900  12.3758310 121.6295820  46.0778380
  12.4849430 120.6890560  45.9373770  11.7238870 121.8950570  45.4292110
  20.3670900 119.9011710  47.4776500  20.0467770 119.1820950  48.0222190
  19.6929260 120.5766780  47.5512560  18.4085070 120.7472160  32.4209650
  18.3995170 121.4801850  31.8054160  17.4883430 120.5003740  32.5136610
  14.0091710 115.9687050  33.1656410  13.4019660 116.7085950  33.1751710
  14.4841060 116.0586410  32.3394610  23.5824500 110.1337870  42.8413300
  23.9505320 109.3133080  43.1692870  22.7222700 110.1939760  43.2568950
  26.9486530 109.0894810  33.6500860  26.3199690 109.1940480  32.9359090
  26.4538450 109.3091590  34.4394740  21.3944670 120.8100400  31.0834840
  21.4956650 120.6064390  30.1536820  20.4946410 120.5558680  31.2882620
  18.9170560 111.3680760  35.0658740  18.2086710 111.8367100  35.5072350
  19.2015040 110.7102770  35.7003930  20.5426490 112.7877460  43.0651270
  21.0411740 113.2623280  43.7303120  20.6849440 111.8640980  43.2721300
  22.9485990 108.0931420  36.5054530  22.8253770 108.1117550  35.5564040
  23.8970550 108.1410360  36.6252930  20.0362780 123.3286720  35.7782510
  20.2904280 123.2908110  34.8561880  19.0875260 123.2020050  35.7710760
  17.1205580 109.6765840  32.4409450  17.9696110 110.1135990  32.3749640
  16.7536850 109.9886100  33.2681510  27.7493350 109.0045420  43.9079660
  27.2466950 109.7450820  44.2473470  28.5650010 109.3929420  43.5916450
  26.0415360 114.2478600  37.3541020  25.1005500 114.2628830  37.5288710
  26.3559430 113.4614560  37.8001320  16.0197000 115.9298200  30.9144980
  16.7860270 115.8179560  31.4770410  16.0971690 115.2336170  30.2621750
  14.7143760 113.3623270  31.5977870  14.7947350 112.4150780  31.7095270
  15.6063510 113.6930150  31.7038530  28.0440940 121.4187450  39.0295280
  28.1688360 122.2418620  39.5019090  28.9106500 121.2078180  38.6819430
  15.5158470 123.5118660  38.7012410  16.2520950 122.9634120  38.9720980
  15.8999390 124.3774670  38.5618400  12.4003950 119.5792230  34.5753920
  11.4743730 119.8213370  34.5659330  12.8660380 120.4066490  34.4538670
  14.5216750 122.6964730  47.8897990  15.3229480 123.0176780  48.3033390
  14.0068570 122.3360310  48.6117900  18.6260780 122.6848970  30.5237980
  19.4189390 122.9737800  30.0719770  18.1065130 122.2541140  29.8450460
  23.3581380 118.8044600  47.8373400  22.7519540 118.8276200  47.0969150
  23.0535490 118.0727640  48.3740650  24.7881750 122.5324890  46.4482810
  25.7403500 122.4482910  46.3983050  24.6409970 123.1966600  47.1216600
  27.6790950 121.9119100  31.9474720  27.3932460 121.4984240  31.1328900
  27.4810500 122.8406810  31.8275240  12.2414560 115.1838190  46.8334040
  12.7453580 114.6045470  47.4050270  11.5021980 115.4678420  47.3710410
  19.1438180 117.9052380  30.3880330  19.0388820 117.2904730  31.1141710
  18.9762400 117.3818270  29.6043340  19.2952500 116.5909180  46.3669560
  18.5298170 117.1594180  46.2824230  19.4768460 116.2985390  45.4737790
  22.3840910 116.9672410  30.9922320  21.8351010 117.4141710  31.6365060
  23.0060170 116.4621660  31.5159990  26.4375850 118.3214510  46.9244580
  27.1785320 118.6590270  46.4212040  25.6748530 118.4906570  46.3714350
  14.2737640 113.3267780  47.7284110  14.3142980 113.0281650  48.6369340
  15.1283140 113.7275390  47.5691630  18.0516030 115.9263330  32.8887620
  18.4732450 115.7603200  33.7319010  18.1766870 115.1163560  32.3942760
  16.2143450 111.9059880  45.6958600  15.6839910 111.4150830  45.0681940
  16.8831520 112.3344080  45.1616530  20.5643670 114.9500940  30.1364720
  21.0849330 114.2349960  29.7705870  21.2112070 115.5886810  30.4365230
  25.1121510 116.3729340  45.4599790  25.5262530 116.5274420  46.3090210
  24.1772510 116.4984560  45.6225570  25.5843680 113.7125500  47.4638940
  26.1664450 112.9577820  47.3759420  25.7605450 114.2432940  46.6870420
  16.7015750 108.8722250  45.7755890  16.6072620 108.2543000  45.0506760
  16.1213140 109.5988540  45.5485800  19.4677190 107.4295490  42.8083280
  19.0194490 107.4519750  41.9628830  18.8342390 107.0314510  43.4053580
  19.8736740 116.3249820  43.4295720  20.2924850 117.1682550  43.2571960
  18.9545370 116.4621860  43.2002500  22.2100640 114.0566000  44.8133560
  22.3296850 113.4607140  45.5528400  23.0694640 114.0935690  44.3934860
  24.5488540 114.6103190  43.3896070  24.0223760 115.1345810  42.7861210
  24.8919880 115.2430580  44.0205800  16.9474930 111.9996560  29.8345780
  16.7463990 111.1363920  30.1959120  16.7766980 111.9129920  28.8967380
  17.7244160 122.6302830  44.5453450  17.1865250 123.3548890  44.2262150
  17.9778120 122.1533170  43.7550790  18.9769410 110.5987350  46.0709380
  19.5669100 110.2903200  46.7587200  18.1589650 110.1267100  46.2269280
  23.7962840 110.2153160  46.3042400  23.1078360 109.5534700  46.2392390
  24.5168860 109.7691430  46.7490860  24.4263240 106.8104790  32.3632660
  24.7065530 105.9672690  32.7192080  23.6528970 107.0427900  32.8771410
  15.7457730 109.0997180  29.8223660  16.0483630 109.1064610  28.9142810
  16.4852320 108.7495040  30.3191320  20.5806370 123.8654040  44.8040100
  20.5065070 124.7689180  45.1112470  19.6785210 123.5465940  44.7762170
  18.9642660 108.0431800  30.8079860  18.6164660 107.3655790  30.2282310
  19.1655430 107.5821310  31.6223250  21.1291700 123.0312550  32.4266460
  22.0242490 123.3697520  32.4485220  21.1609330 122.3091960  31.7990740
  14.7687860 118.4039600  30.6553460  15.2062730 118.9469270  31.3111040
  15.2535590 117.5786550  30.6649800  11.9833660 121.1928630  38.1073720
  12.3136670 120.3249690  37.8752360  12.4124660 121.3987150  38.9378680
  16.5795580 119.5237640  35.7675690  16.2791120 119.4002610  36.6679600
  16.4733070 118.6646230  35.3591420  12.4723870 122.0599220  40.8455350
  12.0354860 122.2400020  41.6779500  13.0401550 122.8173840  40.7037070
  28.1086050 121.5616220  45.1332660  27.5088040 121.6208780  44.3896580
  28.2379950 120.6221200  45.2629510  29.3487500 119.3034040  30.4702370
  28.5180460 119.3710690  30.9409600  29.5259330 120.1938160  30.1669230
  28.8043960 116.0481520  32.9736570  29.5662870 116.6178170  33.0796260
  28.8198330 115.4808720  33.7444880  12.3048300 114.5719450  37.2044230
  11.6497140 114.3031090  36.5603930  13.1426250 114.4623930  36.7546210
  29.8103930 116.9031620  37.8178500  30.1812760 116.1198940  37.4114470
  30.4505860 117.5920720  37.6395800  26.7937690 118.2868200  43.2308820
  25.9797530 118.7165360  43.4934610  27.2011890 118.8986610  42.6177870
  28.8563130 116.3415890  30.1309090  29.1311970 117.2494770  30.0028310
  28.6673870 116.2778420  31.0671080  25.2538740 109.3660740  31.4262720
  25.6723620 109.1791720  30.5859380  24.9474800 108.5139790  31.7365650
  28.7528470 114.2784880  35.1238520  28.3772070 113.5112810  34.6919810
  28.0231590 114.6607580  35.6113450  13.3424230 114.9572020  41.7447570
  13.7097270 114.8699420  42.6243590  12.7735050 114.1938570  41.6454430
  28.1428090 113.4256400  44.7578040  27.9114180 113.1969150  43.8575990
  28.4032640 114.3455950  44.7122930  12.8940230 111.8681110  45.6505990
  11.9996280 111.8347870  45.9899700  13.4337780 112.0667900  46.4157240
  26.5816160 108.6512830  47.5357740  27.4586340 108.6596230  47.9191740
  26.5937000 107.9143670  46.9250090  11.5186380 111.7818380  33.1469560
  10.6150460 112.0448580  32.9721220  12.0027000 112.0529550  32.3669520
  28.0279430 112.5042370  38.4245760  28.5516910 112.0105020  37.7935930
  28.6138850 112.6392730  39.1693330  28.2069150 112.5882240  41.9465310
  27.2571860 112.5545780  42.0610300  28.3882160 113.4982350  41.7115080
  14.0613590 110.8383920  31.0563940  14.7705290 110.4167140  30.5711220
  13.3453530 110.9059150  30.4247290  13.7087750 106.8923250  30.0966590
  14.4315880 107.4332190  30.4147810  13.9812270 106.6186670  29.2208130
  27.5179400 111.7615720  34.3638170  28.0138520 111.5286590  35.1487050
  27.3195470 110.9227560  33.9475810  13.3979940 106.1429440  39.9989210
  14.0456130 105.5926820  39.5584370  13.8181780 106.3972590  40.8205020
  28.9466560 110.3976670  36.8975850  28.8365840 110.2432710  37.8358120
  29.7074150 109.8697610  36.6551260  27.2932280 106.3370800  43.3558850
  27.9304500 106.9504940  43.7218040  27.4407170 106.3731460  42.4108080
  29.8356830 108.2284590  30.1381990  30.7606140 108.0965770  29.9300280
  29.8132620 108.3077410  31.0918440  29.9095320 108.9995250  32.7638700
  29.1146820 108.9340370  33.2931610  30.1138600 109.9345890  32.7524050
  26.8513740 123.0386800  36.7577090  27.4472810 122.7171370  36.0811510
  27.1091890 122.5658620  37.5490360  13.1511940 106.2985110  42.7414530
  12.8026760 106.7548930  43.5072710  12.8199640 105.4042240  42.8236960
  14.7576310 119.4704710  46.9067720  14.7145940 119.0997620  47.7882180
  14.8887320 120.4082280  47.0469540  18.4582340 121.0264300  42.5077440
  18.2173700 121.2938860  41.6207960  19.3984980 121.1970030  42.5628300
  20.6636760 107.4896990  46.2633950  20.6025650 108.0818820  47.0129360
  21.6037140 107.3822950  46.1184210  23.3011320 107.1467050  45.9026240
  23.9151730 107.4646340  45.2407320  23.8460880 106.6615640  46.5222100
  29.7186500 123.0458680  43.3088080  29.2244780 123.4427550  42.5915210
  29.1099790 122.4207890  43.7025360  13.8232580 105.8261310  46.0165300
  14.3715570 105.6449360  45.2531410  13.8887890 105.0355420  46.5521610
  14.5964340 122.4166960  44.0265500  14.0024660 122.2851660  44.7655540
  14.5888180 121.5805100  43.5607600  24.0419360 105.7099190  42.2295530
  23.1679200 106.0434300  42.0268460  23.9330110 105.2372370  43.0547400
  24.9491340 107.9170060  43.6137250  24.6204700 107.1021820  43.2338980
  25.8973640 107.8739870  43.4902940  27.4025950 123.6882100  40.5874820
  26.9428920 124.4397910  40.2132840  26.7738410 122.9688570  40.5289620
  14.2276570 119.7825340  42.9773540  13.5010630 119.1630630  42.9099490
  14.2885720 120.1765950  42.1071620  17.8321670 121.9970340  39.7622950
  18.3486690 121.3857700  39.2371210  18.4819050 122.4999120  40.2533960
  20.5717170 122.8878830  40.5891930  20.8594980 122.6333130  39.7124940
  21.0840390 122.3356190  41.1797500  21.7894180 106.6269030  41.1688440
  21.0065970 107.1014530  41.4485200  21.4957110 105.7223860  41.0601620
  26.3415250 107.3292130  39.2137530  26.7823340 107.2737230  38.3659130
  26.0722840 108.2450140  39.2847710  28.2053820 106.9607370  37.2246350
  28.1442220 106.0168590  37.0777370  28.9845850 107.0687460  37.7699810
  12.5106570 123.0999730  36.1870300  12.3428610 122.4670410  36.8852190
  11.6441080 123.3059130  35.8364490  13.1334590 106.9316510  33.6902160
  13.8913950 107.0445390  33.1166190  12.6711760 107.7685710  33.6445590
  19.6748400 109.0455780  36.6804470  18.8622910 108.6712670  36.3400350
  20.1790040 108.2900860  36.9825660  24.1773380 105.7098230  37.9187540
  24.7802750 106.2818440  38.3936060  23.4366370 106.2737670  37.6961440
  27.3207980 106.1119790  33.1927820  27.5158610 107.0103240  33.4595250
  26.5337850 105.8806870  33.6860770  14.1169270 121.7932960  33.6320440
  13.5916890 122.1740990  32.9282400  14.0413850 122.4183730  34.3530150
  15.5059740 107.4580560  32.2304130  16.0352500 106.6710360  32.1012080
  16.1388060 108.1371750  32.4639660  17.6997580 107.1955700  35.2849520
  17.0700320 106.4943010  35.4519650  17.1602720 107.9559830  35.0682680
  20.6389530 123.8094930  47.9560130  21.5656840 123.5739200  47.9996090
  20.6239960 124.6366930  47.4746160  28.8734590 123.3520500  34.9534380
  29.0486780 122.6658240  34.3095300  28.1756160 123.8767550  34.5611050
  17.8253140 106.4739680  47.7202010  17.5437410 106.9773280  46.9562830
  18.2072840 105.6761430  47.3544140  16.7162240 123.7415340  32.5069690
  17.4481060 123.4574620  31.9593580  16.9755910 123.5028620  33.3969070
  15.8777030 119.8580070  32.5116020  15.2485910 120.3265170  33.0601850
  15.9924860 119.0129290  32.9462210  24.4268600 105.8893260  48.2982480
  24.3134050 106.2087870  49.1934000  25.2438340 106.2905770  48.0019760
  27.2067090 123.0364790  47.7801170  27.9992410 122.5414020  47.5727130
  27.5000240 123.7154930  48.3876780  23.3326750 113.9085730  18.6617220
  23.2520800 112.9940340  18.3908930  22.9191170 114.4052800  17.9556930
  21.4644790 115.6864750  20.5426490  20.6886890 115.2065190  20.8325060
  22.1157720 115.0070400  20.3682650  15.4810620 115.9984560  21.4202250
  14.6495500 115.7433270  21.8198760  16.0891600 116.0695330  22.1560170
  25.4852220 120.0924940  19.3225620  25.0233750 119.3212180  19.6512790
  26.2977770 120.1191010  19.8278070  15.4611880 120.0324650  21.6160270
  15.7639920 119.1422390  21.4370490  16.2055470 120.5894870  21.3882520
  13.8902570 110.9586450  15.2044640  13.0019270 111.3002420  15.1024520
  14.1743760 110.7586770  14.3125470  11.8535580 113.5592100  21.0884340
  12.4251690 112.7914300  21.0887980  11.8537120 113.8580860  20.1790950
  21.7115530 122.3782950  18.9429610  21.0926970 122.8340450  18.3724050
  22.5667310 122.5334410  18.5419310  20.9053780 118.3621940  20.5496650
  20.8362060 117.4211880  20.3885780  21.6673640 118.4523350  21.1219220
  13.0960450 108.9676460  22.8753270  12.9163290 108.0702210  23.1556030
  12.6940530 109.5148330  23.5500220  21.9358950 111.1692320  20.7765580
  22.3123770 110.2964200  20.6639250  21.8378460 111.5051020  19.8856020
  16.0663960 109.5417950  16.2383020  16.1730710 110.4421680  16.5451780
  15.1556320 109.4935920  15.9477670  25.7183070 108.6642760  17.7093920
  26.5392690 108.1739330  17.7519400  25.7517150 109.2540420  18.4625760
  13.7147120 111.4636960  21.4835610  14.3957230 111.7275330  22.1023010
  13.3995170 110.6237830  21.8173620  17.9071690 112.5104320  20.5708200
  18.4149910 113.0085290  21.2113220  18.4384930 111.7339520  20.3947560
  30.0082620 110.6809510  24.2737550  29.3034790 111.0691220  23.7552660
  30.2740540 111.3759800  24.8758480  16.1907790 107.1502880  24.8371620
  16.1926230 107.6675270  24.0317520  15.3612100 106.6733060  24.8141550
  22.5778880 117.2622190  16.3361520  21.9596150 117.7271640  15.7724240
  23.0902130 117.9549670  16.7531030  17.4410640 116.7898060  23.0145120
  17.1080020 117.4166980  23.6566190  17.6177320 117.3159940  22.2346790
  25.9544550 110.6043140  20.4821460  25.2500120 110.8928030  21.0624570
  26.3156710 111.4143250  20.1221020  15.8723120 108.8612840  22.8442070
  16.2139930 109.7054890  22.5495940  14.9338930 109.0096580  22.9607410
  16.6529740 118.7578860  24.8294300  17.2703740 119.4329940  24.5478750
  15.7922860 119.1666840  24.7381800  11.9462080 117.9478720  13.7101150
  11.5690060 118.4365820  12.9786050  12.2035150 118.6204000  14.3407680
  27.5707330 120.2218270  22.7448940  26.8870850 120.8917380  22.7365610
  28.1101620 120.4198920  21.9793800  29.0231470 110.0497930  20.8730670
  28.0756380 110.0836910  21.0046100  29.3481460 110.8636880  21.2580030
  19.5551010 106.3495110  19.1686660  19.8625990 105.7942000  18.4522160
  18.6251710 106.4839570  18.9859650  25.1066070 122.0662400  21.4594120
  25.1193230 121.6624690  20.5916380  24.5541290 122.8409690  21.3555550
  26.4011490 118.7878620  16.5484290  26.2907820 117.8452950  16.6733710
  26.3979740 119.1494260  17.4347050  24.5051510 116.9692240  22.7876730
  24.9220300 116.7552350  21.9530190  25.2291330 117.2265030  23.3585350
  21.9431770 114.4143940  15.9046780  21.0161050 114.3481320  16.1335250
  22.0956590 115.3524070  15.7902020  21.9300850 110.6860940  12.9013940
  20.9904520 110.8474900  12.9866400  22.2484110 111.4046620  12.3549930
  28.4513610 115.3679460  22.8792970  27.6232240 115.4372550  22.4043100
  29.0464090 115.9533770  22.4108800  25.9729060 115.9764240  16.4082030
  25.3541480 115.6383790  15.7608330  25.9553510 115.3324000  17.1161220
  25.4155620 112.1548780  23.8247840  25.0026800 112.9802490  24.0787830
  24.6831570 111.5693820  23.6324200  17.5488410 114.9408680  18.6866510
  17.1445410 114.2285930  18.1912410  17.6351530 114.5961920  19.5754550
  18.0170110 118.6276240  20.8505720  17.7198400 118.0221710  20.1713500
  18.9669930 118.6653550  20.7395080  16.2617030 111.7151890  22.4665550
  16.8131620 111.8247230  21.6918800  16.7760540 112.0889490  23.1820780
  26.1055720 122.2008110  24.5128820  25.6286280 123.0080300  24.3201430
  25.4217510 121.5486440  24.6655030  17.1088540 118.3657930  27.5013520
  16.2117070 118.5897900  27.7486920  17.1341410 118.4892870  26.5524920
  24.1493760 115.2151050  13.4154780  24.5887040 114.3773480  13.2692600
  24.8622180 115.8480450  13.5018920  15.9359760 115.2371250  26.0770890
  15.7967530 116.1094050  26.4458290  15.0541120 114.8944060  25.9318830
  22.2589140 120.1547120  17.3836020  22.6985050 120.8971450  16.9691410
  22.1976030 120.3973690  18.3074980  17.7340110 121.1792950  28.2856040
  17.7055540 121.5835900  27.4184470  17.5705080 120.2503310  28.1227640
  27.7310900 106.4693860  11.7295820  27.4183560 106.5620690  12.6294890
  28.4923370 107.0474890  11.6793250  14.2493040 113.8353660  16.1873160
  14.1290640 114.5615750  15.5754430  13.9393930 113.0656570  15.7101070
  29.6854930 121.9620050  29.5820210  30.1614650 122.4402940  30.2609290
  30.3062090 121.8937540  28.8565710  11.8878410 117.0068800  21.9941800
  11.9658830 117.1417570  21.0497520  12.5020090 116.2984690  22.1869920
  13.1326040 118.7068990  18.4047980  12.7254120 118.8483580  17.5501580
  14.0239050 118.4229150  18.2019190  29.0888180 119.1532900  26.7420220
  29.2151240 118.9144780  25.8237400  29.1309560 118.3217440  27.2142300
  22.9504920 122.8560900  25.3115030  23.4649590 122.7668910  26.1137460
  22.1074000 123.2020600  25.6042940  24.9259320 123.1416240  14.7399030
  24.7660460 122.8519180  15.6380860  24.7606030 122.3656370  14.2044260
  17.4047700 122.9214770  16.5170650  17.2290180 122.0050310  16.3038450
  16.5503440 123.2802060  16.7568450  24.6285450 120.6503800  13.2997030
  23.9350610 120.6481090  12.6399310  25.3708310 120.2263120  12.8691200
  24.1935380 122.2766510  17.3745520  24.6492330 121.4955890  17.6884140
  24.5327900 122.9873330  17.9186700  28.9412190 111.2065360  27.7069960
  28.3256460 111.7145030  27.1785420  28.6208610 110.3063690  27.6495900
  11.9437930 118.0482970  24.5336260  12.1068970 117.5788330  23.7155630
  12.4090380 117.5406530  25.1985100  16.7156700 107.1788730  19.5696830
  16.2724850 107.9598270  19.2381350  17.2741690 107.5018620  20.2767770
  21.0026510 110.0457250  25.1732150  20.5405880 110.2540270  25.9852090
  20.6004620 109.2316600  24.8702820  26.0031020 111.2666200  26.3028810
  25.1524610 110.9671950  26.6237880  25.8432810 111.5108210  25.3912630
  23.0980730 112.7667950  28.4027600  23.4234140 111.9331700  28.0629830
  23.8861060 113.2896470  28.5505930  19.8315520 106.7999430  14.4502660
  19.2069700 106.7959300  15.1755970  19.7445640 105.9330390  14.0538630
  18.7532600 107.7236060  21.4286430  19.0504930 108.6298890  21.3478450
  19.3018160 107.2354840  20.8146000  16.5070920 112.3022300  17.2978080
  16.2811840 112.0859470  18.2024700  15.7263450 112.7350760  16.9524050
  23.7368680 112.3085670  15.8968730  23.1377570 113.0321470  15.7132350
  24.2848290 112.2462450  15.1145180  18.9470130 113.2007880  27.9638350
  18.8513730 112.2602610  27.8138750  19.7902110 113.4222950  27.5686420
  22.3433550 110.9449210  17.9272010  22.7363120 111.2621410  17.1140700
  22.7050400 110.0661090  18.0416530  14.0780670 109.6121550  26.1172130
  13.6844060 110.4596760  26.3244910  13.3899070 108.9747920  26.3080770
  20.6525720 109.6956520  29.1868870  19.9624040 109.5028720  29.8214960
  21.3958020 109.9791160  29.7193170  11.3797720 107.5350010  20.1502210
  11.0910770 108.1052870  20.8627190  12.1243480 107.0554460  20.5133440
  11.5667950 111.4770130  11.3604930  11.4842620 112.4200890  11.5019920
  11.2151010 111.3345040  10.4817280  22.9288690 113.5354960  22.0222790
  22.1969810 114.0441770  22.3712890  22.5313030 112.7184940  21.7211570
  19.3666080 110.2109160  20.4275280  19.3702140 109.7699110  19.5779820
  20.2617200 110.5326490  20.5347100  15.2168460 110.0935650  19.3869490
  14.8768510 110.5710880  20.1436540  14.4545780 109.6400770  19.0270590
  19.4286230 111.2121240  13.4182040  19.5499050 111.1707720  14.3667860
  19.0434740 112.0745390  13.2628770  23.3914600 108.9888640  21.4345730
  23.4087340 109.4397290  22.2787580  23.1430180 108.0894280  21.6479170
  18.4407730 113.5222380  12.8165340  17.8724630 113.0740630  12.1901250
  19.1496730 113.8815160  12.2830490  26.8185350 106.4020820  27.2732110
  27.1431120 105.6710480  27.7990090  26.8541860 106.0834460  26.3713100
  13.5176910 117.4234400  26.6932070  13.1331700 116.7828070  27.2915030
  13.8289100 118.1270520  27.2626800  19.6674050 114.2710940  22.1740690
  20.0344180 113.7969510  22.9202030  19.4779110 115.1452510  22.5149030
  12.5314540 109.0154630  18.3034160  12.2461460 108.6510300  19.1412780
  12.4693400 108.2835090  17.6897300  17.4573420 113.3119580  24.4924900
  17.1530490 114.1911560  24.7175260  18.4119880 113.3719370  24.5282340
  15.9855210 117.5180570  15.0891750  15.2117470 116.9778190  14.9290470
  16.7149840 116.9987180  14.7509510  26.7443190 116.5145930  20.8818140
  27.4642310 117.0101220  20.4914250  26.5425010 115.8363820  20.2372010
  22.2053130 107.9083890  15.0247530  21.3917740 107.4097060  14.9492840
  22.0115080 108.7482140  14.6083880  22.1261990 116.5854990  26.7687140
  22.0599300 115.6650660  26.5144730  21.4967130 116.6830430  27.4831780
  24.9201520 112.2803540  13.3209690  25.8081140 112.5920770  13.1461030
  24.8906610 111.4075790  12.9290270  16.0292610 117.1860950  18.7270560
  16.5471280 116.3829210  18.6727450  15.5776630 117.1240090  19.5687390
  20.9162110 118.4527230  13.9997860  21.2577810 119.1969460  13.5041180
  20.0874820 118.7658350  14.3622690  13.5137150 114.1522320  25.6396260
  13.1552090 114.8176170  26.2269600  13.2191710 113.3205870  26.0108880
  16.7150270 114.6106560  28.5235810  16.4150410 114.7563740  27.6263630
  17.4861510 114.0511850  28.4309200  22.0578720 119.4075560  26.5190940
  22.0723260 118.4756520  26.3009850  21.3503820 119.4935320  27.1580710
  27.1915790 113.5915380  12.7889550  27.1079510 114.0229600  11.9385990
  27.9109980 114.0513730  13.2216370  28.2689930 116.0482900  25.8659520
  27.5438120 116.6411680  25.6688910  28.7965390 116.0406440  25.0672890
  28.2203040 120.4457640  15.5171680  27.5779200 119.7913260  15.7915400
  27.8333700 120.8512730  14.7412350  23.7989520 117.7743070  19.3643370
  24.1513340 117.1771200  18.7044740  22.9151850 117.4487300  19.5351620
  19.8852800 118.5340760  16.7713780  20.5723930 119.0809970  17.1521370
  19.0985220 119.0781490  16.8063390  12.0245200 114.1513580  12.2630860
  12.8940050 114.4338380  12.5466780  11.5335520 114.9649450  12.1479670
  19.1880010 115.5386790  16.3839140  19.6442790 116.3492040  16.6099330
  18.8368220 115.2209930  17.2157630  21.4912620 121.0493130  23.6131440
  22.1354840 121.2552510  24.2904860  21.8542060 120.2881530  23.1602290
  15.0891790 105.8824440  16.8561660  14.9606420 105.8742340  17.8046580
  14.2653810 106.2207530  16.5052670  22.7644700 119.0525480  22.3308890
  23.4066930 118.3518640  22.4441060  23.2894050 119.8323920  22.1505780
  26.6100420 119.3374100  12.0548030  26.3838000 118.6204540  12.6472670
  26.2196620 119.0886540  11.2169780  24.5382320 119.8520380  25.5344950
  24.8738560 120.4387070  26.2122870  23.6182660 119.7213090  25.7642740
  12.3916450 123.3640960  12.8292490  12.7514090 123.9630300  12.1749760
  12.2508790 123.9100850  13.6027520  12.0885720 107.6415560  26.3168360
  11.3744240 107.8412480  26.9220970  12.5080760 106.8655130  26.6883160
  26.1916670 117.2546040  13.7162190  25.9038370 117.7158730  14.5040070
  26.9868840 116.7943810  13.9846410  12.3758310 121.6295820  27.3034890
  12.4849430 120.6890560  27.1630280  11.7238870 121.8950570  26.6548620
  20.3670900 119.9011710  28.7033010  20.0467770 119.1820950  29.2478700
  19.6929260 120.5766780  28.7769070  18.4085070 120.7472160  13.6466160
  18.3995170 121.4801850  13.0310670  17.4883430 120.5003740  13.7393120
  14.0091710 115.9687050  14.3912920  13.4019660 116.7085950  14.4008220
  14.4841060 116.0586410  13.5651120  23.5824500 110.1337870  24.0669810
  23.9505320 109.3133080  24.3949380  22.7222700 110.1939760  24.4825460
  26.9486530 109.0894810  14.8757370  26.3199690 109.1940480  14.1615600
  26.4538450 109.3091590  15.6651250  21.3944670 120.8100400  12.3091350
  21.4956650 120.6064390  11.3793330  20.4946410 120.5558680  12.5139130
  18.9170560 111.3680760  16.2915250  18.2086710 111.8367100  16.7328860
  19.2015040 110.7102770  16.9260440  20.5426490 112.7877460  24.2907780
  21.0411740 113.2623280  24.9559630  20.6849440 111.8640980  24.4977810
  22.9485990 108.0931420  17.7311040  22.8253770 108.1117550  16.7820550
  23.8970550 108.1410360  17.8509440  20.0362780 123.3286720  17.0039020
  20.2904280 123.2908110  16.0818390  19.0875260 123.2020050  16.9967270
  17.1205580 109.6765840  13.6665960  17.9696110 110.1135990  13.6006150
  16.7536850 109.9886100  14.4938020  27.7493350 109.0045420  25.1336170
  27.2466950 109.7450820  25.4729980  28.5650010 109.3929420  24.8172960
  26.0415360 114.2478600  18.5797530  25.1005500 114.2628830  18.7545220
  26.3559430 113.4614560  19.0257830  16.0197000 115.9298200  12.1401490
  16.7860270 115.8179560  12.7026920  16.0971690 115.2336170  11.4878260
  14.7143760 113.3623270  12.8234380  14.7947350 112.4150780  12.9351780
  15.6063510 113.6930150  12.9295040  28.0440940 121.4187450  20.2551790
  28.1688360 122.2418620  20.7275600  28.9106500 121.2078180  19.9075940
  15.5158470 123.5118660  19.9268920  16.2520950 122.9634120  20.1977490
  15.8999390 124.3774670  19.7874910  12.4003950 119.5792230  15.8010430
  11.4743730 119.8213370  15.7915840  12.8660380 120.4066490  15.6795180
  14.5216750 122.6964730  29.1154500  15.3229480 123.0176780  29.5289900
  14.0068570 122.3360310  29.8374410  18.6260780 122.6848970  11.7494490
  19.4189390 122.9737800  11.2976280  18.1065130 122.2541140  11.0706970
  23.3581380 118.8044600  29.0629910  22.7519540 118.8276200  28.3225660
  23.0535490 118.0727640  29.5997160  24.7881750 122.5324890  27.6739320
  25.7403500 122.4482910  27.6239560  24.6409970 123.1966600  28.3473110
  27.6790950 121.9119100  13.1731230  27.3932460 121.4984240  12.3585410
  27.4810500 122.8406810  13.0531750  12.2414560 115.1838190  28.0590550
  12.7453580 114.6045470  28.6306780  11.5021980 115.4678420  28.5966920
  19.1438180 117.9052380  11.6136840  19.0388820 117.2904730  12.3398220
  18.9762400 117.3818270  10.8299850  19.2952500 116.5909180  27.5926070
  18.5298170 117.1594180  27.5080740  19.4768460 116.2985390  26.6994300
  22.3840910 116.9672410  12.2178830  21.8351010 117.4141710  12.8621570
  23.0060170 116.4621660  12.7416500  26.4375850 118.3214510  28.1501090
  27.1785320 118.6590270  27.6468550  25.6748530 118.4906570  27.5970860
  14.2737640 113.3267780  28.9540620  14.3142980 113.0281650  29.8625850
  15.1283140 113.7275390  28.7948140  18.0516030 115.9263330  14.1144130
  18.4732450 115.7603200  14.9575520  18.1766870 115.1163560  13.6199270
  16.2143450 111.9059880  26.9215110  15.6839910 111.4150830  26.2938450
  16.8831520 112.3344080  26.3873040  20.5643670 114.9500940  11.3621230
  21.0849330 114.2349960  10.9962380  21.2112070 115.5886810  11.6621740
  25.1121510 116.3729340  26.6856300  25.5262530 116.5274420  27.5346720
  24.1772510 116.4984560  26.8482080  25.5843680 113.7125500  28.6895450
  26.1664450 112.9577820  28.6015930  25.7605450 114.2432940  27.9126930
  16.7015750 108.8722250  27.0012400  16.6072620 108.2543000  26.2763270
  16.1213140 109.5988540  26.7742310  19.4677190 107.4295490  24.0339790
  19.0194490 107.4519750  23.1885340  18.8342390 107.0314510  24.6310090
  19.8736740 116.3249820  24.6552230  20.2924850 117.1682550  24.4828470
  18.9545370 116.4621860  24.4259010  22.2100640 114.0566000  26.0390070
  22.3296850 113.4607140  26.7784910  23.0694640 114.0935690  25.6191370
  24.5488540 114.6103190  24.6152580  24.0223760 115.1345810  24.0117720
  24.8919880 115.2430580  25.2462310  16.9474930 111.9996560  11.0602290
  16.7463990 111.1363920  11.4215630  16.7766980 111.9129920  10.1223890
  17.7244160 122.6302830  25.7709960  17.1865250 123.3548890  25.4518660
  17.9778120 122.1533170  24.9807300  18.9769410 110.5987350  27.2965890
  19.5669100 110.2903200  27.9843710  18.1589650 110.1267100  27.4525790
  23.7962840 110.2153160  27.5298910  23.1078360 109.5534700  27.4648900
  24.5168860 109.7691430  27.9747370  24.4263240 106.8104790  13.5889170
  24.7065530 105.9672690  13.9448590  23.6528970 107.0427900  14.1027920
  15.7457730 109.0997180  11.0480170  16.0483630 109.1064610  10.1399320
  16.4852320 108.7495040  11.5447830  20.5806370 123.8654040  26.0296610
  20.5065070 124.7689180  26.3368980  19.6785210 123.5465940  26.0018680
  18.9642660 108.0431800  12.0336370  18.6164660 107.3655790  11.4538820
  19.1655430 107.5821310  12.8479760  21.1291700 123.0312550  13.6522970
  22.0242490 123.3697520  13.6741730  21.1609330 122.3091960  13.0247250
  14.7687860 118.4039600  11.8809970  15.2062730 118.9469270  12.5367550
  15.2535590 117.5786550  11.8906310  11.9833660 121.1928630  19.3330230
  12.3136670 120.3249690  19.1008870  12.4124660 121.3987150  20.1635190
  16.5795580 119.5237640  16.9932200  16.2791120 119.4002610  17.8936110
  16.4733070 118.6646230  16.5847930  12.4723870 122.0599220  22.0711860
  12.0354860 122.2400020  22.9036010  13.0401550 122.8173840  21.9293580
  28.1086050 121.5616220  26.3589170  27.5088040 121.6208780  25.6153090
  28.2379950 120.6221200  26.4886020  29.3487500 119.3034040  11.6958880
  28.5180460 119.3710690  12.1666110  29.5259330 120.1938160  11.3925740
  28.8043960 116.0481520  14.1993080  29.5662870 116.6178170  14.3052770
  28.8198330 115.4808720  14.9701390  12.3048300 114.5719450  18.4300740
  11.6497140 114.3031090  17.7860440  13.1426250 114.4623930  17.9802720
  29.8103930 116.9031620  19.0435010  30.1812760 116.1198940  18.6370980
  30.4505860 117.5920720  18.8652310  26.7937690 118.2868200  24.4565330
  25.9797530 118.7165360  24.7191120  27.2011890 118.8986610  23.8434380
  28.8563130 116.3415890  11.3565600  29.1311970 117.2494770  11.2284820
  28.6673870 116.2778420  12.2927590  25.2538740 109.3660740  12.6519230
  25.6723620 109.1791720  11.8115890  24.9474800 108.5139790  12.9622160
  28.7528470 114.2784880  16.3495030  28.3772070 113.5112810  15.9176320
  28.0231590 114.6607580  16.8369960  13.3424230 114.9572020  22.9704080
  13.7097270 114.8699420  23.8500100  12.7735050 114.1938570  22.8710940
  28.1428090 113.4256400  25.9834550  27.9114180 113.1969150  25.0832500
  28.4032640 114.3455950  25.9379440  12.8940230 111.8681110  26.8762500
  11.9996280 111.8347870  27.2156210  13.4337780 112.0667900  27.6413750
  26.5816160 108.6512830  28.7614250  27.4586340 108.6596230  29.1448250
  26.5937000 107.9143670  28.1506600  11.5186380 111.7818380  14.3726070
  10.6150460 112.0448580  14.1977730  12.0027000 112.0529550  13.5926030
  28.0279430 112.5042370  19.6502270  28.5516910 112.0105020  19.0192440
  28.6138850 112.6392730  20.3949840  28.2069150 112.5882240  23.1721820
  27.2571860 112.5545780  23.2866810  28.3882160 113.4982350  22.9371590
  14.0613590 110.8383920  12.2820450  14.7705290 110.4167140  11.7967730
  13.3453530 110.9059150  11.6503800  13.7087750 106.8923250  11.3223100
  14.4315880 107.4332190  11.6404320  13.9812270 106.6186670  10.4464640
  27.5179400 111.7615720  15.5894680  28.0138520 111.5286590  16.3743560
  27.3195470 110.9227560  15.1732320  13.3979940 106.1429440  21.2245720
  14.0456130 105.5926820  20.7840880  13.8181780 106.3972590  22.0461530
  28.9466560 110.3976670  18.1232360  28.8365840 110.2432710  19.0614630
  29.7074150 109.8697610  17.8807770  27.2932280 106.3370800  24.5815360
  27.9304500 106.9504940  24.9474550  27.4407170 106.3731460  23.6364590
  29.8356830 108.2284590  11.3638500  30.7606140 108.0965770  11.1556790
  29.8132620 108.3077410  12.3174950  29.9095320 108.9995250  13.9895210
  29.1146820 108.9340370  14.5188120  30.1138600 109.9345890  13.9780560
  26.8513740 123.0386800  17.9833600  27.4472810 122.7171370  17.3068020
  27.1091890 122.5658620  18.7746870  13.1511940 106.2985110  23.9671040
  12.8026760 106.7548930  24.7329220  12.8199640 105.4042240  24.0493470
  14.7576310 119.4704710  28.1324230  14.7145940 119.0997620  29.0138690
  14.8887320 120.4082280  28.2726050  18.4582340 121.0264300  23.7333950
  18.2173700 121.2938860  22.8464470  19.3984980 121.1970030  23.7884810
  20.6636760 107.4896990  27.4890460  20.6025650 108.0818820  28.2385870
  21.6037140 107.3822950  27.3440720  23.3011320 107.1467050  27.1282750
  23.9151730 107.4646340  26.4663830  23.8460880 106.6615640  27.7478610
  29.7186500 123.0458680  24.5344590  29.2244780 123.4427550  23.8171720
  29.1099790 122.4207890  24.9281870  13.8232580 105.8261310  27.2421810
  14.3715570 105.6449360  26.4787920  13.8887890 105.0355420  27.7778120
  14.5964340 122.4166960  25.2522010  14.0024660 122.2851660  25.9912050
  14.5888180 121.5805100  24.7864110  24.0419360 105.7099190  23.4552040
  23.1679200 106.0434300  23.2524970  23.9330110 105.2372370  24.2803910
  24.9491340 107.9170060  24.8393760  24.6204700 107.1021820  24.4595490
  25.8973640 107.8739870  24.7159450  27.4025950 123.6882100  21.8131330
  26.9428920 124.4397910  21.4389350  26.7738410 122.9688570  21.7546130
  14.2276570 119.7825340  24.2030050  13.5010630 119.1630630  24.1356000
  14.2885720 120.1765950  23.3328130  17.8321670 121.9970340  20.9879460
  18.3486690 121.3857700  20.4627720  18.4819050 122.4999120  21.4790470
  20.5717170 122.8878830  21.8148440  20.8594980 122.6333130  20.9381450
  21.0840390 122.3356190  22.4054010  21.7894180 106.6269030  22.3944950
  21.0065970 107.1014530  22.6741710  21.4957110 105.7223860  22.2858130
  26.3415250 107.3292130  20.4394040  26.7823340 107.2737230  19.5915640
  26.0722840 108.2450140  20.5104220  28.2053820 106.9607370  18.4502860
  28.1442220 106.0168590  18.3033880  28.9845850 107.0687460  18.9956320
  12.5106570 123.0999730  17.4126810  12.3428610 122.4670410  18.1108700
  11.6441080 123.3059130  17.0621000  13.1334590 106.9316510  14.9158670
  13.8913950 107.0445390  14.3422700  12.6711760 107.7685710  14.8702100
  19.6748400 109.0455780  17.9060980  18.8622910 108.6712670  17.5656860
  20.1790040 108.2900860  18.2082170  24.1773380 105.7098230  19.1444050
  24.7802750 106.2818440  19.6192570  23.4366370 106.2737670  18.9217950
  27.3207980 106.1119790  14.4184330  27.5158610 107.0103240  14.6851760
  26.5337850 105.8806870  14.9117280  14.1169270 121.7932960  14.8576950
  13.5916890 122.1740990  14.1538910  14.0413850 122.4183730  15.5786660
  15.5059740 107.4580560  13.4560640  16.0352500 106.6710360  13.3268590
  16.1388060 108.1371750  13.6896170  17.6997580 107.1955700  16.5106030
  17.0700320 106.4943010  16.6776160  17.1602720 107.9559830  16.2939190
  20.6389530 123.8094930  29.1816640  21.5656840 123.5739200  29.2252600
  20.6239960 124.6366930  28.7002670  28.8734590 123.3520500  16.1790890
  29.0486780 122.6658240  15.5351810  28.1756160 123.8767550  15.7867560
  17.8253140 106.4739680  28.9458520  17.5437410 106.9773280  28.1819340
  18.2072840 105.6761430  28.5800650  16.7162240 123.7415340  13.7326200
  17.4481060 123.4574620  13.1850090  16.9755910 123.5028620  14.6225580
  15.8777030 119.8580070  13.7372530  15.2485910 120.3265170  14.2858360
  15.9924860 119.0129290  14.1718720  24.4268600 105.8893260  29.5238990
  24.3134050 106.2087870  30.4190510  25.2438340 106.2905770  29.2276270
  27.2067090 123.0364790  29.0057680  27.9992410 122.5414020  28.7983640
  27.5000240 123.7154930  29.6133290  21.4644790 115.6864750   1.7683000
  20.6886890 115.2065190   2.0581570  22.1157720 115.0070400   1.5939160
  15.4810620 115.9984560   2.6458760  14.6495500 115.7433270   3.0455270
  16.0891600 116.0695330   3.3816680  15.4611880 120.0324650   2.8416780
  15.7639920 119.1422390   2.6627000  16.2055470 120.5894870   2.6139030
  20.9053780 118.3621940   1.7753160  20.8362060 117.4211880   1.6142290
  21.6673640 118.4523350   2.3475730  13.0960450 108.9676460   4.1009780
  12.9163290 108.0702210   4.3812540  12.6940530 109.5148330   4.7756730
  13.7147120 111.4636960   2.7092120  14.3957230 111.7275330   3.3279520
  13.3995170 110.6237830   3.0430130  17.9071690 112.5104320   1.7964710
  18.4149910 113.0085290   2.4369730  18.4384930 111.7339520   1.6204070
  30.0082620 110.6809510   5.4994060  29.3034790 111.0691220   4.9809170
  30.2740540 111.3759800   6.1014990  16.1907790 107.1502880   6.0628130
  16.1926230 107.6675270   5.2574030  15.3612100 106.6733060   6.0398060
  17.4410640 116.7898060   4.2401630  17.1080020 117.4166980   4.8822700
  17.6177320 117.3159940   3.4603300  15.8723120 108.8612840   4.0698580
  16.2139930 109.7054890   3.7752450  14.9338930 109.0096580   4.1863920
  16.6529740 118.7578860   6.0550810  17.2703740 119.4329940   5.7735260
  15.7922860 119.1666840   5.9638310  27.5707330 120.2218270   3.9705450
  26.8870850 120.8917380   3.9622120  28.1101620 120.4198920   3.2050310
  29.0231470 110.0497930   2.0987180  28.0756380 110.0836910   2.2302610
  29.3481460 110.8636880   2.4836540  25.1066070 122.0662400   2.6850630
  25.1193230 121.6624690   1.8172890  24.5541290 122.8409690   2.5812060
  24.5051510 116.9692240   4.0133240  24.9220300 116.7552350   3.1786700
  25.2291330 117.2265030   4.5841860  28.4513610 115.3679460   4.1049480
  27.6232240 115.4372550   3.6299610  29.0464090 115.9533770   3.6365310
  25.4155620 112.1548780   5.0504350  25.0026800 112.9802490   5.3044340
  24.6831570 111.5693820   4.8580710  16.2617030 111.7151890   3.6922060
  16.8131620 111.8247230   2.9175310  16.7760540 112.0889490   4.4077290
  26.1055720 122.2008110   5.7385330  25.6286280 123.0080300   5.5457940
  25.4217510 121.5486440   5.8911540  17.1088540 118.3657930   8.7270030
  16.2117070 118.5897900   8.9743430  17.1341410 118.4892870   7.7781430
  15.9359760 115.2371250   7.3027400  15.7967530 116.1094050   7.6714800
  15.0541120 114.8944060   7.1575340  17.7340110 121.1792950   9.5112550
  17.7055540 121.5835900   8.6440980  17.5705080 120.2503310   9.3484150
  29.6854930 121.9620050  10.8076720  30.1614650 122.4402940  11.4865800
  30.3062090 121.8937540  10.0822220  11.8878410 117.0068800   3.2198310
  11.9658830 117.1417570   2.2754030  12.5020090 116.2984690   3.4126430
  29.0888180 119.1532900   7.9676730  29.2151240 118.9144780   7.0493910
  29.1309560 118.3217440   8.4398810  22.9504920 122.8560900   6.5371540
  23.4649590 122.7668910   7.3393970  22.1074000 123.2020600   6.8299450
  28.9412190 111.2065360   8.9326470  28.3256460 111.7145030   8.4041930
  28.6208610 110.3063690   8.8752410  11.9437930 118.0482970   5.7592770
  12.1068970 117.5788330   4.9412140  12.4090380 117.5406530   6.4241610
  21.0026510 110.0457250   6.3988660  20.5405880 110.2540270   7.2108600
  20.6004620 109.2316600   6.0959330  26.0031020 111.2666200   7.5285320
  25.1524610 110.9671950   7.8494390  25.8432810 111.5108210   6.6169140
  23.0980730 112.7667950   9.6284110  23.4234140 111.9331700   9.2886340
  23.8861060 113.2896470   9.7762440  18.7532600 107.7236060   2.6542940
  19.0504930 108.6298890   2.5734960  19.3018160 107.2354840   2.0402510
  18.9470130 113.2007880   9.1894860  18.8513730 112.2602610   9.0395260
  19.7902110 113.4222950   8.7942930  14.0780670 109.6121550   7.3428640
  13.6844060 110.4596760   7.5501420  13.3899070 108.9747920   7.5337280
  20.6525720 109.6956520  10.4125380  19.9624040 109.5028720  11.0471470
  21.3958020 109.9791160  10.9449680  22.9288690 113.5354960   3.2479300
  22.1969810 114.0441770   3.5969400  22.5313030 112.7184940   2.9468080
  23.3914600 108.9888640   2.6602240  23.4087340 109.4397290   3.5044090
  23.1430180 108.0894280   2.8735680  26.8185350 106.4020820   8.4988620
  27.1431120 105.6710480   9.0246600  26.8541860 106.0834460   7.5969610
  13.5176910 117.4234400   7.9188580  13.1331700 116.7828070   8.5171540
  13.8289100 118.1270520   8.4883310  19.6674050 114.2710940   3.3997200
  20.0344180 113.7969510   4.1458540  19.4779110 115.1452510   3.7405540
  17.4573420 113.3119580   5.7181410  17.1530490 114.1911560   5.9431770
  18.4119880 113.3719370   5.7538850  26.7443190 116.5145930   2.1074650
  27.4642310 117.0101220   1.7170760  26.5425010 115.8363820   1.4628520
  22.1261990 116.5854990   7.9943650  22.0599300 115.6650660   7.7401240
  21.4967130 116.6830430   8.7088290  13.5137150 114.1522320   6.8652770
  13.1552090 114.8176170   7.4526110  13.2191710 113.3205870   7.2365390
  16.7150270 114.6106560   9.7492320  16.4150410 114.7563740   8.8520140
  17.4861510 114.0511850   9.6565710  22.0578720 119.4075560   7.7447450
  22.0723260 118.4756520   7.5266360  21.3503820 119.4935320   8.3837220
  28.2689930 116.0482900   7.0916030  27.5438120 116.6411680   6.8945420
  28.7965390 116.0406440   6.2929400  21.4912620 121.0493130   4.8387950
  22.1354840 121.2552510   5.5161370  21.8542060 120.2881530   4.3858800
  22.7644700 119.0525480   3.5565400  23.4066930 118.3518640   3.6697570
  23.2894050 119.8323920   3.3762290  24.5382320 119.8520380   6.7601460
  24.8738560 120.4387070   7.4379380  23.6182660 119.7213090   6.9899250
  12.0885720 107.6415560   7.5424870  11.3744240 107.8412480   8.1477480
  12.5080760 106.8655130   7.9139670  12.3758310 121.6295820   8.5291400
  12.4849430 120.6890560   8.3886790  11.7238870 121.8950570   7.8805130
  20.3670900 119.9011710   9.9289520  20.0467770 119.1820950  10.4735210
  19.6929260 120.5766780  10.0025580  23.5824500 110.1337870   5.2926320
  23.9505320 109.3133080   5.6205890  22.7222700 110.1939760   5.7081970
  20.5426490 112.7877460   5.5164290  21.0411740 113.2623280   6.1816140
  20.6849440 111.8640980   5.7234320  27.7493350 109.0045420   6.3592680
  27.2466950 109.7450820   6.6986490  28.5650010 109.3929420   6.0429470
  14.5216750 122.6964730  10.3411010  15.3229480 123.0176780  10.7546410
  14.0068570 122.3360310  11.0630920  23.3581380 118.8044600  10.2886420
  22.7519540 118.8276200   9.5482170  23.0535490 118.0727640  10.8253670
  24.7881750 122.5324890   8.8995830  25.7403500 122.4482910   8.8496070
  24.6409970 123.1966600   9.5729620  12.2414560 115.1838190   9.2847060
  12.7453580 114.6045470   9.8563290  11.5021980 115.4678420   9.8223430
  19.2952500 116.5909180   8.8182580  18.5298170 117.1594180   8.7337250
  19.4768460 116.2985390   7.9250810  26.4375850 118.3214510   9.3757600
  27.1785320 118.6590270   8.8725060  25.6748530 118.4906570   8.8227370
  14.2737640 113.3267780  10.1797130  14.3142980 113.0281650  11.0882360
  15.1283140 113.7275390  10.0204650  16.2143450 111.9059880   8.1471620
  15.6839910 111.4150830   7.5194960  16.8831520 112.3344080   7.6129550
  25.1121510 116.3729340   7.9112810  25.5262530 116.5274420   8.7603230
  24.1772510 116.4984560   8.0738590  25.5843680 113.7125500   9.9151960
  26.1664450 112.9577820   9.8272440  25.7605450 114.2432940   9.1383440
  16.7015750 108.8722250   8.2268910  16.6072620 108.2543000   7.5019780
  16.1213140 109.5988540   7.9998820  19.4677190 107.4295490   5.2596300
  19.0194490 107.4519750   4.4141850  18.8342390 107.0314510   5.8566600
  19.8736740 116.3249820   5.8808740  20.2924850 117.1682550   5.7084980
  18.9545370 116.4621860   5.6515520  22.2100640 114.0566000   7.2646580
  22.3296850 113.4607140   8.0041420  23.0694640 114.0935690   6.8447880
  24.5488540 114.6103190   5.8409090  24.0223760 115.1345810   5.2374230
  24.8919880 115.2430580   6.4718820  17.7244160 122.6302830   6.9966470
  17.1865250 123.3548890   6.6775170  17.9778120 122.1533170   6.2063810
  18.9769410 110.5987350   8.5222400  19.5669100 110.2903200   9.2100220
  18.1589650 110.1267100   8.6782300  23.7962840 110.2153160   8.7555420
  23.1078360 109.5534700   8.6905410  24.5168860 109.7691430   9.2003880
  20.5806370 123.8654040   7.2553120  20.5065070 124.7689180   7.5625490
  19.6785210 123.5465940   7.2275190  12.4723870 122.0599220   3.2968370
  12.0354860 122.2400020   4.1292520  13.0401550 122.8173840   3.1550090
  28.1086050 121.5616220   7.5845680  27.5088040 121.6208780   6.8409600
  28.2379950 120.6221200   7.7142530  26.7937690 118.2868200   5.6821840
  25.9797530 118.7165360   5.9447630  27.2011890 118.8986610   5.0690890
  13.3424230 114.9572020   4.1960590  13.7097270 114.8699420   5.0756610
  12.7735050 114.1938570   4.0967450  28.1428090 113.4256400   7.2091060
  27.9114180 113.1969150   6.3089010  28.4032640 114.3455950   7.1635950
  12.8940230 111.8681110   8.1019010  11.9996280 111.8347870   8.4412720
  13.4337780 112.0667900   8.8670260  26.5816160 108.6512830   9.9870760
  27.4586340 108.6596230  10.3704760  26.5937000 107.9143670   9.3763110
  28.2069150 112.5882240   4.3978330  27.2571860 112.5545780   4.5123320
  28.3882160 113.4982350   4.1628100  13.3979940 106.1429440   2.4502230
  14.0456130 105.5926820   2.0097390  13.8181780 106.3972590   3.2718040
  27.2932280 106.3370800   5.8071870  27.9304500 106.9504940   6.1731060
  27.4407170 106.3731460   4.8621100  13.1511940 106.2985110   5.1927550
  12.8026760 106.7548930   5.9585730  12.8199640 105.4042240   5.2749980
  14.7576310 119.4704710   9.3580740  14.7145940 119.0997620  10.2395200
  14.8887320 120.4082280   9.4982560  18.4582340 121.0264300   4.9590460
  18.2173700 121.2938860   4.0720980  19.3984980 121.1970030   5.0141320
  20.6636760 107.4896990   8.7146970  20.6025650 108.0818820   9.4642380
  21.6037140 107.3822950   8.5697230  23.3011320 107.1467050   8.3539260
  23.9151730 107.4646340   7.6920340  23.8460880 106.6615640   8.9735120
  29.7186500 123.0458680   5.7601100  29.2244780 123.4427550   5.0428230
  29.1099790 122.4207890   6.1538380  13.8232580 105.8261310   8.4678320
  14.3715570 105.6449360   7.7044430  13.8887890 105.0355420   9.0034630
  14.5964340 122.4166960   6.4778520  14.0024660 122.2851660   7.2168560
  14.5888180 121.5805100   6.0120620  24.0419360 105.7099190   4.6808550
  23.1679200 106.0434300   4.4781480  23.9330110 105.2372370   5.5060420
  24.9491340 107.9170060   6.0650270  24.6204700 107.1021820   5.6852000
  25.8973640 107.8739870   5.9415960  27.4025950 123.6882100   3.0387840
  26.9428920 124.4397910   2.6645860  26.7738410 122.9688570   2.9802640
  14.2276570 119.7825340   5.4286560  13.5010630 119.1630630   5.3612510
  14.2885720 120.1765950   4.5584640  17.8321670 121.9970340   2.2135970
  18.3486690 121.3857700   1.6884230  18.4819050 122.4999120   2.7046980
  20.5717170 122.8878830   3.0404950  20.8594980 122.6333130   2.1637960
  21.0840390 122.3356190   3.6310520  21.7894180 106.6269030   3.6201460
  21.0065970 107.1014530   3.8998220  21.4957110 105.7223860   3.5114640
  20.6389530 123.8094930  10.4073150  21.5656840 123.5739200  10.4509110
  20.6239960 124.6366930   9.9259180  17.8253140 106.4739680  10.1715030
  17.5437410 106.9773280   9.4075850  18.2072840 105.6761430   9.8057160
  24.4268600 105.8893260  10.7495500  24.3134050 106.2087870  11.6447020
  25.2438340 106.2905770  10.4532780  27.2067090 123.0364790  10.2314190
  27.9992410 122.5414020  10.0240150  27.5000240 123.7154930  10.8389800
  23.3326750  95.1342240 150.0821650  23.2520800  94.2196850 149.8113360
  22.9191170  95.6309310 149.3761360  25.4852220 101.3181450 150.7430050
  25.0233750 100.5468690 151.0717220  26.2977770 101.3447520 151.2482500
  13.8902570  92.1842960 146.6249070  13.0019270  92.5258930 146.5228950
  14.1743760  91.9843280 145.7329900  21.7115530 103.6039460 150.3634040
  21.0926970 104.0596960 149.7928480  22.5667310 103.7590920 149.9623740
  16.0663960  90.7674460 147.6587450  16.1730710  91.6678190 147.9656210
  15.1556320  90.7192430 147.3682100  25.7183070  89.8899270 149.1298350
  26.5392690  89.3995840 149.1723830  25.7517150  90.4796930 149.8830190
  22.5778880  98.4878700 147.7565950  21.9596150  98.9528150 147.1928670
  23.0902130  99.1806180 148.1735460  11.9462080  99.1735230 145.1305580
  11.5690060  99.6622330 144.3990480  12.2035150  99.8460510 145.7612110
  19.5551010  87.5751620 150.5891090  19.8625990  87.0198510 149.8726590
  18.6251710  87.7096080 150.4064080  26.4011490 100.0135130 147.9688720
  26.2907820  99.0709460 148.0938140  26.3979740 100.3750770 148.8551480
  21.9431770  95.6400450 147.3251210  21.0161050  95.5737830 147.5539680
  22.0956590  96.5780580 147.2106450  21.9300850  91.9117450 144.3218370
  20.9904520  92.0731410 144.4070830  22.2484110  92.6303130 143.7754360
  25.9729060  97.2020750 147.8286460  25.3541480  96.8640300 147.1812760
  25.9553510  96.5580510 148.5365650  17.5488410  96.1665190 150.1070940
  17.1445410  95.4542440 149.6116840  17.6351530  95.8218430 150.9958980
  24.1493760  96.4407560 144.8359210  24.5887040  95.6029990 144.6897030
  24.8622180  97.0736960 144.9223350  22.2589140 101.3803630 148.8040450
  22.6985050 102.1227960 148.3895840  22.1976030 101.6230200 149.7279410
  27.7310900  87.6950370 143.1500250  27.4183560  87.7877200 144.0499320
  28.4923370  88.2731400 143.0997680  14.2493040  95.0610170 147.6077590
  14.1290640  95.7872260 146.9958860  13.9393930  94.2913080 147.1305500
  13.1326040  99.9325500 149.8252410  12.7254120 100.0740090 148.9706010
  14.0239050  99.6485660 149.6223620  24.9259320 104.3672750 146.1603460
  24.7660460 104.0775690 147.0585290  24.7606030 103.5912880 145.6248690
  17.4047700 104.1471280 147.9375080  17.2290180 103.2306820 147.7242880
  16.5503440 104.5058570 148.1772880  24.6285450 101.8760310 144.7201460
  23.9350610 101.8737600 144.0603740  25.3708310 101.4519630 144.2895630
  24.1935380 103.5023020 148.7949950  24.6492330 102.7212400 149.1088570
  24.5327900 104.2129840 149.3391130  16.7156700  88.4045240 150.9901260
  16.2724850  89.1854780 150.6585780  17.2741690  88.7275130 151.6972200
  19.8315520  88.0255940 145.8707090  19.2069700  88.0215810 146.5960400
  19.7445640  87.1586900 145.4743060  16.5070920  93.5278810 148.7182510
  16.2811840  93.3115980 149.6229130  15.7263450  93.9607270 148.3728480
  23.7368680  93.5342180 147.3173160  23.1377570  94.2577980 147.1336780
  24.2848290  93.4718960 146.5349610  22.3433550  92.1705720 149.3476440
  22.7363120  92.4877920 148.5345130  22.7050400  91.2917600 149.4620960
  11.5667950  92.7026640 142.7809360  11.4842620  93.6457400 142.9224350
  11.2151010  92.5601550 141.9021710  15.2168460  91.3192160 150.8073920
  14.8768510  91.7967390 151.5640970  14.4545780  90.8657280 150.4475020
  19.4286230  92.4377750 144.8386470  19.5499050  92.3964230 145.7872290
  19.0434740  93.3001900 144.6833200  18.4407730  94.7478890 144.2369770
  17.8724630  94.2997140 143.6105680  19.1496730  95.1071670 143.7034920
  12.5314540  90.2411140 149.7238590  12.2461460  89.8766810 150.5617210
  12.4693400  89.5091600 149.1101730  15.9855210  98.7437080 146.5096180
  15.2117470  98.2034700 146.3494900  16.7149840  98.2243690 146.1713940
  22.2053130  89.1340400 146.4451960  21.3917740  88.6353570 146.3697270
  22.0115080  89.9738650 146.0288310  24.9201520  93.5060050 144.7414120
  25.8081140  93.8177280 144.5665460  24.8906610  92.6332300 144.3494700
  16.0292610  98.4117460 150.1474990  16.5471280  97.6085720 150.0931880
  15.5776630  98.3496600 150.9891820  20.9162110  99.6783740 145.4202290
  21.2577810 100.4225970 144.9245610  20.0874820  99.9914860 145.7827120
  27.1915790  94.8171890 144.2093980  27.1079510  95.2486110 143.3590420
  27.9109980  95.2770240 144.6420800  28.2203040 101.6714150 146.9376110
  27.5779200 101.0169770 147.2119830  27.8333700 102.0769240 146.1616780
  23.7989520  98.9999580 150.7847800  24.1513340  98.4027710 150.1249170
  22.9151850  98.6743810 150.9556050  19.8852800  99.7597270 148.1918210
  20.5723930 100.3066480 148.5725800  19.0985220 100.3038000 148.2267820
  12.0245200  95.3770090 143.6835290  12.8940050  95.6594890 143.9671210
  11.5335520  96.1905960 143.5684100  19.1880010  96.7643300 147.8043570
  19.6442790  97.5748550 148.0303760  18.8368220  96.4466440 148.6362060
  15.0891790  87.1080950 148.2766090  14.9606420  87.0998850 149.2251010
  14.2653810  87.4464040 147.9257100  26.6100420 100.5630610 143.4752460
  26.3838000  99.8461050 144.0677100  26.2196620 100.3143050 142.6374210
  12.3916450 104.5897470 144.2496920  12.7514090 105.1886810 143.5954190
  12.2508790 105.1357360 145.0231950  26.1916670  98.4802550 145.1366620
  25.9038370  98.9415240 145.9244500  26.9868840  98.0200320 145.4050840
  18.4085070 101.9728670 145.0670590  18.3995170 102.7058360 144.4515100
  17.4883430 101.7260250 145.1597550  14.0091710  97.1943560 145.8117350
  13.4019660  97.9342460 145.8212650  14.4841060  97.2842920 144.9855550
  26.9486530  90.3151320 146.2961800  26.3199690  90.4196990 145.5820030
  26.4538450  90.5348100 147.0855680  21.3944670 102.0356910 143.7295780
  21.4956650 101.8320900 142.7997760  20.4946410 101.7815190 143.9343560
  18.9170560  92.5937270 147.7119680  18.2086710  93.0623610 148.1533290
  19.2015040  91.9359280 148.3464870  22.9485990  89.3187930 149.1515470
  22.8253770  89.3374060 148.2024980  23.8970550  89.3666870 149.2713870
  20.0362780 104.5543230 148.4243450  20.2904280 104.5164620 147.5022820
  19.0875260 104.4276560 148.4171700  17.1205580  90.9022350 145.0870390
  17.9696110  91.3392500 145.0210580  16.7536850  91.2142610 145.9142450
  26.0415360  95.4735110 150.0001960  25.1005500  95.4885340 150.1749650
  26.3559430  94.6871070 150.4462260  16.0197000  97.1554710 143.5605920
  16.7860270  97.0436070 144.1231350  16.0971690  96.4592680 142.9082690
  14.7143760  94.5879780 144.2438810  14.7947350  93.6407290 144.3556210
  15.6063510  94.9186660 144.3499470  15.5158470 104.7375170 151.3473350
  16.2520950 104.1890630 151.6181920  15.8999390 105.6031180 151.2079340
  12.4003950 100.8048740 147.2214860  11.4743730 101.0469880 147.2120270
  12.8660380 101.6323000 147.0999610  18.6260780 103.9105480 143.1698920
  19.4189390 104.1994310 142.7180710  18.1065130 103.4797650 142.4911400
  27.6790950 103.1375610 144.5935660  27.3932460 102.7240750 143.7789840
  27.4810500 104.0663320 144.4736180  19.1438180  99.1308890 143.0341270
  19.0388820  98.5161240 143.7602650  18.9762400  98.6074780 142.2504280
  22.3840910  98.1928920 143.6383260  21.8351010  98.6398220 144.2826000
  23.0060170  97.6878170 144.1620930  18.0516030  97.1519840 145.5348560
  18.4732450  96.9859710 146.3779950  18.1766870  96.3420070 145.0403700
  20.5643670  96.1757450 142.7825660  21.0849330  95.4606470 142.4166810
  21.2112070  96.8143320 143.0826170  16.9474930  93.2253070 142.4806720
  16.7463990  92.3620430 142.8420060  16.7766980  93.1386430 141.5428320
  24.4263240  88.0361300 145.0093600  24.7065530  87.1929200 145.3653020
  23.6528970  88.2684410 145.5232350  15.7457730  90.3253690 142.4684600
  16.0483630  90.3321120 141.5603750  16.4852320  89.9751550 142.9652260
  18.9642660  89.2688310 143.4540800  18.6164660  88.5912300 142.8743250
  19.1655430  88.8077820 144.2684190  21.1291700 104.2569060 145.0727400
  22.0242490 104.5954030 145.0946160  21.1609330 103.5348470 144.4451680
  14.7687860  99.6296110 143.3014400  15.2062730 100.1725780 143.9571980
  15.2535590  98.8043060 143.3110740  11.9833660 102.4185140 150.7534660
  12.3136670 101.5506200 150.5213300  12.4124660 102.6243660 151.5839620
  16.5795580 100.7494150 148.4136630  16.2791120 100.6259120 149.3140540
  16.4733070  99.8902740 148.0052360  29.3487500 100.5290550 143.1163310
  28.5180460 100.5967200 143.5870540  29.5259330 101.4194670 142.8130170
  28.8043960  97.2738030 145.6197510  29.5662870  97.8434680 145.7257200
  28.8198330  96.7065230 146.3905820  12.3048300  95.7975960 149.8505170
  11.6497140  95.5287600 149.2064870  13.1426250  95.6880440 149.4007150
  29.8103930  98.1288130 150.4639440  30.1812760  97.3455450 150.0575410
  30.4505860  98.8177230 150.2856740  28.8563130  97.5672400 142.7770030
  29.1311970  98.4751280 142.6489250  28.6673870  97.5034930 143.7132020
  25.2538740  90.5917250 144.0723660  25.6723620  90.4048230 143.2320320
  24.9474800  89.7396300 144.3826590  28.7528470  95.5041390 147.7699460
  28.3772070  94.7369320 147.3380750  28.0231590  95.8864090 148.2574390
  11.5186380  93.0074890 145.7930500  10.6150460  93.2705090 145.6182160
  12.0027000  93.2786060 145.0130460  14.0613590  92.0640430 143.7024880
  14.7705290  91.6423650 143.2172160  13.3453530  92.1315660 143.0708230
  13.7087750  88.1179760 142.7427530  14.4315880  88.6588700 143.0608750
  13.9812270  87.8443180 141.8669070  27.5179400  92.9872230 147.0099110
  28.0138520  92.7543100 147.7947990  27.3195470  92.1484070 146.5936750
  28.9466560  91.6233180 149.5436790  28.8365840  91.4689220 150.4819060
  29.7074150  91.0954120 149.3012200  29.8356830  89.4541100 142.7842930
  30.7606140  89.3222280 142.5761220  29.8132620  89.5333920 143.7379380
  29.9095320  90.2251760 145.4099640  29.1146820  90.1596880 145.9392550
  30.1138600  91.1602400 145.3984990  26.8513740 104.2643310 149.4038030
  27.4472810 103.9427880 148.7272450  27.1091890 103.7915130 150.1951300
  28.2053820  88.1863880 149.8707290  28.1442220  87.2425100 149.7238310
  28.9845850  88.2943970 150.4160750  12.5106570 104.3256240 148.8331240
  12.3428610 103.6926920 149.5313130  11.6441080 104.5315640 148.4825430
  13.1334590  88.1573020 146.3363100  13.8913950  88.2701900 145.7627130
  12.6711760  88.9942220 146.2906530  19.6748400  90.2712290 149.3265410
  18.8622910  89.8969180 148.9861290  20.1790040  89.5157370 149.6286600
  24.1773380  86.9354740 150.5648480  24.7802750  87.5074950 151.0397000
  23.4366370  87.4994180 150.3422380  27.3207980  87.3376300 145.8388760
  27.5158610  88.2359750 146.1056190  26.5337850  87.1063380 146.3321710
  14.1169270 103.0189470 146.2781380  13.5916890 103.3997500 145.5743340
  14.0413850 103.6440240 146.9991090  15.5059740  88.6837070 144.8765070
  16.0352500  87.8966870 144.7473020  16.1388060  89.3628260 145.1100600
  17.6997580  88.4212210 147.9310460  17.0700320  87.7199520 148.0980590
  17.1602720  89.1816340 147.7143620  28.8734590 104.5777010 147.5995320
  29.0486780 103.8914750 146.9556240  28.1756160 105.1024060 147.2071990
  16.7162240 104.9671850 145.1530630  17.4481060 104.6831130 144.6054520
  16.9755910 104.7285130 146.0430010  15.8777030 101.0836580 145.1576960
  15.2485910 101.5521680 145.7062790  15.9924860 100.2385800 145.5923150
  23.3326750  95.1342240 131.3078160  23.2520800  94.2196850 131.0369870
  22.9191170  95.6309310 130.6017870  21.4644790  96.9121260 133.1887430
  20.6886890  96.4321700 133.4786000  22.1157720  96.2326910 133.0143590
  15.4810620  97.2241070 134.0663190  14.6495500  96.9689780 134.4659700
  16.0891600  97.2951840 134.8021110  25.4852220 101.3181450 131.9686560
  25.0233750 100.5468690 132.2973730  26.2977770 101.3447520 132.4739010
  15.4611880 101.2581160 134.2621210  15.7639920 100.3678900 134.0831430
  16.2055470 101.8151380 134.0343460  13.8902570  92.1842960 127.8505580
  13.0019270  92.5258930 127.7485460  14.1743760  91.9843280 126.9586410
  11.8535580  94.7848610 133.7345280  12.4251690  94.0170810 133.7348920
  11.8537120  95.0837370 132.8251890  21.7115530 103.6039460 131.5890550
  21.0926970 104.0596960 131.0184990  22.5667310 103.7590920 131.1880250
  20.9053780  99.5878450 133.1957590  20.8362060  98.6468390 133.0346720
  21.6673640  99.6779860 133.7680160  13.0960450  90.1932970 135.5214210
  12.9163290  89.2958720 135.8016970  12.6940530  90.7404840 136.1961160
  21.9358950  92.3948830 133.4226520  22.3123770  91.5220710 133.3100190
  21.8378460  92.7307530 132.5316960  16.0663960  90.7674460 128.8843960
  16.1730710  91.6678190 129.1912720  15.1556320  90.7192430 128.5938610
  25.7183070  89.8899270 130.3554860  26.5392690  89.3995840 130.3980340
  25.7517150  90.4796930 131.1086700  13.7147120  92.6893470 134.1296550
  14.3957230  92.9531840 134.7483950  13.3995170  91.8494340 134.4634560
  17.9071690  93.7360830 133.2169140  18.4149910  94.2341800 133.8574160
  18.4384930  92.9596030 133.0408500  30.0082620  91.9066020 136.9198490
  29.3034790  92.2947730 136.4013600  30.2740540  92.6016310 137.5219420
  16.1907790  88.3759390 137.4832560  16.1926230  88.8931780 136.6778460
  15.3612100  87.8989570 137.4602490  22.5778880  98.4878700 128.9822460
  21.9596150  98.9528150 128.4185180  23.0902130  99.1806180 129.3991970
  17.4410640  98.0154570 135.6606060  17.1080020  98.6423490 136.3027130
  17.6177320  98.5416450 134.8807730  25.9544550  91.8299650 133.1282400
  25.2500120  92.1184540 133.7085510  26.3156710  92.6399760 132.7681960
  15.8723120  90.0869350 135.4903010  16.2139930  90.9311400 135.1956880
  14.9338930  90.2353090 135.6068350  16.6529740  99.9835370 137.4755240
  17.2703740 100.6586450 137.1939690  15.7922860 100.3923350 137.3842740
  11.9462080  99.1735230 126.3562090  11.5690060  99.6622330 125.6246990
  12.2035150  99.8460510 126.9868620  27.5707330 101.4474780 135.3909880
  26.8870850 102.1173890 135.3826550  28.1101620 101.6455430 134.6254740
  29.0231470  91.2754440 133.5191610  28.0756380  91.3093420 133.6507040
  29.3481460  92.0893390 133.9040970  19.5551010  87.5751620 131.8147600
  19.8625990  87.0198510 131.0983100  18.6251710  87.7096080 131.6320590
  25.1066070 103.2918910 134.1055060  25.1193230 102.8881200 133.2377320
  24.5541290 104.0666200 134.0016490  26.4011490 100.0135130 129.1945230
  26.2907820  99.0709460 129.3194650  26.3979740 100.3750770 130.0807990
  24.5051510  98.1948750 135.4337670  24.9220300  97.9808860 134.5991130
  25.2291330  98.4521540 136.0046290  21.9431770  95.6400450 128.5507720
  21.0161050  95.5737830 128.7796190  22.0956590  96.5780580 128.4362960
  21.9300850  91.9117450 125.5474880  20.9904520  92.0731410 125.6327340
  22.2484110  92.6303130 125.0010870  28.4513610  96.5935970 135.5253910
  27.6232240  96.6629060 135.0504040  29.0464090  97.1790280 135.0569740
  25.9729060  97.2020750 129.0542970  25.3541480  96.8640300 128.4069270
  25.9553510  96.5580510 129.7622160  25.4155620  93.3805290 136.4708780
  25.0026800  94.2059000 136.7248770  24.6831570  92.7950330 136.2785140
  17.5488410  96.1665190 131.3327450  17.1445410  95.4542440 130.8373350
  17.6351530  95.8218430 132.2215490  18.0170110  99.8532750 133.4966660
  17.7198400  99.2478220 132.8174440  18.9669930  99.8910060 133.3856020
  16.2617030  92.9408400 135.1126490  16.8131620  93.0503740 134.3379740
  16.7760540  93.3146000 135.8281720  26.1055720 103.4264620 137.1589760
  25.6286280 104.2336810 136.9662370  25.4217510 102.7742950 137.3115970
  17.1088540  99.5914440 140.1474460  16.2117070  99.8154410 140.3947860
  17.1341410  99.7149380 139.1985860  24.1493760  96.4407560 126.0615720
  24.5887040  95.6029990 125.9153540  24.8622180  97.0736960 126.1479860
  15.9359760  96.4627760 138.7231830  15.7967530  97.3350560 139.0919230
  15.0541120  96.1200570 138.5779770  22.2589140 101.3803630 130.0296960
  22.6985050 102.1227960 129.6152350  22.1976030 101.6230200 130.9535920
  17.7340110 102.4049460 140.9316980  17.7055540 102.8092410 140.0645410
  17.5705080 101.4759820 140.7688580  27.7310900  87.6950370 124.3756760
  27.4183560  87.7877200 125.2755830  28.4923370  88.2731400 124.3254190
  14.2493040  95.0610170 128.8334100  14.1290640  95.7872260 128.2215370
  13.9393930  94.2913080 128.3562010  29.6854930 103.1876560 142.2281150
  30.1614650 103.6659450 142.9070230  30.3062090 103.1194050 141.5026650
  11.8878410  98.2325310 134.6402740  11.9658830  98.3674080 133.6958460
  12.5020090  97.5241200 134.8330860  13.1326040  99.9325500 131.0508920
  12.7254120 100.0740090 130.1962520  14.0239050  99.6485660 130.8480130
  29.0888180 100.3789410 139.3881160  29.2151240 100.1401290 138.4698340
  29.1309560  99.5473950 139.8603240  22.9504920 104.0817410 137.9575970
  23.4649590 103.9925420 138.7598400  22.1074000 104.4277110 138.2503880
  24.9259320 104.3672750 127.3859970  24.7660460 104.0775690 128.2841800
  24.7606030 103.5912880 126.8505200  17.4047700 104.1471280 129.1631590
  17.2290180 103.2306820 128.9499390  16.5503440 104.5058570 129.4029390
  24.6285450 101.8760310 125.9457970  23.9350610 101.8737600 125.2860250
  25.3708310 101.4519630 125.5152140  24.1935380 103.5023020 130.0206460
  24.6492330 102.7212400 130.3345080  24.5327900 104.2129840 130.5647640
  28.9412190  92.4321870 140.3530900  28.3256460  92.9401540 139.8246360
  28.6208610  91.5320200 140.2956840  11.9437930  99.2739480 137.1797200
  12.1068970  98.8044840 136.3616570  12.4090380  98.7663040 137.8446040
  16.7156700  88.4045240 132.2157770  16.2724850  89.1854780 131.8842290
  17.2741690  88.7275130 132.9228710  21.0026510  91.2713760 137.8193090
  20.5405880  91.4796780 138.6313030  20.6004620  90.4573110 137.5163760
  26.0031020  92.4922710 138.9489750  25.1524610  92.1928460 139.2698820
  25.8432810  92.7364720 138.0373570  23.0980730  93.9924460 141.0488540
  23.4234140  93.1588210 140.7090770  23.8861060  94.5152980 141.1966870
  19.8315520  88.0255940 127.0963600  19.2069700  88.0215810 127.8216910
  19.7445640  87.1586900 126.6999570  18.7532600  88.9492570 134.0747370
  19.0504930  89.8555400 133.9939390  19.3018160  88.4611350 133.4606940
  16.5070920  93.5278810 129.9439020  16.2811840  93.3115980 130.8485640
  15.7263450  93.9607270 129.5984990  23.7368680  93.5342180 128.5429670
  23.1377570  94.2577980 128.3593290  24.2848290  93.4718960 127.7606120
  18.9470130  94.4264390 140.6099290  18.8513730  93.4859120 140.4599690
  19.7902110  94.6479460 140.2147360  22.3433550  92.1705720 130.5732950
  22.7363120  92.4877920 129.7601640  22.7050400  91.2917600 130.6877470
  14.0780670  90.8378060 138.7633070  13.6844060  91.6853270 138.9705850
  13.3899070  90.2004430 138.9541710  20.6525720  90.9213030 141.8329810
  19.9624040  90.7285230 142.4675900  21.3958020  91.2047670 142.3654110
  11.3797720  88.7606520 132.7963150  11.0910770  89.3309380 133.5088130
  12.1243480  88.2810970 133.1594380  11.5667950  92.7026640 124.0065870
  11.4842620  93.6457400 124.1480860  11.2151010  92.5601550 123.1278220
  22.9288690  94.7611470 134.6683730  22.1969810  95.2698280 135.0173830
  22.5313030  93.9441450 134.3672510  19.3666080  91.4365670 133.0736220
  19.3702140  90.9955620 132.2240760  20.2617200  91.7583000 133.1808040
  15.2168460  91.3192160 132.0330430  14.8768510  91.7967390 132.7897480
  14.4545780  90.8657280 131.6731530  19.4286230  92.4377750 126.0642980
  19.5499050  92.3964230 127.0128800  19.0434740  93.3001900 125.9089710
  23.3914600  90.2145150 134.0806670  23.4087340  90.6653800 134.9248520
  23.1430180  89.3150790 134.2940110  18.4407730  94.7478890 125.4626280
  17.8724630  94.2997140 124.8362190  19.1496730  95.1071670 124.9291430
  26.8185350  87.6277330 139.9193050  27.1431120  86.8966990 140.4451030
  26.8541860  87.3090970 139.0174040  13.5176910  98.6490910 139.3393010
  13.1331700  98.0084580 139.9375970  13.8289100  99.3527030 139.9087740
  19.6674050  95.4967450 134.8201630  20.0344180  95.0226020 135.5662970
  19.4779110  96.3709020 135.1609970  12.5314540  90.2411140 130.9495100
  12.2461460  89.8766810 131.7873720  12.4693400  89.5091600 130.3358240
  17.4573420  94.5376090 137.1385840  17.1530490  95.4168070 137.3636200
  18.4119880  94.5975880 137.1743280  15.9855210  98.7437080 127.7352690
  15.2117470  98.2034700 127.5751410  16.7149840  98.2243690 127.3970450
  26.7443190  97.7402440 133.5279080  27.4642310  98.2357730 133.1375190
  26.5425010  97.0620330 132.8832950  22.2053130  89.1340400 127.6708470
  21.3917740  88.6353570 127.5953780  22.0115080  89.9738650 127.2544820
  22.1261990  97.8111500 139.4148080  22.0599300  96.8907170 139.1605670
  21.4967130  97.9086940 140.1292720  24.9201520  93.5060050 125.9670630
  25.8081140  93.8177280 125.7921970  24.8906610  92.6332300 125.5751210
  16.0292610  98.4117460 131.3731500  16.5471280  97.6085720 131.3188390
  15.5776630  98.3496600 132.2148330  20.9162110  99.6783740 126.6458800
  21.2577810 100.4225970 126.1502120  20.0874820  99.9914860 127.0083630
  13.5137150  95.3778830 138.2857200  13.1552090  96.0432680 138.8730540
  13.2191710  94.5462380 138.6569820  16.7150270  95.8363070 141.1696750
  16.4150410  95.9820250 140.2724570  17.4861510  95.2768360 141.0770140
  22.0578720 100.6332070 139.1651880  22.0723260  99.7013030 138.9470790
  21.3503820 100.7191830 139.8041650  27.1915790  94.8171890 125.4350490
  27.1079510  95.2486110 124.5846930  27.9109980  95.2770240 125.8677310
  28.2689930  97.2739410 138.5120460  27.5438120  97.8668190 138.3149850
  28.7965390  97.2662950 137.7133830  28.2203040 101.6714150 128.1632620
  27.5779200 101.0169770 128.4376340  27.8333700 102.0769240 127.3873290
  23.7989520  98.9999580 132.0104310  24.1513340  98.4027710 131.3505680
  22.9151850  98.6743810 132.1812560  19.8852800  99.7597270 129.4174720
  20.5723930 100.3066480 129.7982310  19.0985220 100.3038000 129.4524330
  12.0245200  95.3770090 124.9091800  12.8940050  95.6594890 125.1927720
  11.5335520  96.1905960 124.7940610  19.1880010  96.7643300 129.0300080
  19.6442790  97.5748550 129.2560270  18.8368220  96.4466440 129.8618570
  21.4912620 102.2749640 136.2592380  22.1354840 102.4809020 136.9365800
  21.8542060 101.5138040 135.8063230  15.0891790  87.1080950 129.5022600
  14.9606420  87.0998850 130.4507520  14.2653810  87.4464040 129.1513610
  22.7644700 100.2781990 134.9769830  23.4066930  99.5775150 135.0902000
  23.2894050 101.0580430 134.7966720  26.6100420 100.5630610 124.7008970
  26.3838000  99.8461050 125.2933610  26.2196620 100.3143050 123.8630720
  24.5382320 101.0776890 138.1805890  24.8738560 101.6643580 138.8583810
  23.6182660 100.9469600 138.4103680  12.3916450 104.5897470 125.4753430
  12.7514090 105.1886810 124.8210700  12.2508790 105.1357360 126.2488460
  12.0885720  88.8672070 138.9629300  11.3744240  89.0668990 139.5681910
  12.5080760  88.0911640 139.3344100  26.1916670  98.4802550 126.3623130
  25.9038370  98.9415240 127.1501010  26.9868840  98.0200320 126.6307350
  12.3758310 102.8552330 139.9495830  12.4849430 101.9147070 139.8091220
  11.7238870 103.1207080 139.3009560  20.3670900 101.1268220 141.3493950
  20.0467770 100.4077460 141.8939640  19.6929260 101.8023290 141.4230010
  18.4085070 101.9728670 126.2927100  18.3995170 102.7058360 125.6771610
  17.4883430 101.7260250 126.3854060  14.0091710  97.1943560 127.0373860
  13.4019660  97.9342460 127.0469160  14.4841060  97.2842920 126.2112060
  23.5824500  91.3594380 136.7130750  23.9505320  90.5389590 137.0410320
  22.7222700  91.4196270 137.1286400  26.9486530  90.3151320 127.5218310
  26.3199690  90.4196990 126.8076540  26.4538450  90.5348100 128.3112190
  21.3944670 102.0356910 124.9552290  21.4956650 101.8320900 124.0254270
  20.4946410 101.7815190 125.1600070  18.9170560  92.5937270 128.9376190
  18.2086710  93.0623610 129.3789800  19.2015040  91.9359280 129.5721380
  20.5426490  94.0133970 136.9368720  21.0411740  94.4879790 137.6020570
  20.6849440  93.0897490 137.1438750  22.9485990  89.3187930 130.3771980
  22.8253770  89.3374060 129.4281490  23.8970550  89.3666870 130.4970380
  20.0362780 104.5543230 129.6499960  20.2904280 104.5164620 128.7279330
  19.0875260 104.4276560 129.6428210  17.1205580  90.9022350 126.3126900
  17.9696110  91.3392500 126.2467090  16.7536850  91.2142610 127.1398960
  27.7493350  90.2301930 137.7797110  27.2466950  90.9707330 138.1190920
  28.5650010  90.6185930 137.4633900  26.0415360  95.4735110 131.2258470
  25.1005500  95.4885340 131.4006160  26.3559430  94.6871070 131.6718770
  16.0197000  97.1554710 124.7862430  16.7860270  97.0436070 125.3487860
  16.0971690  96.4592680 124.1339200  14.7143760  94.5879780 125.4695320
  14.7947350  93.6407290 125.5812720  15.6063510  94.9186660 125.5755980
  28.0440940 102.6443960 132.9012730  28.1688360 103.4675130 133.3736540
  28.9106500 102.4334690 132.5536880  15.5158470 104.7375170 132.5729860
  16.2520950 104.1890630 132.8438430  15.8999390 105.6031180 132.4335850
  12.4003950 100.8048740 128.4471370  11.4743730 101.0469880 128.4376780
  12.8660380 101.6323000 128.3256120  14.5216750 103.9221240 141.7615440
  15.3229480 104.2433290 142.1750840  14.0068570 103.5616820 142.4835350
  18.6260780 103.9105480 124.3955430  19.4189390 104.1994310 123.9437220
  18.1065130 103.4797650 123.7167910  23.3581380 100.0301110 141.7090850
  22.7519540 100.0532710 140.9686600  23.0535490  99.2984150 142.2458100
  24.7881750 103.7581400 140.3200260  25.7403500 103.6739420 140.2700500
  24.6409970 104.4223110 140.9934050  27.6790950 103.1375610 125.8192170
  27.3932460 102.7240750 125.0046350  27.4810500 104.0663320 125.6992690
  12.2414560  96.4094700 140.7051490  12.7453580  95.8301980 141.2767720
  11.5021980  96.6934930 141.2427860  19.1438180  99.1308890 124.2597780
  19.0388820  98.5161240 124.9859160  18.9762400  98.6074780 123.4760790
  19.2952500  97.8165690 140.2387010  18.5298170  98.3850690 140.1541680
  19.4768460  97.5241900 139.3455240  22.3840910  98.1928920 124.8639770
  21.8351010  98.6398220 125.5082510  23.0060170  97.6878170 125.3877440
  26.4375850  99.5471020 140.7962030  27.1785320  99.8846780 140.2929490
  25.6748530  99.7163080 140.2431800  14.2737640  94.5524290 141.6001560
  14.3142980  94.2538160 142.5086790  15.1283140  94.9531900 141.4409080
  18.0516030  97.1519840 126.7605070  18.4732450  96.9859710 127.6036460
  18.1766870  96.3420070 126.2660210  16.2143450  93.1316390 139.5676050
  15.6839910  92.6407340 138.9399390  16.8831520  93.5600590 139.0333980
  20.5643670  96.1757450 124.0082170  21.0849330  95.4606470 123.6423320
  21.2112070  96.8143320 124.3082680  25.1121510  97.5985850 139.3317240
  25.5262530  97.7530930 140.1807660  24.1772510  97.7241070 139.4943020
  25.5843680  94.9382010 141.3356390  26.1664450  94.1834330 141.2476870
  25.7605450  95.4689450 140.5587870  16.7015750  90.0978760 139.6473340
  16.6072620  89.4799510 138.9224210  16.1213140  90.8245050 139.4203250
  19.4677190  88.6552000 136.6800730  19.0194490  88.6776260 135.8346280
  18.8342390  88.2571020 137.2771030  19.8736740  97.5506330 137.3013170
  20.2924850  98.3939060 137.1289410  18.9545370  97.6878370 137.0719950
  22.2100640  95.2822510 138.6851010  22.3296850  94.6863650 139.4245850
  23.0694640  95.3192200 138.2652310  24.5488540  95.8359700 137.2613520
  24.0223760  96.3602320 136.6578660  24.8919880  96.4687090 137.8923250
  16.9474930  93.2253070 123.7063230  16.7463990  92.3620430 124.0676570
  16.7766980  93.1386430 122.7684830  17.7244160 103.8559340 138.4170900
  17.1865250 104.5805400 138.0979600  17.9778120 103.3789680 137.6268240
  18.9769410  91.8243860 139.9426830  19.5669100  91.5159710 140.6304650
  18.1589650  91.3523610 140.0986730  23.7962840  91.4409670 140.1759850
  23.1078360  90.7791210 140.1109840  24.5168860  90.9947940 140.6208310
  24.4263240  88.0361300 126.2350110  24.7065530  87.1929200 126.5909530
  23.6528970  88.2684410 126.7488860  15.7457730  90.3253690 123.6941110
  16.0483630  90.3321120 122.7860260  16.4852320  89.9751550 124.1908770
  20.5806370 105.0910550 138.6757550  20.5065070 105.9945690 138.9829920
  19.6785210 104.7722450 138.6479620  18.9642660  89.2688310 124.6797310
  18.6164660  88.5912300 124.0999760  19.1655430  88.8077820 125.4940700
  21.1291700 104.2569060 126.2983910  22.0242490 104.5954030 126.3202670
  21.1609330 103.5348470 125.6708190  14.7687860  99.6296110 124.5270910
  15.2062730 100.1725780 125.1828490  15.2535590  98.8043060 124.5367250
  11.9833660 102.4185140 131.9791170  12.3136670 101.5506200 131.7469810
  12.4124660 102.6243660 132.8096130  16.5795580 100.7494150 129.6393140
  16.2791120 100.6259120 130.5397050  16.4733070  99.8902740 129.2308870
  12.4723870 103.2855730 134.7172800  12.0354860 103.4656530 135.5496950
  13.0401550 104.0430350 134.5754520  28.1086050 102.7872730 139.0050110
  27.5088040 102.8465290 138.2614030  28.2379950 101.8477710 139.1346960
  29.3487500 100.5290550 124.3419820  28.5180460 100.5967200 124.8127050
  29.5259330 101.4194670 124.0386680  28.8043960  97.2738030 126.8454020
  29.5662870  97.8434680 126.9513710  28.8198330  96.7065230 127.6162330
  12.3048300  95.7975960 131.0761680  11.6497140  95.5287600 130.4321380
  13.1426250  95.6880440 130.6263660  29.8103930  98.1288130 131.6895950
  30.1812760  97.3455450 131.2831920  30.4505860  98.8177230 131.5113250
  26.7937690  99.5124710 137.1026270  25.9797530  99.9421870 137.3652060
  27.2011890 100.1243120 136.4895320  28.8563130  97.5672400 124.0026540
  29.1311970  98.4751280 123.8745760  28.6673870  97.5034930 124.9388530
  25.2538740  90.5917250 125.2980170  25.6723620  90.4048230 124.4576830
  24.9474800  89.7396300 125.6083100  28.7528470  95.5041390 128.9955970
  28.3772070  94.7369320 128.5637260  28.0231590  95.8864090 129.4830900
  13.3424230  96.1828530 135.6165020  13.7097270  96.0955930 136.4961040
  12.7735050  95.4195080 135.5171880  28.1428090  94.6512910 138.6295490
  27.9114180  94.4225660 137.7293440  28.4032640  95.5712460 138.5840380
  12.8940230  93.0937620 139.5223440  11.9996280  93.0604380 139.8617150
  13.4337780  93.2924410 140.2874690  26.5816160  89.8769340 141.4075190
  27.4586340  89.8852740 141.7909190  26.5937000  89.1400180 140.7967540
  11.5186380  93.0074890 127.0187010  10.6150460  93.2705090 126.8438670
  12.0027000  93.2786060 126.2386970  28.0279430  93.7298880 132.2963210
  28.5516910  93.2361530 131.6653380  28.6138850  93.8649240 133.0410780
  28.2069150  93.8138750 135.8182760  27.2571860  93.7802290 135.9327750
  28.3882160  94.7238860 135.5832530  14.0613590  92.0640430 124.9281390
  14.7705290  91.6423650 124.4428670  13.3453530  92.1315660 124.2964740
  13.7087750  88.1179760 123.9684040  14.4315880  88.6588700 124.2865260
  13.9812270  87.8443180 123.0925580  27.5179400  92.9872230 128.2355620
  28.0138520  92.7543100 129.0204500  27.3195470  92.1484070 127.8193260
  13.3979940  87.3685950 133.8706660  14.0456130  86.8183330 133.4301820
  13.8181780  87.6229100 134.6922470  28.9466560  91.6233180 130.7693300
  28.8365840  91.4689220 131.7075570  29.7074150  91.0954120 130.5268710
  27.2932280  87.5627310 137.2276300  27.9304500  88.1761450 137.5935490
  27.4407170  87.5987970 136.2825530  29.8356830  89.4541100 124.0099440
  30.7606140  89.3222280 123.8017730  29.8132620  89.5333920 124.9635890
  29.9095320  90.2251760 126.6356150  29.1146820  90.1596880 127.1649060
  30.1138600  91.1602400 126.6241500  26.8513740 104.2643310 130.6294540
  27.4472810 103.9427880 129.9528960  27.1091890 103.7915130 131.4207810
  13.1511940  87.5241620 136.6131980  12.8026760  87.9805440 137.3790160
  12.8199640  86.6298750 136.6954410  14.7576310 100.6961220 140.7785170
  14.7145940 100.3254130 141.6599630  14.8887320 101.6338790 140.9186990
  18.4582340 102.2520810 136.3794890  18.2173700 102.5195370 135.4925410
  19.3984980 102.4226540 136.4345750  20.6636760  88.7153500 140.1351400
  20.6025650  89.3075330 140.8846810  21.6037140  88.6079460 139.9901660
  23.3011320  88.3723560 139.7743690  23.9151730  88.6902850 139.1124770
  23.8460880  87.8872150 140.3939550  29.7186500 104.2715190 137.1805530
  29.2244780 104.6684060 136.4632660  29.1099790 103.6464400 137.5742810
  13.8232580  87.0517820 139.8882750  14.3715570  86.8705870 139.1248860
  13.8887890  86.2611930 140.4239060  14.5964340 103.6423470 137.8982950
  14.0024660 103.5108170 138.6372990  14.5888180 102.8061610 137.4325050
  24.0419360  86.9355700 136.1012980  23.1679200  87.2690810 135.8985910
  23.9330110  86.4628880 136.9264850  24.9491340  89.1426570 137.4854700
  24.6204700  88.3278330 137.1056430  25.8973640  89.0996380 137.3620390
  27.4025950 104.9138610 134.4592270  26.9428920 105.6654420 134.0850290
  26.7738410 104.1945080 134.4007070  14.2276570 101.0081850 136.8490990
  13.5010630 100.3887140 136.7816940  14.2885720 101.4022460 135.9789070
  17.8321670 103.2226850 133.6340400  18.3486690 102.6114210 133.1088660
  18.4819050 103.7255630 134.1251410  20.5717170 104.1135340 134.4609380
  20.8594980 103.8589640 133.5842390  21.0840390 103.5612700 135.0514950
  21.7894180  87.8525540 135.0405890  21.0065970  88.3271040 135.3202650
  21.4957110  86.9480370 134.9319070  26.3415250  88.5548640 133.0854980
  26.7823340  88.4993740 132.2376580  26.0722840  89.4706650 133.1565160
  28.2053820  88.1863880 131.0963800  28.1442220  87.2425100 130.9494820
  28.9845850  88.2943970 131.6417260  12.5106570 104.3256240 130.0587750
  12.3428610 103.6926920 130.7569640  11.6441080 104.5315640 129.7081940
  13.1334590  88.1573020 127.5619610  13.8913950  88.2701900 126.9883640
  12.6711760  88.9942220 127.5163040  19.6748400  90.2712290 130.5521920
  18.8622910  89.8969180 130.2117800  20.1790040  89.5157370 130.8543110
  24.1773380  86.9354740 131.7904990  24.7802750  87.5074950 132.2653510
  23.4366370  87.4994180 131.5678890  27.3207980  87.3376300 127.0645270
  27.5158610  88.2359750 127.3312700  26.5337850  87.1063380 127.5578220
  14.1169270 103.0189470 127.5037890  13.5916890 103.3997500 126.7999850
  14.0413850 103.6440240 128.2247600  15.5059740  88.6837070 126.1021580
  16.0352500  87.8966870 125.9729530  16.1388060  89.3628260 126.3357110
  17.6997580  88.4212210 129.1566970  17.0700320  87.7199520 129.3237100
  17.1602720  89.1816340 128.9400130  20.6389530 105.0351440 141.8277580
  21.5656840 104.7995710 141.8713540  20.6239960 105.8623440 141.3463610
  28.8734590 104.5777010 128.8251830  29.0486780 103.8914750 128.1812750
  28.1756160 105.1024060 128.4328500  17.8253140  87.6996190 141.5919460
  17.5437410  88.2029790 140.8280280  18.2072840  86.9017940 141.2261590
  16.7162240 104.9671850 126.3787140  17.4481060 104.6831130 125.8311030
  16.9755910 104.7285130 127.2686520  15.8777030 101.0836580 126.3833470
  15.2485910 101.5521680 126.9319300  15.9924860 100.2385800 126.8179660
  24.4268600  87.1149770 142.1699930  24.3134050  87.4344380 143.0651450
  25.2438340  87.5162280 141.8737210  27.2067090 104.2621300 141.6518620
  27.9992410 103.7670530 141.4444580  27.5000240 104.9411440 142.2594230
  23.3326750  95.1342240 112.5334670  23.2520800  94.2196850 112.2626380
  22.9191170  95.6309310 111.8274380  21.4644790  96.9121260 114.4143940
  20.6886890  96.4321700 114.7042510  22.1157720  96.2326910 114.2400100
  15.4810620  97.2241070 115.2919700  14.6495500  96.9689780 115.6916210
  16.0891600  97.2951840 116.0277620  25.4852220 101.3181450 113.1943070
  25.0233750 100.5468690 113.5230240  26.2977770 101.3447520 113.6995520
  15.4611880 101.2581160 115.4877720  15.7639920 100.3678900 115.3087940
  16.2055470 101.8151380 115.2599970  13.8902570  92.1842960 109.0762090
  13.0019270  92.5258930 108.9741970  14.1743760  91.9843280 108.1842920
  11.8535580  94.7848610 114.9601790  12.4251690  94.0170810 114.9605430
  11.8537120  95.0837370 114.0508400  21.7115530 103.6039460 112.8147060
  21.0926970 104.0596960 112.2441500  22.5667310 103.7590920 112.4136760
  20.9053780  99.5878450 114.4214100  20.8362060  98.6468390 114.2603230
  21.6673640  99.6779860 114.9936670  13.0960450  90.1932970 116.7470720
  12.9163290  89.2958720 117.0273480  12.6940530  90.7404840 117.4217670
  21.9358950  92.3948830 114.6483030  22.3123770  91.5220710 114.5356700
  21.8378460  92.7307530 113.7573470  16.0663960  90.7674460 110.1100470
  16.1730710  91.6678190 110.4169230  15.1556320  90.7192430 109.8195120
  13.7147120  92.6893470 115.3553060  14.3957230  92.9531840 115.9740460
  13.3995170  91.8494340 115.6891070  17.9071690  93.7360830 114.4425650
  18.4149910  94.2341800 115.0830670  18.4384930  92.9596030 114.2665010
  16.1907790  88.3759390 118.7089070  16.1926230  88.8931780 117.9034970
  15.3612100  87.8989570 118.6859000  22.5778880  98.4878700 110.2078970
  21.9596150  98.9528150 109.6441690  23.0902130  99.1806180 110.6248480
  17.4410640  98.0154570 116.8862570  17.1080020  98.6423490 117.5283640
  17.6177320  98.5416450 116.1064240  25.9544550  91.8299650 114.3538910
  25.2500120  92.1184540 114.9342020  26.3156710  92.6399760 113.9938470
  15.8723120  90.0869350 116.7159520  16.2139930  90.9311400 116.4213390
  14.9338930  90.2353090 116.8324860  16.6529740  99.9835370 118.7011750
  17.2703740 100.6586450 118.4196200  15.7922860 100.3923350 118.6099250
  11.9462080  99.1735230 107.5818600  11.5690060  99.6622330 106.8503500
  12.2035150  99.8460510 108.2125130  19.5551010  87.5751620 113.0404110
  19.8625990  87.0198510 112.3239610  18.6251710  87.7096080 112.8577100
  25.1066070 103.2918910 115.3311570  25.1193230 102.8881200 114.4633830
  24.5541290 104.0666200 115.2273000  24.5051510  98.1948750 116.6594180
  24.9220300  97.9808860 115.8247640  25.2291330  98.4521540 117.2302800
  21.9431770  95.6400450 109.7764230  21.0161050  95.5737830 110.0052700
  22.0956590  96.5780580 109.6619470  21.9300850  91.9117450 106.7731390
  20.9904520  92.0731410 106.8583850  22.2484110  92.6303130 106.2267380
  25.4155620  93.3805290 117.6965290  25.0026800  94.2059000 117.9505280
  24.6831570  92.7950330 117.5041650  17.5488410  96.1665190 112.5583960
  17.1445410  95.4542440 112.0629860  17.6351530  95.8218430 113.4472000
  18.0170110  99.8532750 114.7223170  17.7198400  99.2478220 114.0430950
  18.9669930  99.8910060 114.6112530  16.2617030  92.9408400 116.3383000
  16.8131620  93.0503740 115.5636250  16.7760540  93.3146000 117.0538230
  26.1055720 103.4264620 118.3846270  25.6286280 104.2336810 118.1918880
  25.4217510 102.7742950 118.5372480  17.1088540  99.5914440 121.3730970
  16.2117070  99.8154410 121.6204370  17.1341410  99.7149380 120.4242370
  15.9359760  96.4627760 119.9488340  15.7967530  97.3350560 120.3175740
  15.0541120  96.1200570 119.8036280  22.2589140 101.3803630 111.2553470
  22.6985050 102.1227960 110.8408860  22.1976030 101.6230200 112.1792430
  17.7340110 102.4049460 122.1573490  17.7055540 102.8092410 121.2901920
  17.5705080 101.4759820 121.9945090  14.2493040  95.0610170 110.0590610
  14.1290640  95.7872260 109.4471880  13.9393930  94.2913080 109.5818520
  29.6854930 103.1876560 123.4537660  30.1614650 103.6659450 124.1326740
  30.3062090 103.1194050 122.7283160  11.8878410  98.2325310 115.8659250
  11.9658830  98.3674080 114.9214970  12.5020090  97.5241200 116.0587370
  13.1326040  99.9325500 112.2765430  12.7254120 100.0740090 111.4219030
  14.0239050  99.6485660 112.0736640  29.0888180 100.3789410 120.6137670
  29.2151240 100.1401290 119.6954850  29.1309560  99.5473950 121.0859750
  22.9504920 104.0817410 119.1832480  23.4649590 103.9925420 119.9854910
  22.1074000 104.4277110 119.4760390  17.4047700 104.1471280 110.3888100
  17.2290180 103.2306820 110.1755900  16.5503440 104.5058570 110.6285900
  24.1935380 103.5023020 111.2462970  24.6492330 102.7212400 111.5601590
  24.5327900 104.2129840 111.7904150  28.9412190  92.4321870 121.5787410
  28.3256460  92.9401540 121.0502870  28.6208610  91.5320200 121.5213350
  11.9437930  99.2739480 118.4053710  12.1068970  98.8044840 117.5873080
  12.4090380  98.7663040 119.0702550  16.7156700  88.4045240 113.4414280
  16.2724850  89.1854780 113.1098800  17.2741690  88.7275130 114.1485220
  21.0026510  91.2713760 119.0449600  20.5405880  91.4796780 119.8569540
  20.6004620  90.4573110 118.7420270  26.0031020  92.4922710 120.1746260
  25.1524610  92.1928460 120.4955330  25.8432810  92.7364720 119.2630080
  23.0980730  93.9924460 122.2745050  23.4234140  93.1588210 121.9347280
  23.8861060  94.5152980 122.4223380  19.8315520  88.0255940 108.3220110
  19.2069700  88.0215810 109.0473420  19.7445640  87.1586900 107.9256080
  18.7532600  88.9492570 115.3003880  19.0504930  89.8555400 115.2195900
  19.3018160  88.4611350 114.6863450  16.5070920  93.5278810 111.1695530
  16.2811840  93.3115980 112.0742150  15.7263450  93.9607270 110.8241500
  23.7368680  93.5342180 109.7686180  23.1377570  94.2577980 109.5849800
  24.2848290  93.4718960 108.9862630  18.9470130  94.4264390 121.8355800
  18.8513730  93.4859120 121.6856200  19.7902110  94.6479460 121.4403870
  22.3433550  92.1705720 111.7989460  22.7363120  92.4877920 110.9858150
  22.7050400  91.2917600 111.9133980  14.0780670  90.8378060 119.9889580
  13.6844060  91.6853270 120.1962360  13.3899070  90.2004430 120.1798220
  20.6525720  90.9213030 123.0586320  19.9624040  90.7285230 123.6932410
  21.3958020  91.2047670 123.5910620  11.3797720  88.7606520 114.0219660
  11.0910770  89.3309380 114.7344640  12.1243480  88.2810970 114.3850890
  11.5667950  92.7026640 105.2322380  11.4842620  93.6457400 105.3737370
  11.2151010  92.5601550 104.3534730  22.9288690  94.7611470 115.8940240
  22.1969810  95.2698280 116.2430340  22.5313030  93.9441450 115.5929020
  19.3666080  91.4365670 114.2992730  19.3702140  90.9955620 113.4497270
  20.2617200  91.7583000 114.4064550  15.2168460  91.3192160 113.2586940
  14.8768510  91.7967390 114.0153990  14.4545780  90.8657280 112.8988040
  19.4286230  92.4377750 107.2899490  19.5499050  92.3964230 108.2385310
  19.0434740  93.3001900 107.1346220  23.3914600  90.2145150 115.3063180
  23.4087340  90.6653800 116.1505030  23.1430180  89.3150790 115.5196620
  18.4407730  94.7478890 106.6882790  17.8724630  94.2997140 106.0618700
  19.1496730  95.1071670 106.1547940  26.8185350  87.6277330 121.1449560
  27.1431120  86.8966990 121.6707540  26.8541860  87.3090970 120.2430550
  13.5176910  98.6490910 120.5649520  13.1331700  98.0084580 121.1632480
  13.8289100  99.3527030 121.1344250  19.6674050  95.4967450 116.0458140
  20.0344180  95.0226020 116.7919480  19.4779110  96.3709020 116.3866480
  12.5314540  90.2411140 112.1751610  12.2461460  89.8766810 113.0130230
  12.4693400  89.5091600 111.5614750  17.4573420  94.5376090 118.3642350
  17.1530490  95.4168070 118.5892710  18.4119880  94.5975880 118.3999790
  15.9855210  98.7437080 108.9609200  15.2117470  98.2034700 108.8007920
  16.7149840  98.2243690 108.6226960  22.1261990  97.8111500 120.6404590
  22.0599300  96.8907170 120.3862180  21.4967130  97.9086940 121.3549230
  24.9201520  93.5060050 107.1927140  25.8081140  93.8177280 107.0178480
  24.8906610  92.6332300 106.8007720  16.0292610  98.4117460 112.5988010
  16.5471280  97.6085720 112.5444900  15.5776630  98.3496600 113.4404840
  13.5137150  95.3778830 119.5113710  13.1552090  96.0432680 120.0987050
  13.2191710  94.5462380 119.8826330  16.7150270  95.8363070 122.3953260
  16.4150410  95.9820250 121.4981080  17.4861510  95.2768360 122.3026650
  22.0578720 100.6332070 120.3908390  22.0723260  99.7013030 120.1727300
  21.3503820 100.7191830 121.0298160  27.1915790  94.8171890 106.6607000
  27.1079510  95.2486110 105.8103440  27.9109980  95.2770240 107.0933820
  23.7989520  98.9999580 113.2360820  24.1513340  98.4027710 112.5762190
  22.9151850  98.6743810 113.4069070  19.8852800  99.7597270 110.6431230
  20.5723930 100.3066480 111.0238820  19.0985220 100.3038000 110.6780840
  12.0245200  95.3770090 106.1348310  12.8940050  95.6594890 106.4184230
  11.5335520  96.1905960 106.0197120  19.1880010  96.7643300 110.2556590
  19.6442790  97.5748550 110.4816780  18.8368220  96.4466440 111.0875080
  21.4912620 102.2749640 117.4848890  22.1354840 102.4809020 118.1622310
  21.8542060 101.5138040 117.0319740  15.0891790  87.1080950 110.7279110
  14.9606420  87.0998850 111.6764030  14.2653810  87.4464040 110.3770120
  22.7644700 100.2781990 116.2026340  23.4066930  99.5775150 116.3158510
  23.2894050 101.0580430 116.0223230  24.5382320 101.0776890 119.4062400
  24.8738560 101.6643580 120.0840320  23.6182660 100.9469600 119.6360190
  12.3916450 104.5897470 106.7009940  12.7514090 105.1886810 106.0467210
  12.2508790 105.1357360 107.4744970  12.0885720  88.8672070 120.1885810
  11.3744240  89.0668990 120.7938420  12.5080760  88.0911640 120.5600610
  12.3758310 102.8552330 121.1752340  12.4849430 101.9147070 121.0347730
  11.7238870 103.1207080 120.5266070  20.3670900 101.1268220 122.5750460
  20.0467770 100.4077460 123.1196150  19.6929260 101.8023290 122.6486520
  18.4085070 101.9728670 107.5183610  18.3995170 102.7058360 106.9028120
  17.4883430 101.7260250 107.6110570  14.0091710  97.1943560 108.2630370
  13.4019660  97.9342460 108.2725670  14.4841060  97.2842920 107.4368570
  23.5824500  91.3594380 117.9387260  23.9505320  90.5389590 118.2666830
  22.7222700  91.4196270 118.3542910  18.9170560  92.5937270 110.1632700
  18.2086710  93.0623610 110.6046310  19.2015040  91.9359280 110.7977890
  20.5426490  94.0133970 118.1625230  21.0411740  94.4879790 118.8277080
  20.6849440  93.0897490 118.3695260  20.0362780 104.5543230 110.8756470
  20.2904280 104.5164620 109.9535840  19.0875260 104.4276560 110.8684720
  17.1205580  90.9022350 107.5383410  17.9696110  91.3392500 107.4723600
  16.7536850  91.2142610 108.3655470  27.7493350  90.2301930 119.0053620
  27.2466950  90.9707330 119.3447430  28.5650010  90.6185930 118.6890410
  26.0415360  95.4735110 112.4514980  25.1005500  95.4885340 112.6262670
  26.3559430  94.6871070 112.8975280  16.0197000  97.1554710 106.0118940
  16.7860270  97.0436070 106.5744370  16.0971690  96.4592680 105.3595710
  14.7143760  94.5879780 106.6951830  14.7947350  93.6407290 106.8069230
  15.6063510  94.9186660 106.8012490  15.5158470 104.7375170 113.7986370
  16.2520950 104.1890630 114.0694940  15.8999390 105.6031180 113.6592360
  12.4003950 100.8048740 109.6727880  11.4743730 101.0469880 109.6633290
  12.8660380 101.6323000 109.5512630  14.5216750 103.9221240 122.9871950
  15.3229480 104.2433290 123.4007350  14.0068570 103.5616820 123.7091860
  18.6260780 103.9105480 105.6211940  19.4189390 104.1994310 105.1693730
  18.1065130 103.4797650 104.9424420  23.3581380 100.0301110 122.9347360
  22.7519540 100.0532710 122.1943110  23.0535490  99.2984150 123.4714610
  24.7881750 103.7581400 121.5456770  25.7403500 103.6739420 121.4957010
  24.6409970 104.4223110 122.2190560  12.2414560  96.4094700 121.9308000
  12.7453580  95.8301980 122.5024230  11.5021980  96.6934930 122.4684370
  19.1438180  99.1308890 105.4854290  19.0388820  98.5161240 106.2115670
  18.9762400  98.6074780 104.7017300  19.2952500  97.8165690 121.4643520
  18.5298170  98.3850690 121.3798190  19.4768460  97.5241900 120.5711750
  26.4375850  99.5471020 122.0218540  27.1785320  99.8846780 121.5186000
  25.6748530  99.7163080 121.4688310  14.2737640  94.5524290 122.8258070
  14.3142980  94.2538160 123.7343300  15.1283140  94.9531900 122.6665590
  18.0516030  97.1519840 107.9861580  18.4732450  96.9859710 108.8292970
  18.1766870  96.3420070 107.4916720  16.2143450  93.1316390 120.7932560
  15.6839910  92.6407340 120.1655900  16.8831520  93.5600590 120.2590490
  20.5643670  96.1757450 105.2338680  21.0849330  95.4606470 104.8679830
  21.2112070  96.8143320 105.5339190  25.1121510  97.5985850 120.5573750
  25.5262530  97.7530930 121.4064170  24.1772510  97.7241070 120.7199530
  25.5843680  94.9382010 122.5612900  26.1664450  94.1834330 122.4733380
  25.7605450  95.4689450 121.7844380  16.7015750  90.0978760 120.8729850
  16.6072620  89.4799510 120.1480720  16.1213140  90.8245050 120.6459760
  19.4677190  88.6552000 117.9057240  19.0194490  88.6776260 117.0602790
  18.8342390  88.2571020 118.5027540  19.8736740  97.5506330 118.5269680
  20.2924850  98.3939060 118.3545920  18.9545370  97.6878370 118.2976460
  22.2100640  95.2822510 119.9107520  22.3296850  94.6863650 120.6502360
  23.0694640  95.3192200 119.4908820  24.5488540  95.8359700 118.4870030
  24.0223760  96.3602320 117.8835170  24.8919880  96.4687090 119.1179760
  16.9474930  93.2253070 104.9319740  16.7463990  92.3620430 105.2933080
  16.7766980  93.1386430 103.9941340  17.7244160 103.8559340 119.6427410
  17.1865250 104.5805400 119.3236110  17.9778120 103.3789680 118.8524750
  18.9769410  91.8243860 121.1683340  19.5669100  91.5159710 121.8561160
  18.1589650  91.3523610 121.3243240  23.7962840  91.4409670 121.4016360
  23.1078360  90.7791210 121.3366350  24.5168860  90.9947940 121.8464820
  15.7457730  90.3253690 104.9197620  16.0483630  90.3321120 104.0116770
  16.4852320  89.9751550 105.4165280  20.5806370 105.0910550 119.9014060
  20.5065070 105.9945690 120.2086430  19.6785210 104.7722450 119.8736130
  18.9642660  89.2688310 105.9053820  18.6164660  88.5912300 105.3256270
  19.1655430  88.8077820 106.7197210  21.1291700 104.2569060 107.5240420
  22.0242490 104.5954030 107.5459180  21.1609330 103.5348470 106.8964700
  14.7687860  99.6296110 105.7527420  15.2062730 100.1725780 106.4085000
  15.2535590  98.8043060 105.7623760  11.9833660 102.4185140 113.2047680
  12.3136670 101.5506200 112.9726320  12.4124660 102.6243660 114.0352640
  16.5795580 100.7494150 110.8649650  16.2791120 100.6259120 111.7653560
  16.4733070  99.8902740 110.4565380  12.4723870 103.2855730 115.9429310
  12.0354860 103.4656530 116.7753460  13.0401550 104.0430350 115.8011030
  28.1086050 102.7872730 120.2306620  27.5088040 102.8465290 119.4870540
  28.2379950 101.8477710 120.3603470  12.3048300  95.7975960 112.3018190
  11.6497140  95.5287600 111.6577890  13.1426250  95.6880440 111.8520170
  26.7937690  99.5124710 118.3282780  25.9797530  99.9421870 118.5908570
  27.2011890 100.1243120 117.7151830  28.8563130  97.5672400 105.2283050
  29.1311970  98.4751280 105.1002270  28.6673870  97.5034930 106.1645040
  28.7528470  95.5041390 110.2212480  28.3772070  94.7369320 109.7893770
  28.0231590  95.8864090 110.7087410  13.3424230  96.1828530 116.8421530
  13.7097270  96.0955930 117.7217550  12.7735050  95.4195080 116.7428390
  12.8940230  93.0937620 120.7479950  11.9996280  93.0604380 121.0873660
  13.4337780  93.2924410 121.5131200  26.5816160  89.8769340 122.6331700
  27.4586340  89.8852740 123.0165700  26.5937000  89.1400180 122.0224050
  11.5186380  93.0074890 108.2443520  10.6150460  93.2705090 108.0695180
  12.0027000  93.2786060 107.4643480  28.0279430  93.7298880 113.5219720
  28.5516910  93.2361530 112.8909890  28.6138850  93.8649240 114.2667290
  14.0613590  92.0640430 106.1537900  14.7705290  91.6423650 105.6685180
  13.3453530  92.1315660 105.5221250  13.7087750  88.1179760 105.1940550
  14.4315880  88.6588700 105.5121770  13.9812270  87.8443180 104.3182090
  27.5179400  92.9872230 109.4612130  28.0138520  92.7543100 110.2461010
  27.3195470  92.1484070 109.0449770  13.3979940  87.3685950 115.0963170
  14.0456130  86.8183330 114.6558330  13.8181780  87.6229100 115.9178980
  28.9466560  91.6233180 111.9949810  28.8365840  91.4689220 112.9332080
  29.7074150  91.0954120 111.7525220  27.2932280  87.5627310 118.4532810
  27.9304500  88.1761450 118.8192000  27.4407170  87.5987970 117.5082040
  26.8513740 104.2643310 111.8551050  27.4472810 103.9427880 111.1785470
  27.1091890 103.7915130 112.6464320  13.1511940  87.5241620 117.8388490
  12.8026760  87.9805440 118.6046670  12.8199640  86.6298750 117.9210920
  14.7576310 100.6961220 122.0041680  14.7145940 100.3254130 122.8856140
  14.8887320 101.6338790 122.1443500  18.4582340 102.2520810 117.6051400
  18.2173700 102.5195370 116.7181920  19.3984980 102.4226540 117.6602260
  20.6636760  88.7153500 121.3607910  20.6025650  89.3075330 122.1103320
  21.6037140  88.6079460 121.2158170  23.3011320  88.3723560 121.0000200
  23.9151730  88.6902850 120.3381280  23.8460880  87.8872150 121.6196060
  29.7186500 104.2715190 118.4062040  29.2244780 104.6684060 117.6889170
  29.1099790 103.6464400 118.7999320  13.8232580  87.0517820 121.1139260
  14.3715570  86.8705870 120.3505370  13.8887890  86.2611930 121.6495570
  14.5964340 103.6423470 119.1239460  14.0024660 103.5108170 119.8629500
  14.5888180 102.8061610 118.6581560  24.0419360  86.9355700 117.3269490
  23.1679200  87.2690810 117.1242420  23.9330110  86.4628880 118.1521360
  24.9491340  89.1426570 118.7111210  24.6204700  88.3278330 118.3312940
  25.8973640  89.0996380 118.5876900  27.4025950 104.9138610 115.6848780
  26.9428920 105.6654420 115.3106800  26.7738410 104.1945080 115.6263580
  14.2276570 101.0081850 118.0747500  13.5010630 100.3887140 118.0073450
  14.2885720 101.4022460 117.2045580  17.8321670 103.2226850 114.8596910
  18.3486690 102.6114210 114.3345170  18.4819050 103.7255630 115.3507920
  20.5717170 104.1135340 115.6865890  20.8594980 103.8589640 114.8098900
  21.0840390 103.5612700 116.2771460  21.7894180  87.8525540 116.2662400
  21.0065970  88.3271040 116.5459160  21.4957110  86.9480370 116.1575580
  26.3415250  88.5548640 114.3111490  26.7823340  88.4993740 113.4633090
  26.0722840  89.4706650 114.3821670  12.5106570 104.3256240 111.2844260
  12.3428610 103.6926920 111.9826150  11.6441080 104.5315640 110.9338450
  13.1334590  88.1573020 108.7876120  13.8913950  88.2701900 108.2140150
  12.6711760  88.9942220 108.7419550  19.6748400  90.2712290 111.7778430
  18.8622910  89.8969180 111.4374310  20.1790040  89.5157370 112.0799620
  24.1773380  86.9354740 113.0161500  24.7802750  87.5074950 113.4910020
  23.4366370  87.4994180 112.7935400  14.1169270 103.0189470 108.7294400
  13.5916890 103.3997500 108.0256360  14.0413850 103.6440240 109.4504110
  15.5059740  88.6837070 107.3278090  16.0352500  87.8966870 107.1986040
  16.1388060  89.3628260 107.5613620  17.6997580  88.4212210 110.3823480
  17.0700320  87.7199520 110.5493610  17.1602720  89.1816340 110.1656640
  20.6389530 105.0351440 123.0534090  21.5656840 104.7995710 123.0970050
  20.6239960 105.8623440 122.5720120  28.8734590 104.5777010 110.0508340
  29.0486780 103.8914750 109.4069260  28.1756160 105.1024060 109.6585010
  17.8253140  87.6996190 122.8175970  17.5437410  88.2029790 122.0536790
  18.2072840  86.9017940 122.4518100  16.7162240 104.9671850 107.6043650
  17.4481060 104.6831130 107.0567540  16.9755910 104.7285130 108.4943030
  15.8777030 101.0836580 107.6089980  15.2485910 101.5521680 108.1575810
  15.9924860 100.2385800 108.0436170  24.4268600  87.1149770 123.3956440
  24.3134050  87.4344380 124.2907960  25.2438340  87.5162280 123.0993720
  27.2067090 104.2621300 122.8775130  27.9992410 103.7670530 122.6701090
  27.5000240 104.9411440 123.4850740  25.4852220 101.3181450  94.4199580
  25.0233750 100.5468690  94.7486750  26.2977770 101.3447520  94.9252030
  15.4611880 101.2581160  96.7134230  15.7639920 100.3678900  96.5344450
  16.2055470 101.8151380  96.4856480  13.8902570  92.1842960  90.3018600
  13.0019270  92.5258930  90.1998480  14.1743760  91.9843280  89.4099430
  11.8535580  94.7848610  96.1858300  12.4251690  94.0170810  96.1861940
  11.8537120  95.0837370  95.2764910  21.7115530 103.6039460  94.0403570
  21.0926970 104.0596960  93.4698010  22.5667310 103.7590920  93.6393270
  13.0960450  90.1932970  97.9727230  12.9163290  89.2958720  98.2529990
  12.6940530  90.7404840  98.6474180  21.9358950  92.3948830  95.8739540
  22.3123770  91.5220710  95.7613210  21.8378460  92.7307530  94.9829980
  16.0663960  90.7674460  91.3356980  16.1730710  91.6678190  91.6425740
  15.1556320  90.7192430  91.0451630  13.7147120  92.6893470  96.5809570
  14.3957230  92.9531840  97.1996970  13.3995170  91.8494340  96.9147580
  16.1907790  88.3759390  99.9345580  16.1926230  88.8931780  99.1291480
  15.3612100  87.8989570  99.9115510  17.4410640  98.0154570  98.1119080
  17.1080020  98.6423490  98.7540150  17.6177320  98.5416450  97.3320750
  15.8723120  90.0869350  97.9416030  16.2139930  90.9311400  97.6469900
  14.9338930  90.2353090  98.0581370  16.6529740  99.9835370  99.9268260
  17.2703740 100.6586450  99.6452710  15.7922860 100.3923350  99.8355760
  11.9462080  99.1735230  88.8075110  11.5690060  99.6622330  88.0760010
  12.2035150  99.8460510  89.4381640  19.5551010  87.5751620  94.2660620
  19.8625990  87.0198510  93.5496120  18.6251710  87.7096080  94.0833610
  25.1066070 103.2918910  96.5568080  25.1193230 102.8881200  95.6890340
  24.5541290 104.0666200  96.4529510  24.5051510  98.1948750  97.8850690
  24.9220300  97.9808860  97.0504150  25.2291330  98.4521540  98.4559310
  21.9300850  91.9117450  87.9987900  20.9904520  92.0731410  88.0840360
  22.2484110  92.6303130  87.4523890  28.4513610  96.5935970  97.9766930
  27.6232240  96.6629060  97.5017060  29.0464090  97.1790280  97.5082760
  16.2617030  92.9408400  97.5639510  16.8131620  93.0503740  96.7892760
  16.7760540  93.3146000  98.2794740  17.1088540  99.5914440 102.5987480
  16.2117070  99.8154410 102.8460880  17.1341410  99.7149380 101.6498880
  15.9359760  96.4627760 101.1744850  15.7967530  97.3350560 101.5432250
  15.0541120  96.1200570 101.0292790  22.2589140 101.3803630  92.4809980
  22.6985050 102.1227960  92.0665370  22.1976030 101.6230200  93.4048940
  17.7340110 102.4049460 103.3830000  17.7055540 102.8092410 102.5158430
  17.5705080 101.4759820 103.2201600  27.7310900  87.6950370  86.8269780
  27.4183560  87.7877200  87.7268850  28.4923370  88.2731400  86.7767210
  14.2493040  95.0610170  91.2847120  14.1290640  95.7872260  90.6728390
  13.9393930  94.2913080  90.8075030  11.8878410  98.2325310  97.0915760
  11.9658830  98.3674080  96.1471480  12.5020090  97.5241200  97.2843880
  13.1326040  99.9325500  93.5021940  12.7254120 100.0740090  92.6475540
  14.0239050  99.6485660  93.2993150  17.4047700 104.1471280  91.6144610
  17.2290180 103.2306820  91.4012410  16.5503440 104.5058570  91.8542410
  28.9412190  92.4321870 102.8043920  28.3256460  92.9401540 102.2759380
  28.6208610  91.5320200 102.7469860  11.9437930  99.2739480  99.6310220
  12.1068970  98.8044840  98.8129590  12.4090380  98.7663040 100.2959060
  16.7156700  88.4045240  94.6670790  16.2724850  89.1854780  94.3355310
  17.2741690  88.7275130  95.3741730  21.0026510  91.2713760 100.2706110
  20.5405880  91.4796780 101.0826050  20.6004620  90.4573110  99.9676780
  26.0031020  92.4922710 101.4002770  25.1524610  92.1928460 101.7211840
  25.8432810  92.7364720 100.4886590  23.0980730  93.9924460 103.5001560
  23.4234140  93.1588210 103.1603790  23.8861060  94.5152980 103.6479890
  19.8315520  88.0255940  89.5476620  19.2069700  88.0215810  90.2729930
  19.7445640  87.1586900  89.1512590  18.7532600  88.9492570  96.5260390
  19.0504930  89.8555400  96.4452410  19.3018160  88.4611350  95.9119960
  18.9470130  94.4264390 103.0612310  18.8513730  93.4859120 102.9112710
  19.7902110  94.6479460 102.6660380  22.3433550  92.1705720  93.0245970
  22.7363120  92.4877920  92.2114660  22.7050400  91.2917600  93.1390490
  14.0780670  90.8378060 101.2146090  13.6844060  91.6853270 101.4218870
  13.3899070  90.2004430 101.4054730  20.6525720  90.9213030 104.2842830
  19.9624040  90.7285230 104.9188920  21.3958020  91.2047670 104.8167130
  11.3797720  88.7606520  95.2476170  11.0910770  89.3309380  95.9601150
  12.1243480  88.2810970  95.6107400  11.5667950  92.7026640  86.4578890
  11.4842620  93.6457400  86.5993880  11.2151010  92.5601550  85.5791240
  22.9288690  94.7611470  97.1196750  22.1969810  95.2698280  97.4686850
  22.5313030  93.9441450  96.8185530  19.3666080  91.4365670  95.5249240
  19.3702140  90.9955620  94.6753780  20.2617200  91.7583000  95.6321060
  15.2168460  91.3192160  94.4843450  14.8768510  91.7967390  95.2410500
  14.4545780  90.8657280  94.1244550  19.4286230  92.4377750  88.5156000
  19.5499050  92.3964230  89.4641820  19.0434740  93.3001900  88.3602730
  26.8185350  87.6277330 102.3706070  27.1431120  86.8966990 102.8964050
  26.8541860  87.3090970 101.4687060  13.5176910  98.6490910 101.7906030
  13.1331700  98.0084580 102.3888990  13.8289100  99.3527030 102.3600760
  12.5314540  90.2411140  93.4008120  12.2461460  89.8766810  94.2386740
  12.4693400  89.5091600  92.7871260  17.4573420  94.5376090  99.5898860
  17.1530490  95.4168070  99.8149220  18.4119880  94.5975880  99.6256300
  15.9855210  98.7437080  90.1865710  15.2117470  98.2034700  90.0264430
  16.7149840  98.2243690  89.8483470  26.7443190  97.7402440  95.9792100
  27.4642310  98.2357730  95.5888210  26.5425010  97.0620330  95.3345970
  22.2053130  89.1340400  90.1221490  21.3917740  88.6353570  90.0466800
  22.0115080  89.9738650  89.7057840  13.5137150  95.3778830 100.7370220
  13.1552090  96.0432680 101.3243560  13.2191710  94.5462380 101.1082840
  16.7150270  95.8363070 103.6209770  16.4150410  95.9820250 102.7237590
  17.4861510  95.2768360 103.5283160  19.8852800  99.7597270  91.8687740
  20.5723930 100.3066480  92.2495330  19.0985220 100.3038000  91.9037350
  12.0245200  95.3770090  87.3604820  12.8940050  95.6594890  87.6440740
  11.5335520  96.1905960  87.2453630  21.4912620 102.2749640  98.7105400
  22.1354840 102.4809020  99.3878820  21.8542060 101.5138040  98.2576250
  15.0891790  87.1080950  91.9535620  14.9606420  87.0998850  92.9020540
  14.2653810  87.4464040  91.6026630  22.7644700 100.2781990  97.4282850
  23.4066930  99.5775150  97.5415020  23.2894050 101.0580430  97.2479740
  12.3916450 104.5897470  87.9266450  12.7514090 105.1886810  87.2723720
  12.2508790 105.1357360  88.7001480  12.0885720  88.8672070 101.4142320
  11.3744240  89.0668990 102.0194930  12.5080760  88.0911640 101.7857120
  12.3758310 102.8552330 102.4008850  12.4849430 101.9147070 102.2604240
  11.7238870 103.1207080 101.7522580  18.4085070 101.9728670  88.7440120
  18.3995170 102.7058360  88.1284630  17.4883430 101.7260250  88.8367080
  14.0091710  97.1943560  89.4886880  13.4019660  97.9342460  89.4982180
  14.4841060  97.2842920  88.6625080  23.5824500  91.3594380  99.1643770
  23.9505320  90.5389590  99.4923340  22.7222700  91.4196270  99.5799420
  21.3944670 102.0356910  87.4065310  21.4956650 101.8320900  86.4767290
  20.4946410 101.7815190  87.6113090  20.5426490  94.0133970  99.3881740
  21.0411740  94.4879790 100.0533590  20.6849440  93.0897490  99.5951770
  22.9485990  89.3187930  92.8285000  22.8253770  89.3374060  91.8794510
  23.8970550  89.3666870  92.9483400  20.0362780 104.5543230  92.1012980
  20.2904280 104.5164620  91.1792350  19.0875260 104.4276560  92.0941230
  17.1205580  90.9022350  88.7639920  17.9696110  91.3392500  88.6980110
  16.7536850  91.2142610  89.5911980  16.0197000  97.1554710  87.2375450
  16.7860270  97.0436070  87.8000880  16.0971690  96.4592680  86.5852220
  14.7143760  94.5879780  87.9208340  14.7947350  93.6407290  88.0325740
  15.6063510  94.9186660  88.0269000  28.0440940 102.6443960  95.3525750
  28.1688360 103.4675130  95.8249560  28.9106500 102.4334690  95.0049900
  15.5158470 104.7375170  95.0242880  16.2520950 104.1890630  95.2951450
  15.8999390 105.6031180  94.8848870  12.4003950 100.8048740  90.8984390
  11.4743730 101.0469880  90.8889800  12.8660380 101.6323000  90.7769140
  14.5216750 103.9221240 104.2128460  15.3229480 104.2433290 104.6263860
  14.0068570 103.5616820 104.9348370  18.6260780 103.9105480  86.8468450
  19.4189390 104.1994310  86.3950240  18.1065130 103.4797650  86.1680930
  12.2414560  96.4094700 103.1564510  12.7453580  95.8301980 103.7280740
  11.5021980  96.6934930 103.6940880  19.1438180  99.1308890  86.7110800
  19.0388820  98.5161240  87.4372180  18.9762400  98.6074780  85.9273810
  19.2952500  97.8165690 102.6900030  18.5298170  98.3850690 102.6054700
  19.4768460  97.5241900 101.7968260  14.2737640  94.5524290 104.0514580
  14.3142980  94.2538160 104.9599810  15.1283140  94.9531900 103.8922100
  16.2143450  93.1316390 102.0189070  15.6839910  92.6407340 101.3912410
  16.8831520  93.5600590 101.4847000  25.5843680  94.9382010 103.7869410
  26.1664450  94.1834330 103.6989890  25.7605450  95.4689450 103.0100890
  16.7015750  90.0978760 102.0986360  16.6072620  89.4799510 101.3737230
  16.1213140  90.8245050 101.8716270  19.4677190  88.6552000  99.1313750
  19.0194490  88.6776260  98.2859300  18.8342390  88.2571020  99.7284050
  19.8736740  97.5506330  99.7526190  20.2924850  98.3939060  99.5802430
  18.9545370  97.6878370  99.5232970  22.2100640  95.2822510 101.1364030
  22.3296850  94.6863650 101.8758870  23.0694640  95.3192200 100.7165330
  24.5488540  95.8359700  99.7126540  24.0223760  96.3602320  99.1091680
  24.8919880  96.4687090 100.3436270  17.7244160 103.8559340 100.8683920
  17.1865250 104.5805400 100.5492620  17.9778120 103.3789680 100.0781260
  18.9769410  91.8243860 102.3939850  19.5669100  91.5159710 103.0817670
  18.1589650  91.3523610 102.5499750  23.7962840  91.4409670 102.6272870
  23.1078360  90.7791210 102.5622860  24.5168860  90.9947940 103.0721330
  24.4263240  88.0361300  88.6863130  24.7065530  87.1929200  89.0422550
  23.6528970  88.2684410  89.2001880  15.7457730  90.3253690  86.1454130
  16.0483630  90.3321120  85.2373280  16.4852320  89.9751550  86.6421790
  20.5806370 105.0910550 101.1270570  20.5065070 105.9945690 101.4342940
  19.6785210 104.7722450 101.0992640  18.9642660  89.2688310  87.1310330
  18.6164660  88.5912300  86.5512780  19.1655430  88.8077820  87.9453720
  21.1291700 104.2569060  88.7496930  22.0242490 104.5954030  88.7715690
  21.1609330 103.5348470  88.1221210  14.7687860  99.6296110  86.9783930
  15.2062730 100.1725780  87.6341510  15.2535590  98.8043060  86.9880270
  11.9833660 102.4185140  94.4304190  12.3136670 101.5506200  94.1982830
  12.4124660 102.6243660  95.2609150  16.5795580 100.7494150  92.0906160
  16.2791120 100.6259120  92.9910070  16.4733070  99.8902740  91.6821890
  12.4723870 103.2855730  97.1685820  12.0354860 103.4656530  98.0009970
  13.0401550 104.0430350  97.0267540  12.3048300  95.7975960  93.5274700
  11.6497140  95.5287600  92.8834400  13.1426250  95.6880440  93.0776680
  29.8103930  98.1288130  94.1408970  30.1812760  97.3455450  93.7344940
  30.4505860  98.8177230  93.9626270  25.2538740  90.5917250  87.7493190
  25.6723620  90.4048230  86.9089850  24.9474800  89.7396300  88.0596120
  28.7528470  95.5041390  91.4468990  28.3772070  94.7369320  91.0150280
  28.0231590  95.8864090  91.9343920  13.3424230  96.1828530  98.0678040
  13.7097270  96.0955930  98.9474060  12.7735050  95.4195080  97.9684900
  28.1428090  94.6512910 101.0808510  27.9114180  94.4225660 100.1806460
  28.4032640  95.5712460 101.0353400  12.8940230  93.0937620 101.9736460
  11.9996280  93.0604380 102.3130170  13.4337780  93.2924410 102.7387710
  11.5186380  93.0074890  89.4700030  10.6150460  93.2705090  89.2951690
  12.0027000  93.2786060  88.6899990  14.0613590  92.0640430  87.3794410
  14.7705290  91.6423650  86.8941690  13.3453530  92.1315660  86.7477760
  13.7087750  88.1179760  86.4197060  14.4315880  88.6588700  86.7378280
  13.9812270  87.8443180  85.5438600  13.3979940  87.3685950  96.3219680
  14.0456130  86.8183330  95.8814840  13.8181780  87.6229100  97.1435490
  29.8356830  89.4541100  86.4612460  30.7606140  89.3222280  86.2530750
  29.8132620  89.5333920  87.4148910  13.1511940  87.5241620  99.0645000
  12.8026760  87.9805440  99.8303180  12.8199640  86.6298750  99.1467430
  14.7576310 100.6961220 103.2298190  14.7145940 100.3254130 104.1112650
  14.8887320 101.6338790 103.3700010  18.4582340 102.2520810  98.8307910
  18.2173700 102.5195370  97.9438430  19.3984980 102.4226540  98.8858770
  20.6636760  88.7153500 102.5864420  20.6025650  89.3075330 103.3359830
  21.6037140  88.6079460 102.4414680  23.3011320  88.3723560 102.2256710
  23.9151730  88.6902850 101.5637790  23.8460880  87.8872150 102.8452570
  29.7186500 104.2715190  99.6318550  29.2244780 104.6684060  98.9145680
  29.1099790 103.6464400 100.0255830  13.8232580  87.0517820 102.3395770
  14.3715570  86.8705870 101.5761880  13.8887890  86.2611930 102.8752080
  14.5964340 103.6423470 100.3495970  14.0024660 103.5108170 101.0886010
  14.5888180 102.8061610  99.8838070  24.0419360  86.9355700  98.5526000
  23.1679200  87.2690810  98.3498930  23.9330110  86.4628880  99.3777870
  27.4025950 104.9138610  96.9105290  26.9428920 105.6654420  96.5363310
  26.7738410 104.1945080  96.8520090  14.2276570 101.0081850  99.3004010
  13.5010630 100.3887140  99.2329960  14.2885720 101.4022460  98.4302090
  17.8321670 103.2226850  96.0853420  18.3486690 102.6114210  95.5601680
  18.4819050 103.7255630  96.5764430  20.5717170 104.1135340  96.9122400
  20.8594980 103.8589640  96.0355410  21.0840390 103.5612700  97.5027970
  21.7894180  87.8525540  97.4918910  21.0065970  88.3271040  97.7715670
  21.4957110  86.9480370  97.3832090  12.5106570 104.3256240  92.5100770
  12.3428610 103.6926920  93.2082660  11.6441080 104.5315640  92.1594960
  13.1334590  88.1573020  90.0132630  13.8913950  88.2701900  89.4396660
  12.6711760  88.9942220  89.9676060  19.6748400  90.2712290  93.0034940
  18.8622910  89.8969180  92.6630820  20.1790040  89.5157370  93.3056130
  24.1773380  86.9354740  94.2418010  24.7802750  87.5074950  94.7166530
  23.4366370  87.4994180  94.0191910  27.3207980  87.3376300  89.5158290
  27.5158610  88.2359750  89.7825720  26.5337850  87.1063380  90.0091240
  14.1169270 103.0189470  89.9550910  13.5916890 103.3997500  89.2512870
  14.0413850 103.6440240  90.6760620  15.5059740  88.6837070  88.5534600
  16.0352500  87.8966870  88.4242550  16.1388060  89.3628260  88.7870130
  17.6997580  88.4212210  91.6079990  17.0700320  87.7199520  91.7750120
  17.1602720  89.1816340  91.3913150  20.6389530 105.0351440 104.2790600
  21.5656840 104.7995710 104.3226560  20.6239960 105.8623440 103.7976630
  17.8253140  87.6996190 104.0432480  17.5437410  88.2029790 103.2793300
  18.2072840  86.9017940 103.6774610  16.7162240 104.9671850  88.8300160
  17.4481060 104.6831130  88.2824050  16.9755910 104.7285130  89.7199540
  15.8777030 101.0836580  88.8346490  15.2485910 101.5521680  89.3832320
  15.9924860 100.2385800  89.2692680  21.4644790  96.9121260  76.8656960
  20.6886890  96.4321700  77.1555530  22.1157720  96.2326910  76.6913120
  15.4810620  97.2241070  77.7432720  14.6495500  96.9689780  78.1429230
  16.0891600  97.2951840  78.4790640  25.4852220 101.3181450  75.6456090
  25.0233750 100.5468690  75.9743260  26.2977770 101.3447520  76.1508540
  15.4611880 101.2581160  77.9390740  15.7639920 100.3678900  77.7600960
  16.2055470 101.8151380  77.7112990  13.8902570  92.1842960  71.5275110
  13.0019270  92.5258930  71.4254990  14.1743760  91.9843280  70.6355940
  11.8535580  94.7848610  77.4114810  12.4251690  94.0170810  77.4118450
  11.8537120  95.0837370  76.5021420  21.7115530 103.6039460  75.2660080
  21.0926970 104.0596960  74.6954520  22.5667310 103.7590920  74.8649780
  20.9053780  99.5878450  76.8727120  20.8362060  98.6468390  76.7116250
  21.6673640  99.6779860  77.4449690  21.9358950  92.3948830  77.0996050
  22.3123770  91.5220710  76.9869720  21.8378460  92.7307530  76.2086490
  16.0663960  90.7674460  72.5613490  16.1730710  91.6678190  72.8682250
  15.1556320  90.7192430  72.2708140  25.7183070  89.8899270  74.0324390
  26.5392690  89.3995840  74.0749870  25.7517150  90.4796930  74.7856230
  17.9071690  93.7360830  76.8938670  18.4149910  94.2341800  77.5343690
  18.4384930  92.9596030  76.7178030  22.5778880  98.4878700  72.6591990
  21.9596150  98.9528150  72.0954710  23.0902130  99.1806180  73.0761500
  17.4410640  98.0154570  79.3375590  17.1080020  98.6423490  79.9796660
  17.6177320  98.5416450  78.5577260  16.6529740  99.9835370  81.1524770
  17.2703740 100.6586450  80.8709220  15.7922860 100.3923350  81.0612270
  11.9462080  99.1735230  70.0331620  11.5690060  99.6622330  69.3016520
  12.2035150  99.8460510  70.6638150  27.5707330 101.4474780  79.0679410
  26.8870850 102.1173890  79.0596080  28.1101620 101.6455430  78.3024270
  19.5551010  87.5751620  75.4917130  19.8625990  87.0198510  74.7752630
  18.6251710  87.7096080  75.3090120  25.1066070 103.2918910  77.7824590
  25.1193230 102.8881200  76.9146850  24.5541290 104.0666200  77.6786020
  21.9431770  95.6400450  72.2277250  21.0161050  95.5737830  72.4565720
  22.0956590  96.5780580  72.1132490  21.9300850  91.9117450  69.2244410
  20.9904520  92.0731410  69.3096870  22.2484110  92.6303130  68.6780400
  17.5488410  96.1665190  75.0096980  17.1445410  95.4542440  74.5142880
  17.6351530  95.8218430  75.8985020  18.0170110  99.8532750  77.1736190
  17.7198400  99.2478220  76.4943970  18.9669930  99.8910060  77.0625550
  26.1055720 103.4264620  80.8359290  25.6286280 104.2336810  80.6431900
  25.4217510 102.7742950  80.9885500  17.1088540  99.5914440  83.8243990
  16.2117070  99.8154410  84.0717390  17.1341410  99.7149380  82.8755390
  15.9359760  96.4627760  82.4001360  15.7967530  97.3350560  82.7688760
  15.0541120  96.1200570  82.2549300  17.7340110 102.4049460  84.6086510
  17.7055540 102.8092410  83.7414940  17.5705080 101.4759820  84.4458110
  14.2493040  95.0610170  72.5103630  14.1290640  95.7872260  71.8984900
  13.9393930  94.2913080  72.0331540  29.6854930 103.1876560  85.9050680
  30.1614650 103.6659450  86.5839760  30.3062090 103.1194050  85.1796180
  11.8878410  98.2325310  78.3172270  11.9658830  98.3674080  77.3727990
  12.5020090  97.5241200  78.5100390  13.1326040  99.9325500  74.7278450
  12.7254120 100.0740090  73.8732050  14.0239050  99.6485660  74.5249660
  29.0888180 100.3789410  83.0650690  29.2151240 100.1401290  82.1467870
  29.1309560  99.5473950  83.5372770  22.9504920 104.0817410  81.6345500
  23.4649590 103.9925420  82.4367930  22.1074000 104.4277110  81.9273410
  17.4047700 104.1471280  72.8401120  17.2290180 103.2306820  72.6268920
  16.5503440 104.5058570  73.0798920  28.9412190  92.4321870  84.0300430
  28.3256460  92.9401540  83.5015890  28.6208610  91.5320200  83.9726370
  11.9437930  99.2739480  80.8566730  12.1068970  98.8044840  80.0386100
  12.4090380  98.7663040  81.5215570  16.7156700  88.4045240  75.8927300
  16.2724850  89.1854780  75.5611820  17.2741690  88.7275130  76.5998240
  26.0031020  92.4922710  82.6259280  25.1524610  92.1928460  82.9468350
  25.8432810  92.7364720  81.7143100  23.0980730  93.9924460  84.7258070
  23.4234140  93.1588210  84.3860300  23.8861060  94.5152980  84.8736400
  19.8315520  88.0255940  70.7733130  19.2069700  88.0215810  71.4986440
  19.7445640  87.1586900  70.3769100  16.5070920  93.5278810  73.6208550
  16.2811840  93.3115980  74.5255170  15.7263450  93.9607270  73.2754520
  23.7368680  93.5342180  72.2199200  23.1377570  94.2577980  72.0362820
  24.2848290  93.4718960  71.4375650  22.3433550  92.1705720  74.2502480
  22.7363120  92.4877920  73.4371170  22.7050400  91.2917600  74.3647000
  20.6525720  90.9213030  85.5099340  19.9624040  90.7285230  86.1445430
  21.3958020  91.2047670  86.0423640  11.3797720  88.7606520  76.4732680
  11.0910770  89.3309380  77.1857660  12.1243480  88.2810970  76.8363910
  11.5667950  92.7026640  67.6835400  11.4842620  93.6457400  67.8250390
  11.2151010  92.5601550  66.8047750  19.3666080  91.4365670  76.7505750
  19.3702140  90.9955620  75.9010290  20.2617200  91.7583000  76.8577570
  15.2168460  91.3192160  75.7099960  14.8768510  91.7967390  76.4667010
  14.4545780  90.8657280  75.3501060  19.4286230  92.4377750  69.7412510
  19.5499050  92.3964230  70.6898330  19.0434740  93.3001900  69.5859240
  23.3914600  90.2145150  77.7576200  23.4087340  90.6653800  78.6018050
  23.1430180  89.3150790  77.9709640  18.4407730  94.7478890  69.1395810
  17.8724630  94.2997140  68.5131720  19.1496730  95.1071670  68.6060960
  26.8185350  87.6277330  83.5962580  27.1431120  86.8966990  84.1220560
  26.8541860  87.3090970  82.6943570  13.5176910  98.6490910  83.0162540
  13.1331700  98.0084580  83.6145500  13.8289100  99.3527030  83.5857270
  19.6674050  95.4967450  78.4971160  20.0344180  95.0226020  79.2432500
  19.4779110  96.3709020  78.8379500  12.5314540  90.2411140  74.6264630
  12.2461460  89.8766810  75.4643250  12.4693400  89.5091600  74.0127770
  15.9855210  98.7437080  71.4122220  15.2117470  98.2034700  71.2520940
  16.7149840  98.2243690  71.0739980  22.2053130  89.1340400  71.3478000
  21.3917740  88.6353570  71.2723310  22.0115080  89.9738650  70.9314350
  22.1261990  97.8111500  83.0917610  22.0599300  96.8907170  82.8375200
  21.4967130  97.9086940  83.8062250  24.9201520  93.5060050  69.6440160
  25.8081140  93.8177280  69.4691500  24.8906610  92.6332300  69.2520740
  16.0292610  98.4117460  75.0501030  16.5471280  97.6085720  74.9957920
  15.5776630  98.3496600  75.8917860  20.9162110  99.6783740  70.3228330
  21.2577810 100.4225970  69.8271650  20.0874820  99.9914860  70.6853160
  16.7150270  95.8363070  84.8466280  16.4150410  95.9820250  83.9494100
  17.4861510  95.2768360  84.7539670  22.0578720 100.6332070  82.8421410
  22.0723260  99.7013030  82.6240320  21.3503820 100.7191830  83.4811180
  28.2689930  97.2739410  82.1889990  27.5438120  97.8668190  81.9919380
  28.7965390  97.2662950  81.3903360  23.7989520  98.9999580  75.6873840
  24.1513340  98.4027710  75.0275210  22.9151850  98.6743810  75.8582090
  19.8852800  99.7597270  73.0944250  20.5723930 100.3066480  73.4751840
  19.0985220 100.3038000  73.1293860  12.0245200  95.3770090  68.5861330
  12.8940050  95.6594890  68.8697250  11.5335520  96.1905960  68.4710140
  19.1880010  96.7643300  72.7069610  19.6442790  97.5748550  72.9329800
  18.8368220  96.4466440  73.5388100  21.4912620 102.2749640  79.9361910
  22.1354840 102.4809020  80.6135330  21.8542060 101.5138040  79.4832760
  15.0891790  87.1080950  73.1792130  14.9606420  87.0998850  74.1277050
  14.2653810  87.4464040  72.8283140  22.7644700 100.2781990  78.6539360
  23.4066930  99.5775150  78.7671530  23.2894050 101.0580430  78.4736250
  24.5382320 101.0776890  81.8575420  24.8738560 101.6643580  82.5353340
  23.6182660 100.9469600  82.0873210  12.3916450 104.5897470  69.1522960
  12.7514090 105.1886810  68.4980230  12.2508790 105.1357360  69.9257990
  12.0885720  88.8672070  82.6398830  11.3744240  89.0668990  83.2451440
  12.5080760  88.0911640  83.0113630  12.3758310 102.8552330  83.6265360
  12.4849430 101.9147070  83.4860750  11.7238870 103.1207080  82.9779090
  20.3670900 101.1268220  85.0263480  20.0467770 100.4077460  85.5709170
  19.6929260 101.8023290  85.0999540  18.4085070 101.9728670  69.9696630
  18.3995170 102.7058360  69.3541140  17.4883430 101.7260250  70.0623590
  14.0091710  97.1943560  70.7143390  13.4019660  97.9342460  70.7238690
  14.4841060  97.2842920  69.8881590  23.5824500  91.3594380  80.3900280
  23.9505320  90.5389590  80.7179850  22.7222700  91.4196270  80.8055930
  26.9486530  90.3151320  71.1987840  26.3199690  90.4196990  70.4846070
  26.4538450  90.5348100  71.9881720  18.9170560  92.5937270  72.6145720
  18.2086710  93.0623610  73.0559330  19.2015040  91.9359280  73.2490910
  20.5426490  94.0133970  80.6138250  21.0411740  94.4879790  81.2790100
  20.6849440  93.0897490  80.8208280  22.9485990  89.3187930  74.0541510
  22.8253770  89.3374060  73.1051020  23.8970550  89.3666870  74.1739910
  20.0362780 104.5543230  73.3269490  20.2904280 104.5164620  72.4048860
  19.0875260 104.4276560  73.3197740  17.1205580  90.9022350  69.9896430
  17.9696110  91.3392500  69.9236620  16.7536850  91.2142610  70.8168490
  27.7493350  90.2301930  81.4566640  27.2466950  90.9707330  81.7960450
  28.5650010  90.6185930  81.1403430  16.0197000  97.1554710  68.4631960
  16.7860270  97.0436070  69.0257390  16.0971690  96.4592680  67.8108730
  14.7143760  94.5879780  69.1464850  14.7947350  93.6407290  69.2582250
  15.6063510  94.9186660  69.2525510  28.0440940 102.6443960  76.5782260
  28.1688360 103.4675130  77.0506070  28.9106500 102.4334690  76.2306410
  15.5158470 104.7375170  76.2499390  16.2520950 104.1890630  76.5207960
  15.8999390 105.6031180  76.1105380  12.4003950 100.8048740  72.1240900
  11.4743730 101.0469880  72.1146310  12.8660380 101.6323000  72.0025650
  14.5216750 103.9221240  85.4384970  15.3229480 104.2433290  85.8520370
  14.0068570 103.5616820  86.1604880  18.6260780 103.9105480  68.0724960
  19.4189390 104.1994310  67.6206750  18.1065130 103.4797650  67.3937440
  23.3581380 100.0301110  85.3860380  22.7519540 100.0532710  84.6456130
  23.0535490  99.2984150  85.9227630  24.7881750 103.7581400  83.9969790
  25.7403500 103.6739420  83.9470030  24.6409970 104.4223110  84.6703580
  12.2414560  96.4094700  84.3821020  12.7453580  95.8301980  84.9537250
  11.5021980  96.6934930  84.9197390  19.1438180  99.1308890  67.9367310
  19.0388820  98.5161240  68.6628690  18.9762400  98.6074780  67.1530320
  19.2952500  97.8165690  83.9156540  18.5298170  98.3850690  83.8311210
  19.4768460  97.5241900  83.0224770  22.3840910  98.1928920  68.5409300
  21.8351010  98.6398220  69.1852040  23.0060170  97.6878170  69.0646970
  26.4375850  99.5471020  84.4731560  27.1785320  99.8846780  83.9699020
  25.6748530  99.7163080  83.9201330  18.0516030  97.1519840  70.4374600
  18.4732450  96.9859710  71.2805990  18.1766870  96.3420070  69.9429740
  20.5643670  96.1757450  67.6851700  21.0849330  95.4606470  67.3192850
  21.2112070  96.8143320  67.9852210  25.1121510  97.5985850  83.0086770
  25.5262530  97.7530930  83.8577190  24.1772510  97.7241070  83.1712550
  19.8736740  97.5506330  80.9782700  20.2924850  98.3939060  80.8058940
  18.9545370  97.6878370  80.7489480  22.2100640  95.2822510  82.3620540
  22.3296850  94.6863650  83.1015380  23.0694640  95.3192200  81.9421840
  16.9474930  93.2253070  67.3832760  16.7463990  92.3620430  67.7446100
  16.7766980  93.1386430  66.4454360  17.7244160 103.8559340  82.0940430
  17.1865250 104.5805400  81.7749130  17.9778120 103.3789680  81.3037770
  23.7962840  91.4409670  83.8529380  23.1078360  90.7791210  83.7879370
  24.5168860  90.9947940  84.2977840  20.5806370 105.0910550  82.3527080
  20.5065070 105.9945690  82.6599450  19.6785210 104.7722450  82.3249150
  18.9642660  89.2688310  68.3566840  18.6164660  88.5912300  67.7769290
  19.1655430  88.8077820  69.1710230  14.7687860  99.6296110  68.2040440
  15.2062730 100.1725780  68.8598020  15.2535590  98.8043060  68.2136780
  11.9833660 102.4185140  75.6560700  12.3136670 101.5506200  75.4239340
  12.4124660 102.6243660  76.4865660  16.5795580 100.7494150  73.3162670
  16.2791120 100.6259120  74.2166580  16.4733070  99.8902740  72.9078400
  12.4723870 103.2855730  78.3942330  12.0354860 103.4656530  79.2266480
  13.0401550 104.0430350  78.2524050  28.1086050 102.7872730  82.6819640
  27.5088040 102.8465290  81.9383560  28.2379950 101.8477710  82.8116490
  29.3487500 100.5290550  68.0189350  28.5180460 100.5967200  68.4896580
  29.5259330 101.4194670  67.7156210  12.3048300  95.7975960  74.7531210
  11.6497140  95.5287600  74.1090910  13.1426250  95.6880440  74.3033190
  26.7937690  99.5124710  80.7795800  25.9797530  99.9421870  81.0421590
  27.2011890 100.1243120  80.1664850  13.3424230  96.1828530  79.2934550
  13.7097270  96.0955930  80.1730570  12.7735050  95.4195080  79.1941410
  28.1428090  94.6512910  82.3065020  27.9114180  94.4225660  81.4062970
  28.4032640  95.5712460  82.2609910  26.5816160  89.8769340  85.0844720
  27.4586340  89.8852740  85.4678720  26.5937000  89.1400180  84.4737070
  11.5186380  93.0074890  70.6956540  10.6150460  93.2705090  70.5208200
  12.0027000  93.2786060  69.9156500  14.0613590  92.0640430  68.6050920
  14.7705290  91.6423650  68.1198200  13.3453530  92.1315660  67.9734270
  13.7087750  88.1179760  67.6453570  14.4315880  88.6588700  67.9634790
  13.9812270  87.8443180  66.7695110  13.3979940  87.3685950  77.5476190
  14.0456130  86.8183330  77.1071350  13.8181780  87.6229100  78.3692000
  27.2932280  87.5627310  80.9045830  27.9304500  88.1761450  81.2705020
  27.4407170  87.5987970  79.9595060  29.9095320  90.2251760  70.3125680
  29.1146820  90.1596880  70.8418590  30.1138600  91.1602400  70.3011030
  13.1511940  87.5241620  80.2901510  12.8026760  87.9805440  81.0559690
  12.8199640  86.6298750  80.3723940  14.7576310 100.6961220  84.4554700
  14.7145940 100.3254130  85.3369160  14.8887320 101.6338790  84.5956520
  18.4582340 102.2520810  80.0564420  18.2173700 102.5195370  79.1694940
  19.3984980 102.4226540  80.1115280  20.6636760  88.7153500  83.8120930
  20.6025650  89.3075330  84.5616340  21.6037140  88.6079460  83.6671190
  23.3011320  88.3723560  83.4513220  23.9151730  88.6902850  82.7894300
  23.8460880  87.8872150  84.0709080  29.7186500 104.2715190  80.8575060
  29.2244780 104.6684060  80.1402190  29.1099790 103.6464400  81.2512340
  13.8232580  87.0517820  83.5652280  14.3715570  86.8705870  82.8018390
  13.8887890  86.2611930  84.1008590  14.5964340 103.6423470  81.5752480
  14.0024660 103.5108170  82.3142520  14.5888180 102.8061610  81.1094580
  24.0419360  86.9355700  79.7782510  23.1679200  87.2690810  79.5755440
  23.9330110  86.4628880  80.6034380  24.9491340  89.1426570  81.1624230
  24.6204700  88.3278330  80.7825960  25.8973640  89.0996380  81.0389920
  27.4025950 104.9138610  78.1361800  26.9428920 105.6654420  77.7619820
  26.7738410 104.1945080  78.0776600  14.2276570 101.0081850  80.5260520
  13.5010630 100.3887140  80.4586470  14.2885720 101.4022460  79.6558600
  17.8321670 103.2226850  77.3109930  18.3486690 102.6114210  76.7858190
  18.4819050 103.7255630  77.8020940  20.5717170 104.1135340  78.1378910
  20.8594980 103.8589640  77.2611920  21.0840390 103.5612700  78.7284480
  21.7894180  87.8525540  78.7175420  21.0065970  88.3271040  78.9972180
  21.4957110  86.9480370  78.6088600  26.3415250  88.5548640  76.7624510
  26.7823340  88.4993740  75.9146110  26.0722840  89.4706650  76.8334690
  12.5106570 104.3256240  73.7357280  12.3428610 103.6926920  74.4339170
  11.6441080 104.5315640  73.3851470  13.1334590  88.1573020  71.2389140
  13.8913950  88.2701900  70.6653170  12.6711760  88.9942220  71.1932570
  19.6748400  90.2712290  74.2291450  18.8622910  89.8969180  73.8887330
  20.1790040  89.5157370  74.5312640  24.1773380  86.9354740  75.4674520
  24.7802750  87.5074950  75.9423040  23.4366370  87.4994180  75.2448420
  14.1169270 103.0189470  71.1807420  13.5916890 103.3997500  70.4769380
  14.0413850 103.6440240  71.9017130  15.5059740  88.6837070  69.7791110
  16.0352500  87.8966870  69.6499060  16.1388060  89.3628260  70.0126640
  17.6997580  88.4212210  72.8336500  17.0700320  87.7199520  73.0006630
  17.1602720  89.1816340  72.6169660  20.6389530 105.0351440  85.5047110
  21.5656840 104.7995710  85.5483070  20.6239960 105.8623440  85.0233140
  17.8253140  87.6996190  85.2688990  17.5437410  88.2029790  84.5049810
  18.2072840  86.9017940  84.9031120  16.7162240 104.9671850  70.0556670
  17.4481060 104.6831130  69.5080560  16.9755910 104.7285130  70.9456050
  15.8777030 101.0836580  70.0603000  15.2485910 101.5521680  70.6088830
  15.9924860 100.2385800  70.4949190  24.4268600  87.1149770  85.8469460
  24.3134050  87.4344380  86.7420980  25.2438340  87.5162280  85.5506740
  27.2067090 104.2621300  85.3288150  27.9992410 103.7670530  85.1214110
  27.5000240 104.9411440  85.9363760  23.3326750  95.1342240  56.2104200
  23.2520800  94.2196850  55.9395910  22.9191170  95.6309310  55.5043910
  21.4644790  96.9121260  58.0913470  20.6886890  96.4321700  58.3812040
  22.1157720  96.2326910  57.9169630  15.4810620  97.2241070  58.9689230
  14.6495500  96.9689780  59.3685740  16.0891600  97.2951840  59.7047150
  15.4611880 101.2581160  59.1647250  15.7639920 100.3678900  58.9857470
  16.2055470 101.8151380  58.9369500  13.8902570  92.1842960  52.7531620
  13.0019270  92.5258930  52.6511500  14.1743760  91.9843280  51.8612450
  11.8535580  94.7848610  58.6371320  12.4251690  94.0170810  58.6374960
  11.8537120  95.0837370  57.7277930  21.7115530 103.6039460  56.4916590
  21.0926970 104.0596960  55.9211030  22.5667310 103.7590920  56.0906290
  20.9053780  99.5878450  58.0983630  20.8362060  98.6468390  57.9372760
  21.6673640  99.6779860  58.6706200  21.9358950  92.3948830  58.3252560
  22.3123770  91.5220710  58.2126230  21.8378460  92.7307530  57.4343000
  16.0663960  90.7674460  53.7870000  16.1730710  91.6678190  54.0938760
  15.1556320  90.7192430  53.4964650  25.7183070  89.8899270  55.2580900
  26.5392690  89.3995840  55.3006380  25.7517150  90.4796930  56.0112740
  17.9071690  93.7360830  58.1195180  18.4149910  94.2341800  58.7600200
  18.4384930  92.9596030  57.9434540  22.5778880  98.4878700  53.8848500
  21.9596150  98.9528150  53.3211220  23.0902130  99.1806180  54.3018010
  17.4410640  98.0154570  60.5632100  17.1080020  98.6423490  61.2053170
  17.6177320  98.5416450  59.7833770  25.9544550  91.8299650  58.0308440
  25.2500120  92.1184540  58.6111550  26.3156710  92.6399760  57.6708000
  16.6529740  99.9835370  62.3781280  17.2703740 100.6586450  62.0965730
  15.7922860 100.3923350  62.2868780  11.9462080  99.1735230  51.2588130
  11.5690060  99.6622330  50.5273030  12.2035150  99.8460510  51.8894660
  29.0231470  91.2754440  58.4217650  28.0756380  91.3093420  58.5533080
  29.3481460  92.0893390  58.8067010  19.5551010  87.5751620  56.7173640
  19.8625990  87.0198510  56.0009140  18.6251710  87.7096080  56.5346630
  26.4011490 100.0135130  54.0971270  26.2907820  99.0709460  54.2220690
  26.3979740 100.3750770  54.9834030  24.5051510  98.1948750  60.3363710
  24.9220300  97.9808860  59.5017170  25.2291330  98.4521540  60.9072330
  21.9431770  95.6400450  53.4533760  21.0161050  95.5737830  53.6822230
  22.0956590  96.5780580  53.3389000  21.9300850  91.9117450  50.4500920
  20.9904520  92.0731410  50.5353380  22.2484110  92.6303130  49.9036910
  28.4513610  96.5935970  60.4279950  27.6232240  96.6629060  59.9530080
  29.0464090  97.1790280  59.9595780  25.9729060  97.2020750  53.9569010
  25.3541480  96.8640300  53.3095310  25.9553510  96.5580510  54.6648200
  17.5488410  96.1665190  56.2353490  17.1445410  95.4542440  55.7399390
  17.6351530  95.8218430  57.1241530  18.0170110  99.8532750  58.3992700
  17.7198400  99.2478220  57.7200480  18.9669930  99.8910060  58.2882060
  17.1088540  99.5914440  65.0500500  16.2117070  99.8154410  65.2973900
  17.1341410  99.7149380  64.1011900  24.1493760  96.4407560  50.9641760
  24.5887040  95.6029990  50.8179580  24.8622180  97.0736960  51.0505900
  15.9359760  96.4627760  63.6257870  15.7967530  97.3350560  63.9945270
  15.0541120  96.1200570  63.4805810  22.2589140 101.3803630  54.9323000
  22.6985050 102.1227960  54.5178390  22.1976030 101.6230200  55.8561960
  17.7340110 102.4049460  65.8343020  17.7055540 102.8092410  64.9671450
  17.5705080 101.4759820  65.6714620  27.7310900  87.6950370  49.2782800
  27.4183560  87.7877200  50.1781870  28.4923370  88.2731400  49.2280230
  14.2493040  95.0610170  53.7360140  14.1290640  95.7872260  53.1241410
  13.9393930  94.2913080  53.2588050  29.6854930 103.1876560  67.1307190
  30.1614650 103.6659450  67.8096270  30.3062090 103.1194050  66.4052690
  11.8878410  98.2325310  59.5428780  11.9658830  98.3674080  58.5984500
  12.5020090  97.5241200  59.7356900  13.1326040  99.9325500  55.9534960
  12.7254120 100.0740090  55.0988560  14.0239050  99.6485660  55.7506170
  24.9259320 104.3672750  52.2886010  24.7660460 104.0775690  53.1867840
  24.7606030 103.5912880  51.7531240  17.4047700 104.1471280  54.0657630
  17.2290180 103.2306820  53.8525430  16.5503440 104.5058570  54.3055430
  24.6285450 101.8760310  50.8484010  23.9350610 101.8737600  50.1886290
  25.3708310 101.4519630  50.4178180  24.1935380 103.5023020  54.9232500
  24.6492330 102.7212400  55.2371120  24.5327900 104.2129840  55.4673680
  11.9437930  99.2739480  62.0823240  12.1068970  98.8044840  61.2642610
  12.4090380  98.7663040  62.7472080  16.7156700  88.4045240  57.1183810
  16.2724850  89.1854780  56.7868330  17.2741690  88.7275130  57.8254750
  21.0026510  91.2713760  62.7219130  20.5405880  91.4796780  63.5339070
  20.6004620  90.4573110  62.4189800  19.8315520  88.0255940  51.9989640
  19.2069700  88.0215810  52.7242950  19.7445640  87.1586900  51.6025610
  18.7532600  88.9492570  58.9773410  19.0504930  89.8555400  58.8965430
  19.3018160  88.4611350  58.3632980  16.5070920  93.5278810  54.8465060
  16.2811840  93.3115980  55.7511680  15.7263450  93.9607270  54.5011030
  23.7368680  93.5342180  53.4455710  23.1377570  94.2577980  53.2619330
  24.2848290  93.4718960  52.6632160  18.9470130  94.4264390  65.5125330
  18.8513730  93.4859120  65.3625730  19.7902110  94.6479460  65.1173400
  22.3433550  92.1705720  55.4758990  22.7363120  92.4877920  54.6627680
  22.7050400  91.2917600  55.5903510  20.6525720  90.9213030  66.7355850
  19.9624040  90.7285230  67.3701940  21.3958020  91.2047670  67.2680150
  11.3797720  88.7606520  57.6989190  11.0910770  89.3309380  58.4114170
  12.1243480  88.2810970  58.0620420  11.5667950  92.7026640  48.9091910
  11.4842620  93.6457400  49.0506900  11.2151010  92.5601550  48.0304260
  22.9288690  94.7611470  59.5709770  22.1969810  95.2698280  59.9199870
  22.5313030  93.9441450  59.2698550  19.3666080  91.4365670  57.9762260
  19.3702140  90.9955620  57.1266800  20.2617200  91.7583000  58.0834080
  15.2168460  91.3192160  56.9356470  14.8768510  91.7967390  57.6923520
  14.4545780  90.8657280  56.5757570  19.4286230  92.4377750  50.9669020
  19.5499050  92.3964230  51.9154840  19.0434740  93.3001900  50.8115750
  23.3914600  90.2145150  58.9832710  23.4087340  90.6653800  59.8274560
  23.1430180  89.3150790  59.1966150  18.4407730  94.7478890  50.3652320
  17.8724630  94.2997140  49.7388230  19.1496730  95.1071670  49.8317470
  13.5176910  98.6490910  64.2419050  13.1331700  98.0084580  64.8402010
  13.8289100  99.3527030  64.8113780  19.6674050  95.4967450  59.7227670
  20.0344180  95.0226020  60.4689010  19.4779110  96.3709020  60.0636010
  12.5314540  90.2411140  55.8521140  12.2461460  89.8766810  56.6899760
  12.4693400  89.5091600  55.2384280  17.4573420  94.5376090  62.0411880
  17.1530490  95.4168070  62.2662240  18.4119880  94.5975880  62.0769320
  15.9855210  98.7437080  52.6378730  15.2117470  98.2034700  52.4777450
  16.7149840  98.2243690  52.2996490  26.7443190  97.7402440  58.4305120
  27.4642310  98.2357730  58.0401230  26.5425010  97.0620330  57.7858990
  22.2053130  89.1340400  52.5734510  21.3917740  88.6353570  52.4979820
  22.0115080  89.9738650  52.1570860  22.1261990  97.8111500  64.3174120
  22.0599300  96.8907170  64.0631710  21.4967130  97.9086940  65.0318760
  24.9201520  93.5060050  50.8696670  25.8081140  93.8177280  50.6948010
  24.8906610  92.6332300  50.4777250  16.0292610  98.4117460  56.2757540
  16.5471280  97.6085720  56.2214430  15.5776630  98.3496600  57.1174370
  20.9162110  99.6783740  51.5484840  21.2577810 100.4225970  51.0528160
  20.0874820  99.9914860  51.9109670  13.5137150  95.3778830  63.1883240
  13.1552090  96.0432680  63.7756580  13.2191710  94.5462380  63.5595860
  16.7150270  95.8363070  66.0722790  16.4150410  95.9820250  65.1750610
  17.4861510  95.2768360  65.9796180  22.0578720 100.6332070  64.0677920
  22.0723260  99.7013030  63.8496830  21.3503820 100.7191830  64.7067690
  27.1915790  94.8171890  50.3376530  27.1079510  95.2486110  49.4872970
  27.9109980  95.2770240  50.7703350  28.2689930  97.2739410  63.4146500
  27.5438120  97.8668190  63.2175890  28.7965390  97.2662950  62.6159870
  23.7989520  98.9999580  56.9130350  24.1513340  98.4027710  56.2531720
  22.9151850  98.6743810  57.0838600  19.8852800  99.7597270  54.3200760
  20.5723930 100.3066480  54.7008350  19.0985220 100.3038000  54.3550370
  12.0245200  95.3770090  49.8117840  12.8940050  95.6594890  50.0953760
  11.5335520  96.1905960  49.6966650  19.1880010  96.7643300  53.9326120
  19.6442790  97.5748550  54.1586310  18.8368220  96.4466440  54.7644610
  21.4912620 102.2749640  61.1618420  22.1354840 102.4809020  61.8391840
  21.8542060 101.5138040  60.7089270  15.0891790  87.1080950  54.4048640
  14.9606420  87.0998850  55.3533560  14.2653810  87.4464040  54.0539650
  22.7644700 100.2781990  59.8795870  23.4066930  99.5775150  59.9928040
  23.2894050 101.0580430  59.6992760  26.6100420 100.5630610  49.6035010
  26.3838000  99.8461050  50.1959650  26.2196620 100.3143050  48.7656760
  12.3916450 104.5897470  50.3779470  12.7514090 105.1886810  49.7236740
  12.2508790 105.1357360  51.1514500  26.1916670  98.4802550  51.2649170
  25.9038370  98.9415240  52.0527050  26.9868840  98.0200320  51.5333390
  12.3758310 102.8552330  64.8521870  12.4849430 101.9147070  64.7117260
  11.7238870 103.1207080  64.2035600  20.3670900 101.1268220  66.2519990
  20.0467770 100.4077460  66.7965680  19.6929260 101.8023290  66.3256050
  18.4085070 101.9728670  51.1953140  18.3995170 102.7058360  50.5797650
  17.4883430 101.7260250  51.2880100  14.0091710  97.1943560  51.9399900
  13.4019660  97.9342460  51.9495200  14.4841060  97.2842920  51.1138100
  26.9486530  90.3151320  52.4244350  26.3199690  90.4196990  51.7102580
  26.4538450  90.5348100  53.2138230  21.3944670 102.0356910  49.8578330
  21.4956650 101.8320900  48.9280310  20.4946410 101.7815190  50.0626110
  18.9170560  92.5937270  53.8402230  18.2086710  93.0623610  54.2815840
  19.2015040  91.9359280  54.4747420  20.5426490  94.0133970  61.8394760
  21.0411740  94.4879790  62.5046610  20.6849440  93.0897490  62.0464790
  22.9485990  89.3187930  55.2798020  22.8253770  89.3374060  54.3307530
  23.8970550  89.3666870  55.3996420  20.0362780 104.5543230  54.5526000
  20.2904280 104.5164620  53.6305370  19.0875260 104.4276560  54.5454250
  17.1205580  90.9022350  51.2152940  17.9696110  91.3392500  51.1493130
  16.7536850  91.2142610  52.0425000  26.0415360  95.4735110  56.1284510
  25.1005500  95.4885340  56.3032200  26.3559430  94.6871070  56.5744810
  16.0197000  97.1554710  49.6888470  16.7860270  97.0436070  50.2513900
  16.0971690  96.4592680  49.0365240  14.7143760  94.5879780  50.3721360
  14.7947350  93.6407290  50.4838760  15.6063510  94.9186660  50.4782020
  15.5158470 104.7375170  57.4755900  16.2520950 104.1890630  57.7464470
  15.8999390 105.6031180  57.3361890  12.4003950 100.8048740  53.3497410
  11.4743730 101.0469880  53.3402820  12.8660380 101.6323000  53.2282160
  14.5216750 103.9221240  66.6641480  15.3229480 104.2433290  67.0776880
  14.0068570 103.5616820  67.3861390  18.6260780 103.9105480  49.2981470
  19.4189390 104.1994310  48.8463260  18.1065130 103.4797650  48.6193950
  23.3581380 100.0301110  66.6116890  22.7519540 100.0532710  65.8712640
  23.0535490  99.2984150  67.1484140  24.7881750 103.7581400  65.2226300
  25.7403500 103.6739420  65.1726540  24.6409970 104.4223110  65.8960090
  27.6790950 103.1375610  50.7218210  27.3932460 102.7240750  49.9072390
  27.4810500 104.0663320  50.6018730  12.2414560  96.4094700  65.6077530
  12.7453580  95.8301980  66.1793760  11.5021980  96.6934930  66.1453900
  19.1438180  99.1308890  49.1623820  19.0388820  98.5161240  49.8885200
  18.9762400  98.6074780  48.3786830  19.2952500  97.8165690  65.1413050
  18.5298170  98.3850690  65.0567720  19.4768460  97.5241900  64.2481280
  22.3840910  98.1928920  49.7665810  21.8351010  98.6398220  50.4108550
  23.0060170  97.6878170  50.2903480  26.4375850  99.5471020  65.6988070
  27.1785320  99.8846780  65.1955530  25.6748530  99.7163080  65.1457840
  14.2737640  94.5524290  66.5027600  14.3142980  94.2538160  67.4112830
  15.1283140  94.9531900  66.3435120  18.0516030  97.1519840  51.6631110
  18.4732450  96.9859710  52.5062500  18.1766870  96.3420070  51.1686250
  20.5643670  96.1757450  48.9108210  21.0849330  95.4606470  48.5449360
  21.2112070  96.8143320  49.2108720  25.1121510  97.5985850  64.2343280
  25.5262530  97.7530930  65.0833700  24.1772510  97.7241070  64.3969060
  19.4677190  88.6552000  61.5826770  19.0194490  88.6776260  60.7372320
  18.8342390  88.2571020  62.1797070  19.8736740  97.5506330  62.2039210
  20.2924850  98.3939060  62.0315450  18.9545370  97.6878370  61.9745990
  22.2100640  95.2822510  63.5877050  22.3296850  94.6863650  64.3271890
  23.0694640  95.3192200  63.1678350  24.5488540  95.8359700  62.1639560
  24.0223760  96.3602320  61.5604700  24.8919880  96.4687090  62.7949290
  16.9474930  93.2253070  48.6089270  16.7463990  92.3620430  48.9702610
  16.7766980  93.1386430  47.6710870  17.7244160 103.8559340  63.3196940
  17.1865250 104.5805400  63.0005640  17.9778120 103.3789680  62.5294280
  18.9769410  91.8243860  64.8452870  19.5669100  91.5159710  65.5330690
  18.1589650  91.3523610  65.0012770  24.4263240  88.0361300  51.1376150
  24.7065530  87.1929200  51.4935570  23.6528970  88.2684410  51.6514900
  15.7457730  90.3253690  48.5967150  16.0483630  90.3321120  47.6886300
  16.4852320  89.9751550  49.0934810  20.5806370 105.0910550  63.5783590
  20.5065070 105.9945690  63.8855960  19.6785210 104.7722450  63.5505660
  18.9642660  89.2688310  49.5823350  18.6164660  88.5912300  49.0025800
  19.1655430  88.8077820  50.3966740  21.1291700 104.2569060  51.2009950
  22.0242490 104.5954030  51.2228710  21.1609330 103.5348470  50.5734230
  14.7687860  99.6296110  49.4296950  15.2062730 100.1725780  50.0854530
  15.2535590  98.8043060  49.4393290  11.9833660 102.4185140  56.8817210
  12.3136670 101.5506200  56.6495850  12.4124660 102.6243660  57.7122170
  16.5795580 100.7494150  54.5419180  16.2791120 100.6259120  55.4423090
  16.4733070  99.8902740  54.1334910  12.4723870 103.2855730  59.6198840
  12.0354860 103.4656530  60.4522990  13.0401550 104.0430350  59.4780560
  29.3487500 100.5290550  49.2445860  28.5180460 100.5967200  49.7153090
  29.5259330 101.4194670  48.9412720  12.3048300  95.7975960  55.9787720
  11.6497140  95.5287600  55.3347420  13.1426250  95.6880440  55.5289700
  28.8563130  97.5672400  48.9052580  29.1311970  98.4751280  48.7771800
  28.6673870  97.5034930  49.8414570  25.2538740  90.5917250  50.2006210
  25.6723620  90.4048230  49.3602870  24.9474800  89.7396300  50.5109140
  28.7528470  95.5041390  53.8982010  28.3772070  94.7369320  53.4663300
  28.0231590  95.8864090  54.3856940  13.3424230  96.1828530  60.5191060
  13.7097270  96.0955930  61.3987080  12.7735050  95.4195080  60.4197920
  11.5186380  93.0074890  51.9213050  10.6150460  93.2705090  51.7464710
  12.0027000  93.2786060  51.1413010  28.0279430  93.7298880  57.1989250
  28.5516910  93.2361530  56.5679420  28.6138850  93.8649240  57.9436820
  14.0613590  92.0640430  49.8307430  14.7705290  91.6423650  49.3454710
  13.3453530  92.1315660  49.1990780  13.7087750  88.1179760  48.8710080
  14.4315880  88.6588700  49.1891300  13.9812270  87.8443180  47.9951620
  27.5179400  92.9872230  53.1381660  28.0138520  92.7543100  53.9230540
  27.3195470  92.1484070  52.7219300  28.9466560  91.6233180  55.6719340
  28.8365840  91.4689220  56.6101610  29.7074150  91.0954120  55.4294750
  29.8356830  89.4541100  48.9125480  30.7606140  89.3222280  48.7043770
  29.8132620  89.5333920  49.8661930  29.9095320  90.2251760  51.5382190
  29.1146820  90.1596880  52.0675100  30.1138600  91.1602400  51.5267540
  26.8513740 104.2643310  55.5320580  27.4472810 103.9427880  54.8555000
  27.1091890 103.7915130  56.3233850  14.7576310 100.6961220  65.6811210
  14.7145940 100.3254130  66.5625670  14.8887320 101.6338790  65.8213030
  18.4582340 102.2520810  61.2820930  18.2173700 102.5195370  60.3951450
  19.3984980 102.4226540  61.3371790  20.6636760  88.7153500  65.0377440
  20.6025650  89.3075330  65.7872850  21.6037140  88.6079460  64.8927700
  14.5964340 103.6423470  62.8008990  14.0024660 103.5108170  63.5399030
  14.5888180 102.8061610  62.3351090  14.2276570 101.0081850  61.7517030
  13.5010630 100.3887140  61.6842980  14.2885720 101.4022460  60.8815110
  17.8321670 103.2226850  58.5366440  18.3486690 102.6114210  58.0114700
  18.4819050 103.7255630  59.0277450  20.5717170 104.1135340  59.3635420
  20.8594980 103.8589640  58.4868430  21.0840390 103.5612700  59.9540990
  28.2053820  88.1863880  55.9989840  28.1442220  87.2425100  55.8520860
  28.9845850  88.2943970  56.5443300  12.5106570 104.3256240  54.9613790
  12.3428610 103.6926920  55.6595680  11.6441080 104.5315640  54.6107980
  13.1334590  88.1573020  52.4645650  13.8913950  88.2701900  51.8909680
  12.6711760  88.9942220  52.4189080  19.6748400  90.2712290  55.4547960
  18.8622910  89.8969180  55.1143840  20.1790040  89.5157370  55.7569150
  27.3207980  87.3376300  51.9671310  27.5158610  88.2359750  52.2338740
  26.5337850  87.1063380  52.4604260  14.1169270 103.0189470  52.4063930
  13.5916890 103.3997500  51.7025890  14.0413850 103.6440240  53.1273640
  15.5059740  88.6837070  51.0047620  16.0352500  87.8966870  50.8755570
  16.1388060  89.3628260  51.2383150  17.6997580  88.4212210  54.0593010
  17.0700320  87.7199520  54.2263140  17.1602720  89.1816340  53.8426170
  20.6389530 105.0351440  66.7303620  21.5656840 104.7995710  66.7739580
  20.6239960 105.8623440  66.2489650  16.7162240 104.9671850  51.2813180
  17.4481060 104.6831130  50.7337070  16.9755910 104.7285130  52.1712560
  15.8777030 101.0836580  51.2859510  15.2485910 101.5521680  51.8345340
  15.9924860 100.2385800  51.7205700  27.2067090 104.2621300  66.5544660
  27.9992410 103.7670530  66.3470620  27.5000240 104.9411440  67.1620270
  23.3326750  95.1342240  37.4360710  23.2520800  94.2196850  37.1652420
  22.9191170  95.6309310  36.7300420  21.4644790  96.9121260  39.3169980
  20.6886890  96.4321700  39.6068550  22.1157720  96.2326910  39.1426140
  15.4810620  97.2241070  40.1945740  14.6495500  96.9689780  40.5942250
  16.0891600  97.2951840  40.9303660  25.4852220 101.3181450  38.0969110
  25.0233750 100.5468690  38.4256280  26.2977770 101.3447520  38.6021560
  15.4611880 101.2581160  40.3903760  15.7639920 100.3678900  40.2113980
  16.2055470 101.8151380  40.1626010  13.8902570  92.1842960  33.9788130
  13.0019270  92.5258930  33.8768010  14.1743760  91.9843280  33.0868960
  11.8535580  94.7848610  39.8627830  12.4251690  94.0170810  39.8631470
  11.8537120  95.0837370  38.9534440  21.7115530 103.6039460  37.7173100
  21.0926970 104.0596960  37.1467540  22.5667310 103.7590920  37.3162800
  20.9053780  99.5878450  39.3240140  20.8362060  98.6468390  39.1629270
  21.6673640  99.6779860  39.8962710  13.0960450  90.1932970  41.6496760
  12.9163290  89.2958720  41.9299520  12.6940530  90.7404840  42.3243710
  21.9358950  92.3948830  39.5509070  22.3123770  91.5220710  39.4382740
  21.8378460  92.7307530  38.6599510  16.0663960  90.7674460  35.0126510
  16.1730710  91.6678190  35.3195270  15.1556320  90.7192430  34.7221160
  25.7183070  89.8899270  36.4837410  26.5392690  89.3995840  36.5262890
  25.7517150  90.4796930  37.2369250  13.7147120  92.6893470  40.2579100
  14.3957230  92.9531840  40.8766500  13.3995170  91.8494340  40.5917110
  17.9071690  93.7360830  39.3451690  18.4149910  94.2341800  39.9856710
  18.4384930  92.9596030  39.1691050  16.1907790  88.3759390  43.6115110
  16.1926230  88.8931780  42.8061010  15.3612100  87.8989570  43.5885040
  22.5778880  98.4878700  35.1105010  21.9596150  98.9528150  34.5467730
  23.0902130  99.1806180  35.5274520  17.4410640  98.0154570  41.7888610
  17.1080020  98.6423490  42.4309680  17.6177320  98.5416450  41.0090280
  25.9544550  91.8299650  39.2564950  25.2500120  92.1184540  39.8368060
  26.3156710  92.6399760  38.8964510  15.8723120  90.0869350  41.6185560
  16.2139930  90.9311400  41.3239430  14.9338930  90.2353090  41.7350900
  16.6529740  99.9835370  43.6037790  17.2703740 100.6586450  43.3222240
  15.7922860 100.3923350  43.5125290  11.9462080  99.1735230  32.4844640
  11.5690060  99.6622330  31.7529540  12.2035150  99.8460510  33.1151170
  19.5551010  87.5751620  37.9430150  19.8625990  87.0198510  37.2265650
  18.6251710  87.7096080  37.7603140  25.1066070 103.2918910  40.2337610
  25.1193230 102.8881200  39.3659870  24.5541290 104.0666200  40.1299040
  26.4011490 100.0135130  35.3227780  26.2907820  99.0709460  35.4477200
  26.3979740 100.3750770  36.2090540  24.5051510  98.1948750  41.5620220
  24.9220300  97.9808860  40.7273680  25.2291330  98.4521540  42.1328840
  21.9431770  95.6400450  34.6790270  21.0161050  95.5737830  34.9078740
  22.0956590  96.5780580  34.5645510  21.9300850  91.9117450  31.6757430
  20.9904520  92.0731410  31.7609890  22.2484110  92.6303130  31.1293420
  25.9729060  97.2020750  35.1825520  25.3541480  96.8640300  34.5351820
  25.9553510  96.5580510  35.8904710  25.4155620  93.3805290  42.5991330
  25.0026800  94.2059000  42.8531320  24.6831570  92.7950330  42.4067690
  17.5488410  96.1665190  37.4610000  17.1445410  95.4542440  36.9655900
  17.6351530  95.8218430  38.3498040  18.0170110  99.8532750  39.6249210
  17.7198400  99.2478220  38.9456990  18.9669930  99.8910060  39.5138570
  16.2617030  92.9408400  41.2409040  16.8131620  93.0503740  40.4662290
  16.7760540  93.3146000  41.9564270  26.1055720 103.4264620  43.2872310
  25.6286280 104.2336810  43.0944920  25.4217510 102.7742950  43.4398520
  17.1088540  99.5914440  46.2757010  16.2117070  99.8154410  46.5230410
  17.1341410  99.7149380  45.3268410  24.1493760  96.4407560  32.1898270
  24.5887040  95.6029990  32.0436090  24.8622180  97.0736960  32.2762410
  15.9359760  96.4627760  44.8514380  15.7967530  97.3350560  45.2201780
  15.0541120  96.1200570  44.7062320  22.2589140 101.3803630  36.1579510
  22.6985050 102.1227960  35.7434900  22.1976030 101.6230200  37.0818470
  17.7340110 102.4049460  47.0599530  17.7055540 102.8092410  46.1927960
  17.5705080 101.4759820  46.8971130  27.7310900  87.6950370  30.5039310
  27.4183560  87.7877200  31.4038380  28.4923370  88.2731400  30.4536740
  14.2493040  95.0610170  34.9616650  14.1290640  95.7872260  34.3497920
  13.9393930  94.2913080  34.4844560  29.6854930 103.1876560  48.3563700
  30.1614650 103.6659450  49.0352780  30.3062090 103.1194050  47.6309200
  11.8878410  98.2325310  40.7685290  11.9658830  98.3674080  39.8241010
  12.5020090  97.5241200  40.9613410  13.1326040  99.9325500  37.1791470
  12.7254120 100.0740090  36.3245070  14.0239050  99.6485660  36.9762680
  29.0888180 100.3789410  45.5163710  29.2151240 100.1401290  44.5980890
  29.1309560  99.5473950  45.9885790  22.9504920 104.0817410  44.0858520
  23.4649590 103.9925420  44.8880950  22.1074000 104.4277110  44.3786430
  24.9259320 104.3672750  33.5142520  24.7660460 104.0775690  34.4124350
  24.7606030 103.5912880  32.9787750  17.4047700 104.1471280  35.2914140
  17.2290180 103.2306820  35.0781940  16.5503440 104.5058570  35.5311940
  24.6285450 101.8760310  32.0740520  23.9350610 101.8737600  31.4142800
  25.3708310 101.4519630  31.6434690  24.1935380 103.5023020  36.1489010
  24.6492330 102.7212400  36.4627630  24.5327900 104.2129840  36.6930190
  11.9437930  99.2739480  43.3079750  12.1068970  98.8044840  42.4899120
  12.4090380  98.7663040  43.9728590  16.7156700  88.4045240  38.3440320
  16.2724850  89.1854780  38.0124840  17.2741690  88.7275130  39.0511260
  21.0026510  91.2713760  43.9475640  20.5405880  91.4796780  44.7595580
  20.6004620  90.4573110  43.6446310  26.0031020  92.4922710  45.0772300
  25.1524610  92.1928460  45.3981370  25.8432810  92.7364720  44.1656120
  23.0980730  93.9924460  47.1771090  23.4234140  93.1588210  46.8373320
  23.8861060  94.5152980  47.3249420  19.8315520  88.0255940  33.2246150
  19.2069700  88.0215810  33.9499460  19.7445640  87.1586900  32.8282120
  18.7532600  88.9492570  40.2029920  19.0504930  89.8555400  40.1221940
  19.3018160  88.4611350  39.5889490  16.5070920  93.5278810  36.0721570
  16.2811840  93.3115980  36.9768190  15.7263450  93.9607270  35.7267540
  23.7368680  93.5342180  34.6712220  23.1377570  94.2577980  34.4875840
  24.2848290  93.4718960  33.8888670  18.9470130  94.4264390  46.7381840
  18.8513730  93.4859120  46.5882240  19.7902110  94.6479460  46.3429910
  22.3433550  92.1705720  36.7015500  22.7363120  92.4877920  35.8884190
  22.7050400  91.2917600  36.8160020  14.0780670  90.8378060  44.8915620
  13.6844060  91.6853270  45.0988400  13.3899070  90.2004430  45.0824260
  20.6525720  90.9213030  47.9612360  19.9624040  90.7285230  48.5958450
  21.3958020  91.2047670  48.4936660  11.3797720  88.7606520  38.9245700
  11.0910770  89.3309380  39.6370680  12.1243480  88.2810970  39.2876930
  11.5667950  92.7026640  30.1348420  11.4842620  93.6457400  30.2763410
  11.2151010  92.5601550  29.2560770  22.9288690  94.7611470  40.7966280
  22.1969810  95.2698280  41.1456380  22.5313030  93.9441450  40.4955060
  19.3666080  91.4365670  39.2018770  19.3702140  90.9955620  38.3523310
  20.2617200  91.7583000  39.3090590  15.2168460  91.3192160  38.1612980
  14.8768510  91.7967390  38.9180030  14.4545780  90.8657280  37.8014080
  19.4286230  92.4377750  32.1925530  19.5499050  92.3964230  33.1411350
  19.0434740  93.3001900  32.0372260  23.3914600  90.2145150  40.2089220
  23.4087340  90.6653800  41.0531070  23.1430180  89.3150790  40.4222660
  18.4407730  94.7478890  31.5908830  17.8724630  94.2997140  30.9644740
  19.1496730  95.1071670  31.0573980  26.8185350  87.6277330  46.0475600
  27.1431120  86.8966990  46.5733580  26.8541860  87.3090970  45.1456590
  13.5176910  98.6490910  45.4675560  13.1331700  98.0084580  46.0658520
  13.8289100  99.3527030  46.0370290  19.6674050  95.4967450  40.9484180
  20.0344180  95.0226020  41.6945520  19.4779110  96.3709020  41.2892520
  12.5314540  90.2411140  37.0777650  12.2461460  89.8766810  37.9156270
  12.4693400  89.5091600  36.4640790  17.4573420  94.5376090  43.2668390
  17.1530490  95.4168070  43.4918750  18.4119880  94.5975880  43.3025830
  15.9855210  98.7437080  33.8635240  15.2117470  98.2034700  33.7033960
  16.7149840  98.2243690  33.5253000  22.2053130  89.1340400  33.7991020
  21.3917740  88.6353570  33.7236330  22.0115080  89.9738650  33.3827370
  22.1261990  97.8111500  45.5430630  22.0599300  96.8907170  45.2888220
  21.4967130  97.9086940  46.2575270  24.9201520  93.5060050  32.0953180
  25.8081140  93.8177280  31.9204520  24.8906610  92.6332300  31.7033760
  16.0292610  98.4117460  37.5014050  16.5471280  97.6085720  37.4470940
  15.5776630  98.3496600  38.3430880  20.9162110  99.6783740  32.7741350
  21.2577810 100.4225970  32.2784670  20.0874820  99.9914860  33.1366180
  13.5137150  95.3778830  44.4139750  13.1552090  96.0432680  45.0013090
  13.2191710  94.5462380  44.7852370  16.7150270  95.8363070  47.2979300
  16.4150410  95.9820250  46.4007120  17.4861510  95.2768360  47.2052690
  22.0578720 100.6332070  45.2934430  22.0723260  99.7013030  45.0753340
  21.3503820 100.7191830  45.9324200  27.1915790  94.8171890  31.5633040
  27.1079510  95.2486110  30.7129480  27.9109980  95.2770240  31.9959860
  28.2689930  97.2739410  44.6403010  27.5438120  97.8668190  44.4432400
  28.7965390  97.2662950  43.8416380  28.2203040 101.6714150  34.2915170
  27.5779200 101.0169770  34.5658890  27.8333700 102.0769240  33.5155840
  23.7989520  98.9999580  38.1386860  24.1513340  98.4027710  37.4788230
  22.9151850  98.6743810  38.3095110  19.8852800  99.7597270  35.5457270
  20.5723930 100.3066480  35.9264860  19.0985220 100.3038000  35.5806880
  12.0245200  95.3770090  31.0374350  12.8940050  95.6594890  31.3210270
  11.5335520  96.1905960  30.9223160  19.1880010  96.7643300  35.1582630
  19.6442790  97.5748550  35.3842820  18.8368220  96.4466440  35.9901120
  21.4912620 102.2749640  42.3874930  22.1354840 102.4809020  43.0648350
  21.8542060 101.5138040  41.9345780  15.0891790  87.1080950  35.6305150
  14.9606420  87.0998850  36.5790070  14.2653810  87.4464040  35.2796160
  22.7644700 100.2781990  41.1052380  23.4066930  99.5775150  41.2184550
  23.2894050 101.0580430  40.9249270  26.6100420 100.5630610  30.8291520
  26.3838000  99.8461050  31.4216160  26.2196620 100.3143050  29.9913270
  24.5382320 101.0776890  44.3088440  24.8738560 101.6643580  44.9866360
  23.6182660 100.9469600  44.5386230  12.3916450 104.5897470  31.6035980
  12.7514090 105.1886810  30.9493250  12.2508790 105.1357360  32.3771010
  12.0885720  88.8672070  45.0911850  11.3744240  89.0668990  45.6964460
  12.5080760  88.0911640  45.4626650  26.1916670  98.4802550  32.4905680
  25.9038370  98.9415240  33.2783560  26.9868840  98.0200320  32.7589900
  12.3758310 102.8552330  46.0778380  12.4849430 101.9147070  45.9373770
  11.7238870 103.1207080  45.4292110  20.3670900 101.1268220  47.4776500
  20.0467770 100.4077460  48.0222190  19.6929260 101.8023290  47.5512560
  18.4085070 101.9728670  32.4209650  18.3995170 102.7058360  31.8054160
  17.4883430 101.7260250  32.5136610  14.0091710  97.1943560  33.1656410
  13.4019660  97.9342460  33.1751710  14.4841060  97.2842920  32.3394610
  23.5824500  91.3594380  42.8413300  23.9505320  90.5389590  43.1692870
  22.7222700  91.4196270  43.2568950  26.9486530  90.3151320  33.6500860
  26.3199690  90.4196990  32.9359090  26.4538450  90.5348100  34.4394740
  21.3944670 102.0356910  31.0834840  21.4956650 101.8320900  30.1536820
  20.4946410 101.7815190  31.2882620  18.9170560  92.5937270  35.0658740
  18.2086710  93.0623610  35.5072350  19.2015040  91.9359280  35.7003930
  20.5426490  94.0133970  43.0651270  21.0411740  94.4879790  43.7303120
  20.6849440  93.0897490  43.2721300  22.9485990  89.3187930  36.5054530
  22.8253770  89.3374060  35.5564040  23.8970550  89.3666870  36.6252930
  20.0362780 104.5543230  35.7782510  20.2904280 104.5164620  34.8561880
  19.0875260 104.4276560  35.7710760  17.1205580  90.9022350  32.4409450
  17.9696110  91.3392500  32.3749640  16.7536850  91.2142610  33.2681510
  26.0415360  95.4735110  37.3541020  25.1005500  95.4885340  37.5288710
  26.3559430  94.6871070  37.8001320  16.0197000  97.1554710  30.9144980
  16.7860270  97.0436070  31.4770410  16.0971690  96.4592680  30.2621750
  14.7143760  94.5879780  31.5977870  14.7947350  93.6407290  31.7095270
  15.6063510  94.9186660  31.7038530  28.0440940 102.6443960  39.0295280
  28.1688360 103.4675130  39.5019090  28.9106500 102.4334690  38.6819430
  15.5158470 104.7375170  38.7012410  16.2520950 104.1890630  38.9720980
  15.8999390 105.6031180  38.5618400  12.4003950 100.8048740  34.5753920
  11.4743730 101.0469880  34.5659330  12.8660380 101.6323000  34.4538670
  14.5216750 103.9221240  47.8897990  15.3229480 104.2433290  48.3033390
  14.0068570 103.5616820  48.6117900  18.6260780 103.9105480  30.5237980
  19.4189390 104.1994310  30.0719770  18.1065130 103.4797650  29.8450460
  23.3581380 100.0301110  47.8373400  22.7519540 100.0532710  47.0969150
  23.0535490  99.2984150  48.3740650  24.7881750 103.7581400  46.4482810
  25.7403500 103.6739420  46.3983050  24.6409970 104.4223110  47.1216600
  27.6790950 103.1375610  31.9474720  27.3932460 102.7240750  31.1328900
  27.4810500 104.0663320  31.8275240  12.2414560  96.4094700  46.8334040
  12.7453580  95.8301980  47.4050270  11.5021980  96.6934930  47.3710410
  19.1438180  99.1308890  30.3880330  19.0388820  98.5161240  31.1141710
  18.9762400  98.6074780  29.6043340  19.2952500  97.8165690  46.3669560
  18.5298170  98.3850690  46.2824230  19.4768460  97.5241900  45.4737790
  22.3840910  98.1928920  30.9922320  21.8351010  98.6398220  31.6365060
  23.0060170  97.6878170  31.5159990  26.4375850  99.5471020  46.9244580
  27.1785320  99.8846780  46.4212040  25.6748530  99.7163080  46.3714350
  14.2737640  94.5524290  47.7284110  14.3142980  94.2538160  48.6369340
  15.1283140  94.9531900  47.5691630  18.0516030  97.1519840  32.8887620
  18.4732450  96.9859710  33.7319010  18.1766870  96.3420070  32.3942760
  16.2143450  93.1316390  45.6958600  15.6839910  92.6407340  45.0681940
  16.8831520  93.5600590  45.1616530  20.5643670  96.1757450  30.1364720
  21.0849330  95.4606470  29.7705870  21.2112070  96.8143320  30.4365230
  25.1121510  97.5985850  45.4599790  25.5262530  97.7530930  46.3090210
  24.1772510  97.7241070  45.6225570  25.5843680  94.9382010  47.4638940
  26.1664450  94.1834330  47.3759420  25.7605450  95.4689450  46.6870420
  16.7015750  90.0978760  45.7755890  16.6072620  89.4799510  45.0506760
  16.1213140  90.8245050  45.5485800  19.4677190  88.6552000  42.8083280
  19.0194490  88.6776260  41.9628830  18.8342390  88.2571020  43.4053580
  19.8736740  97.5506330  43.4295720  20.2924850  98.3939060  43.2571960
  18.9545370  97.6878370  43.2002500  22.2100640  95.2822510  44.8133560
  22.3296850  94.6863650  45.5528400  23.0694640  95.3192200  44.3934860
  24.5488540  95.8359700  43.3896070  24.0223760  96.3602320  42.7861210
  24.8919880  96.4687090  44.0205800  16.9474930  93.2253070  29.8345780
  16.7463990  92.3620430  30.1959120  16.7766980  93.1386430  28.8967380
  17.7244160 103.8559340  44.5453450  17.1865250 104.5805400  44.2262150
  17.9778120 103.3789680  43.7550790  18.9769410  91.8243860  46.0709380
  19.5669100  91.5159710  46.7587200  18.1589650  91.3523610  46.2269280
  23.7962840  91.4409670  46.3042400  23.1078360  90.7791210  46.2392390
  24.5168860  90.9947940  46.7490860  24.4263240  88.0361300  32.3632660
  24.7065530  87.1929200  32.7192080  23.6528970  88.2684410  32.8771410
  15.7457730  90.3253690  29.8223660  16.0483630  90.3321120  28.9142810
  16.4852320  89.9751550  30.3191320  20.5806370 105.0910550  44.8040100
  20.5065070 105.9945690  45.1112470  19.6785210 104.7722450  44.7762170
  18.9642660  89.2688310  30.8079860  18.6164660  88.5912300  30.2282310
  19.1655430  88.8077820  31.6223250  21.1291700 104.2569060  32.4266460
  22.0242490 104.5954030  32.4485220  21.1609330 103.5348470  31.7990740
  14.7687860  99.6296110  30.6553460  15.2062730 100.1725780  31.3111040
  15.2535590  98.8043060  30.6649800  11.9833660 102.4185140  38.1073720
  12.3136670 101.5506200  37.8752360  12.4124660 102.6243660  38.9378680
  16.5795580 100.7494150  35.7675690  16.2791120 100.6259120  36.6679600
  16.4733070  99.8902740  35.3591420  12.4723870 103.2855730  40.8455350
  12.0354860 103.4656530  41.6779500  13.0401550 104.0430350  40.7037070
  28.1086050 102.7872730  45.1332660  27.5088040 102.8465290  44.3896580
  28.2379950 101.8477710  45.2629510  29.3487500 100.5290550  30.4702370
  28.5180460 100.5967200  30.9409600  29.5259330 101.4194670  30.1669230
  28.8043960  97.2738030  32.9736570  29.5662870  97.8434680  33.0796260
  28.8198330  96.7065230  33.7444880  12.3048300  95.7975960  37.2044230
  11.6497140  95.5287600  36.5603930  13.1426250  95.6880440  36.7546210
  26.7937690  99.5124710  43.2308820  25.9797530  99.9421870  43.4934610
  27.2011890 100.1243120  42.6177870  28.8563130  97.5672400  30.1309090
  29.1311970  98.4751280  30.0028310  28.6673870  97.5034930  31.0671080
  25.2538740  90.5917250  31.4262720  25.6723620  90.4048230  30.5859380
  24.9474800  89.7396300  31.7365650  28.7528470  95.5041390  35.1238520
  28.3772070  94.7369320  34.6919810  28.0231590  95.8864090  35.6113450
  13.3424230  96.1828530  41.7447570  13.7097270  96.0955930  42.6243590
  12.7735050  95.4195080  41.6454430  28.1428090  94.6512910  44.7578040
  27.9114180  94.4225660  43.8575990  28.4032640  95.5712460  44.7122930
  12.8940230  93.0937620  45.6505990  11.9996280  93.0604380  45.9899700
  13.4337780  93.2924410  46.4157240  26.5816160  89.8769340  47.5357740
  27.4586340  89.8852740  47.9191740  26.5937000  89.1400180  46.9250090
  11.5186380  93.0074890  33.1469560  10.6150460  93.2705090  32.9721220
  12.0027000  93.2786060  32.3669520  28.0279430  93.7298880  38.4245760
  28.5516910  93.2361530  37.7935930  28.6138850  93.8649240  39.1693330
  14.0613590  92.0640430  31.0563940  14.7705290  91.6423650  30.5711220
  13.3453530  92.1315660  30.4247290  13.7087750  88.1179760  30.0966590
  14.4315880  88.6588700  30.4147810  13.9812270  87.8443180  29.2208130
  27.5179400  92.9872230  34.3638170  28.0138520  92.7543100  35.1487050
  27.3195470  92.1484070  33.9475810  13.3979940  87.3685950  39.9989210
  14.0456130  86.8183330  39.5584370  13.8181780  87.6229100  40.8205020
  28.9466560  91.6233180  36.8975850  28.8365840  91.4689220  37.8358120
  29.7074150  91.0954120  36.6551260  27.2932280  87.5627310  43.3558850
  27.9304500  88.1761450  43.7218040  27.4407170  87.5987970  42.4108080
  29.8356830  89.4541100  30.1381990  30.7606140  89.3222280  29.9300280
  29.8132620  89.5333920  31.0918440  29.9095320  90.2251760  32.7638700
  29.1146820  90.1596880  33.2931610  30.1138600  91.1602400  32.7524050
  26.8513740 104.2643310  36.7577090  27.4472810 103.9427880  36.0811510
  27.1091890 103.7915130  37.5490360  13.1511940  87.5241620  42.7414530
  12.8026760  87.9805440  43.5072710  12.8199640  86.6298750  42.8236960
  14.7576310 100.6961220  46.9067720  14.7145940 100.3254130  47.7882180
  14.8887320 101.6338790  47.0469540  18.4582340 102.2520810  42.5077440
  18.2173700 102.5195370  41.6207960  19.3984980 102.4226540  42.5628300
  20.6636760  88.7153500  46.2633950  20.6025650  89.3075330  47.0129360
  21.6037140  88.6079460  46.1184210  23.3011320  88.3723560  45.9026240
  23.9151730  88.6902850  45.2407320  23.8460880  87.8872150  46.5222100
  29.7186500 104.2715190  43.3088080  29.2244780 104.6684060  42.5915210
  29.1099790 103.6464400  43.7025360  13.8232580  87.0517820  46.0165300
  14.3715570  86.8705870  45.2531410  13.8887890  86.2611930  46.5521610
  14.5964340 103.6423470  44.0265500  14.0024660 103.5108170  44.7655540
  14.5888180 102.8061610  43.5607600  24.0419360  86.9355700  42.2295530
  23.1679200  87.2690810  42.0268460  23.9330110  86.4628880  43.0547400
  24.9491340  89.1426570  43.6137250  24.6204700  88.3278330  43.2338980
  25.8973640  89.0996380  43.4902940  27.4025950 104.9138610  40.5874820
  26.9428920 105.6654420  40.2132840  26.7738410 104.1945080  40.5289620
  14.2276570 101.0081850  42.9773540  13.5010630 100.3887140  42.9099490
  14.2885720 101.4022460  42.1071620  17.8321670 103.2226850  39.7622950
  18.3486690 102.6114210  39.2371210  18.4819050 103.7255630  40.2533960
  20.5717170 104.1135340  40.5891930  20.8594980 103.8589640  39.7124940
  21.0840390 103.5612700  41.1797500  21.7894180  87.8525540  41.1688440
  21.0065970  88.3271040  41.4485200  21.4957110  86.9480370  41.0601620
  26.3415250  88.5548640  39.2137530  26.7823340  88.4993740  38.3659130
  26.0722840  89.4706650  39.2847710  28.2053820  88.1863880  37.2246350
  28.1442220  87.2425100  37.0777370  28.9845850  88.2943970  37.7699810
  12.5106570 104.3256240  36.1870300  12.3428610 103.6926920  36.8852190
  11.6441080 104.5315640  35.8364490  13.1334590  88.1573020  33.6902160
  13.8913950  88.2701900  33.1166190  12.6711760  88.9942220  33.6445590
  19.6748400  90.2712290  36.6804470  18.8622910  89.8969180  36.3400350
  20.1790040  89.5157370  36.9825660  24.1773380  86.9354740  37.9187540
  24.7802750  87.5074950  38.3936060  23.4366370  87.4994180  37.6961440
  27.3207980  87.3376300  33.1927820  27.5158610  88.2359750  33.4595250
  26.5337850  87.1063380  33.6860770  14.1169270 103.0189470  33.6320440
  13.5916890 103.3997500  32.9282400  14.0413850 103.6440240  34.3530150
  15.5059740  88.6837070  32.2304130  16.0352500  87.8966870  32.1012080
  16.1388060  89.3628260  32.4639660  17.6997580  88.4212210  35.2849520
  17.0700320  87.7199520  35.4519650  17.1602720  89.1816340  35.0682680
  20.6389530 105.0351440  47.9560130  21.5656840 104.7995710  47.9996090
  20.6239960 105.8623440  47.4746160  28.8734590 104.5777010  34.9534380
  29.0486780 103.8914750  34.3095300  28.1756160 105.1024060  34.5611050
  17.8253140  87.6996190  47.7202010  17.5437410  88.2029790  46.9562830
  18.2072840  86.9017940  47.3544140  16.7162240 104.9671850  32.5069690
  17.4481060 104.6831130  31.9593580  16.9755910 104.7285130  33.3969070
  15.8777030 101.0836580  32.5116020  15.2485910 101.5521680  33.0601850
  15.9924860 100.2385800  32.9462210  24.4268600  87.1149770  48.2982480
  24.3134050  87.4344380  49.1934000  25.2438340  87.5162280  48.0019760
  27.2067090 104.2621300  47.7801170  27.9992410 103.7670530  47.5727130
  27.5000240 104.9411440  48.3876780  23.3326750  95.1342240  18.6617220
  23.2520800  94.2196850  18.3908930  22.9191170  95.6309310  17.9556930
  21.4644790  96.9121260  20.5426490  20.6886890  96.4321700  20.8325060
  22.1157720  96.2326910  20.3682650  15.4810620  97.2241070  21.4202250
  14.6495500  96.9689780  21.8198760  16.0891600  97.2951840  22.1560170
  25.4852220 101.3181450  19.3225620  25.0233750 100.5468690  19.6512790
  26.2977770 101.3447520  19.8278070  15.4611880 101.2581160  21.6160270
  15.7639920 100.3678900  21.4370490  16.2055470 101.8151380  21.3882520
  13.8902570  92.1842960  15.2044640  13.0019270  92.5258930  15.1024520
  14.1743760  91.9843280  14.3125470  11.8535580  94.7848610  21.0884340
  12.4251690  94.0170810  21.0887980  11.8537120  95.0837370  20.1790950
  21.7115530 103.6039460  18.9429610  21.0926970 104.0596960  18.3724050
  22.5667310 103.7590920  18.5419310  20.9053780  99.5878450  20.5496650
  20.8362060  98.6468390  20.3885780  21.6673640  99.6779860  21.1219220
  13.0960450  90.1932970  22.8753270  12.9163290  89.2958720  23.1556030
  12.6940530  90.7404840  23.5500220  21.9358950  92.3948830  20.7765580
  22.3123770  91.5220710  20.6639250  21.8378460  92.7307530  19.8856020
  16.0663960  90.7674460  16.2383020  16.1730710  91.6678190  16.5451780
  15.1556320  90.7192430  15.9477670  25.7183070  89.8899270  17.7093920
  26.5392690  89.3995840  17.7519400  25.7517150  90.4796930  18.4625760
  13.7147120  92.6893470  21.4835610  14.3957230  92.9531840  22.1023010
  13.3995170  91.8494340  21.8173620  17.9071690  93.7360830  20.5708200
  18.4149910  94.2341800  21.2113220  18.4384930  92.9596030  20.3947560
  30.0082620  91.9066020  24.2737550  29.3034790  92.2947730  23.7552660
  30.2740540  92.6016310  24.8758480  16.1907790  88.3759390  24.8371620
  16.1926230  88.8931780  24.0317520  15.3612100  87.8989570  24.8141550
  22.5778880  98.4878700  16.3361520  21.9596150  98.9528150  15.7724240
  23.0902130  99.1806180  16.7531030  17.4410640  98.0154570  23.0145120
  17.1080020  98.6423490  23.6566190  17.6177320  98.5416450  22.2346790
  25.9544550  91.8299650  20.4821460  25.2500120  92.1184540  21.0624570
  26.3156710  92.6399760  20.1221020  15.8723120  90.0869350  22.8442070
  16.2139930  90.9311400  22.5495940  14.9338930  90.2353090  22.9607410
  16.6529740  99.9835370  24.8294300  17.2703740 100.6586450  24.5478750
  15.7922860 100.3923350  24.7381800  11.9462080  99.1735230  13.7101150
  11.5690060  99.6622330  12.9786050  12.2035150  99.8460510  14.3407680
  27.5707330 101.4474780  22.7448940  26.8870850 102.1173890  22.7365610
  28.1101620 101.6455430  21.9793800  29.0231470  91.2754440  20.8730670
  28.0756380  91.3093420  21.0046100  29.3481460  92.0893390  21.2580030
  19.5551010  87.5751620  19.1686660  19.8625990  87.0198510  18.4522160
  18.6251710  87.7096080  18.9859650  25.1066070 103.2918910  21.4594120
  25.1193230 102.8881200  20.5916380  24.5541290 104.0666200  21.3555550
  26.4011490 100.0135130  16.5484290  26.2907820  99.0709460  16.6733710
  26.3979740 100.3750770  17.4347050  24.5051510  98.1948750  22.7876730
  24.9220300  97.9808860  21.9530190  25.2291330  98.4521540  23.3585350
  21.9431770  95.6400450  15.9046780  21.0161050  95.5737830  16.1335250
  22.0956590  96.5780580  15.7902020  21.9300850  91.9117450  12.9013940
  20.9904520  92.0731410  12.9866400  22.2484110  92.6303130  12.3549930
  28.4513610  96.5935970  22.8792970  27.6232240  96.6629060  22.4043100
  29.0464090  97.1790280  22.4108800  25.9729060  97.2020750  16.4082030
  25.3541480  96.8640300  15.7608330  25.9553510  96.5580510  17.1161220
  25.4155620  93.3805290  23.8247840  25.0026800  94.2059000  24.0787830
  24.6831570  92.7950330  23.6324200  17.5488410  96.1665190  18.6866510
  17.1445410  95.4542440  18.1912410  17.6351530  95.8218430  19.5754550
  18.0170110  99.8532750  20.8505720  17.7198400  99.2478220  20.1713500
  18.9669930  99.8910060  20.7395080  16.2617030  92.9408400  22.4665550
  16.8131620  93.0503740  21.6918800  16.7760540  93.3146000  23.1820780
  26.1055720 103.4264620  24.5128820  25.6286280 104.2336810  24.3201430
  25.4217510 102.7742950  24.6655030  17.1088540  99.5914440  27.5013520
  16.2117070  99.8154410  27.7486920  17.1341410  99.7149380  26.5524920
  24.1493760  96.4407560  13.4154780  24.5887040  95.6029990  13.2692600
  24.8622180  97.0736960  13.5018920  15.9359760  96.4627760  26.0770890
  15.7967530  97.3350560  26.4458290  15.0541120  96.1200570  25.9318830
  22.2589140 101.3803630  17.3836020  22.6985050 102.1227960  16.9691410
  22.1976030 101.6230200  18.3074980  17.7340110 102.4049460  28.2856040
  17.7055540 102.8092410  27.4184470  17.5705080 101.4759820  28.1227640
  27.7310900  87.6950370  11.7295820  27.4183560  87.7877200  12.6294890
  28.4923370  88.2731400  11.6793250  14.2493040  95.0610170  16.1873160
  14.1290640  95.7872260  15.5754430  13.9393930  94.2913080  15.7101070
  29.6854930 103.1876560  29.5820210  30.1614650 103.6659450  30.2609290
  30.3062090 103.1194050  28.8565710  11.8878410  98.2325310  21.9941800
  11.9658830  98.3674080  21.0497520  12.5020090  97.5241200  22.1869920
  13.1326040  99.9325500  18.4047980  12.7254120 100.0740090  17.5501580
  14.0239050  99.6485660  18.2019190  29.0888180 100.3789410  26.7420220
  29.2151240 100.1401290  25.8237400  29.1309560  99.5473950  27.2142300
  22.9504920 104.0817410  25.3115030  23.4649590 103.9925420  26.1137460
  22.1074000 104.4277110  25.6042940  24.9259320 104.3672750  14.7399030
  24.7660460 104.0775690  15.6380860  24.7606030 103.5912880  14.2044260
  17.4047700 104.1471280  16.5170650  17.2290180 103.2306820  16.3038450
  16.5503440 104.5058570  16.7568450  24.6285450 101.8760310  13.2997030
  23.9350610 101.8737600  12.6399310  25.3708310 101.4519630  12.8691200
  24.1935380 103.5023020  17.3745520  24.6492330 102.7212400  17.6884140
  24.5327900 104.2129840  17.9186700  28.9412190  92.4321870  27.7069960
  28.3256460  92.9401540  27.1785420  28.6208610  91.5320200  27.6495900
  11.9437930  99.2739480  24.5336260  12.1068970  98.8044840  23.7155630
  12.4090380  98.7663040  25.1985100  16.7156700  88.4045240  19.5696830
  16.2724850  89.1854780  19.2381350  17.2741690  88.7275130  20.2767770
  21.0026510  91.2713760  25.1732150  20.5405880  91.4796780  25.9852090
  20.6004620  90.4573110  24.8702820  26.0031020  92.4922710  26.3028810
  25.1524610  92.1928460  26.6237880  25.8432810  92.7364720  25.3912630
  23.0980730  93.9924460  28.4027600  23.4234140  93.1588210  28.0629830
  23.8861060  94.5152980  28.5505930  19.8315520  88.0255940  14.4502660
  19.2069700  88.0215810  15.1755970  19.7445640  87.1586900  14.0538630
  18.7532600  88.9492570  21.4286430  19.0504930  89.8555400  21.3478450
  19.3018160  88.4611350  20.8146000  16.5070920  93.5278810  17.2978080
  16.2811840  93.3115980  18.2024700  15.7263450  93.9607270  16.9524050
  23.7368680  93.5342180  15.8968730  23.1377570  94.2577980  15.7132350
  24.2848290  93.4718960  15.1145180  18.9470130  94.4264390  27.9638350
  18.8513730  93.4859120  27.8138750  19.7902110  94.6479460  27.5686420
  22.3433550  92.1705720  17.9272010  22.7363120  92.4877920  17.1140700
  22.7050400  91.2917600  18.0416530  14.0780670  90.8378060  26.1172130
  13.6844060  91.6853270  26.3244910  13.3899070  90.2004430  26.3080770
  20.6525720  90.9213030  29.1868870  19.9624040  90.7285230  29.8214960
  21.3958020  91.2047670  29.7193170  11.3797720  88.7606520  20.1502210
  11.0910770  89.3309380  20.8627190  12.1243480  88.2810970  20.5133440
  11.5667950  92.7026640  11.3604930  11.4842620  93.6457400  11.5019920
  11.2151010  92.5601550  10.4817280  22.9288690  94.7611470  22.0222790
  22.1969810  95.2698280  22.3712890  22.5313030  93.9441450  21.7211570
  19.3666080  91.4365670  20.4275280  19.3702140  90.9955620  19.5779820
  20.2617200  91.7583000  20.5347100  15.2168460  91.3192160  19.3869490
  14.8768510  91.7967390  20.1436540  14.4545780  90.8657280  19.0270590
  19.4286230  92.4377750  13.4182040  19.5499050  92.3964230  14.3667860
  19.0434740  93.3001900  13.2628770  23.3914600  90.2145150  21.4345730
  23.4087340  90.6653800  22.2787580  23.1430180  89.3150790  21.6479170
  18.4407730  94.7478890  12.8165340  17.8724630  94.2997140  12.1901250
  19.1496730  95.1071670  12.2830490  26.8185350  87.6277330  27.2732110
  27.1431120  86.8966990  27.7990090  26.8541860  87.3090970  26.3713100
  13.5176910  98.6490910  26.6932070  13.1331700  98.0084580  27.2915030
  13.8289100  99.3527030  27.2626800  19.6674050  95.4967450  22.1740690
  20.0344180  95.0226020  22.9202030  19.4779110  96.3709020  22.5149030
  12.5314540  90.2411140  18.3034160  12.2461460  89.8766810  19.1412780
  12.4693400  89.5091600  17.6897300  17.4573420  94.5376090  24.4924900
  17.1530490  95.4168070  24.7175260  18.4119880  94.5975880  24.5282340
  15.9855210  98.7437080  15.0891750  15.2117470  98.2034700  14.9290470
  16.7149840  98.2243690  14.7509510  26.7443190  97.7402440  20.8818140
  27.4642310  98.2357730  20.4914250  26.5425010  97.0620330  20.2372010
  22.2053130  89.1340400  15.0247530  21.3917740  88.6353570  14.9492840
  22.0115080  89.9738650  14.6083880  22.1261990  97.8111500  26.7687140
  22.0599300  96.8907170  26.5144730  21.4967130  97.9086940  27.4831780
  24.9201520  93.5060050  13.3209690  25.8081140  93.8177280  13.1461030
  24.8906610  92.6332300  12.9290270  16.0292610  98.4117460  18.7270560
  16.5471280  97.6085720  18.6727450  15.5776630  98.3496600  19.5687390
  20.9162110  99.6783740  13.9997860  21.2577810 100.4225970  13.5041180
  20.0874820  99.9914860  14.3622690  13.5137150  95.3778830  25.6396260
  13.1552090  96.0432680  26.2269600  13.2191710  94.5462380  26.0108880
  16.7150270  95.8363070  28.5235810  16.4150410  95.9820250  27.6263630
  17.4861510  95.2768360  28.4309200  22.0578720 100.6332070  26.5190940
  22.0723260  99.7013030  26.3009850  21.3503820 100.7191830  27.1580710
  27.1915790  94.8171890  12.7889550  27.1079510  95.2486110  11.9385990
  27.9109980  95.2770240  13.2216370  28.2689930  97.2739410  25.8659520
  27.5438120  97.8668190  25.6688910  28.7965390  97.2662950  25.0672890
  28.2203040 101.6714150  15.5171680  27.5779200 101.0169770  15.7915400
  27.8333700 102.0769240  14.7412350  23.7989520  98.9999580  19.3643370
  24.1513340  98.4027710  18.7044740  22.9151850  98.6743810  19.5351620
  19.8852800  99.7597270  16.7713780  20.5723930 100.3066480  17.1521370
  19.0985220 100.3038000  16.8063390  12.0245200  95.3770090  12.2630860
  12.8940050  95.6594890  12.5466780  11.5335520  96.1905960  12.1479670
  19.1880010  96.7643300  16.3839140  19.6442790  97.5748550  16.6099330
  18.8368220  96.4466440  17.2157630  21.4912620 102.2749640  23.6131440
  22.1354840 102.4809020  24.2904860  21.8542060 101.5138040  23.1602290
  15.0891790  87.1080950  16.8561660  14.9606420  87.0998850  17.8046580
  14.2653810  87.4464040  16.5052670  22.7644700 100.2781990  22.3308890
  23.4066930  99.5775150  22.4441060  23.2894050 101.0580430  22.1505780
  26.6100420 100.5630610  12.0548030  26.3838000  99.8461050  12.6472670
  26.2196620 100.3143050  11.2169780  24.5382320 101.0776890  25.5344950
  24.8738560 101.6643580  26.2122870  23.6182660 100.9469600  25.7642740
  12.3916450 104.5897470  12.8292490  12.7514090 105.1886810  12.1749760
  12.2508790 105.1357360  13.6027520  12.0885720  88.8672070  26.3168360
  11.3744240  89.0668990  26.9220970  12.5080760  88.0911640  26.6883160
  26.1916670  98.4802550  13.7162190  25.9038370  98.9415240  14.5040070
  26.9868840  98.0200320  13.9846410  12.3758310 102.8552330  27.3034890
  12.4849430 101.9147070  27.1630280  11.7238870 103.1207080  26.6548620
  20.3670900 101.1268220  28.7033010  20.0467770 100.4077460  29.2478700
  19.6929260 101.8023290  28.7769070  18.4085070 101.9728670  13.6466160
  18.3995170 102.7058360  13.0310670  17.4883430 101.7260250  13.7393120
  14.0091710  97.1943560  14.3912920  13.4019660  97.9342460  14.4008220
  14.4841060  97.2842920  13.5651120  23.5824500  91.3594380  24.0669810
  23.9505320  90.5389590  24.3949380  22.7222700  91.4196270  24.4825460
  26.9486530  90.3151320  14.8757370  26.3199690  90.4196990  14.1615600
  26.4538450  90.5348100  15.6651250  21.3944670 102.0356910  12.3091350
  21.4956650 101.8320900  11.3793330  20.4946410 101.7815190  12.5139130
  18.9170560  92.5937270  16.2915250  18.2086710  93.0623610  16.7328860
  19.2015040  91.9359280  16.9260440  20.5426490  94.0133970  24.2907780
  21.0411740  94.4879790  24.9559630  20.6849440  93.0897490  24.4977810
  22.9485990  89.3187930  17.7311040  22.8253770  89.3374060  16.7820550
  23.8970550  89.3666870  17.8509440  20.0362780 104.5543230  17.0039020
  20.2904280 104.5164620  16.0818390  19.0875260 104.4276560  16.9967270
  17.1205580  90.9022350  13.6665960  17.9696110  91.3392500  13.6006150
  16.7536850  91.2142610  14.4938020  27.7493350  90.2301930  25.1336170
  27.2466950  90.9707330  25.4729980  28.5650010  90.6185930  24.8172960
  26.0415360  95.4735110  18.5797530  25.1005500  95.4885340  18.7545220
  26.3559430  94.6871070  19.0257830  16.0197000  97.1554710  12.1401490
  16.7860270  97.0436070  12.7026920  16.0971690  96.4592680  11.4878260
  14.7143760  94.5879780  12.8234380  14.7947350  93.6407290  12.9351780
  15.6063510  94.9186660  12.9295040  28.0440940 102.6443960  20.2551790
  28.1688360 103.4675130  20.7275600  28.9106500 102.4334690  19.9075940
  15.5158470 104.7375170  19.9268920  16.2520950 104.1890630  20.1977490
  15.8999390 105.6031180  19.7874910  12.4003950 100.8048740  15.8010430
  11.4743730 101.0469880  15.7915840  12.8660380 101.6323000  15.6795180
  14.5216750 103.9221240  29.1154500  15.3229480 104.2433290  29.5289900
  14.0068570 103.5616820  29.8374410  18.6260780 103.9105480  11.7494490
  19.4189390 104.1994310  11.2976280  18.1065130 103.4797650  11.0706970
  23.3581380 100.0301110  29.0629910  22.7519540 100.0532710  28.3225660
  23.0535490  99.2984150  29.5997160  24.7881750 103.7581400  27.6739320
  25.7403500 103.6739420  27.6239560  24.6409970 104.4223110  28.3473110
  27.6790950 103.1375610  13.1731230  27.3932460 102.7240750  12.3585410
  27.4810500 104.0663320  13.0531750  12.2414560  96.4094700  28.0590550
  12.7453580  95.8301980  28.6306780  11.5021980  96.6934930  28.5966920
  19.1438180  99.1308890  11.6136840  19.0388820  98.5161240  12.3398220
  18.9762400  98.6074780  10.8299850  19.2952500  97.8165690  27.5926070
  18.5298170  98.3850690  27.5080740  19.4768460  97.5241900  26.6994300
  22.3840910  98.1928920  12.2178830  21.8351010  98.6398220  12.8621570
  23.0060170  97.6878170  12.7416500  26.4375850  99.5471020  28.1501090
  27.1785320  99.8846780  27.6468550  25.6748530  99.7163080  27.5970860
  14.2737640  94.5524290  28.9540620  14.3142980  94.2538160  29.8625850
  15.1283140  94.9531900  28.7948140  18.0516030  97.1519840  14.1144130
  18.4732450  96.9859710  14.9575520  18.1766870  96.3420070  13.6199270
  16.2143450  93.1316390  26.9215110  15.6839910  92.6407340  26.2938450
  16.8831520  93.5600590  26.3873040  20.5643670  96.1757450  11.3621230
  21.0849330  95.4606470  10.9962380  21.2112070  96.8143320  11.6621740
  25.1121510  97.5985850  26.6856300  25.5262530  97.7530930  27.5346720
  24.1772510  97.7241070  26.8482080  25.5843680  94.9382010  28.6895450
  26.1664450  94.1834330  28.6015930  25.7605450  95.4689450  27.9126930
  16.7015750  90.0978760  27.0012400  16.6072620  89.4799510  26.2763270
  16.1213140  90.8245050  26.7742310  19.4677190  88.6552000  24.0339790
  19.0194490  88.6776260  23.1885340  18.8342390  88.2571020  24.6310090
  19.8736740  97.5506330  24.6552230  20.2924850  98.3939060  24.4828470
  18.9545370  97.6878370  24.4259010  22.2100640  95.2822510  26.0390070
  22.3296850  94.6863650  26.7784910  23.0694640  95.3192200  25.6191370
  24.5488540  95.8359700  24.6152580  24.0223760  96.3602320  24.0117720
  24.8919880  96.4687090  25.2462310  16.9474930  93.2253070  11.0602290
  16.7463990  92.3620430  11.4215630  16.7766980  93.1386430  10.1223890
  17.7244160 103.8559340  25.7709960  17.1865250 104.5805400  25.4518660
  17.9778120 103.3789680  24.9807300  18.9769410  91.8243860  27.2965890
  19.5669100  91.5159710  27.9843710  18.1589650  91.3523610  27.4525790
  23.7962840  91.4409670  27.5298910  23.1078360  90.7791210  27.4648900
  24.5168860  90.9947940  27.9747370  24.4263240  88.0361300  13.5889170
  24.7065530  87.1929200  13.9448590  23.6528970  88.2684410  14.1027920
  15.7457730  90.3253690  11.0480170  16.0483630  90.3321120  10.1399320
  16.4852320  89.9751550  11.5447830  20.5806370 105.0910550  26.0296610
  20.5065070 105.9945690  26.3368980  19.6785210 104.7722450  26.0018680
  18.9642660  89.2688310  12.0336370  18.6164660  88.5912300  11.4538820
  19.1655430  88.8077820  12.8479760  21.1291700 104.2569060  13.6522970
  22.0242490 104.5954030  13.6741730  21.1609330 103.5348470  13.0247250
  14.7687860  99.6296110  11.8809970  15.2062730 100.1725780  12.5367550
  15.2535590  98.8043060  11.8906310  11.9833660 102.4185140  19.3330230
  12.3136670 101.5506200  19.1008870  12.4124660 102.6243660  20.1635190
  16.5795580 100.7494150  16.9932200  16.2791120 100.6259120  17.8936110
  16.4733070  99.8902740  16.5847930  12.4723870 103.2855730  22.0711860
  12.0354860 103.4656530  22.9036010  13.0401550 104.0430350  21.9293580
  28.1086050 102.7872730  26.3589170  27.5088040 102.8465290  25.6153090
  28.2379950 101.8477710  26.4886020  29.3487500 100.5290550  11.6958880
  28.5180460 100.5967200  12.1666110  29.5259330 101.4194670  11.3925740
  28.8043960  97.2738030  14.1993080  29.5662870  97.8434680  14.3052770
  28.8198330  96.7065230  14.9701390  12.3048300  95.7975960  18.4300740
  11.6497140  95.5287600  17.7860440  13.1426250  95.6880440  17.9802720
  29.8103930  98.1288130  19.0435010  30.1812760  97.3455450  18.6370980
  30.4505860  98.8177230  18.8652310  26.7937690  99.5124710  24.4565330
  25.9797530  99.9421870  24.7191120  27.2011890 100.1243120  23.8434380
  28.8563130  97.5672400  11.3565600  29.1311970  98.4751280  11.2284820
  28.6673870  97.5034930  12.2927590  25.2538740  90.5917250  12.6519230
  25.6723620  90.4048230  11.8115890  24.9474800  89.7396300  12.9622160
  28.7528470  95.5041390  16.3495030  28.3772070  94.7369320  15.9176320
  28.0231590  95.8864090  16.8369960  13.3424230  96.1828530  22.9704080
  13.7097270  96.0955930  23.8500100  12.7735050  95.4195080  22.8710940
  28.1428090  94.6512910  25.9834550  27.9114180  94.4225660  25.0832500
  28.4032640  95.5712460  25.9379440  12.8940230  93.0937620  26.8762500
  11.9996280  93.0604380  27.2156210  13.4337780  93.2924410  27.6413750
  26.5816160  89.8769340  28.7614250  27.4586340  89.8852740  29.1448250
  26.5937000  89.1400180  28.1506600  11.5186380  93.0074890  14.3726070
  10.6150460  93.2705090  14.1977730  12.0027000  93.2786060  13.5926030
  28.0279430  93.7298880  19.6502270  28.5516910  93.2361530  19.0192440
  28.6138850  93.8649240  20.3949840  28.2069150  93.8138750  23.1721820
  27.2571860  93.7802290  23.2866810  28.3882160  94.7238860  22.9371590
  14.0613590  92.0640430  12.2820450  14.7705290  91.6423650  11.7967730
  13.3453530  92.1315660  11.6503800  13.7087750  88.1179760  11.3223100
  14.4315880  88.6588700  11.6404320  13.9812270  87.8443180  10.4464640
  27.5179400  92.9872230  15.5894680  28.0138520  92.7543100  16.3743560
  27.3195470  92.1484070  15.1732320  13.3979940  87.3685950  21.2245720
  14.0456130  86.8183330  20.7840880  13.8181780  87.6229100  22.0461530
  28.9466560  91.6233180  18.1232360  28.8365840  91.4689220  19.0614630
  29.7074150  91.0954120  17.8807770  27.2932280  87.5627310  24.5815360
  27.9304500  88.1761450  24.9474550  27.4407170  87.5987970  23.6364590
  29.8356830  89.4541100  11.3638500  30.7606140  89.3222280  11.1556790
  29.8132620  89.5333920  12.3174950  29.9095320  90.2251760  13.9895210
  29.1146820  90.1596880  14.5188120  30.1138600  91.1602400  13.9780560
  26.8513740 104.2643310  17.9833600  27.4472810 103.9427880  17.3068020
  27.1091890 103.7915130  18.7746870  13.1511940  87.5241620  23.9671040
  12.8026760  87.9805440  24.7329220  12.8199640  86.6298750  24.0493470
  14.7576310 100.6961220  28.1324230  14.7145940 100.3254130  29.0138690
  14.8887320 101.6338790  28.2726050  18.4582340 102.2520810  23.7333950
  18.2173700 102.5195370  22.8464470  19.3984980 102.4226540  23.7884810
  20.6636760  88.7153500  27.4890460  20.6025650  89.3075330  28.2385870
  21.6037140  88.6079460  27.3440720  23.3011320  88.3723560  27.1282750
  23.9151730  88.6902850  26.4663830  23.8460880  87.8872150  27.7478610
  29.7186500 104.2715190  24.5344590  29.2244780 104.6684060  23.8171720
  29.1099790 103.6464400  24.9281870  13.8232580  87.0517820  27.2421810
  14.3715570  86.8705870  26.4787920  13.8887890  86.2611930  27.7778120
  14.5964340 103.6423470  25.2522010  14.0024660 103.5108170  25.9912050
  14.5888180 102.8061610  24.7864110  24.0419360  86.9355700  23.4552040
  23.1679200  87.2690810  23.2524970  23.9330110  86.4628880  24.2803910
  24.9491340  89.1426570  24.8393760  24.6204700  88.3278330  24.4595490
  25.8973640  89.0996380  24.7159450  27.4025950 104.9138610  21.8131330
  26.9428920 105.6654420  21.4389350  26.7738410 104.1945080  21.7546130
  14.2276570 101.0081850  24.2030050  13.5010630 100.3887140  24.1356000
  14.2885720 101.4022460  23.3328130  17.8321670 103.2226850  20.9879460
  18.3486690 102.6114210  20.4627720  18.4819050 103.7255630  21.4790470
  20.5717170 104.1135340  21.8148440  20.8594980 103.8589640  20.9381450
  21.0840390 103.5612700  22.4054010  21.7894180  87.8525540  22.3944950
  21.0065970  88.3271040  22.6741710  21.4957110  86.9480370  22.2858130
  26.3415250  88.5548640  20.4394040  26.7823340  88.4993740  19.5915640
  26.0722840  89.4706650  20.5104220  28.2053820  88.1863880  18.4502860
  28.1442220  87.2425100  18.3033880  28.9845850  88.2943970  18.9956320
  12.5106570 104.3256240  17.4126810  12.3428610 103.6926920  18.1108700
  11.6441080 104.5315640  17.0621000  13.1334590  88.1573020  14.9158670
  13.8913950  88.2701900  14.3422700  12.6711760  88.9942220  14.8702100
  19.6748400  90.2712290  17.9060980  18.8622910  89.8969180  17.5656860
  20.1790040  89.5157370  18.2082170  24.1773380  86.9354740  19.1444050
  24.7802750  87.5074950  19.6192570  23.4366370  87.4994180  18.9217950
  27.3207980  87.3376300  14.4184330  27.5158610  88.2359750  14.6851760
  26.5337850  87.1063380  14.9117280  14.1169270 103.0189470  14.8576950
  13.5916890 103.3997500  14.1538910  14.0413850 103.6440240  15.5786660
  15.5059740  88.6837070  13.4560640  16.0352500  87.8966870  13.3268590
  16.1388060  89.3628260  13.6896170  17.6997580  88.4212210  16.5106030
  17.0700320  87.7199520  16.6776160  17.1602720  89.1816340  16.2939190
  20.6389530 105.0351440  29.1816640  21.5656840 104.7995710  29.2252600
  20.6239960 105.8623440  28.7002670  28.8734590 104.5777010  16.1790890
  29.0486780 103.8914750  15.5351810  28.1756160 105.1024060  15.7867560
  17.8253140  87.6996190  28.9458520  17.5437410  88.2029790  28.1819340
  18.2072840  86.9017940  28.5800650  16.7162240 104.9671850  13.7326200
  17.4481060 104.6831130  13.1850090  16.9755910 104.7285130  14.6225580
  15.8777030 101.0836580  13.7372530  15.2485910 101.5521680  14.2858360
  15.9924860 100.2385800  14.1718720  24.4268600  87.1149770  29.5238990
  24.3134050  87.4344380  30.4190510  25.2438340  87.5162280  29.2276270
  27.2067090 104.2621300  29.0057680  27.9992410 103.7670530  28.7983640
  27.5000240 104.9411440  29.6133290  21.4644790  96.9121260   1.7683000
  20.6886890  96.4321700   2.0581570  22.1157720  96.2326910   1.5939160
  15.4810620  97.2241070   2.6458760  14.6495500  96.9689780   3.0455270
  16.0891600  97.2951840   3.3816680  15.4611880 101.2581160   2.8416780
  15.7639920 100.3678900   2.6627000  16.2055470 101.8151380   2.6139030
  20.9053780  99.5878450   1.7753160  20.8362060  98.6468390   1.6142290
  21.6673640  99.6779860   2.3475730  13.0960450  90.1932970   4.1009780
  12.9163290  89.2958720   4.3812540  12.6940530  90.7404840   4.7756730
  13.7147120  92.6893470   2.7092120  14.3957230  92.9531840   3.3279520
  13.3995170  91.8494340   3.0430130  17.9071690  93.7360830   1.7964710
  18.4149910  94.2341800   2.4369730  18.4384930  92.9596030   1.6204070
  30.0082620  91.9066020   5.4994060  29.3034790  92.2947730   4.9809170
  30.2740540  92.6016310   6.1014990  16.1907790  88.3759390   6.0628130
  16.1926230  88.8931780   5.2574030  15.3612100  87.8989570   6.0398060
  17.4410640  98.0154570   4.2401630  17.1080020  98.6423490   4.8822700
  17.6177320  98.5416450   3.4603300  15.8723120  90.0869350   4.0698580
  16.2139930  90.9311400   3.7752450  14.9338930  90.2353090   4.1863920
  16.6529740  99.9835370   6.0550810  17.2703740 100.6586450   5.7735260
  15.7922860 100.3923350   5.9638310  27.5707330 101.4474780   3.9705450
  26.8870850 102.1173890   3.9622120  28.1101620 101.6455430   3.2050310
  29.0231470  91.2754440   2.0987180  28.0756380  91.3093420   2.2302610
  29.3481460  92.0893390   2.4836540  25.1066070 103.2918910   2.6850630
  25.1193230 102.8881200   1.8172890  24.5541290 104.0666200   2.5812060
  24.5051510  98.1948750   4.0133240  24.9220300  97.9808860   3.1786700
  25.2291330  98.4521540   4.5841860  28.4513610  96.5935970   4.1049480
  27.6232240  96.6629060   3.6299610  29.0464090  97.1790280   3.6365310
  25.4155620  93.3805290   5.0504350  25.0026800  94.2059000   5.3044340
  24.6831570  92.7950330   4.8580710  16.2617030  92.9408400   3.6922060
  16.8131620  93.0503740   2.9175310  16.7760540  93.3146000   4.4077290
  26.1055720 103.4264620   5.7385330  25.6286280 104.2336810   5.5457940
  25.4217510 102.7742950   5.8911540  17.1088540  99.5914440   8.7270030
  16.2117070  99.8154410   8.9743430  17.1341410  99.7149380   7.7781430
  15.9359760  96.4627760   7.3027400  15.7967530  97.3350560   7.6714800
  15.0541120  96.1200570   7.1575340  17.7340110 102.4049460   9.5112550
  17.7055540 102.8092410   8.6440980  17.5705080 101.4759820   9.3484150
  29.6854930 103.1876560  10.8076720  30.1614650 103.6659450  11.4865800
  30.3062090 103.1194050  10.0822220  11.8878410  98.2325310   3.2198310
  11.9658830  98.3674080   2.2754030  12.5020090  97.5241200   3.4126430
  29.0888180 100.3789410   7.9676730  29.2151240 100.1401290   7.0493910
  29.1309560  99.5473950   8.4398810  22.9504920 104.0817410   6.5371540
  23.4649590 103.9925420   7.3393970  22.1074000 104.4277110   6.8299450
  28.9412190  92.4321870   8.9326470  28.3256460  92.9401540   8.4041930
  28.6208610  91.5320200   8.8752410  11.9437930  99.2739480   5.7592770
  12.1068970  98.8044840   4.9412140  12.4090380  98.7663040   6.4241610
  21.0026510  91.2713760   6.3988660  20.5405880  91.4796780   7.2108600
  20.6004620  90.4573110   6.0959330  26.0031020  92.4922710   7.5285320
  25.1524610  92.1928460   7.8494390  25.8432810  92.7364720   6.6169140
  23.0980730  93.9924460   9.6284110  23.4234140  93.1588210   9.2886340
  23.8861060  94.5152980   9.7762440  18.7532600  88.9492570   2.6542940
  19.0504930  89.8555400   2.5734960  19.3018160  88.4611350   2.0402510
  18.9470130  94.4264390   9.1894860  18.8513730  93.4859120   9.0395260
  19.7902110  94.6479460   8.7942930  14.0780670  90.8378060   7.3428640
  13.6844060  91.6853270   7.5501420  13.3899070  90.2004430   7.5337280
  20.6525720  90.9213030  10.4125380  19.9624040  90.7285230  11.0471470
  21.3958020  91.2047670  10.9449680  22.9288690  94.7611470   3.2479300
  22.1969810  95.2698280   3.5969400  22.5313030  93.9441450   2.9468080
  23.3914600  90.2145150   2.6602240  23.4087340  90.6653800   3.5044090
  23.1430180  89.3150790   2.8735680  26.8185350  87.6277330   8.4988620
  27.1431120  86.8966990   9.0246600  26.8541860  87.3090970   7.5969610
  13.5176910  98.6490910   7.9188580  13.1331700  98.0084580   8.5171540
  13.8289100  99.3527030   8.4883310  19.6674050  95.4967450   3.3997200
  20.0344180  95.0226020   4.1458540  19.4779110  96.3709020   3.7405540
  17.4573420  94.5376090   5.7181410  17.1530490  95.4168070   5.9431770
  18.4119880  94.5975880   5.7538850  26.7443190  97.7402440   2.1074650
  27.4642310  98.2357730   1.7170760  26.5425010  97.0620330   1.4628520
  22.1261990  97.8111500   7.9943650  22.0599300  96.8907170   7.7401240
  21.4967130  97.9086940   8.7088290  13.5137150  95.3778830   6.8652770
  13.1552090  96.0432680   7.4526110  13.2191710  94.5462380   7.2365390
  16.7150270  95.8363070   9.7492320  16.4150410  95.9820250   8.8520140
  17.4861510  95.2768360   9.6565710  22.0578720 100.6332070   7.7447450
  22.0723260  99.7013030   7.5266360  21.3503820 100.7191830   8.3837220
  28.2689930  97.2739410   7.0916030  27.5438120  97.8668190   6.8945420
  28.7965390  97.2662950   6.2929400  21.4912620 102.2749640   4.8387950
  22.1354840 102.4809020   5.5161370  21.8542060 101.5138040   4.3858800
  22.7644700 100.2781990   3.5565400  23.4066930  99.5775150   3.6697570
  23.2894050 101.0580430   3.3762290  24.5382320 101.0776890   6.7601460
  24.8738560 101.6643580   7.4379380  23.6182660 100.9469600   6.9899250
  12.0885720  88.8672070   7.5424870  11.3744240  89.0668990   8.1477480
  12.5080760  88.0911640   7.9139670  12.3758310 102.8552330   8.5291400
  12.4849430 101.9147070   8.3886790  11.7238870 103.1207080   7.8805130
  20.3670900 101.1268220   9.9289520  20.0467770 100.4077460  10.4735210
  19.6929260 101.8023290  10.0025580  23.5824500  91.3594380   5.2926320
  23.9505320  90.5389590   5.6205890  22.7222700  91.4196270   5.7081970
  20.5426490  94.0133970   5.5164290  21.0411740  94.4879790   6.1816140
  20.6849440  93.0897490   5.7234320  27.7493350  90.2301930   6.3592680
  27.2466950  90.9707330   6.6986490  28.5650010  90.6185930   6.0429470
  14.5216750 103.9221240  10.3411010  15.3229480 104.2433290  10.7546410
  14.0068570 103.5616820  11.0630920  23.3581380 100.0301110  10.2886420
  22.7519540 100.0532710   9.5482170  23.0535490  99.2984150  10.8253670
  24.7881750 103.7581400   8.8995830  25.7403500 103.6739420   8.8496070
  24.6409970 104.4223110   9.5729620  12.2414560  96.4094700   9.2847060
  12.7453580  95.8301980   9.8563290  11.5021980  96.6934930   9.8223430
  19.2952500  97.8165690   8.8182580  18.5298170  98.3850690   8.7337250
  19.4768460  97.5241900   7.9250810  26.4375850  99.5471020   9.3757600
  27.1785320  99.8846780   8.8725060  25.6748530  99.7163080   8.8227370
  14.2737640  94.5524290  10.1797130  14.3142980  94.2538160  11.0882360
  15.1283140  94.9531900  10.0204650  16.2143450  93.1316390   8.1471620
  15.6839910  92.6407340   7.5194960  16.8831520  93.5600590   7.6129550
  25.1121510  97.5985850   7.9112810  25.5262530  97.7530930   8.7603230
  24.1772510  97.7241070   8.0738590  25.5843680  94.9382010   9.9151960
  26.1664450  94.1834330   9.8272440  25.7605450  95.4689450   9.1383440
  16.7015750  90.0978760   8.2268910  16.6072620  89.4799510   7.5019780
  16.1213140  90.8245050   7.9998820  19.4677190  88.6552000   5.2596300
  19.0194490  88.6776260   4.4141850  18.8342390  88.2571020   5.8566600
  19.8736740  97.5506330   5.8808740  20.2924850  98.3939060   5.7084980
  18.9545370  97.6878370   5.6515520  22.2100640  95.2822510   7.2646580
  22.3296850  94.6863650   8.0041420  23.0694640  95.3192200   6.8447880
  24.5488540  95.8359700   5.8409090  24.0223760  96.3602320   5.2374230
  24.8919880  96.4687090   6.4718820  17.7244160 103.8559340   6.9966470
  17.1865250 104.5805400   6.6775170  17.9778120 103.3789680   6.2063810
  18.9769410  91.8243860   8.5222400  19.5669100  91.5159710   9.2100220
  18.1589650  91.3523610   8.6782300  23.7962840  91.4409670   8.7555420
  23.1078360  90.7791210   8.6905410  24.5168860  90.9947940   9.2003880
  20.5806370 105.0910550   7.2553120  20.5065070 105.9945690   7.5625490
  19.6785210 104.7722450   7.2275190  12.4723870 103.2855730   3.2968370
  12.0354860 103.4656530   4.1292520  13.0401550 104.0430350   3.1550090
  28.1086050 102.7872730   7.5845680  27.5088040 102.8465290   6.8409600
  28.2379950 101.8477710   7.7142530  26.7937690  99.5124710   5.6821840
  25.9797530  99.9421870   5.9447630  27.2011890 100.1243120   5.0690890
  13.3424230  96.1828530   4.1960590  13.7097270  96.0955930   5.0756610
  12.7735050  95.4195080   4.0967450  28.1428090  94.6512910   7.2091060
  27.9114180  94.4225660   6.3089010  28.4032640  95.5712460   7.1635950
  12.8940230  93.0937620   8.1019010  11.9996280  93.0604380   8.4412720
  13.4337780  93.2924410   8.8670260  26.5816160  89.8769340   9.9870760
  27.4586340  89.8852740  10.3704760  26.5937000  89.1400180   9.3763110
  28.2069150  93.8138750   4.3978330  27.2571860  93.7802290   4.5123320
  28.3882160  94.7238860   4.1628100  13.3979940  87.3685950   2.4502230
  14.0456130  86.8183330   2.0097390  13.8181780  87.6229100   3.2718040
  27.2932280  87.5627310   5.8071870  27.9304500  88.1761450   6.1731060
  27.4407170  87.5987970   4.8621100  13.1511940  87.5241620   5.1927550
  12.8026760  87.9805440   5.9585730  12.8199640  86.6298750   5.2749980
  14.7576310 100.6961220   9.3580740  14.7145940 100.3254130  10.2395200
  14.8887320 101.6338790   9.4982560  18.4582340 102.2520810   4.9590460
  18.2173700 102.5195370   4.0720980  19.3984980 102.4226540   5.0141320
  20.6636760  88.7153500   8.7146970  20.6025650  89.3075330   9.4642380
  21.6037140  88.6079460   8.5697230  23.3011320  88.3723560   8.3539260
  23.9151730  88.6902850   7.6920340  23.8460880  87.8872150   8.9735120
  29.7186500 104.2715190   5.7601100  29.2244780 104.6684060   5.0428230
  29.1099790 103.6464400   6.1538380  13.8232580  87.0517820   8.4678320
  14.3715570  86.8705870   7.7044430  13.8887890  86.2611930   9.0034630
  14.5964340 103.6423470   6.4778520  14.0024660 103.5108170   7.2168560
  14.5888180 102.8061610   6.0120620  24.0419360  86.9355700   4.6808550
  23.1679200  87.2690810   4.4781480  23.9330110  86.4628880   5.5060420
  24.9491340  89.1426570   6.0650270  24.6204700  88.3278330   5.6852000
  25.8973640  89.0996380   5.9415960  27.4025950 104.9138610   3.0387840
  26.9428920 105.6654420   2.6645860  26.7738410 104.1945080   2.9802640
  14.2276570 101.0081850   5.4286560  13.5010630 100.3887140   5.3612510
  14.2885720 101.4022460   4.5584640  17.8321670 103.2226850   2.2135970
  18.3486690 102.6114210   1.6884230  18.4819050 103.7255630   2.7046980
  20.5717170 104.1135340   3.0404950  20.8594980 103.8589640   2.1637960
  21.0840390 103.5612700   3.6310520  21.7894180  87.8525540   3.6201460
  21.0065970  88.3271040   3.8998220  21.4957110  86.9480370   3.5114640
  20.6389530 105.0351440  10.4073150  21.5656840 104.7995710  10.4509110
  20.6239960 105.8623440   9.9259180  17.8253140  87.6996190  10.1715030
  17.5437410  88.2029790   9.4075850  18.2072840  86.9017940   9.8057160
  24.4268600  87.1149770  10.7495500  24.3134050  87.4344380  11.6447020
  25.2438340  87.5162280  10.4532780  27.2067090 104.2621300  10.2314190
  27.9992410 103.7670530  10.0240150  27.5000240 104.9411440  10.8389800
  23.3326750  76.3598750 150.0821650  23.2520800  75.4453360 149.8113360
  22.9191170  76.8565820 149.3761360  25.4852220  82.5437960 150.7430050
  25.0233750  81.7725200 151.0717220  26.2977770  82.5704030 151.2482500
  13.8902570  73.4099470 146.6249070  13.0019270  73.7515440 146.5228950
  14.1743760  73.2099790 145.7329900  21.7115530  84.8295970 150.3634040
  21.0926970  85.2853470 149.7928480  22.5667310  84.9847430 149.9623740
  16.0663960  71.9930970 147.6587450  16.1730710  72.8934700 147.9656210
  15.1556320  71.9448940 147.3682100  25.7183070  71.1155780 149.1298350
  26.5392690  70.6252350 149.1723830  25.7517150  71.7053440 149.8830190
  22.5778880  79.7135210 147.7565950  21.9596150  80.1784660 147.1928670
  23.0902130  80.4062690 148.1735460  11.9462080  80.3991740 145.1305580
  11.5690060  80.8878840 144.3990480  12.2035150  81.0717020 145.7612110
  19.5551010  68.8008130 150.5891090  19.8625990  68.2455020 149.8726590
  18.6251710  68.9352590 150.4064080  26.4011490  81.2391640 147.9688720
  26.2907820  80.2965970 148.0938140  26.3979740  81.6007280 148.8551480
  21.9431770  76.8656960 147.3251210  21.0161050  76.7994340 147.5539680
  22.0956590  77.8037090 147.2106450  21.9300850  73.1373960 144.3218370
  20.9904520  73.2987920 144.4070830  22.2484110  73.8559640 143.7754360
  25.9729060  78.4277260 147.8286460  25.3541480  78.0896810 147.1812760
  25.9553510  77.7837020 148.5365650  17.5488410  77.3921700 150.1070940
  17.1445410  76.6798950 149.6116840  17.6351530  77.0474940 150.9958980
  24.1493760  77.6664070 144.8359210  24.5887040  76.8286500 144.6897030
  24.8622180  78.2993470 144.9223350  22.2589140  82.6060140 148.8040450
  22.6985050  83.3484470 148.3895840  22.1976030  82.8486710 149.7279410
  27.7310900  68.9206880 143.1500250  27.4183560  69.0133710 144.0499320
  28.4923370  69.4987910 143.0997680  14.2493040  76.2866680 147.6077590
  14.1290640  77.0128770 146.9958860  13.9393930  75.5169590 147.1305500
  13.1326040  81.1582010 149.8252410  12.7254120  81.2996600 148.9706010
  14.0239050  80.8742170 149.6223620  24.9259320  85.5929260 146.1603460
  24.7660460  85.3032200 147.0585290  24.7606030  84.8169390 145.6248690
  17.4047700  85.3727790 147.9375080  17.2290180  84.4563330 147.7242880
  16.5503440  85.7315080 148.1772880  24.6285450  83.1016820 144.7201460
  23.9350610  83.0994110 144.0603740  25.3708310  82.6776140 144.2895630
  24.1935380  84.7279530 148.7949950  24.6492330  83.9468910 149.1088570
  24.5327900  85.4386350 149.3391130  16.7156700  69.6301750 150.9901260
  16.2724850  70.4111290 150.6585780  17.2741690  69.9531640 151.6972200
  19.8315520  69.2512450 145.8707090  19.2069700  69.2472320 146.5960400
  19.7445640  68.3843410 145.4743060  16.5070920  74.7535320 148.7182510
  16.2811840  74.5372490 149.6229130  15.7263450  75.1863780 148.3728480
  23.7368680  74.7598690 147.3173160  23.1377570  75.4834490 147.1336780
  24.2848290  74.6975470 146.5349610  22.3433550  73.3962230 149.3476440
  22.7363120  73.7134430 148.5345130  22.7050400  72.5174110 149.4620960
  11.5667950  73.9283150 142.7809360  11.4842620  74.8713910 142.9224350
  11.2151010  73.7858060 141.9021710  15.2168460  72.5448670 150.8073920
  14.8768510  73.0223900 151.5640970  14.4545780  72.0913790 150.4475020
  19.4286230  73.6634260 144.8386470  19.5499050  73.6220740 145.7872290
  19.0434740  74.5258410 144.6833200  18.4407730  75.9735400 144.2369770
  17.8724630  75.5253650 143.6105680  19.1496730  76.3328180 143.7034920
  12.5314540  71.4667650 149.7238590  12.2461460  71.1023320 150.5617210
  12.4693400  70.7348110 149.1101730  15.9855210  79.9693590 146.5096180
  15.2117470  79.4291210 146.3494900  16.7149840  79.4500200 146.1713940
  22.2053130  70.3596910 146.4451960  21.3917740  69.8610080 146.3697270
  22.0115080  71.1995160 146.0288310  24.9201520  74.7316560 144.7414120
  25.8081140  75.0433790 144.5665460  24.8906610  73.8588810 144.3494700
  16.0292610  79.6373970 150.1474990  16.5471280  78.8342230 150.0931880
  15.5776630  79.5753110 150.9891820  20.9162110  80.9040250 145.4202290
  21.2577810  81.6482480 144.9245610  20.0874820  81.2171370 145.7827120
  27.1915790  76.0428400 144.2093980  27.1079510  76.4742620 143.3590420
  27.9109980  76.5026750 144.6420800  28.2203040  82.8970660 146.9376110
  27.5779200  82.2426280 147.2119830  27.8333700  83.3025750 146.1616780
  23.7989520  80.2256090 150.7847800  24.1513340  79.6284220 150.1249170
  22.9151850  79.9000320 150.9556050  19.8852800  80.9853780 148.1918210
  20.5723930  81.5322990 148.5725800  19.0985220  81.5294510 148.2267820
  12.0245200  76.6026600 143.6835290  12.8940050  76.8851400 143.9671210
  11.5335520  77.4162470 143.5684100  19.1880010  77.9899810 147.8043570
  19.6442790  78.8005060 148.0303760  18.8368220  77.6722950 148.6362060
  15.0891790  68.3337460 148.2766090  14.9606420  68.3255360 149.2251010
  14.2653810  68.6720550 147.9257100  26.6100420  81.7887120 143.4752460
  26.3838000  81.0717560 144.0677100  26.2196620  81.5399560 142.6374210
  12.3916450  85.8153980 144.2496920  12.7514090  86.4143320 143.5954190
  12.2508790  86.3613870 145.0231950  26.1916670  79.7059060 145.1366620
  25.9038370  80.1671750 145.9244500  26.9868840  79.2456830 145.4050840
  18.4085070  83.1985180 145.0670590  18.3995170  83.9314870 144.4515100
  17.4883430  82.9516760 145.1597550  14.0091710  78.4200070 145.8117350
  13.4019660  79.1598970 145.8212650  14.4841060  78.5099430 144.9855550
  26.9486530  71.5407830 146.2961800  26.3199690  71.6453500 145.5820030
  26.4538450  71.7604610 147.0855680  21.3944670  83.2613420 143.7295780
  21.4956650  83.0577410 142.7997760  20.4946410  83.0071700 143.9343560
  18.9170560  73.8193780 147.7119680  18.2086710  74.2880120 148.1533290
  19.2015040  73.1615790 148.3464870  22.9485990  70.5444440 149.1515470
  22.8253770  70.5630570 148.2024980  23.8970550  70.5923380 149.2713870
  20.0362780  85.7799740 148.4243450  20.2904280  85.7421130 147.5022820
  19.0875260  85.6533070 148.4171700  17.1205580  72.1278860 145.0870390
  17.9696110  72.5649010 145.0210580  16.7536850  72.4399120 145.9142450
  26.0415360  76.6991620 150.0001960  25.1005500  76.7141850 150.1749650
  26.3559430  75.9127580 150.4462260  16.0197000  78.3811220 143.5605920
  16.7860270  78.2692580 144.1231350  16.0971690  77.6849190 142.9082690
  14.7143760  75.8136290 144.2438810  14.7947350  74.8663800 144.3556210
  15.6063510  76.1443170 144.3499470  15.5158470  85.9631680 151.3473350
  16.2520950  85.4147140 151.6181920  15.8999390  86.8287690 151.2079340
  12.4003950  82.0305250 147.2214860  11.4743730  82.2726390 147.2120270
  12.8660380  82.8579510 147.0999610  18.6260780  85.1361990 143.1698920
  19.4189390  85.4250820 142.7180710  18.1065130  84.7054160 142.4911400
  27.6790950  84.3632120 144.5935660  27.3932460  83.9497260 143.7789840
  27.4810500  85.2919830 144.4736180  19.1438180  80.3565400 143.0341270
  19.0388820  79.7417750 143.7602650  18.9762400  79.8331290 142.2504280
  22.3840910  79.4185430 143.6383260  21.8351010  79.8654730 144.2826000
  23.0060170  78.9134680 144.1620930  18.0516030  78.3776350 145.5348560
  18.4732450  78.2116220 146.3779950  18.1766870  77.5676580 145.0403700
  20.5643670  77.4013960 142.7825660  21.0849330  76.6862980 142.4166810
  21.2112070  78.0399830 143.0826170  16.9474930  74.4509580 142.4806720
  16.7463990  73.5876940 142.8420060  16.7766980  74.3642940 141.5428320
  24.4263240  69.2617810 145.0093600  24.7065530  68.4185710 145.3653020
  23.6528970  69.4940920 145.5232350  15.7457730  71.5510200 142.4684600
  16.0483630  71.5577630 141.5603750  16.4852320  71.2008060 142.9652260
  18.9642660  70.4944820 143.4540800  18.6164660  69.8168810 142.8743250
  19.1655430  70.0334330 144.2684190  21.1291700  85.4825570 145.0727400
  22.0242490  85.8210540 145.0946160  21.1609330  84.7604980 144.4451680
  14.7687860  80.8552620 143.3014400  15.2062730  81.3982290 143.9571980
  15.2535590  80.0299570 143.3110740  11.9833660  83.6441650 150.7534660
  12.3136670  82.7762710 150.5213300  12.4124660  83.8500170 151.5839620
  16.5795580  81.9750660 148.4136630  16.2791120  81.8515630 149.3140540
  16.4733070  81.1159250 148.0052360  29.3487500  81.7547060 143.1163310
  28.5180460  81.8223710 143.5870540  29.5259330  82.6451180 142.8130170
  28.8043960  78.4994540 145.6197510  29.5662870  79.0691190 145.7257200
  28.8198330  77.9321740 146.3905820  12.3048300  77.0232470 149.8505170
  11.6497140  76.7544110 149.2064870  13.1426250  76.9136950 149.4007150
  29.8103930  79.3544640 150.4639440  30.1812760  78.5711960 150.0575410
  30.4505860  80.0433740 150.2856740  28.8563130  78.7928910 142.7770030
  29.1311970  79.7007790 142.6489250  28.6673870  78.7291440 143.7132020
  25.2538740  71.8173760 144.0723660  25.6723620  71.6304740 143.2320320
  24.9474800  70.9652810 144.3826590  28.7528470  76.7297900 147.7699460
  28.3772070  75.9625830 147.3380750  28.0231590  77.1120600 148.2574390
  11.5186380  74.2331400 145.7930500  10.6150460  74.4961600 145.6182160
  12.0027000  74.5042570 145.0130460  14.0613590  73.2896940 143.7024880
  14.7705290  72.8680160 143.2172160  13.3453530  73.3572170 143.0708230
  13.7087750  69.3436270 142.7427530  14.4315880  69.8845210 143.0608750
  13.9812270  69.0699690 141.8669070  27.5179400  74.2128740 147.0099110
  28.0138520  73.9799610 147.7947990  27.3195470  73.3740580 146.5936750
  28.9466560  72.8489690 149.5436790  28.8365840  72.6945730 150.4819060
  29.7074150  72.3210630 149.3012200  29.8356830  70.6797610 142.7842930
  30.7606140  70.5478790 142.5761220  29.8132620  70.7590430 143.7379380
  29.9095320  71.4508270 145.4099640  29.1146820  71.3853390 145.9392550
  30.1138600  72.3858910 145.3984990  26.8513740  85.4899820 149.4038030
  27.4472810  85.1684390 148.7272450  27.1091890  85.0171640 150.1951300
  28.2053820  69.4120390 149.8707290  28.1442220  68.4681610 149.7238310
  28.9845850  69.5200480 150.4160750  12.5106570  85.5512750 148.8331240
  12.3428610  84.9183430 149.5313130  11.6441080  85.7572150 148.4825430
  13.1334590  69.3829530 146.3363100  13.8913950  69.4958410 145.7627130
  12.6711760  70.2198730 146.2906530  19.6748400  71.4968800 149.3265410
  18.8622910  71.1225690 148.9861290  20.1790040  70.7413880 149.6286600
  24.1773380  68.1611250 150.5648480  24.7802750  68.7331460 151.0397000
  23.4366370  68.7250690 150.3422380  27.3207980  68.5632810 145.8388760
  27.5158610  69.4616260 146.1056190  26.5337850  68.3319890 146.3321710
  14.1169270  84.2445980 146.2781380  13.5916890  84.6254010 145.5743340
  14.0413850  84.8696750 146.9991090  15.5059740  69.9093580 144.8765070
  16.0352500  69.1223380 144.7473020  16.1388060  70.5884770 145.1100600
  17.6997580  69.6468720 147.9310460  17.0700320  68.9456030 148.0980590
  17.1602720  70.4072850 147.7143620  28.8734590  85.8033520 147.5995320
  29.0486780  85.1171260 146.9556240  28.1756160  86.3280570 147.2071990
  16.7162240  86.1928360 145.1530630  17.4481060  85.9087640 144.6054520
  16.9755910  85.9541640 146.0430010  15.8777030  82.3093090 145.1576960
  15.2485910  82.7778190 145.7062790  15.9924860  81.4642310 145.5923150
  23.3326750  76.3598750 131.3078160  23.2520800  75.4453360 131.0369870
  22.9191170  76.8565820 130.6017870  21.4644790  78.1377770 133.1887430
  20.6886890  77.6578210 133.4786000  22.1157720  77.4583420 133.0143590
  15.4810620  78.4497580 134.0663190  14.6495500  78.1946290 134.4659700
  16.0891600  78.5208350 134.8021110  25.4852220  82.5437960 131.9686560
  25.0233750  81.7725200 132.2973730  26.2977770  82.5704030 132.4739010
  15.4611880  82.4837670 134.2621210  15.7639920  81.5935410 134.0831430
  16.2055470  83.0407890 134.0343460  13.8902570  73.4099470 127.8505580
  13.0019270  73.7515440 127.7485460  14.1743760  73.2099790 126.9586410
  11.8535580  76.0105120 133.7345280  12.4251690  75.2427320 133.7348920
  11.8537120  76.3093880 132.8251890  21.7115530  84.8295970 131.5890550
  21.0926970  85.2853470 131.0184990  22.5667310  84.9847430 131.1880250
  20.9053780  80.8134960 133.1957590  20.8362060  79.8724900 133.0346720
  21.6673640  80.9036370 133.7680160  13.0960450  71.4189480 135.5214210
  12.9163290  70.5215230 135.8016970  12.6940530  71.9661350 136.1961160
  21.9358950  73.6205340 133.4226520  22.3123770  72.7477220 133.3100190
  21.8378460  73.9564040 132.5316960  16.0663960  71.9930970 128.8843960
  16.1730710  72.8934700 129.1912720  15.1556320  71.9448940 128.5938610
  25.7183070  71.1155780 130.3554860  26.5392690  70.6252350 130.3980340
  25.7517150  71.7053440 131.1086700  13.7147120  73.9149980 134.1296550
  14.3957230  74.1788350 134.7483950  13.3995170  73.0750850 134.4634560
  17.9071690  74.9617340 133.2169140  18.4149910  75.4598310 133.8574160
  18.4384930  74.1852540 133.0408500  30.0082620  73.1322530 136.9198490
  29.3034790  73.5204240 136.4013600  30.2740540  73.8272820 137.5219420
  16.1907790  69.6015900 137.4832560  16.1926230  70.1188290 136.6778460
  15.3612100  69.1246080 137.4602490  22.5778880  79.7135210 128.9822460
  21.9596150  80.1784660 128.4185180  23.0902130  80.4062690 129.3991970
  17.4410640  79.2411080 135.6606060  17.1080020  79.8680000 136.3027130
  17.6177320  79.7672960 134.8807730  25.9544550  73.0556160 133.1282400
  25.2500120  73.3441050 133.7085510  26.3156710  73.8656270 132.7681960
  15.8723120  71.3125860 135.4903010  16.2139930  72.1567910 135.1956880
  14.9338930  71.4609600 135.6068350  16.6529740  81.2091880 137.4755240
  17.2703740  81.8842960 137.1939690  15.7922860  81.6179860 137.3842740
  11.9462080  80.3991740 126.3562090  11.5690060  80.8878840 125.6246990
  12.2035150  81.0717020 126.9868620  27.5707330  82.6731290 135.3909880
  26.8870850  83.3430400 135.3826550  28.1101620  82.8711940 134.6254740
  29.0231470  72.5010950 133.5191610  28.0756380  72.5349930 133.6507040
  29.3481460  73.3149900 133.9040970  19.5551010  68.8008130 131.8147600
  19.8625990  68.2455020 131.0983100  18.6251710  68.9352590 131.6320590
  25.1066070  84.5175420 134.1055060  25.1193230  84.1137710 133.2377320
  24.5541290  85.2922710 134.0016490  26.4011490  81.2391640 129.1945230
  26.2907820  80.2965970 129.3194650  26.3979740  81.6007280 130.0807990
  24.5051510  79.4205260 135.4337670  24.9220300  79.2065370 134.5991130
  25.2291330  79.6778050 136.0046290  21.9431770  76.8656960 128.5507720
  21.0161050  76.7994340 128.7796190  22.0956590  77.8037090 128.4362960
  21.9300850  73.1373960 125.5474880  20.9904520  73.2987920 125.6327340
  22.2484110  73.8559640 125.0010870  28.4513610  77.8192480 135.5253910
  27.6232240  77.8885570 135.0504040  29.0464090  78.4046790 135.0569740
  25.9729060  78.4277260 129.0542970  25.3541480  78.0896810 128.4069270
  25.9553510  77.7837020 129.7622160  25.4155620  74.6061800 136.4708780
  25.0026800  75.4315510 136.7248770  24.6831570  74.0206840 136.2785140
  17.5488410  77.3921700 131.3327450  17.1445410  76.6798950 130.8373350
  17.6351530  77.0474940 132.2215490  18.0170110  81.0789260 133.4966660
  17.7198400  80.4734730 132.8174440  18.9669930  81.1166570 133.3856020
  16.2617030  74.1664910 135.1126490  16.8131620  74.2760250 134.3379740
  16.7760540  74.5402510 135.8281720  26.1055720  84.6521130 137.1589760
  25.6286280  85.4593320 136.9662370  25.4217510  83.9999460 137.3115970
  17.1088540  80.8170950 140.1474460  16.2117070  81.0410920 140.3947860
  17.1341410  80.9405890 139.1985860  24.1493760  77.6664070 126.0615720
  24.5887040  76.8286500 125.9153540  24.8622180  78.2993470 126.1479860
  15.9359760  77.6884270 138.7231830  15.7967530  78.5607070 139.0919230
  15.0541120  77.3457080 138.5779770  22.2589140  82.6060140 130.0296960
  22.6985050  83.3484470 129.6152350  22.1976030  82.8486710 130.9535920
  17.7340110  83.6305970 140.9316980  17.7055540  84.0348920 140.0645410
  17.5705080  82.7016330 140.7688580  27.7310900  68.9206880 124.3756760
  27.4183560  69.0133710 125.2755830  28.4923370  69.4987910 124.3254190
  14.2493040  76.2866680 128.8334100  14.1290640  77.0128770 128.2215370
  13.9393930  75.5169590 128.3562010  29.6854930  84.4133070 142.2281150
  30.1614650  84.8915960 142.9070230  30.3062090  84.3450560 141.5026650
  11.8878410  79.4581820 134.6402740  11.9658830  79.5930590 133.6958460
  12.5020090  78.7497710 134.8330860  13.1326040  81.1582010 131.0508920
  12.7254120  81.2996600 130.1962520  14.0239050  80.8742170 130.8480130
  29.0888180  81.6045920 139.3881160  29.2151240  81.3657800 138.4698340
  29.1309560  80.7730460 139.8603240  22.9504920  85.3073920 137.9575970
  23.4649590  85.2181930 138.7598400  22.1074000  85.6533620 138.2503880
  24.9259320  85.5929260 127.3859970  24.7660460  85.3032200 128.2841800
  24.7606030  84.8169390 126.8505200  17.4047700  85.3727790 129.1631590
  17.2290180  84.4563330 128.9499390  16.5503440  85.7315080 129.4029390
  24.6285450  83.1016820 125.9457970  23.9350610  83.0994110 125.2860250
  25.3708310  82.6776140 125.5152140  24.1935380  84.7279530 130.0206460
  24.6492330  83.9468910 130.3345080  24.5327900  85.4386350 130.5647640
  28.9412190  73.6578380 140.3530900  28.3256460  74.1658050 139.8246360
  28.6208610  72.7576710 140.2956840  11.9437930  80.4995990 137.1797200
  12.1068970  80.0301350 136.3616570  12.4090380  79.9919550 137.8446040
  16.7156700  69.6301750 132.2157770  16.2724850  70.4111290 131.8842290
  17.2741690  69.9531640 132.9228710  21.0026510  72.4970270 137.8193090
  20.5405880  72.7053290 138.6313030  20.6004620  71.6829620 137.5163760
  26.0031020  73.7179220 138.9489750  25.1524610  73.4184970 139.2698820
  25.8432810  73.9621230 138.0373570  23.0980730  75.2180970 141.0488540
  23.4234140  74.3844720 140.7090770  23.8861060  75.7409490 141.1966870
  19.8315520  69.2512450 127.0963600  19.2069700  69.2472320 127.8216910
  19.7445640  68.3843410 126.6999570  18.7532600  70.1749080 134.0747370
  19.0504930  71.0811910 133.9939390  19.3018160  69.6867860 133.4606940
  16.5070920  74.7535320 129.9439020  16.2811840  74.5372490 130.8485640
  15.7263450  75.1863780 129.5984990  23.7368680  74.7598690 128.5429670
  23.1377570  75.4834490 128.3593290  24.2848290  74.6975470 127.7606120
  18.9470130  75.6520900 140.6099290  18.8513730  74.7115630 140.4599690
  19.7902110  75.8735970 140.2147360  22.3433550  73.3962230 130.5732950
  22.7363120  73.7134430 129.7601640  22.7050400  72.5174110 130.6877470
  14.0780670  72.0634570 138.7633070  13.6844060  72.9109780 138.9705850
  13.3899070  71.4260940 138.9541710  20.6525720  72.1469540 141.8329810
  19.9624040  71.9541740 142.4675900  21.3958020  72.4304180 142.3654110
  11.3797720  69.9863030 132.7963150  11.0910770  70.5565890 133.5088130
  12.1243480  69.5067480 133.1594380  11.5667950  73.9283150 124.0065870
  11.4842620  74.8713910 124.1480860  11.2151010  73.7858060 123.1278220
  22.9288690  75.9867980 134.6683730  22.1969810  76.4954790 135.0173830
  22.5313030  75.1697960 134.3672510  19.3666080  72.6622180 133.0736220
  19.3702140  72.2212130 132.2240760  20.2617200  72.9839510 133.1808040
  15.2168460  72.5448670 132.0330430  14.8768510  73.0223900 132.7897480
  14.4545780  72.0913790 131.6731530  19.4286230  73.6634260 126.0642980
  19.5499050  73.6220740 127.0128800  19.0434740  74.5258410 125.9089710
  23.3914600  71.4401660 134.0806670  23.4087340  71.8910310 134.9248520
  23.1430180  70.5407300 134.2940110  18.4407730  75.9735400 125.4626280
  17.8724630  75.5253650 124.8362190  19.1496730  76.3328180 124.9291430
  26.8185350  68.8533840 139.9193050  27.1431120  68.1223500 140.4451030
  26.8541860  68.5347480 139.0174040  13.5176910  79.8747420 139.3393010
  13.1331700  79.2341090 139.9375970  13.8289100  80.5783540 139.9087740
  19.6674050  76.7223960 134.8201630  20.0344180  76.2482530 135.5662970
  19.4779110  77.5965530 135.1609970  12.5314540  71.4667650 130.9495100
  12.2461460  71.1023320 131.7873720  12.4693400  70.7348110 130.3358240
  17.4573420  75.7632600 137.1385840  17.1530490  76.6424580 137.3636200
  18.4119880  75.8232390 137.1743280  15.9855210  79.9693590 127.7352690
  15.2117470  79.4291210 127.5751410  16.7149840  79.4500200 127.3970450
  26.7443190  78.9658950 133.5279080  27.4642310  79.4614240 133.1375190
  26.5425010  78.2876840 132.8832950  22.2053130  70.3596910 127.6708470
  21.3917740  69.8610080 127.5953780  22.0115080  71.1995160 127.2544820
  22.1261990  79.0368010 139.4148080  22.0599300  78.1163680 139.1605670
  21.4967130  79.1343450 140.1292720  24.9201520  74.7316560 125.9670630
  25.8081140  75.0433790 125.7921970  24.8906610  73.8588810 125.5751210
  16.0292610  79.6373970 131.3731500  16.5471280  78.8342230 131.3188390
  15.5776630  79.5753110 132.2148330  20.9162110  80.9040250 126.6458800
  21.2577810  81.6482480 126.1502120  20.0874820  81.2171370 127.0083630
  13.5137150  76.6035340 138.2857200  13.1552090  77.2689190 138.8730540
  13.2191710  75.7718890 138.6569820  16.7150270  77.0619580 141.1696750
  16.4150410  77.2076760 140.2724570  17.4861510  76.5024870 141.0770140
  22.0578720  81.8588580 139.1651880  22.0723260  80.9269540 138.9470790
  21.3503820  81.9448340 139.8041650  27.1915790  76.0428400 125.4350490
  27.1079510  76.4742620 124.5846930  27.9109980  76.5026750 125.8677310
  28.2689930  78.4995920 138.5120460  27.5438120  79.0924700 138.3149850
  28.7965390  78.4919460 137.7133830  28.2203040  82.8970660 128.1632620
  27.5779200  82.2426280 128.4376340  27.8333700  83.3025750 127.3873290
  23.7989520  80.2256090 132.0104310  24.1513340  79.6284220 131.3505680
  22.9151850  79.9000320 132.1812560  19.8852800  80.9853780 129.4174720
  20.5723930  81.5322990 129.7982310  19.0985220  81.5294510 129.4524330
  12.0245200  76.6026600 124.9091800  12.8940050  76.8851400 125.1927720
  11.5335520  77.4162470 124.7940610  19.1880010  77.9899810 129.0300080
  19.6442790  78.8005060 129.2560270  18.8368220  77.6722950 129.8618570
  21.4912620  83.5006150 136.2592380  22.1354840  83.7065530 136.9365800
  21.8542060  82.7394550 135.8063230  15.0891790  68.3337460 129.5022600
  14.9606420  68.3255360 130.4507520  14.2653810  68.6720550 129.1513610
  22.7644700  81.5038500 134.9769830  23.4066930  80.8031660 135.0902000
  23.2894050  82.2836940 134.7966720  26.6100420  81.7887120 124.7008970
  26.3838000  81.0717560 125.2933610  26.2196620  81.5399560 123.8630720
  24.5382320  82.3033400 138.1805890  24.8738560  82.8900090 138.8583810
  23.6182660  82.1726110 138.4103680  12.3916450  85.8153980 125.4753430
  12.7514090  86.4143320 124.8210700  12.2508790  86.3613870 126.2488460
  12.0885720  70.0928580 138.9629300  11.3744240  70.2925500 139.5681910
  12.5080760  69.3168150 139.3344100  26.1916670  79.7059060 126.3623130
  25.9038370  80.1671750 127.1501010  26.9868840  79.2456830 126.6307350
  12.3758310  84.0808840 139.9495830  12.4849430  83.1403580 139.8091220
  11.7238870  84.3463590 139.3009560  20.3670900  82.3524730 141.3493950
  20.0467770  81.6333970 141.8939640  19.6929260  83.0279800 141.4230010
  18.4085070  83.1985180 126.2927100  18.3995170  83.9314870 125.6771610
  17.4883430  82.9516760 126.3854060  14.0091710  78.4200070 127.0373860
  13.4019660  79.1598970 127.0469160  14.4841060  78.5099430 126.2112060
  23.5824500  72.5850890 136.7130750  23.9505320  71.7646100 137.0410320
  22.7222700  72.6452780 137.1286400  26.9486530  71.5407830 127.5218310
  26.3199690  71.6453500 126.8076540  26.4538450  71.7604610 128.3112190
  21.3944670  83.2613420 124.9552290  21.4956650  83.0577410 124.0254270
  20.4946410  83.0071700 125.1600070  18.9170560  73.8193780 128.9376190
  18.2086710  74.2880120 129.3789800  19.2015040  73.1615790 129.5721380
  20.5426490  75.2390480 136.9368720  21.0411740  75.7136300 137.6020570
  20.6849440  74.3154000 137.1438750  22.9485990  70.5444440 130.3771980
  22.8253770  70.5630570 129.4281490  23.8970550  70.5923380 130.4970380
  20.0362780  85.7799740 129.6499960  20.2904280  85.7421130 128.7279330
  19.0875260  85.6533070 129.6428210  17.1205580  72.1278860 126.3126900
  17.9696110  72.5649010 126.2467090  16.7536850  72.4399120 127.1398960
  27.7493350  71.4558440 137.7797110  27.2466950  72.1963840 138.1190920
  28.5650010  71.8442440 137.4633900  26.0415360  76.6991620 131.2258470
  25.1005500  76.7141850 131.4006160  26.3559430  75.9127580 131.6718770
  16.0197000  78.3811220 124.7862430  16.7860270  78.2692580 125.3487860
  16.0971690  77.6849190 124.1339200  14.7143760  75.8136290 125.4695320
  14.7947350  74.8663800 125.5812720  15.6063510  76.1443170 125.5755980
  28.0440940  83.8700470 132.9012730  28.1688360  84.6931640 133.3736540
  28.9106500  83.6591200 132.5536880  15.5158470  85.9631680 132.5729860
  16.2520950  85.4147140 132.8438430  15.8999390  86.8287690 132.4335850
  12.4003950  82.0305250 128.4471370  11.4743730  82.2726390 128.4376780
  12.8660380  82.8579510 128.3256120  14.5216750  85.1477750 141.7615440
  15.3229480  85.4689800 142.1750840  14.0068570  84.7873330 142.4835350
  18.6260780  85.1361990 124.3955430  19.4189390  85.4250820 123.9437220
  18.1065130  84.7054160 123.7167910  23.3581380  81.2557620 141.7090850
  22.7519540  81.2789220 140.9686600  23.0535490  80.5240660 142.2458100
  24.7881750  84.9837910 140.3200260  25.7403500  84.8995930 140.2700500
  24.6409970  85.6479620 140.9934050  27.6790950  84.3632120 125.8192170
  27.3932460  83.9497260 125.0046350  27.4810500  85.2919830 125.6992690
  12.2414560  77.6351210 140.7051490  12.7453580  77.0558490 141.2767720
  11.5021980  77.9191440 141.2427860  19.1438180  80.3565400 124.2597780
  19.0388820  79.7417750 124.9859160  18.9762400  79.8331290 123.4760790
  19.2952500  79.0422200 140.2387010  18.5298170  79.6107200 140.1541680
  19.4768460  78.7498410 139.3455240  22.3840910  79.4185430 124.8639770
  21.8351010  79.8654730 125.5082510  23.0060170  78.9134680 125.3877440
  26.4375850  80.7727530 140.7962030  27.1785320  81.1103290 140.2929490
  25.6748530  80.9419590 140.2431800  14.2737640  75.7780800 141.6001560
  14.3142980  75.4794670 142.5086790  15.1283140  76.1788410 141.4409080
  18.0516030  78.3776350 126.7605070  18.4732450  78.2116220 127.6036460
  18.1766870  77.5676580 126.2660210  16.2143450  74.3572900 139.5676050
  15.6839910  73.8663850 138.9399390  16.8831520  74.7857100 139.0333980
  20.5643670  77.4013960 124.0082170  21.0849330  76.6862980 123.6423320
  21.2112070  78.0399830 124.3082680  25.1121510  78.8242360 139.3317240
  25.5262530  78.9787440 140.1807660  24.1772510  78.9497580 139.4943020
  25.5843680  76.1638520 141.3356390  26.1664450  75.4090840 141.2476870
  25.7605450  76.6945960 140.5587870  16.7015750  71.3235270 139.6473340
  16.6072620  70.7056020 138.9224210  16.1213140  72.0501560 139.4203250
  19.4677190  69.8808510 136.6800730  19.0194490  69.9032770 135.8346280
  18.8342390  69.4827530 137.2771030  19.8736740  78.7762840 137.3013170
  20.2924850  79.6195570 137.1289410  18.9545370  78.9134880 137.0719950
  22.2100640  76.5079020 138.6851010  22.3296850  75.9120160 139.4245850
  23.0694640  76.5448710 138.2652310  24.5488540  77.0616210 137.2613520
  24.0223760  77.5858830 136.6578660  24.8919880  77.6943600 137.8923250
  16.9474930  74.4509580 123.7063230  16.7463990  73.5876940 124.0676570
  16.7766980  74.3642940 122.7684830  17.7244160  85.0815850 138.4170900
  17.1865250  85.8061910 138.0979600  17.9778120  84.6046190 137.6268240
  18.9769410  73.0500370 139.9426830  19.5669100  72.7416220 140.6304650
  18.1589650  72.5780120 140.0986730  23.7962840  72.6666180 140.1759850
  23.1078360  72.0047720 140.1109840  24.5168860  72.2204450 140.6208310
  24.4263240  69.2617810 126.2350110  24.7065530  68.4185710 126.5909530
  23.6528970  69.4940920 126.7488860  15.7457730  71.5510200 123.6941110
  16.0483630  71.5577630 122.7860260  16.4852320  71.2008060 124.1908770
  20.5806370  86.3167060 138.6757550  20.5065070  87.2202200 138.9829920
  19.6785210  85.9978960 138.6479620  18.9642660  70.4944820 124.6797310
  18.6164660  69.8168810 124.0999760  19.1655430  70.0334330 125.4940700
  21.1291700  85.4825570 126.2983910  22.0242490  85.8210540 126.3202670
  21.1609330  84.7604980 125.6708190  14.7687860  80.8552620 124.5270910
  15.2062730  81.3982290 125.1828490  15.2535590  80.0299570 124.5367250
  11.9833660  83.6441650 131.9791170  12.3136670  82.7762710 131.7469810
  12.4124660  83.8500170 132.8096130  16.5795580  81.9750660 129.6393140
  16.2791120  81.8515630 130.5397050  16.4733070  81.1159250 129.2308870
  12.4723870  84.5112240 134.7172800  12.0354860  84.6913040 135.5496950
  13.0401550  85.2686860 134.5754520  28.1086050  84.0129240 139.0050110
  27.5088040  84.0721800 138.2614030  28.2379950  83.0734220 139.1346960
  29.3487500  81.7547060 124.3419820  28.5180460  81.8223710 124.8127050
  29.5259330  82.6451180 124.0386680  28.8043960  78.4994540 126.8454020
  29.5662870  79.0691190 126.9513710  28.8198330  77.9321740 127.6162330
  12.3048300  77.0232470 131.0761680  11.6497140  76.7544110 130.4321380
  13.1426250  76.9136950 130.6263660  29.8103930  79.3544640 131.6895950
  30.1812760  78.5711960 131.2831920  30.4505860  80.0433740 131.5113250
  26.7937690  80.7381220 137.1026270  25.9797530  81.1678380 137.3652060
  27.2011890  81.3499630 136.4895320  28.8563130  78.7928910 124.0026540
  29.1311970  79.7007790 123.8745760  28.6673870  78.7291440 124.9388530
  25.2538740  71.8173760 125.2980170  25.6723620  71.6304740 124.4576830
  24.9474800  70.9652810 125.6083100  28.7528470  76.7297900 128.9955970
  28.3772070  75.9625830 128.5637260  28.0231590  77.1120600 129.4830900
  13.3424230  77.4085040 135.6165020  13.7097270  77.3212440 136.4961040
  12.7735050  76.6451590 135.5171880  28.1428090  75.8769420 138.6295490
  27.9114180  75.6482170 137.7293440  28.4032640  76.7968970 138.5840380
  12.8940230  74.3194130 139.5223440  11.9996280  74.2860890 139.8617150
  13.4337780  74.5180920 140.2874690  26.5816160  71.1025850 141.4075190
  27.4586340  71.1109250 141.7909190  26.5937000  70.3656690 140.7967540
  11.5186380  74.2331400 127.0187010  10.6150460  74.4961600 126.8438670
  12.0027000  74.5042570 126.2386970  28.0279430  74.9555390 132.2963210
  28.5516910  74.4618040 131.6653380  28.6138850  75.0905750 133.0410780
  28.2069150  75.0395260 135.8182760  27.2571860  75.0058800 135.9327750
  28.3882160  75.9495370 135.5832530  14.0613590  73.2896940 124.9281390
  14.7705290  72.8680160 124.4428670  13.3453530  73.3572170 124.2964740
  13.7087750  69.3436270 123.9684040  14.4315880  69.8845210 124.2865260
  13.9812270  69.0699690 123.0925580  27.5179400  74.2128740 128.2355620
  28.0138520  73.9799610 129.0204500  27.3195470  73.3740580 127.8193260
  13.3979940  68.5942460 133.8706660  14.0456130  68.0439840 133.4301820
  13.8181780  68.8485610 134.6922470  28.9466560  72.8489690 130.7693300
  28.8365840  72.6945730 131.7075570  29.7074150  72.3210630 130.5268710
  27.2932280  68.7883820 137.2276300  27.9304500  69.4017960 137.5935490
  27.4407170  68.8244480 136.2825530  29.8356830  70.6797610 124.0099440
  30.7606140  70.5478790 123.8017730  29.8132620  70.7590430 124.9635890
  29.9095320  71.4508270 126.6356150  29.1146820  71.3853390 127.1649060
  30.1138600  72.3858910 126.6241500  26.8513740  85.4899820 130.6294540
  27.4472810  85.1684390 129.9528960  27.1091890  85.0171640 131.4207810
  13.1511940  68.7498130 136.6131980  12.8026760  69.2061950 137.3790160
  12.8199640  67.8555260 136.6954410  14.7576310  81.9217730 140.7785170
  14.7145940  81.5510640 141.6599630  14.8887320  82.8595300 140.9186990
  18.4582340  83.4777320 136.3794890  18.2173700  83.7451880 135.4925410
  19.3984980  83.6483050 136.4345750  20.6636760  69.9410010 140.1351400
  20.6025650  70.5331840 140.8846810  21.6037140  69.8335970 139.9901660
  23.3011320  69.5980070 139.7743690  23.9151730  69.9159360 139.1124770
  23.8460880  69.1128660 140.3939550  29.7186500  85.4971700 137.1805530
  29.2244780  85.8940570 136.4632660  29.1099790  84.8720910 137.5742810
  13.8232580  68.2774330 139.8882750  14.3715570  68.0962380 139.1248860
  13.8887890  67.4868440 140.4239060  14.5964340  84.8679980 137.8982950
  14.0024660  84.7364680 138.6372990  14.5888180  84.0318120 137.4325050
  24.0419360  68.1612210 136.1012980  23.1679200  68.4947320 135.8985910
  23.9330110  67.6885390 136.9264850  24.9491340  70.3683080 137.4854700
  24.6204700  69.5534840 137.1056430  25.8973640  70.3252890 137.3620390
  27.4025950  86.1395120 134.4592270  26.9428920  86.8910930 134.0850290
  26.7738410  85.4201590 134.4007070  14.2276570  82.2338360 136.8490990
  13.5010630  81.6143650 136.7816940  14.2885720  82.6278970 135.9789070
  17.8321670  84.4483360 133.6340400  18.3486690  83.8370720 133.1088660
  18.4819050  84.9512140 134.1251410  20.5717170  85.3391850 134.4609380
  20.8594980  85.0846150 133.5842390  21.0840390  84.7869210 135.0514950
  21.7894180  69.0782050 135.0405890  21.0065970  69.5527550 135.3202650
  21.4957110  68.1736880 134.9319070  26.3415250  69.7805150 133.0854980
  26.7823340  69.7250250 132.2376580  26.0722840  70.6963160 133.1565160
  28.2053820  69.4120390 131.0963800  28.1442220  68.4681610 130.9494820
  28.9845850  69.5200480 131.6417260  12.5106570  85.5512750 130.0587750
  12.3428610  84.9183430 130.7569640  11.6441080  85.7572150 129.7081940
  13.1334590  69.3829530 127.5619610  13.8913950  69.4958410 126.9883640
  12.6711760  70.2198730 127.5163040  19.6748400  71.4968800 130.5521920
  18.8622910  71.1225690 130.2117800  20.1790040  70.7413880 130.8543110
  24.1773380  68.1611250 131.7904990  24.7802750  68.7331460 132.2653510
  23.4366370  68.7250690 131.5678890  27.3207980  68.5632810 127.0645270
  27.5158610  69.4616260 127.3312700  26.5337850  68.3319890 127.5578220
  14.1169270  84.2445980 127.5037890  13.5916890  84.6254010 126.7999850
  14.0413850  84.8696750 128.2247600  15.5059740  69.9093580 126.1021580
  16.0352500  69.1223380 125.9729530  16.1388060  70.5884770 126.3357110
  17.6997580  69.6468720 129.1566970  17.0700320  68.9456030 129.3237100
  17.1602720  70.4072850 128.9400130  20.6389530  86.2607950 141.8277580
  21.5656840  86.0252220 141.8713540  20.6239960  87.0879950 141.3463610
  28.8734590  85.8033520 128.8251830  29.0486780  85.1171260 128.1812750
  28.1756160  86.3280570 128.4328500  17.8253140  68.9252700 141.5919460
  17.5437410  69.4286300 140.8280280  18.2072840  68.1274450 141.2261590
  16.7162240  86.1928360 126.3787140  17.4481060  85.9087640 125.8311030
  16.9755910  85.9541640 127.2686520  15.8777030  82.3093090 126.3833470
  15.2485910  82.7778190 126.9319300  15.9924860  81.4642310 126.8179660
  24.4268600  68.3406280 142.1699930  24.3134050  68.6600890 143.0651450
  25.2438340  68.7418790 141.8737210  27.2067090  85.4877810 141.6518620
  27.9992410  84.9927040 141.4444580  27.5000240  86.1667950 142.2594230
  21.4644790  78.1377770 114.4143940  20.6886890  77.6578210 114.7042510
  22.1157720  77.4583420 114.2400100  15.4810620  78.4497580 115.2919700
  14.6495500  78.1946290 115.6916210  16.0891600  78.5208350 116.0277620
  15.4611880  82.4837670 115.4877720  15.7639920  81.5935410 115.3087940
  16.2055470  83.0407890 115.2599970  13.8902570  73.4099470 109.0762090
  13.0019270  73.7515440 108.9741970  14.1743760  73.2099790 108.1842920
  11.8535580  76.0105120 114.9601790  12.4251690  75.2427320 114.9605430
  11.8537120  76.3093880 114.0508400  21.7115530  84.8295970 112.8147060
  21.0926970  85.2853470 112.2441500  22.5667310  84.9847430 112.4136760
  20.9053780  80.8134960 114.4214100  20.8362060  79.8724900 114.2603230
  21.6673640  80.9036370 114.9936670  13.0960450  71.4189480 116.7470720
  12.9163290  70.5215230 117.0273480  12.6940530  71.9661350 117.4217670
  21.9358950  73.6205340 114.6483030  22.3123770  72.7477220 114.5356700
  21.8378460  73.9564040 113.7573470  16.0663960  71.9930970 110.1100470
  16.1730710  72.8934700 110.4169230  15.1556320  71.9448940 109.8195120
  13.7147120  73.9149980 115.3553060  14.3957230  74.1788350 115.9740460
  13.3995170  73.0750850 115.6891070  17.9071690  74.9617340 114.4425650
  18.4149910  75.4598310 115.0830670  18.4384930  74.1852540 114.2665010
  30.0082620  73.1322530 118.1455000  29.3034790  73.5204240 117.6270110
  30.2740540  73.8272820 118.7475930  16.1907790  69.6015900 118.7089070
  16.1926230  70.1188290 117.9034970  15.3612100  69.1246080 118.6859000
  22.5778880  79.7135210 110.2078970  21.9596150  80.1784660 109.6441690
  23.0902130  80.4062690 110.6248480  17.4410640  79.2411080 116.8862570
  17.1080020  79.8680000 117.5283640  17.6177320  79.7672960 116.1064240
  15.8723120  71.3125860 116.7159520  16.2139930  72.1567910 116.4213390
  14.9338930  71.4609600 116.8324860  16.6529740  81.2091880 118.7011750
  17.2703740  81.8842960 118.4196200  15.7922860  81.6179860 118.6099250
  11.9462080  80.3991740 107.5818600  11.5690060  80.8878840 106.8503500
  12.2035150  81.0717020 108.2125130  27.5707330  82.6731290 116.6166390
  26.8870850  83.3430400 116.6083060  28.1101620  82.8711940 115.8511250
  29.0231470  72.5010950 114.7448120  28.0756380  72.5349930 114.8763550
  29.3481460  73.3149900 115.1297480  25.1066070  84.5175420 115.3311570
  25.1193230  84.1137710 114.4633830  24.5541290  85.2922710 115.2273000
  24.5051510  79.4205260 116.6594180  24.9220300  79.2065370 115.8247640
  25.2291330  79.6778050 117.2302800  28.4513610  77.8192480 116.7510420
  27.6232240  77.8885570 116.2760550  29.0464090  78.4046790 116.2826250
  25.9729060  78.4277260 110.2799480  25.3541480  78.0896810 109.6325780
  25.9553510  77.7837020 110.9878670  25.4155620  74.6061800 117.6965290
  25.0026800  75.4315510 117.9505280  24.6831570  74.0206840 117.5041650
  17.5488410  77.3921700 112.5583960  17.1445410  76.6798950 112.0629860
  17.6351530  77.0474940 113.4472000  18.0170110  81.0789260 114.7223170
  17.7198400  80.4734730 114.0430950  18.9669930  81.1166570 114.6112530
  16.2617030  74.1664910 116.3383000  16.8131620  74.2760250 115.5636250
  16.7760540  74.5402510 117.0538230  26.1055720  84.6521130 118.3846270
  25.6286280  85.4593320 118.1918880  25.4217510  83.9999460 118.5372480
  17.1088540  80.8170950 121.3730970  16.2117070  81.0410920 121.6204370
  17.1341410  80.9405890 120.4242370  15.9359760  77.6884270 119.9488340
  15.7967530  78.5607070 120.3175740  15.0541120  77.3457080 119.8036280
  17.7340110  83.6305970 122.1573490  17.7055540  84.0348920 121.2901920
  17.5705080  82.7016330 121.9945090  27.7310900  68.9206880 105.6013270
  27.4183560  69.0133710 106.5012340  28.4923370  69.4987910 105.5510700
  14.2493040  76.2866680 110.0590610  14.1290640  77.0128770 109.4471880
  13.9393930  75.5169590 109.5818520  29.6854930  84.4133070 123.4537660
  30.1614650  84.8915960 124.1326740  30.3062090  84.3450560 122.7283160
  11.8878410  79.4581820 115.8659250  11.9658830  79.5930590 114.9214970
  12.5020090  78.7497710 116.0587370  13.1326040  81.1582010 112.2765430
  12.7254120  81.2996600 111.4219030  14.0239050  80.8742170 112.0736640
  29.0888180  81.6045920 120.6137670  29.2151240  81.3657800 119.6954850
  29.1309560  80.7730460 121.0859750  22.9504920  85.3073920 119.1832480
  23.4649590  85.2181930 119.9854910  22.1074000  85.6533620 119.4760390
  17.4047700  85.3727790 110.3888100  17.2290180  84.4563330 110.1755900
  16.5503440  85.7315080 110.6285900  24.6285450  83.1016820 107.1714480
  23.9350610  83.0994110 106.5116760  25.3708310  82.6776140 106.7408650
  28.9412190  73.6578380 121.5787410  28.3256460  74.1658050 121.0502870
  28.6208610  72.7576710 121.5213350  11.9437930  80.4995990 118.4053710
  12.1068970  80.0301350 117.5873080  12.4090380  79.9919550 119.0702550
  16.7156700  69.6301750 113.4414280  16.2724850  70.4111290 113.1098800
  17.2741690  69.9531640 114.1485220  21.0026510  72.4970270 119.0449600
  20.5405880  72.7053290 119.8569540  20.6004620  71.6829620 118.7420270
  26.0031020  73.7179220 120.1746260  25.1524610  73.4184970 120.4955330
  25.8432810  73.9621230 119.2630080  23.0980730  75.2180970 122.2745050
  23.4234140  74.3844720 121.9347280  23.8861060  75.7409490 122.4223380
  18.7532600  70.1749080 115.3003880  19.0504930  71.0811910 115.2195900
  19.3018160  69.6867860 114.6863450  16.5070920  74.7535320 111.1695530
  16.2811840  74.5372490 112.0742150  15.7263450  75.1863780 110.8241500
  18.9470130  75.6520900 121.8355800  18.8513730  74.7115630 121.6856200
  19.7902110  75.8735970 121.4403870  14.0780670  72.0634570 119.9889580
  13.6844060  72.9109780 120.1962360  13.3899070  71.4260940 120.1798220
  20.6525720  72.1469540 123.0586320  19.9624040  71.9541740 123.6932410
  21.3958020  72.4304180 123.5910620  11.3797720  69.9863030 114.0219660
  11.0910770  70.5565890 114.7344640  12.1243480  69.5067480 114.3850890
  11.5667950  73.9283150 105.2322380  11.4842620  74.8713910 105.3737370
  11.2151010  73.7858060 104.3534730  22.9288690  75.9867980 115.8940240
  22.1969810  76.4954790 116.2430340  22.5313030  75.1697960 115.5929020
  19.3666080  72.6622180 114.2992730  19.3702140  72.2212130 113.4497270
  20.2617200  72.9839510 114.4064550  15.2168460  72.5448670 113.2586940
  14.8768510  73.0223900 114.0153990  14.4545780  72.0913790 112.8988040
  18.4407730  75.9735400 106.6882790  17.8724630  75.5253650 106.0618700
  19.1496730  76.3328180 106.1547940  26.8185350  68.8533840 121.1449560
  27.1431120  68.1223500 121.6707540  26.8541860  68.5347480 120.2430550
  13.5176910  79.8747420 120.5649520  13.1331700  79.2341090 121.1632480
  13.8289100  80.5783540 121.1344250  19.6674050  76.7223960 116.0458140
  20.0344180  76.2482530 116.7919480  19.4779110  77.5965530 116.3866480
  12.5314540  71.4667650 112.1751610  12.2461460  71.1023320 113.0130230
  12.4693400  70.7348110 111.5614750  17.4573420  75.7632600 118.3642350
  17.1530490  76.6424580 118.5892710  18.4119880  75.8232390 118.3999790
  15.9855210  79.9693590 108.9609200  15.2117470  79.4291210 108.8007920
  16.7149840  79.4500200 108.6226960  26.7443190  78.9658950 114.7535590
  27.4642310  79.4614240 114.3631700  26.5425010  78.2876840 114.1089460
  22.1261990  79.0368010 120.6404590  22.0599300  78.1163680 120.3862180
  21.4967130  79.1343450 121.3549230  16.0292610  79.6373970 112.5988010
  16.5471280  78.8342230 112.5444900  15.5776630  79.5753110 113.4404840
  20.9162110  80.9040250 107.8715310  21.2577810  81.6482480 107.3758630
  20.0874820  81.2171370 108.2340140  13.5137150  76.6035340 119.5113710
  13.1552090  77.2689190 120.0987050  13.2191710  75.7718890 119.8826330
  16.7150270  77.0619580 122.3953260  16.4150410  77.2076760 121.4981080
  17.4861510  76.5024870 122.3026650  22.0578720  81.8588580 120.3908390
  22.0723260  80.9269540 120.1727300  21.3503820  81.9448340 121.0298160
  27.1915790  76.0428400 106.6607000  27.1079510  76.4742620 105.8103440
  27.9109980  76.5026750 107.0933820  28.2689930  78.4995920 119.7376970
  27.5438120  79.0924700 119.5406360  28.7965390  78.4919460 118.9390340
  23.7989520  80.2256090 113.2360820  24.1513340  79.6284220 112.5762190
  22.9151850  79.9000320 113.4069070  19.8852800  80.9853780 110.6431230
  20.5723930  81.5322990 111.0238820  19.0985220  81.5294510 110.6780840
  12.0245200  76.6026600 106.1348310  12.8940050  76.8851400 106.4184230
  11.5335520  77.4162470 106.0197120  19.1880010  77.9899810 110.2556590
  19.6442790  78.8005060 110.4816780  18.8368220  77.6722950 111.0875080
  21.4912620  83.5006150 117.4848890  22.1354840  83.7065530 118.1622310
  21.8542060  82.7394550 117.0319740  15.0891790  68.3337460 110.7279110
  14.9606420  68.3255360 111.6764030  14.2653810  68.6720550 110.3770120
  22.7644700  81.5038500 116.2026340  23.4066930  80.8031660 116.3158510
  23.2894050  82.2836940 116.0223230  26.6100420  81.7887120 105.9265480
  26.3838000  81.0717560 106.5190120  26.2196620  81.5399560 105.0887230
  24.5382320  82.3033400 119.4062400  24.8738560  82.8900090 120.0840320
  23.6182660  82.1726110 119.6360190  12.3916450  85.8153980 106.7009940
  12.7514090  86.4143320 106.0467210  12.2508790  86.3613870 107.4744970
  12.0885720  70.0928580 120.1885810  11.3744240  70.2925500 120.7938420
  12.5080760  69.3168150 120.5600610  26.1916670  79.7059060 107.5879640
  25.9038370  80.1671750 108.3757520  26.9868840  79.2456830 107.8563860
  12.3758310  84.0808840 121.1752340  12.4849430  83.1403580 121.0347730
  11.7238870  84.3463590 120.5266070  20.3670900  82.3524730 122.5750460
  20.0467770  81.6333970 123.1196150  19.6929260  83.0279800 122.6486520
  18.4085070  83.1985180 107.5183610  18.3995170  83.9314870 106.9028120
  17.4883430  82.9516760 107.6110570  14.0091710  78.4200070 108.2630370
  13.4019660  79.1598970 108.2725670  14.4841060  78.5099430 107.4368570
  21.3944670  83.2613420 106.1808800  21.4956650  83.0577410 105.2510780
  20.4946410  83.0071700 106.3856580  20.5426490  75.2390480 118.1625230
  21.0411740  75.7136300 118.8277080  20.6849440  74.3154000 118.3695260
  20.0362780  85.7799740 110.8756470  20.2904280  85.7421130 109.9535840
  19.0875260  85.6533070 110.8684720  17.1205580  72.1278860 107.5383410
  17.9696110  72.5649010 107.4723600  16.7536850  72.4399120 108.3655470
  26.0415360  76.6991620 112.4514980  25.1005500  76.7141850 112.6262670
  26.3559430  75.9127580 112.8975280  16.0197000  78.3811220 106.0118940
  16.7860270  78.2692580 106.5744370  16.0971690  77.6849190 105.3595710
  14.7143760  75.8136290 106.6951830  14.7947350  74.8663800 106.8069230
  15.6063510  76.1443170 106.8012490  28.0440940  83.8700470 114.1269240
  28.1688360  84.6931640 114.5993050  28.9106500  83.6591200 113.7793390
  15.5158470  85.9631680 113.7986370  16.2520950  85.4147140 114.0694940
  15.8999390  86.8287690 113.6592360  12.4003950  82.0305250 109.6727880
  11.4743730  82.2726390 109.6633290  12.8660380  82.8579510 109.5512630
  14.5216750  85.1477750 122.9871950  15.3229480  85.4689800 123.4007350
  14.0068570  84.7873330 123.7091860  18.6260780  85.1361990 105.6211940
  19.4189390  85.4250820 105.1693730  18.1065130  84.7054160 104.9424420
  23.3581380  81.2557620 122.9347360  22.7519540  81.2789220 122.1943110
  23.0535490  80.5240660 123.4714610  24.7881750  84.9837910 121.5456770
  25.7403500  84.8995930 121.4957010  24.6409970  85.6479620 122.2190560
  12.2414560  77.6351210 121.9308000  12.7453580  77.0558490 122.5024230
  11.5021980  77.9191440 122.4684370  19.1438180  80.3565400 105.4854290
  19.0388820  79.7417750 106.2115670  18.9762400  79.8331290 104.7017300
  19.2952500  79.0422200 121.4643520  18.5298170  79.6107200 121.3798190
  19.4768460  78.7498410 120.5711750  22.3840910  79.4185430 106.0896280
  21.8351010  79.8654730 106.7339020  23.0060170  78.9134680 106.6133950
  26.4375850  80.7727530 122.0218540  27.1785320  81.1103290 121.5186000
  25.6748530  80.9419590 121.4688310  14.2737640  75.7780800 122.8258070
  14.3142980  75.4794670 123.7343300  15.1283140  76.1788410 122.6665590
  18.0516030  78.3776350 107.9861580  18.4732450  78.2116220 108.8292970
  18.1766870  77.5676580 107.4916720  16.2143450  74.3572900 120.7932560
  15.6839910  73.8663850 120.1655900  16.8831520  74.7857100 120.2590490
  20.5643670  77.4013960 105.2338680  21.0849330  76.6862980 104.8679830
  21.2112070  78.0399830 105.5339190  25.1121510  78.8242360 120.5573750
  25.5262530  78.9787440 121.4064170  24.1772510  78.9497580 120.7199530
  25.5843680  76.1638520 122.5612900  26.1664450  75.4090840 122.4733380
  25.7605450  76.6945960 121.7844380  16.7015750  71.3235270 120.8729850
  16.6072620  70.7056020 120.1480720  16.1213140  72.0501560 120.6459760
  19.4677190  69.8808510 117.9057240  19.0194490  69.9032770 117.0602790
  18.8342390  69.4827530 118.5027540  19.8736740  78.7762840 118.5269680
  20.2924850  79.6195570 118.3545920  18.9545370  78.9134880 118.2976460
  22.2100640  76.5079020 119.9107520  22.3296850  75.9120160 120.6502360
  23.0694640  76.5448710 119.4908820  24.5488540  77.0616210 118.4870030
  24.0223760  77.5858830 117.8835170  24.8919880  77.6943600 119.1179760
  16.9474930  74.4509580 104.9319740  16.7463990  73.5876940 105.2933080
  16.7766980  74.3642940 103.9941340  17.7244160  85.0815850 119.6427410
  17.1865250  85.8061910 119.3236110  17.9778120  84.6046190 118.8524750
  18.9769410  73.0500370 121.1683340  19.5669100  72.7416220 121.8561160
  18.1589650  72.5780120 121.3243240  23.7962840  72.6666180 121.4016360
  23.1078360  72.0047720 121.3366350  24.5168860  72.2204450 121.8464820
  15.7457730  71.5510200 104.9197620  16.0483630  71.5577630 104.0116770
  16.4852320  71.2008060 105.4165280  20.5806370  86.3167060 119.9014060
  20.5065070  87.2202200 120.2086430  19.6785210  85.9978960 119.8736130
  18.9642660  70.4944820 105.9053820  18.6164660  69.8168810 105.3256270
  19.1655430  70.0334330 106.7197210  21.1291700  85.4825570 107.5240420
  22.0242490  85.8210540 107.5459180  21.1609330  84.7604980 106.8964700
  14.7687860  80.8552620 105.7527420  15.2062730  81.3982290 106.4085000
  15.2535590  80.0299570 105.7623760  11.9833660  83.6441650 113.2047680
  12.3136670  82.7762710 112.9726320  12.4124660  83.8500170 114.0352640
  16.5795580  81.9750660 110.8649650  16.2791120  81.8515630 111.7653560
  16.4733070  81.1159250 110.4565380  12.4723870  84.5112240 115.9429310
  12.0354860  84.6913040 116.7753460  13.0401550  85.2686860 115.8011030
  28.1086050  84.0129240 120.2306620  27.5088040  84.0721800 119.4870540
  28.2379950  83.0734220 120.3603470  29.3487500  81.7547060 105.5676330
  28.5180460  81.8223710 106.0383560  29.5259330  82.6451180 105.2643190
  28.8043960  78.4994540 108.0710530  29.5662870  79.0691190 108.1770220
  28.8198330  77.9321740 108.8418840  12.3048300  77.0232470 112.3018190
  11.6497140  76.7544110 111.6577890  13.1426250  76.9136950 111.8520170
  29.8103930  79.3544640 112.9152460  30.1812760  78.5711960 112.5088430
  30.4505860  80.0433740 112.7369760  26.7937690  80.7381220 118.3282780
  25.9797530  81.1678380 118.5908570  27.2011890  81.3499630 117.7151830
  28.8563130  78.7928910 105.2283050  29.1311970  79.7007790 105.1002270
  28.6673870  78.7291440 106.1645040  28.7528470  76.7297900 110.2212480
  28.3772070  75.9625830 109.7893770  28.0231590  77.1120600 110.7087410
  13.3424230  77.4085040 116.8421530  13.7097270  77.3212440 117.7217550
  12.7735050  76.6451590 116.7428390  28.1428090  75.8769420 119.8552000
  27.9114180  75.6482170 118.9549950  28.4032640  76.7968970 119.8096890
  12.8940230  74.3194130 120.7479950  11.9996280  74.2860890 121.0873660
  13.4337780  74.5180920 121.5131200  26.5816160  71.1025850 122.6331700
  27.4586340  71.1109250 123.0165700  26.5937000  70.3656690 122.0224050
  11.5186380  74.2331400 108.2443520  10.6150460  74.4961600 108.0695180
  12.0027000  74.5042570 107.4643480  28.0279430  74.9555390 113.5219720
  28.5516910  74.4618040 112.8909890  28.6138850  75.0905750 114.2667290
  28.2069150  75.0395260 117.0439270  27.2571860  75.0058800 117.1584260
  28.3882160  75.9495370 116.8089040  14.0613590  73.2896940 106.1537900
  14.7705290  72.8680160 105.6685180  13.3453530  73.3572170 105.5221250
  13.7087750  69.3436270 105.1940550  14.4315880  69.8845210 105.5121770
  13.9812270  69.0699690 104.3182090  27.5179400  74.2128740 109.4612130
  28.0138520  73.9799610 110.2461010  27.3195470  73.3740580 109.0449770
  13.3979940  68.5942460 115.0963170  14.0456130  68.0439840 114.6558330
  13.8181780  68.8485610 115.9178980  29.8356830  70.6797610 105.2355950
  30.7606140  70.5478790 105.0274240  29.8132620  70.7590430 106.1892400
  13.1511940  68.7498130 117.8388490  12.8026760  69.2061950 118.6046670
  12.8199640  67.8555260 117.9210920  14.7576310  81.9217730 122.0041680
  14.7145940  81.5510640 122.8856140  14.8887320  82.8595300 122.1443500
  18.4582340  83.4777320 117.6051400  18.2173700  83.7451880 116.7181920
  19.3984980  83.6483050 117.6602260  20.6636760  69.9410010 121.3607910
  20.6025650  70.5331840 122.1103320  21.6037140  69.8335970 121.2158170
  23.3011320  69.5980070 121.0000200  23.9151730  69.9159360 120.3381280
  23.8460880  69.1128660 121.6196060  29.7186500  85.4971700 118.4062040
  29.2244780  85.8940570 117.6889170  29.1099790  84.8720910 118.7999320
  13.8232580  68.2774330 121.1139260  14.3715570  68.0962380 120.3505370
  13.8887890  67.4868440 121.6495570  14.5964340  84.8679980 119.1239460
  14.0024660  84.7364680 119.8629500  14.5888180  84.0318120 118.6581560
  27.4025950  86.1395120 115.6848780  26.9428920  86.8910930 115.3106800
  26.7738410  85.4201590 115.6263580  14.2276570  82.2338360 118.0747500
  13.5010630  81.6143650 118.0073450  14.2885720  82.6278970 117.2045580
  17.8321670  84.4483360 114.8596910  18.3486690  83.8370720 114.3345170
  18.4819050  84.9512140 115.3507920  20.5717170  85.3391850 115.6865890
  20.8594980  85.0846150 114.8098900  21.0840390  84.7869210 116.2771460
  12.5106570  85.5512750 111.2844260  12.3428610  84.9183430 111.9826150
  11.6441080  85.7572150 110.9338450  13.1334590  69.3829530 108.7876120
  13.8913950  69.4958410 108.2140150  12.6711760  70.2198730 108.7419550
  14.1169270  84.2445980 108.7294400  13.5916890  84.6254010 108.0256360
  14.0413850  84.8696750 109.4504110  15.5059740  69.9093580 107.3278090
  16.0352500  69.1223380 107.1986040  16.1388060  70.5884770 107.5613620
  20.6389530  86.2607950 123.0534090  21.5656840  86.0252220 123.0970050
  20.6239960  87.0879950 122.5720120  17.8253140  68.9252700 122.8175970
  17.5437410  69.4286300 122.0536790  18.2072840  68.1274450 122.4518100
  16.7162240  86.1928360 107.6043650  17.4481060  85.9087640 107.0567540
  16.9755910  85.9541640 108.4943030  15.8777030  82.3093090 107.6089980
  15.2485910  82.7778190 108.1575810  15.9924860  81.4642310 108.0436170
  24.4268600  68.3406280 123.3956440  24.3134050  68.6600890 124.2907960
  25.2438340  68.7418790 123.0993720  27.2067090  85.4877810 122.8775130
  27.9992410  84.9927040 122.6701090  27.5000240  86.1667950 123.4850740
  23.3326750  76.3598750  93.7591180  23.2520800  75.4453360  93.4882890
  22.9191170  76.8565820  93.0530890  15.4810620  78.4497580  96.5176210
  14.6495500  78.1946290  96.9172720  16.0891600  78.5208350  97.2534130
  25.4852220  82.5437960  94.4199580  25.0233750  81.7725200  94.7486750
  26.2977770  82.5704030  94.9252030  15.4611880  82.4837670  96.7134230
  15.7639920  81.5935410  96.5344450  16.2055470  83.0407890  96.4856480
  13.8902570  73.4099470  90.3018600  13.0019270  73.7515440  90.1998480
  14.1743760  73.2099790  89.4099430  11.8535580  76.0105120  96.1858300
  12.4251690  75.2427320  96.1861940  11.8537120  76.3093880  95.2764910
  21.7115530  84.8295970  94.0403570  21.0926970  85.2853470  93.4698010
  22.5667310  84.9847430  93.6393270  13.0960450  71.4189480  97.9727230
  12.9163290  70.5215230  98.2529990  12.6940530  71.9661350  98.6474180
  21.9358950  73.6205340  95.8739540  22.3123770  72.7477220  95.7613210
  21.8378460  73.9564040  94.9829980  16.0663960  71.9930970  91.3356980
  16.1730710  72.8934700  91.6425740  15.1556320  71.9448940  91.0451630
  13.7147120  73.9149980  96.5809570  14.3957230  74.1788350  97.1996970
  13.3995170  73.0750850  96.9147580  17.9071690  74.9617340  95.6682160
  18.4149910  75.4598310  96.3087180  18.4384930  74.1852540  95.4921520
  16.1907790  69.6015900  99.9345580  16.1926230  70.1188290  99.1291480
  15.3612100  69.1246080  99.9115510  17.4410640  79.2411080  98.1119080
  17.1080020  79.8680000  98.7540150  17.6177320  79.7672960  97.3320750
  15.8723120  71.3125860  97.9416030  16.2139930  72.1567910  97.6469900
  14.9338930  71.4609600  98.0581370  16.6529740  81.2091880  99.9268260
  17.2703740  81.8842960  99.6452710  15.7922860  81.6179860  99.8355760
  11.9462080  80.3991740  88.8075110  11.5690060  80.8878840  88.0760010
  12.2035150  81.0717020  89.4381640  27.5707330  82.6731290  97.8422900
  26.8870850  83.3430400  97.8339570  28.1101620  82.8711940  97.0767760
  19.5551010  68.8008130  94.2660620  19.8625990  68.2455020  93.5496120
  18.6251710  68.9352590  94.0833610  25.1066070  84.5175420  96.5568080
  25.1193230  84.1137710  95.6890340  24.5541290  85.2922710  96.4529510
  26.4011490  81.2391640  91.6458250  26.2907820  80.2965970  91.7707670
  26.3979740  81.6007280  92.5321010  28.4513610  77.8192480  97.9766930
  27.6232240  77.8885570  97.5017060  29.0464090  78.4046790  97.5082760
  25.4155620  74.6061800  98.9221800  25.0026800  75.4315510  99.1761790
  24.6831570  74.0206840  98.7298160  17.5488410  77.3921700  93.7840470
  17.1445410  76.6798950  93.2886370  17.6351530  77.0474940  94.6728510
  18.0170110  81.0789260  95.9479680  17.7198400  80.4734730  95.2687460
  18.9669930  81.1166570  95.8369040  16.2617030  74.1664910  97.5639510
  16.8131620  74.2760250  96.7892760  16.7760540  74.5402510  98.2794740
  26.1055720  84.6521130  99.6102780  25.6286280  85.4593320  99.4175390
  25.4217510  83.9999460  99.7628990  17.1088540  80.8170950 102.5987480
  16.2117070  81.0410920 102.8460880  17.1341410  80.9405890 101.6498880
  15.9359760  77.6884270 101.1744850  15.7967530  78.5607070 101.5432250
  15.0541120  77.3457080 101.0292790  22.2589140  82.6060140  92.4809980
  22.6985050  83.3484470  92.0665370  22.1976030  82.8486710  93.4048940
  17.7340110  83.6305970 103.3830000  17.7055540  84.0348920 102.5158430
  17.5705080  82.7016330 103.2201600  14.2493040  76.2866680  91.2847120
  14.1290640  77.0128770  90.6728390  13.9393930  75.5169590  90.8075030
  29.6854930  84.4133070 104.6794170  30.1614650  84.8915960 105.3583250
  30.3062090  84.3450560 103.9539670  11.8878410  79.4581820  97.0915760
  11.9658830  79.5930590  96.1471480  12.5020090  78.7497710  97.2843880
  13.1326040  81.1582010  93.5021940  12.7254120  81.2996600  92.6475540
  14.0239050  80.8742170  93.2993150  29.0888180  81.6045920 101.8394180
  29.2151240  81.3657800 100.9211360  29.1309560  80.7730460 102.3116260
  22.9504920  85.3073920 100.4088990  23.4649590  85.2181930 101.2111420
  22.1074000  85.6533620 100.7016900  24.9259320  85.5929260  89.8372990
  24.7660460  85.3032200  90.7354820  24.7606030  84.8169390  89.3018220
  17.4047700  85.3727790  91.6144610  17.2290180  84.4563330  91.4012410
  16.5503440  85.7315080  91.8542410  24.6285450  83.1016820  88.3970990
  23.9350610  83.0994110  87.7373270  25.3708310  82.6776140  87.9665160
  24.1935380  84.7279530  92.4719480  24.6492330  83.9468910  92.7858100
  24.5327900  85.4386350  93.0160660  28.9412190  73.6578380 102.8043920
  28.3256460  74.1658050 102.2759380  28.6208610  72.7576710 102.7469860
  11.9437930  80.4995990  99.6310220  12.1068970  80.0301350  98.8129590
  12.4090380  79.9919550 100.2959060  16.7156700  69.6301750  94.6670790
  16.2724850  70.4111290  94.3355310  17.2741690  69.9531640  95.3741730
  21.0026510  72.4970270 100.2706110  20.5405880  72.7053290 101.0826050
  20.6004620  71.6829620  99.9676780  26.0031020  73.7179220 101.4002770
  25.1524610  73.4184970 101.7211840  25.8432810  73.9621230 100.4886590
  19.8315520  69.2512450  89.5476620  19.2069700  69.2472320  90.2729930
  19.7445640  68.3843410  89.1512590  18.7532600  70.1749080  96.5260390
  19.0504930  71.0811910  96.4452410  19.3018160  69.6867860  95.9119960
  16.5070920  74.7535320  92.3952040  16.2811840  74.5372490  93.2998660
  15.7263450  75.1863780  92.0498010  18.9470130  75.6520900 103.0612310
  18.8513730  74.7115630 102.9112710  19.7902110  75.8735970 102.6660380
  22.3433550  73.3962230  93.0245970  22.7363120  73.7134430  92.2114660
  22.7050400  72.5174110  93.1390490  14.0780670  72.0634570 101.2146090
  13.6844060  72.9109780 101.4218870  13.3899070  71.4260940 101.4054730
  11.3797720  69.9863030  95.2476170  11.0910770  70.5565890  95.9601150
  12.1243480  69.5067480  95.6107400  11.5667950  73.9283150  86.4578890
  11.4842620  74.8713910  86.5993880  11.2151010  73.7858060  85.5791240
  19.3666080  72.6622180  95.5249240  19.3702140  72.2212130  94.6753780
  20.2617200  72.9839510  95.6321060  15.2168460  72.5448670  94.4843450
  14.8768510  73.0223900  95.2410500  14.4545780  72.0913790  94.1244550
  18.4407730  75.9735400  87.9139300  17.8724630  75.5253650  87.2875210
  19.1496730  76.3328180  87.3804450  26.8185350  68.8533840 102.3706070
  27.1431120  68.1223500 102.8964050  26.8541860  68.5347480 101.4687060
  13.5176910  79.8747420 101.7906030  13.1331700  79.2341090 102.3888990
  13.8289100  80.5783540 102.3600760  19.6674050  76.7223960  97.2714650
  20.0344180  76.2482530  98.0175990  19.4779110  77.5965530  97.6122990
  12.5314540  71.4667650  93.4008120  12.2461460  71.1023320  94.2386740
  12.4693400  70.7348110  92.7871260  17.4573420  75.7632600  99.5898860
  17.1530490  76.6424580  99.8149220  18.4119880  75.8232390  99.6256300
  15.9855210  79.9693590  90.1865710  15.2117470  79.4291210  90.0264430
  16.7149840  79.4500200  89.8483470  26.7443190  78.9658950  95.9792100
  27.4642310  79.4614240  95.5888210  26.5425010  78.2876840  95.3345970
  22.2053130  70.3596910  90.1221490  21.3917740  69.8610080  90.0466800
  22.0115080  71.1995160  89.7057840  16.0292610  79.6373970  93.8244520
  16.5471280  78.8342230  93.7701410  15.5776630  79.5753110  94.6661350
  20.9162110  80.9040250  89.0971820  21.2577810  81.6482480  88.6015140
  20.0874820  81.2171370  89.4596650  13.5137150  76.6035340 100.7370220
  13.1552090  77.2689190 101.3243560  13.2191710  75.7718890 101.1082840
  16.7150270  77.0619580 103.6209770  16.4150410  77.2076760 102.7237590
  17.4861510  76.5024870 103.5283160  28.2689930  78.4995920 100.9633480
  27.5438120  79.0924700 100.7662870  28.7965390  78.4919460 100.1646850
  28.2203040  82.8970660  90.6145640  27.5779200  82.2426280  90.8889360
  27.8333700  83.3025750  89.8386310  23.7989520  80.2256090  94.4617330
  24.1513340  79.6284220  93.8018700  22.9151850  79.9000320  94.6325580
  19.8852800  80.9853780  91.8687740  20.5723930  81.5322990  92.2495330
  19.0985220  81.5294510  91.9037350  12.0245200  76.6026600  87.3604820
  12.8940050  76.8851400  87.6440740  11.5335520  77.4162470  87.2453630
  19.1880010  77.9899810  91.4813100  19.6442790  78.8005060  91.7073290
  18.8368220  77.6722950  92.3131590  15.0891790  68.3337460  91.9535620
  14.9606420  68.3255360  92.9020540  14.2653810  68.6720550  91.6026630
  26.6100420  81.7887120  87.1521990  26.3838000  81.0717560  87.7446630
  26.2196620  81.5399560  86.3143740  12.3916450  85.8153980  87.9266450
  12.7514090  86.4143320  87.2723720  12.2508790  86.3613870  88.7001480
  12.0885720  70.0928580 101.4142320  11.3744240  70.2925500 102.0194930
  12.5080760  69.3168150 101.7857120  12.3758310  84.0808840 102.4008850
  12.4849430  83.1403580 102.2604240  11.7238870  84.3463590 101.7522580
  18.4085070  83.1985180  88.7440120  18.3995170  83.9314870  88.1284630
  17.4883430  82.9516760  88.8367080  14.0091710  78.4200070  89.4886880
  13.4019660  79.1598970  89.4982180  14.4841060  78.5099430  88.6625080
  23.5824500  72.5850890  99.1643770  23.9505320  71.7646100  99.4923340
  22.7222700  72.6452780  99.5799420  21.3944670  83.2613420  87.4065310
  21.4956650  83.0577410  86.4767290  20.4946410  83.0071700  87.6113090
  18.9170560  73.8193780  91.3889210  18.2086710  74.2880120  91.8302820
  19.2015040  73.1615790  92.0234400  20.5426490  75.2390480  99.3881740
  21.0411740  75.7136300 100.0533590  20.6849440  74.3154000  99.5951770
  22.9485990  70.5444440  92.8285000  22.8253770  70.5630570  91.8794510
  23.8970550  70.5923380  92.9483400  20.0362780  85.7799740  92.1012980
  20.2904280  85.7421130  91.1792350  19.0875260  85.6533070  92.0941230
  17.1205580  72.1278860  88.7639920  17.9696110  72.5649010  88.6980110
  16.7536850  72.4399120  89.5911980  27.7493350  71.4558440 100.2310130
  27.2466950  72.1963840 100.5703940  28.5650010  71.8442440  99.9146920
  16.0197000  78.3811220  87.2375450  16.7860270  78.2692580  87.8000880
  16.0971690  77.6849190  86.5852220  14.7143760  75.8136290  87.9208340
  14.7947350  74.8663800  88.0325740  15.6063510  76.1443170  88.0269000
  28.0440940  83.8700470  95.3525750  28.1688360  84.6931640  95.8249560
  28.9106500  83.6591200  95.0049900  15.5158470  85.9631680  95.0242880
  16.2520950  85.4147140  95.2951450  15.8999390  86.8287690  94.8848870
  12.4003950  82.0305250  90.8984390  11.4743730  82.2726390  90.8889800
  12.8660380  82.8579510  90.7769140  14.5216750  85.1477750 104.2128460
  15.3229480  85.4689800 104.6263860  14.0068570  84.7873330 104.9348370
  18.6260780  85.1361990  86.8468450  19.4189390  85.4250820  86.3950240
  18.1065130  84.7054160  86.1680930  24.7881750  84.9837910 102.7713280
  25.7403500  84.8995930 102.7213520  24.6409970  85.6479620 103.4447070
  12.2414560  77.6351210 103.1564510  12.7453580  77.0558490 103.7280740
  11.5021980  77.9191440 103.6940880  19.1438180  80.3565400  86.7110800
  19.0388820  79.7417750  87.4372180  18.9762400  79.8331290  85.9273810
  26.4375850  80.7727530 103.2475050  27.1785320  81.1103290 102.7442510
  25.6748530  80.9419590 102.6944820  14.2737640  75.7780800 104.0514580
  14.3142980  75.4794670 104.9599810  15.1283140  76.1788410 103.8922100
  18.0516030  78.3776350  89.2118090  18.4732450  78.2116220  90.0549480
  18.1766870  77.5676580  88.7173230  16.2143450  74.3572900 102.0189070
  15.6839910  73.8663850 101.3912410  16.8831520  74.7857100 101.4847000
  25.5843680  76.1638520 103.7869410  26.1664450  75.4090840 103.6989890
  25.7605450  76.6945960 103.0100890  16.7015750  71.3235270 102.0986360
  16.6072620  70.7056020 101.3737230  16.1213140  72.0501560 101.8716270
  19.4677190  69.8808510  99.1313750  19.0194490  69.9032770  98.2859300
  18.8342390  69.4827530  99.7284050  17.7244160  85.0815850 100.8683920
  17.1865250  85.8061910 100.5492620  17.9778120  84.6046190 100.0781260
  18.9769410  73.0500370 102.3939850  19.5669100  72.7416220 103.0817670
  18.1589650  72.5780120 102.5499750  23.7962840  72.6666180 102.6272870
  23.1078360  72.0047720 102.5622860  24.5168860  72.2204450 103.0721330
  20.5806370  86.3167060 101.1270570  20.5065070  87.2202200 101.4342940
  19.6785210  85.9978960 101.0992640  21.1291700  85.4825570  88.7496930
  22.0242490  85.8210540  88.7715690  21.1609330  84.7604980  88.1221210
  14.7687860  80.8552620  86.9783930  15.2062730  81.3982290  87.6341510
  15.2535590  80.0299570  86.9880270  11.9833660  83.6441650  94.4304190
  12.3136670  82.7762710  94.1982830  12.4124660  83.8500170  95.2609150
  16.5795580  81.9750660  92.0906160  16.2791120  81.8515630  92.9910070
  16.4733070  81.1159250  91.6821890  12.4723870  84.5112240  97.1685820
  12.0354860  84.6913040  98.0009970  13.0401550  85.2686860  97.0267540
  28.1086050  84.0129240 101.4563130  27.5088040  84.0721800 100.7127050
  28.2379950  83.0734220 101.5859980  12.3048300  77.0232470  93.5274700
  11.6497140  76.7544110  92.8834400  13.1426250  76.9136950  93.0776680
  29.8103930  79.3544640  94.1408970  30.1812760  78.5711960  93.7344940
  30.4505860  80.0433740  93.9626270  26.7937690  80.7381220  99.5539290
  25.9797530  81.1678380  99.8165080  27.2011890  81.3499630  98.9408340
  13.3424230  77.4085040  98.0678040  13.7097270  77.3212440  98.9474060
  12.7735050  76.6451590  97.9684900  28.1428090  75.8769420 101.0808510
  27.9114180  75.6482170 100.1806460  28.4032640  76.7968970 101.0353400
  12.8940230  74.3194130 101.9736460  11.9996280  74.2860890 102.3130170
  13.4337780  74.5180920 102.7387710  26.5816160  71.1025850 103.8588210
  27.4586340  71.1109250 104.2422210  26.5937000  70.3656690 103.2480560
  11.5186380  74.2331400  89.4700030  10.6150460  74.4961600  89.2951690
  12.0027000  74.5042570  88.6899990  28.2069150  75.0395260  98.2695780
  27.2571860  75.0058800  98.3840770  28.3882160  75.9495370  98.0345550
  14.0613590  73.2896940  87.3794410  14.7705290  72.8680160  86.8941690
  13.3453530  73.3572170  86.7477760  13.7087750  69.3436270  86.4197060
  14.4315880  69.8845210  86.7378280  13.9812270  69.0699690  85.5438600
  13.3979940  68.5942460  96.3219680  14.0456130  68.0439840  95.8814840
  13.8181780  68.8485610  97.1435490  27.2932280  68.7883820  99.6789320
  27.9304500  69.4017960 100.0448510  27.4407170  68.8244480  98.7338550
  26.8513740  85.4899820  93.0807560  27.4472810  85.1684390  92.4041980
  27.1091890  85.0171640  93.8720830  13.1511940  68.7498130  99.0645000
  12.8026760  69.2061950  99.8303180  12.8199640  67.8555260  99.1467430
  14.7576310  81.9217730 103.2298190  14.7145940  81.5510640 104.1112650
  14.8887320  82.8595300 103.3700010  20.6636760  69.9410010 102.5864420
  20.6025650  70.5331840 103.3359830  21.6037140  69.8335970 102.4414680
  23.3011320  69.5980070 102.2256710  23.9151730  69.9159360 101.5637790
  23.8460880  69.1128660 102.8452570  13.8232580  68.2774330 102.3395770
  14.3715570  68.0962380 101.5761880  13.8887890  67.4868440 102.8752080
  14.5964340  84.8679980 100.3495970  14.0024660  84.7364680 101.0886010
  14.5888180  84.0318120  99.8838070  24.0419360  68.1612210  98.5526000
  23.1679200  68.4947320  98.3498930  23.9330110  67.6885390  99.3777870
  24.9491340  70.3683080  99.9367720  24.6204700  69.5534840  99.5569450
  25.8973640  70.3252890  99.8133410  14.2276570  82.2338360  99.3004010
  13.5010630  81.6143650  99.2329960  14.2885720  82.6278970  98.4302090
  17.8321670  84.4483360  96.0853420  18.3486690  83.8370720  95.5601680
  18.4819050  84.9512140  96.5764430  20.5717170  85.3391850  96.9122400
  20.8594980  85.0846150  96.0355410  21.0840390  84.7869210  97.5027970
  21.7894180  69.0782050  97.4918910  21.0065970  69.5527550  97.7715670
  21.4957110  68.1736880  97.3832090  12.5106570  85.5512750  92.5100770
  12.3428610  84.9183430  93.2082660  11.6441080  85.7572150  92.1594960
  13.1334590  69.3829530  90.0132630  13.8913950  69.4958410  89.4396660
  12.6711760  70.2198730  89.9676060  19.6748400  71.4968800  93.0034940
  18.8622910  71.1225690  92.6630820  20.1790040  70.7413880  93.3056130
  14.1169270  84.2445980  89.9550910  13.5916890  84.6254010  89.2512870
  14.0413850  84.8696750  90.6760620  15.5059740  69.9093580  88.5534600
  16.0352500  69.1223380  88.4242550  16.1388060  70.5884770  88.7870130
  17.6997580  69.6468720  91.6079990  17.0700320  68.9456030  91.7750120
  17.1602720  70.4072850  91.3913150  20.6389530  86.2607950 104.2790600
  21.5656840  86.0252220 104.3226560  20.6239960  87.0879950 103.7976630
  28.8734590  85.8033520  91.2764850  29.0486780  85.1171260  90.6325770
  28.1756160  86.3280570  90.8841520  17.8253140  68.9252700 104.0432480
  17.5437410  69.4286300 103.2793300  18.2072840  68.1274450 103.6774610
  16.7162240  86.1928360  88.8300160  17.4481060  85.9087640  88.2824050
  16.9755910  85.9541640  89.7199540  15.8777030  82.3093090  88.8346490
  15.2485910  82.7778190  89.3832320  15.9924860  81.4642310  89.2692680
  27.2067090  85.4877810 104.1031640  27.9992410  84.9927040 103.8957600
  27.5000240  86.1667950 104.7107250  21.4644790  78.1377770  76.8656960
  20.6886890  77.6578210  77.1555530  22.1157720  77.4583420  76.6913120
  13.8902570  73.4099470  71.5275110  13.0019270  73.7515440  71.4254990
  14.1743760  73.2099790  70.6355940  21.7115530  84.8295970  75.2660080
  21.0926970  85.2853470  74.6954520  22.5667310  84.9847430  74.8649780
  20.9053780  80.8134960  76.8727120  20.8362060  79.8724900  76.7116250
  21.6673640  80.9036370  77.4449690  13.0960450  71.4189480  79.1983740
  12.9163290  70.5215230  79.4786500  12.6940530  71.9661350  79.8730690
  16.0663960  71.9930970  72.5613490  16.1730710  72.8934700  72.8682250
  15.1556320  71.9448940  72.2708140  17.9071690  74.9617340  76.8938670
  18.4149910  75.4598310  77.5343690  18.4384930  74.1852540  76.7178030
  30.0082620  73.1322530  80.5968020  29.3034790  73.5204240  80.0783130
  30.2740540  73.8272820  81.1988950  15.8723120  71.3125860  79.1672540
  16.2139930  72.1567910  78.8726410  14.9338930  71.4609600  79.2837880
  16.6529740  81.2091880  81.1524770  17.2703740  81.8842960  80.8709220
  15.7922860  81.6179860  81.0612270  11.9462080  80.3991740  70.0331620
  11.5690060  80.8878840  69.3016520  12.2035150  81.0717020  70.6638150
  19.5551010  68.8008130  75.4917130  19.8625990  68.2455020  74.7752630
  18.6251710  68.9352590  75.3090120  25.1066070  84.5175420  77.7824590
  25.1193230  84.1137710  76.9146850  24.5541290  85.2922710  77.6786020
  25.4155620  74.6061800  80.1478310  25.0026800  75.4315510  80.4018300
  24.6831570  74.0206840  79.9554670  17.5488410  77.3921700  75.0096980
  17.1445410  76.6798950  74.5142880  17.6351530  77.0474940  75.8985020
  16.2617030  74.1664910  78.7896020  16.8131620  74.2760250  78.0149270
  16.7760540  74.5402510  79.5051250  26.1055720  84.6521130  80.8359290
  25.6286280  85.4593320  80.6431900  25.4217510  83.9999460  80.9885500
  17.1088540  80.8170950  83.8243990  16.2117070  81.0410920  84.0717390
  17.1341410  80.9405890  82.8755390  17.7340110  83.6305970  84.6086510
  17.7055540  84.0348920  83.7414940  17.5705080  82.7016330  84.4458110
  14.2493040  76.2866680  72.5103630  14.1290640  77.0128770  71.8984900
  13.9393930  75.5169590  72.0331540  29.0888180  81.6045920  83.0650690
  29.2151240  81.3657800  82.1467870  29.1309560  80.7730460  83.5372770
  22.9504920  85.3073920  81.6345500  23.4649590  85.2181930  82.4367930
  22.1074000  85.6533620  81.9273410  17.4047700  85.3727790  72.8401120
  17.2290180  84.4563330  72.6268920  16.5503440  85.7315080  73.0798920
  24.1935380  84.7279530  73.6975990  24.6492330  83.9468910  74.0114610
  24.5327900  85.4386350  74.2417170  28.9412190  73.6578380  84.0300430
  28.3256460  74.1658050  83.5015890  28.6208610  72.7576710  83.9726370
  11.9437930  80.4995990  80.8566730  12.1068970  80.0301350  80.0386100
  12.4090380  79.9919550  81.5215570  16.7156700  69.6301750  75.8927300
  16.2724850  70.4111290  75.5611820  17.2741690  69.9531640  76.5998240
  26.0031020  73.7179220  82.6259280  25.1524610  73.4184970  82.9468350
  25.8432810  73.9621230  81.7143100  19.8315520  69.2512450  70.7733130
  19.2069700  69.2472320  71.4986440  19.7445640  68.3843410  70.3769100
  18.7532600  70.1749080  77.7516900  19.0504930  71.0811910  77.6708920
  19.3018160  69.6867860  77.1376470  16.5070920  74.7535320  73.6208550
  16.2811840  74.5372490  74.5255170  15.7263450  75.1863780  73.2754520
  14.0780670  72.0634570  82.4402600  13.6844060  72.9109780  82.6475380
  13.3899070  71.4260940  82.6311240  11.3797720  69.9863030  76.4732680
  11.0910770  70.5565890  77.1857660  12.1243480  69.5067480  76.8363910
  11.5667950  73.9283150  67.6835400  11.4842620  74.8713910  67.8250390
  11.2151010  73.7858060  66.8047750  22.9288690  75.9867980  78.3453260
  22.1969810  76.4954790  78.6943360  22.5313030  75.1697960  78.0442040
  19.3666080  72.6622180  76.7505750  19.3702140  72.2212130  75.9010290
  20.2617200  72.9839510  76.8577570  15.2168460  72.5448670  75.7099960
  14.8768510  73.0223900  76.4667010  14.4545780  72.0913790  75.3501060
  13.5176910  79.8747420  83.0162540  13.1331700  79.2341090  83.6145500
  13.8289100  80.5783540  83.5857270  19.6674050  76.7223960  78.4971160
  20.0344180  76.2482530  79.2432500  19.4779110  77.5965530  78.8379500
  12.5314540  71.4667650  74.6264630  12.2461460  71.1023320  75.4643250
  12.4693400  70.7348110  74.0127770  15.9855210  79.9693590  71.4122220
  15.2117470  79.4291210  71.2520940  16.7149840  79.4500200  71.0739980
  22.2053130  70.3596910  71.3478000  21.3917740  69.8610080  71.2723310
  22.0115080  71.1995160  70.9314350  22.1261990  79.0368010  83.0917610
  22.0599300  78.1163680  82.8375200  21.4967130  79.1343450  83.8062250
  22.0578720  81.8588580  82.8421410  22.0723260  80.9269540  82.6240320
  21.3503820  81.9448340  83.4811180  27.1915790  76.0428400  69.1120020
  27.1079510  76.4742620  68.2616460  27.9109980  76.5026750  69.5446840
  28.2689930  78.4995920  82.1889990  27.5438120  79.0924700  81.9919380
  28.7965390  78.4919460  81.3903360  12.0245200  76.6026600  68.5861330
  12.8940050  76.8851400  68.8697250  11.5335520  77.4162470  68.4710140
  21.4912620  83.5006150  79.9361910  22.1354840  83.7065530  80.6135330
  21.8542060  82.7394550  79.4832760  15.0891790  68.3337460  73.1792130
  14.9606420  68.3255360  74.1277050  14.2653810  68.6720550  72.8283140
  22.7644700  81.5038500  78.6539360  23.4066930  80.8031660  78.7671530
  23.2894050  82.2836940  78.4736250  24.5382320  82.3033400  81.8575420
  24.8738560  82.8900090  82.5353340  23.6182660  82.1726110  82.0873210
  12.3916450  85.8153980  69.1522960  12.7514090  86.4143320  68.4980230
  12.2508790  86.3613870  69.9257990  12.0885720  70.0928580  82.6398830
  11.3744240  70.2925500  83.2451440  12.5080760  69.3168150  83.0113630
  12.3758310  84.0808840  83.6265360  12.4849430  83.1403580  83.4860750
  11.7238870  84.3463590  82.9779090  20.3670900  82.3524730  85.0263480
  20.0467770  81.6333970  85.5709170  19.6929260  83.0279800  85.0999540
  14.0091710  78.4200070  70.7143390  13.4019660  79.1598970  70.7238690
  14.4841060  78.5099430  69.8881590  26.9486530  71.5407830  71.1987840
  26.3199690  71.6453500  70.4846070  26.4538450  71.7604610  71.9881720
  22.9485990  70.5444440  74.0541510  22.8253770  70.5630570  73.1051020
  23.8970550  70.5923380  74.1739910  20.0362780  85.7799740  73.3269490
  20.2904280  85.7421130  72.4048860  19.0875260  85.6533070  73.3197740
  17.1205580  72.1278860  69.9896430  17.9696110  72.5649010  69.9236620
  16.7536850  72.4399120  70.8168490  16.0197000  78.3811220  68.4631960
  16.7860270  78.2692580  69.0257390  16.0971690  77.6849190  67.8108730
  14.7143760  75.8136290  69.1464850  14.7947350  74.8663800  69.2582250
  15.6063510  76.1443170  69.2525510  15.5158470  85.9631680  76.2499390
  16.2520950  85.4147140  76.5207960  15.8999390  86.8287690  76.1105380
  12.4003950  82.0305250  72.1240900  11.4743730  82.2726390  72.1146310
  12.8660380  82.8579510  72.0025650  14.5216750  85.1477750  85.4384970
  15.3229480  85.4689800  85.8520370  14.0068570  84.7873330  86.1604880
  18.6260780  85.1361990  68.0724960  19.4189390  85.4250820  67.6206750
  18.1065130  84.7054160  67.3937440  23.3581380  81.2557620  85.3860380
  22.7519540  81.2789220  84.6456130  23.0535490  80.5240660  85.9227630
  24.7881750  84.9837910  83.9969790  25.7403500  84.8995930  83.9470030
  24.6409970  85.6479620  84.6703580  12.2414560  77.6351210  84.3821020
  12.7453580  77.0558490  84.9537250  11.5021980  77.9191440  84.9197390
  19.2952500  79.0422200  83.9156540  18.5298170  79.6107200  83.8311210
  19.4768460  78.7498410  83.0224770  26.4375850  80.7727530  84.4731560
  27.1785320  81.1103290  83.9699020  25.6748530  80.9419590  83.9201330
  14.2737640  75.7780800  85.2771090  14.3142980  75.4794670  86.1856320
  15.1283140  76.1788410  85.1178610  18.0516030  78.3776350  70.4374600
  18.4732450  78.2116220  71.2805990  18.1766870  77.5676580  69.9429740
  25.1121510  78.8242360  83.0086770  25.5262530  78.9787440  83.8577190
  24.1772510  78.9497580  83.1712550  19.4677190  69.8808510  80.3570260
  19.0194490  69.9032770  79.5115810  18.8342390  69.4827530  80.9540560
  19.8736740  78.7762840  80.9782700  20.2924850  79.6195570  80.8058940
  18.9545370  78.9134880  80.7489480  24.5488540  77.0616210  80.9383050
  24.0223760  77.5858830  80.3348190  24.8919880  77.6943600  81.5692780
  16.9474930  74.4509580  67.3832760  16.7463990  73.5876940  67.7446100
  16.7766980  74.3642940  66.4454360  17.7244160  85.0815850  82.0940430
  17.1865250  85.8061910  81.7749130  17.9778120  84.6046190  81.3037770
  24.4263240  69.2617810  69.9119640  24.7065530  68.4185710  70.2679060
  23.6528970  69.4940920  70.4258390  15.7457730  71.5510200  67.3710640
  16.0483630  71.5577630  66.4629790  16.4852320  71.2008060  67.8678300
  20.5806370  86.3167060  82.3527080  20.5065070  87.2202200  82.6599450
  19.6785210  85.9978960  82.3249150  18.9642660  70.4944820  68.3566840
  18.6164660  69.8168810  67.7769290  19.1655430  70.0334330  69.1710230
  21.1291700  85.4825570  69.9753440  22.0242490  85.8210540  69.9972200
  21.1609330  84.7604980  69.3477720  14.7687860  80.8552620  68.2040440
  15.2062730  81.3982290  68.8598020  15.2535590  80.0299570  68.2136780
  11.9833660  83.6441650  75.6560700  12.3136670  82.7762710  75.4239340
  12.4124660  83.8500170  76.4865660  16.5795580  81.9750660  73.3162670
  16.2791120  81.8515630  74.2166580  16.4733070  81.1159250  72.9078400
  12.4723870  84.5112240  78.3942330  12.0354860  84.6913040  79.2266480
  13.0401550  85.2686860  78.2524050  28.8043960  78.4994540  70.5223550
  29.5662870  79.0691190  70.6283240  28.8198330  77.9321740  71.2931860
  28.8563130  78.7928910  67.6796070  29.1311970  79.7007790  67.5515290
  28.6673870  78.7291440  68.6158060  25.2538740  71.8173760  68.9749700
  25.6723620  71.6304740  68.1346360  24.9474800  70.9652810  69.2852630
  28.1428090  75.8769420  82.3065020  27.9114180  75.6482170  81.4062970
  28.4032640  76.7968970  82.2609910  12.8940230  74.3194130  83.1992970
  11.9996280  74.2860890  83.5386680  13.4337780  74.5180920  83.9644220
  26.5816160  71.1025850  85.0844720  27.4586340  71.1109250  85.4678720
  26.5937000  70.3656690  84.4737070  11.5186380  74.2331400  70.6956540
  10.6150460  74.4961600  70.5208200  12.0027000  74.5042570  69.9156500
  14.0613590  73.2896940  68.6050920  14.7705290  72.8680160  68.1198200
  13.3453530  73.3572170  67.9734270  13.7087750  69.3436270  67.6453570
  14.4315880  69.8845210  67.9634790  13.9812270  69.0699690  66.7695110
  27.5179400  74.2128740  71.9125150  28.0138520  73.9799610  72.6974030
  27.3195470  73.3740580  71.4962790  28.9466560  72.8489690  74.4462830
  28.8365840  72.6945730  75.3845100  29.7074150  72.3210630  74.2038240
  29.9095320  71.4508270  70.3125680  29.1146820  71.3853390  70.8418590
  30.1138600  72.3858910  70.3011030  26.8513740  85.4899820  74.3064070
  27.4472810  85.1684390  73.6298490  27.1091890  85.0171640  75.0977340
  14.7576310  81.9217730  84.4554700  14.7145940  81.5510640  85.3369160
  14.8887320  82.8595300  84.5956520  18.4582340  83.4777320  80.0564420
  18.2173700  83.7451880  79.1694940  19.3984980  83.6483050  80.1115280
  23.3011320  69.5980070  83.4513220  23.9151730  69.9159360  82.7894300
  23.8460880  69.1128660  84.0709080  13.8232580  68.2774330  83.5652280
  14.3715570  68.0962380  82.8018390  13.8887890  67.4868440  84.1008590
  14.5964340  84.8679980  81.5752480  14.0024660  84.7364680  82.3142520
  14.5888180  84.0318120  81.1094580  27.4025950  86.1395120  78.1361800
  26.9428920  86.8910930  77.7619820  26.7738410  85.4201590  78.0776600
  17.8321670  84.4483360  77.3109930  18.3486690  83.8370720  76.7858190
  18.4819050  84.9512140  77.8020940  20.5717170  85.3391850  78.1378910
  20.8594980  85.0846150  77.2611920  21.0840390  84.7869210  78.7284480
  21.7894180  69.0782050  78.7175420  21.0065970  69.5527550  78.9972180
  21.4957110  68.1736880  78.6088600  12.5106570  85.5512750  73.7357280
  12.3428610  84.9183430  74.4339170  11.6441080  85.7572150  73.3851470
  13.1334590  69.3829530  71.2389140  13.8913950  69.4958410  70.6653170
  12.6711760  70.2198730  71.1932570  19.6748400  71.4968800  74.2291450
  18.8622910  71.1225690  73.8887330  20.1790040  70.7413880  74.5312640
  27.3207980  68.5632810  70.7414800  27.5158610  69.4616260  71.0082230
  26.5337850  68.3319890  71.2347750  14.1169270  84.2445980  71.1807420
  13.5916890  84.6254010  70.4769380  14.0413850  84.8696750  71.9017130
  15.5059740  69.9093580  69.7791110  16.0352500  69.1223380  69.6499060
  16.1388060  70.5884770  70.0126640  17.6997580  69.6468720  72.8336500
  17.0700320  68.9456030  73.0006630  17.1602720  70.4072850  72.6169660
  20.6389530  86.2607950  85.5047110  21.5656840  86.0252220  85.5483070
  20.6239960  87.0879950  85.0233140  17.8253140  68.9252700  85.2688990
  17.5437410  69.4286300  84.5049810  18.2072840  68.1274450  84.9031120
  16.7162240  86.1928360  70.0556670  17.4481060  85.9087640  69.5080560
  16.9755910  85.9541640  70.9456050  15.8777030  82.3093090  70.0603000
  15.2485910  82.7778190  70.6088830  15.9924860  81.4642310  70.4949190
  23.3326750  76.3598750  56.2104200  23.2520800  75.4453360  55.9395910
  22.9191170  76.8565820  55.5043910  21.4644790  78.1377770  58.0913470
  20.6886890  77.6578210  58.3812040  22.1157720  77.4583420  57.9169630
  15.4810620  78.4497580  58.9689230  14.6495500  78.1946290  59.3685740
  16.0891600  78.5208350  59.7047150  15.4611880  82.4837670  59.1647250
  15.7639920  81.5935410  58.9857470  16.2055470  83.0407890  58.9369500
  13.8902570  73.4099470  52.7531620  13.0019270  73.7515440  52.6511500
  14.1743760  73.2099790  51.8612450  11.8535580  76.0105120  58.6371320
  12.4251690  75.2427320  58.6374960  11.8537120  76.3093880  57.7277930
  21.7115530  84.8295970  56.4916590  21.0926970  85.2853470  55.9211030
  22.5667310  84.9847430  56.0906290  20.9053780  80.8134960  58.0983630
  20.8362060  79.8724900  57.9372760  21.6673640  80.9036370  58.6706200
  13.0960450  71.4189480  60.4240250  12.9163290  70.5215230  60.7043010
  12.6940530  71.9661350  61.0987200  21.9358950  73.6205340  58.3252560
  22.3123770  72.7477220  58.2126230  21.8378460  73.9564040  57.4343000
  16.0663960  71.9930970  53.7870000  16.1730710  72.8934700  54.0938760
  15.1556320  71.9448940  53.4964650  25.7183070  71.1155780  55.2580900
  26.5392690  70.6252350  55.3006380  25.7517150  71.7053440  56.0112740
  13.7147120  73.9149980  59.0322590  14.3957230  74.1788350  59.6509990
  13.3995170  73.0750850  59.3660600  17.9071690  74.9617340  58.1195180
  18.4149910  75.4598310  58.7600200  18.4384930  74.1852540  57.9434540
  30.0082620  73.1322530  61.8224530  29.3034790  73.5204240  61.3039640
  30.2740540  73.8272820  62.4245460  16.1907790  69.6015900  62.3858600
  16.1926230  70.1188290  61.5804500  15.3612100  69.1246080  62.3628530
  22.5778880  79.7135210  53.8848500  21.9596150  80.1784660  53.3211220
  23.0902130  80.4062690  54.3018010  17.4410640  79.2411080  60.5632100
  17.1080020  79.8680000  61.2053170  17.6177320  79.7672960  59.7833770
  25.9544550  73.0556160  58.0308440  25.2500120  73.3441050  58.6111550
  26.3156710  73.8656270  57.6708000  15.8723120  71.3125860  60.3929050
  16.2139930  72.1567910  60.0982920  14.9338930  71.4609600  60.5094390
  16.6529740  81.2091880  62.3781280  17.2703740  81.8842960  62.0965730
  15.7922860  81.6179860  62.2868780  11.9462080  80.3991740  51.2588130
  11.5690060  80.8878840  50.5273030  12.2035150  81.0717020  51.8894660
  29.0231470  72.5010950  58.4217650  28.0756380  72.5349930  58.5533080
  29.3481460  73.3149900  58.8067010  19.5551010  68.8008130  56.7173640
  19.8625990  68.2455020  56.0009140  18.6251710  68.9352590  56.5346630
  26.4011490  81.2391640  54.0971270  26.2907820  80.2965970  54.2220690
  26.3979740  81.6007280  54.9834030  21.9431770  76.8656960  53.4533760
  21.0161050  76.7994340  53.6822230  22.0956590  77.8037090  53.3389000
  21.9300850  73.1373960  50.4500920  20.9904520  73.2987920  50.5353380
  22.2484110  73.8559640  49.9036910  28.4513610  77.8192480  60.4279950
  27.6232240  77.8885570  59.9530080  29.0464090  78.4046790  59.9595780
  25.9729060  78.4277260  53.9569010  25.3541480  78.0896810  53.3095310
  25.9553510  77.7837020  54.6648200  25.4155620  74.6061800  61.3734820
  25.0026800  75.4315510  61.6274810  24.6831570  74.0206840  61.1811180
  17.5488410  77.3921700  56.2353490  17.1445410  76.6798950  55.7399390
  17.6351530  77.0474940  57.1241530  18.0170110  81.0789260  58.3992700
  17.7198400  80.4734730  57.7200480  18.9669930  81.1166570  58.2882060
  16.2617030  74.1664910  60.0152530  16.8131620  74.2760250  59.2405780
  16.7760540  74.5402510  60.7307760  17.1088540  80.8170950  65.0500500
  16.2117070  81.0410920  65.2973900  17.1341410  80.9405890  64.1011900
  24.1493760  77.6664070  50.9641760  24.5887040  76.8286500  50.8179580
  24.8622180  78.2993470  51.0505900  15.9359760  77.6884270  63.6257870
  15.7967530  78.5607070  63.9945270  15.0541120  77.3457080  63.4805810
  22.2589140  82.6060140  54.9323000  22.6985050  83.3484470  54.5178390
  22.1976030  82.8486710  55.8561960  17.7340110  83.6305970  65.8343020
  17.7055540  84.0348920  64.9671450  17.5705080  82.7016330  65.6714620
  27.7310900  68.9206880  49.2782800  27.4183560  69.0133710  50.1781870
  28.4923370  69.4987910  49.2280230  14.2493040  76.2866680  53.7360140
  14.1290640  77.0128770  53.1241410  13.9393930  75.5169590  53.2588050
  11.8878410  79.4581820  59.5428780  11.9658830  79.5930590  58.5984500
  12.5020090  78.7497710  59.7356900  13.1326040  81.1582010  55.9534960
  12.7254120  81.2996600  55.0988560  14.0239050  80.8742170  55.7506170
  24.9259320  85.5929260  52.2886010  24.7660460  85.3032200  53.1867840
  24.7606030  84.8169390  51.7531240  17.4047700  85.3727790  54.0657630
  17.2290180  84.4563330  53.8525430  16.5503440  85.7315080  54.3055430
  24.6285450  83.1016820  50.8484010  23.9350610  83.0994110  50.1886290
  25.3708310  82.6776140  50.4178180  24.1935380  84.7279530  54.9232500
  24.6492330  83.9468910  55.2371120  24.5327900  85.4386350  55.4673680
  28.9412190  73.6578380  65.2556940  28.3256460  74.1658050  64.7272400
  28.6208610  72.7576710  65.1982880  11.9437930  80.4995990  62.0823240
  12.1068970  80.0301350  61.2642610  12.4090380  79.9919550  62.7472080
  16.7156700  69.6301750  57.1183810  16.2724850  70.4111290  56.7868330
  17.2741690  69.9531640  57.8254750  21.0026510  72.4970270  62.7219130
  20.5405880  72.7053290  63.5339070  20.6004620  71.6829620  62.4189800
  26.0031020  73.7179220  63.8515790  25.1524610  73.4184970  64.1724860
  25.8432810  73.9621230  62.9399610  23.0980730  75.2180970  65.9514580
  23.4234140  74.3844720  65.6116810  23.8861060  75.7409490  66.0992910
  18.7532600  70.1749080  58.9773410  19.0504930  71.0811910  58.8965430
  19.3018160  69.6867860  58.3632980  16.5070920  74.7535320  54.8465060
  16.2811840  74.5372490  55.7511680  15.7263450  75.1863780  54.5011030
  23.7368680  74.7598690  53.4455710  23.1377570  75.4834490  53.2619330
  24.2848290  74.6975470  52.6632160  18.9470130  75.6520900  65.5125330
  18.8513730  74.7115630  65.3625730  19.7902110  75.8735970  65.1173400
  22.3433550  73.3962230  55.4758990  22.7363120  73.7134430  54.6627680
  22.7050400  72.5174110  55.5903510  14.0780670  72.0634570  63.6659110
  13.6844060  72.9109780  63.8731890  13.3899070  71.4260940  63.8567750
  20.6525720  72.1469540  66.7355850  19.9624040  71.9541740  67.3701940
  21.3958020  72.4304180  67.2680150  11.3797720  69.9863030  57.6989190
  11.0910770  70.5565890  58.4114170  12.1243480  69.5067480  58.0620420
  11.5667950  73.9283150  48.9091910  11.4842620  74.8713910  49.0506900
  11.2151010  73.7858060  48.0304260  22.9288690  75.9867980  59.5709770
  22.1969810  76.4954790  59.9199870  22.5313030  75.1697960  59.2698550
  19.3666080  72.6622180  57.9762260  19.3702140  72.2212130  57.1266800
  20.2617200  72.9839510  58.0834080  15.2168460  72.5448670  56.9356470
  14.8768510  73.0223900  57.6923520  14.4545780  72.0913790  56.5757570
  19.4286230  73.6634260  50.9669020  19.5499050  73.6220740  51.9154840
  19.0434740  74.5258410  50.8115750  23.3914600  71.4401660  58.9832710
  23.4087340  71.8910310  59.8274560  23.1430180  70.5407300  59.1966150
  18.4407730  75.9735400  50.3652320  17.8724630  75.5253650  49.7388230
  19.1496730  76.3328180  49.8317470  13.5176910  79.8747420  64.2419050
  13.1331700  79.2341090  64.8402010  13.8289100  80.5783540  64.8113780
  19.6674050  76.7223960  59.7227670  20.0344180  76.2482530  60.4689010
  19.4779110  77.5965530  60.0636010  12.5314540  71.4667650  55.8521140
  12.2461460  71.1023320  56.6899760  12.4693400  70.7348110  55.2384280
  17.4573420  75.7632600  62.0411880  17.1530490  76.6424580  62.2662240
  18.4119880  75.8232390  62.0769320  15.9855210  79.9693590  52.6378730
  15.2117470  79.4291210  52.4777450  16.7149840  79.4500200  52.2996490
  24.9201520  74.7316560  50.8696670  25.8081140  75.0433790  50.6948010
  24.8906610  73.8588810  50.4777250  16.0292610  79.6373970  56.2757540
  16.5471280  78.8342230  56.2214430  15.5776630  79.5753110  57.1174370
  20.9162110  80.9040250  51.5484840  21.2577810  81.6482480  51.0528160
  20.0874820  81.2171370  51.9109670  13.5137150  76.6035340  63.1883240
  13.1552090  77.2689190  63.7756580  13.2191710  75.7718890  63.5595860
  16.7150270  77.0619580  66.0722790  16.4150410  77.2076760  65.1750610
  17.4861510  76.5024870  65.9796180  27.1915790  76.0428400  50.3376530
  27.1079510  76.4742620  49.4872970  27.9109980  76.5026750  50.7703350
  28.2203040  82.8970660  53.0658660  27.5779200  82.2426280  53.3402380
  27.8333700  83.3025750  52.2899330  23.7989520  80.2256090  56.9130350
  24.1513340  79.6284220  56.2531720  22.9151850  79.9000320  57.0838600
  19.8852800  80.9853780  54.3200760  20.5723930  81.5322990  54.7008350
  19.0985220  81.5294510  54.3550370  12.0245200  76.6026600  49.8117840
  12.8940050  76.8851400  50.0953760  11.5335520  77.4162470  49.6966650
  19.1880010  77.9899810  53.9326120  19.6442790  78.8005060  54.1586310
  18.8368220  77.6722950  54.7644610  15.0891790  68.3337460  54.4048640
  14.9606420  68.3255360  55.3533560  14.2653810  68.6720550  54.0539650
  26.6100420  81.7887120  49.6035010  26.3838000  81.0717560  50.1959650
  26.2196620  81.5399560  48.7656760  12.3916450  85.8153980  50.3779470
  12.7514090  86.4143320  49.7236740  12.2508790  86.3613870  51.1514500
  12.0885720  70.0928580  63.8655340  11.3744240  70.2925500  64.4707950
  12.5080760  69.3168150  64.2370140  26.1916670  79.7059060  51.2649170
  25.9038370  80.1671750  52.0527050  26.9868840  79.2456830  51.5333390
  12.3758310  84.0808840  64.8521870  12.4849430  83.1403580  64.7117260
  11.7238870  84.3463590  64.2035600  18.4085070  83.1985180  51.1953140
  18.3995170  83.9314870  50.5797650  17.4883430  82.9516760  51.2880100
  14.0091710  78.4200070  51.9399900  13.4019660  79.1598970  51.9495200
  14.4841060  78.5099430  51.1138100  23.5824500  72.5850890  61.6156790
  23.9505320  71.7646100  61.9436360  22.7222700  72.6452780  62.0312440
  26.9486530  71.5407830  52.4244350  26.3199690  71.6453500  51.7102580
  26.4538450  71.7604610  53.2138230  21.3944670  83.2613420  49.8578330
  21.4956650  83.0577410  48.9280310  20.4946410  83.0071700  50.0626110
  18.9170560  73.8193780  53.8402230  18.2086710  74.2880120  54.2815840
  19.2015040  73.1615790  54.4747420  20.5426490  75.2390480  61.8394760
  21.0411740  75.7136300  62.5046610  20.6849440  74.3154000  62.0464790
  22.9485990  70.5444440  55.2798020  22.8253770  70.5630570  54.3307530
  23.8970550  70.5923380  55.3996420  20.0362780  85.7799740  54.5526000
  20.2904280  85.7421130  53.6305370  19.0875260  85.6533070  54.5454250
  17.1205580  72.1278860  51.2152940  17.9696110  72.5649010  51.1493130
  16.7536850  72.4399120  52.0425000  27.7493350  71.4558440  62.6823150
  27.2466950  72.1963840  63.0216960  28.5650010  71.8442440  62.3659940
  26.0415360  76.6991620  56.1284510  25.1005500  76.7141850  56.3032200
  26.3559430  75.9127580  56.5744810  16.0197000  78.3811220  49.6888470
  16.7860270  78.2692580  50.2513900  16.0971690  77.6849190  49.0365240
  14.7143760  75.8136290  50.3721360  14.7947350  74.8663800  50.4838760
  15.6063510  76.1443170  50.4782020  15.5158470  85.9631680  57.4755900
  16.2520950  85.4147140  57.7464470  15.8999390  86.8287690  57.3361890
  12.4003950  82.0305250  53.3497410  11.4743730  82.2726390  53.3402820
  12.8660380  82.8579510  53.2282160  14.5216750  85.1477750  66.6641480
  15.3229480  85.4689800  67.0776880  14.0068570  84.7873330  67.3861390
  18.6260780  85.1361990  49.2981470  19.4189390  85.4250820  48.8463260
  18.1065130  84.7054160  48.6193950  27.6790950  84.3632120  50.7218210
  27.3932460  83.9497260  49.9072390  27.4810500  85.2919830  50.6018730
  12.2414560  77.6351210  65.6077530  12.7453580  77.0558490  66.1793760
  11.5021980  77.9191440  66.1453900  19.1438180  80.3565400  49.1623820
  19.0388820  79.7417750  49.8885200  18.9762400  79.8331290  48.3786830
  19.2952500  79.0422200  65.1413050  18.5298170  79.6107200  65.0567720
  19.4768460  78.7498410  64.2481280  22.3840910  79.4185430  49.7665810
  21.8351010  79.8654730  50.4108550  23.0060170  78.9134680  50.2903480
  14.2737640  75.7780800  66.5027600  14.3142980  75.4794670  67.4112830
  15.1283140  76.1788410  66.3435120  18.0516030  78.3776350  51.6631110
  18.4732450  78.2116220  52.5062500  18.1766870  77.5676580  51.1686250
  16.2143450  74.3572900  64.4702090  15.6839910  73.8663850  63.8425430
  16.8831520  74.7857100  63.9360020  20.5643670  77.4013960  48.9108210
  21.0849330  76.6862980  48.5449360  21.2112070  78.0399830  49.2108720
  25.5843680  76.1638520  66.2382430  26.1664450  75.4090840  66.1502910
  25.7605450  76.6945960  65.4613910  16.7015750  71.3235270  64.5499380
  16.6072620  70.7056020  63.8250250  16.1213140  72.0501560  64.3229290
  19.4677190  69.8808510  61.5826770  19.0194490  69.9032770  60.7372320
  18.8342390  69.4827530  62.1797070  19.8736740  78.7762840  62.2039210
  20.2924850  79.6195570  62.0315450  18.9545370  78.9134880  61.9745990
  22.2100640  76.5079020  63.5877050  22.3296850  75.9120160  64.3271890
  23.0694640  76.5448710  63.1678350  24.5488540  77.0616210  62.1639560
  24.0223760  77.5858830  61.5604700  24.8919880  77.6943600  62.7949290
  16.9474930  74.4509580  48.6089270  16.7463990  73.5876940  48.9702610
  16.7766980  74.3642940  47.6710870  18.9769410  73.0500370  64.8452870
  19.5669100  72.7416220  65.5330690  18.1589650  72.5780120  65.0012770
  23.7962840  72.6666180  65.0785890  23.1078360  72.0047720  65.0135880
  24.5168860  72.2204450  65.5234350  15.7457730  71.5510200  48.5967150
  16.0483630  71.5577630  47.6886300  16.4852320  71.2008060  49.0934810
  20.5806370  86.3167060  63.5783590  20.5065070  87.2202200  63.8855960
  19.6785210  85.9978960  63.5505660  21.1291700  85.4825570  51.2009950
  22.0242490  85.8210540  51.2228710  21.1609330  84.7604980  50.5734230
  14.7687860  80.8552620  49.4296950  15.2062730  81.3982290  50.0854530
  15.2535590  80.0299570  49.4393290  11.9833660  83.6441650  56.8817210
  12.3136670  82.7762710  56.6495850  12.4124660  83.8500170  57.7122170
  16.5795580  81.9750660  54.5419180  16.2791120  81.8515630  55.4423090
  16.4733070  81.1159250  54.1334910  12.4723870  84.5112240  59.6198840
  12.0354860  84.6913040  60.4522990  13.0401550  85.2686860  59.4780560
  28.8043960  78.4994540  51.7480060  29.5662870  79.0691190  51.8539750
  28.8198330  77.9321740  52.5188370  12.3048300  77.0232470  55.9787720
  11.6497140  76.7544110  55.3347420  13.1426250  76.9136950  55.5289700
  29.8103930  79.3544640  56.5921990  30.1812760  78.5711960  56.1857960
  30.4505860  80.0433740  56.4139290  28.7528470  76.7297900  53.8982010
  28.3772070  75.9625830  53.4663300  28.0231590  77.1120600  54.3856940
  13.3424230  77.4085040  60.5191060  13.7097270  77.3212440  61.3987080
  12.7735050  76.6451590  60.4197920  28.1428090  75.8769420  63.5321530
  27.9114180  75.6482170  62.6319480  28.4032640  76.7968970  63.4866420
  12.8940230  74.3194130  64.4249480  11.9996280  74.2860890  64.7643190
  13.4337780  74.5180920  65.1900730  26.5816160  71.1025850  66.3101230
  27.4586340  71.1109250  66.6935230  26.5937000  70.3656690  65.6993580
  11.5186380  74.2331400  51.9213050  10.6150460  74.4961600  51.7464710
  12.0027000  74.5042570  51.1413010  28.0279430  74.9555390  57.1989250
  28.5516910  74.4618040  56.5679420  28.6138850  75.0905750  57.9436820
  28.2069150  75.0395260  60.7208800  27.2571860  75.0058800  60.8353790
  28.3882160  75.9495370  60.4858570  14.0613590  73.2896940  49.8307430
  14.7705290  72.8680160  49.3454710  13.3453530  73.3572170  49.1990780
  13.7087750  69.3436270  48.8710080  14.4315880  69.8845210  49.1891300
  13.9812270  69.0699690  47.9951620  27.5179400  74.2128740  53.1381660
  28.0138520  73.9799610  53.9230540  27.3195470  73.3740580  52.7219300
  13.3979940  68.5942460  58.7732700  14.0456130  68.0439840  58.3327860
  13.8181780  68.8485610  59.5948510  28.9466560  72.8489690  55.6719340
  28.8365840  72.6945730  56.6101610  29.7074150  72.3210630  55.4294750
  27.2932280  68.7883820  62.1302340  27.9304500  69.4017960  62.4961530
  27.4407170  68.8244480  61.1851570  29.8356830  70.6797610  48.9125480
  30.7606140  70.5478790  48.7043770  29.8132620  70.7590430  49.8661930
  29.9095320  71.4508270  51.5382190  29.1146820  71.3853390  52.0675100
  30.1138600  72.3858910  51.5267540  13.1511940  68.7498130  61.5158020
  12.8026760  69.2061950  62.2816200  12.8199640  67.8555260  61.5980450
  14.7576310  81.9217730  65.6811210  14.7145940  81.5510640  66.5625670
  14.8887320  82.8595300  65.8213030  18.4582340  83.4777320  61.2820930
  18.2173700  83.7451880  60.3951450  19.3984980  83.6483050  61.3371790
  20.6636760  69.9410010  65.0377440  20.6025650  70.5331840  65.7872850
  21.6037140  69.8335970  64.8927700  23.3011320  69.5980070  64.6769730
  23.9151730  69.9159360  64.0150810  23.8460880  69.1128660  65.2965590
  13.8232580  68.2774330  64.7908790  14.3715570  68.0962380  64.0274900
  13.8887890  67.4868440  65.3265100  24.0419360  68.1612210  61.0039020
  23.1679200  68.4947320  60.8011950  23.9330110  67.6885390  61.8290890
  24.9491340  70.3683080  62.3880740  24.6204700  69.5534840  62.0082470
  25.8973640  70.3252890  62.2646430  14.2276570  82.2338360  61.7517030
  13.5010630  81.6143650  61.6842980  14.2885720  82.6278970  60.8815110
  17.8321670  84.4483360  58.5366440  18.3486690  83.8370720  58.0114700
  18.4819050  84.9512140  59.0277450  21.7894180  69.0782050  59.9431930
  21.0065970  69.5527550  60.2228690  21.4957110  68.1736880  59.8345110
  26.3415250  69.7805150  57.9881020  26.7823340  69.7250250  57.1402620
  26.0722840  70.6963160  58.0591200  28.2053820  69.4120390  55.9989840
  28.1442220  68.4681610  55.8520860  28.9845850  69.5200480  56.5443300
  12.5106570  85.5512750  54.9613790  12.3428610  84.9183430  55.6595680
  11.6441080  85.7572150  54.6107980  13.1334590  69.3829530  52.4645650
  13.8913950  69.4958410  51.8909680  12.6711760  70.2198730  52.4189080
  19.6748400  71.4968800  55.4547960  18.8622910  71.1225690  55.1143840
  20.1790040  70.7413880  55.7569150  14.1169270  84.2445980  52.4063930
  13.5916890  84.6254010  51.7025890  14.0413850  84.8696750  53.1273640
  15.5059740  69.9093580  51.0047620  16.0352500  69.1223380  50.8755570
  16.1388060  70.5884770  51.2383150  17.6997580  69.6468720  54.0593010
  17.0700320  68.9456030  54.2263140  17.1602720  70.4072850  53.8426170
  20.6389530  86.2607950  66.7303620  21.5656840  86.0252220  66.7739580
  20.6239960  87.0879950  66.2489650  28.8734590  85.8033520  53.7277870
  29.0486780  85.1171260  53.0838790  28.1756160  86.3280570  53.3354540
  17.8253140  68.9252700  66.4945500  17.5437410  69.4286300  65.7306320
  18.2072840  68.1274450  66.1287630  16.7162240  86.1928360  51.2813180
  17.4481060  85.9087640  50.7337070  16.9755910  85.9541640  52.1712560
  15.8777030  82.3093090  51.2859510  15.2485910  82.7778190  51.8345340
  15.9924860  81.4642310  51.7205700  24.4268600  68.3406280  67.0725970
  24.3134050  68.6600890  67.9677490  25.2438340  68.7418790  66.7763250
  23.3326750  76.3598750  37.4360710  23.2520800  75.4453360  37.1652420
  22.9191170  76.8565820  36.7300420  21.4644790  78.1377770  39.3169980
  20.6886890  77.6578210  39.6068550  22.1157720  77.4583420  39.1426140
  15.4810620  78.4497580  40.1945740  14.6495500  78.1946290  40.5942250
  16.0891600  78.5208350  40.9303660  25.4852220  82.5437960  38.0969110
  25.0233750  81.7725200  38.4256280  26.2977770  82.5704030  38.6021560
  15.4611880  82.4837670  40.3903760  15.7639920  81.5935410  40.2113980
  16.2055470  83.0407890  40.1626010  13.8902570  73.4099470  33.9788130
  13.0019270  73.7515440  33.8768010  14.1743760  73.2099790  33.0868960
  11.8535580  76.0105120  39.8627830  12.4251690  75.2427320  39.8631470
  11.8537120  76.3093880  38.9534440  21.7115530  84.8295970  37.7173100
  21.0926970  85.2853470  37.1467540  22.5667310  84.9847430  37.3162800
  20.9053780  80.8134960  39.3240140  20.8362060  79.8724900  39.1629270
  21.6673640  80.9036370  39.8962710  13.0960450  71.4189480  41.6496760
  12.9163290  70.5215230  41.9299520  12.6940530  71.9661350  42.3243710
  21.9358950  73.6205340  39.5509070  22.3123770  72.7477220  39.4382740
  21.8378460  73.9564040  38.6599510  16.0663960  71.9930970  35.0126510
  16.1730710  72.8934700  35.3195270  15.1556320  71.9448940  34.7221160
  25.7183070  71.1155780  36.4837410  26.5392690  70.6252350  36.5262890
  25.7517150  71.7053440  37.2369250  13.7147120  73.9149980  40.2579100
  14.3957230  74.1788350  40.8766500  13.3995170  73.0750850  40.5917110
  17.9071690  74.9617340  39.3451690  18.4149910  75.4598310  39.9856710
  18.4384930  74.1852540  39.1691050  16.1907790  69.6015900  43.6115110
  16.1926230  70.1188290  42.8061010  15.3612100  69.1246080  43.5885040
  22.5778880  79.7135210  35.1105010  21.9596150  80.1784660  34.5467730
  23.0902130  80.4062690  35.5274520  17.4410640  79.2411080  41.7888610
  17.1080020  79.8680000  42.4309680  17.6177320  79.7672960  41.0090280
  25.9544550  73.0556160  39.2564950  25.2500120  73.3441050  39.8368060
  26.3156710  73.8656270  38.8964510  15.8723120  71.3125860  41.6185560
  16.2139930  72.1567910  41.3239430  14.9338930  71.4609600  41.7350900
  16.6529740  81.2091880  43.6037790  17.2703740  81.8842960  43.3222240
  15.7922860  81.6179860  43.5125290  11.9462080  80.3991740  32.4844640
  11.5690060  80.8878840  31.7529540  12.2035150  81.0717020  33.1151170
  27.5707330  82.6731290  41.5192430  26.8870850  83.3430400  41.5109100
  28.1101620  82.8711940  40.7537290  29.0231470  72.5010950  39.6474160
  28.0756380  72.5349930  39.7789590  29.3481460  73.3149900  40.0323520
  19.5551010  68.8008130  37.9430150  19.8625990  68.2455020  37.2265650
  18.6251710  68.9352590  37.7603140  25.1066070  84.5175420  40.2337610
  25.1193230  84.1137710  39.3659870  24.5541290  85.2922710  40.1299040
  26.4011490  81.2391640  35.3227780  26.2907820  80.2965970  35.4477200
  26.3979740  81.6007280  36.2090540  24.5051510  79.4205260  41.5620220
  24.9220300  79.2065370  40.7273680  25.2291330  79.6778050  42.1328840
  21.9431770  76.8656960  34.6790270  21.0161050  76.7994340  34.9078740
  22.0956590  77.8037090  34.5645510  21.9300850  73.1373960  31.6757430
  20.9904520  73.2987920  31.7609890  22.2484110  73.8559640  31.1293420
  25.9729060  78.4277260  35.1825520  25.3541480  78.0896810  34.5351820
  25.9553510  77.7837020  35.8904710  25.4155620  74.6061800  42.5991330
  25.0026800  75.4315510  42.8531320  24.6831570  74.0206840  42.4067690
  17.5488410  77.3921700  37.4610000  17.1445410  76.6798950  36.9655900
  17.6351530  77.0474940  38.3498040  18.0170110  81.0789260  39.6249210
  17.7198400  80.4734730  38.9456990  18.9669930  81.1166570  39.5138570
  16.2617030  74.1664910  41.2409040  16.8131620  74.2760250  40.4662290
  16.7760540  74.5402510  41.9564270  26.1055720  84.6521130  43.2872310
  25.6286280  85.4593320  43.0944920  25.4217510  83.9999460  43.4398520
  17.1088540  80.8170950  46.2757010  16.2117070  81.0410920  46.5230410
  17.1341410  80.9405890  45.3268410  24.1493760  77.6664070  32.1898270
  24.5887040  76.8286500  32.0436090  24.8622180  78.2993470  32.2762410
  15.9359760  77.6884270  44.8514380  15.7967530  78.5607070  45.2201780
  15.0541120  77.3457080  44.7062320  22.2589140  82.6060140  36.1579510
  22.6985050  83.3484470  35.7434900  22.1976030  82.8486710  37.0818470
  17.7340110  83.6305970  47.0599530  17.7055540  84.0348920  46.1927960
  17.5705080  82.7016330  46.8971130  27.7310900  68.9206880  30.5039310
  27.4183560  69.0133710  31.4038380  28.4923370  69.4987910  30.4536740
  14.2493040  76.2866680  34.9616650  14.1290640  77.0128770  34.3497920
  13.9393930  75.5169590  34.4844560  11.8878410  79.4581820  40.7685290
  11.9658830  79.5930590  39.8241010  12.5020090  78.7497710  40.9613410
  13.1326040  81.1582010  37.1791470  12.7254120  81.2996600  36.3245070
  14.0239050  80.8742170  36.9762680  22.9504920  85.3073920  44.0858520
  23.4649590  85.2181930  44.8880950  22.1074000  85.6533620  44.3786430
  24.9259320  85.5929260  33.5142520  24.7660460  85.3032200  34.4124350
  24.7606030  84.8169390  32.9787750  17.4047700  85.3727790  35.2914140
  17.2290180  84.4563330  35.0781940  16.5503440  85.7315080  35.5311940
  24.6285450  83.1016820  32.0740520  23.9350610  83.0994110  31.4142800
  25.3708310  82.6776140  31.6434690  24.1935380  84.7279530  36.1489010
  24.6492330  83.9468910  36.4627630  24.5327900  85.4386350  36.6930190
  11.9437930  80.4995990  43.3079750  12.1068970  80.0301350  42.4899120
  12.4090380  79.9919550  43.9728590  16.7156700  69.6301750  38.3440320
  16.2724850  70.4111290  38.0124840  17.2741690  69.9531640  39.0511260
  21.0026510  72.4970270  43.9475640  20.5405880  72.7053290  44.7595580
  20.6004620  71.6829620  43.6446310  26.0031020  73.7179220  45.0772300
  25.1524610  73.4184970  45.3981370  25.8432810  73.9621230  44.1656120
  23.0980730  75.2180970  47.1771090  23.4234140  74.3844720  46.8373320
  23.8861060  75.7409490  47.3249420  19.8315520  69.2512450  33.2246150
  19.2069700  69.2472320  33.9499460  19.7445640  68.3843410  32.8282120
  18.7532600  70.1749080  40.2029920  19.0504930  71.0811910  40.1221940
  19.3018160  69.6867860  39.5889490  16.5070920  74.7535320  36.0721570
  16.2811840  74.5372490  36.9768190  15.7263450  75.1863780  35.7267540
  23.7368680  74.7598690  34.6712220  23.1377570  75.4834490  34.4875840
  24.2848290  74.6975470  33.8888670  18.9470130  75.6520900  46.7381840
  18.8513730  74.7115630  46.5882240  19.7902110  75.8735970  46.3429910
  22.3433550  73.3962230  36.7015500  22.7363120  73.7134430  35.8884190
  22.7050400  72.5174110  36.8160020  14.0780670  72.0634570  44.8915620
  13.6844060  72.9109780  45.0988400  13.3899070  71.4260940  45.0824260
  11.3797720  69.9863030  38.9245700  11.0910770  70.5565890  39.6370680
  12.1243480  69.5067480  39.2876930  11.5667950  73.9283150  30.1348420
  11.4842620  74.8713910  30.2763410  11.2151010  73.7858060  29.2560770
  22.9288690  75.9867980  40.7966280  22.1969810  76.4954790  41.1456380
  22.5313030  75.1697960  40.4955060  19.3666080  72.6622180  39.2018770
  19.3702140  72.2212130  38.3523310  20.2617200  72.9839510  39.3090590
  15.2168460  72.5448670  38.1612980  14.8768510  73.0223900  38.9180030
  14.4545780  72.0913790  37.8014080  19.4286230  73.6634260  32.1925530
  19.5499050  73.6220740  33.1411350  19.0434740  74.5258410  32.0372260
  23.3914600  71.4401660  40.2089220  23.4087340  71.8910310  41.0531070
  23.1430180  70.5407300  40.4222660  18.4407730  75.9735400  31.5908830
  17.8724630  75.5253650  30.9644740  19.1496730  76.3328180  31.0573980
  13.5176910  79.8747420  45.4675560  13.1331700  79.2341090  46.0658520
  13.8289100  80.5783540  46.0370290  19.6674050  76.7223960  40.9484180
  20.0344180  76.2482530  41.6945520  19.4779110  77.5965530  41.2892520
  12.5314540  71.4667650  37.0777650  12.2461460  71.1023320  37.9156270
  12.4693400  70.7348110  36.4640790  17.4573420  75.7632600  43.2668390
  17.1530490  76.6424580  43.4918750  18.4119880  75.8232390  43.3025830
  15.9855210  79.9693590  33.8635240  15.2117470  79.4291210  33.7033960
  16.7149840  79.4500200  33.5253000  26.7443190  78.9658950  39.6561630
  27.4642310  79.4614240  39.2657740  26.5425010  78.2876840  39.0115500
  22.2053130  70.3596910  33.7991020  21.3917740  69.8610080  33.7236330
  22.0115080  71.1995160  33.3827370  22.1261990  79.0368010  45.5430630
  22.0599300  78.1163680  45.2888220  21.4967130  79.1343450  46.2575270
  24.9201520  74.7316560  32.0953180  25.8081140  75.0433790  31.9204520
  24.8906610  73.8588810  31.7033760  16.0292610  79.6373970  37.5014050
  16.5471280  78.8342230  37.4470940  15.5776630  79.5753110  38.3430880
  20.9162110  80.9040250  32.7741350  21.2577810  81.6482480  32.2784670
  20.0874820  81.2171370  33.1366180  13.5137150  76.6035340  44.4139750
  13.1552090  77.2689190  45.0013090  13.2191710  75.7718890  44.7852370
  16.7150270  77.0619580  47.2979300  16.4150410  77.2076760  46.4007120
  17.4861510  76.5024870  47.2052690  22.0578720  81.8588580  45.2934430
  22.0723260  80.9269540  45.0753340  21.3503820  81.9448340  45.9324200
  27.1915790  76.0428400  31.5633040  27.1079510  76.4742620  30.7129480
  27.9109980  76.5026750  31.9959860  28.2689930  78.4995920  44.6403010
  27.5438120  79.0924700  44.4432400  28.7965390  78.4919460  43.8416380
  28.2203040  82.8970660  34.2915170  27.5779200  82.2426280  34.5658890
  27.8333700  83.3025750  33.5155840  23.7989520  80.2256090  38.1386860
  24.1513340  79.6284220  37.4788230  22.9151850  79.9000320  38.3095110
  19.8852800  80.9853780  35.5457270  20.5723930  81.5322990  35.9264860
  19.0985220  81.5294510  35.5806880  12.0245200  76.6026600  31.0374350
  12.8940050  76.8851400  31.3210270  11.5335520  77.4162470  30.9223160
  19.1880010  77.9899810  35.1582630  19.6442790  78.8005060  35.3842820
  18.8368220  77.6722950  35.9901120  21.4912620  83.5006150  42.3874930
  22.1354840  83.7065530  43.0648350  21.8542060  82.7394550  41.9345780
  15.0891790  68.3337460  35.6305150  14.9606420  68.3255360  36.5790070
  14.2653810  68.6720550  35.2796160  22.7644700  81.5038500  41.1052380
  23.4066930  80.8031660  41.2184550  23.2894050  82.2836940  40.9249270
  26.6100420  81.7887120  30.8291520  26.3838000  81.0717560  31.4216160
  26.2196620  81.5399560  29.9913270  24.5382320  82.3033400  44.3088440
  24.8738560  82.8900090  44.9866360  23.6182660  82.1726110  44.5386230
  12.3916450  85.8153980  31.6035980  12.7514090  86.4143320  30.9493250
  12.2508790  86.3613870  32.3771010  12.0885720  70.0928580  45.0911850
  11.3744240  70.2925500  45.6964460  12.5080760  69.3168150  45.4626650
  26.1916670  79.7059060  32.4905680  25.9038370  80.1671750  33.2783560
  26.9868840  79.2456830  32.7589900  12.3758310  84.0808840  46.0778380
  12.4849430  83.1403580  45.9373770  11.7238870  84.3463590  45.4292110
  20.3670900  82.3524730  47.4776500  20.0467770  81.6333970  48.0222190
  19.6929260  83.0279800  47.5512560  18.4085070  83.1985180  32.4209650
  18.3995170  83.9314870  31.8054160  17.4883430  82.9516760  32.5136610
  14.0091710  78.4200070  33.1656410  13.4019660  79.1598970  33.1751710
  14.4841060  78.5099430  32.3394610  23.5824500  72.5850890  42.8413300
  23.9505320  71.7646100  43.1692870  22.7222700  72.6452780  43.2568950
  26.9486530  71.5407830  33.6500860  26.3199690  71.6453500  32.9359090
  26.4538450  71.7604610  34.4394740  21.3944670  83.2613420  31.0834840
  21.4956650  83.0577410  30.1536820  20.4946410  83.0071700  31.2882620
  18.9170560  73.8193780  35.0658740  18.2086710  74.2880120  35.5072350
  19.2015040  73.1615790  35.7003930  20.5426490  75.2390480  43.0651270
  21.0411740  75.7136300  43.7303120  20.6849440  74.3154000  43.2721300
  22.9485990  70.5444440  36.5054530  22.8253770  70.5630570  35.5564040
  23.8970550  70.5923380  36.6252930  20.0362780  85.7799740  35.7782510
  20.2904280  85.7421130  34.8561880  19.0875260  85.6533070  35.7710760
  17.1205580  72.1278860  32.4409450  17.9696110  72.5649010  32.3749640
  16.7536850  72.4399120  33.2681510  27.7493350  71.4558440  43.9079660
  27.2466950  72.1963840  44.2473470  28.5650010  71.8442440  43.5916450
  26.0415360  76.6991620  37.3541020  25.1005500  76.7141850  37.5288710
  26.3559430  75.9127580  37.8001320  16.0197000  78.3811220  30.9144980
  16.7860270  78.2692580  31.4770410  16.0971690  77.6849190  30.2621750
  14.7143760  75.8136290  31.5977870  14.7947350  74.8663800  31.7095270
  15.6063510  76.1443170  31.7038530  28.0440940  83.8700470  39.0295280
  28.1688360  84.6931640  39.5019090  28.9106500  83.6591200  38.6819430
  15.5158470  85.9631680  38.7012410  16.2520950  85.4147140  38.9720980
  15.8999390  86.8287690  38.5618400  12.4003950  82.0305250  34.5753920
  11.4743730  82.2726390  34.5659330  12.8660380  82.8579510  34.4538670
  14.5216750  85.1477750  47.8897990  15.3229480  85.4689800  48.3033390
  14.0068570  84.7873330  48.6117900  18.6260780  85.1361990  30.5237980
  19.4189390  85.4250820  30.0719770  18.1065130  84.7054160  29.8450460
  23.3581380  81.2557620  47.8373400  22.7519540  81.2789220  47.0969150
  23.0535490  80.5240660  48.3740650  24.7881750  84.9837910  46.4482810
  25.7403500  84.8995930  46.3983050  24.6409970  85.6479620  47.1216600
  27.6790950  84.3632120  31.9474720  27.3932460  83.9497260  31.1328900
  27.4810500  85.2919830  31.8275240  12.2414560  77.6351210  46.8334040
  12.7453580  77.0558490  47.4050270  11.5021980  77.9191440  47.3710410
  19.1438180  80.3565400  30.3880330  19.0388820  79.7417750  31.1141710
  18.9762400  79.8331290  29.6043340  19.2952500  79.0422200  46.3669560
  18.5298170  79.6107200  46.2824230  19.4768460  78.7498410  45.4737790
  22.3840910  79.4185430  30.9922320  21.8351010  79.8654730  31.6365060
  23.0060170  78.9134680  31.5159990  26.4375850  80.7727530  46.9244580
  27.1785320  81.1103290  46.4212040  25.6748530  80.9419590  46.3714350
  14.2737640  75.7780800  47.7284110  14.3142980  75.4794670  48.6369340
  15.1283140  76.1788410  47.5691630  18.0516030  78.3776350  32.8887620
  18.4732450  78.2116220  33.7319010  18.1766870  77.5676580  32.3942760
  16.2143450  74.3572900  45.6958600  15.6839910  73.8663850  45.0681940
  16.8831520  74.7857100  45.1616530  20.5643670  77.4013960  30.1364720
  21.0849330  76.6862980  29.7705870  21.2112070  78.0399830  30.4365230
  25.1121510  78.8242360  45.4599790  25.5262530  78.9787440  46.3090210
  24.1772510  78.9497580  45.6225570  25.5843680  76.1638520  47.4638940
  26.1664450  75.4090840  47.3759420  25.7605450  76.6945960  46.6870420
  16.7015750  71.3235270  45.7755890  16.6072620  70.7056020  45.0506760
  16.1213140  72.0501560  45.5485800  19.4677190  69.8808510  42.8083280
  19.0194490  69.9032770  41.9628830  18.8342390  69.4827530  43.4053580
  19.8736740  78.7762840  43.4295720  20.2924850  79.6195570  43.2571960
  18.9545370  78.9134880  43.2002500  22.2100640  76.5079020  44.8133560
  22.3296850  75.9120160  45.5528400  23.0694640  76.5448710  44.3934860
  24.5488540  77.0616210  43.3896070  24.0223760  77.5858830  42.7861210
  24.8919880  77.6943600  44.0205800  16.9474930  74.4509580  29.8345780
  16.7463990  73.5876940  30.1959120  16.7766980  74.3642940  28.8967380
  17.7244160  85.0815850  44.5453450  17.1865250  85.8061910  44.2262150
  17.9778120  84.6046190  43.7550790  18.9769410  73.0500370  46.0709380
  19.5669100  72.7416220  46.7587200  18.1589650  72.5780120  46.2269280
  23.7962840  72.6666180  46.3042400  23.1078360  72.0047720  46.2392390
  24.5168860  72.2204450  46.7490860  24.4263240  69.2617810  32.3632660
  24.7065530  68.4185710  32.7192080  23.6528970  69.4940920  32.8771410
  15.7457730  71.5510200  29.8223660  16.0483630  71.5577630  28.9142810
  16.4852320  71.2008060  30.3191320  20.5806370  86.3167060  44.8040100
  20.5065070  87.2202200  45.1112470  19.6785210  85.9978960  44.7762170
  18.9642660  70.4944820  30.8079860  18.6164660  69.8168810  30.2282310
  19.1655430  70.0334330  31.6223250  21.1291700  85.4825570  32.4266460
  22.0242490  85.8210540  32.4485220  21.1609330  84.7604980  31.7990740
  14.7687860  80.8552620  30.6553460  15.2062730  81.3982290  31.3111040
  15.2535590  80.0299570  30.6649800  11.9833660  83.6441650  38.1073720
  12.3136670  82.7762710  37.8752360  12.4124660  83.8500170  38.9378680
  16.5795580  81.9750660  35.7675690  16.2791120  81.8515630  36.6679600
  16.4733070  81.1159250  35.3591420  12.4723870  84.5112240  40.8455350
  12.0354860  84.6913040  41.6779500  13.0401550  85.2686860  40.7037070
  29.3487500  81.7547060  30.4702370  28.5180460  81.8223710  30.9409600
  29.5259330  82.6451180  30.1669230  28.8043960  78.4994540  32.9736570
  29.5662870  79.0691190  33.0796260  28.8198330  77.9321740  33.7444880
  12.3048300  77.0232470  37.2044230  11.6497140  76.7544110  36.5603930
  13.1426250  76.9136950  36.7546210  29.8103930  79.3544640  37.8178500
  30.1812760  78.5711960  37.4114470  30.4505860  80.0433740  37.6395800
  26.7937690  80.7381220  43.2308820  25.9797530  81.1678380  43.4934610
  27.2011890  81.3499630  42.6177870  28.8563130  78.7928910  30.1309090
  29.1311970  79.7007790  30.0028310  28.6673870  78.7291440  31.0671080
  25.2538740  71.8173760  31.4262720  25.6723620  71.6304740  30.5859380
  24.9474800  70.9652810  31.7365650  28.7528470  76.7297900  35.1238520
  28.3772070  75.9625830  34.6919810  28.0231590  77.1120600  35.6113450
  13.3424230  77.4085040  41.7447570  13.7097270  77.3212440  42.6243590
  12.7735050  76.6451590  41.6454430  12.8940230  74.3194130  45.6505990
  11.9996280  74.2860890  45.9899700  13.4337780  74.5180920  46.4157240
  11.5186380  74.2331400  33.1469560  10.6150460  74.4961600  32.9721220
  12.0027000  74.5042570  32.3669520  28.0279430  74.9555390  38.4245760
  28.5516910  74.4618040  37.7935930  28.6138850  75.0905750  39.1693330
  14.0613590  73.2896940  31.0563940  14.7705290  72.8680160  30.5711220
  13.3453530  73.3572170  30.4247290  13.7087750  69.3436270  30.0966590
  14.4315880  69.8845210  30.4147810  13.9812270  69.0699690  29.2208130
  27.5179400  74.2128740  34.3638170  28.0138520  73.9799610  35.1487050
  27.3195470  73.3740580  33.9475810  13.3979940  68.5942460  39.9989210
  14.0456130  68.0439840  39.5584370  13.8181780  68.8485610  40.8205020
  28.9466560  72.8489690  36.8975850  28.8365840  72.6945730  37.8358120
  29.7074150  72.3210630  36.6551260  27.2932280  68.7883820  43.3558850
  27.9304500  69.4017960  43.7218040  27.4407170  68.8244480  42.4108080
  29.8356830  70.6797610  30.1381990  30.7606140  70.5478790  29.9300280
  29.8132620  70.7590430  31.0918440  29.9095320  71.4508270  32.7638700
  29.1146820  71.3853390  33.2931610  30.1138600  72.3858910  32.7524050
  26.8513740  85.4899820  36.7577090  27.4472810  85.1684390  36.0811510
  27.1091890  85.0171640  37.5490360  13.1511940  68.7498130  42.7414530
  12.8026760  69.2061950  43.5072710  12.8199640  67.8555260  42.8236960
  14.7576310  81.9217730  46.9067720  14.7145940  81.5510640  47.7882180
  14.8887320  82.8595300  47.0469540  18.4582340  83.4777320  42.5077440
  18.2173700  83.7451880  41.6207960  19.3984980  83.6483050  42.5628300
  13.8232580  68.2774330  46.0165300  14.3715570  68.0962380  45.2531410
  13.8887890  67.4868440  46.5521610  14.5964340  84.8679980  44.0265500
  14.0024660  84.7364680  44.7655540  14.5888180  84.0318120  43.5607600
  24.0419360  68.1612210  42.2295530  23.1679200  68.4947320  42.0268460
  23.9330110  67.6885390  43.0547400  24.9491340  70.3683080  43.6137250
  24.6204700  69.5534840  43.2338980  25.8973640  70.3252890  43.4902940
  27.4025950  86.1395120  40.5874820  26.9428920  86.8910930  40.2132840
  26.7738410  85.4201590  40.5289620  14.2276570  82.2338360  42.9773540
  13.5010630  81.6143650  42.9099490  14.2885720  82.6278970  42.1071620
  17.8321670  84.4483360  39.7622950  18.3486690  83.8370720  39.2371210
  18.4819050  84.9512140  40.2533960  20.5717170  85.3391850  40.5891930
  20.8594980  85.0846150  39.7124940  21.0840390  84.7869210  41.1797500
  21.7894180  69.0782050  41.1688440  21.0065970  69.5527550  41.4485200
  21.4957110  68.1736880  41.0601620  26.3415250  69.7805150  39.2137530
  26.7823340  69.7250250  38.3659130  26.0722840  70.6963160  39.2847710
  28.2053820  69.4120390  37.2246350  28.1442220  68.4681610  37.0777370
  28.9845850  69.5200480  37.7699810  12.5106570  85.5512750  36.1870300
  12.3428610  84.9183430  36.8852190  11.6441080  85.7572150  35.8364490
  13.1334590  69.3829530  33.6902160  13.8913950  69.4958410  33.1166190
  12.6711760  70.2198730  33.6445590  19.6748400  71.4968800  36.6804470
  18.8622910  71.1225690  36.3400350  20.1790040  70.7413880  36.9825660
  24.1773380  68.1611250  37.9187540  24.7802750  68.7331460  38.3936060
  23.4366370  68.7250690  37.6961440  27.3207980  68.5632810  33.1927820
  27.5158610  69.4616260  33.4595250  26.5337850  68.3319890  33.6860770
  14.1169270  84.2445980  33.6320440  13.5916890  84.6254010  32.9282400
  14.0413850  84.8696750  34.3530150  15.5059740  69.9093580  32.2304130
  16.0352500  69.1223380  32.1012080  16.1388060  70.5884770  32.4639660
  17.6997580  69.6468720  35.2849520  17.0700320  68.9456030  35.4519650
  17.1602720  70.4072850  35.0682680  20.6389530  86.2607950  47.9560130
  21.5656840  86.0252220  47.9996090  20.6239960  87.0879950  47.4746160
  28.8734590  85.8033520  34.9534380  29.0486780  85.1171260  34.3095300
  28.1756160  86.3280570  34.5611050  16.7162240  86.1928360  32.5069690
  17.4481060  85.9087640  31.9593580  16.9755910  85.9541640  33.3969070
  15.8777030  82.3093090  32.5116020  15.2485910  82.7778190  33.0601850
  15.9924860  81.4642310  32.9462210  27.2067090  85.4877810  47.7801170
  27.9992410  84.9927040  47.5727130  27.5000240  86.1667950  48.3876780
  23.3326750  76.3598750  18.6617220  23.2520800  75.4453360  18.3908930
  22.9191170  76.8565820  17.9556930  21.4644790  78.1377770  20.5426490
  20.6886890  77.6578210  20.8325060  22.1157720  77.4583420  20.3682650
  15.4810620  78.4497580  21.4202250  14.6495500  78.1946290  21.8198760
  16.0891600  78.5208350  22.1560170  25.4852220  82.5437960  19.3225620
  25.0233750  81.7725200  19.6512790  26.2977770  82.5704030  19.8278070
  15.4611880  82.4837670  21.6160270  15.7639920  81.5935410  21.4370490
  16.2055470  83.0407890  21.3882520  13.8902570  73.4099470  15.2044640
  13.0019270  73.7515440  15.1024520  14.1743760  73.2099790  14.3125470
  11.8535580  76.0105120  21.0884340  12.4251690  75.2427320  21.0887980
  11.8537120  76.3093880  20.1790950  21.7115530  84.8295970  18.9429610
  21.0926970  85.2853470  18.3724050  22.5667310  84.9847430  18.5419310
  20.9053780  80.8134960  20.5496650  20.8362060  79.8724900  20.3885780
  21.6673640  80.9036370  21.1219220  13.0960450  71.4189480  22.8753270
  12.9163290  70.5215230  23.1556030  12.6940530  71.9661350  23.5500220
  21.9358950  73.6205340  20.7765580  22.3123770  72.7477220  20.6639250
  21.8378460  73.9564040  19.8856020  16.0663960  71.9930970  16.2383020
  16.1730710  72.8934700  16.5451780  15.1556320  71.9448940  15.9477670
  25.7183070  71.1155780  17.7093920  26.5392690  70.6252350  17.7519400
  25.7517150  71.7053440  18.4625760  13.7147120  73.9149980  21.4835610
  14.3957230  74.1788350  22.1023010  13.3995170  73.0750850  21.8173620
  17.9071690  74.9617340  20.5708200  18.4149910  75.4598310  21.2113220
  18.4384930  74.1852540  20.3947560  30.0082620  73.1322530  24.2737550
  29.3034790  73.5204240  23.7552660  30.2740540  73.8272820  24.8758480
  16.1907790  69.6015900  24.8371620  16.1926230  70.1188290  24.0317520
  15.3612100  69.1246080  24.8141550  22.5778880  79.7135210  16.3361520
  21.9596150  80.1784660  15.7724240  23.0902130  80.4062690  16.7531030
  17.4410640  79.2411080  23.0145120  17.1080020  79.8680000  23.6566190
  17.6177320  79.7672960  22.2346790  25.9544550  73.0556160  20.4821460
  25.2500120  73.3441050  21.0624570  26.3156710  73.8656270  20.1221020
  15.8723120  71.3125860  22.8442070  16.2139930  72.1567910  22.5495940
  14.9338930  71.4609600  22.9607410  16.6529740  81.2091880  24.8294300
  17.2703740  81.8842960  24.5478750  15.7922860  81.6179860  24.7381800
  11.9462080  80.3991740  13.7101150  11.5690060  80.8878840  12.9786050
  12.2035150  81.0717020  14.3407680  27.5707330  82.6731290  22.7448940
  26.8870850  83.3430400  22.7365610  28.1101620  82.8711940  21.9793800
  29.0231470  72.5010950  20.8730670  28.0756380  72.5349930  21.0046100
  29.3481460  73.3149900  21.2580030  19.5551010  68.8008130  19.1686660
  19.8625990  68.2455020  18.4522160  18.6251710  68.9352590  18.9859650
  25.1066070  84.5175420  21.4594120  25.1193230  84.1137710  20.5916380
  24.5541290  85.2922710  21.3555550  26.4011490  81.2391640  16.5484290
  26.2907820  80.2965970  16.6733710  26.3979740  81.6007280  17.4347050
  24.5051510  79.4205260  22.7876730  24.9220300  79.2065370  21.9530190
  25.2291330  79.6778050  23.3585350  21.9431770  76.8656960  15.9046780
  21.0161050  76.7994340  16.1335250  22.0956590  77.8037090  15.7902020
  21.9300850  73.1373960  12.9013940  20.9904520  73.2987920  12.9866400
  22.2484110  73.8559640  12.3549930  28.4513610  77.8192480  22.8792970
  27.6232240  77.8885570  22.4043100  29.0464090  78.4046790  22.4108800
  25.9729060  78.4277260  16.4082030  25.3541480  78.0896810  15.7608330
  25.9553510  77.7837020  17.1161220  25.4155620  74.6061800  23.8247840
  25.0026800  75.4315510  24.0787830  24.6831570  74.0206840  23.6324200
  17.5488410  77.3921700  18.6866510  17.1445410  76.6798950  18.1912410
  17.6351530  77.0474940  19.5754550  18.0170110  81.0789260  20.8505720
  17.7198400  80.4734730  20.1713500  18.9669930  81.1166570  20.7395080
  16.2617030  74.1664910  22.4665550  16.8131620  74.2760250  21.6918800
  16.7760540  74.5402510  23.1820780  26.1055720  84.6521130  24.5128820
  25.6286280  85.4593320  24.3201430  25.4217510  83.9999460  24.6655030
  17.1088540  80.8170950  27.5013520  16.2117070  81.0410920  27.7486920
  17.1341410  80.9405890  26.5524920  24.1493760  77.6664070  13.4154780
  24.5887040  76.8286500  13.2692600  24.8622180  78.2993470  13.5018920
  15.9359760  77.6884270  26.0770890  15.7967530  78.5607070  26.4458290
  15.0541120  77.3457080  25.9318830  22.2589140  82.6060140  17.3836020
  22.6985050  83.3484470  16.9691410  22.1976030  82.8486710  18.3074980
  17.7340110  83.6305970  28.2856040  17.7055540  84.0348920  27.4184470
  17.5705080  82.7016330  28.1227640  27.7310900  68.9206880  11.7295820
  27.4183560  69.0133710  12.6294890  28.4923370  69.4987910  11.6793250
  14.2493040  76.2866680  16.1873160  14.1290640  77.0128770  15.5754430
  13.9393930  75.5169590  15.7101070  29.6854930  84.4133070  29.5820210
  30.1614650  84.8915960  30.2609290  30.3062090  84.3450560  28.8565710
  11.8878410  79.4581820  21.9941800  11.9658830  79.5930590  21.0497520
  12.5020090  78.7497710  22.1869920  13.1326040  81.1582010  18.4047980
  12.7254120  81.2996600  17.5501580  14.0239050  80.8742170  18.2019190
  29.0888180  81.6045920  26.7420220  29.2151240  81.3657800  25.8237400
  29.1309560  80.7730460  27.2142300  22.9504920  85.3073920  25.3115030
  23.4649590  85.2181930  26.1137460  22.1074000  85.6533620  25.6042940
  24.9259320  85.5929260  14.7399030  24.7660460  85.3032200  15.6380860
  24.7606030  84.8169390  14.2044260  17.4047700  85.3727790  16.5170650
  17.2290180  84.4563330  16.3038450  16.5503440  85.7315080  16.7568450
  24.6285450  83.1016820  13.2997030  23.9350610  83.0994110  12.6399310
  25.3708310  82.6776140  12.8691200  24.1935380  84.7279530  17.3745520
  24.6492330  83.9468910  17.6884140  24.5327900  85.4386350  17.9186700
  28.9412190  73.6578380  27.7069960  28.3256460  74.1658050  27.1785420
  28.6208610  72.7576710  27.6495900  11.9437930  80.4995990  24.5336260
  12.1068970  80.0301350  23.7155630  12.4090380  79.9919550  25.1985100
  16.7156700  69.6301750  19.5696830  16.2724850  70.4111290  19.2381350
  17.2741690  69.9531640  20.2767770  21.0026510  72.4970270  25.1732150
  20.5405880  72.7053290  25.9852090  20.6004620  71.6829620  24.8702820
  26.0031020  73.7179220  26.3028810  25.1524610  73.4184970  26.6237880
  25.8432810  73.9621230  25.3912630  23.0980730  75.2180970  28.4027600
  23.4234140  74.3844720  28.0629830  23.8861060  75.7409490  28.5505930
  19.8315520  69.2512450  14.4502660  19.2069700  69.2472320  15.1755970
  19.7445640  68.3843410  14.0538630  18.7532600  70.1749080  21.4286430
  19.0504930  71.0811910  21.3478450  19.3018160  69.6867860  20.8146000
  16.5070920  74.7535320  17.2978080  16.2811840  74.5372490  18.2024700
  15.7263450  75.1863780  16.9524050  23.7368680  74.7598690  15.8968730
  23.1377570  75.4834490  15.7132350  24.2848290  74.6975470  15.1145180
  18.9470130  75.6520900  27.9638350  18.8513730  74.7115630  27.8138750
  19.7902110  75.8735970  27.5686420  22.3433550  73.3962230  17.9272010
  22.7363120  73.7134430  17.1140700  22.7050400  72.5174110  18.0416530
  14.0780670  72.0634570  26.1172130  13.6844060  72.9109780  26.3244910
  13.3899070  71.4260940  26.3080770  20.6525720  72.1469540  29.1868870
  19.9624040  71.9541740  29.8214960  21.3958020  72.4304180  29.7193170
  11.3797720  69.9863030  20.1502210  11.0910770  70.5565890  20.8627190
  12.1243480  69.5067480  20.5133440  11.5667950  73.9283150  11.3604930
  11.4842620  74.8713910  11.5019920  11.2151010  73.7858060  10.4817280
  22.9288690  75.9867980  22.0222790  22.1969810  76.4954790  22.3712890
  22.5313030  75.1697960  21.7211570  19.3666080  72.6622180  20.4275280
  19.3702140  72.2212130  19.5779820  20.2617200  72.9839510  20.5347100
  15.2168460  72.5448670  19.3869490  14.8768510  73.0223900  20.1436540
  14.4545780  72.0913790  19.0270590  19.4286230  73.6634260  13.4182040
  19.5499050  73.6220740  14.3667860  19.0434740  74.5258410  13.2628770
  23.3914600  71.4401660  21.4345730  23.4087340  71.8910310  22.2787580
  23.1430180  70.5407300  21.6479170  18.4407730  75.9735400  12.8165340
  17.8724630  75.5253650  12.1901250  19.1496730  76.3328180  12.2830490
  26.8185350  68.8533840  27.2732110  27.1431120  68.1223500  27.7990090
  26.8541860  68.5347480  26.3713100  13.5176910  79.8747420  26.6932070
  13.1331700  79.2341090  27.2915030  13.8289100  80.5783540  27.2626800
  19.6674050  76.7223960  22.1740690  20.0344180  76.2482530  22.9202030
  19.4779110  77.5965530  22.5149030  12.5314540  71.4667650  18.3034160
  12.2461460  71.1023320  19.1412780  12.4693400  70.7348110  17.6897300
  17.4573420  75.7632600  24.4924900  17.1530490  76.6424580  24.7175260
  18.4119880  75.8232390  24.5282340  15.9855210  79.9693590  15.0891750
  15.2117470  79.4291210  14.9290470  16.7149840  79.4500200  14.7509510
  26.7443190  78.9658950  20.8818140  27.4642310  79.4614240  20.4914250
  26.5425010  78.2876840  20.2372010  22.2053130  70.3596910  15.0247530
  21.3917740  69.8610080  14.9492840  22.0115080  71.1995160  14.6083880
  22.1261990  79.0368010  26.7687140  22.0599300  78.1163680  26.5144730
  21.4967130  79.1343450  27.4831780  24.9201520  74.7316560  13.3209690
  25.8081140  75.0433790  13.1461030  24.8906610  73.8588810  12.9290270
  16.0292610  79.6373970  18.7270560  16.5471280  78.8342230  18.6727450
  15.5776630  79.5753110  19.5687390  20.9162110  80.9040250  13.9997860
  21.2577810  81.6482480  13.5041180  20.0874820  81.2171370  14.3622690
  13.5137150  76.6035340  25.6396260  13.1552090  77.2689190  26.2269600
  13.2191710  75.7718890  26.0108880  16.7150270  77.0619580  28.5235810
  16.4150410  77.2076760  27.6263630  17.4861510  76.5024870  28.4309200
  22.0578720  81.8588580  26.5190940  22.0723260  80.9269540  26.3009850
  21.3503820  81.9448340  27.1580710  27.1915790  76.0428400  12.7889550
  27.1079510  76.4742620  11.9385990  27.9109980  76.5026750  13.2216370
  28.2689930  78.4995920  25.8659520  27.5438120  79.0924700  25.6688910
  28.7965390  78.4919460  25.0672890  28.2203040  82.8970660  15.5171680
  27.5779200  82.2426280  15.7915400  27.8333700  83.3025750  14.7412350
  23.7989520  80.2256090  19.3643370  24.1513340  79.6284220  18.7044740
  22.9151850  79.9000320  19.5351620  19.8852800  80.9853780  16.7713780
  20.5723930  81.5322990  17.1521370  19.0985220  81.5294510  16.8063390
  12.0245200  76.6026600  12.2630860  12.8940050  76.8851400  12.5466780
  11.5335520  77.4162470  12.1479670  19.1880010  77.9899810  16.3839140
  19.6442790  78.8005060  16.6099330  18.8368220  77.6722950  17.2157630
  21.4912620  83.5006150  23.6131440  22.1354840  83.7065530  24.2904860
  21.8542060  82.7394550  23.1602290  15.0891790  68.3337460  16.8561660
  14.9606420  68.3255360  17.8046580  14.2653810  68.6720550  16.5052670
  22.7644700  81.5038500  22.3308890  23.4066930  80.8031660  22.4441060
  23.2894050  82.2836940  22.1505780  26.6100420  81.7887120  12.0548030
  26.3838000  81.0717560  12.6472670  26.2196620  81.5399560  11.2169780
  24.5382320  82.3033400  25.5344950  24.8738560  82.8900090  26.2122870
  23.6182660  82.1726110  25.7642740  12.3916450  85.8153980  12.8292490
  12.7514090  86.4143320  12.1749760  12.2508790  86.3613870  13.6027520
  12.0885720  70.0928580  26.3168360  11.3744240  70.2925500  26.9220970
  12.5080760  69.3168150  26.6883160  26.1916670  79.7059060  13.7162190
  25.9038370  80.1671750  14.5040070  26.9868840  79.2456830  13.9846410
  12.3758310  84.0808840  27.3034890  12.4849430  83.1403580  27.1630280
  11.7238870  84.3463590  26.6548620  20.3670900  82.3524730  28.7033010
  20.0467770  81.6333970  29.2478700  19.6929260  83.0279800  28.7769070
  18.4085070  83.1985180  13.6466160  18.3995170  83.9314870  13.0310670
  17.4883430  82.9516760  13.7393120  14.0091710  78.4200070  14.3912920
  13.4019660  79.1598970  14.4008220  14.4841060  78.5099430  13.5651120
  23.5824500  72.5850890  24.0669810  23.9505320  71.7646100  24.3949380
  22.7222700  72.6452780  24.4825460  26.9486530  71.5407830  14.8757370
  26.3199690  71.6453500  14.1615600  26.4538450  71.7604610  15.6651250
  21.3944670  83.2613420  12.3091350  21.4956650  83.0577410  11.3793330
  20.4946410  83.0071700  12.5139130  18.9170560  73.8193780  16.2915250
  18.2086710  74.2880120  16.7328860  19.2015040  73.1615790  16.9260440
  20.5426490  75.2390480  24.2907780  21.0411740  75.7136300  24.9559630
  20.6849440  74.3154000  24.4977810  22.9485990  70.5444440  17.7311040
  22.8253770  70.5630570  16.7820550  23.8970550  70.5923380  17.8509440
  20.0362780  85.7799740  17.0039020  20.2904280  85.7421130  16.0818390
  19.0875260  85.6533070  16.9967270  17.1205580  72.1278860  13.6665960
  17.9696110  72.5649010  13.6006150  16.7536850  72.4399120  14.4938020
  27.7493350  71.4558440  25.1336170  27.2466950  72.1963840  25.4729980
  28.5650010  71.8442440  24.8172960  26.0415360  76.6991620  18.5797530
  25.1005500  76.7141850  18.7545220  26.3559430  75.9127580  19.0257830
  16.0197000  78.3811220  12.1401490  16.7860270  78.2692580  12.7026920
  16.0971690  77.6849190  11.4878260  14.7143760  75.8136290  12.8234380
  14.7947350  74.8663800  12.9351780  15.6063510  76.1443170  12.9295040
  28.0440940  83.8700470  20.2551790  28.1688360  84.6931640  20.7275600
  28.9106500  83.6591200  19.9075940  15.5158470  85.9631680  19.9268920
  16.2520950  85.4147140  20.1977490  15.8999390  86.8287690  19.7874910
  12.4003950  82.0305250  15.8010430  11.4743730  82.2726390  15.7915840
  12.8660380  82.8579510  15.6795180  14.5216750  85.1477750  29.1154500
  15.3229480  85.4689800  29.5289900  14.0068570  84.7873330  29.8374410
  18.6260780  85.1361990  11.7494490  19.4189390  85.4250820  11.2976280
  18.1065130  84.7054160  11.0706970  23.3581380  81.2557620  29.0629910
  22.7519540  81.2789220  28.3225660  23.0535490  80.5240660  29.5997160
  24.7881750  84.9837910  27.6739320  25.7403500  84.8995930  27.6239560
  24.6409970  85.6479620  28.3473110  27.6790950  84.3632120  13.1731230
  27.3932460  83.9497260  12.3585410  27.4810500  85.2919830  13.0531750
  12.2414560  77.6351210  28.0590550  12.7453580  77.0558490  28.6306780
  11.5021980  77.9191440  28.5966920  19.1438180  80.3565400  11.6136840
  19.0388820  79.7417750  12.3398220  18.9762400  79.8331290  10.8299850
  19.2952500  79.0422200  27.5926070  18.5298170  79.6107200  27.5080740
  19.4768460  78.7498410  26.6994300  22.3840910  79.4185430  12.2178830
  21.8351010  79.8654730  12.8621570  23.0060170  78.9134680  12.7416500
  26.4375850  80.7727530  28.1501090  27.1785320  81.1103290  27.6468550
  25.6748530  80.9419590  27.5970860  14.2737640  75.7780800  28.9540620
  14.3142980  75.4794670  29.8625850  15.1283140  76.1788410  28.7948140
  18.0516030  78.3776350  14.1144130  18.4732450  78.2116220  14.9575520
  18.1766870  77.5676580  13.6199270  16.2143450  74.3572900  26.9215110
  15.6839910  73.8663850  26.2938450  16.8831520  74.7857100  26.3873040
  20.5643670  77.4013960  11.3621230  21.0849330  76.6862980  10.9962380
  21.2112070  78.0399830  11.6621740  25.1121510  78.8242360  26.6856300
  25.5262530  78.9787440  27.5346720  24.1772510  78.9497580  26.8482080
  25.5843680  76.1638520  28.6895450  26.1664450  75.4090840  28.6015930
  25.7605450  76.6945960  27.9126930  16.7015750  71.3235270  27.0012400
  16.6072620  70.7056020  26.2763270  16.1213140  72.0501560  26.7742310
  19.4677190  69.8808510  24.0339790  19.0194490  69.9032770  23.1885340
  18.8342390  69.4827530  24.6310090  19.8736740  78.7762840  24.6552230
  20.2924850  79.6195570  24.4828470  18.9545370  78.9134880  24.4259010
  22.2100640  76.5079020  26.0390070  22.3296850  75.9120160  26.7784910
  23.0694640  76.5448710  25.6191370  24.5488540  77.0616210  24.6152580
  24.0223760  77.5858830  24.0117720  24.8919880  77.6943600  25.2462310
  16.9474930  74.4509580  11.0602290  16.7463990  73.5876940  11.4215630
  16.7766980  74.3642940  10.1223890  17.7244160  85.0815850  25.7709960
  17.1865250  85.8061910  25.4518660  17.9778120  84.6046190  24.9807300
  18.9769410  73.0500370  27.2965890  19.5669100  72.7416220  27.9843710
  18.1589650  72.5780120  27.4525790  23.7962840  72.6666180  27.5298910
  23.1078360  72.0047720  27.4648900  24.5168860  72.2204450  27.9747370
  24.4263240  69.2617810  13.5889170  24.7065530  68.4185710  13.9448590
  23.6528970  69.4940920  14.1027920  15.7457730  71.5510200  11.0480170
  16.0483630  71.5577630  10.1399320  16.4852320  71.2008060  11.5447830
  20.5806370  86.3167060  26.0296610  20.5065070  87.2202200  26.3368980
  19.6785210  85.9978960  26.0018680  18.9642660  70.4944820  12.0336370
  18.6164660  69.8168810  11.4538820  19.1655430  70.0334330  12.8479760
  21.1291700  85.4825570  13.6522970  22.0242490  85.8210540  13.6741730
  21.1609330  84.7604980  13.0247250  14.7687860  80.8552620  11.8809970
  15.2062730  81.3982290  12.5367550  15.2535590  80.0299570  11.8906310
  11.9833660  83.6441650  19.3330230  12.3136670  82.7762710  19.1008870
  12.4124660  83.8500170  20.1635190  16.5795580  81.9750660  16.9932200
  16.2791120  81.8515630  17.8936110  16.4733070  81.1159250  16.5847930
  12.4723870  84.5112240  22.0711860  12.0354860  84.6913040  22.9036010
  13.0401550  85.2686860  21.9293580  28.1086050  84.0129240  26.3589170
  27.5088040  84.0721800  25.6153090  28.2379950  83.0734220  26.4886020
  29.3487500  81.7547060  11.6958880  28.5180460  81.8223710  12.1666110
  29.5259330  82.6451180  11.3925740  28.8043960  78.4994540  14.1993080
  29.5662870  79.0691190  14.3052770  28.8198330  77.9321740  14.9701390
  12.3048300  77.0232470  18.4300740  11.6497140  76.7544110  17.7860440
  13.1426250  76.9136950  17.9802720  29.8103930  79.3544640  19.0435010
  30.1812760  78.5711960  18.6370980  30.4505860  80.0433740  18.8652310
  26.7937690  80.7381220  24.4565330  25.9797530  81.1678380  24.7191120
  27.2011890  81.3499630  23.8434380  28.8563130  78.7928910  11.3565600
  29.1311970  79.7007790  11.2284820  28.6673870  78.7291440  12.2927590
  25.2538740  71.8173760  12.6519230  25.6723620  71.6304740  11.8115890
  24.9474800  70.9652810  12.9622160  28.7528470  76.7297900  16.3495030
  28.3772070  75.9625830  15.9176320  28.0231590  77.1120600  16.8369960
  13.3424230  77.4085040  22.9704080  13.7097270  77.3212440  23.8500100
  12.7735050  76.6451590  22.8710940  28.1428090  75.8769420  25.9834550
  27.9114180  75.6482170  25.0832500  28.4032640  76.7968970  25.9379440
  12.8940230  74.3194130  26.8762500  11.9996280  74.2860890  27.2156210
  13.4337780  74.5180920  27.6413750  26.5816160  71.1025850  28.7614250
  27.4586340  71.1109250  29.1448250  26.5937000  70.3656690  28.1506600
  11.5186380  74.2331400  14.3726070  10.6150460  74.4961600  14.1977730
  12.0027000  74.5042570  13.5926030  28.0279430  74.9555390  19.6502270
  28.5516910  74.4618040  19.0192440  28.6138850  75.0905750  20.3949840
  28.2069150  75.0395260  23.1721820  27.2571860  75.0058800  23.2866810
  28.3882160  75.9495370  22.9371590  14.0613590  73.2896940  12.2820450
  14.7705290  72.8680160  11.7967730  13.3453530  73.3572170  11.6503800
  13.7087750  69.3436270  11.3223100  14.4315880  69.8845210  11.6404320
  13.9812270  69.0699690  10.4464640  27.5179400  74.2128740  15.5894680
  28.0138520  73.9799610  16.3743560  27.3195470  73.3740580  15.1732320
  13.3979940  68.5942460  21.2245720  14.0456130  68.0439840  20.7840880
  13.8181780  68.8485610  22.0461530  28.9466560  72.8489690  18.1232360
  28.8365840  72.6945730  19.0614630  29.7074150  72.3210630  17.8807770
  27.2932280  68.7883820  24.5815360  27.9304500  69.4017960  24.9474550
  27.4407170  68.8244480  23.6364590  29.8356830  70.6797610  11.3638500
  30.7606140  70.5478790  11.1556790  29.8132620  70.7590430  12.3174950
  29.9095320  71.4508270  13.9895210  29.1146820  71.3853390  14.5188120
  30.1138600  72.3858910  13.9780560  26.8513740  85.4899820  17.9833600
  27.4472810  85.1684390  17.3068020  27.1091890  85.0171640  18.7746870
  13.1511940  68.7498130  23.9671040  12.8026760  69.2061950  24.7329220
  12.8199640  67.8555260  24.0493470  14.7576310  81.9217730  28.1324230
  14.7145940  81.5510640  29.0138690  14.8887320  82.8595300  28.2726050
  18.4582340  83.4777320  23.7333950  18.2173700  83.7451880  22.8464470
  19.3984980  83.6483050  23.7884810  20.6636760  69.9410010  27.4890460
  20.6025650  70.5331840  28.2385870  21.6037140  69.8335970  27.3440720
  23.3011320  69.5980070  27.1282750  23.9151730  69.9159360  26.4663830
  23.8460880  69.1128660  27.7478610  29.7186500  85.4971700  24.5344590
  29.2244780  85.8940570  23.8171720  29.1099790  84.8720910  24.9281870
  13.8232580  68.2774330  27.2421810  14.3715570  68.0962380  26.4787920
  13.8887890  67.4868440  27.7778120  14.5964340  84.8679980  25.2522010
  14.0024660  84.7364680  25.9912050  14.5888180  84.0318120  24.7864110
  24.0419360  68.1612210  23.4552040  23.1679200  68.4947320  23.2524970
  23.9330110  67.6885390  24.2803910  24.9491340  70.3683080  24.8393760
  24.6204700  69.5534840  24.4595490  25.8973640  70.3252890  24.7159450
  27.4025950  86.1395120  21.8131330  26.9428920  86.8910930  21.4389350
  26.7738410  85.4201590  21.7546130  14.2276570  82.2338360  24.2030050
  13.5010630  81.6143650  24.1356000  14.2885720  82.6278970  23.3328130
  17.8321670  84.4483360  20.9879460  18.3486690  83.8370720  20.4627720
  18.4819050  84.9512140  21.4790470  20.5717170  85.3391850  21.8148440
  20.8594980  85.0846150  20.9381450  21.0840390  84.7869210  22.4054010
  21.7894180  69.0782050  22.3944950  21.0065970  69.5527550  22.6741710
  21.4957110  68.1736880  22.2858130  26.3415250  69.7805150  20.4394040
  26.7823340  69.7250250  19.5915640  26.0722840  70.6963160  20.5104220
  28.2053820  69.4120390  18.4502860  28.1442220  68.4681610  18.3033880
  28.9845850  69.5200480  18.9956320  12.5106570  85.5512750  17.4126810
  12.3428610  84.9183430  18.1108700  11.6441080  85.7572150  17.0621000
  13.1334590  69.3829530  14.9158670  13.8913950  69.4958410  14.3422700
  12.6711760  70.2198730  14.8702100  19.6748400  71.4968800  17.9060980
  18.8622910  71.1225690  17.5656860  20.1790040  70.7413880  18.2082170
  24.1773380  68.1611250  19.1444050  24.7802750  68.7331460  19.6192570
  23.4366370  68.7250690  18.9217950  27.3207980  68.5632810  14.4184330
  27.5158610  69.4616260  14.6851760  26.5337850  68.3319890  14.9117280
  14.1169270  84.2445980  14.8576950  13.5916890  84.6254010  14.1538910
  14.0413850  84.8696750  15.5786660  15.5059740  69.9093580  13.4560640
  16.0352500  69.1223380  13.3268590  16.1388060  70.5884770  13.6896170
  17.6997580  69.6468720  16.5106030  17.0700320  68.9456030  16.6776160
  17.1602720  70.4072850  16.2939190  20.6389530  86.2607950  29.1816640
  21.5656840  86.0252220  29.2252600  20.6239960  87.0879950  28.7002670
  28.8734590  85.8033520  16.1790890  29.0486780  85.1171260  15.5351810
  28.1756160  86.3280570  15.7867560  17.8253140  68.9252700  28.9458520
  17.5437410  69.4286300  28.1819340  18.2072840  68.1274450  28.5800650
  16.7162240  86.1928360  13.7326200  17.4481060  85.9087640  13.1850090
  16.9755910  85.9541640  14.6225580  15.8777030  82.3093090  13.7372530
  15.2485910  82.7778190  14.2858360  15.9924860  81.4642310  14.1718720
  24.4268600  68.3406280  29.5238990  24.3134050  68.6600890  30.4190510
  25.2438340  68.7418790  29.2276270  27.2067090  85.4877810  29.0057680
  27.9992410  84.9927040  28.7983640  27.5000240  86.1667950  29.6133290
  21.4644790  78.1377770   1.7683000  20.6886890  77.6578210   2.0581570
  22.1157720  77.4583420   1.5939160  15.4810620  78.4497580   2.6458760
  14.6495500  78.1946290   3.0455270  16.0891600  78.5208350   3.3816680
  15.4611880  82.4837670   2.8416780  15.7639920  81.5935410   2.6627000
  16.2055470  83.0407890   2.6139030  20.9053780  80.8134960   1.7753160
  20.8362060  79.8724900   1.6142290  21.6673640  80.9036370   2.3475730
  13.0960450  71.4189480   4.1009780  12.9163290  70.5215230   4.3812540
  12.6940530  71.9661350   4.7756730  13.7147120  73.9149980   2.7092120
  14.3957230  74.1788350   3.3279520  13.3995170  73.0750850   3.0430130
  17.9071690  74.9617340   1.7964710  18.4149910  75.4598310   2.4369730
  18.4384930  74.1852540   1.6204070  30.0082620  73.1322530   5.4994060
  29.3034790  73.5204240   4.9809170  30.2740540  73.8272820   6.1014990
  16.1907790  69.6015900   6.0628130  16.1926230  70.1188290   5.2574030
  15.3612100  69.1246080   6.0398060  17.4410640  79.2411080   4.2401630
  17.1080020  79.8680000   4.8822700  17.6177320  79.7672960   3.4603300
  15.8723120  71.3125860   4.0698580  16.2139930  72.1567910   3.7752450
  14.9338930  71.4609600   4.1863920  16.6529740  81.2091880   6.0550810
  17.2703740  81.8842960   5.7735260  15.7922860  81.6179860   5.9638310
  27.5707330  82.6731290   3.9705450  26.8870850  83.3430400   3.9622120
  28.1101620  82.8711940   3.2050310  29.0231470  72.5010950   2.0987180
  28.0756380  72.5349930   2.2302610  29.3481460  73.3149900   2.4836540
  25.1066070  84.5175420   2.6850630  25.1193230  84.1137710   1.8172890
  24.5541290  85.2922710   2.5812060  24.5051510  79.4205260   4.0133240
  24.9220300  79.2065370   3.1786700  25.2291330  79.6778050   4.5841860
  28.4513610  77.8192480   4.1049480  27.6232240  77.8885570   3.6299610
  29.0464090  78.4046790   3.6365310  25.4155620  74.6061800   5.0504350
  25.0026800  75.4315510   5.3044340  24.6831570  74.0206840   4.8580710
  16.2617030  74.1664910   3.6922060  16.8131620  74.2760250   2.9175310
  16.7760540  74.5402510   4.4077290  26.1055720  84.6521130   5.7385330
  25.6286280  85.4593320   5.5457940  25.4217510  83.9999460   5.8911540
  17.1088540  80.8170950   8.7270030  16.2117070  81.0410920   8.9743430
  17.1341410  80.9405890   7.7781430  15.9359760  77.6884270   7.3027400
  15.7967530  78.5607070   7.6714800  15.0541120  77.3457080   7.1575340
  17.7340110  83.6305970   9.5112550  17.7055540  84.0348920   8.6440980
  17.5705080  82.7016330   9.3484150  29.6854930  84.4133070  10.8076720
  30.1614650  84.8915960  11.4865800  30.3062090  84.3450560  10.0822220
  11.8878410  79.4581820   3.2198310  11.9658830  79.5930590   2.2754030
  12.5020090  78.7497710   3.4126430  29.0888180  81.6045920   7.9676730
  29.2151240  81.3657800   7.0493910  29.1309560  80.7730460   8.4398810
  22.9504920  85.3073920   6.5371540  23.4649590  85.2181930   7.3393970
  22.1074000  85.6533620   6.8299450  28.9412190  73.6578380   8.9326470
  28.3256460  74.1658050   8.4041930  28.6208610  72.7576710   8.8752410
  11.9437930  80.4995990   5.7592770  12.1068970  80.0301350   4.9412140
  12.4090380  79.9919550   6.4241610  21.0026510  72.4970270   6.3988660
  20.5405880  72.7053290   7.2108600  20.6004620  71.6829620   6.0959330
  26.0031020  73.7179220   7.5285320  25.1524610  73.4184970   7.8494390
  25.8432810  73.9621230   6.6169140  23.0980730  75.2180970   9.6284110
  23.4234140  74.3844720   9.2886340  23.8861060  75.7409490   9.7762440
  18.7532600  70.1749080   2.6542940  19.0504930  71.0811910   2.5734960
  19.3018160  69.6867860   2.0402510  18.9470130  75.6520900   9.1894860
  18.8513730  74.7115630   9.0395260  19.7902110  75.8735970   8.7942930
  14.0780670  72.0634570   7.3428640  13.6844060  72.9109780   7.5501420
  13.3899070  71.4260940   7.5337280  20.6525720  72.1469540  10.4125380
  19.9624040  71.9541740  11.0471470  21.3958020  72.4304180  10.9449680
  22.9288690  75.9867980   3.2479300  22.1969810  76.4954790   3.5969400
  22.5313030  75.1697960   2.9468080  23.3914600  71.4401660   2.6602240
  23.4087340  71.8910310   3.5044090  23.1430180  70.5407300   2.8735680
  26.8185350  68.8533840   8.4988620  27.1431120  68.1223500   9.0246600
  26.8541860  68.5347480   7.5969610  13.5176910  79.8747420   7.9188580
  13.1331700  79.2341090   8.5171540  13.8289100  80.5783540   8.4883310
  19.6674050  76.7223960   3.3997200  20.0344180  76.2482530   4.1458540
  19.4779110  77.5965530   3.7405540  17.4573420  75.7632600   5.7181410
  17.1530490  76.6424580   5.9431770  18.4119880  75.8232390   5.7538850
  26.7443190  78.9658950   2.1074650  27.4642310  79.4614240   1.7170760
  26.5425010  78.2876840   1.4628520  22.1261990  79.0368010   7.9943650
  22.0599300  78.1163680   7.7401240  21.4967130  79.1343450   8.7088290
  13.5137150  76.6035340   6.8652770  13.1552090  77.2689190   7.4526110
  13.2191710  75.7718890   7.2365390  16.7150270  77.0619580   9.7492320
  16.4150410  77.2076760   8.8520140  17.4861510  76.5024870   9.6565710
  22.0578720  81.8588580   7.7447450  22.0723260  80.9269540   7.5266360
  21.3503820  81.9448340   8.3837220  28.2689930  78.4995920   7.0916030
  27.5438120  79.0924700   6.8945420  28.7965390  78.4919460   6.2929400
  21.4912620  83.5006150   4.8387950  22.1354840  83.7065530   5.5161370
  21.8542060  82.7394550   4.3858800  22.7644700  81.5038500   3.5565400
  23.4066930  80.8031660   3.6697570  23.2894050  82.2836940   3.3762290
  24.5382320  82.3033400   6.7601460  24.8738560  82.8900090   7.4379380
  23.6182660  82.1726110   6.9899250  12.0885720  70.0928580   7.5424870
  11.3744240  70.2925500   8.1477480  12.5080760  69.3168150   7.9139670
  12.3758310  84.0808840   8.5291400  12.4849430  83.1403580   8.3886790
  11.7238870  84.3463590   7.8805130  20.3670900  82.3524730   9.9289520
  20.0467770  81.6333970  10.4735210  19.6929260  83.0279800  10.0025580
  23.5824500  72.5850890   5.2926320  23.9505320  71.7646100   5.6205890
  22.7222700  72.6452780   5.7081970  20.5426490  75.2390480   5.5164290
  21.0411740  75.7136300   6.1816140  20.6849440  74.3154000   5.7234320
  27.7493350  71.4558440   6.3592680  27.2466950  72.1963840   6.6986490
  28.5650010  71.8442440   6.0429470  14.5216750  85.1477750  10.3411010
  15.3229480  85.4689800  10.7546410  14.0068570  84.7873330  11.0630920
  23.3581380  81.2557620  10.2886420  22.7519540  81.2789220   9.5482170
  23.0535490  80.5240660  10.8253670  24.7881750  84.9837910   8.8995830
  25.7403500  84.8995930   8.8496070  24.6409970  85.6479620   9.5729620
  12.2414560  77.6351210   9.2847060  12.7453580  77.0558490   9.8563290
  11.5021980  77.9191440   9.8223430  19.2952500  79.0422200   8.8182580
  18.5298170  79.6107200   8.7337250  19.4768460  78.7498410   7.9250810
  26.4375850  80.7727530   9.3757600  27.1785320  81.1103290   8.8725060
  25.6748530  80.9419590   8.8227370  14.2737640  75.7780800  10.1797130
  14.3142980  75.4794670  11.0882360  15.1283140  76.1788410  10.0204650
  16.2143450  74.3572900   8.1471620  15.6839910  73.8663850   7.5194960
  16.8831520  74.7857100   7.6129550  25.1121510  78.8242360   7.9112810
  25.5262530  78.9787440   8.7603230  24.1772510  78.9497580   8.0738590
  25.5843680  76.1638520   9.9151960  26.1664450  75.4090840   9.8272440
  25.7605450  76.6945960   9.1383440  16.7015750  71.3235270   8.2268910
  16.6072620  70.7056020   7.5019780  16.1213140  72.0501560   7.9998820
  19.4677190  69.8808510   5.2596300  19.0194490  69.9032770   4.4141850
  18.8342390  69.4827530   5.8566600  19.8736740  78.7762840   5.8808740
  20.2924850  79.6195570   5.7084980  18.9545370  78.9134880   5.6515520
  22.2100640  76.5079020   7.2646580  22.3296850  75.9120160   8.0041420
  23.0694640  76.5448710   6.8447880  24.5488540  77.0616210   5.8409090
  24.0223760  77.5858830   5.2374230  24.8919880  77.6943600   6.4718820
  17.7244160  85.0815850   6.9966470  17.1865250  85.8061910   6.6775170
  17.9778120  84.6046190   6.2063810  18.9769410  73.0500370   8.5222400
  19.5669100  72.7416220   9.2100220  18.1589650  72.5780120   8.6782300
  23.7962840  72.6666180   8.7555420  23.1078360  72.0047720   8.6905410
  24.5168860  72.2204450   9.2003880  20.5806370  86.3167060   7.2553120
  20.5065070  87.2202200   7.5625490  19.6785210  85.9978960   7.2275190
  12.4723870  84.5112240   3.2968370  12.0354860  84.6913040   4.1292520
  13.0401550  85.2686860   3.1550090  28.1086050  84.0129240   7.5845680
  27.5088040  84.0721800   6.8409600  28.2379950  83.0734220   7.7142530
  26.7937690  80.7381220   5.6821840  25.9797530  81.1678380   5.9447630
  27.2011890  81.3499630   5.0690890  13.3424230  77.4085040   4.1960590
  13.7097270  77.3212440   5.0756610  12.7735050  76.6451590   4.0967450
  28.1428090  75.8769420   7.2091060  27.9114180  75.6482170   6.3089010
  28.4032640  76.7968970   7.1635950  12.8940230  74.3194130   8.1019010
  11.9996280  74.2860890   8.4412720  13.4337780  74.5180920   8.8670260
  26.5816160  71.1025850   9.9870760  27.4586340  71.1109250  10.3704760
  26.5937000  70.3656690   9.3763110  28.2069150  75.0395260   4.3978330
  27.2571860  75.0058800   4.5123320  28.3882160  75.9495370   4.1628100
  13.3979940  68.5942460   2.4502230  14.0456130  68.0439840   2.0097390
  13.8181780  68.8485610   3.2718040  27.2932280  68.7883820   5.8071870
  27.9304500  69.4017960   6.1731060  27.4407170  68.8244480   4.8621100
  13.1511940  68.7498130   5.1927550  12.8026760  69.2061950   5.9585730
  12.8199640  67.8555260   5.2749980  14.7576310  81.9217730   9.3580740
  14.7145940  81.5510640  10.2395200  14.8887320  82.8595300   9.4982560
  18.4582340  83.4777320   4.9590460  18.2173700  83.7451880   4.0720980
  19.3984980  83.6483050   5.0141320  20.6636760  69.9410010   8.7146970
  20.6025650  70.5331840   9.4642380  21.6037140  69.8335970   8.5697230
  23.3011320  69.5980070   8.3539260  23.9151730  69.9159360   7.6920340
  23.8460880  69.1128660   8.9735120  29.7186500  85.4971700   5.7601100
  29.2244780  85.8940570   5.0428230  29.1099790  84.8720910   6.1538380
  13.8232580  68.2774330   8.4678320  14.3715570  68.0962380   7.7044430
  13.8887890  67.4868440   9.0034630  14.5964340  84.8679980   6.4778520
  14.0024660  84.7364680   7.2168560  14.5888180  84.0318120   6.0120620
  24.0419360  68.1612210   4.6808550  23.1679200  68.4947320   4.4781480
  23.9330110  67.6885390   5.5060420  24.9491340  70.3683080   6.0650270
  24.6204700  69.5534840   5.6852000  25.8973640  70.3252890   5.9415960
  27.4025950  86.1395120   3.0387840  26.9428920  86.8910930   2.6645860
  26.7738410  85.4201590   2.9802640  14.2276570  82.2338360   5.4286560
  13.5010630  81.6143650   5.3612510  14.2885720  82.6278970   4.5584640
  17.8321670  84.4483360   2.2135970  18.3486690  83.8370720   1.6884230
  18.4819050  84.9512140   2.7046980  20.5717170  85.3391850   3.0404950
  20.8594980  85.0846150   2.1637960  21.0840390  84.7869210   3.6310520
  21.7894180  69.0782050   3.6201460  21.0065970  69.5527550   3.8998220
  21.4957110  68.1736880   3.5114640  20.6389530  86.2607950  10.4073150
  21.5656840  86.0252220  10.4509110  20.6239960  87.0879950   9.9259180
  17.8253140  68.9252700  10.1715030  17.5437410  69.4286300   9.4075850
  18.2072840  68.1274450   9.8057160  24.4268600  68.3406280  10.7495500
  24.3134050  68.6600890  11.6447020  25.2438340  68.7418790  10.4532780
  27.2067090  85.4877810  10.2314190  27.9992410  84.9927040  10.0240150
  27.5000240  86.1667950  10.8389800  23.3326750  57.5855260 150.0821650
  23.2520800  56.6709870 149.8113360  22.9191170  58.0822330 149.3761360
  25.4852220  63.7694470 150.7430050  25.0233750  62.9981710 151.0717220
  26.2977770  63.7960540 151.2482500  13.8902570  54.6355980 146.6249070
  13.0019270  54.9771950 146.5228950  14.1743760  54.4356300 145.7329900
  21.7115530  66.0552480 150.3634040  21.0926970  66.5109980 149.7928480
  22.5667310  66.2103940 149.9623740  16.0663960  53.2187480 147.6587450
  16.1730710  54.1191210 147.9656210  15.1556320  53.1705450 147.3682100
  25.7183070  52.3412290 149.1298350  26.5392690  51.8508860 149.1723830
  25.7517150  52.9309950 149.8830190  22.5778880  60.9391720 147.7565950
  21.9596150  61.4041170 147.1928670  23.0902130  61.6319200 148.1735460
  11.9462080  61.6248250 145.1305580  11.5690060  62.1135350 144.3990480
  12.2035150  62.2973530 145.7612110  19.5551010  50.0264640 150.5891090
  19.8625990  49.4711530 149.8726590  18.6251710  50.1609100 150.4064080
  26.4011490  62.4648150 147.9688720  26.2907820  61.5222480 148.0938140
  26.3979740  62.8263790 148.8551480  21.9431770  58.0913470 147.3251210
  21.0161050  58.0250850 147.5539680  22.0956590  59.0293600 147.2106450
  21.9300850  54.3630470 144.3218370  20.9904520  54.5244430 144.4070830
  22.2484110  55.0816150 143.7754360  25.9729060  59.6533770 147.8286460
  25.3541480  59.3153320 147.1812760  25.9553510  59.0093530 148.5365650
  17.5488410  58.6178210 150.1070940  17.1445410  57.9055460 149.6116840
  17.6351530  58.2731450 150.9958980  24.1493760  58.8920580 144.8359210
  24.5887040  58.0543010 144.6897030  24.8622180  59.5249980 144.9223350
  22.2589140  63.8316650 148.8040450  22.6985050  64.5740980 148.3895840
  22.1976030  64.0743220 149.7279410  27.7310900  50.1463390 143.1500250
  27.4183560  50.2390220 144.0499320  28.4923370  50.7244420 143.0997680
  14.2493040  57.5123190 147.6077590  14.1290640  58.2385280 146.9958860
  13.9393930  56.7426100 147.1305500  13.1326040  62.3838520 149.8252410
  12.7254120  62.5253110 148.9706010  14.0239050  62.0998680 149.6223620
  24.9259320  66.8185770 146.1603460  24.7660460  66.5288710 147.0585290
  24.7606030  66.0425900 145.6248690  17.4047700  66.5984300 147.9375080
  17.2290180  65.6819840 147.7242880  16.5503440  66.9571590 148.1772880
  24.6285450  64.3273330 144.7201460  23.9350610  64.3250620 144.0603740
  25.3708310  63.9032650 144.2895630  24.1935380  65.9536040 148.7949950
  24.6492330  65.1725420 149.1088570  24.5327900  66.6642860 149.3391130
  16.7156700  50.8558260 150.9901260  16.2724850  51.6367800 150.6585780
  17.2741690  51.1788150 151.6972200  19.8315520  50.4768960 145.8707090
  19.2069700  50.4728830 146.5960400  19.7445640  49.6099920 145.4743060
  16.5070920  55.9791830 148.7182510  16.2811840  55.7629000 149.6229130
  15.7263450  56.4120290 148.3728480  23.7368680  55.9855200 147.3173160
  23.1377570  56.7091000 147.1336780  24.2848290  55.9231980 146.5349610
  22.3433550  54.6218740 149.3476440  22.7363120  54.9390940 148.5345130
  22.7050400  53.7430620 149.4620960  11.5667950  55.1539660 142.7809360
  11.4842620  56.0970420 142.9224350  11.2151010  55.0114570 141.9021710
  15.2168460  53.7705180 150.8073920  14.8768510  54.2480410 151.5640970
  14.4545780  53.3170300 150.4475020  19.4286230  54.8890770 144.8386470
  19.5499050  54.8477250 145.7872290  19.0434740  55.7514920 144.6833200
  18.4407730  57.1991910 144.2369770  17.8724630  56.7510160 143.6105680
  19.1496730  57.5584690 143.7034920  12.5314540  52.6924160 149.7238590
  12.2461460  52.3279830 150.5617210  12.4693400  51.9604620 149.1101730
  15.9855210  61.1950100 146.5096180  15.2117470  60.6547720 146.3494900
  16.7149840  60.6756710 146.1713940  22.2053130  51.5853420 146.4451960
  21.3917740  51.0866590 146.3697270  22.0115080  52.4251670 146.0288310
  24.9201520  55.9573070 144.7414120  25.8081140  56.2690300 144.5665460
  24.8906610  55.0845320 144.3494700  16.0292610  60.8630480 150.1474990
  16.5471280  60.0598740 150.0931880  15.5776630  60.8009620 150.9891820
  20.9162110  62.1296760 145.4202290  21.2577810  62.8738990 144.9245610
  20.0874820  62.4427880 145.7827120  27.1915790  57.2684910 144.2093980
  27.1079510  57.6999130 143.3590420  27.9109980  57.7283260 144.6420800
  28.2203040  64.1227170 146.9376110  27.5779200  63.4682790 147.2119830
  27.8333700  64.5282260 146.1616780  23.7989520  61.4512600 150.7847800
  24.1513340  60.8540730 150.1249170  22.9151850  61.1256830 150.9556050
  19.8852800  62.2110290 148.1918210  20.5723930  62.7579500 148.5725800
  19.0985220  62.7551020 148.2267820  12.0245200  57.8283110 143.6835290
  12.8940050  58.1107910 143.9671210  11.5335520  58.6418980 143.5684100
  19.1880010  59.2156320 147.8043570  19.6442790  60.0261570 148.0303760
  18.8368220  58.8979460 148.6362060  15.0891790  49.5593970 148.2766090
  14.9606420  49.5511870 149.2251010  14.2653810  49.8977060 147.9257100
  26.6100420  63.0143630 143.4752460  26.3838000  62.2974070 144.0677100
  26.2196620  62.7656070 142.6374210  12.3916450  67.0410490 144.2496920
  12.7514090  67.6399830 143.5954190  12.2508790  67.5870380 145.0231950
  26.1916670  60.9315570 145.1366620  25.9038370  61.3928260 145.9244500
  26.9868840  60.4713340 145.4050840  18.4085070  64.4241690 145.0670590
  18.3995170  65.1571380 144.4515100  17.4883430  64.1773270 145.1597550
  14.0091710  59.6456580 145.8117350  13.4019660  60.3855480 145.8212650
  14.4841060  59.7355940 144.9855550  26.9486530  52.7664340 146.2961800
  26.3199690  52.8710010 145.5820030  26.4538450  52.9861120 147.0855680
  21.3944670  64.4869930 143.7295780  21.4956650  64.2833920 142.7997760
  20.4946410  64.2328210 143.9343560  18.9170560  55.0450290 147.7119680
  18.2086710  55.5136630 148.1533290  19.2015040  54.3872300 148.3464870
  22.9485990  51.7700950 149.1515470  22.8253770  51.7887080 148.2024980
  23.8970550  51.8179890 149.2713870  20.0362780  67.0056250 148.4243450
  20.2904280  66.9677640 147.5022820  19.0875260  66.8789580 148.4171700
  17.1205580  53.3535370 145.0870390  17.9696110  53.7905520 145.0210580
  16.7536850  53.6655630 145.9142450  26.0415360  57.9248130 150.0001960
  25.1005500  57.9398360 150.1749650  26.3559430  57.1384090 150.4462260
  16.0197000  59.6067730 143.5605920  16.7860270  59.4949090 144.1231350
  16.0971690  58.9105700 142.9082690  14.7143760  57.0392800 144.2438810
  14.7947350  56.0920310 144.3556210  15.6063510  57.3699680 144.3499470
  15.5158470  67.1888190 151.3473350  16.2520950  66.6403650 151.6181920
  15.8999390  68.0544200 151.2079340  12.4003950  63.2561760 147.2214860
  11.4743730  63.4982900 147.2120270  12.8660380  64.0836020 147.0999610
  18.6260780  66.3618500 143.1698920  19.4189390  66.6507330 142.7180710
  18.1065130  65.9310670 142.4911400  27.6790950  65.5888630 144.5935660
  27.3932460  65.1753770 143.7789840  27.4810500  66.5176340 144.4736180
  19.1438180  61.5821910 143.0341270  19.0388820  60.9674260 143.7602650
  18.9762400  61.0587800 142.2504280  22.3840910  60.6441940 143.6383260
  21.8351010  61.0911240 144.2826000  23.0060170  60.1391190 144.1620930
  18.0516030  59.6032860 145.5348560  18.4732450  59.4372730 146.3779950
  18.1766870  58.7933090 145.0403700  20.5643670  58.6270470 142.7825660
  21.0849330  57.9119490 142.4166810  21.2112070  59.2656340 143.0826170
  16.9474930  55.6766090 142.4806720  16.7463990  54.8133450 142.8420060
  16.7766980  55.5899450 141.5428320  24.4263240  50.4874320 145.0093600
  24.7065530  49.6442220 145.3653020  23.6528970  50.7197430 145.5232350
  15.7457730  52.7766710 142.4684600  16.0483630  52.7834140 141.5603750
  16.4852320  52.4264570 142.9652260  18.9642660  51.7201330 143.4540800
  18.6164660  51.0425320 142.8743250  19.1655430  51.2590840 144.2684190
  21.1291700  66.7082080 145.0727400  22.0242490  67.0467050 145.0946160
  21.1609330  65.9861490 144.4451680  14.7687860  62.0809130 143.3014400
  15.2062730  62.6238800 143.9571980  15.2535590  61.2556080 143.3110740
  11.9833660  64.8698160 150.7534660  12.3136670  64.0019220 150.5213300
  12.4124660  65.0756680 151.5839620  16.5795580  63.2007170 148.4136630
  16.2791120  63.0772140 149.3140540  16.4733070  62.3415760 148.0052360
  29.3487500  62.9803570 143.1163310  28.5180460  63.0480220 143.5870540
  29.5259330  63.8707690 142.8130170  28.8043960  59.7251050 145.6197510
  29.5662870  60.2947700 145.7257200  28.8198330  59.1578250 146.3905820
  12.3048300  58.2488980 149.8505170  11.6497140  57.9800620 149.2064870
  13.1426250  58.1393460 149.4007150  29.8103930  60.5801150 150.4639440
  30.1812760  59.7968470 150.0575410  30.4505860  61.2690250 150.2856740
  28.8563130  60.0185420 142.7770030  29.1311970  60.9264300 142.6489250
  28.6673870  59.9547950 143.7132020  25.2538740  53.0430270 144.0723660
  25.6723620  52.8561250 143.2320320  24.9474800  52.1909320 144.3826590
  28.7528470  57.9554410 147.7699460  28.3772070  57.1882340 147.3380750
  28.0231590  58.3377110 148.2574390  11.5186380  55.4587910 145.7930500
  10.6150460  55.7218110 145.6182160  12.0027000  55.7299080 145.0130460
  14.0613590  54.5153450 143.7024880  14.7705290  54.0936670 143.2172160
  13.3453530  54.5828680 143.0708230  13.7087750  50.5692780 142.7427530
  14.4315880  51.1101720 143.0608750  13.9812270  50.2956200 141.8669070
  27.5179400  55.4385250 147.0099110  28.0138520  55.2056120 147.7947990
  27.3195470  54.5997090 146.5936750  28.9466560  54.0746200 149.5436790
  28.8365840  53.9202240 150.4819060  29.7074150  53.5467140 149.3012200
  29.8356830  51.9054120 142.7842930  30.7606140  51.7735300 142.5761220
  29.8132620  51.9846940 143.7379380  29.9095320  52.6764780 145.4099640
  29.1146820  52.6109900 145.9392550  30.1138600  53.6115420 145.3984990
  26.8513740  66.7156330 149.4038030  27.4472810  66.3940900 148.7272450
  27.1091890  66.2428150 150.1951300  28.2053820  50.6376900 149.8707290
  28.1442220  49.6938120 149.7238310  28.9845850  50.7456990 150.4160750
  12.5106570  66.7769260 148.8331240  12.3428610  66.1439940 149.5313130
  11.6441080  66.9828660 148.4825430  13.1334590  50.6086040 146.3363100
  13.8913950  50.7214920 145.7627130  12.6711760  51.4455240 146.2906530
  19.6748400  52.7225310 149.3265410  18.8622910  52.3482200 148.9861290
  20.1790040  51.9670390 149.6286600  24.1773380  49.3867760 150.5648480
  24.7802750  49.9587970 151.0397000  23.4366370  49.9507200 150.3422380
  27.3207980  49.7889320 145.8388760  27.5158610  50.6872770 146.1056190
  26.5337850  49.5576400 146.3321710  14.1169270  65.4702490 146.2781380
  13.5916890  65.8510520 145.5743340  14.0413850  66.0953260 146.9991090
  15.5059740  51.1350090 144.8765070  16.0352500  50.3479890 144.7473020
  16.1388060  51.8141280 145.1100600  17.6997580  50.8725230 147.9310460
  17.0700320  50.1712540 148.0980590  17.1602720  51.6329360 147.7143620
  28.8734590  67.0290030 147.5995320  29.0486780  66.3427770 146.9556240
  28.1756160  67.5537080 147.2071990  16.7162240  67.4184870 145.1530630
  17.4481060  67.1344150 144.6054520  16.9755910  67.1798150 146.0430010
  15.8777030  63.5349600 145.1576960  15.2485910  64.0034700 145.7062790
  15.9924860  62.6898820 145.5923150  23.3326750  57.5855260 131.3078160
  23.2520800  56.6709870 131.0369870  22.9191170  58.0822330 130.6017870
  21.4644790  59.3634280 133.1887430  20.6886890  58.8834720 133.4786000
  22.1157720  58.6839930 133.0143590  15.4810620  59.6754090 134.0663190
  14.6495500  59.4202800 134.4659700  16.0891600  59.7464860 134.8021110
  25.4852220  63.7694470 131.9686560  25.0233750  62.9981710 132.2973730
  26.2977770  63.7960540 132.4739010  15.4611880  63.7094180 134.2621210
  15.7639920  62.8191920 134.0831430  16.2055470  64.2664400 134.0343460
  13.8902570  54.6355980 127.8505580  13.0019270  54.9771950 127.7485460
  14.1743760  54.4356300 126.9586410  11.8535580  57.2361630 133.7345280
  12.4251690  56.4683830 133.7348920  11.8537120  57.5350390 132.8251890
  21.7115530  66.0552480 131.5890550  21.0926970  66.5109980 131.0184990
  22.5667310  66.2103940 131.1880250  20.9053780  62.0391470 133.1957590
  20.8362060  61.0981410 133.0346720  21.6673640  62.1292880 133.7680160
  13.0960450  52.6445990 135.5214210  12.9163290  51.7471740 135.8016970
  12.6940530  53.1917860 136.1961160  21.9358950  54.8461850 133.4226520
  22.3123770  53.9733730 133.3100190  21.8378460  55.1820550 132.5316960
  16.0663960  53.2187480 128.8843960  16.1730710  54.1191210 129.1912720
  15.1556320  53.1705450 128.5938610  25.7183070  52.3412290 130.3554860
  26.5392690  51.8508860 130.3980340  25.7517150  52.9309950 131.1086700
  13.7147120  55.1406490 134.1296550  14.3957230  55.4044860 134.7483950
  13.3995170  54.3007360 134.4634560  17.9071690  56.1873850 133.2169140
  18.4149910  56.6854820 133.8574160  18.4384930  55.4109050 133.0408500
  30.0082620  54.3579040 136.9198490  29.3034790  54.7460750 136.4013600
  30.2740540  55.0529330 137.5219420  16.1907790  50.8272410 137.4832560
  16.1926230  51.3444800 136.6778460  15.3612100  50.3502590 137.4602490
  22.5778880  60.9391720 128.9822460  21.9596150  61.4041170 128.4185180
  23.0902130  61.6319200 129.3991970  17.4410640  60.4667590 135.6606060
  17.1080020  61.0936510 136.3027130  17.6177320  60.9929470 134.8807730
  25.9544550  54.2812670 133.1282400  25.2500120  54.5697560 133.7085510
  26.3156710  55.0912780 132.7681960  15.8723120  52.5382370 135.4903010
  16.2139930  53.3824420 135.1956880  14.9338930  52.6866110 135.6068350
  16.6529740  62.4348390 137.4755240  17.2703740  63.1099470 137.1939690
  15.7922860  62.8436370 137.3842740  11.9462080  61.6248250 126.3562090
  11.5690060  62.1135350 125.6246990  12.2035150  62.2973530 126.9868620
  27.5707330  63.8987800 135.3909880  26.8870850  64.5686910 135.3826550
  28.1101620  64.0968450 134.6254740  29.0231470  53.7267460 133.5191610
  28.0756380  53.7606440 133.6507040  29.3481460  54.5406410 133.9040970
  19.5551010  50.0264640 131.8147600  19.8625990  49.4711530 131.0983100
  18.6251710  50.1609100 131.6320590  25.1066070  65.7431930 134.1055060
  25.1193230  65.3394220 133.2377320  24.5541290  66.5179220 134.0016490
  26.4011490  62.4648150 129.1945230  26.2907820  61.5222480 129.3194650
  26.3979740  62.8263790 130.0807990  24.5051510  60.6461770 135.4337670
  24.9220300  60.4321880 134.5991130  25.2291330  60.9034560 136.0046290
  21.9431770  58.0913470 128.5507720  21.0161050  58.0250850 128.7796190
  22.0956590  59.0293600 128.4362960  21.9300850  54.3630470 125.5474880
  20.9904520  54.5244430 125.6327340  22.2484110  55.0816150 125.0010870
  28.4513610  59.0448990 135.5253910  27.6232240  59.1142080 135.0504040
  29.0464090  59.6303300 135.0569740  25.9729060  59.6533770 129.0542970
  25.3541480  59.3153320 128.4069270  25.9553510  59.0093530 129.7622160
  25.4155620  55.8318310 136.4708780  25.0026800  56.6572020 136.7248770
  24.6831570  55.2463350 136.2785140  17.5488410  58.6178210 131.3327450
  17.1445410  57.9055460 130.8373350  17.6351530  58.2731450 132.2215490
  18.0170110  62.3045770 133.4966660  17.7198400  61.6991240 132.8174440
  18.9669930  62.3423080 133.3856020  16.2617030  55.3921420 135.1126490
  16.8131620  55.5016760 134.3379740  16.7760540  55.7659020 135.8281720
  26.1055720  65.8777640 137.1589760  25.6286280  66.6849830 136.9662370
  25.4217510  65.2255970 137.3115970  17.1088540  62.0427460 140.1474460
  16.2117070  62.2667430 140.3947860  17.1341410  62.1662400 139.1985860
  24.1493760  58.8920580 126.0615720  24.5887040  58.0543010 125.9153540
  24.8622180  59.5249980 126.1479860  15.9359760  58.9140780 138.7231830
  15.7967530  59.7863580 139.0919230  15.0541120  58.5713590 138.5779770
  22.2589140  63.8316650 130.0296960  22.6985050  64.5740980 129.6152350
  22.1976030  64.0743220 130.9535920  17.7340110  64.8562480 140.9316980
  17.7055540  65.2605430 140.0645410  17.5705080  63.9272840 140.7688580
  27.7310900  50.1463390 124.3756760  27.4183560  50.2390220 125.2755830
  28.4923370  50.7244420 124.3254190  14.2493040  57.5123190 128.8334100
  14.1290640  58.2385280 128.2215370  13.9393930  56.7426100 128.3562010
  29.6854930  65.6389580 142.2281150  30.1614650  66.1172470 142.9070230
  30.3062090  65.5707070 141.5026650  11.8878410  60.6838330 134.6402740
  11.9658830  60.8187100 133.6958460  12.5020090  59.9754220 134.8330860
  13.1326040  62.3838520 131.0508920  12.7254120  62.5253110 130.1962520
  14.0239050  62.0998680 130.8480130  29.0888180  62.8302430 139.3881160
  29.2151240  62.5914310 138.4698340  29.1309560  61.9986970 139.8603240
  22.9504920  66.5330430 137.9575970  23.4649590  66.4438440 138.7598400
  22.1074000  66.8790130 138.2503880  24.9259320  66.8185770 127.3859970
  24.7660460  66.5288710 128.2841800  24.7606030  66.0425900 126.8505200
  17.4047700  66.5984300 129.1631590  17.2290180  65.6819840 128.9499390
  16.5503440  66.9571590 129.4029390  24.6285450  64.3273330 125.9457970
  23.9350610  64.3250620 125.2860250  25.3708310  63.9032650 125.5152140
  24.1935380  65.9536040 130.0206460  24.6492330  65.1725420 130.3345080
  24.5327900  66.6642860 130.5647640  28.9412190  54.8834890 140.3530900
  28.3256460  55.3914560 139.8246360  28.6208610  53.9833220 140.2956840
  11.9437930  61.7252500 137.1797200  12.1068970  61.2557860 136.3616570
  12.4090380  61.2176060 137.8446040  16.7156700  50.8558260 132.2157770
  16.2724850  51.6367800 131.8842290  17.2741690  51.1788150 132.9228710
  21.0026510  53.7226780 137.8193090  20.5405880  53.9309800 138.6313030
  20.6004620  52.9086130 137.5163760  26.0031020  54.9435730 138.9489750
  25.1524610  54.6441480 139.2698820  25.8432810  55.1877740 138.0373570
  23.0980730  56.4437480 141.0488540  23.4234140  55.6101230 140.7090770
  23.8861060  56.9666000 141.1966870  19.8315520  50.4768960 127.0963600
  19.2069700  50.4728830 127.8216910  19.7445640  49.6099920 126.6999570
  18.7532600  51.4005590 134.0747370  19.0504930  52.3068420 133.9939390
  19.3018160  50.9124370 133.4606940  16.5070920  55.9791830 129.9439020
  16.2811840  55.7629000 130.8485640  15.7263450  56.4120290 129.5984990
  23.7368680  55.9855200 128.5429670  23.1377570  56.7091000 128.3593290
  24.2848290  55.9231980 127.7606120  18.9470130  56.8777410 140.6099290
  18.8513730  55.9372140 140.4599690  19.7902110  57.0992480 140.2147360
  22.3433550  54.6218740 130.5732950  22.7363120  54.9390940 129.7601640
  22.7050400  53.7430620 130.6877470  14.0780670  53.2891080 138.7633070
  13.6844060  54.1366290 138.9705850  13.3899070  52.6517450 138.9541710
  20.6525720  53.3726050 141.8329810  19.9624040  53.1798250 142.4675900
  21.3958020  53.6560690 142.3654110  11.3797720  51.2119540 132.7963150
  11.0910770  51.7822400 133.5088130  12.1243480  50.7323990 133.1594380
  11.5667950  55.1539660 124.0065870  11.4842620  56.0970420 124.1480860
  11.2151010  55.0114570 123.1278220  22.9288690  57.2124490 134.6683730
  22.1969810  57.7211300 135.0173830  22.5313030  56.3954470 134.3672510
  19.3666080  53.8878690 133.0736220  19.3702140  53.4468640 132.2240760
  20.2617200  54.2096020 133.1808040  15.2168460  53.7705180 132.0330430
  14.8768510  54.2480410 132.7897480  14.4545780  53.3170300 131.6731530
  19.4286230  54.8890770 126.0642980  19.5499050  54.8477250 127.0128800
  19.0434740  55.7514920 125.9089710  23.3914600  52.6658170 134.0806670
  23.4087340  53.1166820 134.9248520  23.1430180  51.7663810 134.2940110
  18.4407730  57.1991910 125.4626280  17.8724630  56.7510160 124.8362190
  19.1496730  57.5584690 124.9291430  26.8185350  50.0790350 139.9193050
  27.1431120  49.3480010 140.4451030  26.8541860  49.7603990 139.0174040
  13.5176910  61.1003930 139.3393010  13.1331700  60.4597600 139.9375970
  13.8289100  61.8040050 139.9087740  19.6674050  57.9480470 134.8201630
  20.0344180  57.4739040 135.5662970  19.4779110  58.8222040 135.1609970
  12.5314540  52.6924160 130.9495100  12.2461460  52.3279830 131.7873720
  12.4693400  51.9604620 130.3358240  17.4573420  56.9889110 137.1385840
  17.1530490  57.8681090 137.3636200  18.4119880  57.0488900 137.1743280
  15.9855210  61.1950100 127.7352690  15.2117470  60.6547720 127.5751410
  16.7149840  60.6756710 127.3970450  26.7443190  60.1915460 133.5279080
  27.4642310  60.6870750 133.1375190  26.5425010  59.5133350 132.8832950
  22.2053130  51.5853420 127.6708470  21.3917740  51.0866590 127.5953780
  22.0115080  52.4251670 127.2544820  22.1261990  60.2624520 139.4148080
  22.0599300  59.3420190 139.1605670  21.4967130  60.3599960 140.1292720
  24.9201520  55.9573070 125.9670630  25.8081140  56.2690300 125.7921970
  24.8906610  55.0845320 125.5751210  16.0292610  60.8630480 131.3731500
  16.5471280  60.0598740 131.3188390  15.5776630  60.8009620 132.2148330
  20.9162110  62.1296760 126.6458800  21.2577810  62.8738990 126.1502120
  20.0874820  62.4427880 127.0083630  13.5137150  57.8291850 138.2857200
  13.1552090  58.4945700 138.8730540  13.2191710  56.9975400 138.6569820
  16.7150270  58.2876090 141.1696750  16.4150410  58.4333270 140.2724570
  17.4861510  57.7281380 141.0770140  22.0578720  63.0845090 139.1651880
  22.0723260  62.1526050 138.9470790  21.3503820  63.1704850 139.8041650
  27.1915790  57.2684910 125.4350490  27.1079510  57.6999130 124.5846930
  27.9109980  57.7283260 125.8677310  28.2689930  59.7252430 138.5120460
  27.5438120  60.3181210 138.3149850  28.7965390  59.7175970 137.7133830
  28.2203040  64.1227170 128.1632620  27.5779200  63.4682790 128.4376340
  27.8333700  64.5282260 127.3873290  23.7989520  61.4512600 132.0104310
  24.1513340  60.8540730 131.3505680  22.9151850  61.1256830 132.1812560
  19.8852800  62.2110290 129.4174720  20.5723930  62.7579500 129.7982310
  19.0985220  62.7551020 129.4524330  12.0245200  57.8283110 124.9091800
  12.8940050  58.1107910 125.1927720  11.5335520  58.6418980 124.7940610
  19.1880010  59.2156320 129.0300080  19.6442790  60.0261570 129.2560270
  18.8368220  58.8979460 129.8618570  21.4912620  64.7262660 136.2592380
  22.1354840  64.9322040 136.9365800  21.8542060  63.9651060 135.8063230
  15.0891790  49.5593970 129.5022600  14.9606420  49.5511870 130.4507520
  14.2653810  49.8977060 129.1513610  22.7644700  62.7295010 134.9769830
  23.4066930  62.0288170 135.0902000  23.2894050  63.5093450 134.7966720
  26.6100420  63.0143630 124.7008970  26.3838000  62.2974070 125.2933610
  26.2196620  62.7656070 123.8630720  24.5382320  63.5289910 138.1805890
  24.8738560  64.1156600 138.8583810  23.6182660  63.3982620 138.4103680
  12.3916450  67.0410490 125.4753430  12.7514090  67.6399830 124.8210700
  12.2508790  67.5870380 126.2488460  12.0885720  51.3185090 138.9629300
  11.3744240  51.5182010 139.5681910  12.5080760  50.5424660 139.3344100
  26.1916670  60.9315570 126.3623130  25.9038370  61.3928260 127.1501010
  26.9868840  60.4713340 126.6307350  12.3758310  65.3065350 139.9495830
  12.4849430  64.3660090 139.8091220  11.7238870  65.5720100 139.3009560
  20.3670900  63.5781240 141.3493950  20.0467770  62.8590480 141.8939640
  19.6929260  64.2536310 141.4230010  18.4085070  64.4241690 126.2927100
  18.3995170  65.1571380 125.6771610  17.4883430  64.1773270 126.3854060
  14.0091710  59.6456580 127.0373860  13.4019660  60.3855480 127.0469160
  14.4841060  59.7355940 126.2112060  23.5824500  53.8107400 136.7130750
  23.9505320  52.9902610 137.0410320  22.7222700  53.8709290 137.1286400
  26.9486530  52.7664340 127.5218310  26.3199690  52.8710010 126.8076540
  26.4538450  52.9861120 128.3112190  21.3944670  64.4869930 124.9552290
  21.4956650  64.2833920 124.0254270  20.4946410  64.2328210 125.1600070
  18.9170560  55.0450290 128.9376190  18.2086710  55.5136630 129.3789800
  19.2015040  54.3872300 129.5721380  20.5426490  56.4646990 136.9368720
  21.0411740  56.9392810 137.6020570  20.6849440  55.5410510 137.1438750
  22.9485990  51.7700950 130.3771980  22.8253770  51.7887080 129.4281490
  23.8970550  51.8179890 130.4970380  20.0362780  67.0056250 129.6499960
  20.2904280  66.9677640 128.7279330  19.0875260  66.8789580 129.6428210
  17.1205580  53.3535370 126.3126900  17.9696110  53.7905520 126.2467090
  16.7536850  53.6655630 127.1398960  27.7493350  52.6814950 137.7797110
  27.2466950  53.4220350 138.1190920  28.5650010  53.0698950 137.4633900
  26.0415360  57.9248130 131.2258470  25.1005500  57.9398360 131.4006160
  26.3559430  57.1384090 131.6718770  16.0197000  59.6067730 124.7862430
  16.7860270  59.4949090 125.3487860  16.0971690  58.9105700 124.1339200
  14.7143760  57.0392800 125.4695320  14.7947350  56.0920310 125.5812720
  15.6063510  57.3699680 125.5755980  28.0440940  65.0956980 132.9012730
  28.1688360  65.9188150 133.3736540  28.9106500  64.8847710 132.5536880
  15.5158470  67.1888190 132.5729860  16.2520950  66.6403650 132.8438430
  15.8999390  68.0544200 132.4335850  12.4003950  63.2561760 128.4471370
  11.4743730  63.4982900 128.4376780  12.8660380  64.0836020 128.3256120
  14.5216750  66.3734260 141.7615440  15.3229480  66.6946310 142.1750840
  14.0068570  66.0129840 142.4835350  18.6260780  66.3618500 124.3955430
  19.4189390  66.6507330 123.9437220  18.1065130  65.9310670 123.7167910
  23.3581380  62.4814130 141.7090850  22.7519540  62.5045730 140.9686600
  23.0535490  61.7497170 142.2458100  24.7881750  66.2094420 140.3200260
  25.7403500  66.1252440 140.2700500  24.6409970  66.8736130 140.9934050
  27.6790950  65.5888630 125.8192170  27.3932460  65.1753770 125.0046350
  27.4810500  66.5176340 125.6992690  12.2414560  58.8607720 140.7051490
  12.7453580  58.2815000 141.2767720  11.5021980  59.1447950 141.2427860
  19.1438180  61.5821910 124.2597780  19.0388820  60.9674260 124.9859160
  18.9762400  61.0587800 123.4760790  19.2952500  60.2678710 140.2387010
  18.5298170  60.8363710 140.1541680  19.4768460  59.9754920 139.3455240
  22.3840910  60.6441940 124.8639770  21.8351010  61.0911240 125.5082510
  23.0060170  60.1391190 125.3877440  26.4375850  61.9984040 140.7962030
  27.1785320  62.3359800 140.2929490  25.6748530  62.1676100 140.2431800
  14.2737640  57.0037310 141.6001560  14.3142980  56.7051180 142.5086790
  15.1283140  57.4044920 141.4409080  18.0516030  59.6032860 126.7605070
  18.4732450  59.4372730 127.6036460  18.1766870  58.7933090 126.2660210
  16.2143450  55.5829410 139.5676050  15.6839910  55.0920360 138.9399390
  16.8831520  56.0113610 139.0333980  20.5643670  58.6270470 124.0082170
  21.0849330  57.9119490 123.6423320  21.2112070  59.2656340 124.3082680
  25.1121510  60.0498870 139.3317240  25.5262530  60.2043950 140.1807660
  24.1772510  60.1754090 139.4943020  25.5843680  57.3895030 141.3356390
  26.1664450  56.6347350 141.2476870  25.7605450  57.9202470 140.5587870
  16.7015750  52.5491780 139.6473340  16.6072620  51.9312530 138.9224210
  16.1213140  53.2758070 139.4203250  19.4677190  51.1065020 136.6800730
  19.0194490  51.1289280 135.8346280  18.8342390  50.7084040 137.2771030
  19.8736740  60.0019350 137.3013170  20.2924850  60.8452080 137.1289410
  18.9545370  60.1391390 137.0719950  22.2100640  57.7335530 138.6851010
  22.3296850  57.1376670 139.4245850  23.0694640  57.7705220 138.2652310
  24.5488540  58.2872720 137.2613520  24.0223760  58.8115340 136.6578660
  24.8919880  58.9200110 137.8923250  16.9474930  55.6766090 123.7063230
  16.7463990  54.8133450 124.0676570  16.7766980  55.5899450 122.7684830
  17.7244160  66.3072360 138.4170900  17.1865250  67.0318420 138.0979600
  17.9778120  65.8302700 137.6268240  18.9769410  54.2756880 139.9426830
  19.5669100  53.9672730 140.6304650  18.1589650  53.8036630 140.0986730
  23.7962840  53.8922690 140.1759850  23.1078360  53.2304230 140.1109840
  24.5168860  53.4460960 140.6208310  24.4263240  50.4874320 126.2350110
  24.7065530  49.6442220 126.5909530  23.6528970  50.7197430 126.7488860
  15.7457730  52.7766710 123.6941110  16.0483630  52.7834140 122.7860260
  16.4852320  52.4264570 124.1908770  20.5806370  67.5423570 138.6757550
  20.5065070  68.4458710 138.9829920  19.6785210  67.2235470 138.6479620
  18.9642660  51.7201330 124.6797310  18.6164660  51.0425320 124.0999760
  19.1655430  51.2590840 125.4940700  21.1291700  66.7082080 126.2983910
  22.0242490  67.0467050 126.3202670  21.1609330  65.9861490 125.6708190
  14.7687860  62.0809130 124.5270910  15.2062730  62.6238800 125.1828490
  15.2535590  61.2556080 124.5367250  11.9833660  64.8698160 131.9791170
  12.3136670  64.0019220 131.7469810  12.4124660  65.0756680 132.8096130
  16.5795580  63.2007170 129.6393140  16.2791120  63.0772140 130.5397050
  16.4733070  62.3415760 129.2308870  12.4723870  65.7368750 134.7172800
  12.0354860  65.9169550 135.5496950  13.0401550  66.4943370 134.5754520
  28.1086050  65.2385750 139.0050110  27.5088040  65.2978310 138.2614030
  28.2379950  64.2990730 139.1346960  29.3487500  62.9803570 124.3419820
  28.5180460  63.0480220 124.8127050  29.5259330  63.8707690 124.0386680
  28.8043960  59.7251050 126.8454020  29.5662870  60.2947700 126.9513710
  28.8198330  59.1578250 127.6162330  12.3048300  58.2488980 131.0761680
  11.6497140  57.9800620 130.4321380  13.1426250  58.1393460 130.6263660
  29.8103930  60.5801150 131.6895950  30.1812760  59.7968470 131.2831920
  30.4505860  61.2690250 131.5113250  26.7937690  61.9637730 137.1026270
  25.9797530  62.3934890 137.3652060  27.2011890  62.5756140 136.4895320
  28.8563130  60.0185420 124.0026540  29.1311970  60.9264300 123.8745760
  28.6673870  59.9547950 124.9388530  25.2538740  53.0430270 125.2980170
  25.6723620  52.8561250 124.4576830  24.9474800  52.1909320 125.6083100
  28.7528470  57.9554410 128.9955970  28.3772070  57.1882340 128.5637260
  28.0231590  58.3377110 129.4830900  13.3424230  58.6341550 135.6165020
  13.7097270  58.5468950 136.4961040  12.7735050  57.8708100 135.5171880
  28.1428090  57.1025930 138.6295490  27.9114180  56.8738680 137.7293440
  28.4032640  58.0225480 138.5840380  12.8940230  55.5450640 139.5223440
  11.9996280  55.5117400 139.8617150  13.4337780  55.7437430 140.2874690
  26.5816160  52.3282360 141.4075190  27.4586340  52.3365760 141.7909190
  26.5937000  51.5913200 140.7967540  11.5186380  55.4587910 127.0187010
  10.6150460  55.7218110 126.8438670  12.0027000  55.7299080 126.2386970
  28.0279430  56.1811900 132.2963210  28.5516910  55.6874550 131.6653380
  28.6138850  56.3162260 133.0410780  28.2069150  56.2651770 135.8182760
  27.2571860  56.2315310 135.9327750  28.3882160  57.1751880 135.5832530
  14.0613590  54.5153450 124.9281390  14.7705290  54.0936670 124.4428670
  13.3453530  54.5828680 124.2964740  13.7087750  50.5692780 123.9684040
  14.4315880  51.1101720 124.2865260  13.9812270  50.2956200 123.0925580
  27.5179400  55.4385250 128.2355620  28.0138520  55.2056120 129.0204500
  27.3195470  54.5997090 127.8193260  13.3979940  49.8198970 133.8706660
  14.0456130  49.2696350 133.4301820  13.8181780  50.0742120 134.6922470
  28.9466560  54.0746200 130.7693300  28.8365840  53.9202240 131.7075570
  29.7074150  53.5467140 130.5268710  27.2932280  50.0140330 137.2276300
  27.9304500  50.6274470 137.5935490  27.4407170  50.0500990 136.2825530
  29.8356830  51.9054120 124.0099440  30.7606140  51.7735300 123.8017730
  29.8132620  51.9846940 124.9635890  29.9095320  52.6764780 126.6356150
  29.1146820  52.6109900 127.1649060  30.1138600  53.6115420 126.6241500
  26.8513740  66.7156330 130.6294540  27.4472810  66.3940900 129.9528960
  27.1091890  66.2428150 131.4207810  13.1511940  49.9754640 136.6131980
  12.8026760  50.4318460 137.3790160  12.8199640  49.0811770 136.6954410
  14.7576310  63.1474240 140.7785170  14.7145940  62.7767150 141.6599630
  14.8887320  64.0851810 140.9186990  18.4582340  64.7033830 136.3794890
  18.2173700  64.9708390 135.4925410  19.3984980  64.8739560 136.4345750
  20.6636760  51.1666520 140.1351400  20.6025650  51.7588350 140.8846810
  21.6037140  51.0592480 139.9901660  23.3011320  50.8236580 139.7743690
  23.9151730  51.1415870 139.1124770  23.8460880  50.3385170 140.3939550
  29.7186500  66.7228210 137.1805530  29.2244780  67.1197080 136.4632660
  29.1099790  66.0977420 137.5742810  13.8232580  49.5030840 139.8882750
  14.3715570  49.3218890 139.1248860  13.8887890  48.7124950 140.4239060
  14.5964340  66.0936490 137.8982950  14.0024660  65.9621190 138.6372990
  14.5888180  65.2574630 137.4325050  24.0419360  49.3868720 136.1012980
  23.1679200  49.7203830 135.8985910  23.9330110  48.9141900 136.9264850
  24.9491340  51.5939590 137.4854700  24.6204700  50.7791350 137.1056430
  25.8973640  51.5509400 137.3620390  27.4025950  67.3651630 134.4592270
  26.9428920  68.1167440 134.0850290  26.7738410  66.6458100 134.4007070
  14.2276570  63.4594870 136.8490990  13.5010630  62.8400160 136.7816940
  14.2885720  63.8535480 135.9789070  17.8321670  65.6739870 133.6340400
  18.3486690  65.0627230 133.1088660  18.4819050  66.1768650 134.1251410
  20.5717170  66.5648360 134.4609380  20.8594980  66.3102660 133.5842390
  21.0840390  66.0125720 135.0514950  21.7894180  50.3038560 135.0405890
  21.0065970  50.7784060 135.3202650  21.4957110  49.3993390 134.9319070
  26.3415250  51.0061660 133.0854980  26.7823340  50.9506760 132.2376580
  26.0722840  51.9219670 133.1565160  28.2053820  50.6376900 131.0963800
  28.1442220  49.6938120 130.9494820  28.9845850  50.7456990 131.6417260
  12.5106570  66.7769260 130.0587750  12.3428610  66.1439940 130.7569640
  11.6441080  66.9828660 129.7081940  13.1334590  50.6086040 127.5619610
  13.8913950  50.7214920 126.9883640  12.6711760  51.4455240 127.5163040
  19.6748400  52.7225310 130.5521920  18.8622910  52.3482200 130.2117800
  20.1790040  51.9670390 130.8543110  24.1773380  49.3867760 131.7904990
  24.7802750  49.9587970 132.2653510  23.4366370  49.9507200 131.5678890
  27.3207980  49.7889320 127.0645270  27.5158610  50.6872770 127.3312700
  26.5337850  49.5576400 127.5578220  14.1169270  65.4702490 127.5037890
  13.5916890  65.8510520 126.7999850  14.0413850  66.0953260 128.2247600
  15.5059740  51.1350090 126.1021580  16.0352500  50.3479890 125.9729530
  16.1388060  51.8141280 126.3357110  17.6997580  50.8725230 129.1566970
  17.0700320  50.1712540 129.3237100  17.1602720  51.6329360 128.9400130
  20.6389530  67.4864460 141.8277580  21.5656840  67.2508730 141.8713540
  20.6239960  68.3136460 141.3463610  28.8734590  67.0290030 128.8251830
  29.0486780  66.3427770 128.1812750  28.1756160  67.5537080 128.4328500
  17.8253140  50.1509210 141.5919460  17.5437410  50.6542810 140.8280280
  18.2072840  49.3530960 141.2261590  16.7162240  67.4184870 126.3787140
  17.4481060  67.1344150 125.8311030  16.9755910  67.1798150 127.2686520
  15.8777030  63.5349600 126.3833470  15.2485910  64.0034700 126.9319300
  15.9924860  62.6898820 126.8179660  24.4268600  49.5662790 142.1699930
  24.3134050  49.8857400 143.0651450  25.2438340  49.9675300 141.8737210
  27.2067090  66.7134320 141.6518620  27.9992410  66.2183550 141.4444580
  27.5000240  67.3924460 142.2594230  23.3326750  57.5855260 112.5334670
  23.2520800  56.6709870 112.2626380  22.9191170  58.0822330 111.8274380
  21.4644790  59.3634280 114.4143940  20.6886890  58.8834720 114.7042510
  22.1157720  58.6839930 114.2400100  15.4810620  59.6754090 115.2919700
  14.6495500  59.4202800 115.6916210  16.0891600  59.7464860 116.0277620
  15.4611880  63.7094180 115.4877720  15.7639920  62.8191920 115.3087940
  16.2055470  64.2664400 115.2599970  13.8902570  54.6355980 109.0762090
  13.0019270  54.9771950 108.9741970  14.1743760  54.4356300 108.1842920
  11.8535580  57.2361630 114.9601790  12.4251690  56.4683830 114.9605430
  11.8537120  57.5350390 114.0508400  20.9053780  62.0391470 114.4214100
  20.8362060  61.0981410 114.2603230  21.6673640  62.1292880 114.9936670
  13.0960450  52.6445990 116.7470720  12.9163290  51.7471740 117.0273480
  12.6940530  53.1917860 117.4217670  21.9358950  54.8461850 114.6483030
  22.3123770  53.9733730 114.5356700  21.8378460  55.1820550 113.7573470
  16.0663960  53.2187480 110.1100470  16.1730710  54.1191210 110.4169230
  15.1556320  53.1705450 109.8195120  25.7183070  52.3412290 111.5811370
  26.5392690  51.8508860 111.6236850  25.7517150  52.9309950 112.3343210
  13.7147120  55.1406490 115.3553060  14.3957230  55.4044860 115.9740460
  13.3995170  54.3007360 115.6891070  17.9071690  56.1873850 114.4425650
  18.4149910  56.6854820 115.0830670  18.4384930  55.4109050 114.2665010
  16.1907790  50.8272410 118.7089070  16.1926230  51.3444800 117.9034970
  15.3612100  50.3502590 118.6859000  17.4410640  60.4667590 116.8862570
  17.1080020  61.0936510 117.5283640  17.6177320  60.9929470 116.1064240
  25.9544550  54.2812670 114.3538910  25.2500120  54.5697560 114.9342020
  26.3156710  55.0912780 113.9938470  15.8723120  52.5382370 116.7159520
  16.2139930  53.3824420 116.4213390  14.9338930  52.6866110 116.8324860
  16.6529740  62.4348390 118.7011750  17.2703740  63.1099470 118.4196200
  15.7922860  62.8436370 118.6099250  11.9462080  61.6248250 107.5818600
  11.5690060  62.1135350 106.8503500  12.2035150  62.2973530 108.2125130
  29.0231470  53.7267460 114.7448120  28.0756380  53.7606440 114.8763550
  29.3481460  54.5406410 115.1297480  19.5551010  50.0264640 113.0404110
  19.8625990  49.4711530 112.3239610  18.6251710  50.1609100 112.8577100
  24.5051510  60.6461770 116.6594180  24.9220300  60.4321880 115.8247640
  25.2291330  60.9034560 117.2302800  21.9431770  58.0913470 109.7764230
  21.0161050  58.0250850 110.0052700  22.0956590  59.0293600 109.6619470
  21.9300850  54.3630470 106.7731390  20.9904520  54.5244430 106.8583850
  22.2484110  55.0816150 106.2267380  25.4155620  55.8318310 117.6965290
  25.0026800  56.6572020 117.9505280  24.6831570  55.2463350 117.5041650
  17.5488410  58.6178210 112.5583960  17.1445410  57.9055460 112.0629860
  17.6351530  58.2731450 113.4472000  18.0170110  62.3045770 114.7223170
  17.7198400  61.6991240 114.0430950  18.9669930  62.3423080 114.6112530
  16.2617030  55.3921420 116.3383000  16.8131620  55.5016760 115.5636250
  16.7760540  55.7659020 117.0538230  17.1088540  62.0427460 121.3730970
  16.2117070  62.2667430 121.6204370  17.1341410  62.1662400 120.4242370
  24.1493760  58.8920580 107.2872230  24.5887040  58.0543010 107.1410050
  24.8622180  59.5249980 107.3736370  15.9359760  58.9140780 119.9488340
  15.7967530  59.7863580 120.3175740  15.0541120  58.5713590 119.8036280
  17.7340110  64.8562480 122.1573490  17.7055540  65.2605430 121.2901920
  17.5705080  63.9272840 121.9945090  14.2493040  57.5123190 110.0590610
  14.1290640  58.2385280 109.4471880  13.9393930  56.7426100 109.5818520
  29.6854930  65.6389580 123.4537660  30.1614650  66.1172470 124.1326740
  30.3062090  65.5707070 122.7283160  11.8878410  60.6838330 115.8659250
  11.9658830  60.8187100 114.9214970  12.5020090  59.9754220 116.0587370
  13.1326040  62.3838520 112.2765430  12.7254120  62.5253110 111.4219030
  14.0239050  62.0998680 112.0736640  29.0888180  62.8302430 120.6137670
  29.2151240  62.5914310 119.6954850  29.1309560  61.9986970 121.0859750
  22.9504920  66.5330430 119.1832480  23.4649590  66.4438440 119.9854910
  22.1074000  66.8790130 119.4760390  17.4047700  66.5984300 110.3888100
  17.2290180  65.6819840 110.1755900  16.5503440  66.9571590 110.6285900
  28.9412190  54.8834890 121.5787410  28.3256460  55.3914560 121.0502870
  28.6208610  53.9833220 121.5213350  11.9437930  61.7252500 118.4053710
  12.1068970  61.2557860 117.5873080  12.4090380  61.2176060 119.0702550
  16.7156700  50.8558260 113.4414280  16.2724850  51.6367800 113.1098800
  17.2741690  51.1788150 114.1485220  21.0026510  53.7226780 119.0449600
  20.5405880  53.9309800 119.8569540  20.6004620  52.9086130 118.7420270
  26.0031020  54.9435730 120.1746260  25.1524610  54.6441480 120.4955330
  25.8432810  55.1877740 119.2630080  23.0980730  56.4437480 122.2745050
  23.4234140  55.6101230 121.9347280  23.8861060  56.9666000 122.4223380
  19.8315520  50.4768960 108.3220110  19.2069700  50.4728830 109.0473420
  19.7445640  49.6099920 107.9256080  18.7532600  51.4005590 115.3003880
  19.0504930  52.3068420 115.2195900  19.3018160  50.9124370 114.6863450
  16.5070920  55.9791830 111.1695530  16.2811840  55.7629000 112.0742150
  15.7263450  56.4120290 110.8241500  23.7368680  55.9855200 109.7686180
  23.1377570  56.7091000 109.5849800  24.2848290  55.9231980 108.9862630
  18.9470130  56.8777410 121.8355800  18.8513730  55.9372140 121.6856200
  19.7902110  57.0992480 121.4403870  22.3433550  54.6218740 111.7989460
  22.7363120  54.9390940 110.9858150  22.7050400  53.7430620 111.9133980
  14.0780670  53.2891080 119.9889580  13.6844060  54.1366290 120.1962360
  13.3899070  52.6517450 120.1798220  20.6525720  53.3726050 123.0586320
  19.9624040  53.1798250 123.6932410  21.3958020  53.6560690 123.5910620
  11.3797720  51.2119540 114.0219660  11.0910770  51.7822400 114.7344640
  12.1243480  50.7323990 114.3850890  11.5667950  55.1539660 105.2322380
  11.4842620  56.0970420 105.3737370  11.2151010  55.0114570 104.3534730
  22.9288690  57.2124490 115.8940240  22.1969810  57.7211300 116.2430340
  22.5313030  56.3954470 115.5929020  19.3666080  53.8878690 114.2992730
  19.3702140  53.4468640 113.4497270  20.2617200  54.2096020 114.4064550
  15.2168460  53.7705180 113.2586940  14.8768510  54.2480410 114.0153990
  14.4545780  53.3170300 112.8988040  19.4286230  54.8890770 107.2899490
  19.5499050  54.8477250 108.2385310  19.0434740  55.7514920 107.1346220
  23.3914600  52.6658170 115.3063180  23.4087340  53.1166820 116.1505030
  23.1430180  51.7663810 115.5196620  18.4407730  57.1991910 106.6882790
  17.8724630  56.7510160 106.0618700  19.1496730  57.5584690 106.1547940
  26.8185350  50.0790350 121.1449560  27.1431120  49.3480010 121.6707540
  26.8541860  49.7603990 120.2430550  13.5176910  61.1003930 120.5649520
  13.1331700  60.4597600 121.1632480  13.8289100  61.8040050 121.1344250
  19.6674050  57.9480470 116.0458140  20.0344180  57.4739040 116.7919480
  19.4779110  58.8222040 116.3866480  12.5314540  52.6924160 112.1751610
  12.2461460  52.3279830 113.0130230  12.4693400  51.9604620 111.5614750
  17.4573420  56.9889110 118.3642350  17.1530490  57.8681090 118.5892710
  18.4119880  57.0488900 118.3999790  15.9855210  61.1950100 108.9609200
  15.2117470  60.6547720 108.8007920  16.7149840  60.6756710 108.6226960
  26.7443190  60.1915460 114.7535590  27.4642310  60.6870750 114.3631700
  26.5425010  59.5133350 114.1089460  22.2053130  51.5853420 108.8964980
  21.3917740  51.0866590 108.8210290  22.0115080  52.4251670 108.4801330
  22.1261990  60.2624520 120.6404590  22.0599300  59.3420190 120.3862180
  21.4967130  60.3599960 121.3549230  24.9201520  55.9573070 107.1927140
  25.8081140  56.2690300 107.0178480  24.8906610  55.0845320 106.8007720
  16.0292610  60.8630480 112.5988010  16.5471280  60.0598740 112.5444900
  15.5776630  60.8009620 113.4404840  13.5137150  57.8291850 119.5113710
  13.1552090  58.4945700 120.0987050  13.2191710  56.9975400 119.8826330
  16.7150270  58.2876090 122.3953260  16.4150410  58.4333270 121.4981080
  17.4861510  57.7281380 122.3026650  22.0578720  63.0845090 120.3908390
  22.0723260  62.1526050 120.1727300  21.3503820  63.1704850 121.0298160
  27.1915790  57.2684910 106.6607000  27.1079510  57.6999130 105.8103440
  27.9109980  57.7283260 107.0933820  28.2689930  59.7252430 119.7376970
  27.5438120  60.3181210 119.5406360  28.7965390  59.7175970 118.9390340
  19.8852800  62.2110290 110.6431230  20.5723930  62.7579500 111.0238820
  19.0985220  62.7551020 110.6780840  12.0245200  57.8283110 106.1348310
  12.8940050  58.1107910 106.4184230  11.5335520  58.6418980 106.0197120
  19.1880010  59.2156320 110.2556590  19.6442790  60.0261570 110.4816780
  18.8368220  58.8979460 111.0875080  21.4912620  64.7262660 117.4848890
  22.1354840  64.9322040 118.1622310  21.8542060  63.9651060 117.0319740
  15.0891790  49.5593970 110.7279110  14.9606420  49.5511870 111.6764030
  14.2653810  49.8977060 110.3770120  22.7644700  62.7295010 116.2026340
  23.4066930  62.0288170 116.3158510  23.2894050  63.5093450 116.0223230
  24.5382320  63.5289910 119.4062400  24.8738560  64.1156600 120.0840320
  23.6182660  63.3982620 119.6360190  12.3916450  67.0410490 106.7009940
  12.7514090  67.6399830 106.0467210  12.2508790  67.5870380 107.4744970
  12.0885720  51.3185090 120.1885810  11.3744240  51.5182010 120.7938420
  12.5080760  50.5424660 120.5600610  12.3758310  65.3065350 121.1752340
  12.4849430  64.3660090 121.0347730  11.7238870  65.5720100 120.5266070
  20.3670900  63.5781240 122.5750460  20.0467770  62.8590480 123.1196150
  19.6929260  64.2536310 122.6486520  18.4085070  64.4241690 107.5183610
  18.3995170  65.1571380 106.9028120  17.4883430  64.1773270 107.6110570
  14.0091710  59.6456580 108.2630370  13.4019660  60.3855480 108.2725670
  14.4841060  59.7355940 107.4368570  23.5824500  53.8107400 117.9387260
  23.9505320  52.9902610 118.2666830  22.7222700  53.8709290 118.3542910
  26.9486530  52.7664340 108.7474820  26.3199690  52.8710010 108.0333050
  26.4538450  52.9861120 109.5368700  18.9170560  55.0450290 110.1632700
  18.2086710  55.5136630 110.6046310  19.2015040  54.3872300 110.7977890
  20.5426490  56.4646990 118.1625230  21.0411740  56.9392810 118.8277080
  20.6849440  55.5410510 118.3695260  22.9485990  51.7700950 111.6028490
  22.8253770  51.7887080 110.6538000  23.8970550  51.8179890 111.7226890
  17.1205580  53.3535370 107.5383410  17.9696110  53.7905520 107.4723600
  16.7536850  53.6655630 108.3655470  27.7493350  52.6814950 119.0053620
  27.2466950  53.4220350 119.3447430  28.5650010  53.0698950 118.6890410
  26.0415360  57.9248130 112.4514980  25.1005500  57.9398360 112.6262670
  26.3559430  57.1384090 112.8975280  16.0197000  59.6067730 106.0118940
  16.7860270  59.4949090 106.5744370  16.0971690  58.9105700 105.3595710
  14.7143760  57.0392800 106.6951830  14.7947350  56.0920310 106.8069230
  15.6063510  57.3699680 106.8012490  15.5158470  67.1888190 113.7986370
  16.2520950  66.6403650 114.0694940  15.8999390  68.0544200 113.6592360
  12.4003950  63.2561760 109.6727880  11.4743730  63.4982900 109.6633290
  12.8660380  64.0836020 109.5512630  14.5216750  66.3734260 122.9871950
  15.3229480  66.6946310 123.4007350  14.0068570  66.0129840 123.7091860
  18.6260780  66.3618500 105.6211940  19.4189390  66.6507330 105.1693730
  18.1065130  65.9310670 104.9424420  23.3581380  62.4814130 122.9347360
  22.7519540  62.5045730 122.1943110  23.0535490  61.7497170 123.4714610
  24.7881750  66.2094420 121.5456770  25.7403500  66.1252440 121.4957010
  24.6409970  66.8736130 122.2190560  27.6790950  65.5888630 107.0448680
  27.3932460  65.1753770 106.2302860  27.4810500  66.5176340 106.9249200
  12.2414560  58.8607720 121.9308000  12.7453580  58.2815000 122.5024230
  11.5021980  59.1447950 122.4684370  19.1438180  61.5821910 105.4854290
  19.0388820  60.9674260 106.2115670  18.9762400  61.0587800 104.7017300
  19.2952500  60.2678710 121.4643520  18.5298170  60.8363710 121.3798190
  19.4768460  59.9754920 120.5711750  22.3840910  60.6441940 106.0896280
  21.8351010  61.0911240 106.7339020  23.0060170  60.1391190 106.6133950
  26.4375850  61.9984040 122.0218540  27.1785320  62.3359800 121.5186000
  25.6748530  62.1676100 121.4688310  14.2737640  57.0037310 122.8258070
  14.3142980  56.7051180 123.7343300  15.1283140  57.4044920 122.6665590
  18.0516030  59.6032860 107.9861580  18.4732450  59.4372730 108.8292970
  18.1766870  58.7933090 107.4916720  16.2143450  55.5829410 120.7932560
  15.6839910  55.0920360 120.1655900  16.8831520  56.0113610 120.2590490
  20.5643670  58.6270470 105.2338680  21.0849330  57.9119490 104.8679830
  21.2112070  59.2656340 105.5339190  25.1121510  60.0498870 120.5573750
  25.5262530  60.2043950 121.4064170  24.1772510  60.1754090 120.7199530
  25.5843680  57.3895030 122.5612900  26.1664450  56.6347350 122.4733380
  25.7605450  57.9202470 121.7844380  16.7015750  52.5491780 120.8729850
  16.6072620  51.9312530 120.1480720  16.1213140  53.2758070 120.6459760
  19.4677190  51.1065020 117.9057240  19.0194490  51.1289280 117.0602790
  18.8342390  50.7084040 118.5027540  19.8736740  60.0019350 118.5269680
  20.2924850  60.8452080 118.3545920  18.9545370  60.1391390 118.2976460
  22.2100640  57.7335530 119.9107520  22.3296850  57.1376670 120.6502360
  23.0694640  57.7705220 119.4908820  24.5488540  58.2872720 118.4870030
  24.0223760  58.8115340 117.8835170  24.8919880  58.9200110 119.1179760
  16.9474930  55.6766090 104.9319740  16.7463990  54.8133450 105.2933080
  16.7766980  55.5899450 103.9941340  17.7244160  66.3072360 119.6427410
  17.1865250  67.0318420 119.3236110  17.9778120  65.8302700 118.8524750
  18.9769410  54.2756880 121.1683340  19.5669100  53.9672730 121.8561160
  18.1589650  53.8036630 121.3243240  23.7962840  53.8922690 121.4016360
  23.1078360  53.2304230 121.3366350  24.5168860  53.4460960 121.8464820
  24.4263240  50.4874320 107.4606620  24.7065530  49.6442220 107.8166040
  23.6528970  50.7197430 107.9745370  15.7457730  52.7766710 104.9197620
  16.0483630  52.7834140 104.0116770  16.4852320  52.4264570 105.4165280
  20.5806370  67.5423570 119.9014060  20.5065070  68.4458710 120.2086430
  19.6785210  67.2235470 119.8736130  18.9642660  51.7201330 105.9053820
  18.6164660  51.0425320 105.3256270  19.1655430  51.2590840 106.7197210
  14.7687860  62.0809130 105.7527420  15.2062730  62.6238800 106.4085000
  15.2535590  61.2556080 105.7623760  11.9833660  64.8698160 113.2047680
  12.3136670  64.0019220 112.9726320  12.4124660  65.0756680 114.0352640
  16.5795580  63.2007170 110.8649650  16.2791120  63.0772140 111.7653560
  16.4733070  62.3415760 110.4565380  12.4723870  65.7368750 115.9429310
  12.0354860  65.9169550 116.7753460  13.0401550  66.4943370 115.8011030
  28.1086050  65.2385750 120.2306620  27.5088040  65.2978310 119.4870540
  28.2379950  64.2990730 120.3603470  29.3487500  62.9803570 105.5676330
  28.5180460  63.0480220 106.0383560  29.5259330  63.8707690 105.2643190
  12.3048300  58.2488980 112.3018190  11.6497140  57.9800620 111.6577890
  13.1426250  58.1393460 111.8520170  26.7937690  61.9637730 118.3282780
  25.9797530  62.3934890 118.5908570  27.2011890  62.5756140 117.7151830
  28.8563130  60.0185420 105.2283050  29.1311970  60.9264300 105.1002270
  28.6673870  59.9547950 106.1645040  25.2538740  53.0430270 106.5236680
  25.6723620  52.8561250 105.6833340  24.9474800  52.1909320 106.8339610
  28.7528470  57.9554410 110.2212480  28.3772070  57.1882340 109.7893770
  28.0231590  58.3377110 110.7087410  13.3424230  58.6341550 116.8421530
  13.7097270  58.5468950 117.7217550  12.7735050  57.8708100 116.7428390
  28.1428090  57.1025930 119.8552000  27.9114180  56.8738680 118.9549950
  28.4032640  58.0225480 119.8096890  12.8940230  55.5450640 120.7479950
  11.9996280  55.5117400 121.0873660  13.4337780  55.7437430 121.5131200
  26.5816160  52.3282360 122.6331700  27.4586340  52.3365760 123.0165700
  26.5937000  51.5913200 122.0224050  11.5186380  55.4587910 108.2443520
  10.6150460  55.7218110 108.0695180  12.0027000  55.7299080 107.4643480
  14.0613590  54.5153450 106.1537900  14.7705290  54.0936670 105.6685180
  13.3453530  54.5828680 105.5221250  13.7087750  50.5692780 105.1940550
  14.4315880  51.1101720 105.5121770  13.9812270  50.2956200 104.3182090
  27.5179400  55.4385250 109.4612130  28.0138520  55.2056120 110.2461010
  27.3195470  54.5997090 109.0449770  13.3979940  49.8198970 115.0963170
  14.0456130  49.2696350 114.6558330  13.8181780  50.0742120 115.9178980
  28.9466560  54.0746200 111.9949810  28.8365840  53.9202240 112.9332080
  29.7074150  53.5467140 111.7525220  27.2932280  50.0140330 118.4532810
  27.9304500  50.6274470 118.8192000  27.4407170  50.0500990 117.5082040
  29.8356830  51.9054120 105.2355950  30.7606140  51.7735300 105.0274240
  29.8132620  51.9846940 106.1892400  29.9095320  52.6764780 107.8612660
  29.1146820  52.6109900 108.3905570  30.1138600  53.6115420 107.8498010
  26.8513740  66.7156330 111.8551050  27.4472810  66.3940900 111.1785470
  27.1091890  66.2428150 112.6464320  13.1511940  49.9754640 117.8388490
  12.8026760  50.4318460 118.6046670  12.8199640  49.0811770 117.9210920
  14.7576310  63.1474240 122.0041680  14.7145940  62.7767150 122.8856140
  14.8887320  64.0851810 122.1443500  18.4582340  64.7033830 117.6051400
  18.2173700  64.9708390 116.7181920  19.3984980  64.8739560 117.6602260
  20.6636760  51.1666520 121.3607910  20.6025650  51.7588350 122.1103320
  21.6037140  51.0592480 121.2158170  23.3011320  50.8236580 121.0000200
  23.9151730  51.1415870 120.3381280  23.8460880  50.3385170 121.6196060
  13.8232580  49.5030840 121.1139260  14.3715570  49.3218890 120.3505370
  13.8887890  48.7124950 121.6495570  14.5964340  66.0936490 119.1239460
  14.0024660  65.9621190 119.8629500  14.5888180  65.2574630 118.6581560
  24.0419360  49.3868720 117.3269490  23.1679200  49.7203830 117.1242420
  23.9330110  48.9141900 118.1521360  24.9491340  51.5939590 118.7111210
  24.6204700  50.7791350 118.3312940  25.8973640  51.5509400 118.5876900
  14.2276570  63.4594870 118.0747500  13.5010630  62.8400160 118.0073450
  14.2885720  63.8535480 117.2045580  17.8321670  65.6739870 114.8596910
  18.3486690  65.0627230 114.3345170  18.4819050  66.1768650 115.3507920
  20.5717170  66.5648360 115.6865890  20.8594980  66.3102660 114.8098900
  21.0840390  66.0125720 116.2771460  21.7894180  50.3038560 116.2662400
  21.0065970  50.7784060 116.5459160  21.4957110  49.3993390 116.1575580
  26.3415250  51.0061660 114.3111490  26.7823340  50.9506760 113.4633090
  26.0722840  51.9219670 114.3821670  28.2053820  50.6376900 112.3220310
  28.1442220  49.6938120 112.1751330  28.9845850  50.7456990 112.8673770
  12.5106570  66.7769260 111.2844260  12.3428610  66.1439940 111.9826150
  11.6441080  66.9828660 110.9338450  13.1334590  50.6086040 108.7876120
  13.8913950  50.7214920 108.2140150  12.6711760  51.4455240 108.7419550
  19.6748400  52.7225310 111.7778430  18.8622910  52.3482200 111.4374310
  20.1790040  51.9670390 112.0799620  24.1773380  49.3867760 113.0161500
  24.7802750  49.9587970 113.4910020  23.4366370  49.9507200 112.7935400
  14.1169270  65.4702490 108.7294400  13.5916890  65.8510520 108.0256360
  14.0413850  66.0953260 109.4504110  15.5059740  51.1350090 107.3278090
  16.0352500  50.3479890 107.1986040  16.1388060  51.8141280 107.5613620
  17.6997580  50.8725230 110.3823480  17.0700320  50.1712540 110.5493610
  17.1602720  51.6329360 110.1656640  20.6389530  67.4864460 123.0534090
  21.5656840  67.2508730 123.0970050  20.6239960  68.3136460 122.5720120
  17.8253140  50.1509210 122.8175970  17.5437410  50.6542810 122.0536790
  18.2072840  49.3530960 122.4518100  16.7162240  67.4184870 107.6043650
  17.4481060  67.1344150 107.0567540  16.9755910  67.1798150 108.4943030
  15.8777030  63.5349600 107.6089980  15.2485910  64.0034700 108.1575810
  15.9924860  62.6898820 108.0436170  24.4268600  49.5662790 123.3956440
  24.3134050  49.8857400 124.2907960  25.2438340  49.9675300 123.0993720
  27.2067090  66.7134320 122.8775130  27.9992410  66.2183550 122.6701090
  27.5000240  67.3924460 123.4850740  23.3326750  57.5855260  93.7591180
  23.2520800  56.6709870  93.4882890  22.9191170  58.0822330  93.0530890
  21.4644790  59.3634280  95.6400450  20.6886890  58.8834720  95.9299020
  22.1157720  58.6839930  95.4656610  15.4810620  59.6754090  96.5176210
  14.6495500  59.4202800  96.9172720  16.0891600  59.7464860  97.2534130
  25.4852220  63.7694470  94.4199580  25.0233750  62.9981710  94.7486750
  26.2977770  63.7960540  94.9252030  15.4611880  63.7094180  96.7134230
  15.7639920  62.8191920  96.5344450  16.2055470  64.2664400  96.4856480
  13.8902570  54.6355980  90.3018600  13.0019270  54.9771950  90.1998480
  14.1743760  54.4356300  89.4099430  11.8535580  57.2361630  96.1858300
  12.4251690  56.4683830  96.1861940  11.8537120  57.5350390  95.2764910
  21.7115530  66.0552480  94.0403570  21.0926970  66.5109980  93.4698010
  22.5667310  66.2103940  93.6393270  20.9053780  62.0391470  95.6470610
  20.8362060  61.0981410  95.4859740  21.6673640  62.1292880  96.2193180
  13.0960450  52.6445990  97.9727230  12.9163290  51.7471740  98.2529990
  12.6940530  53.1917860  98.6474180  21.9358950  54.8461850  95.8739540
  22.3123770  53.9733730  95.7613210  21.8378460  55.1820550  94.9829980
  25.7183070  52.3412290  92.8067880  26.5392690  51.8508860  92.8493360
  25.7517150  52.9309950  93.5599720  13.7147120  55.1406490  96.5809570
  14.3957230  55.4044860  97.1996970  13.3995170  54.3007360  96.9147580
  17.9071690  56.1873850  95.6682160  18.4149910  56.6854820  96.3087180
  18.4384930  55.4109050  95.4921520  16.1907790  50.8272410  99.9345580
  16.1926230  51.3444800  99.1291480  15.3612100  50.3502590  99.9115510
  17.4410640  60.4667590  98.1119080  17.1080020  61.0936510  98.7540150
  17.6177320  60.9929470  97.3320750  15.8723120  52.5382370  97.9416030
  16.2139930  53.3824420  97.6469900  14.9338930  52.6866110  98.0581370
  16.6529740  62.4348390  99.9268260  17.2703740  63.1099470  99.6452710
  15.7922860  62.8436370  99.8355760  11.9462080  61.6248250  88.8075110
  11.5690060  62.1135350  88.0760010  12.2035150  62.2973530  89.4381640
  27.5707330  63.8987800  97.8422900  26.8870850  64.5686910  97.8339570
  28.1101620  64.0968450  97.0767760  19.5551010  50.0264640  94.2660620
  19.8625990  49.4711530  93.5496120  18.6251710  50.1609100  94.0833610
  26.4011490  62.4648150  91.6458250  26.2907820  61.5222480  91.7707670
  26.3979740  62.8263790  92.5321010  24.5051510  60.6461770  97.8850690
  24.9220300  60.4321880  97.0504150  25.2291330  60.9034560  98.4559310
  25.9729060  59.6533770  91.5055990  25.3541480  59.3153320  90.8582290
  25.9553510  59.0093530  92.2135180  18.0170110  62.3045770  95.9479680
  17.7198400  61.6991240  95.2687460  18.9669930  62.3423080  95.8369040
  16.2617030  55.3921420  97.5639510  16.8131620  55.5016760  96.7892760
  16.7760540  55.7659020  98.2794740  26.1055720  65.8777640  99.6102780
  25.6286280  66.6849830  99.4175390  25.4217510  65.2255970  99.7628990
  17.1088540  62.0427460 102.5987480  16.2117070  62.2667430 102.8460880
  17.1341410  62.1662400 101.6498880  24.1493760  58.8920580  88.5128740
  24.5887040  58.0543010  88.3666560  24.8622180  59.5249980  88.5992880
  15.9359760  58.9140780 101.1744850  15.7967530  59.7863580 101.5432250
  15.0541120  58.5713590 101.0292790  22.2589140  63.8316650  92.4809980
  22.6985050  64.5740980  92.0665370  22.1976030  64.0743220  93.4048940
  17.7340110  64.8562480 103.3830000  17.7055540  65.2605430 102.5158430
  17.5705080  63.9272840 103.2201600  14.2493040  57.5123190  91.2847120
  14.1290640  58.2385280  90.6728390  13.9393930  56.7426100  90.8075030
  29.6854930  65.6389580 104.6794170  30.1614650  66.1172470 105.3583250
  30.3062090  65.5707070 103.9539670  11.8878410  60.6838330  97.0915760
  11.9658830  60.8187100  96.1471480  12.5020090  59.9754220  97.2843880
  13.1326040  62.3838520  93.5021940  12.7254120  62.5253110  92.6475540
  14.0239050  62.0998680  93.2993150  29.0888180  62.8302430 101.8394180
  29.2151240  62.5914310 100.9211360  29.1309560  61.9986970 102.3116260
  22.9504920  66.5330430 100.4088990  23.4649590  66.4438440 101.2111420
  22.1074000  66.8790130 100.7016900  17.4047700  66.5984300  91.6144610
  17.2290180  65.6819840  91.4012410  16.5503440  66.9571590  91.8542410
  24.1935380  65.9536040  92.4719480  24.6492330  65.1725420  92.7858100
  24.5327900  66.6642860  93.0160660  11.9437930  61.7252500  99.6310220
  12.1068970  61.2557860  98.8129590  12.4090380  61.2176060 100.2959060
  16.7156700  50.8558260  94.6670790  16.2724850  51.6367800  94.3355310
  17.2741690  51.1788150  95.3741730  21.0026510  53.7226780 100.2706110
  20.5405880  53.9309800 101.0826050  20.6004620  52.9086130  99.9676780
  23.0980730  56.4437480 103.5001560  23.4234140  55.6101230 103.1603790
  23.8861060  56.9666000 103.6479890  18.7532600  51.4005590  96.5260390
  19.0504930  52.3068420  96.4452410  19.3018160  50.9124370  95.9119960
  16.5070920  55.9791830  92.3952040  16.2811840  55.7629000  93.2998660
  15.7263450  56.4120290  92.0498010  23.7368680  55.9855200  90.9942690
  23.1377570  56.7091000  90.8106310  24.2848290  55.9231980  90.2119140
  18.9470130  56.8777410 103.0612310  18.8513730  55.9372140 102.9112710
  19.7902110  57.0992480 102.6660380  22.3433550  54.6218740  93.0245970
  22.7363120  54.9390940  92.2114660  22.7050400  53.7430620  93.1390490
  14.0780670  53.2891080 101.2146090  13.6844060  54.1366290 101.4218870
  13.3899070  52.6517450 101.4054730  20.6525720  53.3726050 104.2842830
  19.9624040  53.1798250 104.9188920  21.3958020  53.6560690 104.8167130
  11.3797720  51.2119540  95.2476170  11.0910770  51.7822400  95.9601150
  12.1243480  50.7323990  95.6107400  11.5667950  55.1539660  86.4578890
  11.4842620  56.0970420  86.5993880  11.2151010  55.0114570  85.5791240
  19.3666080  53.8878690  95.5249240  19.3702140  53.4468640  94.6753780
  20.2617200  54.2096020  95.6321060  15.2168460  53.7705180  94.4843450
  14.8768510  54.2480410  95.2410500  14.4545780  53.3170300  94.1244550
  23.3914600  52.6658170  96.5319690  23.4087340  53.1166820  97.3761540
  23.1430180  51.7663810  96.7453130  18.4407730  57.1991910  87.9139300
  17.8724630  56.7510160  87.2875210  19.1496730  57.5584690  87.3804450
  26.8185350  50.0790350 102.3706070  27.1431120  49.3480010 102.8964050
  26.8541860  49.7603990 101.4687060  13.5176910  61.1003930 101.7906030
  13.1331700  60.4597600 102.3888990  13.8289100  61.8040050 102.3600760
  19.6674050  57.9480470  97.2714650  20.0344180  57.4739040  98.0175990
  19.4779110  58.8222040  97.6122990  12.5314540  52.6924160  93.4008120
  12.2461460  52.3279830  94.2386740  12.4693400  51.9604620  92.7871260
  17.4573420  56.9889110  99.5898860  17.1530490  57.8681090  99.8149220
  18.4119880  57.0488900  99.6256300  26.7443190  60.1915460  95.9792100
  27.4642310  60.6870750  95.5888210  26.5425010  59.5133350  95.3345970
  22.1261990  60.2624520 101.8661100  22.0599300  59.3420190 101.6118690
  21.4967130  60.3599960 102.5805740  24.9201520  55.9573070  88.4183650
  25.8081140  56.2690300  88.2434990  24.8906610  55.0845320  88.0264230
  13.5137150  57.8291850 100.7370220  13.1552090  58.4945700 101.3243560
  13.2191710  56.9975400 101.1082840  16.7150270  58.2876090 103.6209770
  16.4150410  58.4333270 102.7237590  17.4861510  57.7281380 103.5283160
  22.0578720  63.0845090 101.6164900  22.0723260  62.1526050 101.3983810
  21.3503820  63.1704850 102.2554670  27.1915790  57.2684910  87.8863510
  27.1079510  57.6999130  87.0359950  27.9109980  57.7283260  88.3190330
  23.7989520  61.4512600  94.4617330  24.1513340  60.8540730  93.8018700
  22.9151850  61.1256830  94.6325580  12.0245200  57.8283110  87.3604820
  12.8940050  58.1107910  87.6440740  11.5335520  58.6418980  87.2453630
  21.4912620  64.7262660  98.7105400  22.1354840  64.9322040  99.3878820
  21.8542060  63.9651060  98.2576250  15.0891790  49.5593970  91.9535620
  14.9606420  49.5511870  92.9020540  14.2653810  49.8977060  91.6026630
  22.7644700  62.7295010  97.4282850  23.4066930  62.0288170  97.5415020
  23.2894050  63.5093450  97.2479740  24.5382320  63.5289910 100.6318910
  24.8738560  64.1156600 101.3096830  23.6182660  63.3982620 100.8616700
  12.3916450  67.0410490  87.9266450  12.7514090  67.6399830  87.2723720
  12.2508790  67.5870380  88.7001480  12.0885720  51.3185090 101.4142320
  11.3744240  51.5182010 102.0194930  12.5080760  50.5424660 101.7857120
  12.3758310  65.3065350 102.4008850  12.4849430  64.3660090 102.2604240
  11.7238870  65.5720100 101.7522580  20.3670900  63.5781240 103.8006970
  20.0467770  62.8590480 104.3452660  19.6929260  64.2536310 103.8743030
  14.0091710  59.6456580  89.4886880  13.4019660  60.3855480  89.4982180
  14.4841060  59.7355940  88.6625080  26.9486530  52.7664340  89.9731330
  26.3199690  52.8710010  89.2589560  26.4538450  52.9861120  90.7625210
  21.3944670  64.4869930  87.4065310  21.4956650  64.2833920  86.4767290
  20.4946410  64.2328210  87.6113090  20.5426490  56.4646990  99.3881740
  21.0411740  56.9392810 100.0533590  20.6849440  55.5410510  99.5951770
  22.9485990  51.7700950  92.8285000  22.8253770  51.7887080  91.8794510
  23.8970550  51.8179890  92.9483400  20.0362780  67.0056250  92.1012980
  20.2904280  66.9677640  91.1792350  19.0875260  66.8789580  92.0941230
  26.0415360  57.9248130  93.6771490  25.1005500  57.9398360  93.8519180
  26.3559430  57.1384090  94.1231790  16.0197000  59.6067730  87.2375450
  16.7860270  59.4949090  87.8000880  16.0971690  58.9105700  86.5852220
  14.7143760  57.0392800  87.9208340  14.7947350  56.0920310  88.0325740
  15.6063510  57.3699680  88.0269000  15.5158470  67.1888190  95.0242880
  16.2520950  66.6403650  95.2951450  15.8999390  68.0544200  94.8848870
  12.4003950  63.2561760  90.8984390  11.4743730  63.4982900  90.8889800
  12.8660380  64.0836020  90.7769140  14.5216750  66.3734260 104.2128460
  15.3229480  66.6946310 104.6263860  14.0068570  66.0129840 104.9348370
  18.6260780  66.3618500  86.8468450  19.4189390  66.6507330  86.3950240
  18.1065130  65.9310670  86.1680930  23.3581380  62.4814130 104.1603870
  22.7519540  62.5045730 103.4199620  23.0535490  61.7497170 104.6971120
  24.7881750  66.2094420 102.7713280  25.7403500  66.1252440 102.7213520
  24.6409970  66.8736130 103.4447070  12.2414560  58.8607720 103.1564510
  12.7453580  58.2815000 103.7280740  11.5021980  59.1447950 103.6940880
  19.2952500  60.2678710 102.6900030  18.5298170  60.8363710 102.6054700
  19.4768460  59.9754920 101.7968260  22.3840910  60.6441940  87.3152790
  21.8351010  61.0911240  87.9595530  23.0060170  60.1391190  87.8390460
  26.4375850  61.9984040 103.2475050  27.1785320  62.3359800 102.7442510
  25.6748530  62.1676100 102.6944820  14.2737640  57.0037310 104.0514580
  14.3142980  56.7051180 104.9599810  15.1283140  57.4044920 103.8922100
  16.2143450  55.5829410 102.0189070  15.6839910  55.0920360 101.3912410
  16.8831520  56.0113610 101.4847000  20.5643670  58.6270470  86.4595190
  21.0849330  57.9119490  86.0936340  21.2112070  59.2656340  86.7595700
  25.1121510  60.0498870 101.7830260  25.5262530  60.2043950 102.6320680
  24.1772510  60.1754090 101.9456040  25.5843680  57.3895030 103.7869410
  26.1664450  56.6347350 103.6989890  25.7605450  57.9202470 103.0100890
  16.7015750  52.5491780 102.0986360  16.6072620  51.9312530 101.3737230
  16.1213140  53.2758070 101.8716270  19.4677190  51.1065020  99.1313750
  19.0194490  51.1289280  98.2859300  18.8342390  50.7084040  99.7284050
  19.8736740  60.0019350  99.7526190  20.2924850  60.8452080  99.5802430
  18.9545370  60.1391390  99.5232970  22.2100640  57.7335530 101.1364030
  22.3296850  57.1376670 101.8758870  23.0694640  57.7705220 100.7165330
  17.7244160  66.3072360 100.8683920  17.1865250  67.0318420 100.5492620
  17.9778120  65.8302700 100.0781260  18.9769410  54.2756880 102.3939850
  19.5669100  53.9672730 103.0817670  18.1589650  53.8036630 102.5499750
  23.7962840  53.8922690 102.6272870  23.1078360  53.2304230 102.5622860
  24.5168860  53.4460960 103.0721330  24.4263240  50.4874320  88.6863130
  24.7065530  49.6442220  89.0422550  23.6528970  50.7197430  89.2001880
  20.5806370  67.5423570 101.1270570  20.5065070  68.4458710 101.4342940
  19.6785210  67.2235470 101.0992640  21.1291700  66.7082080  88.7496930
  22.0242490  67.0467050  88.7715690  21.1609330  65.9861490  88.1221210
  14.7687860  62.0809130  86.9783930  15.2062730  62.6238800  87.6341510
  15.2535590  61.2556080  86.9880270  11.9833660  64.8698160  94.4304190
  12.3136670  64.0019220  94.1982830  12.4124660  65.0756680  95.2609150
  12.4723870  65.7368750  97.1685820  12.0354860  65.9169550  98.0009970
  13.0401550  66.4943370  97.0267540  28.1086050  65.2385750 101.4563130
  27.5088040  65.2978310 100.7127050  28.2379950  64.2990730 101.5859980
  12.3048300  58.2488980  93.5274700  11.6497140  57.9800620  92.8834400
  13.1426250  58.1393460  93.0776680  26.7937690  61.9637730  99.5539290
  25.9797530  62.3934890  99.8165080  27.2011890  62.5756140  98.9408340
  28.8563130  60.0185420  86.4539560  29.1311970  60.9264300  86.3258780
  28.6673870  59.9547950  87.3901550  13.3424230  58.6341550  98.0678040
  13.7097270  58.5468950  98.9474060  12.7735050  57.8708100  97.9684900
  12.8940230  55.5450640 101.9736460  11.9996280  55.5117400 102.3130170
  13.4337780  55.7437430 102.7387710  26.5816160  52.3282360 103.8588210
  27.4586340  52.3365760 104.2422210  26.5937000  51.5913200 103.2480560
  11.5186380  55.4587910  89.4700030  10.6150460  55.7218110  89.2951690
  12.0027000  55.7299080  88.6899990  14.0613590  54.5153450  87.3794410
  14.7705290  54.0936670  86.8941690  13.3453530  54.5828680  86.7477760
  13.7087750  50.5692780  86.4197060  14.4315880  51.1101720  86.7378280
  13.9812270  50.2956200  85.5438600  13.3979940  49.8198970  96.3219680
  14.0456130  49.2696350  95.8814840  13.8181780  50.0742120  97.1435490
  13.1511940  49.9754640  99.0645000  12.8026760  50.4318460  99.8303180
  12.8199640  49.0811770  99.1467430  14.7576310  63.1474240 103.2298190
  14.7145940  62.7767150 104.1112650  14.8887320  64.0851810 103.3700010
  18.4582340  64.7033830  98.8307910  18.2173700  64.9708390  97.9438430
  19.3984980  64.8739560  98.8858770  20.6636760  51.1666520 102.5864420
  20.6025650  51.7588350 103.3359830  21.6037140  51.0592480 102.4414680
  23.3011320  50.8236580 102.2256710  23.9151730  51.1415870 101.5637790
  23.8460880  50.3385170 102.8452570  29.7186500  66.7228210  99.6318550
  29.2244780  67.1197080  98.9145680  29.1099790  66.0977420 100.0255830
  13.8232580  49.5030840 102.3395770  14.3715570  49.3218890 101.5761880
  13.8887890  48.7124950 102.8752080  14.5964340  66.0936490 100.3495970
  14.0024660  65.9621190 101.0886010  14.5888180  65.2574630  99.8838070
  24.0419360  49.3868720  98.5526000  23.1679200  49.7203830  98.3498930
  23.9330110  48.9141900  99.3777870  14.2276570  63.4594870  99.3004010
  13.5010630  62.8400160  99.2329960  14.2885720  63.8535480  98.4302090
  17.8321670  65.6739870  96.0853420  18.3486690  65.0627230  95.5601680
  18.4819050  66.1768650  96.5764430  20.5717170  66.5648360  96.9122400
  20.8594980  66.3102660  96.0355410  21.0840390  66.0125720  97.5027970
  21.7894180  50.3038560  97.4918910  21.0065970  50.7784060  97.7715670
  21.4957110  49.3993390  97.3832090  12.5106570  66.7769260  92.5100770
  12.3428610  66.1439940  93.2082660  11.6441080  66.9828660  92.1594960
  13.1334590  50.6086040  90.0132630  13.8913950  50.7214920  89.4396660
  12.6711760  51.4455240  89.9676060  24.1773380  49.3867760  94.2418010
  24.7802750  49.9587970  94.7166530  23.4366370  49.9507200  94.0191910
  27.3207980  49.7889320  89.5158290  27.5158610  50.6872770  89.7825720
  26.5337850  49.5576400  90.0091240  14.1169270  65.4702490  89.9550910
  13.5916890  65.8510520  89.2512870  14.0413850  66.0953260  90.6760620
  20.6389530  67.4864460 104.2790600  21.5656840  67.2508730 104.3226560
  20.6239960  68.3136460 103.7976630  17.8253140  50.1509210 104.0432480
  17.5437410  50.6542810 103.2793300  18.2072840  49.3530960 103.6774610
  16.7162240  67.4184870  88.8300160  17.4481060  67.1344150  88.2824050
  16.9755910  67.1798150  89.7199540  27.2067090  66.7134320 104.1031640
  27.9992410  66.2183550 103.8957600  27.5000240  67.3924460 104.7107250
  23.3326750  57.5855260  74.9847690  23.2520800  56.6709870  74.7139400
  22.9191170  58.0822330  74.2787400  21.4644790  59.3634280  76.8656960
  20.6886890  58.8834720  77.1555530  22.1157720  58.6839930  76.6913120
  25.4852220  63.7694470  75.6456090  25.0233750  62.9981710  75.9743260
  26.2977770  63.7960540  76.1508540  13.8902570  54.6355980  71.5275110
  13.0019270  54.9771950  71.4254990  14.1743760  54.4356300  70.6355940
  21.7115530  66.0552480  75.2660080  21.0926970  66.5109980  74.6954520
  22.5667310  66.2103940  74.8649780  20.9053780  62.0391470  76.8727120
  20.8362060  61.0981410  76.7116250  21.6673640  62.1292880  77.4449690
  21.9358950  54.8461850  77.0996050  22.3123770  53.9733730  76.9869720
  21.8378460  55.1820550  76.2086490  16.0663960  53.2187480  72.5613490
  16.1730710  54.1191210  72.8682250  15.1556320  53.1705450  72.2708140
  25.7183070  52.3412290  74.0324390  26.5392690  51.8508860  74.0749870
  25.7517150  52.9309950  74.7856230  16.1907790  50.8272410  81.1602090
  16.1926230  51.3444800  80.3547990  15.3612100  50.3502590  81.1372020
  22.5778880  60.9391720  72.6591990  21.9596150  61.4041170  72.0954710
  23.0902130  61.6319200  73.0761500  25.9544550  54.2812670  76.8051930
  25.2500120  54.5697560  77.3855040  26.3156710  55.0912780  76.4451490
  16.6529740  62.4348390  81.1524770  17.2703740  63.1099470  80.8709220
  15.7922860  62.8436370  81.0612270  11.9462080  61.6248250  70.0331620
  11.5690060  62.1135350  69.3016520  12.2035150  62.2973530  70.6638150
  29.0231470  53.7267460  77.1961140  28.0756380  53.7606440  77.3276570
  29.3481460  54.5406410  77.5810500  19.5551010  50.0264640  75.4917130
  19.8625990  49.4711530  74.7752630  18.6251710  50.1609100  75.3090120
  26.4011490  62.4648150  72.8714760  26.2907820  61.5222480  72.9964180
  26.3979740  62.8263790  73.7577520  24.5051510  60.6461770  79.1107200
  24.9220300  60.4321880  78.2760660  25.2291330  60.9034560  79.6815820
  28.4513610  59.0448990  79.2023440  27.6232240  59.1142080  78.7273570
  29.0464090  59.6303300  78.7339270  25.9729060  59.6533770  72.7312500
  25.3541480  59.3153320  72.0838800  25.9553510  59.0093530  73.4391690
  17.5488410  58.6178210  75.0096980  17.1445410  57.9055460  74.5142880
  17.6351530  58.2731450  75.8985020  17.1088540  62.0427460  83.8243990
  16.2117070  62.2667430  84.0717390  17.1341410  62.1662400  82.8755390
  22.2589140  63.8316650  73.7066490  22.6985050  64.5740980  73.2921880
  22.1976030  64.0743220  74.6305450  17.7340110  64.8562480  84.6086510
  17.7055540  65.2605430  83.7414940  17.5705080  63.9272840  84.4458110
  27.7310900  50.1463390  68.0526290  27.4183560  50.2390220  68.9525360
  28.4923370  50.7244420  68.0023720  14.2493040  57.5123190  72.5103630
  14.1290640  58.2385280  71.8984900  13.9393930  56.7426100  72.0331540
  11.8878410  60.6838330  78.3172270  11.9658830  60.8187100  77.3727990
  12.5020090  59.9754220  78.5100390  29.0888180  62.8302430  83.0650690
  29.2151240  62.5914310  82.1467870  29.1309560  61.9986970  83.5372770
  22.9504920  66.5330430  81.6345500  23.4649590  66.4438440  82.4367930
  22.1074000  66.8790130  81.9273410  24.9259320  66.8185770  71.0629500
  24.7660460  66.5288710  71.9611330  24.7606030  66.0425900  70.5274730
  17.4047700  66.5984300  72.8401120  17.2290180  65.6819840  72.6268920
  16.5503440  66.9571590  73.0798920  24.6285450  64.3273330  69.6227500
  23.9350610  64.3250620  68.9629780  25.3708310  63.9032650  69.1921670
  24.1935380  65.9536040  73.6975990  24.6492330  65.1725420  74.0114610
  24.5327900  66.6642860  74.2417170  11.9437930  61.7252500  80.8566730
  12.1068970  61.2557860  80.0386100  12.4090380  61.2176060  81.5215570
  16.7156700  50.8558260  75.8927300  16.2724850  51.6367800  75.5611820
  17.2741690  51.1788150  76.5998240  21.0026510  53.7226780  81.4962620
  20.5405880  53.9309800  82.3082560  20.6004620  52.9086130  81.1933290
  23.0980730  56.4437480  84.7258070  23.4234140  55.6101230  84.3860300
  23.8861060  56.9666000  84.8736400  19.8315520  50.4768960  70.7733130
  19.2069700  50.4728830  71.4986440  19.7445640  49.6099920  70.3769100
  18.7532600  51.4005590  77.7516900  19.0504930  52.3068420  77.6708920
  19.3018160  50.9124370  77.1376470  16.5070920  55.9791830  73.6208550
  16.2811840  55.7629000  74.5255170  15.7263450  56.4120290  73.2754520
  18.9470130  56.8777410  84.2868820  18.8513730  55.9372140  84.1369220
  19.7902110  57.0992480  83.8916890  22.3433550  54.6218740  74.2502480
  22.7363120  54.9390940  73.4371170  22.7050400  53.7430620  74.3647000
  14.0780670  53.2891080  82.4402600  13.6844060  54.1366290  82.6475380
  13.3899070  52.6517450  82.6311240  11.3797720  51.2119540  76.4732680
  11.0910770  51.7822400  77.1857660  12.1243480  50.7323990  76.8363910
  11.5667950  55.1539660  67.6835400  11.4842620  56.0970420  67.8250390
  11.2151010  55.0114570  66.8047750  22.9288690  57.2124490  78.3453260
  22.1969810  57.7211300  78.6943360  22.5313030  56.3954470  78.0442040
  19.3666080  53.8878690  76.7505750  19.3702140  53.4468640  75.9010290
  20.2617200  54.2096020  76.8577570  19.4286230  54.8890770  69.7412510
  19.5499050  54.8477250  70.6898330  19.0434740  55.7514920  69.5859240
  23.3914600  52.6658170  77.7576200  23.4087340  53.1166820  78.6018050
  23.1430180  51.7663810  77.9709640  13.5176910  61.1003930  83.0162540
  13.1331700  60.4597600  83.6145500  13.8289100  61.8040050  83.5857270
  12.5314540  52.6924160  74.6264630  12.2461460  52.3279830  75.4643250
  12.4693400  51.9604620  74.0127770  15.9855210  61.1950100  71.4122220
  15.2117470  60.6547720  71.2520940  16.7149840  60.6756710  71.0739980
  26.7443190  60.1915460  77.2048610  27.4642310  60.6870750  76.8144720
  26.5425010  59.5133350  76.5602480  22.2053130  51.5853420  71.3478000
  21.3917740  51.0866590  71.2723310  22.0115080  52.4251670  70.9314350
  22.1261990  60.2624520  83.0917610  22.0599300  59.3420190  82.8375200
  21.4967130  60.3599960  83.8062250  20.9162110  62.1296760  70.3228330
  21.2577810  62.8738990  69.8271650  20.0874820  62.4427880  70.6853160
  13.5137150  57.8291850  81.9626730  13.1552090  58.4945700  82.5500070
  13.2191710  56.9975400  82.3339350  16.7150270  58.2876090  84.8466280
  16.4150410  58.4333270  83.9494100  17.4861510  57.7281380  84.7539670
  22.0578720  63.0845090  82.8421410  22.0723260  62.1526050  82.6240320
  21.3503820  63.1704850  83.4811180  28.2689930  59.7252430  82.1889990
  27.5438120  60.3181210  81.9919380  28.7965390  59.7175970  81.3903360
  28.2203040  64.1227170  71.8402150  27.5779200  63.4682790  72.1145870
  27.8333700  64.5282260  71.0642820  23.7989520  61.4512600  75.6873840
  24.1513340  60.8540730  75.0275210  22.9151850  61.1256830  75.8582090
  19.8852800  62.2110290  73.0944250  20.5723930  62.7579500  73.4751840
  19.0985220  62.7551020  73.1293860  12.0245200  57.8283110  68.5861330
  12.8940050  58.1107910  68.8697250  11.5335520  58.6418980  68.4710140
  19.1880010  59.2156320  72.7069610  19.6442790  60.0261570  72.9329800
  18.8368220  58.8979460  73.5388100  21.4912620  64.7262660  79.9361910
  22.1354840  64.9322040  80.6135330  21.8542060  63.9651060  79.4832760
  15.0891790  49.5593970  73.1792130  14.9606420  49.5511870  74.1277050
  14.2653810  49.8977060  72.8283140  22.7644700  62.7295010  78.6539360
  23.4066930  62.0288170  78.7671530  23.2894050  63.5093450  78.4736250
  24.5382320  63.5289910  81.8575420  24.8738560  64.1156600  82.5353340
  23.6182660  63.3982620  82.0873210  12.3916450  67.0410490  69.1522960
  12.7514090  67.6399830  68.4980230  12.2508790  67.5870380  69.9257990
  12.0885720  51.3185090  82.6398830  11.3744240  51.5182010  83.2451440
  12.5080760  50.5424660  83.0113630  26.1916670  60.9315570  70.0392660
  25.9038370  61.3928260  70.8270540  26.9868840  60.4713340  70.3076880
  12.3758310  65.3065350  83.6265360  12.4849430  64.3660090  83.4860750
  11.7238870  65.5720100  82.9779090  20.3670900  63.5781240  85.0263480
  20.0467770  62.8590480  85.5709170  19.6929260  64.2536310  85.0999540
  18.4085070  64.4241690  69.9696630  18.3995170  65.1571380  69.3541140
  17.4883430  64.1773270  70.0623590  14.0091710  59.6456580  70.7143390
  13.4019660  60.3855480  70.7238690  14.4841060  59.7355940  69.8881590
  23.5824500  53.8107400  80.3900280  23.9505320  52.9902610  80.7179850
  22.7222700  53.8709290  80.8055930  26.9486530  52.7664340  71.1987840
  26.3199690  52.8710010  70.4846070  26.4538450  52.9861120  71.9881720
  21.3944670  64.4869930  68.6321820  21.4956650  64.2833920  67.7023800
  20.4946410  64.2328210  68.8369600  18.9170560  55.0450290  72.6145720
  18.2086710  55.5136630  73.0559330  19.2015040  54.3872300  73.2490910
  22.9485990  51.7700950  74.0541510  22.8253770  51.7887080  73.1051020
  23.8970550  51.8179890  74.1739910  20.0362780  67.0056250  73.3269490
  20.2904280  66.9677640  72.4048860  19.0875260  66.8789580  73.3197740
  17.1205580  53.3535370  69.9896430  17.9696110  53.7905520  69.9236620
  16.7536850  53.6655630  70.8168490  26.0415360  57.9248130  74.9028000
  25.1005500  57.9398360  75.0775690  26.3559430  57.1384090  75.3488300
  16.0197000  59.6067730  68.4631960  16.7860270  59.4949090  69.0257390
  16.0971690  58.9105700  67.8108730  14.7143760  57.0392800  69.1464850
  14.7947350  56.0920310  69.2582250  15.6063510  57.3699680  69.2525510
  12.4003950  63.2561760  72.1240900  11.4743730  63.4982900  72.1146310
  12.8660380  64.0836020  72.0025650  14.5216750  66.3734260  85.4384970
  15.3229480  66.6946310  85.8520370  14.0068570  66.0129840  86.1604880
  18.6260780  66.3618500  68.0724960  19.4189390  66.6507330  67.6206750
  18.1065130  65.9310670  67.3937440  23.3581380  62.4814130  85.3860380
  22.7519540  62.5045730  84.6456130  23.0535490  61.7497170  85.9227630
  24.7881750  66.2094420  83.9969790  25.7403500  66.1252440  83.9470030
  24.6409970  66.8736130  84.6703580  12.2414560  58.8607720  84.3821020
  12.7453580  58.2815000  84.9537250  11.5021980  59.1447950  84.9197390
  19.1438180  61.5821910  67.9367310  19.0388820  60.9674260  68.6628690
  18.9762400  61.0587800  67.1530320  19.2952500  60.2678710  83.9156540
  18.5298170  60.8363710  83.8311210  19.4768460  59.9754920  83.0224770
  26.4375850  61.9984040  84.4731560  27.1785320  62.3359800  83.9699020
  25.6748530  62.1676100  83.9201330  14.2737640  57.0037310  85.2771090
  14.3142980  56.7051180  86.1856320  15.1283140  57.4044920  85.1178610
  18.0516030  59.6032860  70.4374600  18.4732450  59.4372730  71.2805990
  18.1766870  58.7933090  69.9429740  25.1121510  60.0498870  83.0086770
  25.5262530  60.2043950  83.8577190  24.1772510  60.1754090  83.1712550
  25.5843680  57.3895030  85.0125920  26.1664450  56.6347350  84.9246400
  25.7605450  57.9202470  84.2357400  16.7015750  52.5491780  83.3242870
  16.6072620  51.9312530  82.5993740  16.1213140  53.2758070  83.0972780
  19.4677190  51.1065020  80.3570260  19.0194490  51.1289280  79.5115810
  18.8342390  50.7084040  80.9540560  22.2100640  57.7335530  82.3620540
  22.3296850  57.1376670  83.1015380  23.0694640  57.7705220  81.9421840
  24.5488540  58.2872720  80.9383050  24.0223760  58.8115340  80.3348190
  24.8919880  58.9200110  81.5692780  16.9474930  55.6766090  67.3832760
  16.7463990  54.8133450  67.7446100  16.7766980  55.5899450  66.4454360
  17.7244160  66.3072360  82.0940430  17.1865250  67.0318420  81.7749130
  17.9778120  65.8302700  81.3037770  24.4263240  50.4874320  69.9119640
  24.7065530  49.6442220  70.2679060  23.6528970  50.7197430  70.4258390
  15.7457730  52.7766710  67.3710640  16.0483630  52.7834140  66.4629790
  16.4852320  52.4264570  67.8678300  20.5806370  67.5423570  82.3527080
  20.5065070  68.4458710  82.6599450  19.6785210  67.2235470  82.3249150
  18.9642660  51.7201330  68.3566840  18.6164660  51.0425320  67.7769290
  19.1655430  51.2590840  69.1710230  21.1291700  66.7082080  69.9753440
  22.0242490  67.0467050  69.9972200  21.1609330  65.9861490  69.3477720
  14.7687860  62.0809130  68.2040440  15.2062730  62.6238800  68.8598020
  15.2535590  61.2556080  68.2136780  28.8043960  59.7251050  70.5223550
  29.5662870  60.2947700  70.6283240  28.8198330  59.1578250  71.2931860
  12.3048300  58.2488980  74.7531210  11.6497140  57.9800620  74.1090910
  13.1426250  58.1393460  74.3033190  29.8103930  60.5801150  75.3665480
  30.1812760  59.7968470  74.9601450  30.4505860  61.2690250  75.1882780
  26.7937690  61.9637730  80.7795800  25.9797530  62.3934890  81.0421590
  27.2011890  62.5756140  80.1664850  28.8563130  60.0185420  67.6796070
  29.1311970  60.9264300  67.5515290  28.6673870  59.9547950  68.6158060
  25.2538740  53.0430270  68.9749700  25.6723620  52.8561250  68.1346360
  24.9474800  52.1909320  69.2852630  28.7528470  57.9554410  72.6725500
  28.3772070  57.1882340  72.2406790  28.0231590  58.3377110  73.1600430
  12.8940230  55.5450640  83.1992970  11.9996280  55.5117400  83.5386680
  13.4337780  55.7437430  83.9644220  11.5186380  55.4587910  70.6956540
  10.6150460  55.7218110  70.5208200  12.0027000  55.7299080  69.9156500
  28.0279430  56.1811900  75.9732740  28.5516910  55.6874550  75.3422910
  28.6138850  56.3162260  76.7180310  14.0613590  54.5153450  68.6050920
  14.7705290  54.0936670  68.1198200  13.3453530  54.5828680  67.9734270
  13.7087750  50.5692780  67.6453570  14.4315880  51.1101720  67.9634790
  13.9812270  50.2956200  66.7695110  27.5179400  55.4385250  71.9125150
  28.0138520  55.2056120  72.6974030  27.3195470  54.5997090  71.4962790
  13.3979940  49.8198970  77.5476190  14.0456130  49.2696350  77.1071350
  13.8181780  50.0742120  78.3692000  28.9466560  54.0746200  74.4462830
  28.8365840  53.9202240  75.3845100  29.7074150  53.5467140  74.2038240
  29.8356830  51.9054120  67.6868970  30.7606140  51.7735300  67.4787260
  29.8132620  51.9846940  68.6405420  29.9095320  52.6764780  70.3125680
  29.1146820  52.6109900  70.8418590  30.1138600  53.6115420  70.3011030
  13.1511940  49.9754640  80.2901510  12.8026760  50.4318460  81.0559690
  12.8199640  49.0811770  80.3723940  14.7576310  63.1474240  84.4554700
  14.7145940  62.7767150  85.3369160  14.8887320  64.0851810  84.5956520
  23.3011320  50.8236580  83.4513220  23.9151730  51.1415870  82.7894300
  23.8460880  50.3385170  84.0709080  13.8232580  49.5030840  83.5652280
  14.3715570  49.3218890  82.8018390  13.8887890  48.7124950  84.1008590
  24.0419360  49.3868720  79.7782510  23.1679200  49.7203830  79.5755440
  23.9330110  48.9141900  80.6034380  14.2276570  63.4594870  80.5260520
  13.5010630  62.8400160  80.4586470  14.2885720  63.8535480  79.6558600
  20.5717170  66.5648360  78.1378910  20.8594980  66.3102660  77.2611920
  21.0840390  66.0125720  78.7284480  21.7894180  50.3038560  78.7175420
  21.0065970  50.7784060  78.9972180  21.4957110  49.3993390  78.6088600
  13.1334590  50.6086040  71.2389140  13.8913950  50.7214920  70.6653170
  12.6711760  51.4455240  71.1932570  19.6748400  52.7225310  74.2291450
  18.8622910  52.3482200  73.8887330  20.1790040  51.9670390  74.5312640
  24.1773380  49.3867760  75.4674520  24.7802750  49.9587970  75.9423040
  23.4366370  49.9507200  75.2448420  27.3207980  49.7889320  70.7414800
  27.5158610  50.6872770  71.0082230  26.5337850  49.5576400  71.2347750
  14.1169270  65.4702490  71.1807420  13.5916890  65.8510520  70.4769380
  14.0413850  66.0953260  71.9017130  15.5059740  51.1350090  69.7791110
  16.0352500  50.3479890  69.6499060  16.1388060  51.8141280  70.0126640
  17.6997580  50.8725230  72.8336500  17.0700320  50.1712540  73.0006630
  17.1602720  51.6329360  72.6169660  20.6389530  67.4864460  85.5047110
  21.5656840  67.2508730  85.5483070  20.6239960  68.3136460  85.0233140
  28.8734590  67.0290030  72.5021360  29.0486780  66.3427770  71.8582280
  28.1756160  67.5537080  72.1098030  16.7162240  67.4184870  70.0556670
  17.4481060  67.1344150  69.5080560  16.9755910  67.1798150  70.9456050
  15.8777030  63.5349600  70.0603000  15.2485910  64.0034700  70.6088830
  15.9924860  62.6898820  70.4949190  23.3326750  57.5855260  56.2104200
  23.2520800  56.6709870  55.9395910  22.9191170  58.0822330  55.5043910
  21.4644790  59.3634280  58.0913470  20.6886890  58.8834720  58.3812040
  22.1157720  58.6839930  57.9169630  13.8902570  54.6355980  52.7531620
  13.0019270  54.9771950  52.6511500  14.1743760  54.4356300  51.8612450
  11.8535580  57.2361630  58.6371320  12.4251690  56.4683830  58.6374960
  11.8537120  57.5350390  57.7277930  20.9053780  62.0391470  58.0983630
  20.8362060  61.0981410  57.9372760  21.6673640  62.1292880  58.6706200
  13.0960450  52.6445990  60.4240250  12.9163290  51.7471740  60.7043010
  12.6940530  53.1917860  61.0987200  21.9358950  54.8461850  58.3252560
  22.3123770  53.9733730  58.2126230  21.8378460  55.1820550  57.4343000
  16.0663960  53.2187480  53.7870000  16.1730710  54.1191210  54.0938760
  15.1556320  53.1705450  53.4964650  25.7183070  52.3412290  55.2580900
  26.5392690  51.8508860  55.3006380  25.7517150  52.9309950  56.0112740
  13.7147120  55.1406490  59.0322590  14.3957230  55.4044860  59.6509990
  13.3995170  54.3007360  59.3660600  17.9071690  56.1873850  58.1195180
  18.4149910  56.6854820  58.7600200  18.4384930  55.4109050  57.9434540
  16.1907790  50.8272410  62.3858600  16.1926230  51.3444800  61.5804500
  15.3612100  50.3502590  62.3628530  25.9544550  54.2812670  58.0308440
  25.2500120  54.5697560  58.6111550  26.3156710  55.0912780  57.6708000
  15.8723120  52.5382370  60.3929050  16.2139930  53.3824420  60.0982920
  14.9338930  52.6866110  60.5094390  11.9462080  61.6248250  51.2588130
  11.5690060  62.1135350  50.5273030  12.2035150  62.2973530  51.8894660
  27.5707330  63.8987800  60.2935920  26.8870850  64.5686910  60.2852590
  28.1101620  64.0968450  59.5280780  19.5551010  50.0264640  56.7173640
  19.8625990  49.4711530  56.0009140  18.6251710  50.1609100  56.5346630
  24.5051510  60.6461770  60.3363710  24.9220300  60.4321880  59.5017170
  25.2291330  60.9034560  60.9072330  21.9431770  58.0913470  53.4533760
  21.0161050  58.0250850  53.6822230  22.0956590  59.0293600  53.3389000
  21.9300850  54.3630470  50.4500920  20.9904520  54.5244430  50.5353380
  22.2484110  55.0816150  49.9036910  28.4513610  59.0448990  60.4279950
  27.6232240  59.1142080  59.9530080  29.0464090  59.6303300  59.9595780
  25.4155620  55.8318310  61.3734820  25.0026800  56.6572020  61.6274810
  24.6831570  55.2463350  61.1811180  17.5488410  58.6178210  56.2353490
  17.1445410  57.9055460  55.7399390  17.6351530  58.2731450  57.1241530
  16.2617030  55.3921420  60.0152530  16.8131620  55.5016760  59.2405780
  16.7760540  55.7659020  60.7307760  26.1055720  65.8777640  62.0615800
  25.6286280  66.6849830  61.8688410  25.4217510  65.2255970  62.2142010
  17.1088540  62.0427460  65.0500500  16.2117070  62.2667430  65.2973900
  17.1341410  62.1662400  64.1011900  15.9359760  58.9140780  63.6257870
  15.7967530  59.7863580  63.9945270  15.0541120  58.5713590  63.4805810
  17.7340110  64.8562480  65.8343020  17.7055540  65.2605430  64.9671450
  17.5705080  63.9272840  65.6714620  14.2493040  57.5123190  53.7360140
  14.1290640  58.2385280  53.1241410  13.9393930  56.7426100  53.2588050
  11.8878410  60.6838330  59.5428780  11.9658830  60.8187100  58.5984500
  12.5020090  59.9754220  59.7356900  13.1326040  62.3838520  55.9534960
  12.7254120  62.5253110  55.0988560  14.0239050  62.0998680  55.7506170
  29.0888180  62.8302430  64.2907200  29.2151240  62.5914310  63.3724380
  29.1309560  61.9986970  64.7629280  22.9504920  66.5330430  62.8602010
  23.4649590  66.4438440  63.6624440  22.1074000  66.8790130  63.1529920
  17.4047700  66.5984300  54.0657630  17.2290180  65.6819840  53.8525430
  16.5503440  66.9571590  54.3055430  28.9412190  54.8834890  65.2556940
  28.3256460  55.3914560  64.7272400  28.6208610  53.9833220  65.1982880
  11.9437930  61.7252500  62.0823240  12.1068970  61.2557860  61.2642610
  12.4090380  61.2176060  62.7472080  16.7156700  50.8558260  57.1183810
  16.2724850  51.6367800  56.7868330  17.2741690  51.1788150  57.8254750
  26.0031020  54.9435730  63.8515790  25.1524610  54.6441480  64.1724860
  25.8432810  55.1877740  62.9399610  19.8315520  50.4768960  51.9989640
  19.2069700  50.4728830  52.7242950  19.7445640  49.6099920  51.6025610
  18.7532600  51.4005590  58.9773410  19.0504930  52.3068420  58.8965430
  19.3018160  50.9124370  58.3632980  16.5070920  55.9791830  54.8465060
  16.2811840  55.7629000  55.7511680  15.7263450  56.4120290  54.5011030
  23.7368680  55.9855200  53.4455710  23.1377570  56.7091000  53.2619330
  24.2848290  55.9231980  52.6632160  18.9470130  56.8777410  65.5125330
  18.8513730  55.9372140  65.3625730  19.7902110  57.0992480  65.1173400
  22.3433550  54.6218740  55.4758990  22.7363120  54.9390940  54.6627680
  22.7050400  53.7430620  55.5903510  14.0780670  53.2891080  63.6659110
  13.6844060  54.1366290  63.8731890  13.3899070  52.6517450  63.8567750
  20.6525720  53.3726050  66.7355850  19.9624040  53.1798250  67.3701940
  21.3958020  53.6560690  67.2680150  11.3797720  51.2119540  57.6989190
  11.0910770  51.7822400  58.4114170  12.1243480  50.7323990  58.0620420
  11.5667950  55.1539660  48.9091910  11.4842620  56.0970420  49.0506900
  11.2151010  55.0114570  48.0304260  22.9288690  57.2124490  59.5709770
  22.1969810  57.7211300  59.9199870  22.5313030  56.3954470  59.2698550
  19.3666080  53.8878690  57.9762260  19.3702140  53.4468640  57.1266800
  20.2617200  54.2096020  58.0834080  15.2168460  53.7705180  56.9356470
  14.8768510  54.2480410  57.6923520  14.4545780  53.3170300  56.5757570
  19.4286230  54.8890770  50.9669020  19.5499050  54.8477250  51.9154840
  19.0434740  55.7514920  50.8115750  18.4407730  57.1991910  50.3652320
  17.8724630  56.7510160  49.7388230  19.1496730  57.5584690  49.8317470
  26.8185350  50.0790350  64.8219090  27.1431120  49.3480010  65.3477070
  26.8541860  49.7603990  63.9200080  13.5176910  61.1003930  64.2419050
  13.1331700  60.4597600  64.8402010  13.8289100  61.8040050  64.8113780
  19.6674050  57.9480470  59.7227670  20.0344180  57.4739040  60.4689010
  19.4779110  58.8222040  60.0636010  12.5314540  52.6924160  55.8521140
  12.2461460  52.3279830  56.6899760  12.4693400  51.9604620  55.2384280
  17.4573420  56.9889110  62.0411880  17.1530490  57.8681090  62.2662240
  18.4119880  57.0488900  62.0769320  15.9855210  61.1950100  52.6378730
  15.2117470  60.6547720  52.4777450  16.7149840  60.6756710  52.2996490
  26.7443190  60.1915460  58.4305120  27.4642310  60.6870750  58.0401230
  26.5425010  59.5133350  57.7858990  22.2053130  51.5853420  52.5734510
  21.3917740  51.0866590  52.4979820  22.0115080  52.4251670  52.1570860
  13.5137150  57.8291850  63.1883240  13.1552090  58.4945700  63.7756580
  13.2191710  56.9975400  63.5595860  16.7150270  58.2876090  66.0722790
  16.4150410  58.4333270  65.1750610  17.4861510  57.7281380  65.9796180
  22.0578720  63.0845090  64.0677920  22.0723260  62.1526050  63.8496830
  21.3503820  63.1704850  64.7067690  28.2689930  59.7252430  63.4146500
  27.5438120  60.3181210  63.2175890  28.7965390  59.7175970  62.6159870
  23.7989520  61.4512600  56.9130350  24.1513340  60.8540730  56.2531720
  22.9151850  61.1256830  57.0838600  19.8852800  62.2110290  54.3200760
  20.5723930  62.7579500  54.7008350  19.0985220  62.7551020  54.3550370
  12.0245200  57.8283110  49.8117840  12.8940050  58.1107910  50.0953760
  11.5335520  58.6418980  49.6966650  19.1880010  59.2156320  53.9326120
  19.6442790  60.0261570  54.1586310  18.8368220  58.8979460  54.7644610
  15.0891790  49.5593970  54.4048640  14.9606420  49.5511870  55.3533560
  14.2653810  49.8977060  54.0539650  22.7644700  62.7295010  59.8795870
  23.4066930  62.0288170  59.9928040  23.2894050  63.5093450  59.6992760
  24.5382320  63.5289910  63.0831930  24.8738560  64.1156600  63.7609850
  23.6182660  63.3982620  63.3129720  12.3916450  67.0410490  50.3779470
  12.7514090  67.6399830  49.7236740  12.2508790  67.5870380  51.1514500
  12.0885720  51.3185090  63.8655340  11.3744240  51.5182010  64.4707950
  12.5080760  50.5424660  64.2370140  12.3758310  65.3065350  64.8521870
  12.4849430  64.3660090  64.7117260  11.7238870  65.5720100  64.2035600
  20.3670900  63.5781240  66.2519990  20.0467770  62.8590480  66.7965680
  19.6929260  64.2536310  66.3256050  14.0091710  59.6456580  51.9399900
  13.4019660  60.3855480  51.9495200  14.4841060  59.7355940  51.1138100
  18.9170560  55.0450290  53.8402230  18.2086710  55.5136630  54.2815840
  19.2015040  54.3872300  54.4747420  22.9485990  51.7700950  55.2798020
  22.8253770  51.7887080  54.3307530  23.8970550  51.8179890  55.3996420
  17.1205580  53.3535370  51.2152940  17.9696110  53.7905520  51.1493130
  16.7536850  53.6655630  52.0425000  16.0197000  59.6067730  49.6888470
  16.7860270  59.4949090  50.2513900  16.0971690  58.9105700  49.0365240
  14.7143760  57.0392800  50.3721360  14.7947350  56.0920310  50.4838760
  15.6063510  57.3699680  50.4782020  12.4003950  63.2561760  53.3497410
  11.4743730  63.4982900  53.3402820  12.8660380  64.0836020  53.2282160
  14.5216750  66.3734260  66.6641480  15.3229480  66.6946310  67.0776880
  14.0068570  66.0129840  67.3861390  24.7881750  66.2094420  65.2226300
  25.7403500  66.1252440  65.1726540  24.6409970  66.8736130  65.8960090
  12.2414560  58.8607720  65.6077530  12.7453580  58.2815000  66.1793760
  11.5021980  59.1447950  66.1453900  19.2952500  60.2678710  65.1413050
  18.5298170  60.8363710  65.0567720  19.4768460  59.9754920  64.2481280
  26.4375850  61.9984040  65.6988070  27.1785320  62.3359800  65.1955530
  25.6748530  62.1676100  65.1457840  14.2737640  57.0037310  66.5027600
  14.3142980  56.7051180  67.4112830  15.1283140  57.4044920  66.3435120
  18.0516030  59.6032860  51.6631110  18.4732450  59.4372730  52.5062500
  18.1766870  58.7933090  51.1686250  16.2143450  55.5829410  64.4702090
  15.6839910  55.0920360  63.8425430  16.8831520  56.0113610  63.9360020
  20.5643670  58.6270470  48.9108210  21.0849330  57.9119490  48.5449360
  21.2112070  59.2656340  49.2108720  16.7015750  52.5491780  64.5499380
  16.6072620  51.9312530  63.8250250  16.1213140  53.2758070  64.3229290
  19.8736740  60.0019350  62.2039210  20.2924850  60.8452080  62.0315450
  18.9545370  60.1391390  61.9745990  22.2100640  57.7335530  63.5877050
  22.3296850  57.1376670  64.3271890  23.0694640  57.7705220  63.1678350
  24.5488540  58.2872720  62.1639560  24.0223760  58.8115340  61.5604700
  24.8919880  58.9200110  62.7949290  16.9474930  55.6766090  48.6089270
  16.7463990  54.8133450  48.9702610  16.7766980  55.5899450  47.6710870
  24.4263240  50.4874320  51.1376150  24.7065530  49.6442220  51.4935570
  23.6528970  50.7197430  51.6514900  15.7457730  52.7766710  48.5967150
  16.0483630  52.7834140  47.6886300  16.4852320  52.4264570  49.0934810
  20.5806370  67.5423570  63.5783590  20.5065070  68.4458710  63.8855960
  19.6785210  67.2235470  63.5505660  18.9642660  51.7201330  49.5823350
  18.6164660  51.0425320  49.0025800  19.1655430  51.2590840  50.3966740
  14.7687860  62.0809130  49.4296950  15.2062730  62.6238800  50.0854530
  15.2535590  61.2556080  49.4393290  11.9833660  64.8698160  56.8817210
  12.3136670  64.0019220  56.6495850  12.4124660  65.0756680  57.7122170
  12.4723870  65.7368750  59.6198840  12.0354860  65.9169550  60.4522990
  13.0401550  66.4943370  59.4780560  12.3048300  58.2488980  55.9787720
  11.6497140  57.9800620  55.3347420  13.1426250  58.1393460  55.5289700
  29.8103930  60.5801150  56.5921990  30.1812760  59.7968470  56.1857960
  30.4505860  61.2690250  56.4139290  26.7937690  61.9637730  62.0052310
  25.9797530  62.3934890  62.2678100  27.2011890  62.5756140  61.3921360
  13.3424230  58.6341550  60.5191060  13.7097270  58.5468950  61.3987080
  12.7735050  57.8708100  60.4197920  28.1428090  57.1025930  63.5321530
  27.9114180  56.8738680  62.6319480  28.4032640  58.0225480  63.4866420
  12.8940230  55.5450640  64.4249480  11.9996280  55.5117400  64.7643190
  13.4337780  55.7437430  65.1900730  26.5816160  52.3282360  66.3101230
  27.4586340  52.3365760  66.6935230  26.5937000  51.5913200  65.6993580
  11.5186380  55.4587910  51.9213050  10.6150460  55.7218110  51.7464710
  12.0027000  55.7299080  51.1413010  28.0279430  56.1811900  57.1989250
  28.5516910  55.6874550  56.5679420  28.6138850  56.3162260  57.9436820
  28.2069150  56.2651770  60.7208800  27.2571860  56.2315310  60.8353790
  28.3882160  57.1751880  60.4858570  14.0613590  54.5153450  49.8307430
  14.7705290  54.0936670  49.3454710  13.3453530  54.5828680  49.1990780
  13.7087750  50.5692780  48.8710080  14.4315880  51.1101720  49.1891300
  13.9812270  50.2956200  47.9951620  13.3979940  49.8198970  58.7732700
  14.0456130  49.2696350  58.3327860  13.8181780  50.0742120  59.5948510
  28.9466560  54.0746200  55.6719340  28.8365840  53.9202240  56.6101610
  29.7074150  53.5467140  55.4294750  13.1511940  49.9754640  61.5158020
  12.8026760  50.4318460  62.2816200  12.8199640  49.0811770  61.5980450
  14.7576310  63.1474240  65.6811210  14.7145940  62.7767150  66.5625670
  14.8887320  64.0851810  65.8213030  29.7186500  66.7228210  62.0831570
  29.2244780  67.1197080  61.3658700  29.1099790  66.0977420  62.4768850
  13.8232580  49.5030840  64.7908790  14.3715570  49.3218890  64.0274900
  13.8887890  48.7124950  65.3265100  27.4025950  67.3651630  59.3618310
  26.9428920  68.1167440  58.9876330  26.7738410  66.6458100  59.3033110
  28.2053820  50.6376900  55.9989840  28.1442220  49.6938120  55.8520860
  28.9845850  50.7456990  56.5443300  12.5106570  66.7769260  54.9613790
  12.3428610  66.1439940  55.6595680  11.6441080  66.9828660  54.6107980
  13.1334590  50.6086040  52.4645650  13.8913950  50.7214920  51.8909680
  12.6711760  51.4455240  52.4189080  19.6748400  52.7225310  55.4547960
  18.8622910  52.3482200  55.1143840  20.1790040  51.9670390  55.7569150
  24.1773380  49.3867760  56.6931030  24.7802750  49.9587970  57.1679550
  23.4366370  49.9507200  56.4704930  14.1169270  65.4702490  52.4063930
  13.5916890  65.8510520  51.7025890  14.0413850  66.0953260  53.1273640
  15.5059740  51.1350090  51.0047620  16.0352500  50.3479890  50.8755570
  16.1388060  51.8141280  51.2383150  17.6997580  50.8725230  54.0593010
  17.0700320  50.1712540  54.2263140  17.1602720  51.6329360  53.8426170
  20.6389530  67.4864460  66.7303620  21.5656840  67.2508730  66.7739580
  20.6239960  68.3136460  66.2489650  17.8253140  50.1509210  66.4945500
  17.5437410  50.6542810  65.7306320  18.2072840  49.3530960  66.1287630
  16.7162240  67.4184870  51.2813180  17.4481060  67.1344150  50.7337070
  16.9755910  67.1798150  52.1712560  15.8777030  63.5349600  51.2859510
  15.2485910  64.0034700  51.8345340  15.9924860  62.6898820  51.7205700
  24.4268600  49.5662790  67.0725970  24.3134050  49.8857400  67.9677490
  25.2438340  49.9675300  66.7763250  23.3326750  57.5855260  37.4360710
  23.2520800  56.6709870  37.1652420  22.9191170  58.0822330  36.7300420
  21.4644790  59.3634280  39.3169980  20.6886890  58.8834720  39.6068550
  22.1157720  58.6839930  39.1426140  15.4810620  59.6754090  40.1945740
  14.6495500  59.4202800  40.5942250  16.0891600  59.7464860  40.9303660
  25.4852220  63.7694470  38.0969110  25.0233750  62.9981710  38.4256280
  26.2977770  63.7960540  38.6021560  15.4611880  63.7094180  40.3903760
  15.7639920  62.8191920  40.2113980  16.2055470  64.2664400  40.1626010
  13.8902570  54.6355980  33.9788130  13.0019270  54.9771950  33.8768010
  14.1743760  54.4356300  33.0868960  11.8535580  57.2361630  39.8627830
  12.4251690  56.4683830  39.8631470  11.8537120  57.5350390  38.9534440
  21.7115530  66.0552480  37.7173100  21.0926970  66.5109980  37.1467540
  22.5667310  66.2103940  37.3162800  20.9053780  62.0391470  39.3240140
  20.8362060  61.0981410  39.1629270  21.6673640  62.1292880  39.8962710
  13.0960450  52.6445990  41.6496760  12.9163290  51.7471740  41.9299520
  12.6940530  53.1917860  42.3243710  21.9358950  54.8461850  39.5509070
  22.3123770  53.9733730  39.4382740  21.8378460  55.1820550  38.6599510
  16.0663960  53.2187480  35.0126510  16.1730710  54.1191210  35.3195270
  15.1556320  53.1705450  34.7221160  25.7183070  52.3412290  36.4837410
  26.5392690  51.8508860  36.5262890  25.7517150  52.9309950  37.2369250
  13.7147120  55.1406490  40.2579100  14.3957230  55.4044860  40.8766500
  13.3995170  54.3007360  40.5917110  17.9071690  56.1873850  39.3451690
  18.4149910  56.6854820  39.9856710  18.4384930  55.4109050  39.1691050
  30.0082620  54.3579040  43.0481040  29.3034790  54.7460750  42.5296150
  30.2740540  55.0529330  43.6501970  16.1907790  50.8272410  43.6115110
  16.1926230  51.3444800  42.8061010  15.3612100  50.3502590  43.5885040
  22.5778880  60.9391720  35.1105010  21.9596150  61.4041170  34.5467730
  23.0902130  61.6319200  35.5274520  17.4410640  60.4667590  41.7888610
  17.1080020  61.0936510  42.4309680  17.6177320  60.9929470  41.0090280
  25.9544550  54.2812670  39.2564950  25.2500120  54.5697560  39.8368060
  26.3156710  55.0912780  38.8964510  15.8723120  52.5382370  41.6185560
  16.2139930  53.3824420  41.3239430  14.9338930  52.6866110  41.7350900
  16.6529740  62.4348390  43.6037790  17.2703740  63.1099470  43.3222240
  15.7922860  62.8436370  43.5125290  11.9462080  61.6248250  32.4844640
  11.5690060  62.1135350  31.7529540  12.2035150  62.2973530  33.1151170
  27.5707330  63.8987800  41.5192430  26.8870850  64.5686910  41.5109100
  28.1101620  64.0968450  40.7537290  29.0231470  53.7267460  39.6474160
  28.0756380  53.7606440  39.7789590  29.3481460  54.5406410  40.0323520
  19.5551010  50.0264640  37.9430150  19.8625990  49.4711530  37.2265650
  18.6251710  50.1609100  37.7603140  25.1066070  65.7431930  40.2337610
  25.1193230  65.3394220  39.3659870  24.5541290  66.5179220  40.1299040
  26.4011490  62.4648150  35.3227780  26.2907820  61.5222480  35.4477200
  26.3979740  62.8263790  36.2090540  24.5051510  60.6461770  41.5620220
  24.9220300  60.4321880  40.7273680  25.2291330  60.9034560  42.1328840
  21.9431770  58.0913470  34.6790270  21.0161050  58.0250850  34.9078740
  22.0956590  59.0293600  34.5645510  21.9300850  54.3630470  31.6757430
  20.9904520  54.5244430  31.7609890  22.2484110  55.0816150  31.1293420
  28.4513610  59.0448990  41.6536460  27.6232240  59.1142080  41.1786590
  29.0464090  59.6303300  41.1852290  25.9729060  59.6533770  35.1825520
  25.3541480  59.3153320  34.5351820  25.9553510  59.0093530  35.8904710
  25.4155620  55.8318310  42.5991330  25.0026800  56.6572020  42.8531320
  24.6831570  55.2463350  42.4067690  17.5488410  58.6178210  37.4610000
  17.1445410  57.9055460  36.9655900  17.6351530  58.2731450  38.3498040
  18.0170110  62.3045770  39.6249210  17.7198400  61.6991240  38.9456990
  18.9669930  62.3423080  39.5138570  16.2617030  55.3921420  41.2409040
  16.8131620  55.5016760  40.4662290  16.7760540  55.7659020  41.9564270
  26.1055720  65.8777640  43.2872310  25.6286280  66.6849830  43.0944920
  25.4217510  65.2255970  43.4398520  17.1088540  62.0427460  46.2757010
  16.2117070  62.2667430  46.5230410  17.1341410  62.1662400  45.3268410
  24.1493760  58.8920580  32.1898270  24.5887040  58.0543010  32.0436090
  24.8622180  59.5249980  32.2762410  15.9359760  58.9140780  44.8514380
  15.7967530  59.7863580  45.2201780  15.0541120  58.5713590  44.7062320
  22.2589140  63.8316650  36.1579510  22.6985050  64.5740980  35.7434900
  22.1976030  64.0743220  37.0818470  17.7340110  64.8562480  47.0599530
  17.7055540  65.2605430  46.1927960  17.5705080  63.9272840  46.8971130
  27.7310900  50.1463390  30.5039310  27.4183560  50.2390220  31.4038380
  28.4923370  50.7244420  30.4536740  14.2493040  57.5123190  34.9616650
  14.1290640  58.2385280  34.3497920  13.9393930  56.7426100  34.4844560
  29.6854930  65.6389580  48.3563700  30.1614650  66.1172470  49.0352780
  30.3062090  65.5707070  47.6309200  11.8878410  60.6838330  40.7685290
  11.9658830  60.8187100  39.8241010  12.5020090  59.9754220  40.9613410
  13.1326040  62.3838520  37.1791470  12.7254120  62.5253110  36.3245070
  14.0239050  62.0998680  36.9762680  29.0888180  62.8302430  45.5163710
  29.2151240  62.5914310  44.5980890  29.1309560  61.9986970  45.9885790
  22.9504920  66.5330430  44.0858520  23.4649590  66.4438440  44.8880950
  22.1074000  66.8790130  44.3786430  24.9259320  66.8185770  33.5142520
  24.7660460  66.5288710  34.4124350  24.7606030  66.0425900  32.9787750
  17.4047700  66.5984300  35.2914140  17.2290180  65.6819840  35.0781940
  16.5503440  66.9571590  35.5311940  24.6285450  64.3273330  32.0740520
  23.9350610  64.3250620  31.4142800  25.3708310  63.9032650  31.6434690
  24.1935380  65.9536040  36.1489010  24.6492330  65.1725420  36.4627630
  24.5327900  66.6642860  36.6930190  11.9437930  61.7252500  43.3079750
  12.1068970  61.2557860  42.4899120  12.4090380  61.2176060  43.9728590
  16.7156700  50.8558260  38.3440320  16.2724850  51.6367800  38.0124840
  17.2741690  51.1788150  39.0511260  21.0026510  53.7226780  43.9475640
  20.5405880  53.9309800  44.7595580  20.6004620  52.9086130  43.6446310
  23.0980730  56.4437480  47.1771090  23.4234140  55.6101230  46.8373320
  23.8861060  56.9666000  47.3249420  19.8315520  50.4768960  33.2246150
  19.2069700  50.4728830  33.9499460  19.7445640  49.6099920  32.8282120
  18.7532600  51.4005590  40.2029920  19.0504930  52.3068420  40.1221940
  19.3018160  50.9124370  39.5889490  16.5070920  55.9791830  36.0721570
  16.2811840  55.7629000  36.9768190  15.7263450  56.4120290  35.7267540
  23.7368680  55.9855200  34.6712220  23.1377570  56.7091000  34.4875840
  24.2848290  55.9231980  33.8888670  18.9470130  56.8777410  46.7381840
  18.8513730  55.9372140  46.5882240  19.7902110  57.0992480  46.3429910
  22.3433550  54.6218740  36.7015500  22.7363120  54.9390940  35.8884190
  22.7050400  53.7430620  36.8160020  14.0780670  53.2891080  44.8915620
  13.6844060  54.1366290  45.0988400  13.3899070  52.6517450  45.0824260
  20.6525720  53.3726050  47.9612360  19.9624040  53.1798250  48.5958450
  21.3958020  53.6560690  48.4936660  11.3797720  51.2119540  38.9245700
  11.0910770  51.7822400  39.6370680  12.1243480  50.7323990  39.2876930
  11.5667950  55.1539660  30.1348420  11.4842620  56.0970420  30.2763410
  11.2151010  55.0114570  29.2560770  22.9288690  57.2124490  40.7966280
  22.1969810  57.7211300  41.1456380  22.5313030  56.3954470  40.4955060
  19.3666080  53.8878690  39.2018770  19.3702140  53.4468640  38.3523310
  20.2617200  54.2096020  39.3090590  15.2168460  53.7705180  38.1612980
  14.8768510  54.2480410  38.9180030  14.4545780  53.3170300  37.8014080
  19.4286230  54.8890770  32.1925530  19.5499050  54.8477250  33.1411350
  19.0434740  55.7514920  32.0372260  23.3914600  52.6658170  40.2089220
  23.4087340  53.1166820  41.0531070  23.1430180  51.7663810  40.4222660
  18.4407730  57.1991910  31.5908830  17.8724630  56.7510160  30.9644740
  19.1496730  57.5584690  31.0573980  26.8185350  50.0790350  46.0475600
  27.1431120  49.3480010  46.5733580  26.8541860  49.7603990  45.1456590
  13.5176910  61.1003930  45.4675560  13.1331700  60.4597600  46.0658520
  13.8289100  61.8040050  46.0370290  19.6674050  57.9480470  40.9484180
  20.0344180  57.4739040  41.6945520  19.4779110  58.8222040  41.2892520
  12.5314540  52.6924160  37.0777650  12.2461460  52.3279830  37.9156270
  12.4693400  51.9604620  36.4640790  17.4573420  56.9889110  43.2668390
  17.1530490  57.8681090  43.4918750  18.4119880  57.0488900  43.3025830
  15.9855210  61.1950100  33.8635240  15.2117470  60.6547720  33.7033960
  16.7149840  60.6756710  33.5253000  26.7443190  60.1915460  39.6561630
  27.4642310  60.6870750  39.2657740  26.5425010  59.5133350  39.0115500
  22.2053130  51.5853420  33.7991020  21.3917740  51.0866590  33.7236330
  22.0115080  52.4251670  33.3827370  22.1261990  60.2624520  45.5430630
  22.0599300  59.3420190  45.2888220  21.4967130  60.3599960  46.2575270
  24.9201520  55.9573070  32.0953180  25.8081140  56.2690300  31.9204520
  24.8906610  55.0845320  31.7033760  16.0292610  60.8630480  37.5014050
  16.5471280  60.0598740  37.4470940  15.5776630  60.8009620  38.3430880
  20.9162110  62.1296760  32.7741350  21.2577810  62.8738990  32.2784670
  20.0874820  62.4427880  33.1366180  13.5137150  57.8291850  44.4139750
  13.1552090  58.4945700  45.0013090  13.2191710  56.9975400  44.7852370
  16.7150270  58.2876090  47.2979300  16.4150410  58.4333270  46.4007120
  17.4861510  57.7281380  47.2052690  22.0578720  63.0845090  45.2934430
  22.0723260  62.1526050  45.0753340  21.3503820  63.1704850  45.9324200
  27.1915790  57.2684910  31.5633040  27.1079510  57.6999130  30.7129480
  27.9109980  57.7283260  31.9959860  28.2689930  59.7252430  44.6403010
  27.5438120  60.3181210  44.4432400  28.7965390  59.7175970  43.8416380
  28.2203040  64.1227170  34.2915170  27.5779200  63.4682790  34.5658890
  27.8333700  64.5282260  33.5155840  23.7989520  61.4512600  38.1386860
  24.1513340  60.8540730  37.4788230  22.9151850  61.1256830  38.3095110
  19.8852800  62.2110290  35.5457270  20.5723930  62.7579500  35.9264860
  19.0985220  62.7551020  35.5806880  12.0245200  57.8283110  31.0374350
  12.8940050  58.1107910  31.3210270  11.5335520  58.6418980  30.9223160
  19.1880010  59.2156320  35.1582630  19.6442790  60.0261570  35.3842820
  18.8368220  58.8979460  35.9901120  21.4912620  64.7262660  42.3874930
  22.1354840  64.9322040  43.0648350  21.8542060  63.9651060  41.9345780
  15.0891790  49.5593970  35.6305150  14.9606420  49.5511870  36.5790070
  14.2653810  49.8977060  35.2796160  22.7644700  62.7295010  41.1052380
  23.4066930  62.0288170  41.2184550  23.2894050  63.5093450  40.9249270
  26.6100420  63.0143630  30.8291520  26.3838000  62.2974070  31.4216160
  26.2196620  62.7656070  29.9913270  24.5382320  63.5289910  44.3088440
  24.8738560  64.1156600  44.9866360  23.6182660  63.3982620  44.5386230
  12.3916450  67.0410490  31.6035980  12.7514090  67.6399830  30.9493250
  12.2508790  67.5870380  32.3771010  12.0885720  51.3185090  45.0911850
  11.3744240  51.5182010  45.6964460  12.5080760  50.5424660  45.4626650
  26.1916670  60.9315570  32.4905680  25.9038370  61.3928260  33.2783560
  26.9868840  60.4713340  32.7589900  12.3758310  65.3065350  46.0778380
  12.4849430  64.3660090  45.9373770  11.7238870  65.5720100  45.4292110
  18.4085070  64.4241690  32.4209650  18.3995170  65.1571380  31.8054160
  17.4883430  64.1773270  32.5136610  14.0091710  59.6456580  33.1656410
  13.4019660  60.3855480  33.1751710  14.4841060  59.7355940  32.3394610
  23.5824500  53.8107400  42.8413300  23.9505320  52.9902610  43.1692870
  22.7222700  53.8709290  43.2568950  26.9486530  52.7664340  33.6500860
  26.3199690  52.8710010  32.9359090  26.4538450  52.9861120  34.4394740
  21.3944670  64.4869930  31.0834840  21.4956650  64.2833920  30.1536820
  20.4946410  64.2328210  31.2882620  18.9170560  55.0450290  35.0658740
  18.2086710  55.5136630  35.5072350  19.2015040  54.3872300  35.7003930
  20.5426490  56.4646990  43.0651270  21.0411740  56.9392810  43.7303120
  20.6849440  55.5410510  43.2721300  22.9485990  51.7700950  36.5054530
  22.8253770  51.7887080  35.5564040  23.8970550  51.8179890  36.6252930
  20.0362780  67.0056250  35.7782510  20.2904280  66.9677640  34.8561880
  19.0875260  66.8789580  35.7710760  17.1205580  53.3535370  32.4409450
  17.9696110  53.7905520  32.3749640  16.7536850  53.6655630  33.2681510
  27.7493350  52.6814950  43.9079660  27.2466950  53.4220350  44.2473470
  28.5650010  53.0698950  43.5916450  26.0415360  57.9248130  37.3541020
  25.1005500  57.9398360  37.5288710  26.3559430  57.1384090  37.8001320
  16.0197000  59.6067730  30.9144980  16.7860270  59.4949090  31.4770410
  16.0971690  58.9105700  30.2621750  14.7143760  57.0392800  31.5977870
  14.7947350  56.0920310  31.7095270  15.6063510  57.3699680  31.7038530
  28.0440940  65.0956980  39.0295280  28.1688360  65.9188150  39.5019090
  28.9106500  64.8847710  38.6819430  15.5158470  67.1888190  38.7012410
  16.2520950  66.6403650  38.9720980  15.8999390  68.0544200  38.5618400
  12.4003950  63.2561760  34.5753920  11.4743730  63.4982900  34.5659330
  12.8660380  64.0836020  34.4538670  14.5216750  66.3734260  47.8897990
  15.3229480  66.6946310  48.3033390  14.0068570  66.0129840  48.6117900
  18.6260780  66.3618500  30.5237980  19.4189390  66.6507330  30.0719770
  18.1065130  65.9310670  29.8450460  27.6790950  65.5888630  31.9474720
  27.3932460  65.1753770  31.1328900  27.4810500  66.5176340  31.8275240
  12.2414560  58.8607720  46.8334040  12.7453580  58.2815000  47.4050270
  11.5021980  59.1447950  47.3710410  19.1438180  61.5821910  30.3880330
  19.0388820  60.9674260  31.1141710  18.9762400  61.0587800  29.6043340
  19.2952500  60.2678710  46.3669560  18.5298170  60.8363710  46.2824230
  19.4768460  59.9754920  45.4737790  22.3840910  60.6441940  30.9922320
  21.8351010  61.0911240  31.6365060  23.0060170  60.1391190  31.5159990
  14.2737640  57.0037310  47.7284110  14.3142980  56.7051180  48.6369340
  15.1283140  57.4044920  47.5691630  18.0516030  59.6032860  32.8887620
  18.4732450  59.4372730  33.7319010  18.1766870  58.7933090  32.3942760
  16.2143450  55.5829410  45.6958600  15.6839910  55.0920360  45.0681940
  16.8831520  56.0113610  45.1616530  20.5643670  58.6270470  30.1364720
  21.0849330  57.9119490  29.7705870  21.2112070  59.2656340  30.4365230
  25.1121510  60.0498870  45.4599790  25.5262530  60.2043950  46.3090210
  24.1772510  60.1754090  45.6225570  16.7015750  52.5491780  45.7755890
  16.6072620  51.9312530  45.0506760  16.1213140  53.2758070  45.5485800
  19.4677190  51.1065020  42.8083280  19.0194490  51.1289280  41.9628830
  18.8342390  50.7084040  43.4053580  19.8736740  60.0019350  43.4295720
  20.2924850  60.8452080  43.2571960  18.9545370  60.1391390  43.2002500
  22.2100640  57.7335530  44.8133560  22.3296850  57.1376670  45.5528400
  23.0694640  57.7705220  44.3934860  24.5488540  58.2872720  43.3896070
  24.0223760  58.8115340  42.7861210  24.8919880  58.9200110  44.0205800
  16.9474930  55.6766090  29.8345780  16.7463990  54.8133450  30.1959120
  16.7766980  55.5899450  28.8967380  17.7244160  66.3072360  44.5453450
  17.1865250  67.0318420  44.2262150  17.9778120  65.8302700  43.7550790
  18.9769410  54.2756880  46.0709380  19.5669100  53.9672730  46.7587200
  18.1589650  53.8036630  46.2269280  23.7962840  53.8922690  46.3042400
  23.1078360  53.2304230  46.2392390  24.5168860  53.4460960  46.7490860
  24.4263240  50.4874320  32.3632660  24.7065530  49.6442220  32.7192080
  23.6528970  50.7197430  32.8771410  15.7457730  52.7766710  29.8223660
  16.0483630  52.7834140  28.9142810  16.4852320  52.4264570  30.3191320
  18.9642660  51.7201330  30.8079860  18.6164660  51.0425320  30.2282310
  19.1655430  51.2590840  31.6223250  21.1291700  66.7082080  32.4266460
  22.0242490  67.0467050  32.4485220  21.1609330  65.9861490  31.7990740
  14.7687860  62.0809130  30.6553460  15.2062730  62.6238800  31.3111040
  15.2535590  61.2556080  30.6649800  11.9833660  64.8698160  38.1073720
  12.3136670  64.0019220  37.8752360  12.4124660  65.0756680  38.9378680
  16.5795580  63.2007170  35.7675690  16.2791120  63.0772140  36.6679600
  16.4733070  62.3415760  35.3591420  12.4723870  65.7368750  40.8455350
  12.0354860  65.9169550  41.6779500  13.0401550  66.4943370  40.7037070
  28.1086050  65.2385750  45.1332660  27.5088040  65.2978310  44.3896580
  28.2379950  64.2990730  45.2629510  29.3487500  62.9803570  30.4702370
  28.5180460  63.0480220  30.9409600  29.5259330  63.8707690  30.1669230
  28.8043960  59.7251050  32.9736570  29.5662870  60.2947700  33.0796260
  28.8198330  59.1578250  33.7444880  12.3048300  58.2488980  37.2044230
  11.6497140  57.9800620  36.5603930  13.1426250  58.1393460  36.7546210
  29.8103930  60.5801150  37.8178500  30.1812760  59.7968470  37.4114470
  30.4505860  61.2690250  37.6395800  26.7937690  61.9637730  43.2308820
  25.9797530  62.3934890  43.4934610  27.2011890  62.5756140  42.6177870
  28.8563130  60.0185420  30.1309090  29.1311970  60.9264300  30.0028310
  28.6673870  59.9547950  31.0671080  25.2538740  53.0430270  31.4262720
  25.6723620  52.8561250  30.5859380  24.9474800  52.1909320  31.7365650
  28.7528470  57.9554410  35.1238520  28.3772070  57.1882340  34.6919810
  28.0231590  58.3377110  35.6113450  13.3424230  58.6341550  41.7447570
  13.7097270  58.5468950  42.6243590  12.7735050  57.8708100  41.6454430
  12.8940230  55.5450640  45.6505990  11.9996280  55.5117400  45.9899700
  13.4337780  55.7437430  46.4157240  11.5186380  55.4587910  33.1469560
  10.6150460  55.7218110  32.9721220  12.0027000  55.7299080  32.3669520
  28.0279430  56.1811900  38.4245760  28.5516910  55.6874550  37.7935930
  28.6138850  56.3162260  39.1693330  28.2069150  56.2651770  41.9465310
  27.2571860  56.2315310  42.0610300  28.3882160  57.1751880  41.7115080
  14.0613590  54.5153450  31.0563940  14.7705290  54.0936670  30.5711220
  13.3453530  54.5828680  30.4247290  13.7087750  50.5692780  30.0966590
  14.4315880  51.1101720  30.4147810  13.9812270  50.2956200  29.2208130
  27.5179400  55.4385250  34.3638170  28.0138520  55.2056120  35.1487050
  27.3195470  54.5997090  33.9475810  13.3979940  49.8198970  39.9989210
  14.0456130  49.2696350  39.5584370  13.8181780  50.0742120  40.8205020
  28.9466560  54.0746200  36.8975850  28.8365840  53.9202240  37.8358120
  29.7074150  53.5467140  36.6551260  27.2932280  50.0140330  43.3558850
  27.9304500  50.6274470  43.7218040  27.4407170  50.0500990  42.4108080
  29.8356830  51.9054120  30.1381990  30.7606140  51.7735300  29.9300280
  29.8132620  51.9846940  31.0918440  29.9095320  52.6764780  32.7638700
  29.1146820  52.6109900  33.2931610  30.1138600  53.6115420  32.7524050
  26.8513740  66.7156330  36.7577090  27.4472810  66.3940900  36.0811510
  27.1091890  66.2428150  37.5490360  13.1511940  49.9754640  42.7414530
  12.8026760  50.4318460  43.5072710  12.8199640  49.0811770  42.8236960
  14.7576310  63.1474240  46.9067720  14.7145940  62.7767150  47.7882180
  14.8887320  64.0851810  47.0469540  18.4582340  64.7033830  42.5077440
  18.2173700  64.9708390  41.6207960  19.3984980  64.8739560  42.5628300
  20.6636760  51.1666520  46.2633950  20.6025650  51.7588350  47.0129360
  21.6037140  51.0592480  46.1184210  23.3011320  50.8236580  45.9026240
  23.9151730  51.1415870  45.2407320  23.8460880  50.3385170  46.5222100
  29.7186500  66.7228210  43.3088080  29.2244780  67.1197080  42.5915210
  29.1099790  66.0977420  43.7025360  13.8232580  49.5030840  46.0165300
  14.3715570  49.3218890  45.2531410  13.8887890  48.7124950  46.5521610
  14.5964340  66.0936490  44.0265500  14.0024660  65.9621190  44.7655540
  14.5888180  65.2574630  43.5607600  24.0419360  49.3868720  42.2295530
  23.1679200  49.7203830  42.0268460  23.9330110  48.9141900  43.0547400
  24.9491340  51.5939590  43.6137250  24.6204700  50.7791350  43.2338980
  25.8973640  51.5509400  43.4902940  27.4025950  67.3651630  40.5874820
  26.9428920  68.1167440  40.2132840  26.7738410  66.6458100  40.5289620
  14.2276570  63.4594870  42.9773540  13.5010630  62.8400160  42.9099490
  14.2885720  63.8535480  42.1071620  17.8321670  65.6739870  39.7622950
  18.3486690  65.0627230  39.2371210  18.4819050  66.1768650  40.2533960
  20.5717170  66.5648360  40.5891930  20.8594980  66.3102660  39.7124940
  21.0840390  66.0125720  41.1797500  21.7894180  50.3038560  41.1688440
  21.0065970  50.7784060  41.4485200  21.4957110  49.3993390  41.0601620
  26.3415250  51.0061660  39.2137530  26.7823340  50.9506760  38.3659130
  26.0722840  51.9219670  39.2847710  28.2053820  50.6376900  37.2246350
  28.1442220  49.6938120  37.0777370  28.9845850  50.7456990  37.7699810
  12.5106570  66.7769260  36.1870300  12.3428610  66.1439940  36.8852190
  11.6441080  66.9828660  35.8364490  13.1334590  50.6086040  33.6902160
  13.8913950  50.7214920  33.1166190  12.6711760  51.4455240  33.6445590
  19.6748400  52.7225310  36.6804470  18.8622910  52.3482200  36.3400350
  20.1790040  51.9670390  36.9825660  24.1773380  49.3867760  37.9187540
  24.7802750  49.9587970  38.3936060  23.4366370  49.9507200  37.6961440
  27.3207980  49.7889320  33.1927820  27.5158610  50.6872770  33.4595250
  26.5337850  49.5576400  33.6860770  14.1169270  65.4702490  33.6320440
  13.5916890  65.8510520  32.9282400  14.0413850  66.0953260  34.3530150
  15.5059740  51.1350090  32.2304130  16.0352500  50.3479890  32.1012080
  16.1388060  51.8141280  32.4639660  17.6997580  50.8725230  35.2849520
  17.0700320  50.1712540  35.4519650  17.1602720  51.6329360  35.0682680
  28.8734590  67.0290030  34.9534380  29.0486780  66.3427770  34.3095300
  28.1756160  67.5537080  34.5611050  17.8253140  50.1509210  47.7202010
  17.5437410  50.6542810  46.9562830  18.2072840  49.3530960  47.3544140
  16.7162240  67.4184870  32.5069690  17.4481060  67.1344150  31.9593580
  16.9755910  67.1798150  33.3969070  15.8777030  63.5349600  32.5116020
  15.2485910  64.0034700  33.0601850  15.9924860  62.6898820  32.9462210
  24.4268600  49.5662790  48.2982480  24.3134050  49.8857400  49.1934000
  25.2438340  49.9675300  48.0019760  27.2067090  66.7134320  47.7801170
  27.9992410  66.2183550  47.5727130  27.5000240  67.3924460  48.3876780
  23.3326750  57.5855260  18.6617220  23.2520800  56.6709870  18.3908930
  22.9191170  58.0822330  17.9556930  21.4644790  59.3634280  20.5426490
  20.6886890  58.8834720  20.8325060  22.1157720  58.6839930  20.3682650
  15.4810620  59.6754090  21.4202250  14.6495500  59.4202800  21.8198760
  16.0891600  59.7464860  22.1560170  25.4852220  63.7694470  19.3225620
  25.0233750  62.9981710  19.6512790  26.2977770  63.7960540  19.8278070
  15.4611880  63.7094180  21.6160270  15.7639920  62.8191920  21.4370490
  16.2055470  64.2664400  21.3882520  13.8902570  54.6355980  15.2044640
  13.0019270  54.9771950  15.1024520  14.1743760  54.4356300  14.3125470
  11.8535580  57.2361630  21.0884340  12.4251690  56.4683830  21.0887980
  11.8537120  57.5350390  20.1790950  21.7115530  66.0552480  18.9429610
  21.0926970  66.5109980  18.3724050  22.5667310  66.2103940  18.5419310
  20.9053780  62.0391470  20.5496650  20.8362060  61.0981410  20.3885780
  21.6673640  62.1292880  21.1219220  13.0960450  52.6445990  22.8753270
  12.9163290  51.7471740  23.1556030  12.6940530  53.1917860  23.5500220
  21.9358950  54.8461850  20.7765580  22.3123770  53.9733730  20.6639250
  21.8378460  55.1820550  19.8856020  16.0663960  53.2187480  16.2383020
  16.1730710  54.1191210  16.5451780  15.1556320  53.1705450  15.9477670
  25.7183070  52.3412290  17.7093920  26.5392690  51.8508860  17.7519400
  25.7517150  52.9309950  18.4625760  13.7147120  55.1406490  21.4835610
  14.3957230  55.4044860  22.1023010  13.3995170  54.3007360  21.8173620
  17.9071690  56.1873850  20.5708200  18.4149910  56.6854820  21.2113220
  18.4384930  55.4109050  20.3947560  30.0082620  54.3579040  24.2737550
  29.3034790  54.7460750  23.7552660  30.2740540  55.0529330  24.8758480
  16.1907790  50.8272410  24.8371620  16.1926230  51.3444800  24.0317520
  15.3612100  50.3502590  24.8141550  22.5778880  60.9391720  16.3361520
  21.9596150  61.4041170  15.7724240  23.0902130  61.6319200  16.7531030
  17.4410640  60.4667590  23.0145120  17.1080020  61.0936510  23.6566190
  17.6177320  60.9929470  22.2346790  25.9544550  54.2812670  20.4821460
  25.2500120  54.5697560  21.0624570  26.3156710  55.0912780  20.1221020
  15.8723120  52.5382370  22.8442070  16.2139930  53.3824420  22.5495940
  14.9338930  52.6866110  22.9607410  16.6529740  62.4348390  24.8294300
  17.2703740  63.1099470  24.5478750  15.7922860  62.8436370  24.7381800
  11.9462080  61.6248250  13.7101150  11.5690060  62.1135350  12.9786050
  12.2035150  62.2973530  14.3407680  27.5707330  63.8987800  22.7448940
  26.8870850  64.5686910  22.7365610  28.1101620  64.0968450  21.9793800
  29.0231470  53.7267460  20.8730670  28.0756380  53.7606440  21.0046100
  29.3481460  54.5406410  21.2580030  19.5551010  50.0264640  19.1686660
  19.8625990  49.4711530  18.4522160  18.6251710  50.1609100  18.9859650
  25.1066070  65.7431930  21.4594120  25.1193230  65.3394220  20.5916380
  24.5541290  66.5179220  21.3555550  26.4011490  62.4648150  16.5484290
  26.2907820  61.5222480  16.6733710  26.3979740  62.8263790  17.4347050
  24.5051510  60.6461770  22.7876730  24.9220300  60.4321880  21.9530190
  25.2291330  60.9034560  23.3585350  21.9431770  58.0913470  15.9046780
  21.0161050  58.0250850  16.1335250  22.0956590  59.0293600  15.7902020
  21.9300850  54.3630470  12.9013940  20.9904520  54.5244430  12.9866400
  22.2484110  55.0816150  12.3549930  28.4513610  59.0448990  22.8792970
  27.6232240  59.1142080  22.4043100  29.0464090  59.6303300  22.4108800
  25.9729060  59.6533770  16.4082030  25.3541480  59.3153320  15.7608330
  25.9553510  59.0093530  17.1161220  25.4155620  55.8318310  23.8247840
  25.0026800  56.6572020  24.0787830  24.6831570  55.2463350  23.6324200
  17.5488410  58.6178210  18.6866510  17.1445410  57.9055460  18.1912410
  17.6351530  58.2731450  19.5754550  18.0170110  62.3045770  20.8505720
  17.7198400  61.6991240  20.1713500  18.9669930  62.3423080  20.7395080
  16.2617030  55.3921420  22.4665550  16.8131620  55.5016760  21.6918800
  16.7760540  55.7659020  23.1820780  26.1055720  65.8777640  24.5128820
  25.6286280  66.6849830  24.3201430  25.4217510  65.2255970  24.6655030
  17.1088540  62.0427460  27.5013520  16.2117070  62.2667430  27.7486920
  17.1341410  62.1662400  26.5524920  24.1493760  58.8920580  13.4154780
  24.5887040  58.0543010  13.2692600  24.8622180  59.5249980  13.5018920
  15.9359760  58.9140780  26.0770890  15.7967530  59.7863580  26.4458290
  15.0541120  58.5713590  25.9318830  22.2589140  63.8316650  17.3836020
  22.6985050  64.5740980  16.9691410  22.1976030  64.0743220  18.3074980
  17.7340110  64.8562480  28.2856040  17.7055540  65.2605430  27.4184470
  17.5705080  63.9272840  28.1227640  27.7310900  50.1463390  11.7295820
  27.4183560  50.2390220  12.6294890  28.4923370  50.7244420  11.6793250
  14.2493040  57.5123190  16.1873160  14.1290640  58.2385280  15.5754430
  13.9393930  56.7426100  15.7101070  29.6854930  65.6389580  29.5820210
  30.1614650  66.1172470  30.2609290  30.3062090  65.5707070  28.8565710
  11.8878410  60.6838330  21.9941800  11.9658830  60.8187100  21.0497520
  12.5020090  59.9754220  22.1869920  13.1326040  62.3838520  18.4047980
  12.7254120  62.5253110  17.5501580  14.0239050  62.0998680  18.2019190
  29.0888180  62.8302430  26.7420220  29.2151240  62.5914310  25.8237400
  29.1309560  61.9986970  27.2142300  22.9504920  66.5330430  25.3115030
  23.4649590  66.4438440  26.1137460  22.1074000  66.8790130  25.6042940
  24.9259320  66.8185770  14.7399030  24.7660460  66.5288710  15.6380860
  24.7606030  66.0425900  14.2044260  17.4047700  66.5984300  16.5170650
  17.2290180  65.6819840  16.3038450  16.5503440  66.9571590  16.7568450
  24.6285450  64.3273330  13.2997030  23.9350610  64.3250620  12.6399310
  25.3708310  63.9032650  12.8691200  24.1935380  65.9536040  17.3745520
  24.6492330  65.1725420  17.6884140  24.5327900  66.6642860  17.9186700
  28.9412190  54.8834890  27.7069960  28.3256460  55.3914560  27.1785420
  28.6208610  53.9833220  27.6495900  11.9437930  61.7252500  24.5336260
  12.1068970  61.2557860  23.7155630  12.4090380  61.2176060  25.1985100
  16.7156700  50.8558260  19.5696830  16.2724850  51.6367800  19.2381350
  17.2741690  51.1788150  20.2767770  21.0026510  53.7226780  25.1732150
  20.5405880  53.9309800  25.9852090  20.6004620  52.9086130  24.8702820
  26.0031020  54.9435730  26.3028810  25.1524610  54.6441480  26.6237880
  25.8432810  55.1877740  25.3912630  23.0980730  56.4437480  28.4027600
  23.4234140  55.6101230  28.0629830  23.8861060  56.9666000  28.5505930
  19.8315520  50.4768960  14.4502660  19.2069700  50.4728830  15.1755970
  19.7445640  49.6099920  14.0538630  18.7532600  51.4005590  21.4286430
  19.0504930  52.3068420  21.3478450  19.3018160  50.9124370  20.8146000
  16.5070920  55.9791830  17.2978080  16.2811840  55.7629000  18.2024700
  15.7263450  56.4120290  16.9524050  23.7368680  55.9855200  15.8968730
  23.1377570  56.7091000  15.7132350  24.2848290  55.9231980  15.1145180
  18.9470130  56.8777410  27.9638350  18.8513730  55.9372140  27.8138750
  19.7902110  57.0992480  27.5686420  22.3433550  54.6218740  17.9272010
  22.7363120  54.9390940  17.1140700  22.7050400  53.7430620  18.0416530
  14.0780670  53.2891080  26.1172130  13.6844060  54.1366290  26.3244910
  13.3899070  52.6517450  26.3080770  20.6525720  53.3726050  29.1868870
  19.9624040  53.1798250  29.8214960  21.3958020  53.6560690  29.7193170
  11.3797720  51.2119540  20.1502210  11.0910770  51.7822400  20.8627190
  12.1243480  50.7323990  20.5133440  11.5667950  55.1539660  11.3604930
  11.4842620  56.0970420  11.5019920  11.2151010  55.0114570  10.4817280
  22.9288690  57.2124490  22.0222790  22.1969810  57.7211300  22.3712890
  22.5313030  56.3954470  21.7211570  19.3666080  53.8878690  20.4275280
  19.3702140  53.4468640  19.5779820  20.2617200  54.2096020  20.5347100
  15.2168460  53.7705180  19.3869490  14.8768510  54.2480410  20.1436540
  14.4545780  53.3170300  19.0270590  19.4286230  54.8890770  13.4182040
  19.5499050  54.8477250  14.3667860  19.0434740  55.7514920  13.2628770
  23.3914600  52.6658170  21.4345730  23.4087340  53.1166820  22.2787580
  23.1430180  51.7663810  21.6479170  18.4407730  57.1991910  12.8165340
  17.8724630  56.7510160  12.1901250  19.1496730  57.5584690  12.2830490
  26.8185350  50.0790350  27.2732110  27.1431120  49.3480010  27.7990090
  26.8541860  49.7603990  26.3713100  13.5176910  61.1003930  26.6932070
  13.1331700  60.4597600  27.2915030  13.8289100  61.8040050  27.2626800
  19.6674050  57.9480470  22.1740690  20.0344180  57.4739040  22.9202030
  19.4779110  58.8222040  22.5149030  12.5314540  52.6924160  18.3034160
  12.2461460  52.3279830  19.1412780  12.4693400  51.9604620  17.6897300
  17.4573420  56.9889110  24.4924900  17.1530490  57.8681090  24.7175260
  18.4119880  57.0488900  24.5282340  15.9855210  61.1950100  15.0891750
  15.2117470  60.6547720  14.9290470  16.7149840  60.6756710  14.7509510
  26.7443190  60.1915460  20.8818140  27.4642310  60.6870750  20.4914250
  26.5425010  59.5133350  20.2372010  22.2053130  51.5853420  15.0247530
  21.3917740  51.0866590  14.9492840  22.0115080  52.4251670  14.6083880
  22.1261990  60.2624520  26.7687140  22.0599300  59.3420190  26.5144730
  21.4967130  60.3599960  27.4831780  24.9201520  55.9573070  13.3209690
  25.8081140  56.2690300  13.1461030  24.8906610  55.0845320  12.9290270
  16.0292610  60.8630480  18.7270560  16.5471280  60.0598740  18.6727450
  15.5776630  60.8009620  19.5687390  20.9162110  62.1296760  13.9997860
  21.2577810  62.8738990  13.5041180  20.0874820  62.4427880  14.3622690
  13.5137150  57.8291850  25.6396260  13.1552090  58.4945700  26.2269600
  13.2191710  56.9975400  26.0108880  16.7150270  58.2876090  28.5235810
  16.4150410  58.4333270  27.6263630  17.4861510  57.7281380  28.4309200
  22.0578720  63.0845090  26.5190940  22.0723260  62.1526050  26.3009850
  21.3503820  63.1704850  27.1580710  27.1915790  57.2684910  12.7889550
  27.1079510  57.6999130  11.9385990  27.9109980  57.7283260  13.2216370
  28.2689930  59.7252430  25.8659520  27.5438120  60.3181210  25.6688910
  28.7965390  59.7175970  25.0672890  28.2203040  64.1227170  15.5171680
  27.5779200  63.4682790  15.7915400  27.8333700  64.5282260  14.7412350
  23.7989520  61.4512600  19.3643370  24.1513340  60.8540730  18.7044740
  22.9151850  61.1256830  19.5351620  19.8852800  62.2110290  16.7713780
  20.5723930  62.7579500  17.1521370  19.0985220  62.7551020  16.8063390
  12.0245200  57.8283110  12.2630860  12.8940050  58.1107910  12.5466780
  11.5335520  58.6418980  12.1479670  19.1880010  59.2156320  16.3839140
  19.6442790  60.0261570  16.6099330  18.8368220  58.8979460  17.2157630
  21.4912620  64.7262660  23.6131440  22.1354840  64.9322040  24.2904860
  21.8542060  63.9651060  23.1602290  15.0891790  49.5593970  16.8561660
  14.9606420  49.5511870  17.8046580  14.2653810  49.8977060  16.5052670
  22.7644700  62.7295010  22.3308890  23.4066930  62.0288170  22.4441060
  23.2894050  63.5093450  22.1505780  26.6100420  63.0143630  12.0548030
  26.3838000  62.2974070  12.6472670  26.2196620  62.7656070  11.2169780
  24.5382320  63.5289910  25.5344950  24.8738560  64.1156600  26.2122870
  23.6182660  63.3982620  25.7642740  12.3916450  67.0410490  12.8292490
  12.7514090  67.6399830  12.1749760  12.2508790  67.5870380  13.6027520
  12.0885720  51.3185090  26.3168360  11.3744240  51.5182010  26.9220970
  12.5080760  50.5424660  26.6883160  26.1916670  60.9315570  13.7162190
  25.9038370  61.3928260  14.5040070  26.9868840  60.4713340  13.9846410
  12.3758310  65.3065350  27.3034890  12.4849430  64.3660090  27.1630280
  11.7238870  65.5720100  26.6548620  20.3670900  63.5781240  28.7033010
  20.0467770  62.8590480  29.2478700  19.6929260  64.2536310  28.7769070
  18.4085070  64.4241690  13.6466160  18.3995170  65.1571380  13.0310670
  17.4883430  64.1773270  13.7393120  14.0091710  59.6456580  14.3912920
  13.4019660  60.3855480  14.4008220  14.4841060  59.7355940  13.5651120
  23.5824500  53.8107400  24.0669810  23.9505320  52.9902610  24.3949380
  22.7222700  53.8709290  24.4825460  26.9486530  52.7664340  14.8757370
  26.3199690  52.8710010  14.1615600  26.4538450  52.9861120  15.6651250
  21.3944670  64.4869930  12.3091350  21.4956650  64.2833920  11.3793330
  20.4946410  64.2328210  12.5139130  18.9170560  55.0450290  16.2915250
  18.2086710  55.5136630  16.7328860  19.2015040  54.3872300  16.9260440
  20.5426490  56.4646990  24.2907780  21.0411740  56.9392810  24.9559630
  20.6849440  55.5410510  24.4977810  22.9485990  51.7700950  17.7311040
  22.8253770  51.7887080  16.7820550  23.8970550  51.8179890  17.8509440
  20.0362780  67.0056250  17.0039020  20.2904280  66.9677640  16.0818390
  19.0875260  66.8789580  16.9967270  17.1205580  53.3535370  13.6665960
  17.9696110  53.7905520  13.6006150  16.7536850  53.6655630  14.4938020
  27.7493350  52.6814950  25.1336170  27.2466950  53.4220350  25.4729980
  28.5650010  53.0698950  24.8172960  26.0415360  57.9248130  18.5797530
  25.1005500  57.9398360  18.7545220  26.3559430  57.1384090  19.0257830
  16.0197000  59.6067730  12.1401490  16.7860270  59.4949090  12.7026920
  16.0971690  58.9105700  11.4878260  14.7143760  57.0392800  12.8234380
  14.7947350  56.0920310  12.9351780  15.6063510  57.3699680  12.9295040
  28.0440940  65.0956980  20.2551790  28.1688360  65.9188150  20.7275600
  28.9106500  64.8847710  19.9075940  15.5158470  67.1888190  19.9268920
  16.2520950  66.6403650  20.1977490  15.8999390  68.0544200  19.7874910
  12.4003950  63.2561760  15.8010430  11.4743730  63.4982900  15.7915840
  12.8660380  64.0836020  15.6795180  14.5216750  66.3734260  29.1154500
  15.3229480  66.6946310  29.5289900  14.0068570  66.0129840  29.8374410
  18.6260780  66.3618500  11.7494490  19.4189390  66.6507330  11.2976280
  18.1065130  65.9310670  11.0706970  23.3581380  62.4814130  29.0629910
  22.7519540  62.5045730  28.3225660  23.0535490  61.7497170  29.5997160
  24.7881750  66.2094420  27.6739320  25.7403500  66.1252440  27.6239560
  24.6409970  66.8736130  28.3473110  27.6790950  65.5888630  13.1731230
  27.3932460  65.1753770  12.3585410  27.4810500  66.5176340  13.0531750
  12.2414560  58.8607720  28.0590550  12.7453580  58.2815000  28.6306780
  11.5021980  59.1447950  28.5966920  19.1438180  61.5821910  11.6136840
  19.0388820  60.9674260  12.3398220  18.9762400  61.0587800  10.8299850
  19.2952500  60.2678710  27.5926070  18.5298170  60.8363710  27.5080740
  19.4768460  59.9754920  26.6994300  22.3840910  60.6441940  12.2178830
  21.8351010  61.0911240  12.8621570  23.0060170  60.1391190  12.7416500
  26.4375850  61.9984040  28.1501090  27.1785320  62.3359800  27.6468550
  25.6748530  62.1676100  27.5970860  14.2737640  57.0037310  28.9540620
  14.3142980  56.7051180  29.8625850  15.1283140  57.4044920  28.7948140
  18.0516030  59.6032860  14.1144130  18.4732450  59.4372730  14.9575520
  18.1766870  58.7933090  13.6199270  16.2143450  55.5829410  26.9215110
  15.6839910  55.0920360  26.2938450  16.8831520  56.0113610  26.3873040
  20.5643670  58.6270470  11.3621230  21.0849330  57.9119490  10.9962380
  21.2112070  59.2656340  11.6621740  25.1121510  60.0498870  26.6856300
  25.5262530  60.2043950  27.5346720  24.1772510  60.1754090  26.8482080
  25.5843680  57.3895030  28.6895450  26.1664450  56.6347350  28.6015930
  25.7605450  57.9202470  27.9126930  16.7015750  52.5491780  27.0012400
  16.6072620  51.9312530  26.2763270  16.1213140  53.2758070  26.7742310
  19.4677190  51.1065020  24.0339790  19.0194490  51.1289280  23.1885340
  18.8342390  50.7084040  24.6310090  19.8736740  60.0019350  24.6552230
  20.2924850  60.8452080  24.4828470  18.9545370  60.1391390  24.4259010
  22.2100640  57.7335530  26.0390070  22.3296850  57.1376670  26.7784910
  23.0694640  57.7705220  25.6191370  24.5488540  58.2872720  24.6152580
  24.0223760  58.8115340  24.0117720  24.8919880  58.9200110  25.2462310
  16.9474930  55.6766090  11.0602290  16.7463990  54.8133450  11.4215630
  16.7766980  55.5899450  10.1223890  17.7244160  66.3072360  25.7709960
  17.1865250  67.0318420  25.4518660  17.9778120  65.8302700  24.9807300
  18.9769410  54.2756880  27.2965890  19.5669100  53.9672730  27.9843710
  18.1589650  53.8036630  27.4525790  23.7962840  53.8922690  27.5298910
  23.1078360  53.2304230  27.4648900  24.5168860  53.4460960  27.9747370
  24.4263240  50.4874320  13.5889170  24.7065530  49.6442220  13.9448590
  23.6528970  50.7197430  14.1027920  15.7457730  52.7766710  11.0480170
  16.0483630  52.7834140  10.1399320  16.4852320  52.4264570  11.5447830
  20.5806370  67.5423570  26.0296610  20.5065070  68.4458710  26.3368980
  19.6785210  67.2235470  26.0018680  18.9642660  51.7201330  12.0336370
  18.6164660  51.0425320  11.4538820  19.1655430  51.2590840  12.8479760
  21.1291700  66.7082080  13.6522970  22.0242490  67.0467050  13.6741730
  21.1609330  65.9861490  13.0247250  14.7687860  62.0809130  11.8809970
  15.2062730  62.6238800  12.5367550  15.2535590  61.2556080  11.8906310
  11.9833660  64.8698160  19.3330230  12.3136670  64.0019220  19.1008870
  12.4124660  65.0756680  20.1635190  16.5795580  63.2007170  16.9932200
  16.2791120  63.0772140  17.8936110  16.4733070  62.3415760  16.5847930
  12.4723870  65.7368750  22.0711860  12.0354860  65.9169550  22.9036010
  13.0401550  66.4943370  21.9293580  28.1086050  65.2385750  26.3589170
  27.5088040  65.2978310  25.6153090  28.2379950  64.2990730  26.4886020
  29.3487500  62.9803570  11.6958880  28.5180460  63.0480220  12.1666110
  29.5259330  63.8707690  11.3925740  28.8043960  59.7251050  14.1993080
  29.5662870  60.2947700  14.3052770  28.8198330  59.1578250  14.9701390
  12.3048300  58.2488980  18.4300740  11.6497140  57.9800620  17.7860440
  13.1426250  58.1393460  17.9802720  29.8103930  60.5801150  19.0435010
  30.1812760  59.7968470  18.6370980  30.4505860  61.2690250  18.8652310
  26.7937690  61.9637730  24.4565330  25.9797530  62.3934890  24.7191120
  27.2011890  62.5756140  23.8434380  28.8563130  60.0185420  11.3565600
  29.1311970  60.9264300  11.2284820  28.6673870  59.9547950  12.2927590
  25.2538740  53.0430270  12.6519230  25.6723620  52.8561250  11.8115890
  24.9474800  52.1909320  12.9622160  28.7528470  57.9554410  16.3495030
  28.3772070  57.1882340  15.9176320  28.0231590  58.3377110  16.8369960
  13.3424230  58.6341550  22.9704080  13.7097270  58.5468950  23.8500100
  12.7735050  57.8708100  22.8710940  28.1428090  57.1025930  25.9834550
  27.9114180  56.8738680  25.0832500  28.4032640  58.0225480  25.9379440
  12.8940230  55.5450640  26.8762500  11.9996280  55.5117400  27.2156210
  13.4337780  55.7437430  27.6413750  26.5816160  52.3282360  28.7614250
  27.4586340  52.3365760  29.1448250  26.5937000  51.5913200  28.1506600
  11.5186380  55.4587910  14.3726070  10.6150460  55.7218110  14.1977730
  12.0027000  55.7299080  13.5926030  28.0279430  56.1811900  19.6502270
  28.5516910  55.6874550  19.0192440  28.6138850  56.3162260  20.3949840
  28.2069150  56.2651770  23.1721820  27.2571860  56.2315310  23.2866810
  28.3882160  57.1751880  22.9371590  14.0613590  54.5153450  12.2820450
  14.7705290  54.0936670  11.7967730  13.3453530  54.5828680  11.6503800
  13.7087750  50.5692780  11.3223100  14.4315880  51.1101720  11.6404320
  13.9812270  50.2956200  10.4464640  27.5179400  55.4385250  15.5894680
  28.0138520  55.2056120  16.3743560  27.3195470  54.5997090  15.1732320
  13.3979940  49.8198970  21.2245720  14.0456130  49.2696350  20.7840880
  13.8181780  50.0742120  22.0461530  28.9466560  54.0746200  18.1232360
  28.8365840  53.9202240  19.0614630  29.7074150  53.5467140  17.8807770
  27.2932280  50.0140330  24.5815360  27.9304500  50.6274470  24.9474550
  27.4407170  50.0500990  23.6364590  29.8356830  51.9054120  11.3638500
  30.7606140  51.7735300  11.1556790  29.8132620  51.9846940  12.3174950
  29.9095320  52.6764780  13.9895210  29.1146820  52.6109900  14.5188120
  30.1138600  53.6115420  13.9780560  26.8513740  66.7156330  17.9833600
  27.4472810  66.3940900  17.3068020  27.1091890  66.2428150  18.7746870
  13.1511940  49.9754640  23.9671040  12.8026760  50.4318460  24.7329220
  12.8199640  49.0811770  24.0493470  14.7576310  63.1474240  28.1324230
  14.7145940  62.7767150  29.0138690  14.8887320  64.0851810  28.2726050
  18.4582340  64.7033830  23.7333950  18.2173700  64.9708390  22.8464470
  19.3984980  64.8739560  23.7884810  20.6636760  51.1666520  27.4890460
  20.6025650  51.7588350  28.2385870  21.6037140  51.0592480  27.3440720
  23.3011320  50.8236580  27.1282750  23.9151730  51.1415870  26.4663830
  23.8460880  50.3385170  27.7478610  29.7186500  66.7228210  24.5344590
  29.2244780  67.1197080  23.8171720  29.1099790  66.0977420  24.9281870
  13.8232580  49.5030840  27.2421810  14.3715570  49.3218890  26.4787920
  13.8887890  48.7124950  27.7778120  14.5964340  66.0936490  25.2522010
  14.0024660  65.9621190  25.9912050  14.5888180  65.2574630  24.7864110
  24.0419360  49.3868720  23.4552040  23.1679200  49.7203830  23.2524970
  23.9330110  48.9141900  24.2803910  24.9491340  51.5939590  24.8393760
  24.6204700  50.7791350  24.4595490  25.8973640  51.5509400  24.7159450
  27.4025950  67.3651630  21.8131330  26.9428920  68.1167440  21.4389350
  26.7738410  66.6458100  21.7546130  14.2276570  63.4594870  24.2030050
  13.5010630  62.8400160  24.1356000  14.2885720  63.8535480  23.3328130
  17.8321670  65.6739870  20.9879460  18.3486690  65.0627230  20.4627720
  18.4819050  66.1768650  21.4790470  20.5717170  66.5648360  21.8148440
  20.8594980  66.3102660  20.9381450  21.0840390  66.0125720  22.4054010
  21.7894180  50.3038560  22.3944950  21.0065970  50.7784060  22.6741710
  21.4957110  49.3993390  22.2858130  26.3415250  51.0061660  20.4394040
  26.7823340  50.9506760  19.5915640  26.0722840  51.9219670  20.5104220
  28.2053820  50.6376900  18.4502860  28.1442220  49.6938120  18.3033880
  28.9845850  50.7456990  18.9956320  12.5106570  66.7769260  17.4126810
  12.3428610  66.1439940  18.1108700  11.6441080  66.9828660  17.0621000
  13.1334590  50.6086040  14.9158670  13.8913950  50.7214920  14.3422700
  12.6711760  51.4455240  14.8702100  19.6748400  52.7225310  17.9060980
  18.8622910  52.3482200  17.5656860  20.1790040  51.9670390  18.2082170
  24.1773380  49.3867760  19.1444050  24.7802750  49.9587970  19.6192570
  23.4366370  49.9507200  18.9217950  27.3207980  49.7889320  14.4184330
  27.5158610  50.6872770  14.6851760  26.5337850  49.5576400  14.9117280
  14.1169270  65.4702490  14.8576950  13.5916890  65.8510520  14.1538910
  14.0413850  66.0953260  15.5786660  15.5059740  51.1350090  13.4560640
  16.0352500  50.3479890  13.3268590  16.1388060  51.8141280  13.6896170
  17.6997580  50.8725230  16.5106030  17.0700320  50.1712540  16.6776160
  17.1602720  51.6329360  16.2939190  20.6389530  67.4864460  29.1816640
  21.5656840  67.2508730  29.2252600  20.6239960  68.3136460  28.7002670
  28.8734590  67.0290030  16.1790890  29.0486780  66.3427770  15.5351810
  28.1756160  67.5537080  15.7867560  17.8253140  50.1509210  28.9458520
  17.5437410  50.6542810  28.1819340  18.2072840  49.3530960  28.5800650
  16.7162240  67.4184870  13.7326200  17.4481060  67.1344150  13.1850090
  16.9755910  67.1798150  14.6225580  15.8777030  63.5349600  13.7372530
  15.2485910  64.0034700  14.2858360  15.9924860  62.6898820  14.1718720
  24.4268600  49.5662790  29.5238990  24.3134050  49.8857400  30.4190510
  25.2438340  49.9675300  29.2276270  27.2067090  66.7134320  29.0057680
  27.9992410  66.2183550  28.7983640  27.5000240  67.3924460  29.6133290
  21.4644790  59.3634280   1.7683000  20.6886890  58.8834720   2.0581570
  22.1157720  58.6839930   1.5939160  15.4810620  59.6754090   2.6458760
  14.6495500  59.4202800   3.0455270  16.0891600  59.7464860   3.3816680
  15.4611880  63.7094180   2.8416780  15.7639920  62.8191920   2.6627000
  16.2055470  64.2664400   2.6139030  20.9053780  62.0391470   1.7753160
  20.8362060  61.0981410   1.6142290  21.6673640  62.1292880   2.3475730
  13.0960450  52.6445990   4.1009780  12.9163290  51.7471740   4.3812540
  12.6940530  53.1917860   4.7756730  13.7147120  55.1406490   2.7092120
  14.3957230  55.4044860   3.3279520  13.3995170  54.3007360   3.0430130
  17.9071690  56.1873850   1.7964710  18.4149910  56.6854820   2.4369730
  18.4384930  55.4109050   1.6204070  30.0082620  54.3579040   5.4994060
  29.3034790  54.7460750   4.9809170  30.2740540  55.0529330   6.1014990
  16.1907790  50.8272410   6.0628130  16.1926230  51.3444800   5.2574030
  15.3612100  50.3502590   6.0398060  17.4410640  60.4667590   4.2401630
  17.1080020  61.0936510   4.8822700  17.6177320  60.9929470   3.4603300
  15.8723120  52.5382370   4.0698580  16.2139930  53.3824420   3.7752450
  14.9338930  52.6866110   4.1863920  16.6529740  62.4348390   6.0550810
  17.2703740  63.1099470   5.7735260  15.7922860  62.8436370   5.9638310
  27.5707330  63.8987800   3.9705450  26.8870850  64.5686910   3.9622120
  28.1101620  64.0968450   3.2050310  29.0231470  53.7267460   2.0987180
  28.0756380  53.7606440   2.2302610  29.3481460  54.5406410   2.4836540
  25.1066070  65.7431930   2.6850630  25.1193230  65.3394220   1.8172890
  24.5541290  66.5179220   2.5812060  24.5051510  60.6461770   4.0133240
  24.9220300  60.4321880   3.1786700  25.2291330  60.9034560   4.5841860
  28.4513610  59.0448990   4.1049480  27.6232240  59.1142080   3.6299610
  29.0464090  59.6303300   3.6365310  25.4155620  55.8318310   5.0504350
  25.0026800  56.6572020   5.3044340  24.6831570  55.2463350   4.8580710
  16.2617030  55.3921420   3.6922060  16.8131620  55.5016760   2.9175310
  16.7760540  55.7659020   4.4077290  26.1055720  65.8777640   5.7385330
  25.6286280  66.6849830   5.5457940  25.4217510  65.2255970   5.8911540
  17.1088540  62.0427460   8.7270030  16.2117070  62.2667430   8.9743430
  17.1341410  62.1662400   7.7781430  15.9359760  58.9140780   7.3027400
  15.7967530  59.7863580   7.6714800  15.0541120  58.5713590   7.1575340
  17.7340110  64.8562480   9.5112550  17.7055540  65.2605430   8.6440980
  17.5705080  63.9272840   9.3484150  29.6854930  65.6389580  10.8076720
  30.1614650  66.1172470  11.4865800  30.3062090  65.5707070  10.0822220
  11.8878410  60.6838330   3.2198310  11.9658830  60.8187100   2.2754030
  12.5020090  59.9754220   3.4126430  29.0888180  62.8302430   7.9676730
  29.2151240  62.5914310   7.0493910  29.1309560  61.9986970   8.4398810
  22.9504920  66.5330430   6.5371540  23.4649590  66.4438440   7.3393970
  22.1074000  66.8790130   6.8299450  28.9412190  54.8834890   8.9326470
  28.3256460  55.3914560   8.4041930  28.6208610  53.9833220   8.8752410
  11.9437930  61.7252500   5.7592770  12.1068970  61.2557860   4.9412140
  12.4090380  61.2176060   6.4241610  21.0026510  53.7226780   6.3988660
  20.5405880  53.9309800   7.2108600  20.6004620  52.9086130   6.0959330
  26.0031020  54.9435730   7.5285320  25.1524610  54.6441480   7.8494390
  25.8432810  55.1877740   6.6169140  23.0980730  56.4437480   9.6284110
  23.4234140  55.6101230   9.2886340  23.8861060  56.9666000   9.7762440
  18.7532600  51.4005590   2.6542940  19.0504930  52.3068420   2.5734960
  19.3018160  50.9124370   2.0402510  18.9470130  56.8777410   9.1894860
  18.8513730  55.9372140   9.0395260  19.7902110  57.0992480   8.7942930
  14.0780670  53.2891080   7.3428640  13.6844060  54.1366290   7.5501420
  13.3899070  52.6517450   7.5337280  20.6525720  53.3726050  10.4125380
  19.9624040  53.1798250  11.0471470  21.3958020  53.6560690  10.9449680
  22.9288690  57.2124490   3.2479300  22.1969810  57.7211300   3.5969400
  22.5313030  56.3954470   2.9468080  23.3914600  52.6658170   2.6602240
  23.4087340  53.1166820   3.5044090  23.1430180  51.7663810   2.8735680
  26.8185350  50.0790350   8.4988620  27.1431120  49.3480010   9.0246600
  26.8541860  49.7603990   7.5969610  13.5176910  61.1003930   7.9188580
  13.1331700  60.4597600   8.5171540  13.8289100  61.8040050   8.4883310
  19.6674050  57.9480470   3.3997200  20.0344180  57.4739040   4.1458540
  19.4779110  58.8222040   3.7405540  17.4573420  56.9889110   5.7181410
  17.1530490  57.8681090   5.9431770  18.4119880  57.0488900   5.7538850
  26.7443190  60.1915460   2.1074650  27.4642310  60.6870750   1.7170760
  26.5425010  59.5133350   1.4628520  22.1261990  60.2624520   7.9943650
  22.0599300  59.3420190   7.7401240  21.4967130  60.3599960   8.7088290
  13.5137150  57.8291850   6.8652770  13.1552090  58.4945700   7.4526110
  13.2191710  56.9975400   7.2365390  16.7150270  58.2876090   9.7492320
  16.4150410  58.4333270   8.8520140  17.4861510  57.7281380   9.6565710
  22.0578720  63.0845090   7.7447450  22.0723260  62.1526050   7.5266360
  21.3503820  63.1704850   8.3837220  28.2689930  59.7252430   7.0916030
  27.5438120  60.3181210   6.8945420  28.7965390  59.7175970   6.2929400
  21.4912620  64.7262660   4.8387950  22.1354840  64.9322040   5.5161370
  21.8542060  63.9651060   4.3858800  22.7644700  62.7295010   3.5565400
  23.4066930  62.0288170   3.6697570  23.2894050  63.5093450   3.3762290
  24.5382320  63.5289910   6.7601460  24.8738560  64.1156600   7.4379380
  23.6182660  63.3982620   6.9899250  12.0885720  51.3185090   7.5424870
  11.3744240  51.5182010   8.1477480  12.5080760  50.5424660   7.9139670
  12.3758310  65.3065350   8.5291400  12.4849430  64.3660090   8.3886790
  11.7238870  65.5720100   7.8805130  20.3670900  63.5781240   9.9289520
  20.0467770  62.8590480  10.4735210  19.6929260  64.2536310  10.0025580
  23.5824500  53.8107400   5.2926320  23.9505320  52.9902610   5.6205890
  22.7222700  53.8709290   5.7081970  20.5426490  56.4646990   5.5164290
  21.0411740  56.9392810   6.1816140  20.6849440  55.5410510   5.7234320
  27.7493350  52.6814950   6.3592680  27.2466950  53.4220350   6.6986490
  28.5650010  53.0698950   6.0429470  14.5216750  66.3734260  10.3411010
  15.3229480  66.6946310  10.7546410  14.0068570  66.0129840  11.0630920
  23.3581380  62.4814130  10.2886420  22.7519540  62.5045730   9.5482170
  23.0535490  61.7497170  10.8253670  24.7881750  66.2094420   8.8995830
  25.7403500  66.1252440   8.8496070  24.6409970  66.8736130   9.5729620
  12.2414560  58.8607720   9.2847060  12.7453580  58.2815000   9.8563290
  11.5021980  59.1447950   9.8223430  19.2952500  60.2678710   8.8182580
  18.5298170  60.8363710   8.7337250  19.4768460  59.9754920   7.9250810
  26.4375850  61.9984040   9.3757600  27.1785320  62.3359800   8.8725060
  25.6748530  62.1676100   8.8227370  14.2737640  57.0037310  10.1797130
  14.3142980  56.7051180  11.0882360  15.1283140  57.4044920  10.0204650
  16.2143450  55.5829410   8.1471620  15.6839910  55.0920360   7.5194960
  16.8831520  56.0113610   7.6129550  25.1121510  60.0498870   7.9112810
  25.5262530  60.2043950   8.7603230  24.1772510  60.1754090   8.0738590
  25.5843680  57.3895030   9.9151960  26.1664450  56.6347350   9.8272440
  25.7605450  57.9202470   9.1383440  16.7015750  52.5491780   8.2268910
  16.6072620  51.9312530   7.5019780  16.1213140  53.2758070   7.9998820
  19.4677190  51.1065020   5.2596300  19.0194490  51.1289280   4.4141850
  18.8342390  50.7084040   5.8566600  19.8736740  60.0019350   5.8808740
  20.2924850  60.8452080   5.7084980  18.9545370  60.1391390   5.6515520
  22.2100640  57.7335530   7.2646580  22.3296850  57.1376670   8.0041420
  23.0694640  57.7705220   6.8447880  24.5488540  58.2872720   5.8409090
  24.0223760  58.8115340   5.2374230  24.8919880  58.9200110   6.4718820
  17.7244160  66.3072360   6.9966470  17.1865250  67.0318420   6.6775170
  17.9778120  65.8302700   6.2063810  18.9769410  54.2756880   8.5222400
  19.5669100  53.9672730   9.2100220  18.1589650  53.8036630   8.6782300
  23.7962840  53.8922690   8.7555420  23.1078360  53.2304230   8.6905410
  24.5168860  53.4460960   9.2003880  20.5806370  67.5423570   7.2553120
  20.5065070  68.4458710   7.5625490  19.6785210  67.2235470   7.2275190
  12.4723870  65.7368750   3.2968370  12.0354860  65.9169550   4.1292520
  13.0401550  66.4943370   3.1550090  28.1086050  65.2385750   7.5845680
  27.5088040  65.2978310   6.8409600  28.2379950  64.2990730   7.7142530
  26.7937690  61.9637730   5.6821840  25.9797530  62.3934890   5.9447630
  27.2011890  62.5756140   5.0690890  13.3424230  58.6341550   4.1960590
  13.7097270  58.5468950   5.0756610  12.7735050  57.8708100   4.0967450
  28.1428090  57.1025930   7.2091060  27.9114180  56.8738680   6.3089010
  28.4032640  58.0225480   7.1635950  12.8940230  55.5450640   8.1019010
  11.9996280  55.5117400   8.4412720  13.4337780  55.7437430   8.8670260
  26.5816160  52.3282360   9.9870760  27.4586340  52.3365760  10.3704760
  26.5937000  51.5913200   9.3763110  28.2069150  56.2651770   4.3978330
  27.2571860  56.2315310   4.5123320  28.3882160  57.1751880   4.1628100
  13.3979940  49.8198970   2.4502230  14.0456130  49.2696350   2.0097390
  13.8181780  50.0742120   3.2718040  27.2932280  50.0140330   5.8071870
  27.9304500  50.6274470   6.1731060  27.4407170  50.0500990   4.8621100
  13.1511940  49.9754640   5.1927550  12.8026760  50.4318460   5.9585730
  12.8199640  49.0811770   5.2749980  14.7576310  63.1474240   9.3580740
  14.7145940  62.7767150  10.2395200  14.8887320  64.0851810   9.4982560
  18.4582340  64.7033830   4.9590460  18.2173700  64.9708390   4.0720980
  19.3984980  64.8739560   5.0141320  20.6636760  51.1666520   8.7146970
  20.6025650  51.7588350   9.4642380  21.6037140  51.0592480   8.5697230
  23.3011320  50.8236580   8.3539260  23.9151730  51.1415870   7.6920340
  23.8460880  50.3385170   8.9735120  29.7186500  66.7228210   5.7601100
  29.2244780  67.1197080   5.0428230  29.1099790  66.0977420   6.1538380
  13.8232580  49.5030840   8.4678320  14.3715570  49.3218890   7.7044430
  13.8887890  48.7124950   9.0034630  14.5964340  66.0936490   6.4778520
  14.0024660  65.9621190   7.2168560  14.5888180  65.2574630   6.0120620
  24.0419360  49.3868720   4.6808550  23.1679200  49.7203830   4.4781480
  23.9330110  48.9141900   5.5060420  24.9491340  51.5939590   6.0650270
  24.6204700  50.7791350   5.6852000  25.8973640  51.5509400   5.9415960
  27.4025950  67.3651630   3.0387840  26.9428920  68.1167440   2.6645860
  26.7738410  66.6458100   2.9802640  14.2276570  63.4594870   5.4286560
  13.5010630  62.8400160   5.3612510  14.2885720  63.8535480   4.5584640
  17.8321670  65.6739870   2.2135970  18.3486690  65.0627230   1.6884230
  18.4819050  66.1768650   2.7046980  20.5717170  66.5648360   3.0404950
  20.8594980  66.3102660   2.1637960  21.0840390  66.0125720   3.6310520
  21.7894180  50.3038560   3.6201460  21.0065970  50.7784060   3.8998220
  21.4957110  49.3993390   3.5114640  20.6389530  67.4864460  10.4073150
  21.5656840  67.2508730  10.4509110  20.6239960  68.3136460   9.9259180
  17.8253140  50.1509210  10.1715030  17.5437410  50.6542810   9.4075850
  18.2072840  49.3530960   9.8057160  24.4268600  49.5662790  10.7495500
  24.3134050  49.8857400  11.6447020  25.2438340  49.9675300  10.4532780
  27.2067090  66.7134320  10.2314190  27.9992410  66.2183550  10.0240150
  27.5000240  67.3924460  10.8389800  23.3326750  38.8111770 150.0821650
  23.2520800  37.8966380 149.8113360  22.9191170  39.3078840 149.3761360
  25.4852220  44.9950980 150.7430050  25.0233750  44.2238220 151.0717220
  26.2977770  45.0217050 151.2482500  13.8902570  35.8612490 146.6249070
  13.0019270  36.2028460 146.5228950  14.1743760  35.6612810 145.7329900
  21.7115530  47.2808990 150.3634040  21.0926970  47.7366490 149.7928480
  22.5667310  47.4360450 149.9623740  16.0663960  34.4443990 147.6587450
  16.1730710  35.3447720 147.9656210  15.1556320  34.3961960 147.3682100
  25.7183070  33.5668800 149.1298350  26.5392690  33.0765370 149.1723830
  25.7517150  34.1566460 149.8830190  22.5778880  42.1648230 147.7565950
  21.9596150  42.6297680 147.1928670  23.0902130  42.8575710 148.1735460
  11.9462080  42.8504760 145.1305580  11.5690060  43.3391860 144.3990480
  12.2035150  43.5230040 145.7612110  19.5551010  31.2521150 150.5891090
  19.8625990  30.6968040 149.8726590  18.6251710  31.3865610 150.4064080
  26.4011490  43.6904660 147.9688720  26.2907820  42.7478990 148.0938140
  26.3979740  44.0520300 148.8551480  21.9431770  39.3169980 147.3251210
  21.0161050  39.2507360 147.5539680  22.0956590  40.2550110 147.2106450
  21.9300850  35.5886980 144.3218370  20.9904520  35.7500940 144.4070830
  22.2484110  36.3072660 143.7754360  25.9729060  40.8790280 147.8286460
  25.3541480  40.5409830 147.1812760  25.9553510  40.2350040 148.5365650
  17.5488410  39.8434720 150.1070940  17.1445410  39.1311970 149.6116840
  17.6351530  39.4987960 150.9958980  24.1493760  40.1177090 144.8359210
  24.5887040  39.2799520 144.6897030  24.8622180  40.7506490 144.9223350
  22.2589140  45.0573160 148.8040450  22.6985050  45.7997490 148.3895840
  22.1976030  45.2999730 149.7279410  27.7310900  31.3719900 143.1500250
  27.4183560  31.4646730 144.0499320  28.4923370  31.9500930 143.0997680
  14.2493040  38.7379700 147.6077590  14.1290640  39.4641790 146.9958860
  13.9393930  37.9682610 147.1305500  13.1326040  43.6095030 149.8252410
  12.7254120  43.7509620 148.9706010  14.0239050  43.3255190 149.6223620
  24.9259320  48.0442280 146.1603460  24.7660460  47.7545220 147.0585290
  24.7606030  47.2682410 145.6248690  17.4047700  47.8240810 147.9375080
  17.2290180  46.9076350 147.7242880  16.5503440  48.1828100 148.1772880
  24.6285450  45.5529840 144.7201460  23.9350610  45.5507130 144.0603740
  25.3708310  45.1289160 144.2895630  24.1935380  47.1792550 148.7949950
  24.6492330  46.3981930 149.1088570  24.5327900  47.8899370 149.3391130
  16.7156700  32.0814770 150.9901260  16.2724850  32.8624310 150.6585780
  17.2741690  32.4044660 151.6972200  19.8315520  31.7025470 145.8707090
  19.2069700  31.6985340 146.5960400  19.7445640  30.8356430 145.4743060
  16.5070920  37.2048340 148.7182510  16.2811840  36.9885510 149.6229130
  15.7263450  37.6376800 148.3728480  23.7368680  37.2111710 147.3173160
  23.1377570  37.9347510 147.1336780  24.2848290  37.1488490 146.5349610
  22.3433550  35.8475250 149.3476440  22.7363120  36.1647450 148.5345130
  22.7050400  34.9687130 149.4620960  11.5667950  36.3796170 142.7809360
  11.4842620  37.3226930 142.9224350  11.2151010  36.2371080 141.9021710
  15.2168460  34.9961690 150.8073920  14.8768510  35.4736920 151.5640970
  14.4545780  34.5426810 150.4475020  19.4286230  36.1147280 144.8386470
  19.5499050  36.0733760 145.7872290  19.0434740  36.9771430 144.6833200
  18.4407730  38.4248420 144.2369770  17.8724630  37.9766670 143.6105680
  19.1496730  38.7841200 143.7034920  12.5314540  33.9180670 149.7238590
  12.2461460  33.5536340 150.5617210  12.4693400  33.1861130 149.1101730
  15.9855210  42.4206610 146.5096180  15.2117470  41.8804230 146.3494900
  16.7149840  41.9013220 146.1713940  22.2053130  32.8109930 146.4451960
  21.3917740  32.3123100 146.3697270  22.0115080  33.6508180 146.0288310
  24.9201520  37.1829580 144.7414120  25.8081140  37.4946810 144.5665460
  24.8906610  36.3101830 144.3494700  16.0292610  42.0886990 150.1474990
  16.5471280  41.2855250 150.0931880  15.5776630  42.0266130 150.9891820
  20.9162110  43.3553270 145.4202290  21.2577810  44.0995500 144.9245610
  20.0874820  43.6684390 145.7827120  27.1915790  38.4941420 144.2093980
  27.1079510  38.9255640 143.3590420  27.9109980  38.9539770 144.6420800
  28.2203040  45.3483680 146.9376110  27.5779200  44.6939300 147.2119830
  27.8333700  45.7538770 146.1616780  23.7989520  42.6769110 150.7847800
  24.1513340  42.0797240 150.1249170  22.9151850  42.3513340 150.9556050
  19.8852800  43.4366800 148.1918210  20.5723930  43.9836010 148.5725800
  19.0985220  43.9807530 148.2267820  12.0245200  39.0539620 143.6835290
  12.8940050  39.3364420 143.9671210  11.5335520  39.8675490 143.5684100
  19.1880010  40.4412830 147.8043570  19.6442790  41.2518080 148.0303760
  18.8368220  40.1235970 148.6362060  15.0891790  30.7850480 148.2766090
  14.9606420  30.7768380 149.2251010  14.2653810  31.1233570 147.9257100
  26.6100420  44.2400140 143.4752460  26.3838000  43.5230580 144.0677100
  26.2196620  43.9912580 142.6374210  12.3916450  48.2667000 144.2496920
  12.7514090  48.8656340 143.5954190  12.2508790  48.8126890 145.0231950
  26.1916670  42.1572080 145.1366620  25.9038370  42.6184770 145.9244500
  26.9868840  41.6969850 145.4050840  18.4085070  45.6498200 145.0670590
  18.3995170  46.3827890 144.4515100  17.4883430  45.4029780 145.1597550
  14.0091710  40.8713090 145.8117350  13.4019660  41.6111990 145.8212650
  14.4841060  40.9612450 144.9855550  26.9486530  33.9920850 146.2961800
  26.3199690  34.0966520 145.5820030  26.4538450  34.2117630 147.0855680
  21.3944670  45.7126440 143.7295780  21.4956650  45.5090430 142.7997760
  20.4946410  45.4584720 143.9343560  18.9170560  36.2706800 147.7119680
  18.2086710  36.7393140 148.1533290  19.2015040  35.6128810 148.3464870
  22.9485990  32.9957460 149.1515470  22.8253770  33.0143590 148.2024980
  23.8970550  33.0436400 149.2713870  20.0362780  48.2312760 148.4243450
  20.2904280  48.1934150 147.5022820  19.0875260  48.1046090 148.4171700
  17.1205580  34.5791880 145.0870390  17.9696110  35.0162030 145.0210580
  16.7536850  34.8912140 145.9142450  26.0415360  39.1504640 150.0001960
  25.1005500  39.1654870 150.1749650  26.3559430  38.3640600 150.4462260
  16.0197000  40.8324240 143.5605920  16.7860270  40.7205600 144.1231350
  16.0971690  40.1362210 142.9082690  14.7143760  38.2649310 144.2438810
  14.7947350  37.3176820 144.3556210  15.6063510  38.5956190 144.3499470
  15.5158470  48.4144700 151.3473350  16.2520950  47.8660160 151.6181920
  15.8999390  49.2800710 151.2079340  12.4003950  44.4818270 147.2214860
  11.4743730  44.7239410 147.2120270  12.8660380  45.3092530 147.0999610
  18.6260780  47.5875010 143.1698920  19.4189390  47.8763840 142.7180710
  18.1065130  47.1567180 142.4911400  27.6790950  46.8145140 144.5935660
  27.3932460  46.4010280 143.7789840  27.4810500  47.7432850 144.4736180
  19.1438180  42.8078420 143.0341270  19.0388820  42.1930770 143.7602650
  18.9762400  42.2844310 142.2504280  22.3840910  41.8698450 143.6383260
  21.8351010  42.3167750 144.2826000  23.0060170  41.3647700 144.1620930
  18.0516030  40.8289370 145.5348560  18.4732450  40.6629240 146.3779950
  18.1766870  40.0189600 145.0403700  20.5643670  39.8526980 142.7825660
  21.0849330  39.1376000 142.4166810  21.2112070  40.4912850 143.0826170
  16.9474930  36.9022600 142.4806720  16.7463990  36.0389960 142.8420060
  16.7766980  36.8155960 141.5428320  24.4263240  31.7130830 145.0093600
  24.7065530  30.8698730 145.3653020  23.6528970  31.9453940 145.5232350
  15.7457730  34.0023220 142.4684600  16.0483630  34.0090650 141.5603750
  16.4852320  33.6521080 142.9652260  18.9642660  32.9457840 143.4540800
  18.6164660  32.2681830 142.8743250  19.1655430  32.4847350 144.2684190
  21.1291700  47.9338590 145.0727400  22.0242490  48.2723560 145.0946160
  21.1609330  47.2118000 144.4451680  14.7687860  43.3065640 143.3014400
  15.2062730  43.8495310 143.9571980  15.2535590  42.4812590 143.3110740
  11.9833660  46.0954670 150.7534660  12.3136670  45.2275730 150.5213300
  12.4124660  46.3013190 151.5839620  16.5795580  44.4263680 148.4136630
  16.2791120  44.3028650 149.3140540  16.4733070  43.5672270 148.0052360
  29.3487500  44.2060080 143.1163310  28.5180460  44.2736730 143.5870540
  29.5259330  45.0964200 142.8130170  28.8043960  40.9507560 145.6197510
  29.5662870  41.5204210 145.7257200  28.8198330  40.3834760 146.3905820
  12.3048300  39.4745490 149.8505170  11.6497140  39.2057130 149.2064870
  13.1426250  39.3649970 149.4007150  29.8103930  41.8057660 150.4639440
  30.1812760  41.0224980 150.0575410  30.4505860  42.4946760 150.2856740
  28.8563130  41.2441930 142.7770030  29.1311970  42.1520810 142.6489250
  28.6673870  41.1804460 143.7132020  25.2538740  34.2686780 144.0723660
  25.6723620  34.0817760 143.2320320  24.9474800  33.4165830 144.3826590
  28.7528470  39.1810920 147.7699460  28.3772070  38.4138850 147.3380750
  28.0231590  39.5633620 148.2574390  11.5186380  36.6844420 145.7930500
  10.6150460  36.9474620 145.6182160  12.0027000  36.9555590 145.0130460
  14.0613590  35.7409960 143.7024880  14.7705290  35.3193180 143.2172160
  13.3453530  35.8085190 143.0708230  13.7087750  31.7949290 142.7427530
  14.4315880  32.3358230 143.0608750  13.9812270  31.5212710 141.8669070
  27.5179400  36.6641760 147.0099110  28.0138520  36.4312630 147.7947990
  27.3195470  35.8253600 146.5936750  28.9466560  35.3002710 149.5436790
  28.8365840  35.1458750 150.4819060  29.7074150  34.7723650 149.3012200
  29.8356830  33.1310630 142.7842930  30.7606140  32.9991810 142.5761220
  29.8132620  33.2103450 143.7379380  29.9095320  33.9021290 145.4099640
  29.1146820  33.8366410 145.9392550  30.1138600  34.8371930 145.3984990
  26.8513740  47.9412840 149.4038030  27.4472810  47.6197410 148.7272450
  27.1091890  47.4684660 150.1951300  28.2053820  31.8633410 149.8707290
  28.1442220  30.9194630 149.7238310  28.9845850  31.9713500 150.4160750
  12.5106570  48.0025770 148.8331240  12.3428610  47.3696450 149.5313130
  11.6441080  48.2085170 148.4825430  13.1334590  31.8342550 146.3363100
  13.8913950  31.9471430 145.7627130  12.6711760  32.6711750 146.2906530
  19.6748400  33.9481820 149.3265410  18.8622910  33.5738710 148.9861290
  20.1790040  33.1926900 149.6286600  24.1773380  30.6124270 150.5648480
  24.7802750  31.1844480 151.0397000  23.4366370  31.1763710 150.3422380
  27.3207980  31.0145830 145.8388760  27.5158610  31.9129280 146.1056190
  26.5337850  30.7832910 146.3321710  14.1169270  46.6959000 146.2781380
  13.5916890  47.0767030 145.5743340  14.0413850  47.3209770 146.9991090
  15.5059740  32.3606600 144.8765070  16.0352500  31.5736400 144.7473020
  16.1388060  33.0397790 145.1100600  17.6997580  32.0981740 147.9310460
  17.0700320  31.3969050 148.0980590  17.1602720  32.8585870 147.7143620
  28.8734590  48.2546540 147.5995320  29.0486780  47.5684280 146.9556240
  28.1756160  48.7793590 147.2071990  16.7162240  48.6441380 145.1530630
  17.4481060  48.3600660 144.6054520  16.9755910  48.4054660 146.0430010
  15.8777030  44.7606110 145.1576960  15.2485910  45.2291210 145.7062790
  15.9924860  43.9155330 145.5923150  23.3326750  38.8111770 131.3078160
  23.2520800  37.8966380 131.0369870  22.9191170  39.3078840 130.6017870
  21.4644790  40.5890790 133.1887430  20.6886890  40.1091230 133.4786000
  22.1157720  39.9096440 133.0143590  15.4810620  40.9010600 134.0663190
  14.6495500  40.6459310 134.4659700  16.0891600  40.9721370 134.8021110
  25.4852220  44.9950980 131.9686560  25.0233750  44.2238220 132.2973730
  26.2977770  45.0217050 132.4739010  15.4611880  44.9350690 134.2621210
  15.7639920  44.0448430 134.0831430  16.2055470  45.4920910 134.0343460
  13.8902570  35.8612490 127.8505580  13.0019270  36.2028460 127.7485460
  14.1743760  35.6612810 126.9586410  11.8535580  38.4618140 133.7345280
  12.4251690  37.6940340 133.7348920  11.8537120  38.7606900 132.8251890
  21.7115530  47.2808990 131.5890550  21.0926970  47.7366490 131.0184990
  22.5667310  47.4360450 131.1880250  20.9053780  43.2647980 133.1957590
  20.8362060  42.3237920 133.0346720  21.6673640  43.3549390 133.7680160
  13.0960450  33.8702500 135.5214210  12.9163290  32.9728250 135.8016970
  12.6940530  34.4174370 136.1961160  21.9358950  36.0718360 133.4226520
  22.3123770  35.1990240 133.3100190  21.8378460  36.4077060 132.5316960
  16.0663960  34.4443990 128.8843960  16.1730710  35.3447720 129.1912720
  15.1556320  34.3961960 128.5938610  25.7183070  33.5668800 130.3554860
  26.5392690  33.0765370 130.3980340  25.7517150  34.1566460 131.1086700
  13.7147120  36.3663000 134.1296550  14.3957230  36.6301370 134.7483950
  13.3995170  35.5263870 134.4634560  17.9071690  37.4130360 133.2169140
  18.4149910  37.9111330 133.8574160  18.4384930  36.6365560 133.0408500
  30.0082620  35.5835550 136.9198490  29.3034790  35.9717260 136.4013600
  30.2740540  36.2785840 137.5219420  16.1907790  32.0528920 137.4832560
  16.1926230  32.5701310 136.6778460  15.3612100  31.5759100 137.4602490
  22.5778880  42.1648230 128.9822460  21.9596150  42.6297680 128.4185180
  23.0902130  42.8575710 129.3991970  17.4410640  41.6924100 135.6606060
  17.1080020  42.3193020 136.3027130  17.6177320  42.2185980 134.8807730
  25.9544550  35.5069180 133.1282400  25.2500120  35.7954070 133.7085510
  26.3156710  36.3169290 132.7681960  15.8723120  33.7638880 135.4903010
  16.2139930  34.6080930 135.1956880  14.9338930  33.9122620 135.6068350
  16.6529740  43.6604900 137.4755240  17.2703740  44.3355980 137.1939690
  15.7922860  44.0692880 137.3842740  11.9462080  42.8504760 126.3562090
  11.5690060  43.3391860 125.6246990  12.2035150  43.5230040 126.9868620
  27.5707330  45.1244310 135.3909880  26.8870850  45.7943420 135.3826550
  28.1101620  45.3224960 134.6254740  29.0231470  34.9523970 133.5191610
  28.0756380  34.9862950 133.6507040  29.3481460  35.7662920 133.9040970
  19.5551010  31.2521150 131.8147600  19.8625990  30.6968040 131.0983100
  18.6251710  31.3865610 131.6320590  25.1066070  46.9688440 134.1055060
  25.1193230  46.5650730 133.2377320  24.5541290  47.7435730 134.0016490
  26.4011490  43.6904660 129.1945230  26.2907820  42.7478990 129.3194650
  26.3979740  44.0520300 130.0807990  24.5051510  41.8718280 135.4337670
  24.9220300  41.6578390 134.5991130  25.2291330  42.1291070 136.0046290
  21.9431770  39.3169980 128.5507720  21.0161050  39.2507360 128.7796190
  22.0956590  40.2550110 128.4362960  21.9300850  35.5886980 125.5474880
  20.9904520  35.7500940 125.6327340  22.2484110  36.3072660 125.0010870
  28.4513610  40.2705500 135.5253910  27.6232240  40.3398590 135.0504040
  29.0464090  40.8559810 135.0569740  25.9729060  40.8790280 129.0542970
  25.3541480  40.5409830 128.4069270  25.9553510  40.2350040 129.7622160
  25.4155620  37.0574820 136.4708780  25.0026800  37.8828530 136.7248770
  24.6831570  36.4719860 136.2785140  17.5488410  39.8434720 131.3327450
  17.1445410  39.1311970 130.8373350  17.6351530  39.4987960 132.2215490
  18.0170110  43.5302280 133.4966660  17.7198400  42.9247750 132.8174440
  18.9669930  43.5679590 133.3856020  16.2617030  36.6177930 135.1126490
  16.8131620  36.7273270 134.3379740  16.7760540  36.9915530 135.8281720
  26.1055720  47.1034150 137.1589760  25.6286280  47.9106340 136.9662370
  25.4217510  46.4512480 137.3115970  17.1088540  43.2683970 140.1474460
  16.2117070  43.4923940 140.3947860  17.1341410  43.3918910 139.1985860
  24.1493760  40.1177090 126.0615720  24.5887040  39.2799520 125.9153540
  24.8622180  40.7506490 126.1479860  15.9359760  40.1397290 138.7231830
  15.7967530  41.0120090 139.0919230  15.0541120  39.7970100 138.5779770
  22.2589140  45.0573160 130.0296960  22.6985050  45.7997490 129.6152350
  22.1976030  45.2999730 130.9535920  17.7340110  46.0818990 140.9316980
  17.7055540  46.4861940 140.0645410  17.5705080  45.1529350 140.7688580
  27.7310900  31.3719900 124.3756760  27.4183560  31.4646730 125.2755830
  28.4923370  31.9500930 124.3254190  14.2493040  38.7379700 128.8334100
  14.1290640  39.4641790 128.2215370  13.9393930  37.9682610 128.3562010
  29.6854930  46.8646090 142.2281150  30.1614650  47.3428980 142.9070230
  30.3062090  46.7963580 141.5026650  11.8878410  41.9094840 134.6402740
  11.9658830  42.0443610 133.6958460  12.5020090  41.2010730 134.8330860
  13.1326040  43.6095030 131.0508920  12.7254120  43.7509620 130.1962520
  14.0239050  43.3255190 130.8480130  29.0888180  44.0558940 139.3881160
  29.2151240  43.8170820 138.4698340  29.1309560  43.2243480 139.8603240
  22.9504920  47.7586940 137.9575970  23.4649590  47.6694950 138.7598400
  22.1074000  48.1046640 138.2503880  24.9259320  48.0442280 127.3859970
  24.7660460  47.7545220 128.2841800  24.7606030  47.2682410 126.8505200
  17.4047700  47.8240810 129.1631590  17.2290180  46.9076350 128.9499390
  16.5503440  48.1828100 129.4029390  24.6285450  45.5529840 125.9457970
  23.9350610  45.5507130 125.2860250  25.3708310  45.1289160 125.5152140
  24.1935380  47.1792550 130.0206460  24.6492330  46.3981930 130.3345080
  24.5327900  47.8899370 130.5647640  28.9412190  36.1091400 140.3530900
  28.3256460  36.6171070 139.8246360  28.6208610  35.2089730 140.2956840
  11.9437930  42.9509010 137.1797200  12.1068970  42.4814370 136.3616570
  12.4090380  42.4432570 137.8446040  16.7156700  32.0814770 132.2157770
  16.2724850  32.8624310 131.8842290  17.2741690  32.4044660 132.9228710
  21.0026510  34.9483290 137.8193090  20.5405880  35.1566310 138.6313030
  20.6004620  34.1342640 137.5163760  26.0031020  36.1692240 138.9489750
  25.1524610  35.8697990 139.2698820  25.8432810  36.4134250 138.0373570
  23.0980730  37.6693990 141.0488540  23.4234140  36.8357740 140.7090770
  23.8861060  38.1922510 141.1966870  19.8315520  31.7025470 127.0963600
  19.2069700  31.6985340 127.8216910  19.7445640  30.8356430 126.6999570
  18.7532600  32.6262100 134.0747370  19.0504930  33.5324930 133.9939390
  19.3018160  32.1380880 133.4606940  16.5070920  37.2048340 129.9439020
  16.2811840  36.9885510 130.8485640  15.7263450  37.6376800 129.5984990
  23.7368680  37.2111710 128.5429670  23.1377570  37.9347510 128.3593290
  24.2848290  37.1488490 127.7606120  18.9470130  38.1033920 140.6099290
  18.8513730  37.1628650 140.4599690  19.7902110  38.3248990 140.2147360
  22.3433550  35.8475250 130.5732950  22.7363120  36.1647450 129.7601640
  22.7050400  34.9687130 130.6877470  14.0780670  34.5147590 138.7633070
  13.6844060  35.3622800 138.9705850  13.3899070  33.8773960 138.9541710
  20.6525720  34.5982560 141.8329810  19.9624040  34.4054760 142.4675900
  21.3958020  34.8817200 142.3654110  11.3797720  32.4376050 132.7963150
  11.0910770  33.0078910 133.5088130  12.1243480  31.9580500 133.1594380
  11.5667950  36.3796170 124.0065870  11.4842620  37.3226930 124.1480860
  11.2151010  36.2371080 123.1278220  22.9288690  38.4381000 134.6683730
  22.1969810  38.9467810 135.0173830  22.5313030  37.6210980 134.3672510
  19.3666080  35.1135200 133.0736220  19.3702140  34.6725150 132.2240760
  20.2617200  35.4352530 133.1808040  15.2168460  34.9961690 132.0330430
  14.8768510  35.4736920 132.7897480  14.4545780  34.5426810 131.6731530
  19.4286230  36.1147280 126.0642980  19.5499050  36.0733760 127.0128800
  19.0434740  36.9771430 125.9089710  23.3914600  33.8914680 134.0806670
  23.4087340  34.3423330 134.9248520  23.1430180  32.9920320 134.2940110
  18.4407730  38.4248420 125.4626280  17.8724630  37.9766670 124.8362190
  19.1496730  38.7841200 124.9291430  26.8185350  31.3046860 139.9193050
  27.1431120  30.5736520 140.4451030  26.8541860  30.9860500 139.0174040
  13.5176910  42.3260440 139.3393010  13.1331700  41.6854110 139.9375970
  13.8289100  43.0296560 139.9087740  19.6674050  39.1736980 134.8201630
  20.0344180  38.6995550 135.5662970  19.4779110  40.0478550 135.1609970
  12.5314540  33.9180670 130.9495100  12.2461460  33.5536340 131.7873720
  12.4693400  33.1861130 130.3358240  17.4573420  38.2145620 137.1385840
  17.1530490  39.0937600 137.3636200  18.4119880  38.2745410 137.1743280
  15.9855210  42.4206610 127.7352690  15.2117470  41.8804230 127.5751410
  16.7149840  41.9013220 127.3970450  26.7443190  41.4171970 133.5279080
  27.4642310  41.9127260 133.1375190  26.5425010  40.7389860 132.8832950
  22.2053130  32.8109930 127.6708470  21.3917740  32.3123100 127.5953780
  22.0115080  33.6508180 127.2544820  22.1261990  41.4881030 139.4148080
  22.0599300  40.5676700 139.1605670  21.4967130  41.5856470 140.1292720
  24.9201520  37.1829580 125.9670630  25.8081140  37.4946810 125.7921970
  24.8906610  36.3101830 125.5751210  16.0292610  42.0886990 131.3731500
  16.5471280  41.2855250 131.3188390  15.5776630  42.0266130 132.2148330
  20.9162110  43.3553270 126.6458800  21.2577810  44.0995500 126.1502120
  20.0874820  43.6684390 127.0083630  13.5137150  39.0548360 138.2857200
  13.1552090  39.7202210 138.8730540  13.2191710  38.2231910 138.6569820
  16.7150270  39.5132600 141.1696750  16.4150410  39.6589780 140.2724570
  17.4861510  38.9537890 141.0770140  22.0578720  44.3101600 139.1651880
  22.0723260  43.3782560 138.9470790  21.3503820  44.3961360 139.8041650
  27.1915790  38.4941420 125.4350490  27.1079510  38.9255640 124.5846930
  27.9109980  38.9539770 125.8677310  28.2689930  40.9508940 138.5120460
  27.5438120  41.5437720 138.3149850  28.7965390  40.9432480 137.7133830
  28.2203040  45.3483680 128.1632620  27.5779200  44.6939300 128.4376340
  27.8333700  45.7538770 127.3873290  23.7989520  42.6769110 132.0104310
  24.1513340  42.0797240 131.3505680  22.9151850  42.3513340 132.1812560
  19.8852800  43.4366800 129.4174720  20.5723930  43.9836010 129.7982310
  19.0985220  43.9807530 129.4524330  12.0245200  39.0539620 124.9091800
  12.8940050  39.3364420 125.1927720  11.5335520  39.8675490 124.7940610
  19.1880010  40.4412830 129.0300080  19.6442790  41.2518080 129.2560270
  18.8368220  40.1235970 129.8618570  21.4912620  45.9519170 136.2592380
  22.1354840  46.1578550 136.9365800  21.8542060  45.1907570 135.8063230
  15.0891790  30.7850480 129.5022600  14.9606420  30.7768380 130.4507520
  14.2653810  31.1233570 129.1513610  22.7644700  43.9551520 134.9769830
  23.4066930  43.2544680 135.0902000  23.2894050  44.7349960 134.7966720
  26.6100420  44.2400140 124.7008970  26.3838000  43.5230580 125.2933610
  26.2196620  43.9912580 123.8630720  24.5382320  44.7546420 138.1805890
  24.8738560  45.3413110 138.8583810  23.6182660  44.6239130 138.4103680
  12.3916450  48.2667000 125.4753430  12.7514090  48.8656340 124.8210700
  12.2508790  48.8126890 126.2488460  12.0885720  32.5441600 138.9629300
  11.3744240  32.7438520 139.5681910  12.5080760  31.7681170 139.3344100
  26.1916670  42.1572080 126.3623130  25.9038370  42.6184770 127.1501010
  26.9868840  41.6969850 126.6307350  12.3758310  46.5321860 139.9495830
  12.4849430  45.5916600 139.8091220  11.7238870  46.7976610 139.3009560
  20.3670900  44.8037750 141.3493950  20.0467770  44.0846990 141.8939640
  19.6929260  45.4792820 141.4230010  18.4085070  45.6498200 126.2927100
  18.3995170  46.3827890 125.6771610  17.4883430  45.4029780 126.3854060
  14.0091710  40.8713090 127.0373860  13.4019660  41.6111990 127.0469160
  14.4841060  40.9612450 126.2112060  23.5824500  35.0363910 136.7130750
  23.9505320  34.2159120 137.0410320  22.7222700  35.0965800 137.1286400
  26.9486530  33.9920850 127.5218310  26.3199690  34.0966520 126.8076540
  26.4538450  34.2117630 128.3112190  21.3944670  45.7126440 124.9552290
  21.4956650  45.5090430 124.0254270  20.4946410  45.4584720 125.1600070
  18.9170560  36.2706800 128.9376190  18.2086710  36.7393140 129.3789800
  19.2015040  35.6128810 129.5721380  20.5426490  37.6903500 136.9368720
  21.0411740  38.1649320 137.6020570  20.6849440  36.7667020 137.1438750
  22.9485990  32.9957460 130.3771980  22.8253770  33.0143590 129.4281490
  23.8970550  33.0436400 130.4970380  20.0362780  48.2312760 129.6499960
  20.2904280  48.1934150 128.7279330  19.0875260  48.1046090 129.6428210
  17.1205580  34.5791880 126.3126900  17.9696110  35.0162030 126.2467090
  16.7536850  34.8912140 127.1398960  27.7493350  33.9071460 137.7797110
  27.2466950  34.6476860 138.1190920  28.5650010  34.2955460 137.4633900
  26.0415360  39.1504640 131.2258470  25.1005500  39.1654870 131.4006160
  26.3559430  38.3640600 131.6718770  16.0197000  40.8324240 124.7862430
  16.7860270  40.7205600 125.3487860  16.0971690  40.1362210 124.1339200
  14.7143760  38.2649310 125.4695320  14.7947350  37.3176820 125.5812720
  15.6063510  38.5956190 125.5755980  28.0440940  46.3213490 132.9012730
  28.1688360  47.1444660 133.3736540  28.9106500  46.1104220 132.5536880
  15.5158470  48.4144700 132.5729860  16.2520950  47.8660160 132.8438430
  15.8999390  49.2800710 132.4335850  12.4003950  44.4818270 128.4471370
  11.4743730  44.7239410 128.4376780  12.8660380  45.3092530 128.3256120
  14.5216750  47.5990770 141.7615440  15.3229480  47.9202820 142.1750840
  14.0068570  47.2386350 142.4835350  18.6260780  47.5875010 124.3955430
  19.4189390  47.8763840 123.9437220  18.1065130  47.1567180 123.7167910
  23.3581380  43.7070640 141.7090850  22.7519540  43.7302240 140.9686600
  23.0535490  42.9753680 142.2458100  24.7881750  47.4350930 140.3200260
  25.7403500  47.3508950 140.2700500  24.6409970  48.0992640 140.9934050
  27.6790950  46.8145140 125.8192170  27.3932460  46.4010280 125.0046350
  27.4810500  47.7432850 125.6992690  12.2414560  40.0864230 140.7051490
  12.7453580  39.5071510 141.2767720  11.5021980  40.3704460 141.2427860
  19.1438180  42.8078420 124.2597780  19.0388820  42.1930770 124.9859160
  18.9762400  42.2844310 123.4760790  19.2952500  41.4935220 140.2387010
  18.5298170  42.0620220 140.1541680  19.4768460  41.2011430 139.3455240
  22.3840910  41.8698450 124.8639770  21.8351010  42.3167750 125.5082510
  23.0060170  41.3647700 125.3877440  26.4375850  43.2240550 140.7962030
  27.1785320  43.5616310 140.2929490  25.6748530  43.3932610 140.2431800
  14.2737640  38.2293820 141.6001560  14.3142980  37.9307690 142.5086790
  15.1283140  38.6301430 141.4409080  18.0516030  40.8289370 126.7605070
  18.4732450  40.6629240 127.6036460  18.1766870  40.0189600 126.2660210
  16.2143450  36.8085920 139.5676050  15.6839910  36.3176870 138.9399390
  16.8831520  37.2370120 139.0333980  20.5643670  39.8526980 124.0082170
  21.0849330  39.1376000 123.6423320  21.2112070  40.4912850 124.3082680
  25.1121510  41.2755380 139.3317240  25.5262530  41.4300460 140.1807660
  24.1772510  41.4010600 139.4943020  25.5843680  38.6151540 141.3356390
  26.1664450  37.8603860 141.2476870  25.7605450  39.1458980 140.5587870
  16.7015750  33.7748290 139.6473340  16.6072620  33.1569040 138.9224210
  16.1213140  34.5014580 139.4203250  19.4677190  32.3321530 136.6800730
  19.0194490  32.3545790 135.8346280  18.8342390  31.9340550 137.2771030
  19.8736740  41.2275860 137.3013170  20.2924850  42.0708590 137.1289410
  18.9545370  41.3647900 137.0719950  22.2100640  38.9592040 138.6851010
  22.3296850  38.3633180 139.4245850  23.0694640  38.9961730 138.2652310
  24.5488540  39.5129230 137.2613520  24.0223760  40.0371850 136.6578660
  24.8919880  40.1456620 137.8923250  16.9474930  36.9022600 123.7063230
  16.7463990  36.0389960 124.0676570  16.7766980  36.8155960 122.7684830
  17.7244160  47.5328870 138.4170900  17.1865250  48.2574930 138.0979600
  17.9778120  47.0559210 137.6268240  18.9769410  35.5013390 139.9426830
  19.5669100  35.1929240 140.6304650  18.1589650  35.0293140 140.0986730
  23.7962840  35.1179200 140.1759850  23.1078360  34.4560740 140.1109840
  24.5168860  34.6717470 140.6208310  24.4263240  31.7130830 126.2350110
  24.7065530  30.8698730 126.5909530  23.6528970  31.9453940 126.7488860
  15.7457730  34.0023220 123.6941110  16.0483630  34.0090650 122.7860260
  16.4852320  33.6521080 124.1908770  20.5806370  48.7680080 138.6757550
  20.5065070  49.6715220 138.9829920  19.6785210  48.4491980 138.6479620
  18.9642660  32.9457840 124.6797310  18.6164660  32.2681830 124.0999760
  19.1655430  32.4847350 125.4940700  21.1291700  47.9338590 126.2983910
  22.0242490  48.2723560 126.3202670  21.1609330  47.2118000 125.6708190
  14.7687860  43.3065640 124.5270910  15.2062730  43.8495310 125.1828490
  15.2535590  42.4812590 124.5367250  11.9833660  46.0954670 131.9791170
  12.3136670  45.2275730 131.7469810  12.4124660  46.3013190 132.8096130
  16.5795580  44.4263680 129.6393140  16.2791120  44.3028650 130.5397050
  16.4733070  43.5672270 129.2308870  12.4723870  46.9625260 134.7172800
  12.0354860  47.1426060 135.5496950  13.0401550  47.7199880 134.5754520
  28.1086050  46.4642260 139.0050110  27.5088040  46.5234820 138.2614030
  28.2379950  45.5247240 139.1346960  29.3487500  44.2060080 124.3419820
  28.5180460  44.2736730 124.8127050  29.5259330  45.0964200 124.0386680
  28.8043960  40.9507560 126.8454020  29.5662870  41.5204210 126.9513710
  28.8198330  40.3834760 127.6162330  12.3048300  39.4745490 131.0761680
  11.6497140  39.2057130 130.4321380  13.1426250  39.3649970 130.6263660
  29.8103930  41.8057660 131.6895950  30.1812760  41.0224980 131.2831920
  30.4505860  42.4946760 131.5113250  26.7937690  43.1894240 137.1026270
  25.9797530  43.6191400 137.3652060  27.2011890  43.8012650 136.4895320
  28.8563130  41.2441930 124.0026540  29.1311970  42.1520810 123.8745760
  28.6673870  41.1804460 124.9388530  25.2538740  34.2686780 125.2980170
  25.6723620  34.0817760 124.4576830  24.9474800  33.4165830 125.6083100
  28.7528470  39.1810920 128.9955970  28.3772070  38.4138850 128.5637260
  28.0231590  39.5633620 129.4830900  13.3424230  39.8598060 135.6165020
  13.7097270  39.7725460 136.4961040  12.7735050  39.0964610 135.5171880
  28.1428090  38.3282440 138.6295490  27.9114180  38.0995190 137.7293440
  28.4032640  39.2481990 138.5840380  12.8940230  36.7707150 139.5223440
  11.9996280  36.7373910 139.8617150  13.4337780  36.9693940 140.2874690
  26.5816160  33.5538870 141.4075190  27.4586340  33.5622270 141.7909190
  26.5937000  32.8169710 140.7967540  11.5186380  36.6844420 127.0187010
  10.6150460  36.9474620 126.8438670  12.0027000  36.9555590 126.2386970
  28.0279430  37.4068410 132.2963210  28.5516910  36.9131060 131.6653380
  28.6138850  37.5418770 133.0410780  28.2069150  37.4908280 135.8182760
  27.2571860  37.4571820 135.9327750  28.3882160  38.4008390 135.5832530
  14.0613590  35.7409960 124.9281390  14.7705290  35.3193180 124.4428670
  13.3453530  35.8085190 124.2964740  13.7087750  31.7949290 123.9684040
  14.4315880  32.3358230 124.2865260  13.9812270  31.5212710 123.0925580
  27.5179400  36.6641760 128.2355620  28.0138520  36.4312630 129.0204500
  27.3195470  35.8253600 127.8193260  13.3979940  31.0455480 133.8706660
  14.0456130  30.4952860 133.4301820  13.8181780  31.2998630 134.6922470
  28.9466560  35.3002710 130.7693300  28.8365840  35.1458750 131.7075570
  29.7074150  34.7723650 130.5268710  27.2932280  31.2396840 137.2276300
  27.9304500  31.8530980 137.5935490  27.4407170  31.2757500 136.2825530
  29.8356830  33.1310630 124.0099440  30.7606140  32.9991810 123.8017730
  29.8132620  33.2103450 124.9635890  29.9095320  33.9021290 126.6356150
  29.1146820  33.8366410 127.1649060  30.1138600  34.8371930 126.6241500
  26.8513740  47.9412840 130.6294540  27.4472810  47.6197410 129.9528960
  27.1091890  47.4684660 131.4207810  13.1511940  31.2011150 136.6131980
  12.8026760  31.6574970 137.3790160  12.8199640  30.3068280 136.6954410
  14.7576310  44.3730750 140.7785170  14.7145940  44.0023660 141.6599630
  14.8887320  45.3108320 140.9186990  18.4582340  45.9290340 136.3794890
  18.2173700  46.1964900 135.4925410  19.3984980  46.0996070 136.4345750
  20.6636760  32.3923030 140.1351400  20.6025650  32.9844860 140.8846810
  21.6037140  32.2848990 139.9901660  23.3011320  32.0493090 139.7743690
  23.9151730  32.3672380 139.1124770  23.8460880  31.5641680 140.3939550
  29.7186500  47.9484720 137.1805530  29.2244780  48.3453590 136.4632660
  29.1099790  47.3233930 137.5742810  13.8232580  30.7287350 139.8882750
  14.3715570  30.5475400 139.1248860  13.8887890  29.9381460 140.4239060
  14.5964340  47.3193000 137.8982950  14.0024660  47.1877700 138.6372990
  14.5888180  46.4831140 137.4325050  24.0419360  30.6125230 136.1012980
  23.1679200  30.9460340 135.8985910  23.9330110  30.1398410 136.9264850
  24.9491340  32.8196100 137.4854700  24.6204700  32.0047860 137.1056430
  25.8973640  32.7765910 137.3620390  27.4025950  48.5908140 134.4592270
  26.9428920  49.3423950 134.0850290  26.7738410  47.8714610 134.4007070
  14.2276570  44.6851380 136.8490990  13.5010630  44.0656670 136.7816940
  14.2885720  45.0791990 135.9789070  17.8321670  46.8996380 133.6340400
  18.3486690  46.2883740 133.1088660  18.4819050  47.4025160 134.1251410
  20.5717170  47.7904870 134.4609380  20.8594980  47.5359170 133.5842390
  21.0840390  47.2382230 135.0514950  21.7894180  31.5295070 135.0405890
  21.0065970  32.0040570 135.3202650  21.4957110  30.6249900 134.9319070
  26.3415250  32.2318170 133.0854980  26.7823340  32.1763270 132.2376580
  26.0722840  33.1476180 133.1565160  28.2053820  31.8633410 131.0963800
  28.1442220  30.9194630 130.9494820  28.9845850  31.9713500 131.6417260
  12.5106570  48.0025770 130.0587750  12.3428610  47.3696450 130.7569640
  11.6441080  48.2085170 129.7081940  13.1334590  31.8342550 127.5619610
  13.8913950  31.9471430 126.9883640  12.6711760  32.6711750 127.5163040
  19.6748400  33.9481820 130.5521920  18.8622910  33.5738710 130.2117800
  20.1790040  33.1926900 130.8543110  24.1773380  30.6124270 131.7904990
  24.7802750  31.1844480 132.2653510  23.4366370  31.1763710 131.5678890
  27.3207980  31.0145830 127.0645270  27.5158610  31.9129280 127.3312700
  26.5337850  30.7832910 127.5578220  14.1169270  46.6959000 127.5037890
  13.5916890  47.0767030 126.7999850  14.0413850  47.3209770 128.2247600
  15.5059740  32.3606600 126.1021580  16.0352500  31.5736400 125.9729530
  16.1388060  33.0397790 126.3357110  17.6997580  32.0981740 129.1566970
  17.0700320  31.3969050 129.3237100  17.1602720  32.8585870 128.9400130
  20.6389530  48.7120970 141.8277580  21.5656840  48.4765240 141.8713540
  20.6239960  49.5392970 141.3463610  28.8734590  48.2546540 128.8251830
  29.0486780  47.5684280 128.1812750  28.1756160  48.7793590 128.4328500
  17.8253140  31.3765720 141.5919460  17.5437410  31.8799320 140.8280280
  18.2072840  30.5787470 141.2261590  16.7162240  48.6441380 126.3787140
  17.4481060  48.3600660 125.8311030  16.9755910  48.4054660 127.2686520
  15.8777030  44.7606110 126.3833470  15.2485910  45.2291210 126.9319300
  15.9924860  43.9155330 126.8179660  24.4268600  30.7919300 142.1699930
  24.3134050  31.1113910 143.0651450  25.2438340  31.1931810 141.8737210
  27.2067090  47.9390830 141.6518620  27.9992410  47.4440060 141.4444580
  27.5000240  48.6180970 142.2594230  23.3326750  38.8111770 112.5334670
  23.2520800  37.8966380 112.2626380  22.9191170  39.3078840 111.8274380
  21.4644790  40.5890790 114.4143940  20.6886890  40.1091230 114.7042510
  22.1157720  39.9096440 114.2400100  15.4810620  40.9010600 115.2919700
  14.6495500  40.6459310 115.6916210  16.0891600  40.9721370 116.0277620
  25.4852220  44.9950980 113.1943070  25.0233750  44.2238220 113.5230240
  26.2977770  45.0217050 113.6995520  15.4611880  44.9350690 115.4877720
  15.7639920  44.0448430 115.3087940  16.2055470  45.4920910 115.2599970
  13.8902570  35.8612490 109.0762090  13.0019270  36.2028460 108.9741970
  14.1743760  35.6612810 108.1842920  11.8535580  38.4618140 114.9601790
  12.4251690  37.6940340 114.9605430  11.8537120  38.7606900 114.0508400
  21.7115530  47.2808990 112.8147060  21.0926970  47.7366490 112.2441500
  22.5667310  47.4360450 112.4136760  20.9053780  43.2647980 114.4214100
  20.8362060  42.3237920 114.2603230  21.6673640  43.3549390 114.9936670
  13.0960450  33.8702500 116.7470720  12.9163290  32.9728250 117.0273480
  12.6940530  34.4174370 117.4217670  21.9358950  36.0718360 114.6483030
  22.3123770  35.1990240 114.5356700  21.8378460  36.4077060 113.7573470
  16.0663960  34.4443990 110.1100470  16.1730710  35.3447720 110.4169230
  15.1556320  34.3961960 109.8195120  25.7183070  33.5668800 111.5811370
  26.5392690  33.0765370 111.6236850  25.7517150  34.1566460 112.3343210
  13.7147120  36.3663000 115.3553060  14.3957230  36.6301370 115.9740460
  13.3995170  35.5263870 115.6891070  17.9071690  37.4130360 114.4425650
  18.4149910  37.9111330 115.0830670  18.4384930  36.6365560 114.2665010
  30.0082620  35.5835550 118.1455000  29.3034790  35.9717260 117.6270110
  30.2740540  36.2785840 118.7475930  16.1907790  32.0528920 118.7089070
  16.1926230  32.5701310 117.9034970  15.3612100  31.5759100 118.6859000
  22.5778880  42.1648230 110.2078970  21.9596150  42.6297680 109.6441690
  23.0902130  42.8575710 110.6248480  17.4410640  41.6924100 116.8862570
  17.1080020  42.3193020 117.5283640  17.6177320  42.2185980 116.1064240
  25.9544550  35.5069180 114.3538910  25.2500120  35.7954070 114.9342020
  26.3156710  36.3169290 113.9938470  15.8723120  33.7638880 116.7159520
  16.2139930  34.6080930 116.4213390  14.9338930  33.9122620 116.8324860
  16.6529740  43.6604900 118.7011750  17.2703740  44.3355980 118.4196200
  15.7922860  44.0692880 118.6099250  11.9462080  42.8504760 107.5818600
  11.5690060  43.3391860 106.8503500  12.2035150  43.5230040 108.2125130
  27.5707330  45.1244310 116.6166390  26.8870850  45.7943420 116.6083060
  28.1101620  45.3224960 115.8511250  29.0231470  34.9523970 114.7448120
  28.0756380  34.9862950 114.8763550  29.3481460  35.7662920 115.1297480
  19.5551010  31.2521150 113.0404110  19.8625990  30.6968040 112.3239610
  18.6251710  31.3865610 112.8577100  25.1066070  46.9688440 115.3311570
  25.1193230  46.5650730 114.4633830  24.5541290  47.7435730 115.2273000
  26.4011490  43.6904660 110.4201740  26.2907820  42.7478990 110.5451160
  26.3979740  44.0520300 111.3064500  24.5051510  41.8718280 116.6594180
  24.9220300  41.6578390 115.8247640  25.2291330  42.1291070 117.2302800
  21.9431770  39.3169980 109.7764230  21.0161050  39.2507360 110.0052700
  22.0956590  40.2550110 109.6619470  21.9300850  35.5886980 106.7731390
  20.9904520  35.7500940 106.8583850  22.2484110  36.3072660 106.2267380
  28.4513610  40.2705500 116.7510420  27.6232240  40.3398590 116.2760550
  29.0464090  40.8559810 116.2826250  25.9729060  40.8790280 110.2799480
  25.3541480  40.5409830 109.6325780  25.9553510  40.2350040 110.9878670
  25.4155620  37.0574820 117.6965290  25.0026800  37.8828530 117.9505280
  24.6831570  36.4719860 117.5041650  17.5488410  39.8434720 112.5583960
  17.1445410  39.1311970 112.0629860  17.6351530  39.4987960 113.4472000
  18.0170110  43.5302280 114.7223170  17.7198400  42.9247750 114.0430950
  18.9669930  43.5679590 114.6112530  16.2617030  36.6177930 116.3383000
  16.8131620  36.7273270 115.5636250  16.7760540  36.9915530 117.0538230
  26.1055720  47.1034150 118.3846270  25.6286280  47.9106340 118.1918880
  25.4217510  46.4512480 118.5372480  17.1088540  43.2683970 121.3730970
  16.2117070  43.4923940 121.6204370  17.1341410  43.3918910 120.4242370
  24.1493760  40.1177090 107.2872230  24.5887040  39.2799520 107.1410050
  24.8622180  40.7506490 107.3736370  15.9359760  40.1397290 119.9488340
  15.7967530  41.0120090 120.3175740  15.0541120  39.7970100 119.8036280
  22.2589140  45.0573160 111.2553470  22.6985050  45.7997490 110.8408860
  22.1976030  45.2999730 112.1792430  17.7340110  46.0818990 122.1573490
  17.7055540  46.4861940 121.2901920  17.5705080  45.1529350 121.9945090
  27.7310900  31.3719900 105.6013270  27.4183560  31.4646730 106.5012340
  28.4923370  31.9500930 105.5510700  14.2493040  38.7379700 110.0590610
  14.1290640  39.4641790 109.4471880  13.9393930  37.9682610 109.5818520
  29.6854930  46.8646090 123.4537660  30.1614650  47.3428980 124.1326740
  30.3062090  46.7963580 122.7283160  11.8878410  41.9094840 115.8659250
  11.9658830  42.0443610 114.9214970  12.5020090  41.2010730 116.0587370
  13.1326040  43.6095030 112.2765430  12.7254120  43.7509620 111.4219030
  14.0239050  43.3255190 112.0736640  29.0888180  44.0558940 120.6137670
  29.2151240  43.8170820 119.6954850  29.1309560  43.2243480 121.0859750
  22.9504920  47.7586940 119.1832480  23.4649590  47.6694950 119.9854910
  22.1074000  48.1046640 119.4760390  17.4047700  47.8240810 110.3888100
  17.2290180  46.9076350 110.1755900  16.5503440  48.1828100 110.6285900
  24.1935380  47.1792550 111.2462970  24.6492330  46.3981930 111.5601590
  24.5327900  47.8899370 111.7904150  28.9412190  36.1091400 121.5787410
  28.3256460  36.6171070 121.0502870  28.6208610  35.2089730 121.5213350
  11.9437930  42.9509010 118.4053710  12.1068970  42.4814370 117.5873080
  12.4090380  42.4432570 119.0702550  16.7156700  32.0814770 113.4414280
  16.2724850  32.8624310 113.1098800  17.2741690  32.4044660 114.1485220
  21.0026510  34.9483290 119.0449600  20.5405880  35.1566310 119.8569540
  20.6004620  34.1342640 118.7420270  26.0031020  36.1692240 120.1746260
  25.1524610  35.8697990 120.4955330  25.8432810  36.4134250 119.2630080
  23.0980730  37.6693990 122.2745050  23.4234140  36.8357740 121.9347280
  23.8861060  38.1922510 122.4223380  19.8315520  31.7025470 108.3220110
  19.2069700  31.6985340 109.0473420  19.7445640  30.8356430 107.9256080
  18.7532600  32.6262100 115.3003880  19.0504930  33.5324930 115.2195900
  19.3018160  32.1380880 114.6863450  16.5070920  37.2048340 111.1695530
  16.2811840  36.9885510 112.0742150  15.7263450  37.6376800 110.8241500
  23.7368680  37.2111710 109.7686180  23.1377570  37.9347510 109.5849800
  24.2848290  37.1488490 108.9862630  18.9470130  38.1033920 121.8355800
  18.8513730  37.1628650 121.6856200  19.7902110  38.3248990 121.4403870
  22.3433550  35.8475250 111.7989460  22.7363120  36.1647450 110.9858150
  22.7050400  34.9687130 111.9133980  14.0780670  34.5147590 119.9889580
  13.6844060  35.3622800 120.1962360  13.3899070  33.8773960 120.1798220
  20.6525720  34.5982560 123.0586320  19.9624040  34.4054760 123.6932410
  21.3958020  34.8817200 123.5910620  11.3797720  32.4376050 114.0219660
  11.0910770  33.0078910 114.7344640  12.1243480  31.9580500 114.3850890
  11.5667950  36.3796170 105.2322380  11.4842620  37.3226930 105.3737370
  11.2151010  36.2371080 104.3534730  22.9288690  38.4381000 115.8940240
  22.1969810  38.9467810 116.2430340  22.5313030  37.6210980 115.5929020
  19.3666080  35.1135200 114.2992730  19.3702140  34.6725150 113.4497270
  20.2617200  35.4352530 114.4064550  15.2168460  34.9961690 113.2586940
  14.8768510  35.4736920 114.0153990  14.4545780  34.5426810 112.8988040
  19.4286230  36.1147280 107.2899490  19.5499050  36.0733760 108.2385310
  19.0434740  36.9771430 107.1346220  23.3914600  33.8914680 115.3063180
  23.4087340  34.3423330 116.1505030  23.1430180  32.9920320 115.5196620
  18.4407730  38.4248420 106.6882790  17.8724630  37.9766670 106.0618700
  19.1496730  38.7841200 106.1547940  26.8185350  31.3046860 121.1449560
  27.1431120  30.5736520 121.6707540  26.8541860  30.9860500 120.2430550
  13.5176910  42.3260440 120.5649520  13.1331700  41.6854110 121.1632480
  13.8289100  43.0296560 121.1344250  19.6674050  39.1736980 116.0458140
  20.0344180  38.6995550 116.7919480  19.4779110  40.0478550 116.3866480
  12.5314540  33.9180670 112.1751610  12.2461460  33.5536340 113.0130230
  12.4693400  33.1861130 111.5614750  17.4573420  38.2145620 118.3642350
  17.1530490  39.0937600 118.5892710  18.4119880  38.2745410 118.3999790
  15.9855210  42.4206610 108.9609200  15.2117470  41.8804230 108.8007920
  16.7149840  41.9013220 108.6226960  26.7443190  41.4171970 114.7535590
  27.4642310  41.9127260 114.3631700  26.5425010  40.7389860 114.1089460
  22.2053130  32.8109930 108.8964980  21.3917740  32.3123100 108.8210290
  22.0115080  33.6508180 108.4801330  22.1261990  41.4881030 120.6404590
  22.0599300  40.5676700 120.3862180  21.4967130  41.5856470 121.3549230
  24.9201520  37.1829580 107.1927140  25.8081140  37.4946810 107.0178480
  24.8906610  36.3101830 106.8007720  16.0292610  42.0886990 112.5988010
  16.5471280  41.2855250 112.5444900  15.5776630  42.0266130 113.4404840
  20.9162110  43.3553270 107.8715310  21.2577810  44.0995500 107.3758630
  20.0874820  43.6684390 108.2340140  13.5137150  39.0548360 119.5113710
  13.1552090  39.7202210 120.0987050  13.2191710  38.2231910 119.8826330
  16.7150270  39.5132600 122.3953260  16.4150410  39.6589780 121.4981080
  17.4861510  38.9537890 122.3026650  22.0578720  44.3101600 120.3908390
  22.0723260  43.3782560 120.1727300  21.3503820  44.3961360 121.0298160
  27.1915790  38.4941420 106.6607000  27.1079510  38.9255640 105.8103440
  27.9109980  38.9539770 107.0933820  28.2689930  40.9508940 119.7376970
  27.5438120  41.5437720 119.5406360  28.7965390  40.9432480 118.9390340
  23.7989520  42.6769110 113.2360820  24.1513340  42.0797240 112.5762190
  22.9151850  42.3513340 113.4069070  19.8852800  43.4366800 110.6431230
  20.5723930  43.9836010 111.0238820  19.0985220  43.9807530 110.6780840
  12.0245200  39.0539620 106.1348310  12.8940050  39.3364420 106.4184230
  11.5335520  39.8675490 106.0197120  19.1880010  40.4412830 110.2556590
  19.6442790  41.2518080 110.4816780  18.8368220  40.1235970 111.0875080
  21.4912620  45.9519170 117.4848890  22.1354840  46.1578550 118.1622310
  21.8542060  45.1907570 117.0319740  15.0891790  30.7850480 110.7279110
  14.9606420  30.7768380 111.6764030  14.2653810  31.1233570 110.3770120
  22.7644700  43.9551520 116.2026340  23.4066930  43.2544680 116.3158510
  23.2894050  44.7349960 116.0223230  24.5382320  44.7546420 119.4062400
  24.8738560  45.3413110 120.0840320  23.6182660  44.6239130 119.6360190
  12.3916450  48.2667000 106.7009940  12.7514090  48.8656340 106.0467210
  12.2508790  48.8126890 107.4744970  12.0885720  32.5441600 120.1885810
  11.3744240  32.7438520 120.7938420  12.5080760  31.7681170 120.5600610
  12.3758310  46.5321860 121.1752340  12.4849430  45.5916600 121.0347730
  11.7238870  46.7976610 120.5266070  20.3670900  44.8037750 122.5750460
  20.0467770  44.0846990 123.1196150  19.6929260  45.4792820 122.6486520
  18.4085070  45.6498200 107.5183610  18.3995170  46.3827890 106.9028120
  17.4883430  45.4029780 107.6110570  14.0091710  40.8713090 108.2630370
  13.4019660  41.6111990 108.2725670  14.4841060  40.9612450 107.4368570
  23.5824500  35.0363910 117.9387260  23.9505320  34.2159120 118.2666830
  22.7222700  35.0965800 118.3542910  26.9486530  33.9920850 108.7474820
  26.3199690  34.0966520 108.0333050  26.4538450  34.2117630 109.5368700
  21.3944670  45.7126440 106.1808800  21.4956650  45.5090430 105.2510780
  20.4946410  45.4584720 106.3856580  18.9170560  36.2706800 110.1632700
  18.2086710  36.7393140 110.6046310  19.2015040  35.6128810 110.7977890
  20.5426490  37.6903500 118.1625230  21.0411740  38.1649320 118.8277080
  20.6849440  36.7667020 118.3695260  22.9485990  32.9957460 111.6028490
  22.8253770  33.0143590 110.6538000  23.8970550  33.0436400 111.7226890
  20.0362780  48.2312760 110.8756470  20.2904280  48.1934150 109.9535840
  19.0875260  48.1046090 110.8684720  17.1205580  34.5791880 107.5383410
  17.9696110  35.0162030 107.4723600  16.7536850  34.8912140 108.3655470
  27.7493350  33.9071460 119.0053620  27.2466950  34.6476860 119.3447430
  28.5650010  34.2955460 118.6890410  26.0415360  39.1504640 112.4514980
  25.1005500  39.1654870 112.6262670  26.3559430  38.3640600 112.8975280
  16.0197000  40.8324240 106.0118940  16.7860270  40.7205600 106.5744370
  16.0971690  40.1362210 105.3595710  14.7143760  38.2649310 106.6951830
  14.7947350  37.3176820 106.8069230  15.6063510  38.5956190 106.8012490
  28.0440940  46.3213490 114.1269240  28.1688360  47.1444660 114.5993050
  28.9106500  46.1104220 113.7793390  15.5158470  48.4144700 113.7986370
  16.2520950  47.8660160 114.0694940  15.8999390  49.2800710 113.6592360
  12.4003950  44.4818270 109.6727880  11.4743730  44.7239410 109.6633290
  12.8660380  45.3092530 109.5512630  14.5216750  47.5990770 122.9871950
  15.3229480  47.9202820 123.4007350  14.0068570  47.2386350 123.7091860
  18.6260780  47.5875010 105.6211940  19.4189390  47.8763840 105.1693730
  18.1065130  47.1567180 104.9424420  23.3581380  43.7070640 122.9347360
  22.7519540  43.7302240 122.1943110  23.0535490  42.9753680 123.4714610
  24.7881750  47.4350930 121.5456770  25.7403500  47.3508950 121.4957010
  24.6409970  48.0992640 122.2190560  12.2414560  40.0864230 121.9308000
  12.7453580  39.5071510 122.5024230  11.5021980  40.3704460 122.4684370
  19.1438180  42.8078420 105.4854290  19.0388820  42.1930770 106.2115670
  18.9762400  42.2844310 104.7017300  19.2952500  41.4935220 121.4643520
  18.5298170  42.0620220 121.3798190  19.4768460  41.2011430 120.5711750
  22.3840910  41.8698450 106.0896280  21.8351010  42.3167750 106.7339020
  23.0060170  41.3647700 106.6133950  26.4375850  43.2240550 122.0218540
  27.1785320  43.5616310 121.5186000  25.6748530  43.3932610 121.4688310
  14.2737640  38.2293820 122.8258070  14.3142980  37.9307690 123.7343300
  15.1283140  38.6301430 122.6665590  18.0516030  40.8289370 107.9861580
  18.4732450  40.6629240 108.8292970  18.1766870  40.0189600 107.4916720
  16.2143450  36.8085920 120.7932560  15.6839910  36.3176870 120.1655900
  16.8831520  37.2370120 120.2590490  20.5643670  39.8526980 105.2338680
  21.0849330  39.1376000 104.8679830  21.2112070  40.4912850 105.5339190
  25.1121510  41.2755380 120.5573750  25.5262530  41.4300460 121.4064170
  24.1772510  41.4010600 120.7199530  25.5843680  38.6151540 122.5612900
  26.1664450  37.8603860 122.4733380  25.7605450  39.1458980 121.7844380
  16.7015750  33.7748290 120.8729850  16.6072620  33.1569040 120.1480720
  16.1213140  34.5014580 120.6459760  19.4677190  32.3321530 117.9057240
  19.0194490  32.3545790 117.0602790  18.8342390  31.9340550 118.5027540
  19.8736740  41.2275860 118.5269680  20.2924850  42.0708590 118.3545920
  18.9545370  41.3647900 118.2976460  22.2100640  38.9592040 119.9107520
  22.3296850  38.3633180 120.6502360  23.0694640  38.9961730 119.4908820
  24.5488540  39.5129230 118.4870030  24.0223760  40.0371850 117.8835170
  24.8919880  40.1456620 119.1179760  16.9474930  36.9022600 104.9319740
  16.7463990  36.0389960 105.2933080  16.7766980  36.8155960 103.9941340
  17.7244160  47.5328870 119.6427410  17.1865250  48.2574930 119.3236110
  17.9778120  47.0559210 118.8524750  18.9769410  35.5013390 121.1683340
  19.5669100  35.1929240 121.8561160  18.1589650  35.0293140 121.3243240
  23.7962840  35.1179200 121.4016360  23.1078360  34.4560740 121.3366350
  24.5168860  34.6717470 121.8464820  24.4263240  31.7130830 107.4606620
  24.7065530  30.8698730 107.8166040  23.6528970  31.9453940 107.9745370
  15.7457730  34.0023220 104.9197620  16.0483630  34.0090650 104.0116770
  16.4852320  33.6521080 105.4165280  20.5806370  48.7680080 119.9014060
  20.5065070  49.6715220 120.2086430  19.6785210  48.4491980 119.8736130
  18.9642660  32.9457840 105.9053820  18.6164660  32.2681830 105.3256270
  19.1655430  32.4847350 106.7197210  21.1291700  47.9338590 107.5240420
  22.0242490  48.2723560 107.5459180  21.1609330  47.2118000 106.8964700
  14.7687860  43.3065640 105.7527420  15.2062730  43.8495310 106.4085000
  15.2535590  42.4812590 105.7623760  11.9833660  46.0954670 113.2047680
  12.3136670  45.2275730 112.9726320  12.4124660  46.3013190 114.0352640
  16.5795580  44.4263680 110.8649650  16.2791120  44.3028650 111.7653560
  16.4733070  43.5672270 110.4565380  12.4723870  46.9625260 115.9429310
  12.0354860  47.1426060 116.7753460  13.0401550  47.7199880 115.8011030
  28.1086050  46.4642260 120.2306620  27.5088040  46.5234820 119.4870540
  28.2379950  45.5247240 120.3603470  12.3048300  39.4745490 112.3018190
  11.6497140  39.2057130 111.6577890  13.1426250  39.3649970 111.8520170
  26.7937690  43.1894240 118.3282780  25.9797530  43.6191400 118.5908570
  27.2011890  43.8012650 117.7151830  25.2538740  34.2686780 106.5236680
  25.6723620  34.0817760 105.6833340  24.9474800  33.4165830 106.8339610
  28.7528470  39.1810920 110.2212480  28.3772070  38.4138850 109.7893770
  28.0231590  39.5633620 110.7087410  13.3424230  39.8598060 116.8421530
  13.7097270  39.7725460 117.7217550  12.7735050  39.0964610 116.7428390
  28.1428090  38.3282440 119.8552000  27.9114180  38.0995190 118.9549950
  28.4032640  39.2481990 119.8096890  12.8940230  36.7707150 120.7479950
  11.9996280  36.7373910 121.0873660  13.4337780  36.9693940 121.5131200
  26.5816160  33.5538870 122.6331700  27.4586340  33.5622270 123.0165700
  26.5937000  32.8169710 122.0224050  11.5186380  36.6844420 108.2443520
  10.6150460  36.9474620 108.0695180  12.0027000  36.9555590 107.4643480
  28.0279430  37.4068410 113.5219720  28.5516910  36.9131060 112.8909890
  28.6138850  37.5418770 114.2667290  28.2069150  37.4908280 117.0439270
  27.2571860  37.4571820 117.1584260  28.3882160  38.4008390 116.8089040
  14.0613590  35.7409960 106.1537900  14.7705290  35.3193180 105.6685180
  13.3453530  35.8085190 105.5221250  13.7087750  31.7949290 105.1940550
  14.4315880  32.3358230 105.5121770  13.9812270  31.5212710 104.3182090
  27.5179400  36.6641760 109.4612130  28.0138520  36.4312630 110.2461010
  27.3195470  35.8253600 109.0449770  13.3979940  31.0455480 115.0963170
  14.0456130  30.4952860 114.6558330  13.8181780  31.2998630 115.9178980
  28.9466560  35.3002710 111.9949810  28.8365840  35.1458750 112.9332080
  29.7074150  34.7723650 111.7525220  27.2932280  31.2396840 118.4532810
  27.9304500  31.8530980 118.8192000  27.4407170  31.2757500 117.5082040
  29.8356830  33.1310630 105.2355950  30.7606140  32.9991810 105.0274240
  29.8132620  33.2103450 106.1892400  29.9095320  33.9021290 107.8612660
  29.1146820  33.8366410 108.3905570  30.1138600  34.8371930 107.8498010
  26.8513740  47.9412840 111.8551050  27.4472810  47.6197410 111.1785470
  27.1091890  47.4684660 112.6464320  13.1511940  31.2011150 117.8388490
  12.8026760  31.6574970 118.6046670  12.8199640  30.3068280 117.9210920
  14.7576310  44.3730750 122.0041680  14.7145940  44.0023660 122.8856140
  14.8887320  45.3108320 122.1443500  18.4582340  45.9290340 117.6051400
  18.2173700  46.1964900 116.7181920  19.3984980  46.0996070 117.6602260
  20.6636760  32.3923030 121.3607910  20.6025650  32.9844860 122.1103320
  21.6037140  32.2848990 121.2158170  23.3011320  32.0493090 121.0000200
  23.9151730  32.3672380 120.3381280  23.8460880  31.5641680 121.6196060
  29.7186500  47.9484720 118.4062040  29.2244780  48.3453590 117.6889170
  29.1099790  47.3233930 118.7999320  13.8232580  30.7287350 121.1139260
  14.3715570  30.5475400 120.3505370  13.8887890  29.9381460 121.6495570
  14.5964340  47.3193000 119.1239460  14.0024660  47.1877700 119.8629500
  14.5888180  46.4831140 118.6581560  24.0419360  30.6125230 117.3269490
  23.1679200  30.9460340 117.1242420  23.9330110  30.1398410 118.1521360
  24.9491340  32.8196100 118.7111210  24.6204700  32.0047860 118.3312940
  25.8973640  32.7765910 118.5876900  27.4025950  48.5908140 115.6848780
  26.9428920  49.3423950 115.3106800  26.7738410  47.8714610 115.6263580
  14.2276570  44.6851380 118.0747500  13.5010630  44.0656670 118.0073450
  14.2885720  45.0791990 117.2045580  17.8321670  46.8996380 114.8596910
  18.3486690  46.2883740 114.3345170  18.4819050  47.4025160 115.3507920
  20.5717170  47.7904870 115.6865890  20.8594980  47.5359170 114.8098900
  21.0840390  47.2382230 116.2771460  21.7894180  31.5295070 116.2662400
  21.0065970  32.0040570 116.5459160  21.4957110  30.6249900 116.1575580
  26.3415250  32.2318170 114.3111490  26.7823340  32.1763270 113.4633090
  26.0722840  33.1476180 114.3821670  28.2053820  31.8633410 112.3220310
  28.1442220  30.9194630 112.1751330  28.9845850  31.9713500 112.8673770
  12.5106570  48.0025770 111.2844260  12.3428610  47.3696450 111.9826150
  11.6441080  48.2085170 110.9338450  13.1334590  31.8342550 108.7876120
  13.8913950  31.9471430 108.2140150  12.6711760  32.6711750 108.7419550
  19.6748400  33.9481820 111.7778430  18.8622910  33.5738710 111.4374310
  20.1790040  33.1926900 112.0799620  24.1773380  30.6124270 113.0161500
  24.7802750  31.1844480 113.4910020  23.4366370  31.1763710 112.7935400
  27.3207980  31.0145830 108.2901780  27.5158610  31.9129280 108.5569210
  26.5337850  30.7832910 108.7834730  14.1169270  46.6959000 108.7294400
  13.5916890  47.0767030 108.0256360  14.0413850  47.3209770 109.4504110
  15.5059740  32.3606600 107.3278090  16.0352500  31.5736400 107.1986040
  16.1388060  33.0397790 107.5613620  17.6997580  32.0981740 110.3823480
  17.0700320  31.3969050 110.5493610  17.1602720  32.8585870 110.1656640
  20.6389530  48.7120970 123.0534090  21.5656840  48.4765240 123.0970050
  20.6239960  49.5392970 122.5720120  17.8253140  31.3765720 122.8175970
  17.5437410  31.8799320 122.0536790  18.2072840  30.5787470 122.4518100
  16.7162240  48.6441380 107.6043650  17.4481060  48.3600660 107.0567540
  16.9755910  48.4054660 108.4943030  15.8777030  44.7606110 107.6089980
  15.2485910  45.2291210 108.1575810  15.9924860  43.9155330 108.0436170
  24.4268600  30.7919300 123.3956440  24.3134050  31.1113910 124.2907960
  25.2438340  31.1931810 123.0993720  27.2067090  47.9390830 122.8775130
  27.9992410  47.4440060 122.6701090  27.5000240  48.6180970 123.4850740
  23.3326750  38.8111770  93.7591180  23.2520800  37.8966380  93.4882890
  22.9191170  39.3078840  93.0530890  21.4644790  40.5890790  95.6400450
  20.6886890  40.1091230  95.9299020  22.1157720  39.9096440  95.4656610
  15.4810620  40.9010600  96.5176210  14.6495500  40.6459310  96.9172720
  16.0891600  40.9721370  97.2534130  25.4852220  44.9950980  94.4199580
  25.0233750  44.2238220  94.7486750  26.2977770  45.0217050  94.9252030
  15.4611880  44.9350690  96.7134230  15.7639920  44.0448430  96.5344450
  16.2055470  45.4920910  96.4856480  13.8902570  35.8612490  90.3018600
  13.0019270  36.2028460  90.1998480  14.1743760  35.6612810  89.4099430
  11.8535580  38.4618140  96.1858300  12.4251690  37.6940340  96.1861940
  11.8537120  38.7606900  95.2764910  21.7115530  47.2808990  94.0403570
  21.0926970  47.7366490  93.4698010  22.5667310  47.4360450  93.6393270
  20.9053780  43.2647980  95.6470610  20.8362060  42.3237920  95.4859740
  21.6673640  43.3549390  96.2193180  13.0960450  33.8702500  97.9727230
  12.9163290  32.9728250  98.2529990  12.6940530  34.4174370  98.6474180
  21.9358950  36.0718360  95.8739540  22.3123770  35.1990240  95.7613210
  21.8378460  36.4077060  94.9829980  16.0663960  34.4443990  91.3356980
  16.1730710  35.3447720  91.6425740  15.1556320  34.3961960  91.0451630
  25.7183070  33.5668800  92.8067880  26.5392690  33.0765370  92.8493360
  25.7517150  34.1566460  93.5599720  13.7147120  36.3663000  96.5809570
  14.3957230  36.6301370  97.1996970  13.3995170  35.5263870  96.9147580
  17.9071690  37.4130360  95.6682160  18.4149910  37.9111330  96.3087180
  18.4384930  36.6365560  95.4921520  30.0082620  35.5835550  99.3711510
  29.3034790  35.9717260  98.8526620  30.2740540  36.2785840  99.9732440
  16.1907790  32.0528920  99.9345580  16.1926230  32.5701310  99.1291480
  15.3612100  31.5759100  99.9115510  17.4410640  41.6924100  98.1119080
  17.1080020  42.3193020  98.7540150  17.6177320  42.2185980  97.3320750
  25.9544550  35.5069180  95.5795420  25.2500120  35.7954070  96.1598530
  26.3156710  36.3169290  95.2194980  15.8723120  33.7638880  97.9416030
  16.2139930  34.6080930  97.6469900  14.9338930  33.9122620  98.0581370
  16.6529740  43.6604900  99.9268260  17.2703740  44.3355980  99.6452710
  15.7922860  44.0692880  99.8355760  11.9462080  42.8504760  88.8075110
  11.5690060  43.3391860  88.0760010  12.2035150  43.5230040  89.4381640
  27.5707330  45.1244310  97.8422900  26.8870850  45.7943420  97.8339570
  28.1101620  45.3224960  97.0767760  29.0231470  34.9523970  95.9704630
  28.0756380  34.9862950  96.1020060  29.3481460  35.7662920  96.3553990
  19.5551010  31.2521150  94.2660620  19.8625990  30.6968040  93.5496120
  18.6251710  31.3865610  94.0833610  25.1066070  46.9688440  96.5568080
  25.1193230  46.5650730  95.6890340  24.5541290  47.7435730  96.4529510
  24.5051510  41.8718280  97.8850690  24.9220300  41.6578390  97.0504150
  25.2291330  42.1291070  98.4559310  21.9300850  35.5886980  87.9987900
  20.9904520  35.7500940  88.0840360  22.2484110  36.3072660  87.4523890
  28.4513610  40.2705500  97.9766930  27.6232240  40.3398590  97.5017060
  29.0464090  40.8559810  97.5082760  25.4155620  37.0574820  98.9221800
  25.0026800  37.8828530  99.1761790  24.6831570  36.4719860  98.7298160
  17.5488410  39.8434720  93.7840470  17.1445410  39.1311970  93.2886370
  17.6351530  39.4987960  94.6728510  18.0170110  43.5302280  95.9479680
  17.7198400  42.9247750  95.2687460  18.9669930  43.5679590  95.8369040
  16.2617030  36.6177930  97.5639510  16.8131620  36.7273270  96.7892760
  16.7760540  36.9915530  98.2794740  26.1055720  47.1034150  99.6102780
  25.6286280  47.9106340  99.4175390  25.4217510  46.4512480  99.7628990
  17.1088540  43.2683970 102.5987480  16.2117070  43.4923940 102.8460880
  17.1341410  43.3918910 101.6498880  15.9359760  40.1397290 101.1744850
  15.7967530  41.0120090 101.5432250  15.0541120  39.7970100 101.0292790
  22.2589140  45.0573160  92.4809980  22.6985050  45.7997490  92.0665370
  22.1976030  45.2999730  93.4048940  17.7340110  46.0818990 103.3830000
  17.7055540  46.4861940 102.5158430  17.5705080  45.1529350 103.2201600
  27.7310900  31.3719900  86.8269780  27.4183560  31.4646730  87.7268850
  28.4923370  31.9500930  86.7767210  14.2493040  38.7379700  91.2847120
  14.1290640  39.4641790  90.6728390  13.9393930  37.9682610  90.8075030
  11.8878410  41.9094840  97.0915760  11.9658830  42.0443610  96.1471480
  12.5020090  41.2010730  97.2843880  13.1326040  43.6095030  93.5021940
  12.7254120  43.7509620  92.6475540  14.0239050  43.3255190  93.2993150
  29.0888180  44.0558940 101.8394180  29.2151240  43.8170820 100.9211360
  29.1309560  43.2243480 102.3116260  22.9504920  47.7586940 100.4088990
  23.4649590  47.6694950 101.2111420  22.1074000  48.1046640 100.7016900
  24.9259320  48.0442280  89.8372990  24.7660460  47.7545220  90.7354820
  24.7606030  47.2682410  89.3018220  17.4047700  47.8240810  91.6144610
  17.2290180  46.9076350  91.4012410  16.5503440  48.1828100  91.8542410
  24.1935380  47.1792550  92.4719480  24.6492330  46.3981930  92.7858100
  24.5327900  47.8899370  93.0160660  28.9412190  36.1091400 102.8043920
  28.3256460  36.6171070 102.2759380  28.6208610  35.2089730 102.7469860
  11.9437930  42.9509010  99.6310220  12.1068970  42.4814370  98.8129590
  12.4090380  42.4432570 100.2959060  16.7156700  32.0814770  94.6670790
  16.2724850  32.8624310  94.3355310  17.2741690  32.4044660  95.3741730
  21.0026510  34.9483290 100.2706110  20.5405880  35.1566310 101.0826050
  20.6004620  34.1342640  99.9676780  26.0031020  36.1692240 101.4002770
  25.1524610  35.8697990 101.7211840  25.8432810  36.4134250 100.4886590
  23.0980730  37.6693990 103.5001560  23.4234140  36.8357740 103.1603790
  23.8861060  38.1922510 103.6479890  19.8315520  31.7025470  89.5476620
  19.2069700  31.6985340  90.2729930  19.7445640  30.8356430  89.1512590
  18.7532600  32.6262100  96.5260390  19.0504930  33.5324930  96.4452410
  19.3018160  32.1380880  95.9119960  16.5070920  37.2048340  92.3952040
  16.2811840  36.9885510  93.2998660  15.7263450  37.6376800  92.0498010
  18.9470130  38.1033920 103.0612310  18.8513730  37.1628650 102.9112710
  19.7902110  38.3248990 102.6660380  22.3433550  35.8475250  93.0245970
  22.7363120  36.1647450  92.2114660  22.7050400  34.9687130  93.1390490
  14.0780670  34.5147590 101.2146090  13.6844060  35.3622800 101.4218870
  13.3899070  33.8773960 101.4054730  20.6525720  34.5982560 104.2842830
  19.9624040  34.4054760 104.9188920  21.3958020  34.8817200 104.8167130
  11.3797720  32.4376050  95.2476170  11.0910770  33.0078910  95.9601150
  12.1243480  31.9580500  95.6107400  11.5667950  36.3796170  86.4578890
  11.4842620  37.3226930  86.5993880  11.2151010  36.2371080  85.5791240
  22.9288690  38.4381000  97.1196750  22.1969810  38.9467810  97.4686850
  22.5313030  37.6210980  96.8185530  19.3666080  35.1135200  95.5249240
  19.3702140  34.6725150  94.6753780  20.2617200  35.4352530  95.6321060
  15.2168460  34.9961690  94.4843450  14.8768510  35.4736920  95.2410500
  14.4545780  34.5426810  94.1244550  19.4286230  36.1147280  88.5156000
  19.5499050  36.0733760  89.4641820  19.0434740  36.9771430  88.3602730
  23.3914600  33.8914680  96.5319690  23.4087340  34.3423330  97.3761540
  23.1430180  32.9920320  96.7453130  18.4407730  38.4248420  87.9139300
  17.8724630  37.9766670  87.2875210  19.1496730  38.7841200  87.3804450
  26.8185350  31.3046860 102.3706070  27.1431120  30.5736520 102.8964050
  26.8541860  30.9860500 101.4687060  13.5176910  42.3260440 101.7906030
  13.1331700  41.6854110 102.3888990  13.8289100  43.0296560 102.3600760
  19.6674050  39.1736980  97.2714650  20.0344180  38.6995550  98.0175990
  19.4779110  40.0478550  97.6122990  12.5314540  33.9180670  93.4008120
  12.2461460  33.5536340  94.2386740  12.4693400  33.1861130  92.7871260
  17.4573420  38.2145620  99.5898860  17.1530490  39.0937600  99.8149220
  18.4119880  38.2745410  99.6256300  15.9855210  42.4206610  90.1865710
  15.2117470  41.8804230  90.0264430  16.7149840  41.9013220  89.8483470
  26.7443190  41.4171970  95.9792100  27.4642310  41.9127260  95.5888210
  26.5425010  40.7389860  95.3345970  22.2053130  32.8109930  90.1221490
  21.3917740  32.3123100  90.0466800  22.0115080  33.6508180  89.7057840
  22.1261990  41.4881030 101.8661100  22.0599300  40.5676700 101.6118690
  21.4967130  41.5856470 102.5805740  16.0292610  42.0886990  93.8244520
  16.5471280  41.2855250  93.7701410  15.5776630  42.0266130  94.6661350
  20.9162110  43.3553270  89.0971820  21.2577810  44.0995500  88.6015140
  20.0874820  43.6684390  89.4596650  13.5137150  39.0548360 100.7370220
  13.1552090  39.7202210 101.3243560  13.2191710  38.2231910 101.1082840
  16.7150270  39.5132600 103.6209770  16.4150410  39.6589780 102.7237590
  17.4861510  38.9537890 103.5283160  22.0578720  44.3101600 101.6164900
  22.0723260  43.3782560 101.3983810  21.3503820  44.3961360 102.2554670
  28.2689930  40.9508940 100.9633480  27.5438120  41.5437720 100.7662870
  28.7965390  40.9432480 100.1646850  28.2203040  45.3483680  90.6145640
  27.5779200  44.6939300  90.8889360  27.8333700  45.7538770  89.8386310
  23.7989520  42.6769110  94.4617330  24.1513340  42.0797240  93.8018700
  22.9151850  42.3513340  94.6325580  19.8852800  43.4366800  91.8687740
  20.5723930  43.9836010  92.2495330  19.0985220  43.9807530  91.9037350
  12.0245200  39.0539620  87.3604820  12.8940050  39.3364420  87.6440740
  11.5335520  39.8675490  87.2453630  19.1880010  40.4412830  91.4813100
  19.6442790  41.2518080  91.7073290  18.8368220  40.1235970  92.3131590
  21.4912620  45.9519170  98.7105400  22.1354840  46.1578550  99.3878820
  21.8542060  45.1907570  98.2576250  15.0891790  30.7850480  91.9535620
  14.9606420  30.7768380  92.9020540  14.2653810  31.1233570  91.6026630
  22.7644700  43.9551520  97.4282850  23.4066930  43.2544680  97.5415020
  23.2894050  44.7349960  97.2479740  24.5382320  44.7546420 100.6318910
  24.8738560  45.3413110 101.3096830  23.6182660  44.6239130 100.8616700
  12.3916450  48.2667000  87.9266450  12.7514090  48.8656340  87.2723720
  12.2508790  48.8126890  88.7001480  12.0885720  32.5441600 101.4142320
  11.3744240  32.7438520 102.0194930  12.5080760  31.7681170 101.7857120
  12.3758310  46.5321860 102.4008850  12.4849430  45.5916600 102.2604240
  11.7238870  46.7976610 101.7522580  20.3670900  44.8037750 103.8006970
  20.0467770  44.0846990 104.3452660  19.6929260  45.4792820 103.8743030
  14.0091710  40.8713090  89.4886880  13.4019660  41.6111990  89.4982180
  14.4841060  40.9612450  88.6625080  23.5824500  35.0363910  99.1643770
  23.9505320  34.2159120  99.4923340  22.7222700  35.0965800  99.5799420
  26.9486530  33.9920850  89.9731330  26.3199690  34.0966520  89.2589560
  26.4538450  34.2117630  90.7625210  18.9170560  36.2706800  91.3889210
  18.2086710  36.7393140  91.8302820  19.2015040  35.6128810  92.0234400
  20.5426490  37.6903500  99.3881740  21.0411740  38.1649320 100.0533590
  20.6849440  36.7667020  99.5951770  22.9485990  32.9957460  92.8285000
  22.8253770  33.0143590  91.8794510  23.8970550  33.0436400  92.9483400
  17.1205580  34.5791880  88.7639920  17.9696110  35.0162030  88.6980110
  16.7536850  34.8912140  89.5911980  27.7493350  33.9071460 100.2310130
  27.2466950  34.6476860 100.5703940  28.5650010  34.2955460  99.9146920
  26.0415360  39.1504640  93.6771490  25.1005500  39.1654870  93.8519180
  26.3559430  38.3640600  94.1231790  16.0197000  40.8324240  87.2375450
  16.7860270  40.7205600  87.8000880  16.0971690  40.1362210  86.5852220
  14.7143760  38.2649310  87.9208340  14.7947350  37.3176820  88.0325740
  15.6063510  38.5956190  88.0269000  28.0440940  46.3213490  95.3525750
  28.1688360  47.1444660  95.8249560  28.9106500  46.1104220  95.0049900
  15.5158470  48.4144700  95.0242880  16.2520950  47.8660160  95.2951450
  15.8999390  49.2800710  94.8848870  12.4003950  44.4818270  90.8984390
  11.4743730  44.7239410  90.8889800  12.8660380  45.3092530  90.7769140
  14.5216750  47.5990770 104.2128460  15.3229480  47.9202820 104.6263860
  14.0068570  47.2386350 104.9348370  27.6790950  46.8145140  88.2705190
  27.3932460  46.4010280  87.4559370  27.4810500  47.7432850  88.1505710
  12.2414560  40.0864230 103.1564510  12.7453580  39.5071510 103.7280740
  11.5021980  40.3704460 103.6940880  19.1438180  42.8078420  86.7110800
  19.0388820  42.1930770  87.4372180  18.9762400  42.2844310  85.9273810
  19.2952500  41.4935220 102.6900030  18.5298170  42.0620220 102.6054700
  19.4768460  41.2011430 101.7968260  14.2737640  38.2293820 104.0514580
  14.3142980  37.9307690 104.9599810  15.1283140  38.6301430 103.8922100
  18.0516030  40.8289370  89.2118090  18.4732450  40.6629240  90.0549480
  18.1766870  40.0189600  88.7173230  16.2143450  36.8085920 102.0189070
  15.6839910  36.3176870 101.3912410  16.8831520  37.2370120 101.4847000
  20.5643670  39.8526980  86.4595190  21.0849330  39.1376000  86.0936340
  21.2112070  40.4912850  86.7595700  25.1121510  41.2755380 101.7830260
  25.5262530  41.4300460 102.6320680  24.1772510  41.4010600 101.9456040
  25.5843680  38.6151540 103.7869410  26.1664450  37.8603860 103.6989890
  25.7605450  39.1458980 103.0100890  16.7015750  33.7748290 102.0986360
  16.6072620  33.1569040 101.3737230  16.1213140  34.5014580 101.8716270
  19.4677190  32.3321530  99.1313750  19.0194490  32.3545790  98.2859300
  18.8342390  31.9340550  99.7284050  19.8736740  41.2275860  99.7526190
  20.2924850  42.0708590  99.5802430  18.9545370  41.3647900  99.5232970
  22.2100640  38.9592040 101.1364030  22.3296850  38.3633180 101.8758870
  23.0694640  38.9961730 100.7165330  24.5488540  39.5129230  99.7126540
  24.0223760  40.0371850  99.1091680  24.8919880  40.1456620 100.3436270
  16.9474930  36.9022600  86.1576250  16.7463990  36.0389960  86.5189590
  16.7766980  36.8155960  85.2197850  17.7244160  47.5328870 100.8683920
  17.1865250  48.2574930 100.5492620  17.9778120  47.0559210 100.0781260
  18.9769410  35.5013390 102.3939850  19.5669100  35.1929240 103.0817670
  18.1589650  35.0293140 102.5499750  23.7962840  35.1179200 102.6272870
  23.1078360  34.4560740 102.5622860  24.5168860  34.6717470 103.0721330
  24.4263240  31.7130830  88.6863130  24.7065530  30.8698730  89.0422550
  23.6528970  31.9453940  89.2001880  15.7457730  34.0023220  86.1454130
  16.0483630  34.0090650  85.2373280  16.4852320  33.6521080  86.6421790
  20.5806370  48.7680080 101.1270570  20.5065070  49.6715220 101.4342940
  19.6785210  48.4491980 101.0992640  18.9642660  32.9457840  87.1310330
  18.6164660  32.2681830  86.5512780  19.1655430  32.4847350  87.9453720
  14.7687860  43.3065640  86.9783930  15.2062730  43.8495310  87.6341510
  15.2535590  42.4812590  86.9880270  11.9833660  46.0954670  94.4304190
  12.3136670  45.2275730  94.1982830  12.4124660  46.3013190  95.2609150
  16.5795580  44.4263680  92.0906160  16.2791120  44.3028650  92.9910070
  16.4733070  43.5672270  91.6821890  12.4723870  46.9625260  97.1685820
  12.0354860  47.1426060  98.0009970  13.0401550  47.7199880  97.0267540
  28.1086050  46.4642260 101.4563130  27.5088040  46.5234820 100.7127050
  28.2379950  45.5247240 101.5859980  29.3487500  44.2060080  86.7932840
  28.5180460  44.2736730  87.2640070  29.5259330  45.0964200  86.4899700
  28.8043960  40.9507560  89.2967040  29.5662870  41.5204210  89.4026730
  28.8198330  40.3834760  90.0675350  12.3048300  39.4745490  93.5274700
  11.6497140  39.2057130  92.8834400  13.1426250  39.3649970  93.0776680
  29.8103930  41.8057660  94.1408970  30.1812760  41.0224980  93.7344940
  30.4505860  42.4946760  93.9626270  26.7937690  43.1894240  99.5539290
  25.9797530  43.6191400  99.8165080  27.2011890  43.8012650  98.9408340
  28.8563130  41.2441930  86.4539560  29.1311970  42.1520810  86.3258780
  28.6673870  41.1804460  87.3901550  25.2538740  34.2686780  87.7493190
  25.6723620  34.0817760  86.9089850  24.9474800  33.4165830  88.0596120
  28.7528470  39.1810920  91.4468990  28.3772070  38.4138850  91.0150280
  28.0231590  39.5633620  91.9343920  13.3424230  39.8598060  98.0678040
  13.7097270  39.7725460  98.9474060  12.7735050  39.0964610  97.9684900
  28.1428090  38.3282440 101.0808510  27.9114180  38.0995190 100.1806460
  28.4032640  39.2481990 101.0353400  12.8940230  36.7707150 101.9736460
  11.9996280  36.7373910 102.3130170  13.4337780  36.9693940 102.7387710
  26.5816160  33.5538870 103.8588210  27.4586340  33.5622270 104.2422210
  26.5937000  32.8169710 103.2480560  11.5186380  36.6844420  89.4700030
  10.6150460  36.9474620  89.2951690  12.0027000  36.9555590  88.6899990
  28.0279430  37.4068410  94.7476230  28.5516910  36.9131060  94.1166400
  28.6138850  37.5418770  95.4923800  28.2069150  37.4908280  98.2695780
  27.2571860  37.4571820  98.3840770  28.3882160  38.4008390  98.0345550
  14.0613590  35.7409960  87.3794410  14.7705290  35.3193180  86.8941690
  13.3453530  35.8085190  86.7477760  13.7087750  31.7949290  86.4197060
  14.4315880  32.3358230  86.7378280  13.9812270  31.5212710  85.5438600
  27.5179400  36.6641760  90.6868640  28.0138520  36.4312630  91.4717520
  27.3195470  35.8253600  90.2706280  13.3979940  31.0455480  96.3219680
  14.0456130  30.4952860  95.8814840  13.8181780  31.2998630  97.1435490
  28.9466560  35.3002710  93.2206320  28.8365840  35.1458750  94.1588590
  29.7074150  34.7723650  92.9781730  27.2932280  31.2396840  99.6789320
  27.9304500  31.8530980 100.0448510  27.4407170  31.2757500  98.7338550
  29.8356830  33.1310630  86.4612460  30.7606140  32.9991810  86.2530750
  29.8132620  33.2103450  87.4148910  29.9095320  33.9021290  89.0869170
  29.1146820  33.8366410  89.6162080  30.1138600  34.8371930  89.0754520
  26.8513740  47.9412840  93.0807560  27.4472810  47.6197410  92.4041980
  27.1091890  47.4684660  93.8720830  13.1511940  31.2011150  99.0645000
  12.8026760  31.6574970  99.8303180  12.8199640  30.3068280  99.1467430
  14.7576310  44.3730750 103.2298190  14.7145940  44.0023660 104.1112650
  14.8887320  45.3108320 103.3700010  18.4582340  45.9290340  98.8307910
  18.2173700  46.1964900  97.9438430  19.3984980  46.0996070  98.8858770
  20.6636760  32.3923030 102.5864420  20.6025650  32.9844860 103.3359830
  21.6037140  32.2848990 102.4414680  23.3011320  32.0493090 102.2256710
  23.9151730  32.3672380 101.5637790  23.8460880  31.5641680 102.8452570
  29.7186500  47.9484720  99.6318550  29.2244780  48.3453590  98.9145680
  29.1099790  47.3233930 100.0255830  13.8232580  30.7287350 102.3395770
  14.3715570  30.5475400 101.5761880  13.8887890  29.9381460 102.8752080
  14.5964340  47.3193000 100.3495970  14.0024660  47.1877700 101.0886010
  14.5888180  46.4831140  99.8838070  24.0419360  30.6125230  98.5526000
  23.1679200  30.9460340  98.3498930  23.9330110  30.1398410  99.3777870
  24.9491340  32.8196100  99.9367720  24.6204700  32.0047860  99.5569450
  25.8973640  32.7765910  99.8133410  27.4025950  48.5908140  96.9105290
  26.9428920  49.3423950  96.5363310  26.7738410  47.8714610  96.8520090
  14.2276570  44.6851380  99.3004010  13.5010630  44.0656670  99.2329960
  14.2885720  45.0791990  98.4302090  17.8321670  46.8996380  96.0853420
  18.3486690  46.2883740  95.5601680  18.4819050  47.4025160  96.5764430
  20.5717170  47.7904870  96.9122400  20.8594980  47.5359170  96.0355410
  21.0840390  47.2382230  97.5027970  21.7894180  31.5295070  97.4918910
  21.0065970  32.0040570  97.7715670  21.4957110  30.6249900  97.3832090
  26.3415250  32.2318170  95.5368000  26.7823340  32.1763270  94.6889600
  26.0722840  33.1476180  95.6078180  28.2053820  31.8633410  93.5476820
  28.1442220  30.9194630  93.4007840  28.9845850  31.9713500  94.0930280
  12.5106570  48.0025770  92.5100770  12.3428610  47.3696450  93.2082660
  11.6441080  48.2085170  92.1594960  13.1334590  31.8342550  90.0132630
  13.8913950  31.9471430  89.4396660  12.6711760  32.6711750  89.9676060
  19.6748400  33.9481820  93.0034940  18.8622910  33.5738710  92.6630820
  20.1790040  33.1926900  93.3056130  24.1773380  30.6124270  94.2418010
  24.7802750  31.1844480  94.7166530  23.4366370  31.1763710  94.0191910
  27.3207980  31.0145830  89.5158290  27.5158610  31.9129280  89.7825720
  26.5337850  30.7832910  90.0091240  14.1169270  46.6959000  89.9550910
  13.5916890  47.0767030  89.2512870  14.0413850  47.3209770  90.6760620
  15.5059740  32.3606600  88.5534600  16.0352500  31.5736400  88.4242550
  16.1388060  33.0397790  88.7870130  17.6997580  32.0981740  91.6079990
  17.0700320  31.3969050  91.7750120  17.1602720  32.8585870  91.3913150
  20.6389530  48.7120970 104.2790600  21.5656840  48.4765240 104.3226560
  20.6239960  49.5392970 103.7976630  28.8734590  48.2546540  91.2764850
  29.0486780  47.5684280  90.6325770  28.1756160  48.7793590  90.8841520
  17.8253140  31.3765720 104.0432480  17.5437410  31.8799320 103.2793300
  18.2072840  30.5787470 103.6774610  15.8777030  44.7606110  88.8346490
  15.2485910  45.2291210  89.3832320  15.9924860  43.9155330  89.2692680
  24.4268600  30.7919300 104.6212950  24.3134050  31.1113910 105.5164470
  25.2438340  31.1931810 104.3250230  23.3326750  38.8111770  74.9847690
  23.2520800  37.8966380  74.7139400  22.9191170  39.3078840  74.2787400
  21.4644790  40.5890790  76.8656960  20.6886890  40.1091230  77.1555530
  22.1157720  39.9096440  76.6913120  15.4810620  40.9010600  77.7432720
  14.6495500  40.6459310  78.1429230  16.0891600  40.9721370  78.4790640
  15.4611880  44.9350690  77.9390740  15.7639920  44.0448430  77.7600960
  16.2055470  45.4920910  77.7112990  13.8902570  35.8612490  71.5275110
  13.0019270  36.2028460  71.4254990  14.1743760  35.6612810  70.6355940
  11.8535580  38.4618140  77.4114810  12.4251690  37.6940340  77.4118450
  11.8537120  38.7606900  76.5021420  21.7115530  47.2808990  75.2660080
  21.0926970  47.7366490  74.6954520  22.5667310  47.4360450  74.8649780
  20.9053780  43.2647980  76.8727120  20.8362060  42.3237920  76.7116250
  21.6673640  43.3549390  77.4449690  13.0960450  33.8702500  79.1983740
  12.9163290  32.9728250  79.4786500  12.6940530  34.4174370  79.8730690
  21.9358950  36.0718360  77.0996050  22.3123770  35.1990240  76.9869720
  21.8378460  36.4077060  76.2086490  16.0663960  34.4443990  72.5613490
  16.1730710  35.3447720  72.8682250  15.1556320  34.3961960  72.2708140
  25.7183070  33.5668800  74.0324390  26.5392690  33.0765370  74.0749870
  25.7517150  34.1566460  74.7856230  13.7147120  36.3663000  77.8066080
  14.3957230  36.6301370  78.4253480  13.3995170  35.5263870  78.1404090
  17.9071690  37.4130360  76.8938670  18.4149910  37.9111330  77.5343690
  18.4384930  36.6365560  76.7178030  30.0082620  35.5835550  80.5968020
  29.3034790  35.9717260  80.0783130  30.2740540  36.2785840  81.1988950
  16.1907790  32.0528920  81.1602090  16.1926230  32.5701310  80.3547990
  15.3612100  31.5759100  81.1372020  22.5778880  42.1648230  72.6591990
  21.9596150  42.6297680  72.0954710  23.0902130  42.8575710  73.0761500
  17.4410640  41.6924100  79.3375590  17.1080020  42.3193020  79.9796660
  17.6177320  42.2185980  78.5577260  25.9544550  35.5069180  76.8051930
  25.2500120  35.7954070  77.3855040  26.3156710  36.3169290  76.4451490
  15.8723120  33.7638880  79.1672540  16.2139930  34.6080930  78.8726410
  14.9338930  33.9122620  79.2837880  16.6529740  43.6604900  81.1524770
  17.2703740  44.3355980  80.8709220  15.7922860  44.0692880  81.0612270
  11.9462080  42.8504760  70.0331620  11.5690060  43.3391860  69.3016520
  12.2035150  43.5230040  70.6638150  29.0231470  34.9523970  77.1961140
  28.0756380  34.9862950  77.3276570  29.3481460  35.7662920  77.5810500
  19.5551010  31.2521150  75.4917130  19.8625990  30.6968040  74.7752630
  18.6251710  31.3865610  75.3090120  21.9431770  39.3169980  72.2277250
  21.0161050  39.2507360  72.4565720  22.0956590  40.2550110  72.1132490
  21.9300850  35.5886980  69.2244410  20.9904520  35.7500940  69.3096870
  22.2484110  36.3072660  68.6780400  25.4155620  37.0574820  80.1478310
  25.0026800  37.8828530  80.4018300  24.6831570  36.4719860  79.9554670
  17.5488410  39.8434720  75.0096980  17.1445410  39.1311970  74.5142880
  17.6351530  39.4987960  75.8985020  18.0170110  43.5302280  77.1736190
  17.7198400  42.9247750  76.4943970  18.9669930  43.5679590  77.0625550
  16.2617030  36.6177930  78.7896020  16.8131620  36.7273270  78.0149270
  16.7760540  36.9915530  79.5051250  17.1088540  43.2683970  83.8243990
  16.2117070  43.4923940  84.0717390  17.1341410  43.3918910  82.8755390
  24.1493760  40.1177090  69.7385250  24.5887040  39.2799520  69.5923070
  24.8622180  40.7506490  69.8249390  15.9359760  40.1397290  82.4001360
  15.7967530  41.0120090  82.7688760  15.0541120  39.7970100  82.2549300
  22.2589140  45.0573160  73.7066490  22.6985050  45.7997490  73.2921880
  22.1976030  45.2999730  74.6305450  27.7310900  31.3719900  68.0526290
  27.4183560  31.4646730  68.9525360  28.4923370  31.9500930  68.0023720
  14.2493040  38.7379700  72.5103630  14.1290640  39.4641790  71.8984900
  13.9393930  37.9682610  72.0331540  29.6854930  46.8646090  85.9050680
  30.1614650  47.3428980  86.5839760  30.3062090  46.7963580  85.1796180
  11.8878410  41.9094840  78.3172270  11.9658830  42.0443610  77.3727990
  12.5020090  41.2010730  78.5100390  13.1326040  43.6095030  74.7278450
  12.7254120  43.7509620  73.8732050  14.0239050  43.3255190  74.5249660
  29.0888180  44.0558940  83.0650690  29.2151240  43.8170820  82.1467870
  29.1309560  43.2243480  83.5372770  22.9504920  47.7586940  81.6345500
  23.4649590  47.6694950  82.4367930  22.1074000  48.1046640  81.9273410
  24.9259320  48.0442280  71.0629500  24.7660460  47.7545220  71.9611330
  24.7606030  47.2682410  70.5274730  17.4047700  47.8240810  72.8401120
  17.2290180  46.9076350  72.6268920  16.5503440  48.1828100  73.0798920
  24.1935380  47.1792550  73.6975990  24.6492330  46.3981930  74.0114610
  24.5327900  47.8899370  74.2417170  28.9412190  36.1091400  84.0300430
  28.3256460  36.6171070  83.5015890  28.6208610  35.2089730  83.9726370
  11.9437930  42.9509010  80.8566730  12.1068970  42.4814370  80.0386100
  12.4090380  42.4432570  81.5215570  16.7156700  32.0814770  75.8927300
  16.2724850  32.8624310  75.5611820  17.2741690  32.4044660  76.5998240
  21.0026510  34.9483290  81.4962620  20.5405880  35.1566310  82.3082560
  20.6004620  34.1342640  81.1933290  26.0031020  36.1692240  82.6259280
  25.1524610  35.8697990  82.9468350  25.8432810  36.4134250  81.7143100
  23.0980730  37.6693990  84.7258070  23.4234140  36.8357740  84.3860300
  23.8861060  38.1922510  84.8736400  19.8315520  31.7025470  70.7733130
  19.2069700  31.6985340  71.4986440  19.7445640  30.8356430  70.3769100
  18.7532600  32.6262100  77.7516900  19.0504930  33.5324930  77.6708920
  19.3018160  32.1380880  77.1376470  16.5070920  37.2048340  73.6208550
  16.2811840  36.9885510  74.5255170  15.7263450  37.6376800  73.2754520
  23.7368680  37.2111710  72.2199200  23.1377570  37.9347510  72.0362820
  24.2848290  37.1488490  71.4375650  18.9470130  38.1033920  84.2868820
  18.8513730  37.1628650  84.1369220  19.7902110  38.3248990  83.8916890
  22.3433550  35.8475250  74.2502480  22.7363120  36.1647450  73.4371170
  22.7050400  34.9687130  74.3647000  14.0780670  34.5147590  82.4402600
  13.6844060  35.3622800  82.6475380  13.3899070  33.8773960  82.6311240
  20.6525720  34.5982560  85.5099340  19.9624040  34.4054760  86.1445430
  21.3958020  34.8817200  86.0423640  11.3797720  32.4376050  76.4732680
  11.0910770  33.0078910  77.1857660  12.1243480  31.9580500  76.8363910
  11.5667950  36.3796170  67.6835400  11.4842620  37.3226930  67.8250390
  11.2151010  36.2371080  66.8047750  22.9288690  38.4381000  78.3453260
  22.1969810  38.9467810  78.6943360  22.5313030  37.6210980  78.0442040
  19.3666080  35.1135200  76.7505750  19.3702140  34.6725150  75.9010290
  20.2617200  35.4352530  76.8577570  15.2168460  34.9961690  75.7099960
  14.8768510  35.4736920  76.4667010  14.4545780  34.5426810  75.3501060
  19.4286230  36.1147280  69.7412510  19.5499050  36.0733760  70.6898330
  19.0434740  36.9771430  69.5859240  23.3914600  33.8914680  77.7576200
  23.4087340  34.3423330  78.6018050  23.1430180  32.9920320  77.9709640
  18.4407730  38.4248420  69.1395810  17.8724630  37.9766670  68.5131720
  19.1496730  38.7841200  68.6060960  26.8185350  31.3046860  83.5962580
  27.1431120  30.5736520  84.1220560  26.8541860  30.9860500  82.6943570
  13.5176910  42.3260440  83.0162540  13.1331700  41.6854110  83.6145500
  13.8289100  43.0296560  83.5857270  19.6674050  39.1736980  78.4971160
  20.0344180  38.6995550  79.2432500  19.4779110  40.0478550  78.8379500
  12.5314540  33.9180670  74.6264630  12.2461460  33.5536340  75.4643250
  12.4693400  33.1861130  74.0127770  17.4573420  38.2145620  80.8155370
  17.1530490  39.0937600  81.0405730  18.4119880  38.2745410  80.8512810
  15.9855210  42.4206610  71.4122220  15.2117470  41.8804230  71.2520940
  16.7149840  41.9013220  71.0739980  22.2053130  32.8109930  71.3478000
  21.3917740  32.3123100  71.2723310  22.0115080  33.6508180  70.9314350
  22.1261990  41.4881030  83.0917610  22.0599300  40.5676700  82.8375200
  21.4967130  41.5856470  83.8062250  24.9201520  37.1829580  69.6440160
  25.8081140  37.4946810  69.4691500  24.8906610  36.3101830  69.2520740
  16.0292610  42.0886990  75.0501030  16.5471280  41.2855250  74.9957920
  15.5776630  42.0266130  75.8917860  20.9162110  43.3553270  70.3228330
  21.2577810  44.0995500  69.8271650  20.0874820  43.6684390  70.6853160
  13.5137150  39.0548360  81.9626730  13.1552090  39.7202210  82.5500070
  13.2191710  38.2231910  82.3339350  16.7150270  39.5132600  84.8466280
  16.4150410  39.6589780  83.9494100  17.4861510  38.9537890  84.7539670
  22.0578720  44.3101600  82.8421410  22.0723260  43.3782560  82.6240320
  21.3503820  44.3961360  83.4811180  27.1915790  38.4941420  69.1120020
  27.1079510  38.9255640  68.2616460  27.9109980  38.9539770  69.5446840
  28.2689930  40.9508940  82.1889990  27.5438120  41.5437720  81.9919380
  28.7965390  40.9432480  81.3903360  19.8852800  43.4366800  73.0944250
  20.5723930  43.9836010  73.4751840  19.0985220  43.9807530  73.1293860
  12.0245200  39.0539620  68.5861330  12.8940050  39.3364420  68.8697250
  11.5335520  39.8675490  68.4710140  19.1880010  40.4412830  72.7069610
  19.6442790  41.2518080  72.9329800  18.8368220  40.1235970  73.5388100
  21.4912620  45.9519170  79.9361910  22.1354840  46.1578550  80.6135330
  21.8542060  45.1907570  79.4832760  15.0891790  30.7850480  73.1792130
  14.9606420  30.7768380  74.1277050  14.2653810  31.1233570  72.8283140
  22.7644700  43.9551520  78.6539360  23.4066930  43.2544680  78.7671530
  23.2894050  44.7349960  78.4736250  24.5382320  44.7546420  81.8575420
  24.8738560  45.3413110  82.5353340  23.6182660  44.6239130  82.0873210
  12.3916450  48.2667000  69.1522960  12.7514090  48.8656340  68.4980230
  12.2508790  48.8126890  69.9257990  12.0885720  32.5441600  82.6398830
  11.3744240  32.7438520  83.2451440  12.5080760  31.7681170  83.0113630
  26.1916670  42.1572080  70.0392660  25.9038370  42.6184770  70.8270540
  26.9868840  41.6969850  70.3076880  12.3758310  46.5321860  83.6265360
  12.4849430  45.5916600  83.4860750  11.7238870  46.7976610  82.9779090
  20.3670900  44.8037750  85.0263480  20.0467770  44.0846990  85.5709170
  19.6929260  45.4792820  85.0999540  18.4085070  45.6498200  69.9696630
  18.3995170  46.3827890  69.3541140  17.4883430  45.4029780  70.0623590
  14.0091710  40.8713090  70.7143390  13.4019660  41.6111990  70.7238690
  14.4841060  40.9612450  69.8881590  23.5824500  35.0363910  80.3900280
  23.9505320  34.2159120  80.7179850  22.7222700  35.0965800  80.8055930
  26.9486530  33.9920850  71.1987840  26.3199690  34.0966520  70.4846070
  26.4538450  34.2117630  71.9881720  21.3944670  45.7126440  68.6321820
  21.4956650  45.5090430  67.7023800  20.4946410  45.4584720  68.8369600
  18.9170560  36.2706800  72.6145720  18.2086710  36.7393140  73.0559330
  19.2015040  35.6128810  73.2490910  20.5426490  37.6903500  80.6138250
  21.0411740  38.1649320  81.2790100  20.6849440  36.7667020  80.8208280
  22.9485990  32.9957460  74.0541510  22.8253770  33.0143590  73.1051020
  23.8970550  33.0436400  74.1739910  20.0362780  48.2312760  73.3269490
  20.2904280  48.1934150  72.4048860  19.0875260  48.1046090  73.3197740
  17.1205580  34.5791880  69.9896430  17.9696110  35.0162030  69.9236620
  16.7536850  34.8912140  70.8168490  27.7493350  33.9071460  81.4566640
  27.2466950  34.6476860  81.7960450  28.5650010  34.2955460  81.1403430
  16.0197000  40.8324240  68.4631960  16.7860270  40.7205600  69.0257390
  16.0971690  40.1362210  67.8108730  14.7143760  38.2649310  69.1464850
  14.7947350  37.3176820  69.2582250  15.6063510  38.5956190  69.2525510
  15.5158470  48.4144700  76.2499390  16.2520950  47.8660160  76.5207960
  15.8999390  49.2800710  76.1105380  12.4003950  44.4818270  72.1240900
  11.4743730  44.7239410  72.1146310  12.8660380  45.3092530  72.0025650
  14.5216750  47.5990770  85.4384970  15.3229480  47.9202820  85.8520370
  14.0068570  47.2386350  86.1604880  18.6260780  47.5875010  68.0724960
  19.4189390  47.8763840  67.6206750  18.1065130  47.1567180  67.3937440
  24.7881750  47.4350930  83.9969790  25.7403500  47.3508950  83.9470030
  24.6409970  48.0992640  84.6703580  12.2414560  40.0864230  84.3821020
  12.7453580  39.5071510  84.9537250  11.5021980  40.3704460  84.9197390
  19.1438180  42.8078420  67.9367310  19.0388820  42.1930770  68.6628690
  18.9762400  42.2844310  67.1530320  19.2952500  41.4935220  83.9156540
  18.5298170  42.0620220  83.8311210  19.4768460  41.2011430  83.0224770
  22.3840910  41.8698450  68.5409300  21.8351010  42.3167750  69.1852040
  23.0060170  41.3647700  69.0646970  14.2737640  38.2293820  85.2771090
  14.3142980  37.9307690  86.1856320  15.1283140  38.6301430  85.1178610
  18.0516030  40.8289370  70.4374600  18.4732450  40.6629240  71.2805990
  18.1766870  40.0189600  69.9429740  16.2143450  36.8085920  83.2445580
  15.6839910  36.3176870  82.6168920  16.8831520  37.2370120  82.7103510
  20.5643670  39.8526980  67.6851700  21.0849330  39.1376000  67.3192850
  21.2112070  40.4912850  67.9852210  25.1121510  41.2755380  83.0086770
  25.5262530  41.4300460  83.8577190  24.1772510  41.4010600  83.1712550
  16.7015750  33.7748290  83.3242870  16.6072620  33.1569040  82.5993740
  16.1213140  34.5014580  83.0972780  19.4677190  32.3321530  80.3570260
  19.0194490  32.3545790  79.5115810  18.8342390  31.9340550  80.9540560
  19.8736740  41.2275860  80.9782700  20.2924850  42.0708590  80.8058940
  18.9545370  41.3647900  80.7489480  22.2100640  38.9592040  82.3620540
  22.3296850  38.3633180  83.1015380  23.0694640  38.9961730  81.9421840
  24.5488540  39.5129230  80.9383050  24.0223760  40.0371850  80.3348190
  24.8919880  40.1456620  81.5692780  16.9474930  36.9022600  67.3832760
  16.7463990  36.0389960  67.7446100  16.7766980  36.8155960  66.4454360
  17.7244160  47.5328870  82.0940430  17.1865250  48.2574930  81.7749130
  17.9778120  47.0559210  81.3037770  18.9769410  35.5013390  83.6196360
  19.5669100  35.1929240  84.3074180  18.1589650  35.0293140  83.7756260
  23.7962840  35.1179200  83.8529380  23.1078360  34.4560740  83.7879370
  24.5168860  34.6717470  84.2977840  24.4263240  31.7130830  69.9119640
  24.7065530  30.8698730  70.2679060  23.6528970  31.9453940  70.4258390
  15.7457730  34.0023220  67.3710640  16.0483630  34.0090650  66.4629790
  16.4852320  33.6521080  67.8678300  20.5806370  48.7680080  82.3527080
  20.5065070  49.6715220  82.6599450  19.6785210  48.4491980  82.3249150
  18.9642660  32.9457840  68.3566840  18.6164660  32.2681830  67.7769290
  19.1655430  32.4847350  69.1710230  21.1291700  47.9338590  69.9753440
  22.0242490  48.2723560  69.9972200  21.1609330  47.2118000  69.3477720
  14.7687860  43.3065640  68.2040440  15.2062730  43.8495310  68.8598020
  15.2535590  42.4812590  68.2136780  11.9833660  46.0954670  75.6560700
  12.3136670  45.2275730  75.4239340  12.4124660  46.3013190  76.4865660
  16.5795580  44.4263680  73.3162670  16.2791120  44.3028650  74.2166580
  16.4733070  43.5672270  72.9078400  12.4723870  46.9625260  78.3942330
  12.0354860  47.1426060  79.2266480  13.0401550  47.7199880  78.2524050
  28.1086050  46.4642260  82.6819640  27.5088040  46.5234820  81.9383560
  28.2379950  45.5247240  82.8116490  28.8043960  40.9507560  70.5223550
  29.5662870  41.5204210  70.6283240  28.8198330  40.3834760  71.2931860
  12.3048300  39.4745490  74.7531210  11.6497140  39.2057130  74.1090910
  13.1426250  39.3649970  74.3033190  25.2538740  34.2686780  68.9749700
  25.6723620  34.0817760  68.1346360  24.9474800  33.4165830  69.2852630
  13.3424230  39.8598060  79.2934550  13.7097270  39.7725460  80.1730570
  12.7735050  39.0964610  79.1941410  28.1428090  38.3282440  82.3065020
  27.9114180  38.0995190  81.4062970  28.4032640  39.2481990  82.2609910
  12.8940230  36.7707150  83.1992970  11.9996280  36.7373910  83.5386680
  13.4337780  36.9693940  83.9644220  26.5816160  33.5538870  85.0844720
  27.4586340  33.5622270  85.4678720  26.5937000  32.8169710  84.4737070
  11.5186380  36.6844420  70.6956540  10.6150460  36.9474620  70.5208200
  12.0027000  36.9555590  69.9156500  28.0279430  37.4068410  75.9732740
  28.5516910  36.9131060  75.3422910  28.6138850  37.5418770  76.7180310
  28.2069150  37.4908280  79.4952290  27.2571860  37.4571820  79.6097280
  28.3882160  38.4008390  79.2602060  14.0613590  35.7409960  68.6050920
  14.7705290  35.3193180  68.1198200  13.3453530  35.8085190  67.9734270
  13.7087750  31.7949290  67.6453570  14.4315880  32.3358230  67.9634790
  13.9812270  31.5212710  66.7695110  27.5179400  36.6641760  71.9125150
  28.0138520  36.4312630  72.6974030  27.3195470  35.8253600  71.4962790
  13.3979940  31.0455480  77.5476190  14.0456130  30.4952860  77.1071350
  13.8181780  31.2998630  78.3692000  28.9466560  35.3002710  74.4462830
  28.8365840  35.1458750  75.3845100  29.7074150  34.7723650  74.2038240
  27.2932280  31.2396840  80.9045830  27.9304500  31.8530980  81.2705020
  27.4407170  31.2757500  79.9595060  29.8356830  33.1310630  67.6868970
  30.7606140  32.9991810  67.4787260  29.8132620  33.2103450  68.6405420
  29.9095320  33.9021290  70.3125680  29.1146820  33.8366410  70.8418590
  30.1138600  34.8371930  70.3011030  13.1511940  31.2011150  80.2901510
  12.8026760  31.6574970  81.0559690  12.8199640  30.3068280  80.3723940
  14.7576310  44.3730750  84.4554700  14.7145940  44.0023660  85.3369160
  14.8887320  45.3108320  84.5956520  18.4582340  45.9290340  80.0564420
  18.2173700  46.1964900  79.1694940  19.3984980  46.0996070  80.1115280
  20.6636760  32.3923030  83.8120930  20.6025650  32.9844860  84.5616340
  21.6037140  32.2848990  83.6671190  23.3011320  32.0493090  83.4513220
  23.9151730  32.3672380  82.7894300  23.8460880  31.5641680  84.0709080
  13.8232580  30.7287350  83.5652280  14.3715570  30.5475400  82.8018390
  13.8887890  29.9381460  84.1008590  14.5964340  47.3193000  81.5752480
  14.0024660  47.1877700  82.3142520  14.5888180  46.4831140  81.1094580
  24.0419360  30.6125230  79.7782510  23.1679200  30.9460340  79.5755440
  23.9330110  30.1398410  80.6034380  24.9491340  32.8196100  81.1624230
  24.6204700  32.0047860  80.7825960  25.8973640  32.7765910  81.0389920
  14.2276570  44.6851380  80.5260520  13.5010630  44.0656670  80.4586470
  14.2885720  45.0791990  79.6558600  17.8321670  46.8996380  77.3109930
  18.3486690  46.2883740  76.7858190  18.4819050  47.4025160  77.8020940
  20.5717170  47.7904870  78.1378910  20.8594980  47.5359170  77.2611920
  21.0840390  47.2382230  78.7284480  21.7894180  31.5295070  78.7175420
  21.0065970  32.0040570  78.9972180  21.4957110  30.6249900  78.6088600
  26.3415250  32.2318170  76.7624510  26.7823340  32.1763270  75.9146110
  26.0722840  33.1476180  76.8334690  28.2053820  31.8633410  74.7733330
  28.1442220  30.9194630  74.6264350  28.9845850  31.9713500  75.3186790
  12.5106570  48.0025770  73.7357280  12.3428610  47.3696450  74.4339170
  11.6441080  48.2085170  73.3851470  13.1334590  31.8342550  71.2389140
  13.8913950  31.9471430  70.6653170  12.6711760  32.6711750  71.1932570
  19.6748400  33.9481820  74.2291450  18.8622910  33.5738710  73.8887330
  20.1790040  33.1926900  74.5312640  24.1773380  30.6124270  75.4674520
  24.7802750  31.1844480  75.9423040  23.4366370  31.1763710  75.2448420
  27.3207980  31.0145830  70.7414800  27.5158610  31.9129280  71.0082230
  26.5337850  30.7832910  71.2347750  14.1169270  46.6959000  71.1807420
  13.5916890  47.0767030  70.4769380  14.0413850  47.3209770  71.9017130
  15.5059740  32.3606600  69.7791110  16.0352500  31.5736400  69.6499060
  16.1388060  33.0397790  70.0126640  17.6997580  32.0981740  72.8336500
  17.0700320  31.3969050  73.0006630  17.1602720  32.8585870  72.6169660
  17.8253140  31.3765720  85.2688990  17.5437410  31.8799320  84.5049810
  18.2072840  30.5787470  84.9031120  16.7162240  48.6441380  70.0556670
  17.4481060  48.3600660  69.5080560  16.9755910  48.4054660  70.9456050
  15.8777030  44.7606110  70.0603000  15.2485910  45.2291210  70.6088830
  15.9924860  43.9155330  70.4949190  24.4268600  30.7919300  85.8469460
  24.3134050  31.1113910  86.7420980  25.2438340  31.1931810  85.5506740
  27.2067090  47.9390830  85.3288150  27.9992410  47.4440060  85.1214110
  27.5000240  48.6180970  85.9363760  23.3326750  38.8111770  56.2104200
  23.2520800  37.8966380  55.9395910  22.9191170  39.3078840  55.5043910
  21.4644790  40.5890790  58.0913470  20.6886890  40.1091230  58.3812040
  22.1157720  39.9096440  57.9169630  15.4810620  40.9010600  58.9689230
  14.6495500  40.6459310  59.3685740  16.0891600  40.9721370  59.7047150
  25.4852220  44.9950980  56.8712600  25.0233750  44.2238220  57.1999770
  26.2977770  45.0217050  57.3765050  15.4611880  44.9350690  59.1647250
  15.7639920  44.0448430  58.9857470  16.2055470  45.4920910  58.9369500
  13.8902570  35.8612490  52.7531620  13.0019270  36.2028460  52.6511500
  14.1743760  35.6612810  51.8612450  11.8535580  38.4618140  58.6371320
  12.4251690  37.6940340  58.6374960  11.8537120  38.7606900  57.7277930
  21.7115530  47.2808990  56.4916590  21.0926970  47.7366490  55.9211030
  22.5667310  47.4360450  56.0906290  20.9053780  43.2647980  58.0983630
  20.8362060  42.3237920  57.9372760  21.6673640  43.3549390  58.6706200
  13.0960450  33.8702500  60.4240250  12.9163290  32.9728250  60.7043010
  12.6940530  34.4174370  61.0987200  21.9358950  36.0718360  58.3252560
  22.3123770  35.1990240  58.2126230  21.8378460  36.4077060  57.4343000
  16.0663960  34.4443990  53.7870000  16.1730710  35.3447720  54.0938760
  15.1556320  34.3961960  53.4964650  25.7183070  33.5668800  55.2580900
  26.5392690  33.0765370  55.3006380  25.7517150  34.1566460  56.0112740
  13.7147120  36.3663000  59.0322590  14.3957230  36.6301370  59.6509990
  13.3995170  35.5263870  59.3660600  17.9071690  37.4130360  58.1195180
  18.4149910  37.9111330  58.7600200  18.4384930  36.6365560  57.9434540
  16.1907790  32.0528920  62.3858600  16.1926230  32.5701310  61.5804500
  15.3612100  31.5759100  62.3628530  22.5778880  42.1648230  53.8848500
  21.9596150  42.6297680  53.3211220  23.0902130  42.8575710  54.3018010
  17.4410640  41.6924100  60.5632100  17.1080020  42.3193020  61.2053170
  17.6177320  42.2185980  59.7833770  25.9544550  35.5069180  58.0308440
  25.2500120  35.7954070  58.6111550  26.3156710  36.3169290  57.6708000
  15.8723120  33.7638880  60.3929050  16.2139930  34.6080930  60.0982920
  14.9338930  33.9122620  60.5094390  16.6529740  43.6604900  62.3781280
  17.2703740  44.3355980  62.0965730  15.7922860  44.0692880  62.2868780
  11.9462080  42.8504760  51.2588130  11.5690060  43.3391860  50.5273030
  12.2035150  43.5230040  51.8894660  27.5707330  45.1244310  60.2935920
  26.8870850  45.7943420  60.2852590  28.1101620  45.3224960  59.5280780
  29.0231470  34.9523970  58.4217650  28.0756380  34.9862950  58.5533080
  29.3481460  35.7662920  58.8067010  19.5551010  31.2521150  56.7173640
  19.8625990  30.6968040  56.0009140  18.6251710  31.3865610  56.5346630
  25.1066070  46.9688440  59.0081100  25.1193230  46.5650730  58.1403360
  24.5541290  47.7435730  58.9042530  21.9431770  39.3169980  53.4533760
  21.0161050  39.2507360  53.6822230  22.0956590  40.2550110  53.3389000
  21.9300850  35.5886980  50.4500920  20.9904520  35.7500940  50.5353380
  22.2484110  36.3072660  49.9036910  17.5488410  39.8434720  56.2353490
  17.1445410  39.1311970  55.7399390  17.6351530  39.4987960  57.1241530
  18.0170110  43.5302280  58.3992700  17.7198400  42.9247750  57.7200480
  18.9669930  43.5679590  58.2882060  16.2617030  36.6177930  60.0152530
  16.8131620  36.7273270  59.2405780  16.7760540  36.9915530  60.7307760
  26.1055720  47.1034150  62.0615800  25.6286280  47.9106340  61.8688410
  25.4217510  46.4512480  62.2142010  17.1088540  43.2683970  65.0500500
  16.2117070  43.4923940  65.2973900  17.1341410  43.3918910  64.1011900
  24.1493760  40.1177090  50.9641760  24.5887040  39.2799520  50.8179580
  24.8622180  40.7506490  51.0505900  15.9359760  40.1397290  63.6257870
  15.7967530  41.0120090  63.9945270  15.0541120  39.7970100  63.4805810
  22.2589140  45.0573160  54.9323000  22.6985050  45.7997490  54.5178390
  22.1976030  45.2999730  55.8561960  17.7340110  46.0818990  65.8343020
  17.7055540  46.4861940  64.9671450  17.5705080  45.1529350  65.6714620
  27.7310900  31.3719900  49.2782800  27.4183560  31.4646730  50.1781870
  28.4923370  31.9500930  49.2280230  14.2493040  38.7379700  53.7360140
  14.1290640  39.4641790  53.1241410  13.9393930  37.9682610  53.2588050
  11.8878410  41.9094840  59.5428780  11.9658830  42.0443610  58.5984500
  12.5020090  41.2010730  59.7356900  13.1326040  43.6095030  55.9534960
  12.7254120  43.7509620  55.0988560  14.0239050  43.3255190  55.7506170
  24.9259320  48.0442280  52.2886010  24.7660460  47.7545220  53.1867840
  24.7606030  47.2682410  51.7531240  17.4047700  47.8240810  54.0657630
  17.2290180  46.9076350  53.8525430  16.5503440  48.1828100  54.3055430
  24.6285450  45.5529840  50.8484010  23.9350610  45.5507130  50.1886290
  25.3708310  45.1289160  50.4178180  24.1935380  47.1792550  54.9232500
  24.6492330  46.3981930  55.2371120  24.5327900  47.8899370  55.4673680
  11.9437930  42.9509010  62.0823240  12.1068970  42.4814370  61.2642610
  12.4090380  42.4432570  62.7472080  16.7156700  32.0814770  57.1183810
  16.2724850  32.8624310  56.7868330  17.2741690  32.4044660  57.8254750
  21.0026510  34.9483290  62.7219130  20.5405880  35.1566310  63.5339070
  20.6004620  34.1342640  62.4189800  23.0980730  37.6693990  65.9514580
  23.4234140  36.8357740  65.6116810  23.8861060  38.1922510  66.0992910
  19.8315520  31.7025470  51.9989640  19.2069700  31.6985340  52.7242950
  19.7445640  30.8356430  51.6025610  18.7532600  32.6262100  58.9773410
  19.0504930  33.5324930  58.8965430  19.3018160  32.1380880  58.3632980
  16.5070920  37.2048340  54.8465060  16.2811840  36.9885510  55.7511680
  15.7263450  37.6376800  54.5011030  23.7368680  37.2111710  53.4455710
  23.1377570  37.9347510  53.2619330  24.2848290  37.1488490  52.6632160
  18.9470130  38.1033920  65.5125330  18.8513730  37.1628650  65.3625730
  19.7902110  38.3248990  65.1173400  22.3433550  35.8475250  55.4758990
  22.7363120  36.1647450  54.6627680  22.7050400  34.9687130  55.5903510
  14.0780670  34.5147590  63.6659110  13.6844060  35.3622800  63.8731890
  13.3899070  33.8773960  63.8567750  20.6525720  34.5982560  66.7355850
  19.9624040  34.4054760  67.3701940  21.3958020  34.8817200  67.2680150
  11.3797720  32.4376050  57.6989190  11.0910770  33.0078910  58.4114170
  12.1243480  31.9580500  58.0620420  11.5667950  36.3796170  48.9091910
  11.4842620  37.3226930  49.0506900  11.2151010  36.2371080  48.0304260
  19.3666080  35.1135200  57.9762260  19.3702140  34.6725150  57.1266800
  20.2617200  35.4352530  58.0834080  15.2168460  34.9961690  56.9356470
  14.8768510  35.4736920  57.6923520  14.4545780  34.5426810  56.5757570
  19.4286230  36.1147280  50.9669020  19.5499050  36.0733760  51.9154840
  19.0434740  36.9771430  50.8115750  23.3914600  33.8914680  58.9832710
  23.4087340  34.3423330  59.8274560  23.1430180  32.9920320  59.1966150
  18.4407730  38.4248420  50.3652320  17.8724630  37.9766670  49.7388230
  19.1496730  38.7841200  49.8317470  26.8185350  31.3046860  64.8219090
  27.1431120  30.5736520  65.3477070  26.8541860  30.9860500  63.9200080
  13.5176910  42.3260440  64.2419050  13.1331700  41.6854110  64.8402010
  13.8289100  43.0296560  64.8113780  19.6674050  39.1736980  59.7227670
  20.0344180  38.6995550  60.4689010  19.4779110  40.0478550  60.0636010
  12.5314540  33.9180670  55.8521140  12.2461460  33.5536340  56.6899760
  12.4693400  33.1861130  55.2384280  17.4573420  38.2145620  62.0411880
  17.1530490  39.0937600  62.2662240  18.4119880  38.2745410  62.0769320
  15.9855210  42.4206610  52.6378730  15.2117470  41.8804230  52.4777450
  16.7149840  41.9013220  52.2996490  22.2053130  32.8109930  52.5734510
  21.3917740  32.3123100  52.4979820  22.0115080  33.6508180  52.1570860
  22.1261990  41.4881030  64.3174120  22.0599300  40.5676700  64.0631710
  21.4967130  41.5856470  65.0318760  24.9201520  37.1829580  50.8696670
  25.8081140  37.4946810  50.6948010  24.8906610  36.3101830  50.4777250
  16.0292610  42.0886990  56.2757540  16.5471280  41.2855250  56.2214430
  15.5776630  42.0266130  57.1174370  20.9162110  43.3553270  51.5484840
  21.2577810  44.0995500  51.0528160  20.0874820  43.6684390  51.9109670
  13.5137150  39.0548360  63.1883240  13.1552090  39.7202210  63.7756580
  13.2191710  38.2231910  63.5595860  16.7150270  39.5132600  66.0722790
  16.4150410  39.6589780  65.1750610  17.4861510  38.9537890  65.9796180
  22.0578720  44.3101600  64.0677920  22.0723260  43.3782560  63.8496830
  21.3503820  44.3961360  64.7067690  27.1915790  38.4941420  50.3376530
  27.1079510  38.9255640  49.4872970  27.9109980  38.9539770  50.7703350
  23.7989520  42.6769110  56.9130350  24.1513340  42.0797240  56.2531720
  22.9151850  42.3513340  57.0838600  19.8852800  43.4366800  54.3200760
  20.5723930  43.9836010  54.7008350  19.0985220  43.9807530  54.3550370
  12.0245200  39.0539620  49.8117840  12.8940050  39.3364420  50.0953760
  11.5335520  39.8675490  49.6966650  19.1880010  40.4412830  53.9326120
  19.6442790  41.2518080  54.1586310  18.8368220  40.1235970  54.7644610
  21.4912620  45.9519170  61.1618420  22.1354840  46.1578550  61.8391840
  21.8542060  45.1907570  60.7089270  15.0891790  30.7850480  54.4048640
  14.9606420  30.7768380  55.3533560  14.2653810  31.1233570  54.0539650
  22.7644700  43.9551520  59.8795870  23.4066930  43.2544680  59.9928040
  23.2894050  44.7349960  59.6992760  26.6100420  44.2400140  49.6035010
  26.3838000  43.5230580  50.1959650  26.2196620  43.9912580  48.7656760
  24.5382320  44.7546420  63.0831930  24.8738560  45.3413110  63.7609850
  23.6182660  44.6239130  63.3129720  12.3916450  48.2667000  50.3779470
  12.7514090  48.8656340  49.7236740  12.2508790  48.8126890  51.1514500
  12.0885720  32.5441600  63.8655340  11.3744240  32.7438520  64.4707950
  12.5080760  31.7681170  64.2370140  12.3758310  46.5321860  64.8521870
  12.4849430  45.5916600  64.7117260  11.7238870  46.7976610  64.2035600
  20.3670900  44.8037750  66.2519990  20.0467770  44.0846990  66.7965680
  19.6929260  45.4792820  66.3256050  18.4085070  45.6498200  51.1953140
  18.3995170  46.3827890  50.5797650  17.4883430  45.4029780  51.2880100
  14.0091710  40.8713090  51.9399900  13.4019660  41.6111990  51.9495200
  14.4841060  40.9612450  51.1138100  26.9486530  33.9920850  52.4244350
  26.3199690  34.0966520  51.7102580  26.4538450  34.2117630  53.2138230
  21.3944670  45.7126440  49.8578330  21.4956650  45.5090430  48.9280310
  20.4946410  45.4584720  50.0626110  18.9170560  36.2706800  53.8402230
  18.2086710  36.7393140  54.2815840  19.2015040  35.6128810  54.4747420
  20.5426490  37.6903500  61.8394760  21.0411740  38.1649320  62.5046610
  20.6849440  36.7667020  62.0464790  22.9485990  32.9957460  55.2798020
  22.8253770  33.0143590  54.3307530  23.8970550  33.0436400  55.3996420
  20.0362780  48.2312760  54.5526000  20.2904280  48.1934150  53.6305370
  19.0875260  48.1046090  54.5454250  17.1205580  34.5791880  51.2152940
  17.9696110  35.0162030  51.1493130  16.7536850  34.8912140  52.0425000
  26.0415360  39.1504640  56.1284510  25.1005500  39.1654870  56.3032200
  26.3559430  38.3640600  56.5744810  16.0197000  40.8324240  49.6888470
  16.7860270  40.7205600  50.2513900  16.0971690  40.1362210  49.0365240
  14.7143760  38.2649310  50.3721360  14.7947350  37.3176820  50.4838760
  15.6063510  38.5956190  50.4782020  28.0440940  46.3213490  57.8038770
  28.1688360  47.1444660  58.2762580  28.9106500  46.1104220  57.4562920
  15.5158470  48.4144700  57.4755900  16.2520950  47.8660160  57.7464470
  15.8999390  49.2800710  57.3361890  12.4003950  44.4818270  53.3497410
  11.4743730  44.7239410  53.3402820  12.8660380  45.3092530  53.2282160
  14.5216750  47.5990770  66.6641480  15.3229480  47.9202820  67.0776880
  14.0068570  47.2386350  67.3861390  18.6260780  47.5875010  49.2981470
  19.4189390  47.8763840  48.8463260  18.1065130  47.1567180  48.6193950
  23.3581380  43.7070640  66.6116890  22.7519540  43.7302240  65.8712640
  23.0535490  42.9753680  67.1484140  24.7881750  47.4350930  65.2226300
  25.7403500  47.3508950  65.1726540  24.6409970  48.0992640  65.8960090
  27.6790950  46.8145140  50.7218210  27.3932460  46.4010280  49.9072390
  27.4810500  47.7432850  50.6018730  12.2414560  40.0864230  65.6077530
  12.7453580  39.5071510  66.1793760  11.5021980  40.3704460  66.1453900
  19.1438180  42.8078420  49.1623820  19.0388820  42.1930770  49.8885200
  18.9762400  42.2844310  48.3786830  19.2952500  41.4935220  65.1413050
  18.5298170  42.0620220  65.0567720  19.4768460  41.2011430  64.2481280
  22.3840910  41.8698450  49.7665810  21.8351010  42.3167750  50.4108550
  23.0060170  41.3647700  50.2903480  14.2737640  38.2293820  66.5027600
  14.3142980  37.9307690  67.4112830  15.1283140  38.6301430  66.3435120
  18.0516030  40.8289370  51.6631110  18.4732450  40.6629240  52.5062500
  18.1766870  40.0189600  51.1686250  16.2143450  36.8085920  64.4702090
  15.6839910  36.3176870  63.8425430  16.8831520  37.2370120  63.9360020
  20.5643670  39.8526980  48.9108210  21.0849330  39.1376000  48.5449360
  21.2112070  40.4912850  49.2108720  25.1121510  41.2755380  64.2343280
  25.5262530  41.4300460  65.0833700  24.1772510  41.4010600  64.3969060
  25.5843680  38.6151540  66.2382430  26.1664450  37.8603860  66.1502910
  25.7605450  39.1458980  65.4613910  16.7015750  33.7748290  64.5499380
  16.6072620  33.1569040  63.8250250  16.1213140  34.5014580  64.3229290
  19.4677190  32.3321530  61.5826770  19.0194490  32.3545790  60.7372320
  18.8342390  31.9340550  62.1797070  19.8736740  41.2275860  62.2039210
  20.2924850  42.0708590  62.0315450  18.9545370  41.3647900  61.9745990
  22.2100640  38.9592040  63.5877050  22.3296850  38.3633180  64.3271890
  23.0694640  38.9961730  63.1678350  16.9474930  36.9022600  48.6089270
  16.7463990  36.0389960  48.9702610  16.7766980  36.8155960  47.6710870
  17.7244160  47.5328870  63.3196940  17.1865250  48.2574930  63.0005640
  17.9778120  47.0559210  62.5294280  18.9769410  35.5013390  64.8452870
  19.5669100  35.1929240  65.5330690  18.1589650  35.0293140  65.0012770
  23.7962840  35.1179200  65.0785890  23.1078360  34.4560740  65.0135880
  24.5168860  34.6717470  65.5234350  24.4263240  31.7130830  51.1376150
  24.7065530  30.8698730  51.4935570  23.6528970  31.9453940  51.6514900
  15.7457730  34.0023220  48.5967150  16.0483630  34.0090650  47.6886300
  16.4852320  33.6521080  49.0934810  18.9642660  32.9457840  49.5823350
  18.6164660  32.2681830  49.0025800  19.1655430  32.4847350  50.3966740
  21.1291700  47.9338590  51.2009950  22.0242490  48.2723560  51.2228710
  21.1609330  47.2118000  50.5734230  14.7687860  43.3065640  49.4296950
  15.2062730  43.8495310  50.0854530  15.2535590  42.4812590  49.4393290
  11.9833660  46.0954670  56.8817210  12.3136670  45.2275730  56.6495850
  12.4124660  46.3013190  57.7122170  16.5795580  44.4263680  54.5419180
  16.2791120  44.3028650  55.4423090  16.4733070  43.5672270  54.1334910
  12.4723870  46.9625260  59.6198840  12.0354860  47.1426060  60.4522990
  13.0401550  47.7199880  59.4780560  28.1086050  46.4642260  63.9076150
  27.5088040  46.5234820  63.1640070  28.2379950  45.5247240  64.0373000
  12.3048300  39.4745490  55.9787720  11.6497140  39.2057130  55.3347420
  13.1426250  39.3649970  55.5289700  26.7937690  43.1894240  62.0052310
  25.9797530  43.6191400  62.2678100  27.2011890  43.8012650  61.3921360
  28.8563130  41.2441930  48.9052580  29.1311970  42.1520810  48.7771800
  28.6673870  41.1804460  49.8414570  25.2538740  34.2686780  50.2006210
  25.6723620  34.0817760  49.3602870  24.9474800  33.4165830  50.5109140
  13.3424230  39.8598060  60.5191060  13.7097270  39.7725460  61.3987080
  12.7735050  39.0964610  60.4197920  12.8940230  36.7707150  64.4249480
  11.9996280  36.7373910  64.7643190  13.4337780  36.9693940  65.1900730
  26.5816160  33.5538870  66.3101230  27.4586340  33.5622270  66.6935230
  26.5937000  32.8169710  65.6993580  11.5186380  36.6844420  51.9213050
  10.6150460  36.9474620  51.7464710  12.0027000  36.9555590  51.1413010
  28.0279430  37.4068410  57.1989250  28.5516910  36.9131060  56.5679420
  28.6138850  37.5418770  57.9436820  14.0613590  35.7409960  49.8307430
  14.7705290  35.3193180  49.3454710  13.3453530  35.8085190  49.1990780
  13.7087750  31.7949290  48.8710080  14.4315880  32.3358230  49.1891300
  13.9812270  31.5212710  47.9951620  27.5179400  36.6641760  53.1381660
  28.0138520  36.4312630  53.9230540  27.3195470  35.8253600  52.7219300
  13.3979940  31.0455480  58.7732700  14.0456130  30.4952860  58.3327860
  13.8181780  31.2998630  59.5948510  28.9466560  35.3002710  55.6719340
  28.8365840  35.1458750  56.6101610  29.7074150  34.7723650  55.4294750
  27.2932280  31.2396840  62.1302340  27.9304500  31.8530980  62.4961530
  27.4407170  31.2757500  61.1851570  29.8356830  33.1310630  48.9125480
  30.7606140  32.9991810  48.7043770  29.8132620  33.2103450  49.8661930
  29.9095320  33.9021290  51.5382190  29.1146820  33.8366410  52.0675100
  30.1138600  34.8371930  51.5267540  26.8513740  47.9412840  55.5320580
  27.4472810  47.6197410  54.8555000  27.1091890  47.4684660  56.3233850
  13.1511940  31.2011150  61.5158020  12.8026760  31.6574970  62.2816200
  12.8199640  30.3068280  61.5980450  14.7576310  44.3730750  65.6811210
  14.7145940  44.0023660  66.5625670  14.8887320  45.3108320  65.8213030
  18.4582340  45.9290340  61.2820930  18.2173700  46.1964900  60.3951450
  19.3984980  46.0996070  61.3371790  20.6636760  32.3923030  65.0377440
  20.6025650  32.9844860  65.7872850  21.6037140  32.2848990  64.8927700
  23.3011320  32.0493090  64.6769730  23.9151730  32.3672380  64.0150810
  23.8460880  31.5641680  65.2965590  13.8232580  30.7287350  64.7908790
  14.3715570  30.5475400  64.0274900  13.8887890  29.9381460  65.3265100
  14.5964340  47.3193000  62.8008990  14.0024660  47.1877700  63.5399030
  14.5888180  46.4831140  62.3351090  24.0419360  30.6125230  61.0039020
  23.1679200  30.9460340  60.8011950  23.9330110  30.1398410  61.8290890
  24.9491340  32.8196100  62.3880740  24.6204700  32.0047860  62.0082470
  25.8973640  32.7765910  62.2646430  14.2276570  44.6851380  61.7517030
  13.5010630  44.0656670  61.6842980  14.2885720  45.0791990  60.8815110
  17.8321670  46.8996380  58.5366440  18.3486690  46.2883740  58.0114700
  18.4819050  47.4025160  59.0277450  20.5717170  47.7904870  59.3635420
  20.8594980  47.5359170  58.4868430  21.0840390  47.2382230  59.9540990
  21.7894180  31.5295070  59.9431930  21.0065970  32.0040570  60.2228690
  21.4957110  30.6249900  59.8345110  26.3415250  32.2318170  57.9881020
  26.7823340  32.1763270  57.1402620  26.0722840  33.1476180  58.0591200
  28.2053820  31.8633410  55.9989840  28.1442220  30.9194630  55.8520860
  28.9845850  31.9713500  56.5443300  12.5106570  48.0025770  54.9613790
  12.3428610  47.3696450  55.6595680  11.6441080  48.2085170  54.6107980
  13.1334590  31.8342550  52.4645650  13.8913950  31.9471430  51.8909680
  12.6711760  32.6711750  52.4189080  19.6748400  33.9481820  55.4547960
  18.8622910  33.5738710  55.1143840  20.1790040  33.1926900  55.7569150
  24.1773380  30.6124270  56.6931030  24.7802750  31.1844480  57.1679550
  23.4366370  31.1763710  56.4704930  27.3207980  31.0145830  51.9671310
  27.5158610  31.9129280  52.2338740  26.5337850  30.7832910  52.4604260
  14.1169270  46.6959000  52.4063930  13.5916890  47.0767030  51.7025890
  14.0413850  47.3209770  53.1273640  15.5059740  32.3606600  51.0047620
  16.0352500  31.5736400  50.8755570  16.1388060  33.0397790  51.2383150
  17.6997580  32.0981740  54.0593010  17.0700320  31.3969050  54.2263140
  17.1602720  32.8585870  53.8426170  20.6389530  48.7120970  66.7303620
  21.5656840  48.4765240  66.7739580  20.6239960  49.5392970  66.2489650
  17.8253140  31.3765720  66.4945500  17.5437410  31.8799320  65.7306320
  18.2072840  30.5787470  66.1287630  16.7162240  48.6441380  51.2813180
  17.4481060  48.3600660  50.7337070  16.9755910  48.4054660  52.1712560
  15.8777030  44.7606110  51.2859510  15.2485910  45.2291210  51.8345340
  15.9924860  43.9155330  51.7205700  24.4268600  30.7919300  67.0725970
  24.3134050  31.1113910  67.9677490  25.2438340  31.1931810  66.7763250
  27.2067090  47.9390830  66.5544660  27.9992410  47.4440060  66.3470620
  27.5000240  48.6180970  67.1620270  23.3326750  38.8111770  37.4360710
  23.2520800  37.8966380  37.1652420  22.9191170  39.3078840  36.7300420
  21.4644790  40.5890790  39.3169980  20.6886890  40.1091230  39.6068550
  22.1157720  39.9096440  39.1426140  15.4810620  40.9010600  40.1945740
  14.6495500  40.6459310  40.5942250  16.0891600  40.9721370  40.9303660
  25.4852220  44.9950980  38.0969110  25.0233750  44.2238220  38.4256280
  26.2977770  45.0217050  38.6021560  15.4611880  44.9350690  40.3903760
  15.7639920  44.0448430  40.2113980  16.2055470  45.4920910  40.1626010
  13.8902570  35.8612490  33.9788130  13.0019270  36.2028460  33.8768010
  14.1743760  35.6612810  33.0868960  11.8535580  38.4618140  39.8627830
  12.4251690  37.6940340  39.8631470  11.8537120  38.7606900  38.9534440
  21.7115530  47.2808990  37.7173100  21.0926970  47.7366490  37.1467540
  22.5667310  47.4360450  37.3162800  20.9053780  43.2647980  39.3240140
  20.8362060  42.3237920  39.1629270  21.6673640  43.3549390  39.8962710
  13.0960450  33.8702500  41.6496760  12.9163290  32.9728250  41.9299520
  12.6940530  34.4174370  42.3243710  21.9358950  36.0718360  39.5509070
  22.3123770  35.1990240  39.4382740  21.8378460  36.4077060  38.6599510
  16.0663960  34.4443990  35.0126510  16.1730710  35.3447720  35.3195270
  15.1556320  34.3961960  34.7221160  25.7183070  33.5668800  36.4837410
  26.5392690  33.0765370  36.5262890  25.7517150  34.1566460  37.2369250
  13.7147120  36.3663000  40.2579100  14.3957230  36.6301370  40.8766500
  13.3995170  35.5263870  40.5917110  17.9071690  37.4130360  39.3451690
  18.4149910  37.9111330  39.9856710  18.4384930  36.6365560  39.1691050
  30.0082620  35.5835550  43.0481040  29.3034790  35.9717260  42.5296150
  30.2740540  36.2785840  43.6501970  16.1907790  32.0528920  43.6115110
  16.1926230  32.5701310  42.8061010  15.3612100  31.5759100  43.5885040
  22.5778880  42.1648230  35.1105010  21.9596150  42.6297680  34.5467730
  23.0902130  42.8575710  35.5274520  17.4410640  41.6924100  41.7888610
  17.1080020  42.3193020  42.4309680  17.6177320  42.2185980  41.0090280
  25.9544550  35.5069180  39.2564950  25.2500120  35.7954070  39.8368060
  26.3156710  36.3169290  38.8964510  15.8723120  33.7638880  41.6185560
  16.2139930  34.6080930  41.3239430  14.9338930  33.9122620  41.7350900
  16.6529740  43.6604900  43.6037790  17.2703740  44.3355980  43.3222240
  15.7922860  44.0692880  43.5125290  11.9462080  42.8504760  32.4844640
  11.5690060  43.3391860  31.7529540  12.2035150  43.5230040  33.1151170
  27.5707330  45.1244310  41.5192430  26.8870850  45.7943420  41.5109100
  28.1101620  45.3224960  40.7537290  29.0231470  34.9523970  39.6474160
  28.0756380  34.9862950  39.7789590  29.3481460  35.7662920  40.0323520
  19.5551010  31.2521150  37.9430150  19.8625990  30.6968040  37.2265650
  18.6251710  31.3865610  37.7603140  25.1066070  46.9688440  40.2337610
  25.1193230  46.5650730  39.3659870  24.5541290  47.7435730  40.1299040
  26.4011490  43.6904660  35.3227780  26.2907820  42.7478990  35.4477200
  26.3979740  44.0520300  36.2090540  24.5051510  41.8718280  41.5620220
  24.9220300  41.6578390  40.7273680  25.2291330  42.1291070  42.1328840
  21.9431770  39.3169980  34.6790270  21.0161050  39.2507360  34.9078740
  22.0956590  40.2550110  34.5645510  21.9300850  35.5886980  31.6757430
  20.9904520  35.7500940  31.7609890  22.2484110  36.3072660  31.1293420
  28.4513610  40.2705500  41.6536460  27.6232240  40.3398590  41.1786590
  29.0464090  40.8559810  41.1852290  25.9729060  40.8790280  35.1825520
  25.3541480  40.5409830  34.5351820  25.9553510  40.2350040  35.8904710
  25.4155620  37.0574820  42.5991330  25.0026800  37.8828530  42.8531320
  24.6831570  36.4719860  42.4067690  17.5488410  39.8434720  37.4610000
  17.1445410  39.1311970  36.9655900  17.6351530  39.4987960  38.3498040
  18.0170110  43.5302280  39.6249210  17.7198400  42.9247750  38.9456990
  18.9669930  43.5679590  39.5138570  16.2617030  36.6177930  41.2409040
  16.8131620  36.7273270  40.4662290  16.7760540  36.9915530  41.9564270
  26.1055720  47.1034150  43.2872310  25.6286280  47.9106340  43.0944920
  25.4217510  46.4512480  43.4398520  17.1088540  43.2683970  46.2757010
  16.2117070  43.4923940  46.5230410  17.1341410  43.3918910  45.3268410
  24.1493760  40.1177090  32.1898270  24.5887040  39.2799520  32.0436090
  24.8622180  40.7506490  32.2762410  15.9359760  40.1397290  44.8514380
  15.7967530  41.0120090  45.2201780  15.0541120  39.7970100  44.7062320
  22.2589140  45.0573160  36.1579510  22.6985050  45.7997490  35.7434900
  22.1976030  45.2999730  37.0818470  17.7340110  46.0818990  47.0599530
  17.7055540  46.4861940  46.1927960  17.5705080  45.1529350  46.8971130
  27.7310900  31.3719900  30.5039310  27.4183560  31.4646730  31.4038380
  28.4923370  31.9500930  30.4536740  14.2493040  38.7379700  34.9616650
  14.1290640  39.4641790  34.3497920  13.9393930  37.9682610  34.4844560
  29.6854930  46.8646090  48.3563700  30.1614650  47.3428980  49.0352780
  30.3062090  46.7963580  47.6309200  11.8878410  41.9094840  40.7685290
  11.9658830  42.0443610  39.8241010  12.5020090  41.2010730  40.9613410
  13.1326040  43.6095030  37.1791470  12.7254120  43.7509620  36.3245070
  14.0239050  43.3255190  36.9762680  29.0888180  44.0558940  45.5163710
  29.2151240  43.8170820  44.5980890  29.1309560  43.2243480  45.9885790
  22.9504920  47.7586940  44.0858520  23.4649590  47.6694950  44.8880950
  22.1074000  48.1046640  44.3786430  24.9259320  48.0442280  33.5142520
  24.7660460  47.7545220  34.4124350  24.7606030  47.2682410  32.9787750
  17.4047700  47.8240810  35.2914140  17.2290180  46.9076350  35.0781940
  16.5503440  48.1828100  35.5311940  24.6285450  45.5529840  32.0740520
  23.9350610  45.5507130  31.4142800  25.3708310  45.1289160  31.6434690
  24.1935380  47.1792550  36.1489010  24.6492330  46.3981930  36.4627630
  24.5327900  47.8899370  36.6930190  28.9412190  36.1091400  46.4813450
  28.3256460  36.6171070  45.9528910  28.6208610  35.2089730  46.4239390
  11.9437930  42.9509010  43.3079750  12.1068970  42.4814370  42.4899120
  12.4090380  42.4432570  43.9728590  16.7156700  32.0814770  38.3440320
  16.2724850  32.8624310  38.0124840  17.2741690  32.4044660  39.0511260
  21.0026510  34.9483290  43.9475640  20.5405880  35.1566310  44.7595580
  20.6004620  34.1342640  43.6446310  26.0031020  36.1692240  45.0772300
  25.1524610  35.8697990  45.3981370  25.8432810  36.4134250  44.1656120
  23.0980730  37.6693990  47.1771090  23.4234140  36.8357740  46.8373320
  23.8861060  38.1922510  47.3249420  19.8315520  31.7025470  33.2246150
  19.2069700  31.6985340  33.9499460  19.7445640  30.8356430  32.8282120
  18.7532600  32.6262100  40.2029920  19.0504930  33.5324930  40.1221940
  19.3018160  32.1380880  39.5889490  16.5070920  37.2048340  36.0721570
  16.2811840  36.9885510  36.9768190  15.7263450  37.6376800  35.7267540
  23.7368680  37.2111710  34.6712220  23.1377570  37.9347510  34.4875840
  24.2848290  37.1488490  33.8888670  18.9470130  38.1033920  46.7381840
  18.8513730  37.1628650  46.5882240  19.7902110  38.3248990  46.3429910
  22.3433550  35.8475250  36.7015500  22.7363120  36.1647450  35.8884190
  22.7050400  34.9687130  36.8160020  14.0780670  34.5147590  44.8915620
  13.6844060  35.3622800  45.0988400  13.3899070  33.8773960  45.0824260
  20.6525720  34.5982560  47.9612360  19.9624040  34.4054760  48.5958450
  21.3958020  34.8817200  48.4936660  11.3797720  32.4376050  38.9245700
  11.0910770  33.0078910  39.6370680  12.1243480  31.9580500  39.2876930
  11.5667950  36.3796170  30.1348420  11.4842620  37.3226930  30.2763410
  11.2151010  36.2371080  29.2560770  22.9288690  38.4381000  40.7966280
  22.1969810  38.9467810  41.1456380  22.5313030  37.6210980  40.4955060
  19.3666080  35.1135200  39.2018770  19.3702140  34.6725150  38.3523310
  20.2617200  35.4352530  39.3090590  15.2168460  34.9961690  38.1612980
  14.8768510  35.4736920  38.9180030  14.4545780  34.5426810  37.8014080
  19.4286230  36.1147280  32.1925530  19.5499050  36.0733760  33.1411350
  19.0434740  36.9771430  32.0372260  23.3914600  33.8914680  40.2089220
  23.4087340  34.3423330  41.0531070  23.1430180  32.9920320  40.4222660
  18.4407730  38.4248420  31.5908830  17.8724630  37.9766670  30.9644740
  19.1496730  38.7841200  31.0573980  26.8185350  31.3046860  46.0475600
  27.1431120  30.5736520  46.5733580  26.8541860  30.9860500  45.1456590
  13.5176910  42.3260440  45.4675560  13.1331700  41.6854110  46.0658520
  13.8289100  43.0296560  46.0370290  19.6674050  39.1736980  40.9484180
  20.0344180  38.6995550  41.6945520  19.4779110  40.0478550  41.2892520
  12.5314540  33.9180670  37.0777650  12.2461460  33.5536340  37.9156270
  12.4693400  33.1861130  36.4640790  17.4573420  38.2145620  43.2668390
  17.1530490  39.0937600  43.4918750  18.4119880  38.2745410  43.3025830
  15.9855210  42.4206610  33.8635240  15.2117470  41.8804230  33.7033960
  16.7149840  41.9013220  33.5253000  26.7443190  41.4171970  39.6561630
  27.4642310  41.9127260  39.2657740  26.5425010  40.7389860  39.0115500
  22.2053130  32.8109930  33.7991020  21.3917740  32.3123100  33.7236330
  22.0115080  33.6508180  33.3827370  22.1261990  41.4881030  45.5430630
  22.0599300  40.5676700  45.2888220  21.4967130  41.5856470  46.2575270
  24.9201520  37.1829580  32.0953180  25.8081140  37.4946810  31.9204520
  24.8906610  36.3101830  31.7033760  16.0292610  42.0886990  37.5014050
  16.5471280  41.2855250  37.4470940  15.5776630  42.0266130  38.3430880
  20.9162110  43.3553270  32.7741350  21.2577810  44.0995500  32.2784670
  20.0874820  43.6684390  33.1366180  13.5137150  39.0548360  44.4139750
  13.1552090  39.7202210  45.0013090  13.2191710  38.2231910  44.7852370
  16.7150270  39.5132600  47.2979300  16.4150410  39.6589780  46.4007120
  17.4861510  38.9537890  47.2052690  22.0578720  44.3101600  45.2934430
  22.0723260  43.3782560  45.0753340  21.3503820  44.3961360  45.9324200
  27.1915790  38.4941420  31.5633040  27.1079510  38.9255640  30.7129480
  27.9109980  38.9539770  31.9959860  28.2689930  40.9508940  44.6403010
  27.5438120  41.5437720  44.4432400  28.7965390  40.9432480  43.8416380
  28.2203040  45.3483680  34.2915170  27.5779200  44.6939300  34.5658890
  27.8333700  45.7538770  33.5155840  23.7989520  42.6769110  38.1386860
  24.1513340  42.0797240  37.4788230  22.9151850  42.3513340  38.3095110
  19.8852800  43.4366800  35.5457270  20.5723930  43.9836010  35.9264860
  19.0985220  43.9807530  35.5806880  12.0245200  39.0539620  31.0374350
  12.8940050  39.3364420  31.3210270  11.5335520  39.8675490  30.9223160
  19.1880010  40.4412830  35.1582630  19.6442790  41.2518080  35.3842820
  18.8368220  40.1235970  35.9901120  21.4912620  45.9519170  42.3874930
  22.1354840  46.1578550  43.0648350  21.8542060  45.1907570  41.9345780
  15.0891790  30.7850480  35.6305150  14.9606420  30.7768380  36.5790070
  14.2653810  31.1233570  35.2796160  22.7644700  43.9551520  41.1052380
  23.4066930  43.2544680  41.2184550  23.2894050  44.7349960  40.9249270
  26.6100420  44.2400140  30.8291520  26.3838000  43.5230580  31.4216160
  26.2196620  43.9912580  29.9913270  24.5382320  44.7546420  44.3088440
  24.8738560  45.3413110  44.9866360  23.6182660  44.6239130  44.5386230
  12.3916450  48.2667000  31.6035980  12.7514090  48.8656340  30.9493250
  12.2508790  48.8126890  32.3771010  12.0885720  32.5441600  45.0911850
  11.3744240  32.7438520  45.6964460  12.5080760  31.7681170  45.4626650
  26.1916670  42.1572080  32.4905680  25.9038370  42.6184770  33.2783560
  26.9868840  41.6969850  32.7589900  12.3758310  46.5321860  46.0778380
  12.4849430  45.5916600  45.9373770  11.7238870  46.7976610  45.4292110
  20.3670900  44.8037750  47.4776500  20.0467770  44.0846990  48.0222190
  19.6929260  45.4792820  47.5512560  18.4085070  45.6498200  32.4209650
  18.3995170  46.3827890  31.8054160  17.4883430  45.4029780  32.5136610
  14.0091710  40.8713090  33.1656410  13.4019660  41.6111990  33.1751710
  14.4841060  40.9612450  32.3394610  23.5824500  35.0363910  42.8413300
  23.9505320  34.2159120  43.1692870  22.7222700  35.0965800  43.2568950
  26.9486530  33.9920850  33.6500860  26.3199690  34.0966520  32.9359090
  26.4538450  34.2117630  34.4394740  21.3944670  45.7126440  31.0834840
  21.4956650  45.5090430  30.1536820  20.4946410  45.4584720  31.2882620
  18.9170560  36.2706800  35.0658740  18.2086710  36.7393140  35.5072350
  19.2015040  35.6128810  35.7003930  20.5426490  37.6903500  43.0651270
  21.0411740  38.1649320  43.7303120  20.6849440  36.7667020  43.2721300
  22.9485990  32.9957460  36.5054530  22.8253770  33.0143590  35.5564040
  23.8970550  33.0436400  36.6252930  20.0362780  48.2312760  35.7782510
  20.2904280  48.1934150  34.8561880  19.0875260  48.1046090  35.7710760
  17.1205580  34.5791880  32.4409450  17.9696110  35.0162030  32.3749640
  16.7536850  34.8912140  33.2681510  27.7493350  33.9071460  43.9079660
  27.2466950  34.6476860  44.2473470  28.5650010  34.2955460  43.5916450
  26.0415360  39.1504640  37.3541020  25.1005500  39.1654870  37.5288710
  26.3559430  38.3640600  37.8001320  16.0197000  40.8324240  30.9144980
  16.7860270  40.7205600  31.4770410  16.0971690  40.1362210  30.2621750
  14.7143760  38.2649310  31.5977870  14.7947350  37.3176820  31.7095270
  15.6063510  38.5956190  31.7038530  28.0440940  46.3213490  39.0295280
  28.1688360  47.1444660  39.5019090  28.9106500  46.1104220  38.6819430
  15.5158470  48.4144700  38.7012410  16.2520950  47.8660160  38.9720980
  15.8999390  49.2800710  38.5618400  12.4003950  44.4818270  34.5753920
  11.4743730  44.7239410  34.5659330  12.8660380  45.3092530  34.4538670
  14.5216750  47.5990770  47.8897990  15.3229480  47.9202820  48.3033390
  14.0068570  47.2386350  48.6117900  18.6260780  47.5875010  30.5237980
  19.4189390  47.8763840  30.0719770  18.1065130  47.1567180  29.8450460
  23.3581380  43.7070640  47.8373400  22.7519540  43.7302240  47.0969150
  23.0535490  42.9753680  48.3740650  24.7881750  47.4350930  46.4482810
  25.7403500  47.3508950  46.3983050  24.6409970  48.0992640  47.1216600
  27.6790950  46.8145140  31.9474720  27.3932460  46.4010280  31.1328900
  27.4810500  47.7432850  31.8275240  12.2414560  40.0864230  46.8334040
  12.7453580  39.5071510  47.4050270  11.5021980  40.3704460  47.3710410
  19.1438180  42.8078420  30.3880330  19.0388820  42.1930770  31.1141710
  18.9762400  42.2844310  29.6043340  19.2952500  41.4935220  46.3669560
  18.5298170  42.0620220  46.2824230  19.4768460  41.2011430  45.4737790
  22.3840910  41.8698450  30.9922320  21.8351010  42.3167750  31.6365060
  23.0060170  41.3647700  31.5159990  26.4375850  43.2240550  46.9244580
  27.1785320  43.5616310  46.4212040  25.6748530  43.3932610  46.3714350
  14.2737640  38.2293820  47.7284110  14.3142980  37.9307690  48.6369340
  15.1283140  38.6301430  47.5691630  18.0516030  40.8289370  32.8887620
  18.4732450  40.6629240  33.7319010  18.1766870  40.0189600  32.3942760
  16.2143450  36.8085920  45.6958600  15.6839910  36.3176870  45.0681940
  16.8831520  37.2370120  45.1616530  20.5643670  39.8526980  30.1364720
  21.0849330  39.1376000  29.7705870  21.2112070  40.4912850  30.4365230
  25.1121510  41.2755380  45.4599790  25.5262530  41.4300460  46.3090210
  24.1772510  41.4010600  45.6225570  25.5843680  38.6151540  47.4638940
  26.1664450  37.8603860  47.3759420  25.7605450  39.1458980  46.6870420
  16.7015750  33.7748290  45.7755890  16.6072620  33.1569040  45.0506760
  16.1213140  34.5014580  45.5485800  19.4677190  32.3321530  42.8083280
  19.0194490  32.3545790  41.9628830  18.8342390  31.9340550  43.4053580
  19.8736740  41.2275860  43.4295720  20.2924850  42.0708590  43.2571960
  18.9545370  41.3647900  43.2002500  22.2100640  38.9592040  44.8133560
  22.3296850  38.3633180  45.5528400  23.0694640  38.9961730  44.3934860
  24.5488540  39.5129230  43.3896070  24.0223760  40.0371850  42.7861210
  24.8919880  40.1456620  44.0205800  16.9474930  36.9022600  29.8345780
  16.7463990  36.0389960  30.1959120  16.7766980  36.8155960  28.8967380
  17.7244160  47.5328870  44.5453450  17.1865250  48.2574930  44.2262150
  17.9778120  47.0559210  43.7550790  18.9769410  35.5013390  46.0709380
  19.5669100  35.1929240  46.7587200  18.1589650  35.0293140  46.2269280
  23.7962840  35.1179200  46.3042400  23.1078360  34.4560740  46.2392390
  24.5168860  34.6717470  46.7490860  24.4263240  31.7130830  32.3632660
  24.7065530  30.8698730  32.7192080  23.6528970  31.9453940  32.8771410
  15.7457730  34.0023220  29.8223660  16.0483630  34.0090650  28.9142810
  16.4852320  33.6521080  30.3191320  20.5806370  48.7680080  44.8040100
  20.5065070  49.6715220  45.1112470  19.6785210  48.4491980  44.7762170
  18.9642660  32.9457840  30.8079860  18.6164660  32.2681830  30.2282310
  19.1655430  32.4847350  31.6223250  21.1291700  47.9338590  32.4266460
  22.0242490  48.2723560  32.4485220  21.1609330  47.2118000  31.7990740
  14.7687860  43.3065640  30.6553460  15.2062730  43.8495310  31.3111040
  15.2535590  42.4812590  30.6649800  11.9833660  46.0954670  38.1073720
  12.3136670  45.2275730  37.8752360  12.4124660  46.3013190  38.9378680
  16.5795580  44.4263680  35.7675690  16.2791120  44.3028650  36.6679600
  16.4733070  43.5672270  35.3591420  12.4723870  46.9625260  40.8455350
  12.0354860  47.1426060  41.6779500  13.0401550  47.7199880  40.7037070
  28.1086050  46.4642260  45.1332660  27.5088040  46.5234820  44.3896580
  28.2379950  45.5247240  45.2629510  29.3487500  44.2060080  30.4702370
  28.5180460  44.2736730  30.9409600  29.5259330  45.0964200  30.1669230
  28.8043960  40.9507560  32.9736570  29.5662870  41.5204210  33.0796260
  28.8198330  40.3834760  33.7444880  12.3048300  39.4745490  37.2044230
  11.6497140  39.2057130  36.5603930  13.1426250  39.3649970  36.7546210
  29.8103930  41.8057660  37.8178500  30.1812760  41.0224980  37.4114470
  30.4505860  42.4946760  37.6395800  26.7937690  43.1894240  43.2308820
  25.9797530  43.6191400  43.4934610  27.2011890  43.8012650  42.6177870
  28.8563130  41.2441930  30.1309090  29.1311970  42.1520810  30.0028310
  28.6673870  41.1804460  31.0671080  25.2538740  34.2686780  31.4262720
  25.6723620  34.0817760  30.5859380  24.9474800  33.4165830  31.7365650
  28.7528470  39.1810920  35.1238520  28.3772070  38.4138850  34.6919810
  28.0231590  39.5633620  35.6113450  13.3424230  39.8598060  41.7447570
  13.7097270  39.7725460  42.6243590  12.7735050  39.0964610  41.6454430
  28.1428090  38.3282440  44.7578040  27.9114180  38.0995190  43.8575990
  28.4032640  39.2481990  44.7122930  12.8940230  36.7707150  45.6505990
  11.9996280  36.7373910  45.9899700  13.4337780  36.9693940  46.4157240
  26.5816160  33.5538870  47.5357740  27.4586340  33.5622270  47.9191740
  26.5937000  32.8169710  46.9250090  11.5186380  36.6844420  33.1469560
  10.6150460  36.9474620  32.9721220  12.0027000  36.9555590  32.3669520
  28.0279430  37.4068410  38.4245760  28.5516910  36.9131060  37.7935930
  28.6138850  37.5418770  39.1693330  28.2069150  37.4908280  41.9465310
  27.2571860  37.4571820  42.0610300  28.3882160  38.4008390  41.7115080
  14.0613590  35.7409960  31.0563940  14.7705290  35.3193180  30.5711220
  13.3453530  35.8085190  30.4247290  13.7087750  31.7949290  30.0966590
  14.4315880  32.3358230  30.4147810  13.9812270  31.5212710  29.2208130
  27.5179400  36.6641760  34.3638170  28.0138520  36.4312630  35.1487050
  27.3195470  35.8253600  33.9475810  13.3979940  31.0455480  39.9989210
  14.0456130  30.4952860  39.5584370  13.8181780  31.2998630  40.8205020
  28.9466560  35.3002710  36.8975850  28.8365840  35.1458750  37.8358120
  29.7074150  34.7723650  36.6551260  27.2932280  31.2396840  43.3558850
  27.9304500  31.8530980  43.7218040  27.4407170  31.2757500  42.4108080
  29.8356830  33.1310630  30.1381990  30.7606140  32.9991810  29.9300280
  29.8132620  33.2103450  31.0918440  29.9095320  33.9021290  32.7638700
  29.1146820  33.8366410  33.2931610  30.1138600  34.8371930  32.7524050
  26.8513740  47.9412840  36.7577090  27.4472810  47.6197410  36.0811510
  27.1091890  47.4684660  37.5490360  13.1511940  31.2011150  42.7414530
  12.8026760  31.6574970  43.5072710  12.8199640  30.3068280  42.8236960
  14.7576310  44.3730750  46.9067720  14.7145940  44.0023660  47.7882180
  14.8887320  45.3108320  47.0469540  18.4582340  45.9290340  42.5077440
  18.2173700  46.1964900  41.6207960  19.3984980  46.0996070  42.5628300
  20.6636760  32.3923030  46.2633950  20.6025650  32.9844860  47.0129360
  21.6037140  32.2848990  46.1184210  23.3011320  32.0493090  45.9026240
  23.9151730  32.3672380  45.2407320  23.8460880  31.5641680  46.5222100
  29.7186500  47.9484720  43.3088080  29.2244780  48.3453590  42.5915210
  29.1099790  47.3233930  43.7025360  13.8232580  30.7287350  46.0165300
  14.3715570  30.5475400  45.2531410  13.8887890  29.9381460  46.5521610
  14.5964340  47.3193000  44.0265500  14.0024660  47.1877700  44.7655540
  14.5888180  46.4831140  43.5607600  24.0419360  30.6125230  42.2295530
  23.1679200  30.9460340  42.0268460  23.9330110  30.1398410  43.0547400
  24.9491340  32.8196100  43.6137250  24.6204700  32.0047860  43.2338980
  25.8973640  32.7765910  43.4902940  27.4025950  48.5908140  40.5874820
  26.9428920  49.3423950  40.2132840  26.7738410  47.8714610  40.5289620
  14.2276570  44.6851380  42.9773540  13.5010630  44.0656670  42.9099490
  14.2885720  45.0791990  42.1071620  17.8321670  46.8996380  39.7622950
  18.3486690  46.2883740  39.2371210  18.4819050  47.4025160  40.2533960
  20.5717170  47.7904870  40.5891930  20.8594980  47.5359170  39.7124940
  21.0840390  47.2382230  41.1797500  21.7894180  31.5295070  41.1688440
  21.0065970  32.0040570  41.4485200  21.4957110  30.6249900  41.0601620
  26.3415250  32.2318170  39.2137530  26.7823340  32.1763270  38.3659130
  26.0722840  33.1476180  39.2847710  28.2053820  31.8633410  37.2246350
  28.1442220  30.9194630  37.0777370  28.9845850  31.9713500  37.7699810
  12.5106570  48.0025770  36.1870300  12.3428610  47.3696450  36.8852190
  11.6441080  48.2085170  35.8364490  13.1334590  31.8342550  33.6902160
  13.8913950  31.9471430  33.1166190  12.6711760  32.6711750  33.6445590
  19.6748400  33.9481820  36.6804470  18.8622910  33.5738710  36.3400350
  20.1790040  33.1926900  36.9825660  24.1773380  30.6124270  37.9187540
  24.7802750  31.1844480  38.3936060  23.4366370  31.1763710  37.6961440
  27.3207980  31.0145830  33.1927820  27.5158610  31.9129280  33.4595250
  26.5337850  30.7832910  33.6860770  14.1169270  46.6959000  33.6320440
  13.5916890  47.0767030  32.9282400  14.0413850  47.3209770  34.3530150
  15.5059740  32.3606600  32.2304130  16.0352500  31.5736400  32.1012080
  16.1388060  33.0397790  32.4639660  17.6997580  32.0981740  35.2849520
  17.0700320  31.3969050  35.4519650  17.1602720  32.8585870  35.0682680
  20.6389530  48.7120970  47.9560130  21.5656840  48.4765240  47.9996090
  20.6239960  49.5392970  47.4746160  28.8734590  48.2546540  34.9534380
  29.0486780  47.5684280  34.3095300  28.1756160  48.7793590  34.5611050
  17.8253140  31.3765720  47.7202010  17.5437410  31.8799320  46.9562830
  18.2072840  30.5787470  47.3544140  16.7162240  48.6441380  32.5069690
  17.4481060  48.3600660  31.9593580  16.9755910  48.4054660  33.3969070
  15.8777030  44.7606110  32.5116020  15.2485910  45.2291210  33.0601850
  15.9924860  43.9155330  32.9462210  24.4268600  30.7919300  48.2982480
  24.3134050  31.1113910  49.1934000  25.2438340  31.1931810  48.0019760
  27.2067090  47.9390830  47.7801170  27.9992410  47.4440060  47.5727130
  27.5000240  48.6180970  48.3876780  23.3326750  38.8111770  18.6617220
  23.2520800  37.8966380  18.3908930  22.9191170  39.3078840  17.9556930
  21.4644790  40.5890790  20.5426490  20.6886890  40.1091230  20.8325060
  22.1157720  39.9096440  20.3682650  15.4810620  40.9010600  21.4202250
  14.6495500  40.6459310  21.8198760  16.0891600  40.9721370  22.1560170
  25.4852220  44.9950980  19.3225620  25.0233750  44.2238220  19.6512790
  26.2977770  45.0217050  19.8278070  15.4611880  44.9350690  21.6160270
  15.7639920  44.0448430  21.4370490  16.2055470  45.4920910  21.3882520
  13.8902570  35.8612490  15.2044640  13.0019270  36.2028460  15.1024520
  14.1743760  35.6612810  14.3125470  11.8535580  38.4618140  21.0884340
  12.4251690  37.6940340  21.0887980  11.8537120  38.7606900  20.1790950
  21.7115530  47.2808990  18.9429610  21.0926970  47.7366490  18.3724050
  22.5667310  47.4360450  18.5419310  20.9053780  43.2647980  20.5496650
  20.8362060  42.3237920  20.3885780  21.6673640  43.3549390  21.1219220
  13.0960450  33.8702500  22.8753270  12.9163290  32.9728250  23.1556030
  12.6940530  34.4174370  23.5500220  21.9358950  36.0718360  20.7765580
  22.3123770  35.1990240  20.6639250  21.8378460  36.4077060  19.8856020
  16.0663960  34.4443990  16.2383020  16.1730710  35.3447720  16.5451780
  15.1556320  34.3961960  15.9477670  25.7183070  33.5668800  17.7093920
  26.5392690  33.0765370  17.7519400  25.7517150  34.1566460  18.4625760
  13.7147120  36.3663000  21.4835610  14.3957230  36.6301370  22.1023010
  13.3995170  35.5263870  21.8173620  17.9071690  37.4130360  20.5708200
  18.4149910  37.9111330  21.2113220  18.4384930  36.6365560  20.3947560
  30.0082620  35.5835550  24.2737550  29.3034790  35.9717260  23.7552660
  30.2740540  36.2785840  24.8758480  16.1907790  32.0528920  24.8371620
  16.1926230  32.5701310  24.0317520  15.3612100  31.5759100  24.8141550
  22.5778880  42.1648230  16.3361520  21.9596150  42.6297680  15.7724240
  23.0902130  42.8575710  16.7531030  17.4410640  41.6924100  23.0145120
  17.1080020  42.3193020  23.6566190  17.6177320  42.2185980  22.2346790
  25.9544550  35.5069180  20.4821460  25.2500120  35.7954070  21.0624570
  26.3156710  36.3169290  20.1221020  15.8723120  33.7638880  22.8442070
  16.2139930  34.6080930  22.5495940  14.9338930  33.9122620  22.9607410
  16.6529740  43.6604900  24.8294300  17.2703740  44.3355980  24.5478750
  15.7922860  44.0692880  24.7381800  11.9462080  42.8504760  13.7101150
  11.5690060  43.3391860  12.9786050  12.2035150  43.5230040  14.3407680
  27.5707330  45.1244310  22.7448940  26.8870850  45.7943420  22.7365610
  28.1101620  45.3224960  21.9793800  29.0231470  34.9523970  20.8730670
  28.0756380  34.9862950  21.0046100  29.3481460  35.7662920  21.2580030
  19.5551010  31.2521150  19.1686660  19.8625990  30.6968040  18.4522160
  18.6251710  31.3865610  18.9859650  25.1066070  46.9688440  21.4594120
  25.1193230  46.5650730  20.5916380  24.5541290  47.7435730  21.3555550
  26.4011490  43.6904660  16.5484290  26.2907820  42.7478990  16.6733710
  26.3979740  44.0520300  17.4347050  24.5051510  41.8718280  22.7876730
  24.9220300  41.6578390  21.9530190  25.2291330  42.1291070  23.3585350
  21.9431770  39.3169980  15.9046780  21.0161050  39.2507360  16.1335250
  22.0956590  40.2550110  15.7902020  21.9300850  35.5886980  12.9013940
  20.9904520  35.7500940  12.9866400  22.2484110  36.3072660  12.3549930
  28.4513610  40.2705500  22.8792970  27.6232240  40.3398590  22.4043100
  29.0464090  40.8559810  22.4108800  25.9729060  40.8790280  16.4082030
  25.3541480  40.5409830  15.7608330  25.9553510  40.2350040  17.1161220
  25.4155620  37.0574820  23.8247840  25.0026800  37.8828530  24.0787830
  24.6831570  36.4719860  23.6324200  17.5488410  39.8434720  18.6866510
  17.1445410  39.1311970  18.1912410  17.6351530  39.4987960  19.5754550
  18.0170110  43.5302280  20.8505720  17.7198400  42.9247750  20.1713500
  18.9669930  43.5679590  20.7395080  16.2617030  36.6177930  22.4665550
  16.8131620  36.7273270  21.6918800  16.7760540  36.9915530  23.1820780
  26.1055720  47.1034150  24.5128820  25.6286280  47.9106340  24.3201430
  25.4217510  46.4512480  24.6655030  17.1088540  43.2683970  27.5013520
  16.2117070  43.4923940  27.7486920  17.1341410  43.3918910  26.5524920
  24.1493760  40.1177090  13.4154780  24.5887040  39.2799520  13.2692600
  24.8622180  40.7506490  13.5018920  15.9359760  40.1397290  26.0770890
  15.7967530  41.0120090  26.4458290  15.0541120  39.7970100  25.9318830
  22.2589140  45.0573160  17.3836020  22.6985050  45.7997490  16.9691410
  22.1976030  45.2999730  18.3074980  17.7340110  46.0818990  28.2856040
  17.7055540  46.4861940  27.4184470  17.5705080  45.1529350  28.1227640
  27.7310900  31.3719900  11.7295820  27.4183560  31.4646730  12.6294890
  28.4923370  31.9500930  11.6793250  14.2493040  38.7379700  16.1873160
  14.1290640  39.4641790  15.5754430  13.9393930  37.9682610  15.7101070
  29.6854930  46.8646090  29.5820210  30.1614650  47.3428980  30.2609290
  30.3062090  46.7963580  28.8565710  11.8878410  41.9094840  21.9941800
  11.9658830  42.0443610  21.0497520  12.5020090  41.2010730  22.1869920
  13.1326040  43.6095030  18.4047980  12.7254120  43.7509620  17.5501580
  14.0239050  43.3255190  18.2019190  29.0888180  44.0558940  26.7420220
  29.2151240  43.8170820  25.8237400  29.1309560  43.2243480  27.2142300
  22.9504920  47.7586940  25.3115030  23.4649590  47.6694950  26.1137460
  22.1074000  48.1046640  25.6042940  24.9259320  48.0442280  14.7399030
  24.7660460  47.7545220  15.6380860  24.7606030  47.2682410  14.2044260
  17.4047700  47.8240810  16.5170650  17.2290180  46.9076350  16.3038450
  16.5503440  48.1828100  16.7568450  24.6285450  45.5529840  13.2997030
  23.9350610  45.5507130  12.6399310  25.3708310  45.1289160  12.8691200
  24.1935380  47.1792550  17.3745520  24.6492330  46.3981930  17.6884140
  24.5327900  47.8899370  17.9186700  28.9412190  36.1091400  27.7069960
  28.3256460  36.6171070  27.1785420  28.6208610  35.2089730  27.6495900
  11.9437930  42.9509010  24.5336260  12.1068970  42.4814370  23.7155630
  12.4090380  42.4432570  25.1985100  16.7156700  32.0814770  19.5696830
  16.2724850  32.8624310  19.2381350  17.2741690  32.4044660  20.2767770
  21.0026510  34.9483290  25.1732150  20.5405880  35.1566310  25.9852090
  20.6004620  34.1342640  24.8702820  26.0031020  36.1692240  26.3028810
  25.1524610  35.8697990  26.6237880  25.8432810  36.4134250  25.3912630
  23.0980730  37.6693990  28.4027600  23.4234140  36.8357740  28.0629830
  23.8861060  38.1922510  28.5505930  19.8315520  31.7025470  14.4502660
  19.2069700  31.6985340  15.1755970  19.7445640  30.8356430  14.0538630
  18.7532600  32.6262100  21.4286430  19.0504930  33.5324930  21.3478450
  19.3018160  32.1380880  20.8146000  16.5070920  37.2048340  17.2978080
  16.2811840  36.9885510  18.2024700  15.7263450  37.6376800  16.9524050
  23.7368680  37.2111710  15.8968730  23.1377570  37.9347510  15.7132350
  24.2848290  37.1488490  15.1145180  18.9470130  38.1033920  27.9638350
  18.8513730  37.1628650  27.8138750  19.7902110  38.3248990  27.5686420
  22.3433550  35.8475250  17.9272010  22.7363120  36.1647450  17.1140700
  22.7050400  34.9687130  18.0416530  14.0780670  34.5147590  26.1172130
  13.6844060  35.3622800  26.3244910  13.3899070  33.8773960  26.3080770
  20.6525720  34.5982560  29.1868870  19.9624040  34.4054760  29.8214960
  21.3958020  34.8817200  29.7193170  11.3797720  32.4376050  20.1502210
  11.0910770  33.0078910  20.8627190  12.1243480  31.9580500  20.5133440
  11.5667950  36.3796170  11.3604930  11.4842620  37.3226930  11.5019920
  11.2151010  36.2371080  10.4817280  22.9288690  38.4381000  22.0222790
  22.1969810  38.9467810  22.3712890  22.5313030  37.6210980  21.7211570
  19.3666080  35.1135200  20.4275280  19.3702140  34.6725150  19.5779820
  20.2617200  35.4352530  20.5347100  15.2168460  34.9961690  19.3869490
  14.8768510  35.4736920  20.1436540  14.4545780  34.5426810  19.0270590
  19.4286230  36.1147280  13.4182040  19.5499050  36.0733760  14.3667860
  19.0434740  36.9771430  13.2628770  23.3914600  33.8914680  21.4345730
  23.4087340  34.3423330  22.2787580  23.1430180  32.9920320  21.6479170
  18.4407730  38.4248420  12.8165340  17.8724630  37.9766670  12.1901250
  19.1496730  38.7841200  12.2830490  26.8185350  31.3046860  27.2732110
  27.1431120  30.5736520  27.7990090  26.8541860  30.9860500  26.3713100
  13.5176910  42.3260440  26.6932070  13.1331700  41.6854110  27.2915030
  13.8289100  43.0296560  27.2626800  19.6674050  39.1736980  22.1740690
  20.0344180  38.6995550  22.9202030  19.4779110  40.0478550  22.5149030
  12.5314540  33.9180670  18.3034160  12.2461460  33.5536340  19.1412780
  12.4693400  33.1861130  17.6897300  17.4573420  38.2145620  24.4924900
  17.1530490  39.0937600  24.7175260  18.4119880  38.2745410  24.5282340
  15.9855210  42.4206610  15.0891750  15.2117470  41.8804230  14.9290470
  16.7149840  41.9013220  14.7509510  26.7443190  41.4171970  20.8818140
  27.4642310  41.9127260  20.4914250  26.5425010  40.7389860  20.2372010
  22.2053130  32.8109930  15.0247530  21.3917740  32.3123100  14.9492840
  22.0115080  33.6508180  14.6083880  22.1261990  41.4881030  26.7687140
  22.0599300  40.5676700  26.5144730  21.4967130  41.5856470  27.4831780
  24.9201520  37.1829580  13.3209690  25.8081140  37.4946810  13.1461030
  24.8906610  36.3101830  12.9290270  16.0292610  42.0886990  18.7270560
  16.5471280  41.2855250  18.6727450  15.5776630  42.0266130  19.5687390
  20.9162110  43.3553270  13.9997860  21.2577810  44.0995500  13.5041180
  20.0874820  43.6684390  14.3622690  13.5137150  39.0548360  25.6396260
  13.1552090  39.7202210  26.2269600  13.2191710  38.2231910  26.0108880
  16.7150270  39.5132600  28.5235810  16.4150410  39.6589780  27.6263630
  17.4861510  38.9537890  28.4309200  22.0578720  44.3101600  26.5190940
  22.0723260  43.3782560  26.3009850  21.3503820  44.3961360  27.1580710
  27.1915790  38.4941420  12.7889550  27.1079510  38.9255640  11.9385990
  27.9109980  38.9539770  13.2216370  28.2689930  40.9508940  25.8659520
  27.5438120  41.5437720  25.6688910  28.7965390  40.9432480  25.0672890
  28.2203040  45.3483680  15.5171680  27.5779200  44.6939300  15.7915400
  27.8333700  45.7538770  14.7412350  23.7989520  42.6769110  19.3643370
  24.1513340  42.0797240  18.7044740  22.9151850  42.3513340  19.5351620
  19.8852800  43.4366800  16.7713780  20.5723930  43.9836010  17.1521370
  19.0985220  43.9807530  16.8063390  12.0245200  39.0539620  12.2630860
  12.8940050  39.3364420  12.5466780  11.5335520  39.8675490  12.1479670
  19.1880010  40.4412830  16.3839140  19.6442790  41.2518080  16.6099330
  18.8368220  40.1235970  17.2157630  21.4912620  45.9519170  23.6131440
  22.1354840  46.1578550  24.2904860  21.8542060  45.1907570  23.1602290
  15.0891790  30.7850480  16.8561660  14.9606420  30.7768380  17.8046580
  14.2653810  31.1233570  16.5052670  22.7644700  43.9551520  22.3308890
  23.4066930  43.2544680  22.4441060  23.2894050  44.7349960  22.1505780
  26.6100420  44.2400140  12.0548030  26.3838000  43.5230580  12.6472670
  26.2196620  43.9912580  11.2169780  24.5382320  44.7546420  25.5344950
  24.8738560  45.3413110  26.2122870  23.6182660  44.6239130  25.7642740
  12.3916450  48.2667000  12.8292490  12.7514090  48.8656340  12.1749760
  12.2508790  48.8126890  13.6027520  12.0885720  32.5441600  26.3168360
  11.3744240  32.7438520  26.9220970  12.5080760  31.7681170  26.6883160
  26.1916670  42.1572080  13.7162190  25.9038370  42.6184770  14.5040070
  26.9868840  41.6969850  13.9846410  12.3758310  46.5321860  27.3034890
  12.4849430  45.5916600  27.1630280  11.7238870  46.7976610  26.6548620
  20.3670900  44.8037750  28.7033010  20.0467770  44.0846990  29.2478700
  19.6929260  45.4792820  28.7769070  18.4085070  45.6498200  13.6466160
  18.3995170  46.3827890  13.0310670  17.4883430  45.4029780  13.7393120
  14.0091710  40.8713090  14.3912920  13.4019660  41.6111990  14.4008220
  14.4841060  40.9612450  13.5651120  23.5824500  35.0363910  24.0669810
  23.9505320  34.2159120  24.3949380  22.7222700  35.0965800  24.4825460
  26.9486530  33.9920850  14.8757370  26.3199690  34.0966520  14.1615600
  26.4538450  34.2117630  15.6651250  21.3944670  45.7126440  12.3091350
  21.4956650  45.5090430  11.3793330  20.4946410  45.4584720  12.5139130
  18.9170560  36.2706800  16.2915250  18.2086710  36.7393140  16.7328860
  19.2015040  35.6128810  16.9260440  20.5426490  37.6903500  24.2907780
  21.0411740  38.1649320  24.9559630  20.6849440  36.7667020  24.4977810
  22.9485990  32.9957460  17.7311040  22.8253770  33.0143590  16.7820550
  23.8970550  33.0436400  17.8509440  20.0362780  48.2312760  17.0039020
  20.2904280  48.1934150  16.0818390  19.0875260  48.1046090  16.9967270
  17.1205580  34.5791880  13.6665960  17.9696110  35.0162030  13.6006150
  16.7536850  34.8912140  14.4938020  27.7493350  33.9071460  25.1336170
  27.2466950  34.6476860  25.4729980  28.5650010  34.2955460  24.8172960
  26.0415360  39.1504640  18.5797530  25.1005500  39.1654870  18.7545220
  26.3559430  38.3640600  19.0257830  16.0197000  40.8324240  12.1401490
  16.7860270  40.7205600  12.7026920  16.0971690  40.1362210  11.4878260
  14.7143760  38.2649310  12.8234380  14.7947350  37.3176820  12.9351780
  15.6063510  38.5956190  12.9295040  28.0440940  46.3213490  20.2551790
  28.1688360  47.1444660  20.7275600  28.9106500  46.1104220  19.9075940
  15.5158470  48.4144700  19.9268920  16.2520950  47.8660160  20.1977490
  15.8999390  49.2800710  19.7874910  12.4003950  44.4818270  15.8010430
  11.4743730  44.7239410  15.7915840  12.8660380  45.3092530  15.6795180
  14.5216750  47.5990770  29.1154500  15.3229480  47.9202820  29.5289900
  14.0068570  47.2386350  29.8374410  18.6260780  47.5875010  11.7494490
  19.4189390  47.8763840  11.2976280  18.1065130  47.1567180  11.0706970
  23.3581380  43.7070640  29.0629910  22.7519540  43.7302240  28.3225660
  23.0535490  42.9753680  29.5997160  24.7881750  47.4350930  27.6739320
  25.7403500  47.3508950  27.6239560  24.6409970  48.0992640  28.3473110
  27.6790950  46.8145140  13.1731230  27.3932460  46.4010280  12.3585410
  27.4810500  47.7432850  13.0531750  12.2414560  40.0864230  28.0590550
  12.7453580  39.5071510  28.6306780  11.5021980  40.3704460  28.5966920
  19.1438180  42.8078420  11.6136840  19.0388820  42.1930770  12.3398220
  18.9762400  42.2844310  10.8299850  19.2952500  41.4935220  27.5926070
  18.5298170  42.0620220  27.5080740  19.4768460  41.2011430  26.6994300
  22.3840910  41.8698450  12.2178830  21.8351010  42.3167750  12.8621570
  23.0060170  41.3647700  12.7416500  26.4375850  43.2240550  28.1501090
  27.1785320  43.5616310  27.6468550  25.6748530  43.3932610  27.5970860
  14.2737640  38.2293820  28.9540620  14.3142980  37.9307690  29.8625850
  15.1283140  38.6301430  28.7948140  18.0516030  40.8289370  14.1144130
  18.4732450  40.6629240  14.9575520  18.1766870  40.0189600  13.6199270
  16.2143450  36.8085920  26.9215110  15.6839910  36.3176870  26.2938450
  16.8831520  37.2370120  26.3873040  20.5643670  39.8526980  11.3621230
  21.0849330  39.1376000  10.9962380  21.2112070  40.4912850  11.6621740
  25.1121510  41.2755380  26.6856300  25.5262530  41.4300460  27.5346720
  24.1772510  41.4010600  26.8482080  25.5843680  38.6151540  28.6895450
  26.1664450  37.8603860  28.6015930  25.7605450  39.1458980  27.9126930
  16.7015750  33.7748290  27.0012400  16.6072620  33.1569040  26.2763270
  16.1213140  34.5014580  26.7742310  19.4677190  32.3321530  24.0339790
  19.0194490  32.3545790  23.1885340  18.8342390  31.9340550  24.6310090
  19.8736740  41.2275860  24.6552230  20.2924850  42.0708590  24.4828470
  18.9545370  41.3647900  24.4259010  22.2100640  38.9592040  26.0390070
  22.3296850  38.3633180  26.7784910  23.0694640  38.9961730  25.6191370
  24.5488540  39.5129230  24.6152580  24.0223760  40.0371850  24.0117720
  24.8919880  40.1456620  25.2462310  16.9474930  36.9022600  11.0602290
  16.7463990  36.0389960  11.4215630  16.7766980  36.8155960  10.1223890
  17.7244160  47.5328870  25.7709960  17.1865250  48.2574930  25.4518660
  17.9778120  47.0559210  24.9807300  18.9769410  35.5013390  27.2965890
  19.5669100  35.1929240  27.9843710  18.1589650  35.0293140  27.4525790
  23.7962840  35.1179200  27.5298910  23.1078360  34.4560740  27.4648900
  24.5168860  34.6717470  27.9747370  24.4263240  31.7130830  13.5889170
  24.7065530  30.8698730  13.9448590  23.6528970  31.9453940  14.1027920
  15.7457730  34.0023220  11.0480170  16.0483630  34.0090650  10.1399320
  16.4852320  33.6521080  11.5447830  20.5806370  48.7680080  26.0296610
  20.5065070  49.6715220  26.3368980  19.6785210  48.4491980  26.0018680
  18.9642660  32.9457840  12.0336370  18.6164660  32.2681830  11.4538820
  19.1655430  32.4847350  12.8479760  21.1291700  47.9338590  13.6522970
  22.0242490  48.2723560  13.6741730  21.1609330  47.2118000  13.0247250
  14.7687860  43.3065640  11.8809970  15.2062730  43.8495310  12.5367550
  15.2535590  42.4812590  11.8906310  11.9833660  46.0954670  19.3330230
  12.3136670  45.2275730  19.1008870  12.4124660  46.3013190  20.1635190
  16.5795580  44.4263680  16.9932200  16.2791120  44.3028650  17.8936110
  16.4733070  43.5672270  16.5847930  12.4723870  46.9625260  22.0711860
  12.0354860  47.1426060  22.9036010  13.0401550  47.7199880  21.9293580
  28.1086050  46.4642260  26.3589170  27.5088040  46.5234820  25.6153090
  28.2379950  45.5247240  26.4886020  29.3487500  44.2060080  11.6958880
  28.5180460  44.2736730  12.1666110  29.5259330  45.0964200  11.3925740
  28.8043960  40.9507560  14.1993080  29.5662870  41.5204210  14.3052770
  28.8198330  40.3834760  14.9701390  12.3048300  39.4745490  18.4300740
  11.6497140  39.2057130  17.7860440  13.1426250  39.3649970  17.9802720
  29.8103930  41.8057660  19.0435010  30.1812760  41.0224980  18.6370980
  30.4505860  42.4946760  18.8652310  26.7937690  43.1894240  24.4565330
  25.9797530  43.6191400  24.7191120  27.2011890  43.8012650  23.8434380
  28.8563130  41.2441930  11.3565600  29.1311970  42.1520810  11.2284820
  28.6673870  41.1804460  12.2927590  25.2538740  34.2686780  12.6519230
  25.6723620  34.0817760  11.8115890  24.9474800  33.4165830  12.9622160
  28.7528470  39.1810920  16.3495030  28.3772070  38.4138850  15.9176320
  28.0231590  39.5633620  16.8369960  13.3424230  39.8598060  22.9704080
  13.7097270  39.7725460  23.8500100  12.7735050  39.0964610  22.8710940
  28.1428090  38.3282440  25.9834550  27.9114180  38.0995190  25.0832500
  28.4032640  39.2481990  25.9379440  12.8940230  36.7707150  26.8762500
  11.9996280  36.7373910  27.2156210  13.4337780  36.9693940  27.6413750
  26.5816160  33.5538870  28.7614250  27.4586340  33.5622270  29.1448250
  26.5937000  32.8169710  28.1506600  11.5186380  36.6844420  14.3726070
  10.6150460  36.9474620  14.1977730  12.0027000  36.9555590  13.5926030
  28.0279430  37.4068410  19.6502270  28.5516910  36.9131060  19.0192440
  28.6138850  37.5418770  20.3949840  28.2069150  37.4908280  23.1721820
  27.2571860  37.4571820  23.2866810  28.3882160  38.4008390  22.9371590
  14.0613590  35.7409960  12.2820450  14.7705290  35.3193180  11.7967730
  13.3453530  35.8085190  11.6503800  13.7087750  31.7949290  11.3223100
  14.4315880  32.3358230  11.6404320  13.9812270  31.5212710  10.4464640
  27.5179400  36.6641760  15.5894680  28.0138520  36.4312630  16.3743560
  27.3195470  35.8253600  15.1732320  13.3979940  31.0455480  21.2245720
  14.0456130  30.4952860  20.7840880  13.8181780  31.2998630  22.0461530
  28.9466560  35.3002710  18.1232360  28.8365840  35.1458750  19.0614630
  29.7074150  34.7723650  17.8807770  27.2932280  31.2396840  24.5815360
  27.9304500  31.8530980  24.9474550  27.4407170  31.2757500  23.6364590
  29.8356830  33.1310630  11.3638500  30.7606140  32.9991810  11.1556790
  29.8132620  33.2103450  12.3174950  29.9095320  33.9021290  13.9895210
  29.1146820  33.8366410  14.5188120  30.1138600  34.8371930  13.9780560
  26.8513740  47.9412840  17.9833600  27.4472810  47.6197410  17.3068020
  27.1091890  47.4684660  18.7746870  13.1511940  31.2011150  23.9671040
  12.8026760  31.6574970  24.7329220  12.8199640  30.3068280  24.0493470
  14.7576310  44.3730750  28.1324230  14.7145940  44.0023660  29.0138690
  14.8887320  45.3108320  28.2726050  18.4582340  45.9290340  23.7333950
  18.2173700  46.1964900  22.8464470  19.3984980  46.0996070  23.7884810
  20.6636760  32.3923030  27.4890460  20.6025650  32.9844860  28.2385870
  21.6037140  32.2848990  27.3440720  23.3011320  32.0493090  27.1282750
  23.9151730  32.3672380  26.4663830  23.8460880  31.5641680  27.7478610
  29.7186500  47.9484720  24.5344590  29.2244780  48.3453590  23.8171720
  29.1099790  47.3233930  24.9281870  13.8232580  30.7287350  27.2421810
  14.3715570  30.5475400  26.4787920  13.8887890  29.9381460  27.7778120
  14.5964340  47.3193000  25.2522010  14.0024660  47.1877700  25.9912050
  14.5888180  46.4831140  24.7864110  24.0419360  30.6125230  23.4552040
  23.1679200  30.9460340  23.2524970  23.9330110  30.1398410  24.2803910
  24.9491340  32.8196100  24.8393760  24.6204700  32.0047860  24.4595490
  25.8973640  32.7765910  24.7159450  27.4025950  48.5908140  21.8131330
  26.9428920  49.3423950  21.4389350  26.7738410  47.8714610  21.7546130
  14.2276570  44.6851380  24.2030050  13.5010630  44.0656670  24.1356000
  14.2885720  45.0791990  23.3328130  17.8321670  46.8996380  20.9879460
  18.3486690  46.2883740  20.4627720  18.4819050  47.4025160  21.4790470
  20.5717170  47.7904870  21.8148440  20.8594980  47.5359170  20.9381450
  21.0840390  47.2382230  22.4054010  21.7894180  31.5295070  22.3944950
  21.0065970  32.0040570  22.6741710  21.4957110  30.6249900  22.2858130
  26.3415250  32.2318170  20.4394040  26.7823340  32.1763270  19.5915640
  26.0722840  33.1476180  20.5104220  28.2053820  31.8633410  18.4502860
  28.1442220  30.9194630  18.3033880  28.9845850  31.9713500  18.9956320
  12.5106570  48.0025770  17.4126810  12.3428610  47.3696450  18.1108700
  11.6441080  48.2085170  17.0621000  13.1334590  31.8342550  14.9158670
  13.8913950  31.9471430  14.3422700  12.6711760  32.6711750  14.8702100
  19.6748400  33.9481820  17.9060980  18.8622910  33.5738710  17.5656860
  20.1790040  33.1926900  18.2082170  24.1773380  30.6124270  19.1444050
  24.7802750  31.1844480  19.6192570  23.4366370  31.1763710  18.9217950
  27.3207980  31.0145830  14.4184330  27.5158610  31.9129280  14.6851760
  26.5337850  30.7832910  14.9117280  14.1169270  46.6959000  14.8576950
  13.5916890  47.0767030  14.1538910  14.0413850  47.3209770  15.5786660
  15.5059740  32.3606600  13.4560640  16.0352500  31.5736400  13.3268590
  16.1388060  33.0397790  13.6896170  17.6997580  32.0981740  16.5106030
  17.0700320  31.3969050  16.6776160  17.1602720  32.8585870  16.2939190
  20.6389530  48.7120970  29.1816640  21.5656840  48.4765240  29.2252600
  20.6239960  49.5392970  28.7002670  28.8734590  48.2546540  16.1790890
  29.0486780  47.5684280  15.5351810  28.1756160  48.7793590  15.7867560
  17.8253140  31.3765720  28.9458520  17.5437410  31.8799320  28.1819340
  18.2072840  30.5787470  28.5800650  16.7162240  48.6441380  13.7326200
  17.4481060  48.3600660  13.1850090  16.9755910  48.4054660  14.6225580
  15.8777030  44.7606110  13.7372530  15.2485910  45.2291210  14.2858360
  15.9924860  43.9155330  14.1718720  24.4268600  30.7919300  29.5238990
  24.3134050  31.1113910  30.4190510  25.2438340  31.1931810  29.2276270
  27.2067090  47.9390830  29.0057680  27.9992410  47.4440060  28.7983640
  27.5000240  48.6180970  29.6133290  21.4644790  40.5890790   1.7683000
  20.6886890  40.1091230   2.0581570  22.1157720  39.9096440   1.5939160
  15.4810620  40.9010600   2.6458760  14.6495500  40.6459310   3.0455270
  16.0891600  40.9721370   3.3816680  15.4611880  44.9350690   2.8416780
  15.7639920  44.0448430   2.6627000  16.2055470  45.4920910   2.6139030
  20.9053780  43.2647980   1.7753160  20.8362060  42.3237920   1.6142290
  21.6673640  43.3549390   2.3475730  13.0960450  33.8702500   4.1009780
  12.9163290  32.9728250   4.3812540  12.6940530  34.4174370   4.7756730
  13.7147120  36.3663000   2.7092120  14.3957230  36.6301370   3.3279520
  13.3995170  35.5263870   3.0430130  17.9071690  37.4130360   1.7964710
  18.4149910  37.9111330   2.4369730  18.4384930  36.6365560   1.6204070
  30.0082620  35.5835550   5.4994060  29.3034790  35.9717260   4.9809170
  30.2740540  36.2785840   6.1014990  16.1907790  32.0528920   6.0628130
  16.1926230  32.5701310   5.2574030  15.3612100  31.5759100   6.0398060
  17.4410640  41.6924100   4.2401630  17.1080020  42.3193020   4.8822700
  17.6177320  42.2185980   3.4603300  15.8723120  33.7638880   4.0698580
  16.2139930  34.6080930   3.7752450  14.9338930  33.9122620   4.1863920
  16.6529740  43.6604900   6.0550810  17.2703740  44.3355980   5.7735260
  15.7922860  44.0692880   5.9638310  27.5707330  45.1244310   3.9705450
  26.8870850  45.7943420   3.9622120  28.1101620  45.3224960   3.2050310
  29.0231470  34.9523970   2.0987180  28.0756380  34.9862950   2.2302610
  29.3481460  35.7662920   2.4836540  25.1066070  46.9688440   2.6850630
  25.1193230  46.5650730   1.8172890  24.5541290  47.7435730   2.5812060
  24.5051510  41.8718280   4.0133240  24.9220300  41.6578390   3.1786700
  25.2291330  42.1291070   4.5841860  28.4513610  40.2705500   4.1049480
  27.6232240  40.3398590   3.6299610  29.0464090  40.8559810   3.6365310
  25.4155620  37.0574820   5.0504350  25.0026800  37.8828530   5.3044340
  24.6831570  36.4719860   4.8580710  16.2617030  36.6177930   3.6922060
  16.8131620  36.7273270   2.9175310  16.7760540  36.9915530   4.4077290
  26.1055720  47.1034150   5.7385330  25.6286280  47.9106340   5.5457940
  25.4217510  46.4512480   5.8911540  17.1088540  43.2683970   8.7270030
  16.2117070  43.4923940   8.9743430  17.1341410  43.3918910   7.7781430
  15.9359760  40.1397290   7.3027400  15.7967530  41.0120090   7.6714800
  15.0541120  39.7970100   7.1575340  17.7340110  46.0818990   9.5112550
  17.7055540  46.4861940   8.6440980  17.5705080  45.1529350   9.3484150
  29.6854930  46.8646090  10.8076720  30.1614650  47.3428980  11.4865800
  30.3062090  46.7963580  10.0822220  11.8878410  41.9094840   3.2198310
  11.9658830  42.0443610   2.2754030  12.5020090  41.2010730   3.4126430
  29.0888180  44.0558940   7.9676730  29.2151240  43.8170820   7.0493910
  29.1309560  43.2243480   8.4398810  22.9504920  47.7586940   6.5371540
  23.4649590  47.6694950   7.3393970  22.1074000  48.1046640   6.8299450
  28.9412190  36.1091400   8.9326470  28.3256460  36.6171070   8.4041930
  28.6208610  35.2089730   8.8752410  11.9437930  42.9509010   5.7592770
  12.1068970  42.4814370   4.9412140  12.4090380  42.4432570   6.4241610
  21.0026510  34.9483290   6.3988660  20.5405880  35.1566310   7.2108600
  20.6004620  34.1342640   6.0959330  26.0031020  36.1692240   7.5285320
  25.1524610  35.8697990   7.8494390  25.8432810  36.4134250   6.6169140
  23.0980730  37.6693990   9.6284110  23.4234140  36.8357740   9.2886340
  23.8861060  38.1922510   9.7762440  18.7532600  32.6262100   2.6542940
  19.0504930  33.5324930   2.5734960  19.3018160  32.1380880   2.0402510
  18.9470130  38.1033920   9.1894860  18.8513730  37.1628650   9.0395260
  19.7902110  38.3248990   8.7942930  14.0780670  34.5147590   7.3428640
  13.6844060  35.3622800   7.5501420  13.3899070  33.8773960   7.5337280
  20.6525720  34.5982560  10.4125380  19.9624040  34.4054760  11.0471470
  21.3958020  34.8817200  10.9449680  22.9288690  38.4381000   3.2479300
  22.1969810  38.9467810   3.5969400  22.5313030  37.6210980   2.9468080
  23.3914600  33.8914680   2.6602240  23.4087340  34.3423330   3.5044090
  23.1430180  32.9920320   2.8735680  26.8185350  31.3046860   8.4988620
  27.1431120  30.5736520   9.0246600  26.8541860  30.9860500   7.5969610
  13.5176910  42.3260440   7.9188580  13.1331700  41.6854110   8.5171540
  13.8289100  43.0296560   8.4883310  19.6674050  39.1736980   3.3997200
  20.0344180  38.6995550   4.1458540  19.4779110  40.0478550   3.7405540
  17.4573420  38.2145620   5.7181410  17.1530490  39.0937600   5.9431770
  18.4119880  38.2745410   5.7538850  26.7443190  41.4171970   2.1074650
  27.4642310  41.9127260   1.7170760  26.5425010  40.7389860   1.4628520
  22.1261990  41.4881030   7.9943650  22.0599300  40.5676700   7.7401240
  21.4967130  41.5856470   8.7088290  13.5137150  39.0548360   6.8652770
  13.1552090  39.7202210   7.4526110  13.2191710  38.2231910   7.2365390
  16.7150270  39.5132600   9.7492320  16.4150410  39.6589780   8.8520140
  17.4861510  38.9537890   9.6565710  22.0578720  44.3101600   7.7447450
  22.0723260  43.3782560   7.5266360  21.3503820  44.3961360   8.3837220
  28.2689930  40.9508940   7.0916030  27.5438120  41.5437720   6.8945420
  28.7965390  40.9432480   6.2929400  21.4912620  45.9519170   4.8387950
  22.1354840  46.1578550   5.5161370  21.8542060  45.1907570   4.3858800
  22.7644700  43.9551520   3.5565400  23.4066930  43.2544680   3.6697570
  23.2894050  44.7349960   3.3762290  24.5382320  44.7546420   6.7601460
  24.8738560  45.3413110   7.4379380  23.6182660  44.6239130   6.9899250
  12.0885720  32.5441600   7.5424870  11.3744240  32.7438520   8.1477480
  12.5080760  31.7681170   7.9139670  12.3758310  46.5321860   8.5291400
  12.4849430  45.5916600   8.3886790  11.7238870  46.7976610   7.8805130
  20.3670900  44.8037750   9.9289520  20.0467770  44.0846990  10.4735210
  19.6929260  45.4792820  10.0025580  23.5824500  35.0363910   5.2926320
  23.9505320  34.2159120   5.6205890  22.7222700  35.0965800   5.7081970
  20.5426490  37.6903500   5.5164290  21.0411740  38.1649320   6.1816140
  20.6849440  36.7667020   5.7234320  27.7493350  33.9071460   6.3592680
  27.2466950  34.6476860   6.6986490  28.5650010  34.2955460   6.0429470
  14.5216750  47.5990770  10.3411010  15.3229480  47.9202820  10.7546410
  14.0068570  47.2386350  11.0630920  23.3581380  43.7070640  10.2886420
  22.7519540  43.7302240   9.5482170  23.0535490  42.9753680  10.8253670
  24.7881750  47.4350930   8.8995830  25.7403500  47.3508950   8.8496070
  24.6409970  48.0992640   9.5729620  12.2414560  40.0864230   9.2847060
  12.7453580  39.5071510   9.8563290  11.5021980  40.3704460   9.8223430
  19.2952500  41.4935220   8.8182580  18.5298170  42.0620220   8.7337250
  19.4768460  41.2011430   7.9250810  26.4375850  43.2240550   9.3757600
  27.1785320  43.5616310   8.8725060  25.6748530  43.3932610   8.8227370
  14.2737640  38.2293820  10.1797130  14.3142980  37.9307690  11.0882360
  15.1283140  38.6301430  10.0204650  16.2143450  36.8085920   8.1471620
  15.6839910  36.3176870   7.5194960  16.8831520  37.2370120   7.6129550
  25.1121510  41.2755380   7.9112810  25.5262530  41.4300460   8.7603230
  24.1772510  41.4010600   8.0738590  25.5843680  38.6151540   9.9151960
  26.1664450  37.8603860   9.8272440  25.7605450  39.1458980   9.1383440
  16.7015750  33.7748290   8.2268910  16.6072620  33.1569040   7.5019780
  16.1213140  34.5014580   7.9998820  19.4677190  32.3321530   5.2596300
  19.0194490  32.3545790   4.4141850  18.8342390  31.9340550   5.8566600
  19.8736740  41.2275860   5.8808740  20.2924850  42.0708590   5.7084980
  18.9545370  41.3647900   5.6515520  22.2100640  38.9592040   7.2646580
  22.3296850  38.3633180   8.0041420  23.0694640  38.9961730   6.8447880
  24.5488540  39.5129230   5.8409090  24.0223760  40.0371850   5.2374230
  24.8919880  40.1456620   6.4718820  17.7244160  47.5328870   6.9966470
  17.1865250  48.2574930   6.6775170  17.9778120  47.0559210   6.2063810
  18.9769410  35.5013390   8.5222400  19.5669100  35.1929240   9.2100220
  18.1589650  35.0293140   8.6782300  23.7962840  35.1179200   8.7555420
  23.1078360  34.4560740   8.6905410  24.5168860  34.6717470   9.2003880
  20.5806370  48.7680080   7.2553120  20.5065070  49.6715220   7.5625490
  19.6785210  48.4491980   7.2275190  12.4723870  46.9625260   3.2968370
  12.0354860  47.1426060   4.1292520  13.0401550  47.7199880   3.1550090
  28.1086050  46.4642260   7.5845680  27.5088040  46.5234820   6.8409600
  28.2379950  45.5247240   7.7142530  26.7937690  43.1894240   5.6821840
  25.9797530  43.6191400   5.9447630  27.2011890  43.8012650   5.0690890
  13.3424230  39.8598060   4.1960590  13.7097270  39.7725460   5.0756610
  12.7735050  39.0964610   4.0967450  28.1428090  38.3282440   7.2091060
  27.9114180  38.0995190   6.3089010  28.4032640  39.2481990   7.1635950
  12.8940230  36.7707150   8.1019010  11.9996280  36.7373910   8.4412720
  13.4337780  36.9693940   8.8670260  26.5816160  33.5538870   9.9870760
  27.4586340  33.5622270  10.3704760  26.5937000  32.8169710   9.3763110
  28.2069150  37.4908280   4.3978330  27.2571860  37.4571820   4.5123320
  28.3882160  38.4008390   4.1628100  13.3979940  31.0455480   2.4502230
  14.0456130  30.4952860   2.0097390  13.8181780  31.2998630   3.2718040
  27.2932280  31.2396840   5.8071870  27.9304500  31.8530980   6.1731060
  27.4407170  31.2757500   4.8621100  13.1511940  31.2011150   5.1927550
  12.8026760  31.6574970   5.9585730  12.8199640  30.3068280   5.2749980
  14.7576310  44.3730750   9.3580740  14.7145940  44.0023660  10.2395200
  14.8887320  45.3108320   9.4982560  18.4582340  45.9290340   4.9590460
  18.2173700  46.1964900   4.0720980  19.3984980  46.0996070   5.0141320
  20.6636760  32.3923030   8.7146970  20.6025650  32.9844860   9.4642380
  21.6037140  32.2848990   8.5697230  23.3011320  32.0493090   8.3539260
  23.9151730  32.3672380   7.6920340  23.8460880  31.5641680   8.9735120
  29.7186500  47.9484720   5.7601100  29.2244780  48.3453590   5.0428230
  29.1099790  47.3233930   6.1538380  13.8232580  30.7287350   8.4678320
  14.3715570  30.5475400   7.7044430  13.8887890  29.9381460   9.0034630
  14.5964340  47.3193000   6.4778520  14.0024660  47.1877700   7.2168560
  14.5888180  46.4831140   6.0120620  24.0419360  30.6125230   4.6808550
  23.1679200  30.9460340   4.4781480  23.9330110  30.1398410   5.5060420
  24.9491340  32.8196100   6.0650270  24.6204700  32.0047860   5.6852000
  25.8973640  32.7765910   5.9415960  27.4025950  48.5908140   3.0387840
  26.9428920  49.3423950   2.6645860  26.7738410  47.8714610   2.9802640
  14.2276570  44.6851380   5.4286560  13.5010630  44.0656670   5.3612510
  14.2885720  45.0791990   4.5584640  17.8321670  46.8996380   2.2135970
  18.3486690  46.2883740   1.6884230  18.4819050  47.4025160   2.7046980
  20.5717170  47.7904870   3.0404950  20.8594980  47.5359170   2.1637960
  21.0840390  47.2382230   3.6310520  21.7894180  31.5295070   3.6201460
  21.0065970  32.0040570   3.8998220  21.4957110  30.6249900   3.5114640
  20.6389530  48.7120970  10.4073150  21.5656840  48.4765240  10.4509110
  20.6239960  49.5392970   9.9259180  17.8253140  31.3765720  10.1715030
  17.5437410  31.8799320   9.4075850  18.2072840  30.5787470   9.8057160
  24.4268600  30.7919300  10.7495500  24.3134050  31.1113910  11.6447020
  25.2438340  31.1931810  10.4532780  27.2067090  47.9390830  10.2314190
  27.9992410  47.4440060  10.0240150  27.5000240  48.6180970  10.8389800
  23.3326750  20.0368280 150.0821650  23.2520800  19.1222890 149.8113360
  22.9191170  20.5335350 149.3761360  25.4852220  26.2207490 150.7430050
  25.0233750  25.4494730 151.0717220  26.2977770  26.2473560 151.2482500
  13.8902570  17.0869000 146.6249070  13.0019270  17.4284970 146.5228950
  14.1743760  16.8869320 145.7329900  21.7115530  28.5065500 150.3634040
  21.0926970  28.9623000 149.7928480  22.5667310  28.6616960 149.9623740
  16.0663960  15.6700500 147.6587450  16.1730710  16.5704230 147.9656210
  15.1556320  15.6218470 147.3682100  25.7183070  14.7925310 149.1298350
  26.5392690  14.3021880 149.1723830  25.7517150  15.3822970 149.8830190
  22.5778880  23.3904740 147.7565950  21.9596150  23.8554190 147.1928670
  23.0902130  24.0832220 148.1735460  11.9462080  24.0761270 145.1305580
  11.5690060  24.5648370 144.3990480  12.2035150  24.7486550 145.7612110
  19.5551010  12.4777660 150.5891090  19.8625990  11.9224550 149.8726590
  18.6251710  12.6122120 150.4064080  26.4011490  24.9161170 147.9688720
  26.2907820  23.9735500 148.0938140  26.3979740  25.2776810 148.8551480
  21.9431770  20.5426490 147.3251210  21.0161050  20.4763870 147.5539680
  22.0956590  21.4806620 147.2106450  21.9300850  16.8143490 144.3218370
  20.9904520  16.9757450 144.4070830  22.2484110  17.5329170 143.7754360
  25.9729060  22.1046790 147.8286460  25.3541480  21.7666340 147.1812760
  25.9553510  21.4606550 148.5365650  17.5488410  21.0691230 150.1070940
  17.1445410  20.3568480 149.6116840  17.6351530  20.7244470 150.9958980
  24.1493760  21.3433600 144.8359210  24.5887040  20.5056030 144.6897030
  24.8622180  21.9763000 144.9223350  22.2589140  26.2829670 148.8040450
  22.6985050  27.0254000 148.3895840  22.1976030  26.5256240 149.7279410
  27.7310900  12.5976410 143.1500250  27.4183560  12.6903240 144.0499320
  28.4923370  13.1757440 143.0997680  14.2493040  19.9636210 147.6077590
  14.1290640  20.6898300 146.9958860  13.9393930  19.1939120 147.1305500
  13.1326040  24.8351540 149.8252410  12.7254120  24.9766130 148.9706010
  14.0239050  24.5511700 149.6223620  24.9259320  29.2698790 146.1603460
  24.7660460  28.9801730 147.0585290  24.7606030  28.4938920 145.6248690
  17.4047700  29.0497320 147.9375080  17.2290180  28.1332860 147.7242880
  16.5503440  29.4084610 148.1772880  24.6285450  26.7786350 144.7201460
  23.9350610  26.7763640 144.0603740  25.3708310  26.3545670 144.2895630
  24.1935380  28.4049060 148.7949950  24.6492330  27.6238440 149.1088570
  24.5327900  29.1155880 149.3391130  16.7156700  13.3071280 150.9901260
  16.2724850  14.0880820 150.6585780  17.2741690  13.6301170 151.6972200
  19.8315520  12.9281980 145.8707090  19.2069700  12.9241850 146.5960400
  19.7445640  12.0612940 145.4743060  16.5070920  18.4304850 148.7182510
  16.2811840  18.2142020 149.6229130  15.7263450  18.8633310 148.3728480
  23.7368680  18.4368220 147.3173160  23.1377570  19.1604020 147.1336780
  24.2848290  18.3745000 146.5349610  22.3433550  17.0731760 149.3476440
  22.7363120  17.3903960 148.5345130  22.7050400  16.1943640 149.4620960
  11.5667950  17.6052680 142.7809360  11.4842620  18.5483440 142.9224350
  11.2151010  17.4627590 141.9021710  15.2168460  16.2218200 150.8073920
  14.8768510  16.6993430 151.5640970  14.4545780  15.7683320 150.4475020
  19.4286230  17.3403790 144.8386470  19.5499050  17.2990270 145.7872290
  19.0434740  18.2027940 144.6833200  18.4407730  19.6504930 144.2369770
  17.8724630  19.2023180 143.6105680  19.1496730  20.0097710 143.7034920
  12.5314540  15.1437180 149.7238590  12.2461460  14.7792850 150.5617210
  12.4693400  14.4117640 149.1101730  15.9855210  23.6463120 146.5096180
  15.2117470  23.1060740 146.3494900  16.7149840  23.1269730 146.1713940
  22.2053130  14.0366440 146.4451960  21.3917740  13.5379610 146.3697270
  22.0115080  14.8764690 146.0288310  24.9201520  18.4086090 144.7414120
  25.8081140  18.7203320 144.5665460  24.8906610  17.5358340 144.3494700
  16.0292610  23.3143500 150.1474990  16.5471280  22.5111760 150.0931880
  15.5776630  23.2522640 150.9891820  20.9162110  24.5809780 145.4202290
  21.2577810  25.3252010 144.9245610  20.0874820  24.8940900 145.7827120
  27.1915790  19.7197930 144.2093980  27.1079510  20.1512150 143.3590420
  27.9109980  20.1796280 144.6420800  28.2203040  26.5740190 146.9376110
  27.5779200  25.9195810 147.2119830  27.8333700  26.9795280 146.1616780
  23.7989520  23.9025620 150.7847800  24.1513340  23.3053750 150.1249170
  22.9151850  23.5769850 150.9556050  19.8852800  24.6623310 148.1918210
  20.5723930  25.2092520 148.5725800  19.0985220  25.2064040 148.2267820
  12.0245200  20.2796130 143.6835290  12.8940050  20.5620930 143.9671210
  11.5335520  21.0932000 143.5684100  19.1880010  21.6669340 147.8043570
  19.6442790  22.4774590 148.0303760  18.8368220  21.3492480 148.6362060
  15.0891790  12.0106990 148.2766090  14.9606420  12.0024890 149.2251010
  14.2653810  12.3490080 147.9257100  26.6100420  25.4656650 143.4752460
  26.3838000  24.7487090 144.0677100  26.2196620  25.2169090 142.6374210
  12.3916450  29.4923510 144.2496920  12.7514090  30.0912850 143.5954190
  12.2508790  30.0383400 145.0231950  26.1916670  23.3828590 145.1366620
  25.9038370  23.8441280 145.9244500  26.9868840  22.9226360 145.4050840
  18.4085070  26.8754710 145.0670590  18.3995170  27.6084400 144.4515100
  17.4883430  26.6286290 145.1597550  14.0091710  22.0969600 145.8117350
  13.4019660  22.8368500 145.8212650  14.4841060  22.1868960 144.9855550
  26.9486530  15.2177360 146.2961800  26.3199690  15.3223030 145.5820030
  26.4538450  15.4374140 147.0855680  21.3944670  26.9382950 143.7295780
  21.4956650  26.7346940 142.7997760  20.4946410  26.6841230 143.9343560
  18.9170560  17.4963310 147.7119680  18.2086710  17.9649650 148.1533290
  19.2015040  16.8385320 148.3464870  22.9485990  14.2213970 149.1515470
  22.8253770  14.2400100 148.2024980  23.8970550  14.2692910 149.2713870
  20.0362780  29.4569270 148.4243450  20.2904280  29.4190660 147.5022820
  19.0875260  29.3302600 148.4171700  17.1205580  15.8048390 145.0870390
  17.9696110  16.2418540 145.0210580  16.7536850  16.1168650 145.9142450
  26.0415360  20.3761150 150.0001960  25.1005500  20.3911380 150.1749650
  26.3559430  19.5897110 150.4462260  16.0197000  22.0580750 143.5605920
  16.7860270  21.9462110 144.1231350  16.0971690  21.3618720 142.9082690
  14.7143760  19.4905820 144.2438810  14.7947350  18.5433330 144.3556210
  15.6063510  19.8212700 144.3499470  15.5158470  29.6401210 151.3473350
  16.2520950  29.0916670 151.6181920  15.8999390  30.5057220 151.2079340
  12.4003950  25.7074780 147.2214860  11.4743730  25.9495920 147.2120270
  12.8660380  26.5349040 147.0999610  18.6260780  28.8131520 143.1698920
  19.4189390  29.1020350 142.7180710  18.1065130  28.3823690 142.4911400
  27.6790950  28.0401650 144.5935660  27.3932460  27.6266790 143.7789840
  27.4810500  28.9689360 144.4736180  19.1438180  24.0334930 143.0341270
  19.0388820  23.4187280 143.7602650  18.9762400  23.5100820 142.2504280
  22.3840910  23.0954960 143.6383260  21.8351010  23.5424260 144.2826000
  23.0060170  22.5904210 144.1620930  18.0516030  22.0545880 145.5348560
  18.4732450  21.8885750 146.3779950  18.1766870  21.2446110 145.0403700
  20.5643670  21.0783490 142.7825660  21.0849330  20.3632510 142.4166810
  21.2112070  21.7169360 143.0826170  16.9474930  18.1279110 142.4806720
  16.7463990  17.2646470 142.8420060  16.7766980  18.0412470 141.5428320
  24.4263240  12.9387340 145.0093600  24.7065530  12.0955240 145.3653020
  23.6528970  13.1710450 145.5232350  15.7457730  15.2279730 142.4684600
  16.0483630  15.2347160 141.5603750  16.4852320  14.8777590 142.9652260
  18.9642660  14.1714350 143.4540800  18.6164660  13.4938340 142.8743250
  19.1655430  13.7103860 144.2684190  21.1291700  29.1595100 145.0727400
  22.0242490  29.4980070 145.0946160  21.1609330  28.4374510 144.4451680
  14.7687860  24.5322150 143.3014400  15.2062730  25.0751820 143.9571980
  15.2535590  23.7069100 143.3110740  11.9833660  27.3211180 150.7534660
  12.3136670  26.4532240 150.5213300  12.4124660  27.5269700 151.5839620
  16.5795580  25.6520190 148.4136630  16.2791120  25.5285160 149.3140540
  16.4733070  24.7928780 148.0052360  29.3487500  25.4316590 143.1163310
  28.5180460  25.4993240 143.5870540  29.5259330  26.3220710 142.8130170
  28.8043960  22.1764070 145.6197510  29.5662870  22.7460720 145.7257200
  28.8198330  21.6091270 146.3905820  12.3048300  20.7002000 149.8505170
  11.6497140  20.4313640 149.2064870  13.1426250  20.5906480 149.4007150
  29.8103930  23.0314170 150.4639440  30.1812760  22.2481490 150.0575410
  30.4505860  23.7203270 150.2856740  28.8563130  22.4698440 142.7770030
  29.1311970  23.3777320 142.6489250  28.6673870  22.4060970 143.7132020
  25.2538740  15.4943290 144.0723660  25.6723620  15.3074270 143.2320320
  24.9474800  14.6422340 144.3826590  28.7528470  20.4067430 147.7699460
  28.3772070  19.6395360 147.3380750  28.0231590  20.7890130 148.2574390
  11.5186380  17.9100930 145.7930500  10.6150460  18.1731130 145.6182160
  12.0027000  18.1812100 145.0130460  14.0613590  16.9666470 143.7024880
  14.7705290  16.5449690 143.2172160  13.3453530  17.0341700 143.0708230
  13.7087750  13.0205800 142.7427530  14.4315880  13.5614740 143.0608750
  13.9812270  12.7469220 141.8669070  27.5179400  17.8898270 147.0099110
  28.0138520  17.6569140 147.7947990  27.3195470  17.0510110 146.5936750
  28.9466560  16.5259220 149.5436790  28.8365840  16.3715260 150.4819060
  29.7074150  15.9980160 149.3012200  29.8356830  14.3567140 142.7842930
  30.7606140  14.2248320 142.5761220  29.8132620  14.4359960 143.7379380
  29.9095320  15.1277800 145.4099640  29.1146820  15.0622920 145.9392550
  30.1138600  16.0628440 145.3984990  26.8513740  29.1669350 149.4038030
  27.4472810  28.8453920 148.7272450  27.1091890  28.6941170 150.1951300
  28.2053820  13.0889920 149.8707290  28.1442220  12.1451140 149.7238310
  28.9845850  13.1970010 150.4160750  12.5106570  29.2282280 148.8331240
  12.3428610  28.5952960 149.5313130  11.6441080  29.4341680 148.4825430
  13.1334590  13.0599060 146.3363100  13.8913950  13.1727940 145.7627130
  12.6711760  13.8968260 146.2906530  19.6748400  15.1738330 149.3265410
  18.8622910  14.7995220 148.9861290  20.1790040  14.4183410 149.6286600
  24.1773380  11.8380780 150.5648480  24.7802750  12.4100990 151.0397000
  23.4366370  12.4020220 150.3422380  27.3207980  12.2402340 145.8388760
  27.5158610  13.1385790 146.1056190  26.5337850  12.0089420 146.3321710
  14.1169270  27.9215510 146.2781380  13.5916890  28.3023540 145.5743340
  14.0413850  28.5466280 146.9991090  15.5059740  13.5863110 144.8765070
  16.0352500  12.7992910 144.7473020  16.1388060  14.2654300 145.1100600
  17.6997580  13.3238250 147.9310460  17.0700320  12.6225560 148.0980590
  17.1602720  14.0842380 147.7143620  28.8734590  29.4803050 147.5995320
  29.0486780  28.7940790 146.9556240  28.1756160  30.0050100 147.2071990
  16.7162240  29.8697890 145.1530630  17.4481060  29.5857170 144.6054520
  16.9755910  29.6311170 146.0430010  15.8777030  25.9862620 145.1576960
  15.2485910  26.4547720 145.7062790  15.9924860  25.1411840 145.5923150
  23.3326750  20.0368280 131.3078160  23.2520800  19.1222890 131.0369870
  22.9191170  20.5335350 130.6017870  21.4644790  21.8147300 133.1887430
  20.6886890  21.3347740 133.4786000  22.1157720  21.1352950 133.0143590
  15.4810620  22.1267110 134.0663190  14.6495500  21.8715820 134.4659700
  16.0891600  22.1977880 134.8021110  25.4852220  26.2207490 131.9686560
  25.0233750  25.4494730 132.2973730  26.2977770  26.2473560 132.4739010
  15.4611880  26.1607200 134.2621210  15.7639920  25.2704940 134.0831430
  16.2055470  26.7177420 134.0343460  13.8902570  17.0869000 127.8505580
  13.0019270  17.4284970 127.7485460  14.1743760  16.8869320 126.9586410
  11.8535580  19.6874650 133.7345280  12.4251690  18.9196850 133.7348920
  11.8537120  19.9863410 132.8251890  21.7115530  28.5065500 131.5890550
  21.0926970  28.9623000 131.0184990  22.5667310  28.6616960 131.1880250
  20.9053780  24.4904490 133.1957590  20.8362060  23.5494430 133.0346720
  21.6673640  24.5805900 133.7680160  13.0960450  15.0959010 135.5214210
  12.9163290  14.1984760 135.8016970  12.6940530  15.6430880 136.1961160
  21.9358950  17.2974870 133.4226520  22.3123770  16.4246750 133.3100190
  21.8378460  17.6333570 132.5316960  16.0663960  15.6700500 128.8843960
  16.1730710  16.5704230 129.1912720  15.1556320  15.6218470 128.5938610
  25.7183070  14.7925310 130.3554860  26.5392690  14.3021880 130.3980340
  25.7517150  15.3822970 131.1086700  13.7147120  17.5919510 134.1296550
  14.3957230  17.8557880 134.7483950  13.3995170  16.7520380 134.4634560
  17.9071690  18.6386870 133.2169140  18.4149910  19.1367840 133.8574160
  18.4384930  17.8622070 133.0408500  30.0082620  16.8092060 136.9198490
  29.3034790  17.1973770 136.4013600  30.2740540  17.5042350 137.5219420
  16.1907790  13.2785430 137.4832560  16.1926230  13.7957820 136.6778460
  15.3612100  12.8015610 137.4602490  22.5778880  23.3904740 128.9822460
  21.9596150  23.8554190 128.4185180  23.0902130  24.0832220 129.3991970
  17.4410640  22.9180610 135.6606060  17.1080020  23.5449530 136.3027130
  17.6177320  23.4442490 134.8807730  25.9544550  16.7325690 133.1282400
  25.2500120  17.0210580 133.7085510  26.3156710  17.5425800 132.7681960
  15.8723120  14.9895390 135.4903010  16.2139930  15.8337440 135.1956880
  14.9338930  15.1379130 135.6068350  16.6529740  24.8861410 137.4755240
  17.2703740  25.5612490 137.1939690  15.7922860  25.2949390 137.3842740
  11.9462080  24.0761270 126.3562090  11.5690060  24.5648370 125.6246990
  12.2035150  24.7486550 126.9868620  27.5707330  26.3500820 135.3909880
  26.8870850  27.0199930 135.3826550  28.1101620  26.5481470 134.6254740
  29.0231470  16.1780480 133.5191610  28.0756380  16.2119460 133.6507040
  29.3481460  16.9919430 133.9040970  19.5551010  12.4777660 131.8147600
  19.8625990  11.9224550 131.0983100  18.6251710  12.6122120 131.6320590
  25.1066070  28.1944950 134.1055060  25.1193230  27.7907240 133.2377320
  24.5541290  28.9692240 134.0016490  26.4011490  24.9161170 129.1945230
  26.2907820  23.9735500 129.3194650  26.3979740  25.2776810 130.0807990
  24.5051510  23.0974790 135.4337670  24.9220300  22.8834900 134.5991130
  25.2291330  23.3547580 136.0046290  21.9431770  20.5426490 128.5507720
  21.0161050  20.4763870 128.7796190  22.0956590  21.4806620 128.4362960
  21.9300850  16.8143490 125.5474880  20.9904520  16.9757450 125.6327340
  22.2484110  17.5329170 125.0010870  28.4513610  21.4962010 135.5253910
  27.6232240  21.5655100 135.0504040  29.0464090  22.0816320 135.0569740
  25.9729060  22.1046790 129.0542970  25.3541480  21.7666340 128.4069270
  25.9553510  21.4606550 129.7622160  25.4155620  18.2831330 136.4708780
  25.0026800  19.1085040 136.7248770  24.6831570  17.6976370 136.2785140
  17.5488410  21.0691230 131.3327450  17.1445410  20.3568480 130.8373350
  17.6351530  20.7244470 132.2215490  18.0170110  24.7558790 133.4966660
  17.7198400  24.1504260 132.8174440  18.9669930  24.7936100 133.3856020
  16.2617030  17.8434440 135.1126490  16.8131620  17.9529780 134.3379740
  16.7760540  18.2172040 135.8281720  26.1055720  28.3290660 137.1589760
  25.6286280  29.1362850 136.9662370  25.4217510  27.6768990 137.3115970
  17.1088540  24.4940480 140.1474460  16.2117070  24.7180450 140.3947860
  17.1341410  24.6175420 139.1985860  24.1493760  21.3433600 126.0615720
  24.5887040  20.5056030 125.9153540  24.8622180  21.9763000 126.1479860
  15.9359760  21.3653800 138.7231830  15.7967530  22.2376600 139.0919230
  15.0541120  21.0226610 138.5779770  22.2589140  26.2829670 130.0296960
  22.6985050  27.0254000 129.6152350  22.1976030  26.5256240 130.9535920
  17.7340110  27.3075500 140.9316980  17.7055540  27.7118450 140.0645410
  17.5705080  26.3785860 140.7688580  27.7310900  12.5976410 124.3756760
  27.4183560  12.6903240 125.2755830  28.4923370  13.1757440 124.3254190
  14.2493040  19.9636210 128.8334100  14.1290640  20.6898300 128.2215370
  13.9393930  19.1939120 128.3562010  29.6854930  28.0902600 142.2281150
  30.1614650  28.5685490 142.9070230  30.3062090  28.0220090 141.5026650
  11.8878410  23.1351350 134.6402740  11.9658830  23.2700120 133.6958460
  12.5020090  22.4267240 134.8330860  13.1326040  24.8351540 131.0508920
  12.7254120  24.9766130 130.1962520  14.0239050  24.5511700 130.8480130
  29.0888180  25.2815450 139.3881160  29.2151240  25.0427330 138.4698340
  29.1309560  24.4499990 139.8603240  22.9504920  28.9843450 137.9575970
  23.4649590  28.8951460 138.7598400  22.1074000  29.3303150 138.2503880
  24.9259320  29.2698790 127.3859970  24.7660460  28.9801730 128.2841800
  24.7606030  28.4938920 126.8505200  17.4047700  29.0497320 129.1631590
  17.2290180  28.1332860 128.9499390  16.5503440  29.4084610 129.4029390
  24.6285450  26.7786350 125.9457970  23.9350610  26.7763640 125.2860250
  25.3708310  26.3545670 125.5152140  24.1935380  28.4049060 130.0206460
  24.6492330  27.6238440 130.3345080  24.5327900  29.1155880 130.5647640
  28.9412190  17.3347910 140.3530900  28.3256460  17.8427580 139.8246360
  28.6208610  16.4346240 140.2956840  11.9437930  24.1765520 137.1797200
  12.1068970  23.7070880 136.3616570  12.4090380  23.6689080 137.8446040
  16.7156700  13.3071280 132.2157770  16.2724850  14.0880820 131.8842290
  17.2741690  13.6301170 132.9228710  21.0026510  16.1739800 137.8193090
  20.5405880  16.3822820 138.6313030  20.6004620  15.3599150 137.5163760
  26.0031020  17.3948750 138.9489750  25.1524610  17.0954500 139.2698820
  25.8432810  17.6390760 138.0373570  23.0980730  18.8950500 141.0488540
  23.4234140  18.0614250 140.7090770  23.8861060  19.4179020 141.1966870
  19.8315520  12.9281980 127.0963600  19.2069700  12.9241850 127.8216910
  19.7445640  12.0612940 126.6999570  18.7532600  13.8518610 134.0747370
  19.0504930  14.7581440 133.9939390  19.3018160  13.3637390 133.4606940
  16.5070920  18.4304850 129.9439020  16.2811840  18.2142020 130.8485640
  15.7263450  18.8633310 129.5984990  23.7368680  18.4368220 128.5429670
  23.1377570  19.1604020 128.3593290  24.2848290  18.3745000 127.7606120
  18.9470130  19.3290430 140.6099290  18.8513730  18.3885160 140.4599690
  19.7902110  19.5505500 140.2147360  22.3433550  17.0731760 130.5732950
  22.7363120  17.3903960 129.7601640  22.7050400  16.1943640 130.6877470
  14.0780670  15.7404100 138.7633070  13.6844060  16.5879310 138.9705850
  13.3899070  15.1030470 138.9541710  20.6525720  15.8239070 141.8329810
  19.9624040  15.6311270 142.4675900  21.3958020  16.1073710 142.3654110
  11.3797720  13.6632560 132.7963150  11.0910770  14.2335420 133.5088130
  12.1243480  13.1837010 133.1594380  11.5667950  17.6052680 124.0065870
  11.4842620  18.5483440 124.1480860  11.2151010  17.4627590 123.1278220
  22.9288690  19.6637510 134.6683730  22.1969810  20.1724320 135.0173830
  22.5313030  18.8467490 134.3672510  19.3666080  16.3391710 133.0736220
  19.3702140  15.8981660 132.2240760  20.2617200  16.6609040 133.1808040
  15.2168460  16.2218200 132.0330430  14.8768510  16.6993430 132.7897480
  14.4545780  15.7683320 131.6731530  19.4286230  17.3403790 126.0642980
  19.5499050  17.2990270 127.0128800  19.0434740  18.2027940 125.9089710
  23.3914600  15.1171190 134.0806670  23.4087340  15.5679840 134.9248520
  23.1430180  14.2176830 134.2940110  18.4407730  19.6504930 125.4626280
  17.8724630  19.2023180 124.8362190  19.1496730  20.0097710 124.9291430
  26.8185350  12.5303370 139.9193050  27.1431120  11.7993030 140.4451030
  26.8541860  12.2117010 139.0174040  13.5176910  23.5516950 139.3393010
  13.1331700  22.9110620 139.9375970  13.8289100  24.2553070 139.9087740
  19.6674050  20.3993490 134.8201630  20.0344180  19.9252060 135.5662970
  19.4779110  21.2735060 135.1609970  12.5314540  15.1437180 130.9495100
  12.2461460  14.7792850 131.7873720  12.4693400  14.4117640 130.3358240
  17.4573420  19.4402130 137.1385840  17.1530490  20.3194110 137.3636200
  18.4119880  19.5001920 137.1743280  15.9855210  23.6463120 127.7352690
  15.2117470  23.1060740 127.5751410  16.7149840  23.1269730 127.3970450
  26.7443190  22.6428480 133.5279080  27.4642310  23.1383770 133.1375190
  26.5425010  21.9646370 132.8832950  22.2053130  14.0366440 127.6708470
  21.3917740  13.5379610 127.5953780  22.0115080  14.8764690 127.2544820
  22.1261990  22.7137540 139.4148080  22.0599300  21.7933210 139.1605670
  21.4967130  22.8112980 140.1292720  24.9201520  18.4086090 125.9670630
  25.8081140  18.7203320 125.7921970  24.8906610  17.5358340 125.5751210
  16.0292610  23.3143500 131.3731500  16.5471280  22.5111760 131.3188390
  15.5776630  23.2522640 132.2148330  20.9162110  24.5809780 126.6458800
  21.2577810  25.3252010 126.1502120  20.0874820  24.8940900 127.0083630
  13.5137150  20.2804870 138.2857200  13.1552090  20.9458720 138.8730540
  13.2191710  19.4488420 138.6569820  16.7150270  20.7389110 141.1696750
  16.4150410  20.8846290 140.2724570  17.4861510  20.1794400 141.0770140
  22.0578720  25.5358110 139.1651880  22.0723260  24.6039070 138.9470790
  21.3503820  25.6217870 139.8041650  27.1915790  19.7197930 125.4350490
  27.1079510  20.1512150 124.5846930  27.9109980  20.1796280 125.8677310
  28.2689930  22.1765450 138.5120460  27.5438120  22.7694230 138.3149850
  28.7965390  22.1688990 137.7133830  28.2203040  26.5740190 128.1632620
  27.5779200  25.9195810 128.4376340  27.8333700  26.9795280 127.3873290
  23.7989520  23.9025620 132.0104310  24.1513340  23.3053750 131.3505680
  22.9151850  23.5769850 132.1812560  19.8852800  24.6623310 129.4174720
  20.5723930  25.2092520 129.7982310  19.0985220  25.2064040 129.4524330
  12.0245200  20.2796130 124.9091800  12.8940050  20.5620930 125.1927720
  11.5335520  21.0932000 124.7940610  19.1880010  21.6669340 129.0300080
  19.6442790  22.4774590 129.2560270  18.8368220  21.3492480 129.8618570
  21.4912620  27.1775680 136.2592380  22.1354840  27.3835060 136.9365800
  21.8542060  26.4164080 135.8063230  15.0891790  12.0106990 129.5022600
  14.9606420  12.0024890 130.4507520  14.2653810  12.3490080 129.1513610
  22.7644700  25.1808030 134.9769830  23.4066930  24.4801190 135.0902000
  23.2894050  25.9606470 134.7966720  26.6100420  25.4656650 124.7008970
  26.3838000  24.7487090 125.2933610  26.2196620  25.2169090 123.8630720
  24.5382320  25.9802930 138.1805890  24.8738560  26.5669620 138.8583810
  23.6182660  25.8495640 138.4103680  12.3916450  29.4923510 125.4753430
  12.7514090  30.0912850 124.8210700  12.2508790  30.0383400 126.2488460
  12.0885720  13.7698110 138.9629300  11.3744240  13.9695030 139.5681910
  12.5080760  12.9937680 139.3344100  26.1916670  23.3828590 126.3623130
  25.9038370  23.8441280 127.1501010  26.9868840  22.9226360 126.6307350
  12.3758310  27.7578370 139.9495830  12.4849430  26.8173110 139.8091220
  11.7238870  28.0233120 139.3009560  20.3670900  26.0294260 141.3493950
  20.0467770  25.3103500 141.8939640  19.6929260  26.7049330 141.4230010
  18.4085070  26.8754710 126.2927100  18.3995170  27.6084400 125.6771610
  17.4883430  26.6286290 126.3854060  14.0091710  22.0969600 127.0373860
  13.4019660  22.8368500 127.0469160  14.4841060  22.1868960 126.2112060
  23.5824500  16.2620420 136.7130750  23.9505320  15.4415630 137.0410320
  22.7222700  16.3222310 137.1286400  26.9486530  15.2177360 127.5218310
  26.3199690  15.3223030 126.8076540  26.4538450  15.4374140 128.3112190
  21.3944670  26.9382950 124.9552290  21.4956650  26.7346940 124.0254270
  20.4946410  26.6841230 125.1600070  18.9170560  17.4963310 128.9376190
  18.2086710  17.9649650 129.3789800  19.2015040  16.8385320 129.5721380
  20.5426490  18.9160010 136.9368720  21.0411740  19.3905830 137.6020570
  20.6849440  17.9923530 137.1438750  22.9485990  14.2213970 130.3771980
  22.8253770  14.2400100 129.4281490  23.8970550  14.2692910 130.4970380
  20.0362780  29.4569270 129.6499960  20.2904280  29.4190660 128.7279330
  19.0875260  29.3302600 129.6428210  17.1205580  15.8048390 126.3126900
  17.9696110  16.2418540 126.2467090  16.7536850  16.1168650 127.1398960
  27.7493350  15.1327970 137.7797110  27.2466950  15.8733370 138.1190920
  28.5650010  15.5211970 137.4633900  26.0415360  20.3761150 131.2258470
  25.1005500  20.3911380 131.4006160  26.3559430  19.5897110 131.6718770
  16.0197000  22.0580750 124.7862430  16.7860270  21.9462110 125.3487860
  16.0971690  21.3618720 124.1339200  14.7143760  19.4905820 125.4695320
  14.7947350  18.5433330 125.5812720  15.6063510  19.8212700 125.5755980
  28.0440940  27.5470000 132.9012730  28.1688360  28.3701170 133.3736540
  28.9106500  27.3360730 132.5536880  15.5158470  29.6401210 132.5729860
  16.2520950  29.0916670 132.8438430  15.8999390  30.5057220 132.4335850
  12.4003950  25.7074780 128.4471370  11.4743730  25.9495920 128.4376780
  12.8660380  26.5349040 128.3256120  14.5216750  28.8247280 141.7615440
  15.3229480  29.1459330 142.1750840  14.0068570  28.4642860 142.4835350
  18.6260780  28.8131520 124.3955430  19.4189390  29.1020350 123.9437220
  18.1065130  28.3823690 123.7167910  23.3581380  24.9327150 141.7090850
  22.7519540  24.9558750 140.9686600  23.0535490  24.2010190 142.2458100
  24.7881750  28.6607440 140.3200260  25.7403500  28.5765460 140.2700500
  24.6409970  29.3249150 140.9934050  27.6790950  28.0401650 125.8192170
  27.3932460  27.6266790 125.0046350  27.4810500  28.9689360 125.6992690
  12.2414560  21.3120740 140.7051490  12.7453580  20.7328020 141.2767720
  11.5021980  21.5960970 141.2427860  19.1438180  24.0334930 124.2597780
  19.0388820  23.4187280 124.9859160  18.9762400  23.5100820 123.4760790
  19.2952500  22.7191730 140.2387010  18.5298170  23.2876730 140.1541680
  19.4768460  22.4267940 139.3455240  22.3840910  23.0954960 124.8639770
  21.8351010  23.5424260 125.5082510  23.0060170  22.5904210 125.3877440
  26.4375850  24.4497060 140.7962030  27.1785320  24.7872820 140.2929490
  25.6748530  24.6189120 140.2431800  14.2737640  19.4550330 141.6001560
  14.3142980  19.1564200 142.5086790  15.1283140  19.8557940 141.4409080
  18.0516030  22.0545880 126.7605070  18.4732450  21.8885750 127.6036460
  18.1766870  21.2446110 126.2660210  16.2143450  18.0342430 139.5676050
  15.6839910  17.5433380 138.9399390  16.8831520  18.4626630 139.0333980
  20.5643670  21.0783490 124.0082170  21.0849330  20.3632510 123.6423320
  21.2112070  21.7169360 124.3082680  25.1121510  22.5011890 139.3317240
  25.5262530  22.6556970 140.1807660  24.1772510  22.6267110 139.4943020
  25.5843680  19.8408050 141.3356390  26.1664450  19.0860370 141.2476870
  25.7605450  20.3715490 140.5587870  16.7015750  15.0004800 139.6473340
  16.6072620  14.3825550 138.9224210  16.1213140  15.7271090 139.4203250
  19.4677190  13.5578040 136.6800730  19.0194490  13.5802300 135.8346280
  18.8342390  13.1597060 137.2771030  19.8736740  22.4532370 137.3013170
  20.2924850  23.2965100 137.1289410  18.9545370  22.5904410 137.0719950
  22.2100640  20.1848550 138.6851010  22.3296850  19.5889690 139.4245850
  23.0694640  20.2218240 138.2652310  24.5488540  20.7385740 137.2613520
  24.0223760  21.2628360 136.6578660  24.8919880  21.3713130 137.8923250
  16.9474930  18.1279110 123.7063230  16.7463990  17.2646470 124.0676570
  16.7766980  18.0412470 122.7684830  17.7244160  28.7585380 138.4170900
  17.1865250  29.4831440 138.0979600  17.9778120  28.2815720 137.6268240
  18.9769410  16.7269900 139.9426830  19.5669100  16.4185750 140.6304650
  18.1589650  16.2549650 140.0986730  23.7962840  16.3435710 140.1759850
  23.1078360  15.6817250 140.1109840  24.5168860  15.8973980 140.6208310
  24.4263240  12.9387340 126.2350110  24.7065530  12.0955240 126.5909530
  23.6528970  13.1710450 126.7488860  15.7457730  15.2279730 123.6941110
  16.0483630  15.2347160 122.7860260  16.4852320  14.8777590 124.1908770
  20.5806370  29.9936590 138.6757550  20.5065070  30.8971730 138.9829920
  19.6785210  29.6748490 138.6479620  18.9642660  14.1714350 124.6797310
  18.6164660  13.4938340 124.0999760  19.1655430  13.7103860 125.4940700
  21.1291700  29.1595100 126.2983910  22.0242490  29.4980070 126.3202670
  21.1609330  28.4374510 125.6708190  14.7687860  24.5322150 124.5270910
  15.2062730  25.0751820 125.1828490  15.2535590  23.7069100 124.5367250
  11.9833660  27.3211180 131.9791170  12.3136670  26.4532240 131.7469810
  12.4124660  27.5269700 132.8096130  16.5795580  25.6520190 129.6393140
  16.2791120  25.5285160 130.5397050  16.4733070  24.7928780 129.2308870
  12.4723870  28.1881770 134.7172800  12.0354860  28.3682570 135.5496950
  13.0401550  28.9456390 134.5754520  28.1086050  27.6898770 139.0050110
  27.5088040  27.7491330 138.2614030  28.2379950  26.7503750 139.1346960
  29.3487500  25.4316590 124.3419820  28.5180460  25.4993240 124.8127050
  29.5259330  26.3220710 124.0386680  28.8043960  22.1764070 126.8454020
  29.5662870  22.7460720 126.9513710  28.8198330  21.6091270 127.6162330
  12.3048300  20.7002000 131.0761680  11.6497140  20.4313640 130.4321380
  13.1426250  20.5906480 130.6263660  29.8103930  23.0314170 131.6895950
  30.1812760  22.2481490 131.2831920  30.4505860  23.7203270 131.5113250
  26.7937690  24.4150750 137.1026270  25.9797530  24.8447910 137.3652060
  27.2011890  25.0269160 136.4895320  28.8563130  22.4698440 124.0026540
  29.1311970  23.3777320 123.8745760  28.6673870  22.4060970 124.9388530
  25.2538740  15.4943290 125.2980170  25.6723620  15.3074270 124.4576830
  24.9474800  14.6422340 125.6083100  28.7528470  20.4067430 128.9955970
  28.3772070  19.6395360 128.5637260  28.0231590  20.7890130 129.4830900
  13.3424230  21.0854570 135.6165020  13.7097270  20.9981970 136.4961040
  12.7735050  20.3221120 135.5171880  28.1428090  19.5538950 138.6295490
  27.9114180  19.3251700 137.7293440  28.4032640  20.4738500 138.5840380
  12.8940230  17.9963660 139.5223440  11.9996280  17.9630420 139.8617150
  13.4337780  18.1950450 140.2874690  26.5816160  14.7795380 141.4075190
  27.4586340  14.7878780 141.7909190  26.5937000  14.0426220 140.7967540
  11.5186380  17.9100930 127.0187010  10.6150460  18.1731130 126.8438670
  12.0027000  18.1812100 126.2386970  28.0279430  18.6324920 132.2963210
  28.5516910  18.1387570 131.6653380  28.6138850  18.7675280 133.0410780
  28.2069150  18.7164790 135.8182760  27.2571860  18.6828330 135.9327750
  28.3882160  19.6264900 135.5832530  14.0613590  16.9666470 124.9281390
  14.7705290  16.5449690 124.4428670  13.3453530  17.0341700 124.2964740
  13.7087750  13.0205800 123.9684040  14.4315880  13.5614740 124.2865260
  13.9812270  12.7469220 123.0925580  27.5179400  17.8898270 128.2355620
  28.0138520  17.6569140 129.0204500  27.3195470  17.0510110 127.8193260
  13.3979940  12.2711990 133.8706660  14.0456130  11.7209370 133.4301820
  13.8181780  12.5255140 134.6922470  28.9466560  16.5259220 130.7693300
  28.8365840  16.3715260 131.7075570  29.7074150  15.9980160 130.5268710
  27.2932280  12.4653350 137.2276300  27.9304500  13.0787490 137.5935490
  27.4407170  12.5014010 136.2825530  29.8356830  14.3567140 124.0099440
  30.7606140  14.2248320 123.8017730  29.8132620  14.4359960 124.9635890
  29.9095320  15.1277800 126.6356150  29.1146820  15.0622920 127.1649060
  30.1138600  16.0628440 126.6241500  26.8513740  29.1669350 130.6294540
  27.4472810  28.8453920 129.9528960  27.1091890  28.6941170 131.4207810
  13.1511940  12.4267660 136.6131980  12.8026760  12.8831480 137.3790160
  12.8199640  11.5324790 136.6954410  14.7576310  25.5987260 140.7785170
  14.7145940  25.2280170 141.6599630  14.8887320  26.5364830 140.9186990
  18.4582340  27.1546850 136.3794890  18.2173700  27.4221410 135.4925410
  19.3984980  27.3252580 136.4345750  20.6636760  13.6179540 140.1351400
  20.6025650  14.2101370 140.8846810  21.6037140  13.5105500 139.9901660
  23.3011320  13.2749600 139.7743690  23.9151730  13.5928890 139.1124770
  23.8460880  12.7898190 140.3939550  29.7186500  29.1741230 137.1805530
  29.2244780  29.5710100 136.4632660  29.1099790  28.5490440 137.5742810
  13.8232580  11.9543860 139.8882750  14.3715570  11.7731910 139.1248860
  13.8887890  11.1637970 140.4239060  14.5964340  28.5449510 137.8982950
  14.0024660  28.4134210 138.6372990  14.5888180  27.7087650 137.4325050
  24.0419360  11.8381740 136.1012980  23.1679200  12.1716850 135.8985910
  23.9330110  11.3654920 136.9264850  24.9491340  14.0452610 137.4854700
  24.6204700  13.2304370 137.1056430  25.8973640  14.0022420 137.3620390
  27.4025950  29.8164650 134.4592270  26.9428920  30.5680460 134.0850290
  26.7738410  29.0971120 134.4007070  14.2276570  25.9107890 136.8490990
  13.5010630  25.2913180 136.7816940  14.2885720  26.3048500 135.9789070
  17.8321670  28.1252890 133.6340400  18.3486690  27.5140250 133.1088660
  18.4819050  28.6281670 134.1251410  20.5717170  29.0161380 134.4609380
  20.8594980  28.7615680 133.5842390  21.0840390  28.4638740 135.0514950
  21.7894180  12.7551580 135.0405890  21.0065970  13.2297080 135.3202650
  21.4957110  11.8506410 134.9319070  26.3415250  13.4574680 133.0854980
  26.7823340  13.4019780 132.2376580  26.0722840  14.3732690 133.1565160
  28.2053820  13.0889920 131.0963800  28.1442220  12.1451140 130.9494820
  28.9845850  13.1970010 131.6417260  12.5106570  29.2282280 130.0587750
  12.3428610  28.5952960 130.7569640  11.6441080  29.4341680 129.7081940
  13.1334590  13.0599060 127.5619610  13.8913950  13.1727940 126.9883640
  12.6711760  13.8968260 127.5163040  19.6748400  15.1738330 130.5521920
  18.8622910  14.7995220 130.2117800  20.1790040  14.4183410 130.8543110
  24.1773380  11.8380780 131.7904990  24.7802750  12.4100990 132.2653510
  23.4366370  12.4020220 131.5678890  27.3207980  12.2402340 127.0645270
  27.5158610  13.1385790 127.3312700  26.5337850  12.0089420 127.5578220
  14.1169270  27.9215510 127.5037890  13.5916890  28.3023540 126.7999850
  14.0413850  28.5466280 128.2247600  15.5059740  13.5863110 126.1021580
  16.0352500  12.7992910 125.9729530  16.1388060  14.2654300 126.3357110
  17.6997580  13.3238250 129.1566970  17.0700320  12.6225560 129.3237100
  17.1602720  14.0842380 128.9400130  20.6389530  29.9377480 141.8277580
  21.5656840  29.7021750 141.8713540  20.6239960  30.7649480 141.3463610
  28.8734590  29.4803050 128.8251830  29.0486780  28.7940790 128.1812750
  28.1756160  30.0050100 128.4328500  17.8253140  12.6022230 141.5919460
  17.5437410  13.1055830 140.8280280  18.2072840  11.8043980 141.2261590
  16.7162240  29.8697890 126.3787140  17.4481060  29.5857170 125.8311030
  16.9755910  29.6311170 127.2686520  15.8777030  25.9862620 126.3833470
  15.2485910  26.4547720 126.9319300  15.9924860  25.1411840 126.8179660
  24.4268600  12.0175810 142.1699930  24.3134050  12.3370420 143.0651450
  25.2438340  12.4188320 141.8737210  27.2067090  29.1647340 141.6518620
  27.9992410  28.6696570 141.4444580  27.5000240  29.8437480 142.2594230
  23.3326750  20.0368280 112.5334670  23.2520800  19.1222890 112.2626380
  22.9191170  20.5335350 111.8274380  21.4644790  21.8147300 114.4143940
  20.6886890  21.3347740 114.7042510  22.1157720  21.1352950 114.2400100
  15.4810620  22.1267110 115.2919700  14.6495500  21.8715820 115.6916210
  16.0891600  22.1977880 116.0277620  25.4852220  26.2207490 113.1943070
  25.0233750  25.4494730 113.5230240  26.2977770  26.2473560 113.6995520
  15.4611880  26.1607200 115.4877720  15.7639920  25.2704940 115.3087940
  16.2055470  26.7177420 115.2599970  13.8902570  17.0869000 109.0762090
  13.0019270  17.4284970 108.9741970  14.1743760  16.8869320 108.1842920
  11.8535580  19.6874650 114.9601790  12.4251690  18.9196850 114.9605430
  11.8537120  19.9863410 114.0508400  21.7115530  28.5065500 112.8147060
  21.0926970  28.9623000 112.2441500  22.5667310  28.6616960 112.4136760
  20.9053780  24.4904490 114.4214100  20.8362060  23.5494430 114.2603230
  21.6673640  24.5805900 114.9936670  13.0960450  15.0959010 116.7470720
  12.9163290  14.1984760 117.0273480  12.6940530  15.6430880 117.4217670
  21.9358950  17.2974870 114.6483030  22.3123770  16.4246750 114.5356700
  21.8378460  17.6333570 113.7573470  16.0663960  15.6700500 110.1100470
  16.1730710  16.5704230 110.4169230  15.1556320  15.6218470 109.8195120
  25.7183070  14.7925310 111.5811370  26.5392690  14.3021880 111.6236850
  25.7517150  15.3822970 112.3343210  13.7147120  17.5919510 115.3553060
  14.3957230  17.8557880 115.9740460  13.3995170  16.7520380 115.6891070
  17.9071690  18.6386870 114.4425650  18.4149910  19.1367840 115.0830670
  18.4384930  17.8622070 114.2665010  30.0082620  16.8092060 118.1455000
  29.3034790  17.1973770 117.6270110  30.2740540  17.5042350 118.7475930
  16.1907790  13.2785430 118.7089070  16.1926230  13.7957820 117.9034970
  15.3612100  12.8015610 118.6859000  22.5778880  23.3904740 110.2078970
  21.9596150  23.8554190 109.6441690  23.0902130  24.0832220 110.6248480
  17.4410640  22.9180610 116.8862570  17.1080020  23.5449530 117.5283640
  17.6177320  23.4442490 116.1064240  25.9544550  16.7325690 114.3538910
  25.2500120  17.0210580 114.9342020  26.3156710  17.5425800 113.9938470
  15.8723120  14.9895390 116.7159520  16.2139930  15.8337440 116.4213390
  14.9338930  15.1379130 116.8324860  16.6529740  24.8861410 118.7011750
  17.2703740  25.5612490 118.4196200  15.7922860  25.2949390 118.6099250
  11.9462080  24.0761270 107.5818600  11.5690060  24.5648370 106.8503500
  12.2035150  24.7486550 108.2125130  27.5707330  26.3500820 116.6166390
  26.8870850  27.0199930 116.6083060  28.1101620  26.5481470 115.8511250
  29.0231470  16.1780480 114.7448120  28.0756380  16.2119460 114.8763550
  29.3481460  16.9919430 115.1297480  19.5551010  12.4777660 113.0404110
  19.8625990  11.9224550 112.3239610  18.6251710  12.6122120 112.8577100
  25.1066070  28.1944950 115.3311570  25.1193230  27.7907240 114.4633830
  24.5541290  28.9692240 115.2273000  26.4011490  24.9161170 110.4201740
  26.2907820  23.9735500 110.5451160  26.3979740  25.2776810 111.3064500
  24.5051510  23.0974790 116.6594180  24.9220300  22.8834900 115.8247640
  25.2291330  23.3547580 117.2302800  21.9431770  20.5426490 109.7764230
  21.0161050  20.4763870 110.0052700  22.0956590  21.4806620 109.6619470
  21.9300850  16.8143490 106.7731390  20.9904520  16.9757450 106.8583850
  22.2484110  17.5329170 106.2267380  28.4513610  21.4962010 116.7510420
  27.6232240  21.5655100 116.2760550  29.0464090  22.0816320 116.2826250
  25.9729060  22.1046790 110.2799480  25.3541480  21.7666340 109.6325780
  25.9553510  21.4606550 110.9878670  25.4155620  18.2831330 117.6965290
  25.0026800  19.1085040 117.9505280  24.6831570  17.6976370 117.5041650
  17.5488410  21.0691230 112.5583960  17.1445410  20.3568480 112.0629860
  17.6351530  20.7244470 113.4472000  18.0170110  24.7558790 114.7223170
  17.7198400  24.1504260 114.0430950  18.9669930  24.7936100 114.6112530
  16.2617030  17.8434440 116.3383000  16.8131620  17.9529780 115.5636250
  16.7760540  18.2172040 117.0538230  26.1055720  28.3290660 118.3846270
  25.6286280  29.1362850 118.1918880  25.4217510  27.6768990 118.5372480
  17.1088540  24.4940480 121.3730970  16.2117070  24.7180450 121.6204370
  17.1341410  24.6175420 120.4242370  24.1493760  21.3433600 107.2872230
  24.5887040  20.5056030 107.1410050  24.8622180  21.9763000 107.3736370
  15.9359760  21.3653800 119.9488340  15.7967530  22.2376600 120.3175740
  15.0541120  21.0226610 119.8036280  22.2589140  26.2829670 111.2553470
  22.6985050  27.0254000 110.8408860  22.1976030  26.5256240 112.1792430
  17.7340110  27.3075500 122.1573490  17.7055540  27.7118450 121.2901920
  17.5705080  26.3785860 121.9945090  27.7310900  12.5976410 105.6013270
  27.4183560  12.6903240 106.5012340  28.4923370  13.1757440 105.5510700
  14.2493040  19.9636210 110.0590610  14.1290640  20.6898300 109.4471880
  13.9393930  19.1939120 109.5818520  29.6854930  28.0902600 123.4537660
  30.1614650  28.5685490 124.1326740  30.3062090  28.0220090 122.7283160
  11.8878410  23.1351350 115.8659250  11.9658830  23.2700120 114.9214970
  12.5020090  22.4267240 116.0587370  13.1326040  24.8351540 112.2765430
  12.7254120  24.9766130 111.4219030  14.0239050  24.5511700 112.0736640
  29.0888180  25.2815450 120.6137670  29.2151240  25.0427330 119.6954850
  29.1309560  24.4499990 121.0859750  22.9504920  28.9843450 119.1832480
  23.4649590  28.8951460 119.9854910  22.1074000  29.3303150 119.4760390
  24.9259320  29.2698790 108.6116480  24.7660460  28.9801730 109.5098310
  24.7606030  28.4938920 108.0761710  17.4047700  29.0497320 110.3888100
  17.2290180  28.1332860 110.1755900  16.5503440  29.4084610 110.6285900
  24.6285450  26.7786350 107.1714480  23.9350610  26.7763640 106.5116760
  25.3708310  26.3545670 106.7408650  24.1935380  28.4049060 111.2462970
  24.6492330  27.6238440 111.5601590  24.5327900  29.1155880 111.7904150
  28.9412190  17.3347910 121.5787410  28.3256460  17.8427580 121.0502870
  28.6208610  16.4346240 121.5213350  11.9437930  24.1765520 118.4053710
  12.1068970  23.7070880 117.5873080  12.4090380  23.6689080 119.0702550
  16.7156700  13.3071280 113.4414280  16.2724850  14.0880820 113.1098800
  17.2741690  13.6301170 114.1485220  21.0026510  16.1739800 119.0449600
  20.5405880  16.3822820 119.8569540  20.6004620  15.3599150 118.7420270
  26.0031020  17.3948750 120.1746260  25.1524610  17.0954500 120.4955330
  25.8432810  17.6390760 119.2630080  23.0980730  18.8950500 122.2745050
  23.4234140  18.0614250 121.9347280  23.8861060  19.4179020 122.4223380
  19.8315520  12.9281980 108.3220110  19.2069700  12.9241850 109.0473420
  19.7445640  12.0612940 107.9256080  18.7532600  13.8518610 115.3003880
  19.0504930  14.7581440 115.2195900  19.3018160  13.3637390 114.6863450
  16.5070920  18.4304850 111.1695530  16.2811840  18.2142020 112.0742150
  15.7263450  18.8633310 110.8241500  23.7368680  18.4368220 109.7686180
  23.1377570  19.1604020 109.5849800  24.2848290  18.3745000 108.9862630
  18.9470130  19.3290430 121.8355800  18.8513730  18.3885160 121.6856200
  19.7902110  19.5505500 121.4403870  22.3433550  17.0731760 111.7989460
  22.7363120  17.3903960 110.9858150  22.7050400  16.1943640 111.9133980
  14.0780670  15.7404100 119.9889580  13.6844060  16.5879310 120.1962360
  13.3899070  15.1030470 120.1798220  20.6525720  15.8239070 123.0586320
  19.9624040  15.6311270 123.6932410  21.3958020  16.1073710 123.5910620
  11.3797720  13.6632560 114.0219660  11.0910770  14.2335420 114.7344640
  12.1243480  13.1837010 114.3850890  11.5667950  17.6052680 105.2322380
  11.4842620  18.5483440 105.3737370  11.2151010  17.4627590 104.3534730
  22.9288690  19.6637510 115.8940240  22.1969810  20.1724320 116.2430340
  22.5313030  18.8467490 115.5929020  19.3666080  16.3391710 114.2992730
  19.3702140  15.8981660 113.4497270  20.2617200  16.6609040 114.4064550
  15.2168460  16.2218200 113.2586940  14.8768510  16.6993430 114.0153990
  14.4545780  15.7683320 112.8988040  19.4286230  17.3403790 107.2899490
  19.5499050  17.2990270 108.2385310  19.0434740  18.2027940 107.1346220
  23.3914600  15.1171190 115.3063180  23.4087340  15.5679840 116.1505030
  23.1430180  14.2176830 115.5196620  18.4407730  19.6504930 106.6882790
  17.8724630  19.2023180 106.0618700  19.1496730  20.0097710 106.1547940
  26.8185350  12.5303370 121.1449560  27.1431120  11.7993030 121.6707540
  26.8541860  12.2117010 120.2430550  13.5176910  23.5516950 120.5649520
  13.1331700  22.9110620 121.1632480  13.8289100  24.2553070 121.1344250
  19.6674050  20.3993490 116.0458140  20.0344180  19.9252060 116.7919480
  19.4779110  21.2735060 116.3866480  12.5314540  15.1437180 112.1751610
  12.2461460  14.7792850 113.0130230  12.4693400  14.4117640 111.5614750
  17.4573420  19.4402130 118.3642350  17.1530490  20.3194110 118.5892710
  18.4119880  19.5001920 118.3999790  15.9855210  23.6463120 108.9609200
  15.2117470  23.1060740 108.8007920  16.7149840  23.1269730 108.6226960
  26.7443190  22.6428480 114.7535590  27.4642310  23.1383770 114.3631700
  26.5425010  21.9646370 114.1089460  22.2053130  14.0366440 108.8964980
  21.3917740  13.5379610 108.8210290  22.0115080  14.8764690 108.4801330
  22.1261990  22.7137540 120.6404590  22.0599300  21.7933210 120.3862180
  21.4967130  22.8112980 121.3549230  24.9201520  18.4086090 107.1927140
  25.8081140  18.7203320 107.0178480  24.8906610  17.5358340 106.8007720
  16.0292610  23.3143500 112.5988010  16.5471280  22.5111760 112.5444900
  15.5776630  23.2522640 113.4404840  20.9162110  24.5809780 107.8715310
  21.2577810  25.3252010 107.3758630  20.0874820  24.8940900 108.2340140
  13.5137150  20.2804870 119.5113710  13.1552090  20.9458720 120.0987050
  13.2191710  19.4488420 119.8826330  16.7150270  20.7389110 122.3953260
  16.4150410  20.8846290 121.4981080  17.4861510  20.1794400 122.3026650
  22.0578720  25.5358110 120.3908390  22.0723260  24.6039070 120.1727300
  21.3503820  25.6217870 121.0298160  27.1915790  19.7197930 106.6607000
  27.1079510  20.1512150 105.8103440  27.9109980  20.1796280 107.0933820
  28.2689930  22.1765450 119.7376970  27.5438120  22.7694230 119.5406360
  28.7965390  22.1688990 118.9390340  28.2203040  26.5740190 109.3889130
  27.5779200  25.9195810 109.6632850  27.8333700  26.9795280 108.6129800
  23.7989520  23.9025620 113.2360820  24.1513340  23.3053750 112.5762190
  22.9151850  23.5769850 113.4069070  19.8852800  24.6623310 110.6431230
  20.5723930  25.2092520 111.0238820  19.0985220  25.2064040 110.6780840
  12.0245200  20.2796130 106.1348310  12.8940050  20.5620930 106.4184230
  11.5335520  21.0932000 106.0197120  19.1880010  21.6669340 110.2556590
  19.6442790  22.4774590 110.4816780  18.8368220  21.3492480 111.0875080
  21.4912620  27.1775680 117.4848890  22.1354840  27.3835060 118.1622310
  21.8542060  26.4164080 117.0319740  15.0891790  12.0106990 110.7279110
  14.9606420  12.0024890 111.6764030  14.2653810  12.3490080 110.3770120
  22.7644700  25.1808030 116.2026340  23.4066930  24.4801190 116.3158510
  23.2894050  25.9606470 116.0223230  26.6100420  25.4656650 105.9265480
  26.3838000  24.7487090 106.5190120  26.2196620  25.2169090 105.0887230
  24.5382320  25.9802930 119.4062400  24.8738560  26.5669620 120.0840320
  23.6182660  25.8495640 119.6360190  12.3916450  29.4923510 106.7009940
  12.7514090  30.0912850 106.0467210  12.2508790  30.0383400 107.4744970
  12.0885720  13.7698110 120.1885810  11.3744240  13.9695030 120.7938420
  12.5080760  12.9937680 120.5600610  26.1916670  23.3828590 107.5879640
  25.9038370  23.8441280 108.3757520  26.9868840  22.9226360 107.8563860
  12.3758310  27.7578370 121.1752340  12.4849430  26.8173110 121.0347730
  11.7238870  28.0233120 120.5266070  20.3670900  26.0294260 122.5750460
  20.0467770  25.3103500 123.1196150  19.6929260  26.7049330 122.6486520
  18.4085070  26.8754710 107.5183610  18.3995170  27.6084400 106.9028120
  17.4883430  26.6286290 107.6110570  14.0091710  22.0969600 108.2630370
  13.4019660  22.8368500 108.2725670  14.4841060  22.1868960 107.4368570
  23.5824500  16.2620420 117.9387260  23.9505320  15.4415630 118.2666830
  22.7222700  16.3222310 118.3542910  26.9486530  15.2177360 108.7474820
  26.3199690  15.3223030 108.0333050  26.4538450  15.4374140 109.5368700
  21.3944670  26.9382950 106.1808800  21.4956650  26.7346940 105.2510780
  20.4946410  26.6841230 106.3856580  18.9170560  17.4963310 110.1632700
  18.2086710  17.9649650 110.6046310  19.2015040  16.8385320 110.7977890
  20.5426490  18.9160010 118.1625230  21.0411740  19.3905830 118.8277080
  20.6849440  17.9923530 118.3695260  22.9485990  14.2213970 111.6028490
  22.8253770  14.2400100 110.6538000  23.8970550  14.2692910 111.7226890
  20.0362780  29.4569270 110.8756470  20.2904280  29.4190660 109.9535840
  19.0875260  29.3302600 110.8684720  17.1205580  15.8048390 107.5383410
  17.9696110  16.2418540 107.4723600  16.7536850  16.1168650 108.3655470
  27.7493350  15.1327970 119.0053620  27.2466950  15.8733370 119.3447430
  28.5650010  15.5211970 118.6890410  26.0415360  20.3761150 112.4514980
  25.1005500  20.3911380 112.6262670  26.3559430  19.5897110 112.8975280
  16.0197000  22.0580750 106.0118940  16.7860270  21.9462110 106.5744370
  16.0971690  21.3618720 105.3595710  14.7143760  19.4905820 106.6951830
  14.7947350  18.5433330 106.8069230  15.6063510  19.8212700 106.8012490
  28.0440940  27.5470000 114.1269240  28.1688360  28.3701170 114.5993050
  28.9106500  27.3360730 113.7793390  15.5158470  29.6401210 113.7986370
  16.2520950  29.0916670 114.0694940  15.8999390  30.5057220 113.6592360
  12.4003950  25.7074780 109.6727880  11.4743730  25.9495920 109.6633290
  12.8660380  26.5349040 109.5512630  14.5216750  28.8247280 122.9871950
  15.3229480  29.1459330 123.4007350  14.0068570  28.4642860 123.7091860
  18.6260780  28.8131520 105.6211940  19.4189390  29.1020350 105.1693730
  18.1065130  28.3823690 104.9424420  23.3581380  24.9327150 122.9347360
  22.7519540  24.9558750 122.1943110  23.0535490  24.2010190 123.4714610
  24.7881750  28.6607440 121.5456770  25.7403500  28.5765460 121.4957010
  24.6409970  29.3249150 122.2190560  27.6790950  28.0401650 107.0448680
  27.3932460  27.6266790 106.2302860  27.4810500  28.9689360 106.9249200
  12.2414560  21.3120740 121.9308000  12.7453580  20.7328020 122.5024230
  11.5021980  21.5960970 122.4684370  19.1438180  24.0334930 105.4854290
  19.0388820  23.4187280 106.2115670  18.9762400  23.5100820 104.7017300
  19.2952500  22.7191730 121.4643520  18.5298170  23.2876730 121.3798190
  19.4768460  22.4267940 120.5711750  22.3840910  23.0954960 106.0896280
  21.8351010  23.5424260 106.7339020  23.0060170  22.5904210 106.6133950
  26.4375850  24.4497060 122.0218540  27.1785320  24.7872820 121.5186000
  25.6748530  24.6189120 121.4688310  14.2737640  19.4550330 122.8258070
  14.3142980  19.1564200 123.7343300  15.1283140  19.8557940 122.6665590
  18.0516030  22.0545880 107.9861580  18.4732450  21.8885750 108.8292970
  18.1766870  21.2446110 107.4916720  16.2143450  18.0342430 120.7932560
  15.6839910  17.5433380 120.1655900  16.8831520  18.4626630 120.2590490
  20.5643670  21.0783490 105.2338680  21.0849330  20.3632510 104.8679830
  21.2112070  21.7169360 105.5339190  25.1121510  22.5011890 120.5573750
  25.5262530  22.6556970 121.4064170  24.1772510  22.6267110 120.7199530
  25.5843680  19.8408050 122.5612900  26.1664450  19.0860370 122.4733380
  25.7605450  20.3715490 121.7844380  16.7015750  15.0004800 120.8729850
  16.6072620  14.3825550 120.1480720  16.1213140  15.7271090 120.6459760
  19.4677190  13.5578040 117.9057240  19.0194490  13.5802300 117.0602790
  18.8342390  13.1597060 118.5027540  19.8736740  22.4532370 118.5269680
  20.2924850  23.2965100 118.3545920  18.9545370  22.5904410 118.2976460
  22.2100640  20.1848550 119.9107520  22.3296850  19.5889690 120.6502360
  23.0694640  20.2218240 119.4908820  24.5488540  20.7385740 118.4870030
  24.0223760  21.2628360 117.8835170  24.8919880  21.3713130 119.1179760
  16.9474930  18.1279110 104.9319740  16.7463990  17.2646470 105.2933080
  16.7766980  18.0412470 103.9941340  17.7244160  28.7585380 119.6427410
  17.1865250  29.4831440 119.3236110  17.9778120  28.2815720 118.8524750
  18.9769410  16.7269900 121.1683340  19.5669100  16.4185750 121.8561160
  18.1589650  16.2549650 121.3243240  23.7962840  16.3435710 121.4016360
  23.1078360  15.6817250 121.3366350  24.5168860  15.8973980 121.8464820
  24.4263240  12.9387340 107.4606620  24.7065530  12.0955240 107.8166040
  23.6528970  13.1710450 107.9745370  15.7457730  15.2279730 104.9197620
  16.0483630  15.2347160 104.0116770  16.4852320  14.8777590 105.4165280
  20.5806370  29.9936590 119.9014060  20.5065070  30.8971730 120.2086430
  19.6785210  29.6748490 119.8736130  18.9642660  14.1714350 105.9053820
  18.6164660  13.4938340 105.3256270  19.1655430  13.7103860 106.7197210
  21.1291700  29.1595100 107.5240420  22.0242490  29.4980070 107.5459180
  21.1609330  28.4374510 106.8964700  14.7687860  24.5322150 105.7527420
  15.2062730  25.0751820 106.4085000  15.2535590  23.7069100 105.7623760
  11.9833660  27.3211180 113.2047680  12.3136670  26.4532240 112.9726320
  12.4124660  27.5269700 114.0352640  16.5795580  25.6520190 110.8649650
  16.2791120  25.5285160 111.7653560  16.4733070  24.7928780 110.4565380
  12.4723870  28.1881770 115.9429310  12.0354860  28.3682570 116.7753460
  13.0401550  28.9456390 115.8011030  28.1086050  27.6898770 120.2306620
  27.5088040  27.7491330 119.4870540  28.2379950  26.7503750 120.3603470
  29.3487500  25.4316590 105.5676330  28.5180460  25.4993240 106.0383560
  29.5259330  26.3220710 105.2643190  28.8043960  22.1764070 108.0710530
  29.5662870  22.7460720 108.1770220  28.8198330  21.6091270 108.8418840
  12.3048300  20.7002000 112.3018190  11.6497140  20.4313640 111.6577890
  13.1426250  20.5906480 111.8520170  29.8103930  23.0314170 112.9152460
  30.1812760  22.2481490 112.5088430  30.4505860  23.7203270 112.7369760
  26.7937690  24.4150750 118.3282780  25.9797530  24.8447910 118.5908570
  27.2011890  25.0269160 117.7151830  28.8563130  22.4698440 105.2283050
  29.1311970  23.3777320 105.1002270  28.6673870  22.4060970 106.1645040
  25.2538740  15.4943290 106.5236680  25.6723620  15.3074270 105.6833340
  24.9474800  14.6422340 106.8339610  28.7528470  20.4067430 110.2212480
  28.3772070  19.6395360 109.7893770  28.0231590  20.7890130 110.7087410
  13.3424230  21.0854570 116.8421530  13.7097270  20.9981970 117.7217550
  12.7735050  20.3221120 116.7428390  28.1428090  19.5538950 119.8552000
  27.9114180  19.3251700 118.9549950  28.4032640  20.4738500 119.8096890
  12.8940230  17.9963660 120.7479950  11.9996280  17.9630420 121.0873660
  13.4337780  18.1950450 121.5131200  26.5816160  14.7795380 122.6331700
  27.4586340  14.7878780 123.0165700  26.5937000  14.0426220 122.0224050
  11.5186380  17.9100930 108.2443520  10.6150460  18.1731130 108.0695180
  12.0027000  18.1812100 107.4643480  28.0279430  18.6324920 113.5219720
  28.5516910  18.1387570 112.8909890  28.6138850  18.7675280 114.2667290
  28.2069150  18.7164790 117.0439270  27.2571860  18.6828330 117.1584260
  28.3882160  19.6264900 116.8089040  14.0613590  16.9666470 106.1537900
  14.7705290  16.5449690 105.6685180  13.3453530  17.0341700 105.5221250
  13.7087750  13.0205800 105.1940550  14.4315880  13.5614740 105.5121770
  13.9812270  12.7469220 104.3182090  27.5179400  17.8898270 109.4612130
  28.0138520  17.6569140 110.2461010  27.3195470  17.0510110 109.0449770
  13.3979940  12.2711990 115.0963170  14.0456130  11.7209370 114.6558330
  13.8181780  12.5255140 115.9178980  28.9466560  16.5259220 111.9949810
  28.8365840  16.3715260 112.9332080  29.7074150  15.9980160 111.7525220
  27.2932280  12.4653350 118.4532810  27.9304500  13.0787490 118.8192000
  27.4407170  12.5014010 117.5082040  29.8356830  14.3567140 105.2355950
  30.7606140  14.2248320 105.0274240  29.8132620  14.4359960 106.1892400
  29.9095320  15.1277800 107.8612660  29.1146820  15.0622920 108.3905570
  30.1138600  16.0628440 107.8498010  26.8513740  29.1669350 111.8551050
  27.4472810  28.8453920 111.1785470  27.1091890  28.6941170 112.6464320
  13.1511940  12.4267660 117.8388490  12.8026760  12.8831480 118.6046670
  12.8199640  11.5324790 117.9210920  14.7576310  25.5987260 122.0041680
  14.7145940  25.2280170 122.8856140  14.8887320  26.5364830 122.1443500
  18.4582340  27.1546850 117.6051400  18.2173700  27.4221410 116.7181920
  19.3984980  27.3252580 117.6602260  20.6636760  13.6179540 121.3607910
  20.6025650  14.2101370 122.1103320  21.6037140  13.5105500 121.2158170
  23.3011320  13.2749600 121.0000200  23.9151730  13.5928890 120.3381280
  23.8460880  12.7898190 121.6196060  29.7186500  29.1741230 118.4062040
  29.2244780  29.5710100 117.6889170  29.1099790  28.5490440 118.7999320
  13.8232580  11.9543860 121.1139260  14.3715570  11.7731910 120.3505370
  13.8887890  11.1637970 121.6495570  14.5964340  28.5449510 119.1239460
  14.0024660  28.4134210 119.8629500  14.5888180  27.7087650 118.6581560
  24.0419360  11.8381740 117.3269490  23.1679200  12.1716850 117.1242420
  23.9330110  11.3654920 118.1521360  24.9491340  14.0452610 118.7111210
  24.6204700  13.2304370 118.3312940  25.8973640  14.0022420 118.5876900
  27.4025950  29.8164650 115.6848780  26.9428920  30.5680460 115.3106800
  26.7738410  29.0971120 115.6263580  14.2276570  25.9107890 118.0747500
  13.5010630  25.2913180 118.0073450  14.2885720  26.3048500 117.2045580
  17.8321670  28.1252890 114.8596910  18.3486690  27.5140250 114.3345170
  18.4819050  28.6281670 115.3507920  20.5717170  29.0161380 115.6865890
  20.8594980  28.7615680 114.8098900  21.0840390  28.4638740 116.2771460
  21.7894180  12.7551580 116.2662400  21.0065970  13.2297080 116.5459160
  21.4957110  11.8506410 116.1575580  26.3415250  13.4574680 114.3111490
  26.7823340  13.4019780 113.4633090  26.0722840  14.3732690 114.3821670
  28.2053820  13.0889920 112.3220310  28.1442220  12.1451140 112.1751330
  28.9845850  13.1970010 112.8673770  12.5106570  29.2282280 111.2844260
  12.3428610  28.5952960 111.9826150  11.6441080  29.4341680 110.9338450
  13.1334590  13.0599060 108.7876120  13.8913950  13.1727940 108.2140150
  12.6711760  13.8968260 108.7419550  19.6748400  15.1738330 111.7778430
  18.8622910  14.7995220 111.4374310  20.1790040  14.4183410 112.0799620
  24.1773380  11.8380780 113.0161500  24.7802750  12.4100990 113.4910020
  23.4366370  12.4020220 112.7935400  27.3207980  12.2402340 108.2901780
  27.5158610  13.1385790 108.5569210  26.5337850  12.0089420 108.7834730
  14.1169270  27.9215510 108.7294400  13.5916890  28.3023540 108.0256360
  14.0413850  28.5466280 109.4504110  15.5059740  13.5863110 107.3278090
  16.0352500  12.7992910 107.1986040  16.1388060  14.2654300 107.5613620
  17.6997580  13.3238250 110.3823480  17.0700320  12.6225560 110.5493610
  17.1602720  14.0842380 110.1656640  20.6389530  29.9377480 123.0534090
  21.5656840  29.7021750 123.0970050  20.6239960  30.7649480 122.5720120
  28.8734590  29.4803050 110.0508340  29.0486780  28.7940790 109.4069260
  28.1756160  30.0050100 109.6585010  17.8253140  12.6022230 122.8175970
  17.5437410  13.1055830 122.0536790  18.2072840  11.8043980 122.4518100
  16.7162240  29.8697890 107.6043650  17.4481060  29.5857170 107.0567540
  16.9755910  29.6311170 108.4943030  15.8777030  25.9862620 107.6089980
  15.2485910  26.4547720 108.1575810  15.9924860  25.1411840 108.0436170
  24.4268600  12.0175810 123.3956440  24.3134050  12.3370420 124.2907960
  25.2438340  12.4188320 123.0993720  27.2067090  29.1647340 122.8775130
  27.9992410  28.6696570 122.6701090  27.5000240  29.8437480 123.4850740
  23.3326750  20.0368280  93.7591180  23.2520800  19.1222890  93.4882890
  22.9191170  20.5335350  93.0530890  21.4644790  21.8147300  95.6400450
  20.6886890  21.3347740  95.9299020  22.1157720  21.1352950  95.4656610
  15.4810620  22.1267110  96.5176210  14.6495500  21.8715820  96.9172720
  16.0891600  22.1977880  97.2534130  25.4852220  26.2207490  94.4199580
  25.0233750  25.4494730  94.7486750  26.2977770  26.2473560  94.9252030
  15.4611880  26.1607200  96.7134230  15.7639920  25.2704940  96.5344450
  16.2055470  26.7177420  96.4856480  13.8902570  17.0869000  90.3018600
  13.0019270  17.4284970  90.1998480  14.1743760  16.8869320  89.4099430
  11.8535580  19.6874650  96.1858300  12.4251690  18.9196850  96.1861940
  11.8537120  19.9863410  95.2764910  21.7115530  28.5065500  94.0403570
  21.0926970  28.9623000  93.4698010  22.5667310  28.6616960  93.6393270
  20.9053780  24.4904490  95.6470610  20.8362060  23.5494430  95.4859740
  21.6673640  24.5805900  96.2193180  13.0960450  15.0959010  97.9727230
  12.9163290  14.1984760  98.2529990  12.6940530  15.6430880  98.6474180
  21.9358950  17.2974870  95.8739540  22.3123770  16.4246750  95.7613210
  21.8378460  17.6333570  94.9829980  16.0663960  15.6700500  91.3356980
  16.1730710  16.5704230  91.6425740  15.1556320  15.6218470  91.0451630
  25.7183070  14.7925310  92.8067880  26.5392690  14.3021880  92.8493360
  25.7517150  15.3822970  93.5599720  13.7147120  17.5919510  96.5809570
  14.3957230  17.8557880  97.1996970  13.3995170  16.7520380  96.9147580
  17.9071690  18.6386870  95.6682160  18.4149910  19.1367840  96.3087180
  18.4384930  17.8622070  95.4921520  30.0082620  16.8092060  99.3711510
  29.3034790  17.1973770  98.8526620  30.2740540  17.5042350  99.9732440
  16.1907790  13.2785430  99.9345580  16.1926230  13.7957820  99.1291480
  15.3612100  12.8015610  99.9115510  22.5778880  23.3904740  91.4335480
  21.9596150  23.8554190  90.8698200  23.0902130  24.0832220  91.8504990
  17.4410640  22.9180610  98.1119080  17.1080020  23.5449530  98.7540150
  17.6177320  23.4442490  97.3320750  25.9544550  16.7325690  95.5795420
  25.2500120  17.0210580  96.1598530  26.3156710  17.5425800  95.2194980
  15.8723120  14.9895390  97.9416030  16.2139930  15.8337440  97.6469900
  14.9338930  15.1379130  98.0581370  16.6529740  24.8861410  99.9268260
  17.2703740  25.5612490  99.6452710  15.7922860  25.2949390  99.8355760
  11.9462080  24.0761270  88.8075110  11.5690060  24.5648370  88.0760010
  12.2035150  24.7486550  89.4381640  27.5707330  26.3500820  97.8422900
  26.8870850  27.0199930  97.8339570  28.1101620  26.5481470  97.0767760
  29.0231470  16.1780480  95.9704630  28.0756380  16.2119460  96.1020060
  29.3481460  16.9919430  96.3553990  19.5551010  12.4777660  94.2660620
  19.8625990  11.9224550  93.5496120  18.6251710  12.6122120  94.0833610
  25.1066070  28.1944950  96.5568080  25.1193230  27.7907240  95.6890340
  24.5541290  28.9692240  96.4529510  26.4011490  24.9161170  91.6458250
  26.2907820  23.9735500  91.7707670  26.3979740  25.2776810  92.5321010
  24.5051510  23.0974790  97.8850690  24.9220300  22.8834900  97.0504150
  25.2291330  23.3547580  98.4559310  21.9431770  20.5426490  91.0020740
  21.0161050  20.4763870  91.2309210  22.0956590  21.4806620  90.8875980
  21.9300850  16.8143490  87.9987900  20.9904520  16.9757450  88.0840360
  22.2484110  17.5329170  87.4523890  28.4513610  21.4962010  97.9766930
  27.6232240  21.5655100  97.5017060  29.0464090  22.0816320  97.5082760
  25.9729060  22.1046790  91.5055990  25.3541480  21.7666340  90.8582290
  25.9553510  21.4606550  92.2135180  25.4155620  18.2831330  98.9221800
  25.0026800  19.1085040  99.1761790  24.6831570  17.6976370  98.7298160
  17.5488410  21.0691230  93.7840470  17.1445410  20.3568480  93.2886370
  17.6351530  20.7244470  94.6728510  18.0170110  24.7558790  95.9479680
  17.7198400  24.1504260  95.2687460  18.9669930  24.7936100  95.8369040
  16.2617030  17.8434440  97.5639510  16.8131620  17.9529780  96.7892760
  16.7760540  18.2172040  98.2794740  26.1055720  28.3290660  99.6102780
  25.6286280  29.1362850  99.4175390  25.4217510  27.6768990  99.7628990
  17.1088540  24.4940480 102.5987480  16.2117070  24.7180450 102.8460880
  17.1341410  24.6175420 101.6498880  24.1493760  21.3433600  88.5128740
  24.5887040  20.5056030  88.3666560  24.8622180  21.9763000  88.5992880
  15.9359760  21.3653800 101.1744850  15.7967530  22.2376600 101.5432250
  15.0541120  21.0226610 101.0292790  22.2589140  26.2829670  92.4809980
  22.6985050  27.0254000  92.0665370  22.1976030  26.5256240  93.4048940
  17.7340110  27.3075500 103.3830000  17.7055540  27.7118450 102.5158430
  17.5705080  26.3785860 103.2201600  27.7310900  12.5976410  86.8269780
  27.4183560  12.6903240  87.7268850  28.4923370  13.1757440  86.7767210
  14.2493040  19.9636210  91.2847120  14.1290640  20.6898300  90.6728390
  13.9393930  19.1939120  90.8075030  29.6854930  28.0902600 104.6794170
  30.1614650  28.5685490 105.3583250  30.3062090  28.0220090 103.9539670
  11.8878410  23.1351350  97.0915760  11.9658830  23.2700120  96.1471480
  12.5020090  22.4267240  97.2843880  13.1326040  24.8351540  93.5021940
  12.7254120  24.9766130  92.6475540  14.0239050  24.5511700  93.2993150
  29.0888180  25.2815450 101.8394180  29.2151240  25.0427330 100.9211360
  29.1309560  24.4499990 102.3116260  22.9504920  28.9843450 100.4088990
  23.4649590  28.8951460 101.2111420  22.1074000  29.3303150 100.7016900
  24.9259320  29.2698790  89.8372990  24.7660460  28.9801730  90.7354820
  24.7606030  28.4938920  89.3018220  17.4047700  29.0497320  91.6144610
  17.2290180  28.1332860  91.4012410  16.5503440  29.4084610  91.8542410
  24.6285450  26.7786350  88.3970990  23.9350610  26.7763640  87.7373270
  25.3708310  26.3545670  87.9665160  24.1935380  28.4049060  92.4719480
  24.6492330  27.6238440  92.7858100  24.5327900  29.1155880  93.0160660
  28.9412190  17.3347910 102.8043920  28.3256460  17.8427580 102.2759380
  28.6208610  16.4346240 102.7469860  11.9437930  24.1765520  99.6310220
  12.1068970  23.7070880  98.8129590  12.4090380  23.6689080 100.2959060
  16.7156700  13.3071280  94.6670790  16.2724850  14.0880820  94.3355310
  17.2741690  13.6301170  95.3741730  21.0026510  16.1739800 100.2706110
  20.5405880  16.3822820 101.0826050  20.6004620  15.3599150  99.9676780
  26.0031020  17.3948750 101.4002770  25.1524610  17.0954500 101.7211840
  25.8432810  17.6390760 100.4886590  23.0980730  18.8950500 103.5001560
  23.4234140  18.0614250 103.1603790  23.8861060  19.4179020 103.6479890
  19.8315520  12.9281980  89.5476620  19.2069700  12.9241850  90.2729930
  19.7445640  12.0612940  89.1512590  18.7532600  13.8518610  96.5260390
  19.0504930  14.7581440  96.4452410  19.3018160  13.3637390  95.9119960
  16.5070920  18.4304850  92.3952040  16.2811840  18.2142020  93.2998660
  15.7263450  18.8633310  92.0498010  23.7368680  18.4368220  90.9942690
  23.1377570  19.1604020  90.8106310  24.2848290  18.3745000  90.2119140
  18.9470130  19.3290430 103.0612310  18.8513730  18.3885160 102.9112710
  19.7902110  19.5505500 102.6660380  22.3433550  17.0731760  93.0245970
  22.7363120  17.3903960  92.2114660  22.7050400  16.1943640  93.1390490
  14.0780670  15.7404100 101.2146090  13.6844060  16.5879310 101.4218870
  13.3899070  15.1030470 101.4054730  20.6525720  15.8239070 104.2842830
  19.9624040  15.6311270 104.9188920  21.3958020  16.1073710 104.8167130
  11.3797720  13.6632560  95.2476170  11.0910770  14.2335420  95.9601150
  12.1243480  13.1837010  95.6107400  11.5667950  17.6052680  86.4578890
  11.4842620  18.5483440  86.5993880  11.2151010  17.4627590  85.5791240
  22.9288690  19.6637510  97.1196750  22.1969810  20.1724320  97.4686850
  22.5313030  18.8467490  96.8185530  19.3666080  16.3391710  95.5249240
  19.3702140  15.8981660  94.6753780  20.2617200  16.6609040  95.6321060
  15.2168460  16.2218200  94.4843450  14.8768510  16.6993430  95.2410500
  14.4545780  15.7683320  94.1244550  19.4286230  17.3403790  88.5156000
  19.5499050  17.2990270  89.4641820  19.0434740  18.2027940  88.3602730
  23.3914600  15.1171190  96.5319690  23.4087340  15.5679840  97.3761540
  23.1430180  14.2176830  96.7453130  18.4407730  19.6504930  87.9139300
  17.8724630  19.2023180  87.2875210  19.1496730  20.0097710  87.3804450
  26.8185350  12.5303370 102.3706070  27.1431120  11.7993030 102.8964050
  26.8541860  12.2117010 101.4687060  13.5176910  23.5516950 101.7906030
  13.1331700  22.9110620 102.3888990  13.8289100  24.2553070 102.3600760
  19.6674050  20.3993490  97.2714650  20.0344180  19.9252060  98.0175990
  19.4779110  21.2735060  97.6122990  12.5314540  15.1437180  93.4008120
  12.2461460  14.7792850  94.2386740  12.4693400  14.4117640  92.7871260
  17.4573420  19.4402130  99.5898860  17.1530490  20.3194110  99.8149220
  18.4119880  19.5001920  99.6256300  15.9855210  23.6463120  90.1865710
  15.2117470  23.1060740  90.0264430  16.7149840  23.1269730  89.8483470
  26.7443190  22.6428480  95.9792100  27.4642310  23.1383770  95.5888210
  26.5425010  21.9646370  95.3345970  22.2053130  14.0366440  90.1221490
  21.3917740  13.5379610  90.0466800  22.0115080  14.8764690  89.7057840
  22.1261990  22.7137540 101.8661100  22.0599300  21.7933210 101.6118690
  21.4967130  22.8112980 102.5805740  24.9201520  18.4086090  88.4183650
  25.8081140  18.7203320  88.2434990  24.8906610  17.5358340  88.0264230
  16.0292610  23.3143500  93.8244520  16.5471280  22.5111760  93.7701410
  15.5776630  23.2522640  94.6661350  20.9162110  24.5809780  89.0971820
  21.2577810  25.3252010  88.6015140  20.0874820  24.8940900  89.4596650
  13.5137150  20.2804870 100.7370220  13.1552090  20.9458720 101.3243560
  13.2191710  19.4488420 101.1082840  16.7150270  20.7389110 103.6209770
  16.4150410  20.8846290 102.7237590  17.4861510  20.1794400 103.5283160
  22.0578720  25.5358110 101.6164900  22.0723260  24.6039070 101.3983810
  21.3503820  25.6217870 102.2554670  27.1915790  19.7197930  87.8863510
  27.1079510  20.1512150  87.0359950  27.9109980  20.1796280  88.3190330
  28.2689930  22.1765450 100.9633480  27.5438120  22.7694230 100.7662870
  28.7965390  22.1688990 100.1646850  28.2203040  26.5740190  90.6145640
  27.5779200  25.9195810  90.8889360  27.8333700  26.9795280  89.8386310
  23.7989520  23.9025620  94.4617330  24.1513340  23.3053750  93.8018700
  22.9151850  23.5769850  94.6325580  19.8852800  24.6623310  91.8687740
  20.5723930  25.2092520  92.2495330  19.0985220  25.2064040  91.9037350
  12.0245200  20.2796130  87.3604820  12.8940050  20.5620930  87.6440740
  11.5335520  21.0932000  87.2453630  19.1880010  21.6669340  91.4813100
  19.6442790  22.4774590  91.7073290  18.8368220  21.3492480  92.3131590
  21.4912620  27.1775680  98.7105400  22.1354840  27.3835060  99.3878820
  21.8542060  26.4164080  98.2576250  15.0891790  12.0106990  91.9535620
  14.9606420  12.0024890  92.9020540  14.2653810  12.3490080  91.6026630
  22.7644700  25.1808030  97.4282850  23.4066930  24.4801190  97.5415020
  23.2894050  25.9606470  97.2479740  26.6100420  25.4656650  87.1521990
  26.3838000  24.7487090  87.7446630  26.2196620  25.2169090  86.3143740
  24.5382320  25.9802930 100.6318910  24.8738560  26.5669620 101.3096830
  23.6182660  25.8495640 100.8616700  12.3916450  29.4923510  87.9266450
  12.7514090  30.0912850  87.2723720  12.2508790  30.0383400  88.7001480
  12.0885720  13.7698110 101.4142320  11.3744240  13.9695030 102.0194930
  12.5080760  12.9937680 101.7857120  26.1916670  23.3828590  88.8136150
  25.9038370  23.8441280  89.6014030  26.9868840  22.9226360  89.0820370
  12.3758310  27.7578370 102.4008850  12.4849430  26.8173110 102.2604240
  11.7238870  28.0233120 101.7522580  20.3670900  26.0294260 103.8006970
  20.0467770  25.3103500 104.3452660  19.6929260  26.7049330 103.8743030
  18.4085070  26.8754710  88.7440120  18.3995170  27.6084400  88.1284630
  17.4883430  26.6286290  88.8367080  14.0091710  22.0969600  89.4886880
  13.4019660  22.8368500  89.4982180  14.4841060  22.1868960  88.6625080
  23.5824500  16.2620420  99.1643770  23.9505320  15.4415630  99.4923340
  22.7222700  16.3222310  99.5799420  26.9486530  15.2177360  89.9731330
  26.3199690  15.3223030  89.2589560  26.4538450  15.4374140  90.7625210
  21.3944670  26.9382950  87.4065310  21.4956650  26.7346940  86.4767290
  20.4946410  26.6841230  87.6113090  18.9170560  17.4963310  91.3889210
  18.2086710  17.9649650  91.8302820  19.2015040  16.8385320  92.0234400
  20.5426490  18.9160010  99.3881740  21.0411740  19.3905830 100.0533590
  20.6849440  17.9923530  99.5951770  22.9485990  14.2213970  92.8285000
  22.8253770  14.2400100  91.8794510  23.8970550  14.2692910  92.9483400
  20.0362780  29.4569270  92.1012980  20.2904280  29.4190660  91.1792350
  19.0875260  29.3302600  92.0941230  17.1205580  15.8048390  88.7639920
  17.9696110  16.2418540  88.6980110  16.7536850  16.1168650  89.5911980
  27.7493350  15.1327970 100.2310130  27.2466950  15.8733370 100.5703940
  28.5650010  15.5211970  99.9146920  26.0415360  20.3761150  93.6771490
  25.1005500  20.3911380  93.8519180  26.3559430  19.5897110  94.1231790
  16.0197000  22.0580750  87.2375450  16.7860270  21.9462110  87.8000880
  16.0971690  21.3618720  86.5852220  14.7143760  19.4905820  87.9208340
  14.7947350  18.5433330  88.0325740  15.6063510  19.8212700  88.0269000
  28.0440940  27.5470000  95.3525750  28.1688360  28.3701170  95.8249560
  28.9106500  27.3360730  95.0049900  15.5158470  29.6401210  95.0242880
  16.2520950  29.0916670  95.2951450  15.8999390  30.5057220  94.8848870
  12.4003950  25.7074780  90.8984390  11.4743730  25.9495920  90.8889800
  12.8660380  26.5349040  90.7769140  14.5216750  28.8247280 104.2128460
  15.3229480  29.1459330 104.6263860  14.0068570  28.4642860 104.9348370
  18.6260780  28.8131520  86.8468450  19.4189390  29.1020350  86.3950240
  18.1065130  28.3823690  86.1680930  23.3581380  24.9327150 104.1603870
  22.7519540  24.9558750 103.4199620  23.0535490  24.2010190 104.6971120
  24.7881750  28.6607440 102.7713280  25.7403500  28.5765460 102.7213520
  24.6409970  29.3249150 103.4447070  27.6790950  28.0401650  88.2705190
  27.3932460  27.6266790  87.4559370  27.4810500  28.9689360  88.1505710
  12.2414560  21.3120740 103.1564510  12.7453580  20.7328020 103.7280740
  11.5021980  21.5960970 103.6940880  19.1438180  24.0334930  86.7110800
  19.0388820  23.4187280  87.4372180  18.9762400  23.5100820  85.9273810
  19.2952500  22.7191730 102.6900030  18.5298170  23.2876730 102.6054700
  19.4768460  22.4267940 101.7968260  22.3840910  23.0954960  87.3152790
  21.8351010  23.5424260  87.9595530  23.0060170  22.5904210  87.8390460
  26.4375850  24.4497060 103.2475050  27.1785320  24.7872820 102.7442510
  25.6748530  24.6189120 102.6944820  14.2737640  19.4550330 104.0514580
  14.3142980  19.1564200 104.9599810  15.1283140  19.8557940 103.8922100
  18.0516030  22.0545880  89.2118090  18.4732450  21.8885750  90.0549480
  18.1766870  21.2446110  88.7173230  16.2143450  18.0342430 102.0189070
  15.6839910  17.5433380 101.3912410  16.8831520  18.4626630 101.4847000
  20.5643670  21.0783490  86.4595190  21.0849330  20.3632510  86.0936340
  21.2112070  21.7169360  86.7595700  25.1121510  22.5011890 101.7830260
  25.5262530  22.6556970 102.6320680  24.1772510  22.6267110 101.9456040
  25.5843680  19.8408050 103.7869410  26.1664450  19.0860370 103.6989890
  25.7605450  20.3715490 103.0100890  16.7015750  15.0004800 102.0986360
  16.6072620  14.3825550 101.3737230  16.1213140  15.7271090 101.8716270
  19.4677190  13.5578040  99.1313750  19.0194490  13.5802300  98.2859300
  18.8342390  13.1597060  99.7284050  19.8736740  22.4532370  99.7526190
  20.2924850  23.2965100  99.5802430  18.9545370  22.5904410  99.5232970
  22.2100640  20.1848550 101.1364030  22.3296850  19.5889690 101.8758870
  23.0694640  20.2218240 100.7165330  24.5488540  20.7385740  99.7126540
  24.0223760  21.2628360  99.1091680  24.8919880  21.3713130 100.3436270
  16.9474930  18.1279110  86.1576250  16.7463990  17.2646470  86.5189590
  16.7766980  18.0412470  85.2197850  17.7244160  28.7585380 100.8683920
  17.1865250  29.4831440 100.5492620  17.9778120  28.2815720 100.0781260
  18.9769410  16.7269900 102.3939850  19.5669100  16.4185750 103.0817670
  18.1589650  16.2549650 102.5499750  23.7962840  16.3435710 102.6272870
  23.1078360  15.6817250 102.5622860  24.5168860  15.8973980 103.0721330
  24.4263240  12.9387340  88.6863130  24.7065530  12.0955240  89.0422550
  23.6528970  13.1710450  89.2001880  15.7457730  15.2279730  86.1454130
  16.0483630  15.2347160  85.2373280  16.4852320  14.8777590  86.6421790
  20.5806370  29.9936590 101.1270570  20.5065070  30.8971730 101.4342940
  19.6785210  29.6748490 101.0992640  18.9642660  14.1714350  87.1310330
  18.6164660  13.4938340  86.5512780  19.1655430  13.7103860  87.9453720
  21.1291700  29.1595100  88.7496930  22.0242490  29.4980070  88.7715690
  21.1609330  28.4374510  88.1221210  14.7687860  24.5322150  86.9783930
  15.2062730  25.0751820  87.6341510  15.2535590  23.7069100  86.9880270
  11.9833660  27.3211180  94.4304190  12.3136670  26.4532240  94.1982830
  12.4124660  27.5269700  95.2609150  16.5795580  25.6520190  92.0906160
  16.2791120  25.5285160  92.9910070  16.4733070  24.7928780  91.6821890
  12.4723870  28.1881770  97.1685820  12.0354860  28.3682570  98.0009970
  13.0401550  28.9456390  97.0267540  28.1086050  27.6898770 101.4563130
  27.5088040  27.7491330 100.7127050  28.2379950  26.7503750 101.5859980
  29.3487500  25.4316590  86.7932840  28.5180460  25.4993240  87.2640070
  29.5259330  26.3220710  86.4899700  28.8043960  22.1764070  89.2967040
  29.5662870  22.7460720  89.4026730  28.8198330  21.6091270  90.0675350
  12.3048300  20.7002000  93.5274700  11.6497140  20.4313640  92.8834400
  13.1426250  20.5906480  93.0776680  29.8103930  23.0314170  94.1408970
  30.1812760  22.2481490  93.7344940  30.4505860  23.7203270  93.9626270
  26.7937690  24.4150750  99.5539290  25.9797530  24.8447910  99.8165080
  27.2011890  25.0269160  98.9408340  28.8563130  22.4698440  86.4539560
  29.1311970  23.3777320  86.3258780  28.6673870  22.4060970  87.3901550
  25.2538740  15.4943290  87.7493190  25.6723620  15.3074270  86.9089850
  24.9474800  14.6422340  88.0596120  28.7528470  20.4067430  91.4468990
  28.3772070  19.6395360  91.0150280  28.0231590  20.7890130  91.9343920
  13.3424230  21.0854570  98.0678040  13.7097270  20.9981970  98.9474060
  12.7735050  20.3221120  97.9684900  28.1428090  19.5538950 101.0808510
  27.9114180  19.3251700 100.1806460  28.4032640  20.4738500 101.0353400
  12.8940230  17.9963660 101.9736460  11.9996280  17.9630420 102.3130170
  13.4337780  18.1950450 102.7387710  26.5816160  14.7795380 103.8588210
  27.4586340  14.7878780 104.2422210  26.5937000  14.0426220 103.2480560
  11.5186380  17.9100930  89.4700030  10.6150460  18.1731130  89.2951690
  12.0027000  18.1812100  88.6899990  28.0279430  18.6324920  94.7476230
  28.5516910  18.1387570  94.1166400  28.6138850  18.7675280  95.4923800
  28.2069150  18.7164790  98.2695780  27.2571860  18.6828330  98.3840770
  28.3882160  19.6264900  98.0345550  14.0613590  16.9666470  87.3794410
  14.7705290  16.5449690  86.8941690  13.3453530  17.0341700  86.7477760
  13.7087750  13.0205800  86.4197060  14.4315880  13.5614740  86.7378280
  13.9812270  12.7469220  85.5438600  27.5179400  17.8898270  90.6868640
  28.0138520  17.6569140  91.4717520  27.3195470  17.0510110  90.2706280
  13.3979940  12.2711990  96.3219680  14.0456130  11.7209370  95.8814840
  13.8181780  12.5255140  97.1435490  28.9466560  16.5259220  93.2206320
  28.8365840  16.3715260  94.1588590  29.7074150  15.9980160  92.9781730
  27.2932280  12.4653350  99.6789320  27.9304500  13.0787490 100.0448510
  27.4407170  12.5014010  98.7338550  29.8356830  14.3567140  86.4612460
  30.7606140  14.2248320  86.2530750  29.8132620  14.4359960  87.4148910
  29.9095320  15.1277800  89.0869170  29.1146820  15.0622920  89.6162080
  30.1138600  16.0628440  89.0754520  26.8513740  29.1669350  93.0807560
  27.4472810  28.8453920  92.4041980  27.1091890  28.6941170  93.8720830
  13.1511940  12.4267660  99.0645000  12.8026760  12.8831480  99.8303180
  12.8199640  11.5324790  99.1467430  14.7576310  25.5987260 103.2298190
  14.7145940  25.2280170 104.1112650  14.8887320  26.5364830 103.3700010
  18.4582340  27.1546850  98.8307910  18.2173700  27.4221410  97.9438430
  19.3984980  27.3252580  98.8858770  20.6636760  13.6179540 102.5864420
  20.6025650  14.2101370 103.3359830  21.6037140  13.5105500 102.4414680
  23.3011320  13.2749600 102.2256710  23.9151730  13.5928890 101.5637790
  23.8460880  12.7898190 102.8452570  29.7186500  29.1741230  99.6318550
  29.2244780  29.5710100  98.9145680  29.1099790  28.5490440 100.0255830
  13.8232580  11.9543860 102.3395770  14.3715570  11.7731910 101.5761880
  13.8887890  11.1637970 102.8752080  14.5964340  28.5449510 100.3495970
  14.0024660  28.4134210 101.0886010  14.5888180  27.7087650  99.8838070
  24.0419360  11.8381740  98.5526000  23.1679200  12.1716850  98.3498930
  23.9330110  11.3654920  99.3777870  24.9491340  14.0452610  99.9367720
  24.6204700  13.2304370  99.5569450  25.8973640  14.0022420  99.8133410
  27.4025950  29.8164650  96.9105290  26.9428920  30.5680460  96.5363310
  26.7738410  29.0971120  96.8520090  14.2276570  25.9107890  99.3004010
  13.5010630  25.2913180  99.2329960  14.2885720  26.3048500  98.4302090
  17.8321670  28.1252890  96.0853420  18.3486690  27.5140250  95.5601680
  18.4819050  28.6281670  96.5764430  20.5717170  29.0161380  96.9122400
  20.8594980  28.7615680  96.0355410  21.0840390  28.4638740  97.5027970
  21.7894180  12.7551580  97.4918910  21.0065970  13.2297080  97.7715670
  21.4957110  11.8506410  97.3832090  26.3415250  13.4574680  95.5368000
  26.7823340  13.4019780  94.6889600  26.0722840  14.3732690  95.6078180
  28.2053820  13.0889920  93.5476820  28.1442220  12.1451140  93.4007840
  28.9845850  13.1970010  94.0930280  12.5106570  29.2282280  92.5100770
  12.3428610  28.5952960  93.2082660  11.6441080  29.4341680  92.1594960
  13.1334590  13.0599060  90.0132630  13.8913950  13.1727940  89.4396660
  12.6711760  13.8968260  89.9676060  19.6748400  15.1738330  93.0034940
  18.8622910  14.7995220  92.6630820  20.1790040  14.4183410  93.3056130
  24.1773380  11.8380780  94.2418010  24.7802750  12.4100990  94.7166530
  23.4366370  12.4020220  94.0191910  27.3207980  12.2402340  89.5158290
  27.5158610  13.1385790  89.7825720  26.5337850  12.0089420  90.0091240
  14.1169270  27.9215510  89.9550910  13.5916890  28.3023540  89.2512870
  14.0413850  28.5466280  90.6760620  15.5059740  13.5863110  88.5534600
  16.0352500  12.7992910  88.4242550  16.1388060  14.2654300  88.7870130
  17.6997580  13.3238250  91.6079990  17.0700320  12.6225560  91.7750120
  17.1602720  14.0842380  91.3913150  20.6389530  29.9377480 104.2790600
  21.5656840  29.7021750 104.3226560  20.6239960  30.7649480 103.7976630
  28.8734590  29.4803050  91.2764850  29.0486780  28.7940790  90.6325770
  28.1756160  30.0050100  90.8841520  17.8253140  12.6022230 104.0432480
  17.5437410  13.1055830 103.2793300  18.2072840  11.8043980 103.6774610
  16.7162240  29.8697890  88.8300160  17.4481060  29.5857170  88.2824050
  16.9755910  29.6311170  89.7199540  15.8777030  25.9862620  88.8346490
  15.2485910  26.4547720  89.3832320  15.9924860  25.1411840  89.2692680
  24.4268600  12.0175810 104.6212950  24.3134050  12.3370420 105.5164470
  25.2438340  12.4188320 104.3250230  27.2067090  29.1647340 104.1031640
  27.9992410  28.6696570 103.8957600  27.5000240  29.8437480 104.7107250
  23.3326750  20.0368280  74.9847690  23.2520800  19.1222890  74.7139400
  22.9191170  20.5335350  74.2787400  21.4644790  21.8147300  76.8656960
  20.6886890  21.3347740  77.1555530  22.1157720  21.1352950  76.6913120
  15.4810620  22.1267110  77.7432720  14.6495500  21.8715820  78.1429230
  16.0891600  22.1977880  78.4790640  25.4852220  26.2207490  75.6456090
  25.0233750  25.4494730  75.9743260  26.2977770  26.2473560  76.1508540
  15.4611880  26.1607200  77.9390740  15.7639920  25.2704940  77.7600960
  16.2055470  26.7177420  77.7112990  13.8902570  17.0869000  71.5275110
  13.0019270  17.4284970  71.4254990  14.1743760  16.8869320  70.6355940
  11.8535580  19.6874650  77.4114810  12.4251690  18.9196850  77.4118450
  11.8537120  19.9863410  76.5021420  21.7115530  28.5065500  75.2660080
  21.0926970  28.9623000  74.6954520  22.5667310  28.6616960  74.8649780
  20.9053780  24.4904490  76.8727120  20.8362060  23.5494430  76.7116250
  21.6673640  24.5805900  77.4449690  13.0960450  15.0959010  79.1983740
  12.9163290  14.1984760  79.4786500  12.6940530  15.6430880  79.8730690
  21.9358950  17.2974870  77.0996050  22.3123770  16.4246750  76.9869720
  21.8378460  17.6333570  76.2086490  16.0663960  15.6700500  72.5613490
  16.1730710  16.5704230  72.8682250  15.1556320  15.6218470  72.2708140
  25.7183070  14.7925310  74.0324390  26.5392690  14.3021880  74.0749870
  25.7517150  15.3822970  74.7856230  13.7147120  17.5919510  77.8066080
  14.3957230  17.8557880  78.4253480  13.3995170  16.7520380  78.1404090
  17.9071690  18.6386870  76.8938670  18.4149910  19.1367840  77.5343690
  18.4384930  17.8622070  76.7178030  30.0082620  16.8092060  80.5968020
  29.3034790  17.1973770  80.0783130  30.2740540  17.5042350  81.1988950
  16.1907790  13.2785430  81.1602090  16.1926230  13.7957820  80.3547990
  15.3612100  12.8015610  81.1372020  22.5778880  23.3904740  72.6591990
  21.9596150  23.8554190  72.0954710  23.0902130  24.0832220  73.0761500
  17.4410640  22.9180610  79.3375590  17.1080020  23.5449530  79.9796660
  17.6177320  23.4442490  78.5577260  25.9544550  16.7325690  76.8051930
  25.2500120  17.0210580  77.3855040  26.3156710  17.5425800  76.4451490
  15.8723120  14.9895390  79.1672540  16.2139930  15.8337440  78.8726410
  14.9338930  15.1379130  79.2837880  16.6529740  24.8861410  81.1524770
  17.2703740  25.5612490  80.8709220  15.7922860  25.2949390  81.0612270
  11.9462080  24.0761270  70.0331620  11.5690060  24.5648370  69.3016520
  12.2035150  24.7486550  70.6638150  27.5707330  26.3500820  79.0679410
  26.8870850  27.0199930  79.0596080  28.1101620  26.5481470  78.3024270
  29.0231470  16.1780480  77.1961140  28.0756380  16.2119460  77.3276570
  29.3481460  16.9919430  77.5810500  19.5551010  12.4777660  75.4917130
  19.8625990  11.9224550  74.7752630  18.6251710  12.6122120  75.3090120
  25.1066070  28.1944950  77.7824590  25.1193230  27.7907240  76.9146850
  24.5541290  28.9692240  77.6786020  26.4011490  24.9161170  72.8714760
  26.2907820  23.9735500  72.9964180  26.3979740  25.2776810  73.7577520
  24.5051510  23.0974790  79.1107200  24.9220300  22.8834900  78.2760660
  25.2291330  23.3547580  79.6815820  21.9431770  20.5426490  72.2277250
  21.0161050  20.4763870  72.4565720  22.0956590  21.4806620  72.1132490
  21.9300850  16.8143490  69.2244410  20.9904520  16.9757450  69.3096870
  22.2484110  17.5329170  68.6780400  28.4513610  21.4962010  79.2023440
  27.6232240  21.5655100  78.7273570  29.0464090  22.0816320  78.7339270
  25.9729060  22.1046790  72.7312500  25.3541480  21.7666340  72.0838800
  25.9553510  21.4606550  73.4391690  25.4155620  18.2831330  80.1478310
  25.0026800  19.1085040  80.4018300  24.6831570  17.6976370  79.9554670
  17.5488410  21.0691230  75.0096980  17.1445410  20.3568480  74.5142880
  17.6351530  20.7244470  75.8985020  18.0170110  24.7558790  77.1736190
  17.7198400  24.1504260  76.4943970  18.9669930  24.7936100  77.0625550
  16.2617030  17.8434440  78.7896020  16.8131620  17.9529780  78.0149270
  16.7760540  18.2172040  79.5051250  26.1055720  28.3290660  80.8359290
  25.6286280  29.1362850  80.6431900  25.4217510  27.6768990  80.9885500
  17.1088540  24.4940480  83.8243990  16.2117070  24.7180450  84.0717390
  17.1341410  24.6175420  82.8755390  24.1493760  21.3433600  69.7385250
  24.5887040  20.5056030  69.5923070  24.8622180  21.9763000  69.8249390
  15.9359760  21.3653800  82.4001360  15.7967530  22.2376600  82.7688760
  15.0541120  21.0226610  82.2549300  22.2589140  26.2829670  73.7066490
  22.6985050  27.0254000  73.2921880  22.1976030  26.5256240  74.6305450
  17.7340110  27.3075500  84.6086510  17.7055540  27.7118450  83.7414940
  17.5705080  26.3785860  84.4458110  27.7310900  12.5976410  68.0526290
  27.4183560  12.6903240  68.9525360  28.4923370  13.1757440  68.0023720
  14.2493040  19.9636210  72.5103630  14.1290640  20.6898300  71.8984900
  13.9393930  19.1939120  72.0331540  29.6854930  28.0902600  85.9050680
  30.1614650  28.5685490  86.5839760  30.3062090  28.0220090  85.1796180
  11.8878410  23.1351350  78.3172270  11.9658830  23.2700120  77.3727990
  12.5020090  22.4267240  78.5100390  13.1326040  24.8351540  74.7278450
  12.7254120  24.9766130  73.8732050  14.0239050  24.5511700  74.5249660
  29.0888180  25.2815450  83.0650690  29.2151240  25.0427330  82.1467870
  29.1309560  24.4499990  83.5372770  22.9504920  28.9843450  81.6345500
  23.4649590  28.8951460  82.4367930  22.1074000  29.3303150  81.9273410
  24.9259320  29.2698790  71.0629500  24.7660460  28.9801730  71.9611330
  24.7606030  28.4938920  70.5274730  17.4047700  29.0497320  72.8401120
  17.2290180  28.1332860  72.6268920  16.5503440  29.4084610  73.0798920
  24.6285450  26.7786350  69.6227500  23.9350610  26.7763640  68.9629780
  25.3708310  26.3545670  69.1921670  24.1935380  28.4049060  73.6975990
  24.6492330  27.6238440  74.0114610  24.5327900  29.1155880  74.2417170
  28.9412190  17.3347910  84.0300430  28.3256460  17.8427580  83.5015890
  28.6208610  16.4346240  83.9726370  11.9437930  24.1765520  80.8566730
  12.1068970  23.7070880  80.0386100  12.4090380  23.6689080  81.5215570
  16.7156700  13.3071280  75.8927300  16.2724850  14.0880820  75.5611820
  17.2741690  13.6301170  76.5998240  21.0026510  16.1739800  81.4962620
  20.5405880  16.3822820  82.3082560  20.6004620  15.3599150  81.1933290
  26.0031020  17.3948750  82.6259280  25.1524610  17.0954500  82.9468350
  25.8432810  17.6390760  81.7143100  23.0980730  18.8950500  84.7258070
  23.4234140  18.0614250  84.3860300  23.8861060  19.4179020  84.8736400
  19.8315520  12.9281980  70.7733130  19.2069700  12.9241850  71.4986440
  19.7445640  12.0612940  70.3769100  18.7532600  13.8518610  77.7516900
  19.0504930  14.7581440  77.6708920  19.3018160  13.3637390  77.1376470
  16.5070920  18.4304850  73.6208550  16.2811840  18.2142020  74.5255170
  15.7263450  18.8633310  73.2754520  23.7368680  18.4368220  72.2199200
  23.1377570  19.1604020  72.0362820  24.2848290  18.3745000  71.4375650
  18.9470130  19.3290430  84.2868820  18.8513730  18.3885160  84.1369220
  19.7902110  19.5505500  83.8916890  22.3433550  17.0731760  74.2502480
  22.7363120  17.3903960  73.4371170  22.7050400  16.1943640  74.3647000
  14.0780670  15.7404100  82.4402600  13.6844060  16.5879310  82.6475380
  13.3899070  15.1030470  82.6311240  20.6525720  15.8239070  85.5099340
  19.9624040  15.6311270  86.1445430  21.3958020  16.1073710  86.0423640
  11.3797720  13.6632560  76.4732680  11.0910770  14.2335420  77.1857660
  12.1243480  13.1837010  76.8363910  11.5667950  17.6052680  67.6835400
  11.4842620  18.5483440  67.8250390  11.2151010  17.4627590  66.8047750
  22.9288690  19.6637510  78.3453260  22.1969810  20.1724320  78.6943360
  22.5313030  18.8467490  78.0442040  19.3666080  16.3391710  76.7505750
  19.3702140  15.8981660  75.9010290  20.2617200  16.6609040  76.8577570
  15.2168460  16.2218200  75.7099960  14.8768510  16.6993430  76.4667010
  14.4545780  15.7683320  75.3501060  19.4286230  17.3403790  69.7412510
  19.5499050  17.2990270  70.6898330  19.0434740  18.2027940  69.5859240
  23.3914600  15.1171190  77.7576200  23.4087340  15.5679840  78.6018050
  23.1430180  14.2176830  77.9709640  18.4407730  19.6504930  69.1395810
  17.8724630  19.2023180  68.5131720  19.1496730  20.0097710  68.6060960
  26.8185350  12.5303370  83.5962580  27.1431120  11.7993030  84.1220560
  26.8541860  12.2117010  82.6943570  13.5176910  23.5516950  83.0162540
  13.1331700  22.9110620  83.6145500  13.8289100  24.2553070  83.5857270
  19.6674050  20.3993490  78.4971160  20.0344180  19.9252060  79.2432500
  19.4779110  21.2735060  78.8379500  12.5314540  15.1437180  74.6264630
  12.2461460  14.7792850  75.4643250  12.4693400  14.4117640  74.0127770
  17.4573420  19.4402130  80.8155370  17.1530490  20.3194110  81.0405730
  18.4119880  19.5001920  80.8512810  15.9855210  23.6463120  71.4122220
  15.2117470  23.1060740  71.2520940  16.7149840  23.1269730  71.0739980
  26.7443190  22.6428480  77.2048610  27.4642310  23.1383770  76.8144720
  26.5425010  21.9646370  76.5602480  22.2053130  14.0366440  71.3478000
  21.3917740  13.5379610  71.2723310  22.0115080  14.8764690  70.9314350
  22.1261990  22.7137540  83.0917610  22.0599300  21.7933210  82.8375200
  21.4967130  22.8112980  83.8062250  24.9201520  18.4086090  69.6440160
  25.8081140  18.7203320  69.4691500  24.8906610  17.5358340  69.2520740
  16.0292610  23.3143500  75.0501030  16.5471280  22.5111760  74.9957920
  15.5776630  23.2522640  75.8917860  20.9162110  24.5809780  70.3228330
  21.2577810  25.3252010  69.8271650  20.0874820  24.8940900  70.6853160
  13.5137150  20.2804870  81.9626730  13.1552090  20.9458720  82.5500070
  13.2191710  19.4488420  82.3339350  16.7150270  20.7389110  84.8466280
  16.4150410  20.8846290  83.9494100  17.4861510  20.1794400  84.7539670
  22.0578720  25.5358110  82.8421410  22.0723260  24.6039070  82.6240320
  21.3503820  25.6217870  83.4811180  27.1915790  19.7197930  69.1120020
  27.1079510  20.1512150  68.2616460  27.9109980  20.1796280  69.5446840
  28.2689930  22.1765450  82.1889990  27.5438120  22.7694230  81.9919380
  28.7965390  22.1688990  81.3903360  28.2203040  26.5740190  71.8402150
  27.5779200  25.9195810  72.1145870  27.8333700  26.9795280  71.0642820
  23.7989520  23.9025620  75.6873840  24.1513340  23.3053750  75.0275210
  22.9151850  23.5769850  75.8582090  19.8852800  24.6623310  73.0944250
  20.5723930  25.2092520  73.4751840  19.0985220  25.2064040  73.1293860
  12.0245200  20.2796130  68.5861330  12.8940050  20.5620930  68.8697250
  11.5335520  21.0932000  68.4710140  19.1880010  21.6669340  72.7069610
  19.6442790  22.4774590  72.9329800  18.8368220  21.3492480  73.5388100
  21.4912620  27.1775680  79.9361910  22.1354840  27.3835060  80.6135330
  21.8542060  26.4164080  79.4832760  15.0891790  12.0106990  73.1792130
  14.9606420  12.0024890  74.1277050  14.2653810  12.3490080  72.8283140
  22.7644700  25.1808030  78.6539360  23.4066930  24.4801190  78.7671530
  23.2894050  25.9606470  78.4736250  26.6100420  25.4656650  68.3778500
  26.3838000  24.7487090  68.9703140  26.2196620  25.2169090  67.5400250
  24.5382320  25.9802930  81.8575420  24.8738560  26.5669620  82.5353340
  23.6182660  25.8495640  82.0873210  12.3916450  29.4923510  69.1522960
  12.7514090  30.0912850  68.4980230  12.2508790  30.0383400  69.9257990
  12.0885720  13.7698110  82.6398830  11.3744240  13.9695030  83.2451440
  12.5080760  12.9937680  83.0113630  26.1916670  23.3828590  70.0392660
  25.9038370  23.8441280  70.8270540  26.9868840  22.9226360  70.3076880
  12.3758310  27.7578370  83.6265360  12.4849430  26.8173110  83.4860750
  11.7238870  28.0233120  82.9779090  20.3670900  26.0294260  85.0263480
  20.0467770  25.3103500  85.5709170  19.6929260  26.7049330  85.0999540
  18.4085070  26.8754710  69.9696630  18.3995170  27.6084400  69.3541140
  17.4883430  26.6286290  70.0623590  14.0091710  22.0969600  70.7143390
  13.4019660  22.8368500  70.7238690  14.4841060  22.1868960  69.8881590
  23.5824500  16.2620420  80.3900280  23.9505320  15.4415630  80.7179850
  22.7222700  16.3222310  80.8055930  26.9486530  15.2177360  71.1987840
  26.3199690  15.3223030  70.4846070  26.4538450  15.4374140  71.9881720
  21.3944670  26.9382950  68.6321820  21.4956650  26.7346940  67.7023800
  20.4946410  26.6841230  68.8369600  18.9170560  17.4963310  72.6145720
  18.2086710  17.9649650  73.0559330  19.2015040  16.8385320  73.2490910
  20.5426490  18.9160010  80.6138250  21.0411740  19.3905830  81.2790100
  20.6849440  17.9923530  80.8208280  22.9485990  14.2213970  74.0541510
  22.8253770  14.2400100  73.1051020  23.8970550  14.2692910  74.1739910
  20.0362780  29.4569270  73.3269490  20.2904280  29.4190660  72.4048860
  19.0875260  29.3302600  73.3197740  17.1205580  15.8048390  69.9896430
  17.9696110  16.2418540  69.9236620  16.7536850  16.1168650  70.8168490
  27.7493350  15.1327970  81.4566640  27.2466950  15.8733370  81.7960450
  28.5650010  15.5211970  81.1403430  26.0415360  20.3761150  74.9028000
  25.1005500  20.3911380  75.0775690  26.3559430  19.5897110  75.3488300
  16.0197000  22.0580750  68.4631960  16.7860270  21.9462110  69.0257390
  16.0971690  21.3618720  67.8108730  14.7143760  19.4905820  69.1464850
  14.7947350  18.5433330  69.2582250  15.6063510  19.8212700  69.2525510
  28.0440940  27.5470000  76.5782260  28.1688360  28.3701170  77.0506070
  28.9106500  27.3360730  76.2306410  15.5158470  29.6401210  76.2499390
  16.2520950  29.0916670  76.5207960  15.8999390  30.5057220  76.1105380
  12.4003950  25.7074780  72.1240900  11.4743730  25.9495920  72.1146310
  12.8660380  26.5349040  72.0025650  14.5216750  28.8247280  85.4384970
  15.3229480  29.1459330  85.8520370  14.0068570  28.4642860  86.1604880
  18.6260780  28.8131520  68.0724960  19.4189390  29.1020350  67.6206750
  18.1065130  28.3823690  67.3937440  23.3581380  24.9327150  85.3860380
  22.7519540  24.9558750  84.6456130  23.0535490  24.2010190  85.9227630
  24.7881750  28.6607440  83.9969790  25.7403500  28.5765460  83.9470030
  24.6409970  29.3249150  84.6703580  27.6790950  28.0401650  69.4961700
  27.3932460  27.6266790  68.6815880  27.4810500  28.9689360  69.3762220
  12.2414560  21.3120740  84.3821020  12.7453580  20.7328020  84.9537250
  11.5021980  21.5960970  84.9197390  19.1438180  24.0334930  67.9367310
  19.0388820  23.4187280  68.6628690  18.9762400  23.5100820  67.1530320
  19.2952500  22.7191730  83.9156540  18.5298170  23.2876730  83.8311210
  19.4768460  22.4267940  83.0224770  22.3840910  23.0954960  68.5409300
  21.8351010  23.5424260  69.1852040  23.0060170  22.5904210  69.0646970
  26.4375850  24.4497060  84.4731560  27.1785320  24.7872820  83.9699020
  25.6748530  24.6189120  83.9201330  14.2737640  19.4550330  85.2771090
  14.3142980  19.1564200  86.1856320  15.1283140  19.8557940  85.1178610
  18.0516030  22.0545880  70.4374600  18.4732450  21.8885750  71.2805990
  18.1766870  21.2446110  69.9429740  16.2143450  18.0342430  83.2445580
  15.6839910  17.5433380  82.6168920  16.8831520  18.4626630  82.7103510
  20.5643670  21.0783490  67.6851700  21.0849330  20.3632510  67.3192850
  21.2112070  21.7169360  67.9852210  25.1121510  22.5011890  83.0086770
  25.5262530  22.6556970  83.8577190  24.1772510  22.6267110  83.1712550
  25.5843680  19.8408050  85.0125920  26.1664450  19.0860370  84.9246400
  25.7605450  20.3715490  84.2357400  16.7015750  15.0004800  83.3242870
  16.6072620  14.3825550  82.5993740  16.1213140  15.7271090  83.0972780
  19.4677190  13.5578040  80.3570260  19.0194490  13.5802300  79.5115810
  18.8342390  13.1597060  80.9540560  19.8736740  22.4532370  80.9782700
  20.2924850  23.2965100  80.8058940  18.9545370  22.5904410  80.7489480
  22.2100640  20.1848550  82.3620540  22.3296850  19.5889690  83.1015380
  23.0694640  20.2218240  81.9421840  24.5488540  20.7385740  80.9383050
  24.0223760  21.2628360  80.3348190  24.8919880  21.3713130  81.5692780
  16.9474930  18.1279110  67.3832760  16.7463990  17.2646470  67.7446100
  16.7766980  18.0412470  66.4454360  17.7244160  28.7585380  82.0940430
  17.1865250  29.4831440  81.7749130  17.9778120  28.2815720  81.3037770
  18.9769410  16.7269900  83.6196360  19.5669100  16.4185750  84.3074180
  18.1589650  16.2549650  83.7756260  23.7962840  16.3435710  83.8529380
  23.1078360  15.6817250  83.7879370  24.5168860  15.8973980  84.2977840
  24.4263240  12.9387340  69.9119640  24.7065530  12.0955240  70.2679060
  23.6528970  13.1710450  70.4258390  15.7457730  15.2279730  67.3710640
  16.0483630  15.2347160  66.4629790  16.4852320  14.8777590  67.8678300
  20.5806370  29.9936590  82.3527080  20.5065070  30.8971730  82.6599450
  19.6785210  29.6748490  82.3249150  18.9642660  14.1714350  68.3566840
  18.6164660  13.4938340  67.7769290  19.1655430  13.7103860  69.1710230
  21.1291700  29.1595100  69.9753440  22.0242490  29.4980070  69.9972200
  21.1609330  28.4374510  69.3477720  14.7687860  24.5322150  68.2040440
  15.2062730  25.0751820  68.8598020  15.2535590  23.7069100  68.2136780
  11.9833660  27.3211180  75.6560700  12.3136670  26.4532240  75.4239340
  12.4124660  27.5269700  76.4865660  16.5795580  25.6520190  73.3162670
  16.2791120  25.5285160  74.2166580  16.4733070  24.7928780  72.9078400
  12.4723870  28.1881770  78.3942330  12.0354860  28.3682570  79.2266480
  13.0401550  28.9456390  78.2524050  28.1086050  27.6898770  82.6819640
  27.5088040  27.7491330  81.9383560  28.2379950  26.7503750  82.8116490
  29.3487500  25.4316590  68.0189350  28.5180460  25.4993240  68.4896580
  29.5259330  26.3220710  67.7156210  28.8043960  22.1764070  70.5223550
  29.5662870  22.7460720  70.6283240  28.8198330  21.6091270  71.2931860
  12.3048300  20.7002000  74.7531210  11.6497140  20.4313640  74.1090910
  13.1426250  20.5906480  74.3033190  29.8103930  23.0314170  75.3665480
  30.1812760  22.2481490  74.9601450  30.4505860  23.7203270  75.1882780
  26.7937690  24.4150750  80.7795800  25.9797530  24.8447910  81.0421590
  27.2011890  25.0269160  80.1664850  28.8563130  22.4698440  67.6796070
  29.1311970  23.3777320  67.5515290  28.6673870  22.4060970  68.6158060
  25.2538740  15.4943290  68.9749700  25.6723620  15.3074270  68.1346360
  24.9474800  14.6422340  69.2852630  28.7528470  20.4067430  72.6725500
  28.3772070  19.6395360  72.2406790  28.0231590  20.7890130  73.1600430
  13.3424230  21.0854570  79.2934550  13.7097270  20.9981970  80.1730570
  12.7735050  20.3221120  79.1941410  28.1428090  19.5538950  82.3065020
  27.9114180  19.3251700  81.4062970  28.4032640  20.4738500  82.2609910
  12.8940230  17.9963660  83.1992970  11.9996280  17.9630420  83.5386680
  13.4337780  18.1950450  83.9644220  26.5816160  14.7795380  85.0844720
  27.4586340  14.7878780  85.4678720  26.5937000  14.0426220  84.4737070
  11.5186380  17.9100930  70.6956540  10.6150460  18.1731130  70.5208200
  12.0027000  18.1812100  69.9156500  28.0279430  18.6324920  75.9732740
  28.5516910  18.1387570  75.3422910  28.6138850  18.7675280  76.7180310
  28.2069150  18.7164790  79.4952290  27.2571860  18.6828330  79.6097280
  28.3882160  19.6264900  79.2602060  14.0613590  16.9666470  68.6050920
  14.7705290  16.5449690  68.1198200  13.3453530  17.0341700  67.9734270
  13.7087750  13.0205800  67.6453570  14.4315880  13.5614740  67.9634790
  13.9812270  12.7469220  66.7695110  27.5179400  17.8898270  71.9125150
  28.0138520  17.6569140  72.6974030  27.3195470  17.0510110  71.4962790
  13.3979940  12.2711990  77.5476190  14.0456130  11.7209370  77.1071350
  13.8181780  12.5255140  78.3692000  28.9466560  16.5259220  74.4462830
  28.8365840  16.3715260  75.3845100  29.7074150  15.9980160  74.2038240
  27.2932280  12.4653350  80.9045830  27.9304500  13.0787490  81.2705020
  27.4407170  12.5014010  79.9595060  29.8356830  14.3567140  67.6868970
  30.7606140  14.2248320  67.4787260  29.8132620  14.4359960  68.6405420
  29.9095320  15.1277800  70.3125680  29.1146820  15.0622920  70.8418590
  30.1138600  16.0628440  70.3011030  26.8513740  29.1669350  74.3064070
  27.4472810  28.8453920  73.6298490  27.1091890  28.6941170  75.0977340
  13.1511940  12.4267660  80.2901510  12.8026760  12.8831480  81.0559690
  12.8199640  11.5324790  80.3723940  14.7576310  25.5987260  84.4554700
  14.7145940  25.2280170  85.3369160  14.8887320  26.5364830  84.5956520
  18.4582340  27.1546850  80.0564420  18.2173700  27.4221410  79.1694940
  19.3984980  27.3252580  80.1115280  20.6636760  13.6179540  83.8120930
  20.6025650  14.2101370  84.5616340  21.6037140  13.5105500  83.6671190
  23.3011320  13.2749600  83.4513220  23.9151730  13.5928890  82.7894300
  23.8460880  12.7898190  84.0709080  29.7186500  29.1741230  80.8575060
  29.2244780  29.5710100  80.1402190  29.1099790  28.5490440  81.2512340
  13.8232580  11.9543860  83.5652280  14.3715570  11.7731910  82.8018390
  13.8887890  11.1637970  84.1008590  14.5964340  28.5449510  81.5752480
  14.0024660  28.4134210  82.3142520  14.5888180  27.7087650  81.1094580
  24.0419360  11.8381740  79.7782510  23.1679200  12.1716850  79.5755440
  23.9330110  11.3654920  80.6034380  24.9491340  14.0452610  81.1624230
  24.6204700  13.2304370  80.7825960  25.8973640  14.0022420  81.0389920
  27.4025950  29.8164650  78.1361800  26.9428920  30.5680460  77.7619820
  26.7738410  29.0971120  78.0776600  14.2276570  25.9107890  80.5260520
  13.5010630  25.2913180  80.4586470  14.2885720  26.3048500  79.6558600
  17.8321670  28.1252890  77.3109930  18.3486690  27.5140250  76.7858190
  18.4819050  28.6281670  77.8020940  20.5717170  29.0161380  78.1378910
  20.8594980  28.7615680  77.2611920  21.0840390  28.4638740  78.7284480
  21.7894180  12.7551580  78.7175420  21.0065970  13.2297080  78.9972180
  21.4957110  11.8506410  78.6088600  26.3415250  13.4574680  76.7624510
  26.7823340  13.4019780  75.9146110  26.0722840  14.3732690  76.8334690
  28.2053820  13.0889920  74.7733330  28.1442220  12.1451140  74.6264350
  28.9845850  13.1970010  75.3186790  12.5106570  29.2282280  73.7357280
  12.3428610  28.5952960  74.4339170  11.6441080  29.4341680  73.3851470
  13.1334590  13.0599060  71.2389140  13.8913950  13.1727940  70.6653170
  12.6711760  13.8968260  71.1932570  19.6748400  15.1738330  74.2291450
  18.8622910  14.7995220  73.8887330  20.1790040  14.4183410  74.5312640
  24.1773380  11.8380780  75.4674520  24.7802750  12.4100990  75.9423040
  23.4366370  12.4020220  75.2448420  27.3207980  12.2402340  70.7414800
  27.5158610  13.1385790  71.0082230  26.5337850  12.0089420  71.2347750
  14.1169270  27.9215510  71.1807420  13.5916890  28.3023540  70.4769380
  14.0413850  28.5466280  71.9017130  15.5059740  13.5863110  69.7791110
  16.0352500  12.7992910  69.6499060  16.1388060  14.2654300  70.0126640
  17.6997580  13.3238250  72.8336500  17.0700320  12.6225560  73.0006630
  17.1602720  14.0842380  72.6169660  20.6389530  29.9377480  85.5047110
  21.5656840  29.7021750  85.5483070  20.6239960  30.7649480  85.0233140
  28.8734590  29.4803050  72.5021360  29.0486780  28.7940790  71.8582280
  28.1756160  30.0050100  72.1098030  17.8253140  12.6022230  85.2688990
  17.5437410  13.1055830  84.5049810  18.2072840  11.8043980  84.9031120
  16.7162240  29.8697890  70.0556670  17.4481060  29.5857170  69.5080560
  16.9755910  29.6311170  70.9456050  15.8777030  25.9862620  70.0603000
  15.2485910  26.4547720  70.6088830  15.9924860  25.1411840  70.4949190
  24.4268600  12.0175810  85.8469460  24.3134050  12.3370420  86.7420980
  25.2438340  12.4188320  85.5506740  27.2067090  29.1647340  85.3288150
  27.9992410  28.6696570  85.1214110  27.5000240  29.8437480  85.9363760
  23.3326750  20.0368280  56.2104200  23.2520800  19.1222890  55.9395910
  22.9191170  20.5335350  55.5043910  21.4644790  21.8147300  58.0913470
  20.6886890  21.3347740  58.3812040  22.1157720  21.1352950  57.9169630
  15.4810620  22.1267110  58.9689230  14.6495500  21.8715820  59.3685740
  16.0891600  22.1977880  59.7047150  25.4852220  26.2207490  56.8712600
  25.0233750  25.4494730  57.1999770  26.2977770  26.2473560  57.3765050
  15.4611880  26.1607200  59.1647250  15.7639920  25.2704940  58.9857470
  16.2055470  26.7177420  58.9369500  13.8902570  17.0869000  52.7531620
  13.0019270  17.4284970  52.6511500  14.1743760  16.8869320  51.8612450
  11.8535580  19.6874650  58.6371320  12.4251690  18.9196850  58.6374960
  11.8537120  19.9863410  57.7277930  21.7115530  28.5065500  56.4916590
  21.0926970  28.9623000  55.9211030  22.5667310  28.6616960  56.0906290
  20.9053780  24.4904490  58.0983630  20.8362060  23.5494430  57.9372760
  21.6673640  24.5805900  58.6706200  13.0960450  15.0959010  60.4240250
  12.9163290  14.1984760  60.7043010  12.6940530  15.6430880  61.0987200
  21.9358950  17.2974870  58.3252560  22.3123770  16.4246750  58.2126230
  21.8378460  17.6333570  57.4343000  16.0663960  15.6700500  53.7870000
  16.1730710  16.5704230  54.0938760  15.1556320  15.6218470  53.4964650
  25.7183070  14.7925310  55.2580900  26.5392690  14.3021880  55.3006380
  25.7517150  15.3822970  56.0112740  13.7147120  17.5919510  59.0322590
  14.3957230  17.8557880  59.6509990  13.3995170  16.7520380  59.3660600
  17.9071690  18.6386870  58.1195180  18.4149910  19.1367840  58.7600200
  18.4384930  17.8622070  57.9434540  30.0082620  16.8092060  61.8224530
  29.3034790  17.1973770  61.3039640  30.2740540  17.5042350  62.4245460
  16.1907790  13.2785430  62.3858600  16.1926230  13.7957820  61.5804500
  15.3612100  12.8015610  62.3628530  22.5778880  23.3904740  53.8848500
  21.9596150  23.8554190  53.3211220  23.0902130  24.0832220  54.3018010
  17.4410640  22.9180610  60.5632100  17.1080020  23.5449530  61.2053170
  17.6177320  23.4442490  59.7833770  25.9544550  16.7325690  58.0308440
  25.2500120  17.0210580  58.6111550  26.3156710  17.5425800  57.6708000
  15.8723120  14.9895390  60.3929050  16.2139930  15.8337440  60.0982920
  14.9338930  15.1379130  60.5094390  16.6529740  24.8861410  62.3781280
  17.2703740  25.5612490  62.0965730  15.7922860  25.2949390  62.2868780
  11.9462080  24.0761270  51.2588130  11.5690060  24.5648370  50.5273030
  12.2035150  24.7486550  51.8894660  27.5707330  26.3500820  60.2935920
  26.8870850  27.0199930  60.2852590  28.1101620  26.5481470  59.5280780
  29.0231470  16.1780480  58.4217650  28.0756380  16.2119460  58.5533080
  29.3481460  16.9919430  58.8067010  19.5551010  12.4777660  56.7173640
  19.8625990  11.9224550  56.0009140  18.6251710  12.6122120  56.5346630
  25.1066070  28.1944950  59.0081100  25.1193230  27.7907240  58.1403360
  24.5541290  28.9692240  58.9042530  26.4011490  24.9161170  54.0971270
  26.2907820  23.9735500  54.2220690  26.3979740  25.2776810  54.9834030
  24.5051510  23.0974790  60.3363710  24.9220300  22.8834900  59.5017170
  25.2291330  23.3547580  60.9072330  21.9431770  20.5426490  53.4533760
  21.0161050  20.4763870  53.6822230  22.0956590  21.4806620  53.3389000
  21.9300850  16.8143490  50.4500920  20.9904520  16.9757450  50.5353380
  22.2484110  17.5329170  49.9036910  28.4513610  21.4962010  60.4279950
  27.6232240  21.5655100  59.9530080  29.0464090  22.0816320  59.9595780
  25.9729060  22.1046790  53.9569010  25.3541480  21.7666340  53.3095310
  25.9553510  21.4606550  54.6648200  25.4155620  18.2831330  61.3734820
  25.0026800  19.1085040  61.6274810  24.6831570  17.6976370  61.1811180
  17.5488410  21.0691230  56.2353490  17.1445410  20.3568480  55.7399390
  17.6351530  20.7244470  57.1241530  18.0170110  24.7558790  58.3992700
  17.7198400  24.1504260  57.7200480  18.9669930  24.7936100  58.2882060
  16.2617030  17.8434440  60.0152530  16.8131620  17.9529780  59.2405780
  16.7760540  18.2172040  60.7307760  26.1055720  28.3290660  62.0615800
  25.6286280  29.1362850  61.8688410  25.4217510  27.6768990  62.2142010
  17.1088540  24.4940480  65.0500500  16.2117070  24.7180450  65.2973900
  17.1341410  24.6175420  64.1011900  24.1493760  21.3433600  50.9641760
  24.5887040  20.5056030  50.8179580  24.8622180  21.9763000  51.0505900
  15.9359760  21.3653800  63.6257870  15.7967530  22.2376600  63.9945270
  15.0541120  21.0226610  63.4805810  22.2589140  26.2829670  54.9323000
  22.6985050  27.0254000  54.5178390  22.1976030  26.5256240  55.8561960
  17.7340110  27.3075500  65.8343020  17.7055540  27.7118450  64.9671450
  17.5705080  26.3785860  65.6714620  27.7310900  12.5976410  49.2782800
  27.4183560  12.6903240  50.1781870  28.4923370  13.1757440  49.2280230
  14.2493040  19.9636210  53.7360140  14.1290640  20.6898300  53.1241410
  13.9393930  19.1939120  53.2588050  29.6854930  28.0902600  67.1307190
  30.1614650  28.5685490  67.8096270  30.3062090  28.0220090  66.4052690
  11.8878410  23.1351350  59.5428780  11.9658830  23.2700120  58.5984500
  12.5020090  22.4267240  59.7356900  13.1326040  24.8351540  55.9534960
  12.7254120  24.9766130  55.0988560  14.0239050  24.5511700  55.7506170
  29.0888180  25.2815450  64.2907200  29.2151240  25.0427330  63.3724380
  29.1309560  24.4499990  64.7629280  22.9504920  28.9843450  62.8602010
  23.4649590  28.8951460  63.6624440  22.1074000  29.3303150  63.1529920
  24.9259320  29.2698790  52.2886010  24.7660460  28.9801730  53.1867840
  24.7606030  28.4938920  51.7531240  17.4047700  29.0497320  54.0657630
  17.2290180  28.1332860  53.8525430  16.5503440  29.4084610  54.3055430
  24.6285450  26.7786350  50.8484010  23.9350610  26.7763640  50.1886290
  25.3708310  26.3545670  50.4178180  24.1935380  28.4049060  54.9232500
  24.6492330  27.6238440  55.2371120  24.5327900  29.1155880  55.4673680
  28.9412190  17.3347910  65.2556940  28.3256460  17.8427580  64.7272400
  28.6208610  16.4346240  65.1982880  11.9437930  24.1765520  62.0823240
  12.1068970  23.7070880  61.2642610  12.4090380  23.6689080  62.7472080
  16.7156700  13.3071280  57.1183810  16.2724850  14.0880820  56.7868330
  17.2741690  13.6301170  57.8254750  21.0026510  16.1739800  62.7219130
  20.5405880  16.3822820  63.5339070  20.6004620  15.3599150  62.4189800
  26.0031020  17.3948750  63.8515790  25.1524610  17.0954500  64.1724860
  25.8432810  17.6390760  62.9399610  23.0980730  18.8950500  65.9514580
  23.4234140  18.0614250  65.6116810  23.8861060  19.4179020  66.0992910
  19.8315520  12.9281980  51.9989640  19.2069700  12.9241850  52.7242950
  19.7445640  12.0612940  51.6025610  18.7532600  13.8518610  58.9773410
  19.0504930  14.7581440  58.8965430  19.3018160  13.3637390  58.3632980
  16.5070920  18.4304850  54.8465060  16.2811840  18.2142020  55.7511680
  15.7263450  18.8633310  54.5011030  23.7368680  18.4368220  53.4455710
  23.1377570  19.1604020  53.2619330  24.2848290  18.3745000  52.6632160
  18.9470130  19.3290430  65.5125330  18.8513730  18.3885160  65.3625730
  19.7902110  19.5505500  65.1173400  22.3433550  17.0731760  55.4758990
  22.7363120  17.3903960  54.6627680  22.7050400  16.1943640  55.5903510
  14.0780670  15.7404100  63.6659110  13.6844060  16.5879310  63.8731890
  13.3899070  15.1030470  63.8567750  20.6525720  15.8239070  66.7355850
  19.9624040  15.6311270  67.3701940  21.3958020  16.1073710  67.2680150
  11.3797720  13.6632560  57.6989190  11.0910770  14.2335420  58.4114170
  12.1243480  13.1837010  58.0620420  11.5667950  17.6052680  48.9091910
  11.4842620  18.5483440  49.0506900  11.2151010  17.4627590  48.0304260
  22.9288690  19.6637510  59.5709770  22.1969810  20.1724320  59.9199870
  22.5313030  18.8467490  59.2698550  19.3666080  16.3391710  57.9762260
  19.3702140  15.8981660  57.1266800  20.2617200  16.6609040  58.0834080
  15.2168460  16.2218200  56.9356470  14.8768510  16.6993430  57.6923520
  14.4545780  15.7683320  56.5757570  19.4286230  17.3403790  50.9669020
  19.5499050  17.2990270  51.9154840  19.0434740  18.2027940  50.8115750
  23.3914600  15.1171190  58.9832710  23.4087340  15.5679840  59.8274560
  23.1430180  14.2176830  59.1966150  18.4407730  19.6504930  50.3652320
  17.8724630  19.2023180  49.7388230  19.1496730  20.0097710  49.8317470
  26.8185350  12.5303370  64.8219090  27.1431120  11.7993030  65.3477070
  26.8541860  12.2117010  63.9200080  13.5176910  23.5516950  64.2419050
  13.1331700  22.9110620  64.8402010  13.8289100  24.2553070  64.8113780
  19.6674050  20.3993490  59.7227670  20.0344180  19.9252060  60.4689010
  19.4779110  21.2735060  60.0636010  12.5314540  15.1437180  55.8521140
  12.2461460  14.7792850  56.6899760  12.4693400  14.4117640  55.2384280
  17.4573420  19.4402130  62.0411880  17.1530490  20.3194110  62.2662240
  18.4119880  19.5001920  62.0769320  15.9855210  23.6463120  52.6378730
  15.2117470  23.1060740  52.4777450  16.7149840  23.1269730  52.2996490
  26.7443190  22.6428480  58.4305120  27.4642310  23.1383770  58.0401230
  26.5425010  21.9646370  57.7858990  22.2053130  14.0366440  52.5734510
  21.3917740  13.5379610  52.4979820  22.0115080  14.8764690  52.1570860
  22.1261990  22.7137540  64.3174120  22.0599300  21.7933210  64.0631710
  21.4967130  22.8112980  65.0318760  24.9201520  18.4086090  50.8696670
  25.8081140  18.7203320  50.6948010  24.8906610  17.5358340  50.4777250
  16.0292610  23.3143500  56.2757540  16.5471280  22.5111760  56.2214430
  15.5776630  23.2522640  57.1174370  20.9162110  24.5809780  51.5484840
  21.2577810  25.3252010  51.0528160  20.0874820  24.8940900  51.9109670
  13.5137150  20.2804870  63.1883240  13.1552090  20.9458720  63.7756580
  13.2191710  19.4488420  63.5595860  16.7150270  20.7389110  66.0722790
  16.4150410  20.8846290  65.1750610  17.4861510  20.1794400  65.9796180
  22.0578720  25.5358110  64.0677920  22.0723260  24.6039070  63.8496830
  21.3503820  25.6217870  64.7067690  27.1915790  19.7197930  50.3376530
  27.1079510  20.1512150  49.4872970  27.9109980  20.1796280  50.7703350
  28.2689930  22.1765450  63.4146500  27.5438120  22.7694230  63.2175890
  28.7965390  22.1688990  62.6159870  28.2203040  26.5740190  53.0658660
  27.5779200  25.9195810  53.3402380  27.8333700  26.9795280  52.2899330
  23.7989520  23.9025620  56.9130350  24.1513340  23.3053750  56.2531720
  22.9151850  23.5769850  57.0838600  19.8852800  24.6623310  54.3200760
  20.5723930  25.2092520  54.7008350  19.0985220  25.2064040  54.3550370
  12.0245200  20.2796130  49.8117840  12.8940050  20.5620930  50.0953760
  11.5335520  21.0932000  49.6966650  19.1880010  21.6669340  53.9326120
  19.6442790  22.4774590  54.1586310  18.8368220  21.3492480  54.7644610
  21.4912620  27.1775680  61.1618420  22.1354840  27.3835060  61.8391840
  21.8542060  26.4164080  60.7089270  15.0891790  12.0106990  54.4048640
  14.9606420  12.0024890  55.3533560  14.2653810  12.3490080  54.0539650
  22.7644700  25.1808030  59.8795870  23.4066930  24.4801190  59.9928040
  23.2894050  25.9606470  59.6992760  26.6100420  25.4656650  49.6035010
  26.3838000  24.7487090  50.1959650  26.2196620  25.2169090  48.7656760
  24.5382320  25.9802930  63.0831930  24.8738560  26.5669620  63.7609850
  23.6182660  25.8495640  63.3129720  12.3916450  29.4923510  50.3779470
  12.7514090  30.0912850  49.7236740  12.2508790  30.0383400  51.1514500
  12.0885720  13.7698110  63.8655340  11.3744240  13.9695030  64.4707950
  12.5080760  12.9937680  64.2370140  26.1916670  23.3828590  51.2649170
  25.9038370  23.8441280  52.0527050  26.9868840  22.9226360  51.5333390
  12.3758310  27.7578370  64.8521870  12.4849430  26.8173110  64.7117260
  11.7238870  28.0233120  64.2035600  20.3670900  26.0294260  66.2519990
  20.0467770  25.3103500  66.7965680  19.6929260  26.7049330  66.3256050
  18.4085070  26.8754710  51.1953140  18.3995170  27.6084400  50.5797650
  17.4883430  26.6286290  51.2880100  14.0091710  22.0969600  51.9399900
  13.4019660  22.8368500  51.9495200  14.4841060  22.1868960  51.1138100
  23.5824500  16.2620420  61.6156790  23.9505320  15.4415630  61.9436360
  22.7222700  16.3222310  62.0312440  26.9486530  15.2177360  52.4244350
  26.3199690  15.3223030  51.7102580  26.4538450  15.4374140  53.2138230
  21.3944670  26.9382950  49.8578330  21.4956650  26.7346940  48.9280310
  20.4946410  26.6841230  50.0626110  18.9170560  17.4963310  53.8402230
  18.2086710  17.9649650  54.2815840  19.2015040  16.8385320  54.4747420
  20.5426490  18.9160010  61.8394760  21.0411740  19.3905830  62.5046610
  20.6849440  17.9923530  62.0464790  22.9485990  14.2213970  55.2798020
  22.8253770  14.2400100  54.3307530  23.8970550  14.2692910  55.3996420
  20.0362780  29.4569270  54.5526000  20.2904280  29.4190660  53.6305370
  19.0875260  29.3302600  54.5454250  17.1205580  15.8048390  51.2152940
  17.9696110  16.2418540  51.1493130  16.7536850  16.1168650  52.0425000
  27.7493350  15.1327970  62.6823150  27.2466950  15.8733370  63.0216960
  28.5650010  15.5211970  62.3659940  26.0415360  20.3761150  56.1284510
  25.1005500  20.3911380  56.3032200  26.3559430  19.5897110  56.5744810
  16.0197000  22.0580750  49.6888470  16.7860270  21.9462110  50.2513900
  16.0971690  21.3618720  49.0365240  14.7143760  19.4905820  50.3721360
  14.7947350  18.5433330  50.4838760  15.6063510  19.8212700  50.4782020
  28.0440940  27.5470000  57.8038770  28.1688360  28.3701170  58.2762580
  28.9106500  27.3360730  57.4562920  15.5158470  29.6401210  57.4755900
  16.2520950  29.0916670  57.7464470  15.8999390  30.5057220  57.3361890
  12.4003950  25.7074780  53.3497410  11.4743730  25.9495920  53.3402820
  12.8660380  26.5349040  53.2282160  14.5216750  28.8247280  66.6641480
  15.3229480  29.1459330  67.0776880  14.0068570  28.4642860  67.3861390
  18.6260780  28.8131520  49.2981470  19.4189390  29.1020350  48.8463260
  18.1065130  28.3823690  48.6193950  23.3581380  24.9327150  66.6116890
  22.7519540  24.9558750  65.8712640  23.0535490  24.2010190  67.1484140
  24.7881750  28.6607440  65.2226300  25.7403500  28.5765460  65.1726540
  24.6409970  29.3249150  65.8960090  27.6790950  28.0401650  50.7218210
  27.3932460  27.6266790  49.9072390  27.4810500  28.9689360  50.6018730
  12.2414560  21.3120740  65.6077530  12.7453580  20.7328020  66.1793760
  11.5021980  21.5960970  66.1453900  19.1438180  24.0334930  49.1623820
  19.0388820  23.4187280  49.8885200  18.9762400  23.5100820  48.3786830
  19.2952500  22.7191730  65.1413050  18.5298170  23.2876730  65.0567720
  19.4768460  22.4267940  64.2481280  22.3840910  23.0954960  49.7665810
  21.8351010  23.5424260  50.4108550  23.0060170  22.5904210  50.2903480
  26.4375850  24.4497060  65.6988070  27.1785320  24.7872820  65.1955530
  25.6748530  24.6189120  65.1457840  14.2737640  19.4550330  66.5027600
  14.3142980  19.1564200  67.4112830  15.1283140  19.8557940  66.3435120
  18.0516030  22.0545880  51.6631110  18.4732450  21.8885750  52.5062500
  18.1766870  21.2446110  51.1686250  16.2143450  18.0342430  64.4702090
  15.6839910  17.5433380  63.8425430  16.8831520  18.4626630  63.9360020
  20.5643670  21.0783490  48.9108210  21.0849330  20.3632510  48.5449360
  21.2112070  21.7169360  49.2108720  25.1121510  22.5011890  64.2343280
  25.5262530  22.6556970  65.0833700  24.1772510  22.6267110  64.3969060
  25.5843680  19.8408050  66.2382430  26.1664450  19.0860370  66.1502910
  25.7605450  20.3715490  65.4613910  16.7015750  15.0004800  64.5499380
  16.6072620  14.3825550  63.8250250  16.1213140  15.7271090  64.3229290
  19.4677190  13.5578040  61.5826770  19.0194490  13.5802300  60.7372320
  18.8342390  13.1597060  62.1797070  19.8736740  22.4532370  62.2039210
  20.2924850  23.2965100  62.0315450  18.9545370  22.5904410  61.9745990
  22.2100640  20.1848550  63.5877050  22.3296850  19.5889690  64.3271890
  23.0694640  20.2218240  63.1678350  24.5488540  20.7385740  62.1639560
  24.0223760  21.2628360  61.5604700  24.8919880  21.3713130  62.7949290
  16.9474930  18.1279110  48.6089270  16.7463990  17.2646470  48.9702610
  16.7766980  18.0412470  47.6710870  17.7244160  28.7585380  63.3196940
  17.1865250  29.4831440  63.0005640  17.9778120  28.2815720  62.5294280
  18.9769410  16.7269900  64.8452870  19.5669100  16.4185750  65.5330690
  18.1589650  16.2549650  65.0012770  23.7962840  16.3435710  65.0785890
  23.1078360  15.6817250  65.0135880  24.5168860  15.8973980  65.5234350
  24.4263240  12.9387340  51.1376150  24.7065530  12.0955240  51.4935570
  23.6528970  13.1710450  51.6514900  15.7457730  15.2279730  48.5967150
  16.0483630  15.2347160  47.6886300  16.4852320  14.8777590  49.0934810
  20.5806370  29.9936590  63.5783590  20.5065070  30.8971730  63.8855960
  19.6785210  29.6748490  63.5505660  18.9642660  14.1714350  49.5823350
  18.6164660  13.4938340  49.0025800  19.1655430  13.7103860  50.3966740
  21.1291700  29.1595100  51.2009950  22.0242490  29.4980070  51.2228710
  21.1609330  28.4374510  50.5734230  14.7687860  24.5322150  49.4296950
  15.2062730  25.0751820  50.0854530  15.2535590  23.7069100  49.4393290
  11.9833660  27.3211180  56.8817210  12.3136670  26.4532240  56.6495850
  12.4124660  27.5269700  57.7122170  16.5795580  25.6520190  54.5419180
  16.2791120  25.5285160  55.4423090  16.4733070  24.7928780  54.1334910
  12.4723870  28.1881770  59.6198840  12.0354860  28.3682570  60.4522990
  13.0401550  28.9456390  59.4780560  28.1086050  27.6898770  63.9076150
  27.5088040  27.7491330  63.1640070  28.2379950  26.7503750  64.0373000
  29.3487500  25.4316590  49.2445860  28.5180460  25.4993240  49.7153090
  29.5259330  26.3220710  48.9412720  28.8043960  22.1764070  51.7480060
  29.5662870  22.7460720  51.8539750  28.8198330  21.6091270  52.5188370
  12.3048300  20.7002000  55.9787720  11.6497140  20.4313640  55.3347420
  13.1426250  20.5906480  55.5289700  29.8103930  23.0314170  56.5921990
  30.1812760  22.2481490  56.1857960  30.4505860  23.7203270  56.4139290
  26.7937690  24.4150750  62.0052310  25.9797530  24.8447910  62.2678100
  27.2011890  25.0269160  61.3921360  28.8563130  22.4698440  48.9052580
  29.1311970  23.3777320  48.7771800  28.6673870  22.4060970  49.8414570
  25.2538740  15.4943290  50.2006210  25.6723620  15.3074270  49.3602870
  24.9474800  14.6422340  50.5109140  28.7528470  20.4067430  53.8982010
  28.3772070  19.6395360  53.4663300  28.0231590  20.7890130  54.3856940
  13.3424230  21.0854570  60.5191060  13.7097270  20.9981970  61.3987080
  12.7735050  20.3221120  60.4197920  28.1428090  19.5538950  63.5321530
  27.9114180  19.3251700  62.6319480  28.4032640  20.4738500  63.4866420
  12.8940230  17.9963660  64.4249480  11.9996280  17.9630420  64.7643190
  13.4337780  18.1950450  65.1900730  26.5816160  14.7795380  66.3101230
  27.4586340  14.7878780  66.6935230  26.5937000  14.0426220  65.6993580
  11.5186380  17.9100930  51.9213050  10.6150460  18.1731130  51.7464710
  12.0027000  18.1812100  51.1413010  28.0279430  18.6324920  57.1989250
  28.5516910  18.1387570  56.5679420  28.6138850  18.7675280  57.9436820
  28.2069150  18.7164790  60.7208800  27.2571860  18.6828330  60.8353790
  28.3882160  19.6264900  60.4858570  14.0613590  16.9666470  49.8307430
  14.7705290  16.5449690  49.3454710  13.3453530  17.0341700  49.1990780
  13.7087750  13.0205800  48.8710080  14.4315880  13.5614740  49.1891300
  13.9812270  12.7469220  47.9951620  27.5179400  17.8898270  53.1381660
  28.0138520  17.6569140  53.9230540  27.3195470  17.0510110  52.7219300
  13.3979940  12.2711990  58.7732700  14.0456130  11.7209370  58.3327860
  13.8181780  12.5255140  59.5948510  28.9466560  16.5259220  55.6719340
  28.8365840  16.3715260  56.6101610  29.7074150  15.9980160  55.4294750
  27.2932280  12.4653350  62.1302340  27.9304500  13.0787490  62.4961530
  27.4407170  12.5014010  61.1851570  29.8356830  14.3567140  48.9125480
  30.7606140  14.2248320  48.7043770  29.8132620  14.4359960  49.8661930
  29.9095320  15.1277800  51.5382190  29.1146820  15.0622920  52.0675100
  30.1138600  16.0628440  51.5267540  26.8513740  29.1669350  55.5320580
  27.4472810  28.8453920  54.8555000  27.1091890  28.6941170  56.3233850
  13.1511940  12.4267660  61.5158020  12.8026760  12.8831480  62.2816200
  12.8199640  11.5324790  61.5980450  14.7576310  25.5987260  65.6811210
  14.7145940  25.2280170  66.5625670  14.8887320  26.5364830  65.8213030
  18.4582340  27.1546850  61.2820930  18.2173700  27.4221410  60.3951450
  19.3984980  27.3252580  61.3371790  20.6636760  13.6179540  65.0377440
  20.6025650  14.2101370  65.7872850  21.6037140  13.5105500  64.8927700
  23.3011320  13.2749600  64.6769730  23.9151730  13.5928890  64.0150810
  23.8460880  12.7898190  65.2965590  29.7186500  29.1741230  62.0831570
  29.2244780  29.5710100  61.3658700  29.1099790  28.5490440  62.4768850
  13.8232580  11.9543860  64.7908790  14.3715570  11.7731910  64.0274900
  13.8887890  11.1637970  65.3265100  14.5964340  28.5449510  62.8008990
  14.0024660  28.4134210  63.5399030  14.5888180  27.7087650  62.3351090
  24.0419360  11.8381740  61.0039020  23.1679200  12.1716850  60.8011950
  23.9330110  11.3654920  61.8290890  24.9491340  14.0452610  62.3880740
  24.6204700  13.2304370  62.0082470  25.8973640  14.0022420  62.2646430
  27.4025950  29.8164650  59.3618310  26.9428920  30.5680460  58.9876330
  26.7738410  29.0971120  59.3033110  14.2276570  25.9107890  61.7517030
  13.5010630  25.2913180  61.6842980  14.2885720  26.3048500  60.8815110
  17.8321670  28.1252890  58.5366440  18.3486690  27.5140250  58.0114700
  18.4819050  28.6281670  59.0277450  20.5717170  29.0161380  59.3635420
  20.8594980  28.7615680  58.4868430  21.0840390  28.4638740  59.9540990
  21.7894180  12.7551580  59.9431930  21.0065970  13.2297080  60.2228690
  21.4957110  11.8506410  59.8345110  26.3415250  13.4574680  57.9881020
  26.7823340  13.4019780  57.1402620  26.0722840  14.3732690  58.0591200
  28.2053820  13.0889920  55.9989840  28.1442220  12.1451140  55.8520860
  28.9845850  13.1970010  56.5443300  12.5106570  29.2282280  54.9613790
  12.3428610  28.5952960  55.6595680  11.6441080  29.4341680  54.6107980
  13.1334590  13.0599060  52.4645650  13.8913950  13.1727940  51.8909680
  12.6711760  13.8968260  52.4189080  19.6748400  15.1738330  55.4547960
  18.8622910  14.7995220  55.1143840  20.1790040  14.4183410  55.7569150
  24.1773380  11.8380780  56.6931030  24.7802750  12.4100990  57.1679550
  23.4366370  12.4020220  56.4704930  27.3207980  12.2402340  51.9671310
  27.5158610  13.1385790  52.2338740  26.5337850  12.0089420  52.4604260
  14.1169270  27.9215510  52.4063930  13.5916890  28.3023540  51.7025890
  14.0413850  28.5466280  53.1273640  15.5059740  13.5863110  51.0047620
  16.0352500  12.7992910  50.8755570  16.1388060  14.2654300  51.2383150
  17.6997580  13.3238250  54.0593010  17.0700320  12.6225560  54.2263140
  17.1602720  14.0842380  53.8426170  20.6389530  29.9377480  66.7303620
  21.5656840  29.7021750  66.7739580  20.6239960  30.7649480  66.2489650
  28.8734590  29.4803050  53.7277870  29.0486780  28.7940790  53.0838790
  28.1756160  30.0050100  53.3354540  17.8253140  12.6022230  66.4945500
  17.5437410  13.1055830  65.7306320  18.2072840  11.8043980  66.1287630
  16.7162240  29.8697890  51.2813180  17.4481060  29.5857170  50.7337070
  16.9755910  29.6311170  52.1712560  15.8777030  25.9862620  51.2859510
  15.2485910  26.4547720  51.8345340  15.9924860  25.1411840  51.7205700
  24.4268600  12.0175810  67.0725970  24.3134050  12.3370420  67.9677490
  25.2438340  12.4188320  66.7763250  27.2067090  29.1647340  66.5544660
  27.9992410  28.6696570  66.3470620  27.5000240  29.8437480  67.1620270
  23.3326750  20.0368280  37.4360710  23.2520800  19.1222890  37.1652420
  22.9191170  20.5335350  36.7300420  21.4644790  21.8147300  39.3169980
  20.6886890  21.3347740  39.6068550  22.1157720  21.1352950  39.1426140
  15.4810620  22.1267110  40.1945740  14.6495500  21.8715820  40.5942250
  16.0891600  22.1977880  40.9303660  25.4852220  26.2207490  38.0969110
  25.0233750  25.4494730  38.4256280  26.2977770  26.2473560  38.6021560
  15.4611880  26.1607200  40.3903760  15.7639920  25.2704940  40.2113980
  16.2055470  26.7177420  40.1626010  13.8902570  17.0869000  33.9788130
  13.0019270  17.4284970  33.8768010  14.1743760  16.8869320  33.0868960
  11.8535580  19.6874650  39.8627830  12.4251690  18.9196850  39.8631470
  11.8537120  19.9863410  38.9534440  21.7115530  28.5065500  37.7173100
  21.0926970  28.9623000  37.1467540  22.5667310  28.6616960  37.3162800
  20.9053780  24.4904490  39.3240140  20.8362060  23.5494430  39.1629270
  21.6673640  24.5805900  39.8962710  13.0960450  15.0959010  41.6496760
  12.9163290  14.1984760  41.9299520  12.6940530  15.6430880  42.3243710
  21.9358950  17.2974870  39.5509070  22.3123770  16.4246750  39.4382740
  21.8378460  17.6333570  38.6599510  16.0663960  15.6700500  35.0126510
  16.1730710  16.5704230  35.3195270  15.1556320  15.6218470  34.7221160
  25.7183070  14.7925310  36.4837410  26.5392690  14.3021880  36.5262890
  25.7517150  15.3822970  37.2369250  13.7147120  17.5919510  40.2579100
  14.3957230  17.8557880  40.8766500  13.3995170  16.7520380  40.5917110
  17.9071690  18.6386870  39.3451690  18.4149910  19.1367840  39.9856710
  18.4384930  17.8622070  39.1691050  30.0082620  16.8092060  43.0481040
  29.3034790  17.1973770  42.5296150  30.2740540  17.5042350  43.6501970
  16.1907790  13.2785430  43.6115110  16.1926230  13.7957820  42.8061010
  15.3612100  12.8015610  43.5885040  22.5778880  23.3904740  35.1105010
  21.9596150  23.8554190  34.5467730  23.0902130  24.0832220  35.5274520
  17.4410640  22.9180610  41.7888610  17.1080020  23.5449530  42.4309680
  17.6177320  23.4442490  41.0090280  25.9544550  16.7325690  39.2564950
  25.2500120  17.0210580  39.8368060  26.3156710  17.5425800  38.8964510
  15.8723120  14.9895390  41.6185560  16.2139930  15.8337440  41.3239430
  14.9338930  15.1379130  41.7350900  16.6529740  24.8861410  43.6037790
  17.2703740  25.5612490  43.3222240  15.7922860  25.2949390  43.5125290
  11.9462080  24.0761270  32.4844640  11.5690060  24.5648370  31.7529540
  12.2035150  24.7486550  33.1151170  27.5707330  26.3500820  41.5192430
  26.8870850  27.0199930  41.5109100  28.1101620  26.5481470  40.7537290
  29.0231470  16.1780480  39.6474160  28.0756380  16.2119460  39.7789590
  29.3481460  16.9919430  40.0323520  19.5551010  12.4777660  37.9430150
  19.8625990  11.9224550  37.2265650  18.6251710  12.6122120  37.7603140
  25.1066070  28.1944950  40.2337610  25.1193230  27.7907240  39.3659870
  24.5541290  28.9692240  40.1299040  26.4011490  24.9161170  35.3227780
  26.2907820  23.9735500  35.4477200  26.3979740  25.2776810  36.2090540
  24.5051510  23.0974790  41.5620220  24.9220300  22.8834900  40.7273680
  25.2291330  23.3547580  42.1328840  21.9431770  20.5426490  34.6790270
  21.0161050  20.4763870  34.9078740  22.0956590  21.4806620  34.5645510
  21.9300850  16.8143490  31.6757430  20.9904520  16.9757450  31.7609890
  22.2484110  17.5329170  31.1293420  28.4513610  21.4962010  41.6536460
  27.6232240  21.5655100  41.1786590  29.0464090  22.0816320  41.1852290
  25.9729060  22.1046790  35.1825520  25.3541480  21.7666340  34.5351820
  25.9553510  21.4606550  35.8904710  25.4155620  18.2831330  42.5991330
  25.0026800  19.1085040  42.8531320  24.6831570  17.6976370  42.4067690
  17.5488410  21.0691230  37.4610000  17.1445410  20.3568480  36.9655900
  17.6351530  20.7244470  38.3498040  18.0170110  24.7558790  39.6249210
  17.7198400  24.1504260  38.9456990  18.9669930  24.7936100  39.5138570
  16.2617030  17.8434440  41.2409040  16.8131620  17.9529780  40.4662290
  16.7760540  18.2172040  41.9564270  26.1055720  28.3290660  43.2872310
  25.6286280  29.1362850  43.0944920  25.4217510  27.6768990  43.4398520
  17.1088540  24.4940480  46.2757010  16.2117070  24.7180450  46.5230410
  17.1341410  24.6175420  45.3268410  24.1493760  21.3433600  32.1898270
  24.5887040  20.5056030  32.0436090  24.8622180  21.9763000  32.2762410
  15.9359760  21.3653800  44.8514380  15.7967530  22.2376600  45.2201780
  15.0541120  21.0226610  44.7062320  22.2589140  26.2829670  36.1579510
  22.6985050  27.0254000  35.7434900  22.1976030  26.5256240  37.0818470
  17.7340110  27.3075500  47.0599530  17.7055540  27.7118450  46.1927960
  17.5705080  26.3785860  46.8971130  27.7310900  12.5976410  30.5039310
  27.4183560  12.6903240  31.4038380  28.4923370  13.1757440  30.4536740
  14.2493040  19.9636210  34.9616650  14.1290640  20.6898300  34.3497920
  13.9393930  19.1939120  34.4844560  29.6854930  28.0902600  48.3563700
  30.1614650  28.5685490  49.0352780  30.3062090  28.0220090  47.6309200
  11.8878410  23.1351350  40.7685290  11.9658830  23.2700120  39.8241010
  12.5020090  22.4267240  40.9613410  13.1326040  24.8351540  37.1791470
  12.7254120  24.9766130  36.3245070  14.0239050  24.5511700  36.9762680
  29.0888180  25.2815450  45.5163710  29.2151240  25.0427330  44.5980890
  29.1309560  24.4499990  45.9885790  22.9504920  28.9843450  44.0858520
  23.4649590  28.8951460  44.8880950  22.1074000  29.3303150  44.3786430
  24.9259320  29.2698790  33.5142520  24.7660460  28.9801730  34.4124350
  24.7606030  28.4938920  32.9787750  17.4047700  29.0497320  35.2914140
  17.2290180  28.1332860  35.0781940  16.5503440  29.4084610  35.5311940
  24.6285450  26.7786350  32.0740520  23.9350610  26.7763640  31.4142800
  25.3708310  26.3545670  31.6434690  24.1935380  28.4049060  36.1489010
  24.6492330  27.6238440  36.4627630  24.5327900  29.1155880  36.6930190
  28.9412190  17.3347910  46.4813450  28.3256460  17.8427580  45.9528910
  28.6208610  16.4346240  46.4239390  11.9437930  24.1765520  43.3079750
  12.1068970  23.7070880  42.4899120  12.4090380  23.6689080  43.9728590
  16.7156700  13.3071280  38.3440320  16.2724850  14.0880820  38.0124840
  17.2741690  13.6301170  39.0511260  21.0026510  16.1739800  43.9475640
  20.5405880  16.3822820  44.7595580  20.6004620  15.3599150  43.6446310
  26.0031020  17.3948750  45.0772300  25.1524610  17.0954500  45.3981370
  25.8432810  17.6390760  44.1656120  23.0980730  18.8950500  47.1771090
  23.4234140  18.0614250  46.8373320  23.8861060  19.4179020  47.3249420
  19.8315520  12.9281980  33.2246150  19.2069700  12.9241850  33.9499460
  19.7445640  12.0612940  32.8282120  18.7532600  13.8518610  40.2029920
  19.0504930  14.7581440  40.1221940  19.3018160  13.3637390  39.5889490
  16.5070920  18.4304850  36.0721570  16.2811840  18.2142020  36.9768190
  15.7263450  18.8633310  35.7267540  23.7368680  18.4368220  34.6712220
  23.1377570  19.1604020  34.4875840  24.2848290  18.3745000  33.8888670
  18.9470130  19.3290430  46.7381840  18.8513730  18.3885160  46.5882240
  19.7902110  19.5505500  46.3429910  22.3433550  17.0731760  36.7015500
  22.7363120  17.3903960  35.8884190  22.7050400  16.1943640  36.8160020
  14.0780670  15.7404100  44.8915620  13.6844060  16.5879310  45.0988400
  13.3899070  15.1030470  45.0824260  20.6525720  15.8239070  47.9612360
  19.9624040  15.6311270  48.5958450  21.3958020  16.1073710  48.4936660
  11.3797720  13.6632560  38.9245700  11.0910770  14.2335420  39.6370680
  12.1243480  13.1837010  39.2876930  11.5667950  17.6052680  30.1348420
  11.4842620  18.5483440  30.2763410  11.2151010  17.4627590  29.2560770
  22.9288690  19.6637510  40.7966280  22.1969810  20.1724320  41.1456380
  22.5313030  18.8467490  40.4955060  19.3666080  16.3391710  39.2018770
  19.3702140  15.8981660  38.3523310  20.2617200  16.6609040  39.3090590
  15.2168460  16.2218200  38.1612980  14.8768510  16.6993430  38.9180030
  14.4545780  15.7683320  37.8014080  19.4286230  17.3403790  32.1925530
  19.5499050  17.2990270  33.1411350  19.0434740  18.2027940  32.0372260
  23.3914600  15.1171190  40.2089220  23.4087340  15.5679840  41.0531070
  23.1430180  14.2176830  40.4222660  18.4407730  19.6504930  31.5908830
  17.8724630  19.2023180  30.9644740  19.1496730  20.0097710  31.0573980
  26.8185350  12.5303370  46.0475600  27.1431120  11.7993030  46.5733580
  26.8541860  12.2117010  45.1456590  13.5176910  23.5516950  45.4675560
  13.1331700  22.9110620  46.0658520  13.8289100  24.2553070  46.0370290
  19.6674050  20.3993490  40.9484180  20.0344180  19.9252060  41.6945520
  19.4779110  21.2735060  41.2892520  12.5314540  15.1437180  37.0777650
  12.2461460  14.7792850  37.9156270  12.4693400  14.4117640  36.4640790
  17.4573420  19.4402130  43.2668390  17.1530490  20.3194110  43.4918750
  18.4119880  19.5001920  43.3025830  15.9855210  23.6463120  33.8635240
  15.2117470  23.1060740  33.7033960  16.7149840  23.1269730  33.5253000
  26.7443190  22.6428480  39.6561630  27.4642310  23.1383770  39.2657740
  26.5425010  21.9646370  39.0115500  22.2053130  14.0366440  33.7991020
  21.3917740  13.5379610  33.7236330  22.0115080  14.8764690  33.3827370
  22.1261990  22.7137540  45.5430630  22.0599300  21.7933210  45.2888220
  21.4967130  22.8112980  46.2575270  24.9201520  18.4086090  32.0953180
  25.8081140  18.7203320  31.9204520  24.8906610  17.5358340  31.7033760
  16.0292610  23.3143500  37.5014050  16.5471280  22.5111760  37.4470940
  15.5776630  23.2522640  38.3430880  20.9162110  24.5809780  32.7741350
  21.2577810  25.3252010  32.2784670  20.0874820  24.8940900  33.1366180
  13.5137150  20.2804870  44.4139750  13.1552090  20.9458720  45.0013090
  13.2191710  19.4488420  44.7852370  16.7150270  20.7389110  47.2979300
  16.4150410  20.8846290  46.4007120  17.4861510  20.1794400  47.2052690
  22.0578720  25.5358110  45.2934430  22.0723260  24.6039070  45.0753340
  21.3503820  25.6217870  45.9324200  27.1915790  19.7197930  31.5633040
  27.1079510  20.1512150  30.7129480  27.9109980  20.1796280  31.9959860
  28.2689930  22.1765450  44.6403010  27.5438120  22.7694230  44.4432400
  28.7965390  22.1688990  43.8416380  28.2203040  26.5740190  34.2915170
  27.5779200  25.9195810  34.5658890  27.8333700  26.9795280  33.5155840
  23.7989520  23.9025620  38.1386860  24.1513340  23.3053750  37.4788230
  22.9151850  23.5769850  38.3095110  19.8852800  24.6623310  35.5457270
  20.5723930  25.2092520  35.9264860  19.0985220  25.2064040  35.5806880
  12.0245200  20.2796130  31.0374350  12.8940050  20.5620930  31.3210270
  11.5335520  21.0932000  30.9223160  19.1880010  21.6669340  35.1582630
  19.6442790  22.4774590  35.3842820  18.8368220  21.3492480  35.9901120
  21.4912620  27.1775680  42.3874930  22.1354840  27.3835060  43.0648350
  21.8542060  26.4164080  41.9345780  15.0891790  12.0106990  35.6305150
  14.9606420  12.0024890  36.5790070  14.2653810  12.3490080  35.2796160
  22.7644700  25.1808030  41.1052380  23.4066930  24.4801190  41.2184550
  23.2894050  25.9606470  40.9249270  26.6100420  25.4656650  30.8291520
  26.3838000  24.7487090  31.4216160  26.2196620  25.2169090  29.9913270
  24.5382320  25.9802930  44.3088440  24.8738560  26.5669620  44.9866360
  23.6182660  25.8495640  44.5386230  12.3916450  29.4923510  31.6035980
  12.7514090  30.0912850  30.9493250  12.2508790  30.0383400  32.3771010
  12.0885720  13.7698110  45.0911850  11.3744240  13.9695030  45.6964460
  12.5080760  12.9937680  45.4626650  26.1916670  23.3828590  32.4905680
  25.9038370  23.8441280  33.2783560  26.9868840  22.9226360  32.7589900
  12.3758310  27.7578370  46.0778380  12.4849430  26.8173110  45.9373770
  11.7238870  28.0233120  45.4292110  20.3670900  26.0294260  47.4776500
  20.0467770  25.3103500  48.0222190  19.6929260  26.7049330  47.5512560
  18.4085070  26.8754710  32.4209650  18.3995170  27.6084400  31.8054160
  17.4883430  26.6286290  32.5136610  14.0091710  22.0969600  33.1656410
  13.4019660  22.8368500  33.1751710  14.4841060  22.1868960  32.3394610
  23.5824500  16.2620420  42.8413300  23.9505320  15.4415630  43.1692870
  22.7222700  16.3222310  43.2568950  26.9486530  15.2177360  33.6500860
  26.3199690  15.3223030  32.9359090  26.4538450  15.4374140  34.4394740
  21.3944670  26.9382950  31.0834840  21.4956650  26.7346940  30.1536820
  20.4946410  26.6841230  31.2882620  18.9170560  17.4963310  35.0658740
  18.2086710  17.9649650  35.5072350  19.2015040  16.8385320  35.7003930
  20.5426490  18.9160010  43.0651270  21.0411740  19.3905830  43.7303120
  20.6849440  17.9923530  43.2721300  22.9485990  14.2213970  36.5054530
  22.8253770  14.2400100  35.5564040  23.8970550  14.2692910  36.6252930
  20.0362780  29.4569270  35.7782510  20.2904280  29.4190660  34.8561880
  19.0875260  29.3302600  35.7710760  17.1205580  15.8048390  32.4409450
  17.9696110  16.2418540  32.3749640  16.7536850  16.1168650  33.2681510
  27.7493350  15.1327970  43.9079660  27.2466950  15.8733370  44.2473470
  28.5650010  15.5211970  43.5916450  26.0415360  20.3761150  37.3541020
  25.1005500  20.3911380  37.5288710  26.3559430  19.5897110  37.8001320
  16.0197000  22.0580750  30.9144980  16.7860270  21.9462110  31.4770410
  16.0971690  21.3618720  30.2621750  14.7143760  19.4905820  31.5977870
  14.7947350  18.5433330  31.7095270  15.6063510  19.8212700  31.7038530
  28.0440940  27.5470000  39.0295280  28.1688360  28.3701170  39.5019090
  28.9106500  27.3360730  38.6819430  15.5158470  29.6401210  38.7012410
  16.2520950  29.0916670  38.9720980  15.8999390  30.5057220  38.5618400
  12.4003950  25.7074780  34.5753920  11.4743730  25.9495920  34.5659330
  12.8660380  26.5349040  34.4538670  14.5216750  28.8247280  47.8897990
  15.3229480  29.1459330  48.3033390  14.0068570  28.4642860  48.6117900
  18.6260780  28.8131520  30.5237980  19.4189390  29.1020350  30.0719770
  18.1065130  28.3823690  29.8450460  23.3581380  24.9327150  47.8373400
  22.7519540  24.9558750  47.0969150  23.0535490  24.2010190  48.3740650
  24.7881750  28.6607440  46.4482810  25.7403500  28.5765460  46.3983050
  24.6409970  29.3249150  47.1216600  27.6790950  28.0401650  31.9474720
  27.3932460  27.6266790  31.1328900  27.4810500  28.9689360  31.8275240
  12.2414560  21.3120740  46.8334040  12.7453580  20.7328020  47.4050270
  11.5021980  21.5960970  47.3710410  19.1438180  24.0334930  30.3880330
  19.0388820  23.4187280  31.1141710  18.9762400  23.5100820  29.6043340
  19.2952500  22.7191730  46.3669560  18.5298170  23.2876730  46.2824230
  19.4768460  22.4267940  45.4737790  22.3840910  23.0954960  30.9922320
  21.8351010  23.5424260  31.6365060  23.0060170  22.5904210  31.5159990
  26.4375850  24.4497060  46.9244580  27.1785320  24.7872820  46.4212040
  25.6748530  24.6189120  46.3714350  14.2737640  19.4550330  47.7284110
  14.3142980  19.1564200  48.6369340  15.1283140  19.8557940  47.5691630
  18.0516030  22.0545880  32.8887620  18.4732450  21.8885750  33.7319010
  18.1766870  21.2446110  32.3942760  16.2143450  18.0342430  45.6958600
  15.6839910  17.5433380  45.0681940  16.8831520  18.4626630  45.1616530
  20.5643670  21.0783490  30.1364720  21.0849330  20.3632510  29.7705870
  21.2112070  21.7169360  30.4365230  25.1121510  22.5011890  45.4599790
  25.5262530  22.6556970  46.3090210  24.1772510  22.6267110  45.6225570
  25.5843680  19.8408050  47.4638940  26.1664450  19.0860370  47.3759420
  25.7605450  20.3715490  46.6870420  16.7015750  15.0004800  45.7755890
  16.6072620  14.3825550  45.0506760  16.1213140  15.7271090  45.5485800
  19.4677190  13.5578040  42.8083280  19.0194490  13.5802300  41.9628830
  18.8342390  13.1597060  43.4053580  19.8736740  22.4532370  43.4295720
  20.2924850  23.2965100  43.2571960  18.9545370  22.5904410  43.2002500
  22.2100640  20.1848550  44.8133560  22.3296850  19.5889690  45.5528400
  23.0694640  20.2218240  44.3934860  24.5488540  20.7385740  43.3896070
  24.0223760  21.2628360  42.7861210  24.8919880  21.3713130  44.0205800
  16.9474930  18.1279110  29.8345780  16.7463990  17.2646470  30.1959120
  16.7766980  18.0412470  28.8967380  17.7244160  28.7585380  44.5453450
  17.1865250  29.4831440  44.2262150  17.9778120  28.2815720  43.7550790
  18.9769410  16.7269900  46.0709380  19.5669100  16.4185750  46.7587200
  18.1589650  16.2549650  46.2269280  23.7962840  16.3435710  46.3042400
  23.1078360  15.6817250  46.2392390  24.5168860  15.8973980  46.7490860
  24.4263240  12.9387340  32.3632660  24.7065530  12.0955240  32.7192080
  23.6528970  13.1710450  32.8771410  15.7457730  15.2279730  29.8223660
  16.0483630  15.2347160  28.9142810  16.4852320  14.8777590  30.3191320
  20.5806370  29.9936590  44.8040100  20.5065070  30.8971730  45.1112470
  19.6785210  29.6748490  44.7762170  18.9642660  14.1714350  30.8079860
  18.6164660  13.4938340  30.2282310  19.1655430  13.7103860  31.6223250
  21.1291700  29.1595100  32.4266460  22.0242490  29.4980070  32.4485220
  21.1609330  28.4374510  31.7990740  14.7687860  24.5322150  30.6553460
  15.2062730  25.0751820  31.3111040  15.2535590  23.7069100  30.6649800
  11.9833660  27.3211180  38.1073720  12.3136670  26.4532240  37.8752360
  12.4124660  27.5269700  38.9378680  16.5795580  25.6520190  35.7675690
  16.2791120  25.5285160  36.6679600  16.4733070  24.7928780  35.3591420
  12.4723870  28.1881770  40.8455350  12.0354860  28.3682570  41.6779500
  13.0401550  28.9456390  40.7037070  28.1086050  27.6898770  45.1332660
  27.5088040  27.7491330  44.3896580  28.2379950  26.7503750  45.2629510
  29.3487500  25.4316590  30.4702370  28.5180460  25.4993240  30.9409600
  29.5259330  26.3220710  30.1669230  28.8043960  22.1764070  32.9736570
  29.5662870  22.7460720  33.0796260  28.8198330  21.6091270  33.7444880
  12.3048300  20.7002000  37.2044230  11.6497140  20.4313640  36.5603930
  13.1426250  20.5906480  36.7546210  29.8103930  23.0314170  37.8178500
  30.1812760  22.2481490  37.4114470  30.4505860  23.7203270  37.6395800
  26.7937690  24.4150750  43.2308820  25.9797530  24.8447910  43.4934610
  27.2011890  25.0269160  42.6177870  28.8563130  22.4698440  30.1309090
  29.1311970  23.3777320  30.0028310  28.6673870  22.4060970  31.0671080
  25.2538740  15.4943290  31.4262720  25.6723620  15.3074270  30.5859380
  24.9474800  14.6422340  31.7365650  28.7528470  20.4067430  35.1238520
  28.3772070  19.6395360  34.6919810  28.0231590  20.7890130  35.6113450
  13.3424230  21.0854570  41.7447570  13.7097270  20.9981970  42.6243590
  12.7735050  20.3221120  41.6454430  28.1428090  19.5538950  44.7578040
  27.9114180  19.3251700  43.8575990  28.4032640  20.4738500  44.7122930
  12.8940230  17.9963660  45.6505990  11.9996280  17.9630420  45.9899700
  13.4337780  18.1950450  46.4157240  26.5816160  14.7795380  47.5357740
  27.4586340  14.7878780  47.9191740  26.5937000  14.0426220  46.9250090
  11.5186380  17.9100930  33.1469560  10.6150460  18.1731130  32.9721220
  12.0027000  18.1812100  32.3669520  28.0279430  18.6324920  38.4245760
  28.5516910  18.1387570  37.7935930  28.6138850  18.7675280  39.1693330
  28.2069150  18.7164790  41.9465310  27.2571860  18.6828330  42.0610300
  28.3882160  19.6264900  41.7115080  14.0613590  16.9666470  31.0563940
  14.7705290  16.5449690  30.5711220  13.3453530  17.0341700  30.4247290
  13.7087750  13.0205800  30.0966590  14.4315880  13.5614740  30.4147810
  13.9812270  12.7469220  29.2208130  27.5179400  17.8898270  34.3638170
  28.0138520  17.6569140  35.1487050  27.3195470  17.0510110  33.9475810
  13.3979940  12.2711990  39.9989210  14.0456130  11.7209370  39.5584370
  13.8181780  12.5255140  40.8205020  28.9466560  16.5259220  36.8975850
  28.8365840  16.3715260  37.8358120  29.7074150  15.9980160  36.6551260
  27.2932280  12.4653350  43.3558850  27.9304500  13.0787490  43.7218040
  27.4407170  12.5014010  42.4108080  29.8356830  14.3567140  30.1381990
  30.7606140  14.2248320  29.9300280  29.8132620  14.4359960  31.0918440
  29.9095320  15.1277800  32.7638700  29.1146820  15.0622920  33.2931610
  30.1138600  16.0628440  32.7524050  26.8513740  29.1669350  36.7577090
  27.4472810  28.8453920  36.0811510  27.1091890  28.6941170  37.5490360
  13.1511940  12.4267660  42.7414530  12.8026760  12.8831480  43.5072710
  12.8199640  11.5324790  42.8236960  14.7576310  25.5987260  46.9067720
  14.7145940  25.2280170  47.7882180  14.8887320  26.5364830  47.0469540
  18.4582340  27.1546850  42.5077440  18.2173700  27.4221410  41.6207960
  19.3984980  27.3252580  42.5628300  20.6636760  13.6179540  46.2633950
  20.6025650  14.2101370  47.0129360  21.6037140  13.5105500  46.1184210
  23.3011320  13.2749600  45.9026240  23.9151730  13.5928890  45.2407320
  23.8460880  12.7898190  46.5222100  29.7186500  29.1741230  43.3088080
  29.2244780  29.5710100  42.5915210  29.1099790  28.5490440  43.7025360
  13.8232580  11.9543860  46.0165300  14.3715570  11.7731910  45.2531410
  13.8887890  11.1637970  46.5521610  14.5964340  28.5449510  44.0265500
  14.0024660  28.4134210  44.7655540  14.5888180  27.7087650  43.5607600
  24.0419360  11.8381740  42.2295530  23.1679200  12.1716850  42.0268460
  23.9330110  11.3654920  43.0547400  24.9491340  14.0452610  43.6137250
  24.6204700  13.2304370  43.2338980  25.8973640  14.0022420  43.4902940
  27.4025950  29.8164650  40.5874820  26.9428920  30.5680460  40.2132840
  26.7738410  29.0971120  40.5289620  14.2276570  25.9107890  42.9773540
  13.5010630  25.2913180  42.9099490  14.2885720  26.3048500  42.1071620
  17.8321670  28.1252890  39.7622950  18.3486690  27.5140250  39.2371210
  18.4819050  28.6281670  40.2533960  20.5717170  29.0161380  40.5891930
  20.8594980  28.7615680  39.7124940  21.0840390  28.4638740  41.1797500
  21.7894180  12.7551580  41.1688440  21.0065970  13.2297080  41.4485200
  21.4957110  11.8506410  41.0601620  26.3415250  13.4574680  39.2137530
  26.7823340  13.4019780  38.3659130  26.0722840  14.3732690  39.2847710
  28.2053820  13.0889920  37.2246350  28.1442220  12.1451140  37.0777370
  28.9845850  13.1970010  37.7699810  12.5106570  29.2282280  36.1870300
  12.3428610  28.5952960  36.8852190  11.6441080  29.4341680  35.8364490
  13.1334590  13.0599060  33.6902160  13.8913950  13.1727940  33.1166190
  12.6711760  13.8968260  33.6445590  19.6748400  15.1738330  36.6804470
  18.8622910  14.7995220  36.3400350  20.1790040  14.4183410  36.9825660
  24.1773380  11.8380780  37.9187540  24.7802750  12.4100990  38.3936060
  23.4366370  12.4020220  37.6961440  27.3207980  12.2402340  33.1927820
  27.5158610  13.1385790  33.4595250  26.5337850  12.0089420  33.6860770
  14.1169270  27.9215510  33.6320440  13.5916890  28.3023540  32.9282400
  14.0413850  28.5466280  34.3530150  15.5059740  13.5863110  32.2304130
  16.0352500  12.7992910  32.1012080  16.1388060  14.2654300  32.4639660
  17.6997580  13.3238250  35.2849520  17.0700320  12.6225560  35.4519650
  17.1602720  14.0842380  35.0682680  20.6389530  29.9377480  47.9560130
  21.5656840  29.7021750  47.9996090  20.6239960  30.7649480  47.4746160
  28.8734590  29.4803050  34.9534380  29.0486780  28.7940790  34.3095300
  28.1756160  30.0050100  34.5611050  17.8253140  12.6022230  47.7202010
  17.5437410  13.1055830  46.9562830  18.2072840  11.8043980  47.3544140
  16.7162240  29.8697890  32.5069690  17.4481060  29.5857170  31.9593580
  16.9755910  29.6311170  33.3969070  15.8777030  25.9862620  32.5116020
  15.2485910  26.4547720  33.0601850  15.9924860  25.1411840  32.9462210
  24.4268600  12.0175810  48.2982480  24.3134050  12.3370420  49.1934000
  25.2438340  12.4188320  48.0019760  27.2067090  29.1647340  47.7801170
  27.9992410  28.6696570  47.5727130  27.5000240  29.8437480  48.3876780
  23.3326750  20.0368280  18.6617220  23.2520800  19.1222890  18.3908930
  22.9191170  20.5335350  17.9556930  21.4644790  21.8147300  20.5426490
  20.6886890  21.3347740  20.8325060  22.1157720  21.1352950  20.3682650
  15.4810620  22.1267110  21.4202250  14.6495500  21.8715820  21.8198760
  16.0891600  22.1977880  22.1560170  25.4852220  26.2207490  19.3225620
  25.0233750  25.4494730  19.6512790  26.2977770  26.2473560  19.8278070
  15.4611880  26.1607200  21.6160270  15.7639920  25.2704940  21.4370490
  16.2055470  26.7177420  21.3882520  13.8902570  17.0869000  15.2044640
  13.0019270  17.4284970  15.1024520  14.1743760  16.8869320  14.3125470
  11.8535580  19.6874650  21.0884340  12.4251690  18.9196850  21.0887980
  11.8537120  19.9863410  20.1790950  21.7115530  28.5065500  18.9429610
  21.0926970  28.9623000  18.3724050  22.5667310  28.6616960  18.5419310
  20.9053780  24.4904490  20.5496650  20.8362060  23.5494430  20.3885780
  21.6673640  24.5805900  21.1219220  13.0960450  15.0959010  22.8753270
  12.9163290  14.1984760  23.1556030  12.6940530  15.6430880  23.5500220
  21.9358950  17.2974870  20.7765580  22.3123770  16.4246750  20.6639250
  21.8378460  17.6333570  19.8856020  16.0663960  15.6700500  16.2383020
  16.1730710  16.5704230  16.5451780  15.1556320  15.6218470  15.9477670
  25.7183070  14.7925310  17.7093920  26.5392690  14.3021880  17.7519400
  25.7517150  15.3822970  18.4625760  13.7147120  17.5919510  21.4835610
  14.3957230  17.8557880  22.1023010  13.3995170  16.7520380  21.8173620
  17.9071690  18.6386870  20.5708200  18.4149910  19.1367840  21.2113220
  18.4384930  17.8622070  20.3947560  30.0082620  16.8092060  24.2737550
  29.3034790  17.1973770  23.7552660  30.2740540  17.5042350  24.8758480
  16.1907790  13.2785430  24.8371620  16.1926230  13.7957820  24.0317520
  15.3612100  12.8015610  24.8141550  22.5778880  23.3904740  16.3361520
  21.9596150  23.8554190  15.7724240  23.0902130  24.0832220  16.7531030
  17.4410640  22.9180610  23.0145120  17.1080020  23.5449530  23.6566190
  17.6177320  23.4442490  22.2346790  25.9544550  16.7325690  20.4821460
  25.2500120  17.0210580  21.0624570  26.3156710  17.5425800  20.1221020
  15.8723120  14.9895390  22.8442070  16.2139930  15.8337440  22.5495940
  14.9338930  15.1379130  22.9607410  16.6529740  24.8861410  24.8294300
  17.2703740  25.5612490  24.5478750  15.7922860  25.2949390  24.7381800
  11.9462080  24.0761270  13.7101150  11.5690060  24.5648370  12.9786050
  12.2035150  24.7486550  14.3407680  27.5707330  26.3500820  22.7448940
  26.8870850  27.0199930  22.7365610  28.1101620  26.5481470  21.9793800
  29.0231470  16.1780480  20.8730670  28.0756380  16.2119460  21.0046100
  29.3481460  16.9919430  21.2580030  19.5551010  12.4777660  19.1686660
  19.8625990  11.9224550  18.4522160  18.6251710  12.6122120  18.9859650
  25.1066070  28.1944950  21.4594120  25.1193230  27.7907240  20.5916380
  24.5541290  28.9692240  21.3555550  26.4011490  24.9161170  16.5484290
  26.2907820  23.9735500  16.6733710  26.3979740  25.2776810  17.4347050
  24.5051510  23.0974790  22.7876730  24.9220300  22.8834900  21.9530190
  25.2291330  23.3547580  23.3585350  21.9431770  20.5426490  15.9046780
  21.0161050  20.4763870  16.1335250  22.0956590  21.4806620  15.7902020
  21.9300850  16.8143490  12.9013940  20.9904520  16.9757450  12.9866400
  22.2484110  17.5329170  12.3549930  28.4513610  21.4962010  22.8792970
  27.6232240  21.5655100  22.4043100  29.0464090  22.0816320  22.4108800
  25.9729060  22.1046790  16.4082030  25.3541480  21.7666340  15.7608330
  25.9553510  21.4606550  17.1161220  25.4155620  18.2831330  23.8247840
  25.0026800  19.1085040  24.0787830  24.6831570  17.6976370  23.6324200
  17.5488410  21.0691230  18.6866510  17.1445410  20.3568480  18.1912410
  17.6351530  20.7244470  19.5754550  18.0170110  24.7558790  20.8505720
  17.7198400  24.1504260  20.1713500  18.9669930  24.7936100  20.7395080
  16.2617030  17.8434440  22.4665550  16.8131620  17.9529780  21.6918800
  16.7760540  18.2172040  23.1820780  26.1055720  28.3290660  24.5128820
  25.6286280  29.1362850  24.3201430  25.4217510  27.6768990  24.6655030
  17.1088540  24.4940480  27.5013520  16.2117070  24.7180450  27.7486920
  17.1341410  24.6175420  26.5524920  24.1493760  21.3433600  13.4154780
  24.5887040  20.5056030  13.2692600  24.8622180  21.9763000  13.5018920
  15.9359760  21.3653800  26.0770890  15.7967530  22.2376600  26.4458290
  15.0541120  21.0226610  25.9318830  22.2589140  26.2829670  17.3836020
  22.6985050  27.0254000  16.9691410  22.1976030  26.5256240  18.3074980
  17.7340110  27.3075500  28.2856040  17.7055540  27.7118450  27.4184470
  17.5705080  26.3785860  28.1227640  27.7310900  12.5976410  11.7295820
  27.4183560  12.6903240  12.6294890  28.4923370  13.1757440  11.6793250
  14.2493040  19.9636210  16.1873160  14.1290640  20.6898300  15.5754430
  13.9393930  19.1939120  15.7101070  29.6854930  28.0902600  29.5820210
  30.1614650  28.5685490  30.2609290  30.3062090  28.0220090  28.8565710
  11.8878410  23.1351350  21.9941800  11.9658830  23.2700120  21.0497520
  12.5020090  22.4267240  22.1869920  13.1326040  24.8351540  18.4047980
  12.7254120  24.9766130  17.5501580  14.0239050  24.5511700  18.2019190
  29.0888180  25.2815450  26.7420220  29.2151240  25.0427330  25.8237400
  29.1309560  24.4499990  27.2142300  22.9504920  28.9843450  25.3115030
  23.4649590  28.8951460  26.1137460  22.1074000  29.3303150  25.6042940
  24.9259320  29.2698790  14.7399030  24.7660460  28.9801730  15.6380860
  24.7606030  28.4938920  14.2044260  17.4047700  29.0497320  16.5170650
  17.2290180  28.1332860  16.3038450  16.5503440  29.4084610  16.7568450
  24.6285450  26.7786350  13.2997030  23.9350610  26.7763640  12.6399310
  25.3708310  26.3545670  12.8691200  24.1935380  28.4049060  17.3745520
  24.6492330  27.6238440  17.6884140  24.5327900  29.1155880  17.9186700
  28.9412190  17.3347910  27.7069960  28.3256460  17.8427580  27.1785420
  28.6208610  16.4346240  27.6495900  11.9437930  24.1765520  24.5336260
  12.1068970  23.7070880  23.7155630  12.4090380  23.6689080  25.1985100
  16.7156700  13.3071280  19.5696830  16.2724850  14.0880820  19.2381350
  17.2741690  13.6301170  20.2767770  21.0026510  16.1739800  25.1732150
  20.5405880  16.3822820  25.9852090  20.6004620  15.3599150  24.8702820
  26.0031020  17.3948750  26.3028810  25.1524610  17.0954500  26.6237880
  25.8432810  17.6390760  25.3912630  23.0980730  18.8950500  28.4027600
  23.4234140  18.0614250  28.0629830  23.8861060  19.4179020  28.5505930
  19.8315520  12.9281980  14.4502660  19.2069700  12.9241850  15.1755970
  19.7445640  12.0612940  14.0538630  18.7532600  13.8518610  21.4286430
  19.0504930  14.7581440  21.3478450  19.3018160  13.3637390  20.8146000
  16.5070920  18.4304850  17.2978080  16.2811840  18.2142020  18.2024700
  15.7263450  18.8633310  16.9524050  23.7368680  18.4368220  15.8968730
  23.1377570  19.1604020  15.7132350  24.2848290  18.3745000  15.1145180
  18.9470130  19.3290430  27.9638350  18.8513730  18.3885160  27.8138750
  19.7902110  19.5505500  27.5686420  22.3433550  17.0731760  17.9272010
  22.7363120  17.3903960  17.1140700  22.7050400  16.1943640  18.0416530
  14.0780670  15.7404100  26.1172130  13.6844060  16.5879310  26.3244910
  13.3899070  15.1030470  26.3080770  20.6525720  15.8239070  29.1868870
  19.9624040  15.6311270  29.8214960  21.3958020  16.1073710  29.7193170
  11.3797720  13.6632560  20.1502210  11.0910770  14.2335420  20.8627190
  12.1243480  13.1837010  20.5133440  11.5667950  17.6052680  11.3604930
  11.4842620  18.5483440  11.5019920  11.2151010  17.4627590  10.4817280
  22.9288690  19.6637510  22.0222790  22.1969810  20.1724320  22.3712890
  22.5313030  18.8467490  21.7211570  19.3666080  16.3391710  20.4275280
  19.3702140  15.8981660  19.5779820  20.2617200  16.6609040  20.5347100
  15.2168460  16.2218200  19.3869490  14.8768510  16.6993430  20.1436540
  14.4545780  15.7683320  19.0270590  19.4286230  17.3403790  13.4182040
  19.5499050  17.2990270  14.3667860  19.0434740  18.2027940  13.2628770
  23.3914600  15.1171190  21.4345730  23.4087340  15.5679840  22.2787580
  23.1430180  14.2176830  21.6479170  18.4407730  19.6504930  12.8165340
  17.8724630  19.2023180  12.1901250  19.1496730  20.0097710  12.2830490
  26.8185350  12.5303370  27.2732110  27.1431120  11.7993030  27.7990090
  26.8541860  12.2117010  26.3713100  13.5176910  23.5516950  26.6932070
  13.1331700  22.9110620  27.2915030  13.8289100  24.2553070  27.2626800
  19.6674050  20.3993490  22.1740690  20.0344180  19.9252060  22.9202030
  19.4779110  21.2735060  22.5149030  12.5314540  15.1437180  18.3034160
  12.2461460  14.7792850  19.1412780  12.4693400  14.4117640  17.6897300
  17.4573420  19.4402130  24.4924900  17.1530490  20.3194110  24.7175260
  18.4119880  19.5001920  24.5282340  15.9855210  23.6463120  15.0891750
  15.2117470  23.1060740  14.9290470  16.7149840  23.1269730  14.7509510
  26.7443190  22.6428480  20.8818140  27.4642310  23.1383770  20.4914250
  26.5425010  21.9646370  20.2372010  22.2053130  14.0366440  15.0247530
  21.3917740  13.5379610  14.9492840  22.0115080  14.8764690  14.6083880
  22.1261990  22.7137540  26.7687140  22.0599300  21.7933210  26.5144730
  21.4967130  22.8112980  27.4831780  24.9201520  18.4086090  13.3209690
  25.8081140  18.7203320  13.1461030  24.8906610  17.5358340  12.9290270
  16.0292610  23.3143500  18.7270560  16.5471280  22.5111760  18.6727450
  15.5776630  23.2522640  19.5687390  20.9162110  24.5809780  13.9997860
  21.2577810  25.3252010  13.5041180  20.0874820  24.8940900  14.3622690
  13.5137150  20.2804870  25.6396260  13.1552090  20.9458720  26.2269600
  13.2191710  19.4488420  26.0108880  16.7150270  20.7389110  28.5235810
  16.4150410  20.8846290  27.6263630  17.4861510  20.1794400  28.4309200
  22.0578720  25.5358110  26.5190940  22.0723260  24.6039070  26.3009850
  21.3503820  25.6217870  27.1580710  27.1915790  19.7197930  12.7889550
  27.1079510  20.1512150  11.9385990  27.9109980  20.1796280  13.2216370
  28.2689930  22.1765450  25.8659520  27.5438120  22.7694230  25.6688910
  28.7965390  22.1688990  25.0672890  28.2203040  26.5740190  15.5171680
  27.5779200  25.9195810  15.7915400  27.8333700  26.9795280  14.7412350
  23.7989520  23.9025620  19.3643370  24.1513340  23.3053750  18.7044740
  22.9151850  23.5769850  19.5351620  19.8852800  24.6623310  16.7713780
  20.5723930  25.2092520  17.1521370  19.0985220  25.2064040  16.8063390
  12.0245200  20.2796130  12.2630860  12.8940050  20.5620930  12.5466780
  11.5335520  21.0932000  12.1479670  19.1880010  21.6669340  16.3839140
  19.6442790  22.4774590  16.6099330  18.8368220  21.3492480  17.2157630
  21.4912620  27.1775680  23.6131440  22.1354840  27.3835060  24.2904860
  21.8542060  26.4164080  23.1602290  15.0891790  12.0106990  16.8561660
  14.9606420  12.0024890  17.8046580  14.2653810  12.3490080  16.5052670
  22.7644700  25.1808030  22.3308890  23.4066930  24.4801190  22.4441060
  23.2894050  25.9606470  22.1505780  26.6100420  25.4656650  12.0548030
  26.3838000  24.7487090  12.6472670  26.2196620  25.2169090  11.2169780
  24.5382320  25.9802930  25.5344950  24.8738560  26.5669620  26.2122870
  23.6182660  25.8495640  25.7642740  12.3916450  29.4923510  12.8292490
  12.7514090  30.0912850  12.1749760  12.2508790  30.0383400  13.6027520
  12.0885720  13.7698110  26.3168360  11.3744240  13.9695030  26.9220970
  12.5080760  12.9937680  26.6883160  26.1916670  23.3828590  13.7162190
  25.9038370  23.8441280  14.5040070  26.9868840  22.9226360  13.9846410
  12.3758310  27.7578370  27.3034890  12.4849430  26.8173110  27.1630280
  11.7238870  28.0233120  26.6548620  20.3670900  26.0294260  28.7033010
  20.0467770  25.3103500  29.2478700  19.6929260  26.7049330  28.7769070
  18.4085070  26.8754710  13.6466160  18.3995170  27.6084400  13.0310670
  17.4883430  26.6286290  13.7393120  14.0091710  22.0969600  14.3912920
  13.4019660  22.8368500  14.4008220  14.4841060  22.1868960  13.5651120
  23.5824500  16.2620420  24.0669810  23.9505320  15.4415630  24.3949380
  22.7222700  16.3222310  24.4825460  26.9486530  15.2177360  14.8757370
  26.3199690  15.3223030  14.1615600  26.4538450  15.4374140  15.6651250
  21.3944670  26.9382950  12.3091350  21.4956650  26.7346940  11.3793330
  20.4946410  26.6841230  12.5139130  18.9170560  17.4963310  16.2915250
  18.2086710  17.9649650  16.7328860  19.2015040  16.8385320  16.9260440
  20.5426490  18.9160010  24.2907780  21.0411740  19.3905830  24.9559630
  20.6849440  17.9923530  24.4977810  22.9485990  14.2213970  17.7311040
  22.8253770  14.2400100  16.7820550  23.8970550  14.2692910  17.8509440
  20.0362780  29.4569270  17.0039020  20.2904280  29.4190660  16.0818390
  19.0875260  29.3302600  16.9967270  17.1205580  15.8048390  13.6665960
  17.9696110  16.2418540  13.6006150  16.7536850  16.1168650  14.4938020
  27.7493350  15.1327970  25.1336170  27.2466950  15.8733370  25.4729980
  28.5650010  15.5211970  24.8172960  26.0415360  20.3761150  18.5797530
  25.1005500  20.3911380  18.7545220  26.3559430  19.5897110  19.0257830
  16.0197000  22.0580750  12.1401490  16.7860270  21.9462110  12.7026920
  16.0971690  21.3618720  11.4878260  14.7143760  19.4905820  12.8234380
  14.7947350  18.5433330  12.9351780  15.6063510  19.8212700  12.9295040
  28.0440940  27.5470000  20.2551790  28.1688360  28.3701170  20.7275600
  28.9106500  27.3360730  19.9075940  15.5158470  29.6401210  19.9268920
  16.2520950  29.0916670  20.1977490  15.8999390  30.5057220  19.7874910
  12.4003950  25.7074780  15.8010430  11.4743730  25.9495920  15.7915840
  12.8660380  26.5349040  15.6795180  14.5216750  28.8247280  29.1154500
  15.3229480  29.1459330  29.5289900  14.0068570  28.4642860  29.8374410
  18.6260780  28.8131520  11.7494490  19.4189390  29.1020350  11.2976280
  18.1065130  28.3823690  11.0706970  23.3581380  24.9327150  29.0629910
  22.7519540  24.9558750  28.3225660  23.0535490  24.2010190  29.5997160
  24.7881750  28.6607440  27.6739320  25.7403500  28.5765460  27.6239560
  24.6409970  29.3249150  28.3473110  27.6790950  28.0401650  13.1731230
  27.3932460  27.6266790  12.3585410  27.4810500  28.9689360  13.0531750
  12.2414560  21.3120740  28.0590550  12.7453580  20.7328020  28.6306780
  11.5021980  21.5960970  28.5966920  19.1438180  24.0334930  11.6136840
  19.0388820  23.4187280  12.3398220  18.9762400  23.5100820  10.8299850
  19.2952500  22.7191730  27.5926070  18.5298170  23.2876730  27.5080740
  19.4768460  22.4267940  26.6994300  22.3840910  23.0954960  12.2178830
  21.8351010  23.5424260  12.8621570  23.0060170  22.5904210  12.7416500
  26.4375850  24.4497060  28.1501090  27.1785320  24.7872820  27.6468550
  25.6748530  24.6189120  27.5970860  14.2737640  19.4550330  28.9540620
  14.3142980  19.1564200  29.8625850  15.1283140  19.8557940  28.7948140
  18.0516030  22.0545880  14.1144130  18.4732450  21.8885750  14.9575520
  18.1766870  21.2446110  13.6199270  16.2143450  18.0342430  26.9215110
  15.6839910  17.5433380  26.2938450  16.8831520  18.4626630  26.3873040
  20.5643670  21.0783490  11.3621230  21.0849330  20.3632510  10.9962380
  21.2112070  21.7169360  11.6621740  25.1121510  22.5011890  26.6856300
  25.5262530  22.6556970  27.5346720  24.1772510  22.6267110  26.8482080
  25.5843680  19.8408050  28.6895450  26.1664450  19.0860370  28.6015930
  25.7605450  20.3715490  27.9126930  16.7015750  15.0004800  27.0012400
  16.6072620  14.3825550  26.2763270  16.1213140  15.7271090  26.7742310
  19.4677190  13.5578040  24.0339790  19.0194490  13.5802300  23.1885340
  18.8342390  13.1597060  24.6310090  19.8736740  22.4532370  24.6552230
  20.2924850  23.2965100  24.4828470  18.9545370  22.5904410  24.4259010
  22.2100640  20.1848550  26.0390070  22.3296850  19.5889690  26.7784910
  23.0694640  20.2218240  25.6191370  24.5488540  20.7385740  24.6152580
  24.0223760  21.2628360  24.0117720  24.8919880  21.3713130  25.2462310
  16.9474930  18.1279110  11.0602290  16.7463990  17.2646470  11.4215630
  16.7766980  18.0412470  10.1223890  17.7244160  28.7585380  25.7709960
  17.1865250  29.4831440  25.4518660  17.9778120  28.2815720  24.9807300
  18.9769410  16.7269900  27.2965890  19.5669100  16.4185750  27.9843710
  18.1589650  16.2549650  27.4525790  23.7962840  16.3435710  27.5298910
  23.1078360  15.6817250  27.4648900  24.5168860  15.8973980  27.9747370
  24.4263240  12.9387340  13.5889170  24.7065530  12.0955240  13.9448590
  23.6528970  13.1710450  14.1027920  15.7457730  15.2279730  11.0480170
  16.0483630  15.2347160  10.1399320  16.4852320  14.8777590  11.5447830
  20.5806370  29.9936590  26.0296610  20.5065070  30.8971730  26.3368980
  19.6785210  29.6748490  26.0018680  18.9642660  14.1714350  12.0336370
  18.6164660  13.4938340  11.4538820  19.1655430  13.7103860  12.8479760
  21.1291700  29.1595100  13.6522970  22.0242490  29.4980070  13.6741730
  21.1609330  28.4374510  13.0247250  14.7687860  24.5322150  11.8809970
  15.2062730  25.0751820  12.5367550  15.2535590  23.7069100  11.8906310
  11.9833660  27.3211180  19.3330230  12.3136670  26.4532240  19.1008870
  12.4124660  27.5269700  20.1635190  16.5795580  25.6520190  16.9932200
  16.2791120  25.5285160  17.8936110  16.4733070  24.7928780  16.5847930
  12.4723870  28.1881770  22.0711860  12.0354860  28.3682570  22.9036010
  13.0401550  28.9456390  21.9293580  28.1086050  27.6898770  26.3589170
  27.5088040  27.7491330  25.6153090  28.2379950  26.7503750  26.4886020
  29.3487500  25.4316590  11.6958880  28.5180460  25.4993240  12.1666110
  29.5259330  26.3220710  11.3925740  28.8043960  22.1764070  14.1993080
  29.5662870  22.7460720  14.3052770  28.8198330  21.6091270  14.9701390
  12.3048300  20.7002000  18.4300740  11.6497140  20.4313640  17.7860440
  13.1426250  20.5906480  17.9802720  29.8103930  23.0314170  19.0435010
  30.1812760  22.2481490  18.6370980  30.4505860  23.7203270  18.8652310
  26.7937690  24.4150750  24.4565330  25.9797530  24.8447910  24.7191120
  27.2011890  25.0269160  23.8434380  28.8563130  22.4698440  11.3565600
  29.1311970  23.3777320  11.2284820  28.6673870  22.4060970  12.2927590
  25.2538740  15.4943290  12.6519230  25.6723620  15.3074270  11.8115890
  24.9474800  14.6422340  12.9622160  28.7528470  20.4067430  16.3495030
  28.3772070  19.6395360  15.9176320  28.0231590  20.7890130  16.8369960
  13.3424230  21.0854570  22.9704080  13.7097270  20.9981970  23.8500100
  12.7735050  20.3221120  22.8710940  28.1428090  19.5538950  25.9834550
  27.9114180  19.3251700  25.0832500  28.4032640  20.4738500  25.9379440
  12.8940230  17.9963660  26.8762500  11.9996280  17.9630420  27.2156210
  13.4337780  18.1950450  27.6413750  26.5816160  14.7795380  28.7614250
  27.4586340  14.7878780  29.1448250  26.5937000  14.0426220  28.1506600
  11.5186380  17.9100930  14.3726070  10.6150460  18.1731130  14.1977730
  12.0027000  18.1812100  13.5926030  28.0279430  18.6324920  19.6502270
  28.5516910  18.1387570  19.0192440  28.6138850  18.7675280  20.3949840
  28.2069150  18.7164790  23.1721820  27.2571860  18.6828330  23.2866810
  28.3882160  19.6264900  22.9371590  14.0613590  16.9666470  12.2820450
  14.7705290  16.5449690  11.7967730  13.3453530  17.0341700  11.6503800
  13.7087750  13.0205800  11.3223100  14.4315880  13.5614740  11.6404320
  13.9812270  12.7469220  10.4464640  27.5179400  17.8898270  15.5894680
  28.0138520  17.6569140  16.3743560  27.3195470  17.0510110  15.1732320
  13.3979940  12.2711990  21.2245720  14.0456130  11.7209370  20.7840880
  13.8181780  12.5255140  22.0461530  28.9466560  16.5259220  18.1232360
  28.8365840  16.3715260  19.0614630  29.7074150  15.9980160  17.8807770
  27.2932280  12.4653350  24.5815360  27.9304500  13.0787490  24.9474550
  27.4407170  12.5014010  23.6364590  29.8356830  14.3567140  11.3638500
  30.7606140  14.2248320  11.1556790  29.8132620  14.4359960  12.3174950
  29.9095320  15.1277800  13.9895210  29.1146820  15.0622920  14.5188120
  30.1138600  16.0628440  13.9780560  26.8513740  29.1669350  17.9833600
  27.4472810  28.8453920  17.3068020  27.1091890  28.6941170  18.7746870
  13.1511940  12.4267660  23.9671040  12.8026760  12.8831480  24.7329220
  12.8199640  11.5324790  24.0493470  14.7576310  25.5987260  28.1324230
  14.7145940  25.2280170  29.0138690  14.8887320  26.5364830  28.2726050
  18.4582340  27.1546850  23.7333950  18.2173700  27.4221410  22.8464470
  19.3984980  27.3252580  23.7884810  20.6636760  13.6179540  27.4890460
  20.6025650  14.2101370  28.2385870  21.6037140  13.5105500  27.3440720
  23.3011320  13.2749600  27.1282750  23.9151730  13.5928890  26.4663830
  23.8460880  12.7898190  27.7478610  29.7186500  29.1741230  24.5344590
  29.2244780  29.5710100  23.8171720  29.1099790  28.5490440  24.9281870
  13.8232580  11.9543860  27.2421810  14.3715570  11.7731910  26.4787920
  13.8887890  11.1637970  27.7778120  14.5964340  28.5449510  25.2522010
  14.0024660  28.4134210  25.9912050  14.5888180  27.7087650  24.7864110
  24.0419360  11.8381740  23.4552040  23.1679200  12.1716850  23.2524970
  23.9330110  11.3654920  24.2803910  24.9491340  14.0452610  24.8393760
  24.6204700  13.2304370  24.4595490  25.8973640  14.0022420  24.7159450
  27.4025950  29.8164650  21.8131330  26.9428920  30.5680460  21.4389350
  26.7738410  29.0971120  21.7546130  14.2276570  25.9107890  24.2030050
  13.5010630  25.2913180  24.1356000  14.2885720  26.3048500  23.3328130
  17.8321670  28.1252890  20.9879460  18.3486690  27.5140250  20.4627720
  18.4819050  28.6281670  21.4790470  20.5717170  29.0161380  21.8148440
  20.8594980  28.7615680  20.9381450  21.0840390  28.4638740  22.4054010
  21.7894180  12.7551580  22.3944950  21.0065970  13.2297080  22.6741710
  21.4957110  11.8506410  22.2858130  26.3415250  13.4574680  20.4394040
  26.7823340  13.4019780  19.5915640  26.0722840  14.3732690  20.5104220
  28.2053820  13.0889920  18.4502860  28.1442220  12.1451140  18.3033880
  28.9845850  13.1970010  18.9956320  12.5106570  29.2282280  17.4126810
  12.3428610  28.5952960  18.1108700  11.6441080  29.4341680  17.0621000
  13.1334590  13.0599060  14.9158670  13.8913950  13.1727940  14.3422700
  12.6711760  13.8968260  14.8702100  19.6748400  15.1738330  17.9060980
  18.8622910  14.7995220  17.5656860  20.1790040  14.4183410  18.2082170
  24.1773380  11.8380780  19.1444050  24.7802750  12.4100990  19.6192570
  23.4366370  12.4020220  18.9217950  27.3207980  12.2402340  14.4184330
  27.5158610  13.1385790  14.6851760  26.5337850  12.0089420  14.9117280
  14.1169270  27.9215510  14.8576950  13.5916890  28.3023540  14.1538910
  14.0413850  28.5466280  15.5786660  15.5059740  13.5863110  13.4560640
  16.0352500  12.7992910  13.3268590  16.1388060  14.2654300  13.6896170
  17.6997580  13.3238250  16.5106030  17.0700320  12.6225560  16.6776160
  17.1602720  14.0842380  16.2939190  20.6389530  29.9377480  29.1816640
  21.5656840  29.7021750  29.2252600  20.6239960  30.7649480  28.7002670
  28.8734590  29.4803050  16.1790890  29.0486780  28.7940790  15.5351810
  28.1756160  30.0050100  15.7867560  17.8253140  12.6022230  28.9458520
  17.5437410  13.1055830  28.1819340  18.2072840  11.8043980  28.5800650
  16.7162240  29.8697890  13.7326200  17.4481060  29.5857170  13.1850090
  16.9755910  29.6311170  14.6225580  15.8777030  25.9862620  13.7372530
  15.2485910  26.4547720  14.2858360  15.9924860  25.1411840  14.1718720
  24.4268600  12.0175810  29.5238990  24.3134050  12.3370420  30.4190510
  25.2438340  12.4188320  29.2276270  27.2067090  29.1647340  29.0057680
  27.9992410  28.6696570  28.7983640  27.5000240  29.8437480  29.6133290
  21.4644790  21.8147300   1.7683000  20.6886890  21.3347740   2.0581570
  22.1157720  21.1352950   1.5939160  15.4810620  22.1267110   2.6458760
  14.6495500  21.8715820   3.0455270  16.0891600  22.1977880   3.3816680
  15.4611880  26.1607200   2.8416780  15.7639920  25.2704940   2.6627000
  16.2055470  26.7177420   2.6139030  20.9053780  24.4904490   1.7753160
  20.8362060  23.5494430   1.6142290  21.6673640  24.5805900   2.3475730
  13.0960450  15.0959010   4.1009780  12.9163290  14.1984760   4.3812540
  12.6940530  15.6430880   4.7756730  13.7147120  17.5919510   2.7092120
  14.3957230  17.8557880   3.3279520  13.3995170  16.7520380   3.0430130
  17.9071690  18.6386870   1.7964710  18.4149910  19.1367840   2.4369730
  18.4384930  17.8622070   1.6204070  30.0082620  16.8092060   5.4994060
  29.3034790  17.1973770   4.9809170  30.2740540  17.5042350   6.1014990
  16.1907790  13.2785430   6.0628130  16.1926230  13.7957820   5.2574030
  15.3612100  12.8015610   6.0398060  17.4410640  22.9180610   4.2401630
  17.1080020  23.5449530   4.8822700  17.6177320  23.4442490   3.4603300
  15.8723120  14.9895390   4.0698580  16.2139930  15.8337440   3.7752450
  14.9338930  15.1379130   4.1863920  16.6529740  24.8861410   6.0550810
  17.2703740  25.5612490   5.7735260  15.7922860  25.2949390   5.9638310
  27.5707330  26.3500820   3.9705450  26.8870850  27.0199930   3.9622120
  28.1101620  26.5481470   3.2050310  29.0231470  16.1780480   2.0987180
  28.0756380  16.2119460   2.2302610  29.3481460  16.9919430   2.4836540
  25.1066070  28.1944950   2.6850630  25.1193230  27.7907240   1.8172890
  24.5541290  28.9692240   2.5812060  24.5051510  23.0974790   4.0133240
  24.9220300  22.8834900   3.1786700  25.2291330  23.3547580   4.5841860
  28.4513610  21.4962010   4.1049480  27.6232240  21.5655100   3.6299610
  29.0464090  22.0816320   3.6365310  25.4155620  18.2831330   5.0504350
  25.0026800  19.1085040   5.3044340  24.6831570  17.6976370   4.8580710
  16.2617030  17.8434440   3.6922060  16.8131620  17.9529780   2.9175310
  16.7760540  18.2172040   4.4077290  26.1055720  28.3290660   5.7385330
  25.6286280  29.1362850   5.5457940  25.4217510  27.6768990   5.8911540
  17.1088540  24.4940480   8.7270030  16.2117070  24.7180450   8.9743430
  17.1341410  24.6175420   7.7781430  15.9359760  21.3653800   7.3027400
  15.7967530  22.2376600   7.6714800  15.0541120  21.0226610   7.1575340
  17.7340110  27.3075500   9.5112550  17.7055540  27.7118450   8.6440980
  17.5705080  26.3785860   9.3484150  29.6854930  28.0902600  10.8076720
  30.1614650  28.5685490  11.4865800  30.3062090  28.0220090  10.0822220
  11.8878410  23.1351350   3.2198310  11.9658830  23.2700120   2.2754030
  12.5020090  22.4267240   3.4126430  29.0888180  25.2815450   7.9676730
  29.2151240  25.0427330   7.0493910  29.1309560  24.4499990   8.4398810
  22.9504920  28.9843450   6.5371540  23.4649590  28.8951460   7.3393970
  22.1074000  29.3303150   6.8299450  28.9412190  17.3347910   8.9326470
  28.3256460  17.8427580   8.4041930  28.6208610  16.4346240   8.8752410
  11.9437930  24.1765520   5.7592770  12.1068970  23.7070880   4.9412140
  12.4090380  23.6689080   6.4241610  21.0026510  16.1739800   6.3988660
  20.5405880  16.3822820   7.2108600  20.6004620  15.3599150   6.0959330
  26.0031020  17.3948750   7.5285320  25.1524610  17.0954500   7.8494390
  25.8432810  17.6390760   6.6169140  23.0980730  18.8950500   9.6284110
  23.4234140  18.0614250   9.2886340  23.8861060  19.4179020   9.7762440
  18.7532600  13.8518610   2.6542940  19.0504930  14.7581440   2.5734960
  19.3018160  13.3637390   2.0402510  18.9470130  19.3290430   9.1894860
  18.8513730  18.3885160   9.0395260  19.7902110  19.5505500   8.7942930
  14.0780670  15.7404100   7.3428640  13.6844060  16.5879310   7.5501420
  13.3899070  15.1030470   7.5337280  20.6525720  15.8239070  10.4125380
  19.9624040  15.6311270  11.0471470  21.3958020  16.1073710  10.9449680
  22.9288690  19.6637510   3.2479300  22.1969810  20.1724320   3.5969400
  22.5313030  18.8467490   2.9468080  23.3914600  15.1171190   2.6602240
  23.4087340  15.5679840   3.5044090  23.1430180  14.2176830   2.8735680
  26.8185350  12.5303370   8.4988620  27.1431120  11.7993030   9.0246600
  26.8541860  12.2117010   7.5969610  13.5176910  23.5516950   7.9188580
  13.1331700  22.9110620   8.5171540  13.8289100  24.2553070   8.4883310
  19.6674050  20.3993490   3.3997200  20.0344180  19.9252060   4.1458540
  19.4779110  21.2735060   3.7405540  17.4573420  19.4402130   5.7181410
  17.1530490  20.3194110   5.9431770  18.4119880  19.5001920   5.7538850
  26.7443190  22.6428480   2.1074650  27.4642310  23.1383770   1.7170760
  26.5425010  21.9646370   1.4628520  22.1261990  22.7137540   7.9943650
  22.0599300  21.7933210   7.7401240  21.4967130  22.8112980   8.7088290
  13.5137150  20.2804870   6.8652770  13.1552090  20.9458720   7.4526110
  13.2191710  19.4488420   7.2365390  16.7150270  20.7389110   9.7492320
  16.4150410  20.8846290   8.8520140  17.4861510  20.1794400   9.6565710
  22.0578720  25.5358110   7.7447450  22.0723260  24.6039070   7.5266360
  21.3503820  25.6217870   8.3837220  28.2689930  22.1765450   7.0916030
  27.5438120  22.7694230   6.8945420  28.7965390  22.1688990   6.2929400
  21.4912620  27.1775680   4.8387950  22.1354840  27.3835060   5.5161370
  21.8542060  26.4164080   4.3858800  22.7644700  25.1808030   3.5565400
  23.4066930  24.4801190   3.6697570  23.2894050  25.9606470   3.3762290
  24.5382320  25.9802930   6.7601460  24.8738560  26.5669620   7.4379380
  23.6182660  25.8495640   6.9899250  12.0885720  13.7698110   7.5424870
  11.3744240  13.9695030   8.1477480  12.5080760  12.9937680   7.9139670
  12.3758310  27.7578370   8.5291400  12.4849430  26.8173110   8.3886790
  11.7238870  28.0233120   7.8805130  20.3670900  26.0294260   9.9289520
  20.0467770  25.3103500  10.4735210  19.6929260  26.7049330  10.0025580
  23.5824500  16.2620420   5.2926320  23.9505320  15.4415630   5.6205890
  22.7222700  16.3222310   5.7081970  20.5426490  18.9160010   5.5164290
  21.0411740  19.3905830   6.1816140  20.6849440  17.9923530   5.7234320
  27.7493350  15.1327970   6.3592680  27.2466950  15.8733370   6.6986490
  28.5650010  15.5211970   6.0429470  14.5216750  28.8247280  10.3411010
  15.3229480  29.1459330  10.7546410  14.0068570  28.4642860  11.0630920
  23.3581380  24.9327150  10.2886420  22.7519540  24.9558750   9.5482170
  23.0535490  24.2010190  10.8253670  24.7881750  28.6607440   8.8995830
  25.7403500  28.5765460   8.8496070  24.6409970  29.3249150   9.5729620
  12.2414560  21.3120740   9.2847060  12.7453580  20.7328020   9.8563290
  11.5021980  21.5960970   9.8223430  19.2952500  22.7191730   8.8182580
  18.5298170  23.2876730   8.7337250  19.4768460  22.4267940   7.9250810
  26.4375850  24.4497060   9.3757600  27.1785320  24.7872820   8.8725060
  25.6748530  24.6189120   8.8227370  14.2737640  19.4550330  10.1797130
  14.3142980  19.1564200  11.0882360  15.1283140  19.8557940  10.0204650
  16.2143450  18.0342430   8.1471620  15.6839910  17.5433380   7.5194960
  16.8831520  18.4626630   7.6129550  25.1121510  22.5011890   7.9112810
  25.5262530  22.6556970   8.7603230  24.1772510  22.6267110   8.0738590
  25.5843680  19.8408050   9.9151960  26.1664450  19.0860370   9.8272440
  25.7605450  20.3715490   9.1383440  16.7015750  15.0004800   8.2268910
  16.6072620  14.3825550   7.5019780  16.1213140  15.7271090   7.9998820
  19.4677190  13.5578040   5.2596300  19.0194490  13.5802300   4.4141850
  18.8342390  13.1597060   5.8566600  19.8736740  22.4532370   5.8808740
  20.2924850  23.2965100   5.7084980  18.9545370  22.5904410   5.6515520
  22.2100640  20.1848550   7.2646580  22.3296850  19.5889690   8.0041420
  23.0694640  20.2218240   6.8447880  24.5488540  20.7385740   5.8409090
  24.0223760  21.2628360   5.2374230  24.8919880  21.3713130   6.4718820
  17.7244160  28.7585380   6.9966470  17.1865250  29.4831440   6.6775170
  17.9778120  28.2815720   6.2063810  18.9769410  16.7269900   8.5222400
  19.5669100  16.4185750   9.2100220  18.1589650  16.2549650   8.6782300
  23.7962840  16.3435710   8.7555420  23.1078360  15.6817250   8.6905410
  24.5168860  15.8973980   9.2003880  20.5806370  29.9936590   7.2553120
  20.5065070  30.8971730   7.5625490  19.6785210  29.6748490   7.2275190
  12.4723870  28.1881770   3.2968370  12.0354860  28.3682570   4.1292520
  13.0401550  28.9456390   3.1550090  28.1086050  27.6898770   7.5845680
  27.5088040  27.7491330   6.8409600  28.2379950  26.7503750   7.7142530
  26.7937690  24.4150750   5.6821840  25.9797530  24.8447910   5.9447630
  27.2011890  25.0269160   5.0690890  13.3424230  21.0854570   4.1960590
  13.7097270  20.9981970   5.0756610  12.7735050  20.3221120   4.0967450
  28.1428090  19.5538950   7.2091060  27.9114180  19.3251700   6.3089010
  28.4032640  20.4738500   7.1635950  12.8940230  17.9963660   8.1019010
  11.9996280  17.9630420   8.4412720  13.4337780  18.1950450   8.8670260
  26.5816160  14.7795380   9.9870760  27.4586340  14.7878780  10.3704760
  26.5937000  14.0426220   9.3763110  28.2069150  18.7164790   4.3978330
  27.2571860  18.6828330   4.5123320  28.3882160  19.6264900   4.1628100
  13.3979940  12.2711990   2.4502230  14.0456130  11.7209370   2.0097390
  13.8181780  12.5255140   3.2718040  27.2932280  12.4653350   5.8071870
  27.9304500  13.0787490   6.1731060  27.4407170  12.5014010   4.8621100
  13.1511940  12.4267660   5.1927550  12.8026760  12.8831480   5.9585730
  12.8199640  11.5324790   5.2749980  14.7576310  25.5987260   9.3580740
  14.7145940  25.2280170  10.2395200  14.8887320  26.5364830   9.4982560
  18.4582340  27.1546850   4.9590460  18.2173700  27.4221410   4.0720980
  19.3984980  27.3252580   5.0141320  20.6636760  13.6179540   8.7146970
  20.6025650  14.2101370   9.4642380  21.6037140  13.5105500   8.5697230
  23.3011320  13.2749600   8.3539260  23.9151730  13.5928890   7.6920340
  23.8460880  12.7898190   8.9735120  29.7186500  29.1741230   5.7601100
  29.2244780  29.5710100   5.0428230  29.1099790  28.5490440   6.1538380
  13.8232580  11.9543860   8.4678320  14.3715570  11.7731910   7.7044430
  13.8887890  11.1637970   9.0034630  14.5964340  28.5449510   6.4778520
  14.0024660  28.4134210   7.2168560  14.5888180  27.7087650   6.0120620
  24.0419360  11.8381740   4.6808550  23.1679200  12.1716850   4.4781480
  23.9330110  11.3654920   5.5060420  24.9491340  14.0452610   6.0650270
  24.6204700  13.2304370   5.6852000  25.8973640  14.0022420   5.9415960
  27.4025950  29.8164650   3.0387840  26.9428920  30.5680460   2.6645860
  26.7738410  29.0971120   2.9802640  14.2276570  25.9107890   5.4286560
  13.5010630  25.2913180   5.3612510  14.2885720  26.3048500   4.5584640
  17.8321670  28.1252890   2.2135970  18.3486690  27.5140250   1.6884230
  18.4819050  28.6281670   2.7046980  20.5717170  29.0161380   3.0404950
  20.8594980  28.7615680   2.1637960  21.0840390  28.4638740   3.6310520
  21.7894180  12.7551580   3.6201460  21.0065970  13.2297080   3.8998220
  21.4957110  11.8506410   3.5114640  20.6389530  29.9377480  10.4073150
  21.5656840  29.7021750  10.4509110  20.6239960  30.7649480   9.9259180
  17.8253140  12.6022230  10.1715030  17.5437410  13.1055830   9.4075850
  18.2072840  11.8043980   9.8057160  24.4268600  12.0175810  10.7495500
  24.3134050  12.3370420  11.6447020  25.2438340  12.4188320  10.4532780
  27.2067090  29.1647340  10.2314190  27.9992410  28.6696570  10.0240150
  27.5000240  29.8437480  10.8389800  25.4852220   7.4464000 150.7430050
  25.0233750   6.6751240 151.0717220  26.2977770   7.4730070 151.2482500
  21.7115530   9.7322010 150.3634040  21.0926970  10.1879510 149.7928480
  22.5667310   9.8873470 149.9623740  22.5778880   4.6161250 147.7565950
  21.9596150   5.0810700 147.1928670  23.0902130   5.3088730 148.1735460
  11.9462080   5.3017780 145.1305580  11.5690060   5.7904880 144.3990480
  12.2035150   5.9743060 145.7612110  26.4011490   6.1417680 147.9688720
  26.2907820   5.1992010 148.0938140  26.3979740   6.5033320 148.8551480
  21.9431770   1.7683000 147.3251210  21.0161050   1.7020380 147.5539680
  22.0956590   2.7063130 147.2106450  25.9729060   3.3303300 147.8286460
  25.3541480   2.9922850 147.1812760  25.9553510   2.6863060 148.5365650
  24.1493760   2.5690110 144.8359210  24.5887040   1.7312540 144.6897030
  24.8622180   3.2019510 144.9223350  22.2589140   7.5086180 148.8040450
  22.6985050   8.2510510 148.3895840  22.1976030   7.7512750 149.7279410
  13.1326040   6.0608050 149.8252410  12.7254120   6.2022640 148.9706010
  14.0239050   5.7768210 149.6223620  24.9259320  10.4955300 146.1603460
  24.7660460  10.2058240 147.0585290  24.7606030   9.7195430 145.6248690
  17.4047700  10.2753830 147.9375080  17.2290180   9.3589370 147.7242880
  16.5503440  10.6341120 148.1772880  24.6285450   8.0042860 144.7201460
  23.9350610   8.0020150 144.0603740  25.3708310   7.5802180 144.2895630
  24.1935380   9.6305570 148.7949950  24.6492330   8.8494950 149.1088570
  24.5327900  10.3412390 149.3391130  15.9855210   4.8719630 146.5096180
  15.2117470   4.3317250 146.3494900  16.7149840   4.3526240 146.1713940
  16.0292610   4.5400010 150.1474990  16.5471280   3.7368270 150.0931880
  15.5776630   4.4779150 150.9891820  20.9162110   5.8066290 145.4202290
  21.2577810   6.5508520 144.9245610  20.0874820   6.1197410 145.7827120
  28.2203040   7.7996700 146.9376110  27.5779200   7.1452320 147.2119830
  27.8333700   8.2051790 146.1616780  23.7989520   5.1282130 150.7847800
  24.1513340   4.5310260 150.1249170  22.9151850   4.8026360 150.9556050
  19.8852800   5.8879820 148.1918210  20.5723930   6.4349030 148.5725800
  19.0985220   6.4320550 148.2267820  19.1880010   2.8925850 147.8043570
  19.6442790   3.7031100 148.0303760  18.8368220   2.5748990 148.6362060
  26.6100420   6.6913160 143.4752460  26.3838000   5.9743600 144.0677100
  26.2196620   6.4425600 142.6374210  12.3916450  10.7180020 144.2496920
  12.7514090  11.3169360 143.5954190  12.2508790  11.2639910 145.0231950
  26.1916670   4.6085100 145.1366620  25.9038370   5.0697790 145.9244500
  26.9868840   4.1482870 145.4050840  18.4085070   8.1011220 145.0670590
  18.3995170   8.8340910 144.4515100  17.4883430   7.8542800 145.1597550
  14.0091710   3.3226110 145.8117350  13.4019660   4.0625010 145.8212650
  14.4841060   3.4125470 144.9855550  21.3944670   8.1639460 143.7295780
  21.4956650   7.9603450 142.7997760  20.4946410   7.9097740 143.9343560
  20.0362780  10.6825780 148.4243450  20.2904280  10.6447170 147.5022820
  19.0875260  10.5559110 148.4171700  16.0197000   3.2837260 143.5605920
  16.7860270   3.1718620 144.1231350  16.0971690   2.5875230 142.9082690
  15.5158470  10.8657720 151.3473350  16.2520950  10.3173180 151.6181920
  15.8999390  11.7313730 151.2079340  12.4003950   6.9331290 147.2214860
  11.4743730   7.1752430 147.2120270  12.8660380   7.7605550 147.0999610
  18.6260780  10.0388030 143.1698920  19.4189390  10.3276860 142.7180710
  18.1065130   9.6080200 142.4911400  27.6790950   9.2658160 144.5935660
  27.3932460   8.8523300 143.7789840  27.4810500  10.1945870 144.4736180
  19.1438180   5.2591440 143.0341270  19.0388820   4.6443790 143.7602650
  18.9762400   4.7357330 142.2504280  22.3840910   4.3211470 143.6383260
  21.8351010   4.7680770 144.2826000  23.0060170   3.8160720 144.1620930
  18.0516030   3.2802390 145.5348560  18.4732450   3.1142260 146.3779950
  18.1766870   2.4702620 145.0403700  21.1291700  10.3851610 145.0727400
  22.0242490  10.7236580 145.0946160  21.1609330   9.6631020 144.4451680
  14.7687860   5.7578660 143.3014400  15.2062730   6.3008330 143.9571980
  15.2535590   4.9325610 143.3110740  11.9833660   8.5467690 150.7534660
  12.3136670   7.6788750 150.5213300  12.4124660   8.7526210 151.5839620
  16.5795580   6.8776700 148.4136630  16.2791120   6.7541670 149.3140540
  16.4733070   6.0185290 148.0052360  29.3487500   6.6573100 143.1163310
  28.5180460   6.7249750 143.5870540  29.5259330   7.5477220 142.8130170
  28.8043960   3.4020580 145.6197510  29.5662870   3.9717230 145.7257200
  28.8198330   2.8347780 146.3905820  12.3048300   1.9258510 149.8505170
  11.6497140   1.6570150 149.2064870  13.1426250   1.8162990 149.4007150
  29.8103930   4.2570680 150.4639440  30.1812760   3.4738000 150.0575410
  30.4505860   4.9459780 150.2856740  28.8563130   3.6954950 142.7770030
  29.1311970   4.6033830 142.6489250  28.6673870   3.6317480 143.7132020
  26.8513740  10.3925860 149.4038030  27.4472810  10.0710430 148.7272450
  27.1091890   9.9197680 150.1951300  12.5106570  10.4538790 148.8331240
  12.3428610   9.8209470 149.5313130  11.6441080  10.6598190 148.4825430
  14.1169270   9.1472020 146.2781380  13.5916890   9.5280050 145.5743340
  14.0413850   9.7722790 146.9991090  28.8734590  10.7059560 147.5995320
  29.0486780  10.0197300 146.9556240  28.1756160  11.2306610 147.2071990
  16.7162240  11.0954400 145.1530630  17.4481060  10.8113680 144.6054520
  16.9755910  10.8567680 146.0430010  15.8777030   7.2119130 145.1576960
  15.2485910   7.6804230 145.7062790  15.9924860   6.3668350 145.5923150
  21.4644790   3.0403810 133.1887430  20.6886890   2.5604250 133.4786000
  22.1157720   2.3609460 133.0143590  15.4810620   3.3523620 134.0663190
  14.6495500   3.0972330 134.4659700  16.0891600   3.4234390 134.8021110
  25.4852220   7.4464000 131.9686560  25.0233750   6.6751240 132.2973730
  26.2977770   7.4730070 132.4739010  15.4611880   7.3863710 134.2621210
  15.7639920   6.4961450 134.0831430  16.2055470   7.9433930 134.0343460
  21.7115530   9.7322010 131.5890550  21.0926970  10.1879510 131.0184990
  22.5667310   9.8873470 131.1880250  20.9053780   5.7161000 133.1957590
  20.8362060   4.7750940 133.0346720  21.6673640   5.8062410 133.7680160
  22.5778880   4.6161250 128.9822460  21.9596150   5.0810700 128.4185180
  23.0902130   5.3088730 129.3991970  17.4410640   4.1437120 135.6606060
  17.1080020   4.7706040 136.3027130  17.6177320   4.6699000 134.8807730
  16.6529740   6.1117920 137.4755240  17.2703740   6.7869000 137.1939690
  15.7922860   6.5205900 137.3842740  11.9462080   5.3017780 126.3562090
  11.5690060   5.7904880 125.6246990  12.2035150   5.9743060 126.9868620
  27.5707330   7.5757330 135.3909880  26.8870850   8.2456440 135.3826550
  28.1101620   7.7737980 134.6254740  25.1066070   9.4201460 134.1055060
  25.1193230   9.0163750 133.2377320  24.5541290  10.1948750 134.0016490
  26.4011490   6.1417680 129.1945230  26.2907820   5.1992010 129.3194650
  26.3979740   6.5033320 130.0807990  24.5051510   4.3231300 135.4337670
  24.9220300   4.1091410 134.5991130  25.2291330   4.5804090 136.0046290
  21.9431770   1.7683000 128.5507720  21.0161050   1.7020380 128.7796190
  22.0956590   2.7063130 128.4362960  28.4513610   2.7218520 135.5253910
  27.6232240   2.7911610 135.0504040  29.0464090   3.3072830 135.0569740
  25.9729060   3.3303300 129.0542970  25.3541480   2.9922850 128.4069270
  25.9553510   2.6863060 129.7622160  18.0170110   5.9815300 133.4966660
  17.7198400   5.3760770 132.8174440  18.9669930   6.0192610 133.3856020
  26.1055720   9.5547170 137.1589760  25.6286280  10.3619360 136.9662370
  25.4217510   8.9025500 137.3115970  17.1088540   5.7196990 140.1474460
  16.2117070   5.9436960 140.3947860  17.1341410   5.8431930 139.1985860
  24.1493760   2.5690110 126.0615720  24.5887040   1.7312540 125.9153540
  24.8622180   3.2019510 126.1479860  15.9359760   2.5910310 138.7231830
  15.7967530   3.4633110 139.0919230  15.0541120   2.2483120 138.5779770
  22.2589140   7.5086180 130.0296960  22.6985050   8.2510510 129.6152350
  22.1976030   7.7512750 130.9535920  17.7340110   8.5332010 140.9316980
  17.7055540   8.9374960 140.0645410  17.5705080   7.6042370 140.7688580
  29.6854930   9.3159110 142.2281150  30.1614650   9.7942000 142.9070230
  30.3062090   9.2476600 141.5026650  11.8878410   4.3607860 134.6402740
  11.9658830   4.4956630 133.6958460  12.5020090   3.6523750 134.8330860
  13.1326040   6.0608050 131.0508920  12.7254120   6.2022640 130.1962520
  14.0239050   5.7768210 130.8480130  29.0888180   6.5071960 139.3881160
  29.2151240   6.2683840 138.4698340  29.1309560   5.6756500 139.8603240
  22.9504920  10.2099960 137.9575970  23.4649590  10.1207970 138.7598400
  22.1074000  10.5559660 138.2503880  24.9259320  10.4955300 127.3859970
  24.7660460  10.2058240 128.2841800  24.7606030   9.7195430 126.8505200
  17.4047700  10.2753830 129.1631590  17.2290180   9.3589370 128.9499390
  16.5503440  10.6341120 129.4029390  24.6285450   8.0042860 125.9457970
  23.9350610   8.0020150 125.2860250  25.3708310   7.5802180 125.5152140
  24.1935380   9.6305570 130.0206460  24.6492330   8.8494950 130.3345080
  24.5327900  10.3412390 130.5647640  11.9437930   5.4022030 137.1797200
  12.1068970   4.9327390 136.3616570  12.4090380   4.8945590 137.8446040
  13.5176910   4.7773460 139.3393010  13.1331700   4.1367130 139.9375970
  13.8289100   5.4809580 139.9087740  15.9855210   4.8719630 127.7352690
  15.2117470   4.3317250 127.5751410  16.7149840   4.3526240 127.3970450
  26.7443190   3.8684990 133.5279080  27.4642310   4.3640280 133.1375190
  26.5425010   3.1902880 132.8832950  22.1261990   3.9394050 139.4148080
  22.0599300   3.0189720 139.1605670  21.4967130   4.0369490 140.1292720
  16.0292610   4.5400010 131.3731500  16.5471280   3.7368270 131.3188390
  15.5776630   4.4779150 132.2148330  20.9162110   5.8066290 126.6458800
  21.2577810   6.5508520 126.1502120  20.0874820   6.1197410 127.0083630
  22.0578720   6.7614620 139.1651880  22.0723260   5.8295580 138.9470790
  21.3503820   6.8474380 139.8041650  28.2689930   3.4021960 138.5120460
  27.5438120   3.9950740 138.3149850  28.7965390   3.3945500 137.7133830
  28.2203040   7.7996700 128.1632620  27.5779200   7.1452320 128.4376340
  27.8333700   8.2051790 127.3873290  23.7989520   5.1282130 132.0104310
  24.1513340   4.5310260 131.3505680  22.9151850   4.8026360 132.1812560
  19.8852800   5.8879820 129.4174720  20.5723930   6.4349030 129.7982310
  19.0985220   6.4320550 129.4524330  19.1880010   2.8925850 129.0300080
  19.6442790   3.7031100 129.2560270  18.8368220   2.5748990 129.8618570
  21.4912620   8.4032190 136.2592380  22.1354840   8.6091570 136.9365800
  21.8542060   7.6420590 135.8063230  22.7644700   6.4064540 134.9769830
  23.4066930   5.7057700 135.0902000  23.2894050   7.1862980 134.7966720
  26.6100420   6.6913160 124.7008970  26.3838000   5.9743600 125.2933610
  26.2196620   6.4425600 123.8630720  24.5382320   7.2059440 138.1805890
  24.8738560   7.7926130 138.8583810  23.6182660   7.0752150 138.4103680
  12.3916450  10.7180020 125.4753430  12.7514090  11.3169360 124.8210700
  12.2508790  11.2639910 126.2488460  26.1916670   4.6085100 126.3623130
  25.9038370   5.0697790 127.1501010  26.9868840   4.1482870 126.6307350
  12.3758310   8.9834880 139.9495830  12.4849430   8.0429620 139.8091220
  11.7238870   9.2489630 139.3009560  20.3670900   7.2550770 141.3493950
  20.0467770   6.5360010 141.8939640  19.6929260   7.9305840 141.4230010
  18.4085070   8.1011220 126.2927100  18.3995170   8.8340910 125.6771610
  17.4883430   7.8542800 126.3854060  14.0091710   3.3226110 127.0373860
  13.4019660   4.0625010 127.0469160  14.4841060   3.4125470 126.2112060
  21.3944670   8.1639460 124.9552290  21.4956650   7.9603450 124.0254270
  20.4946410   7.9097740 125.1600070  20.0362780  10.6825780 129.6499960
  20.2904280  10.6447170 128.7279330  19.0875260  10.5559110 129.6428210
  16.0197000   3.2837260 124.7862430  16.7860270   3.1718620 125.3487860
  16.0971690   2.5875230 124.1339200  28.0440940   8.7726510 132.9012730
  28.1688360   9.5957680 133.3736540  28.9106500   8.5617240 132.5536880
  15.5158470  10.8657720 132.5729860  16.2520950  10.3173180 132.8438430
  15.8999390  11.7313730 132.4335850  12.4003950   6.9331290 128.4471370
  11.4743730   7.1752430 128.4376780  12.8660380   7.7605550 128.3256120
  14.5216750  10.0503790 141.7615440  15.3229480  10.3715840 142.1750840
  14.0068570   9.6899370 142.4835350  18.6260780  10.0388030 124.3955430
  19.4189390  10.3276860 123.9437220  18.1065130   9.6080200 123.7167910
  23.3581380   6.1583660 141.7090850  22.7519540   6.1815260 140.9686600
  23.0535490   5.4266700 142.2458100  24.7881750   9.8863950 140.3200260
  25.7403500   9.8021970 140.2700500  24.6409970  10.5505660 140.9934050
  27.6790950   9.2658160 125.8192170  27.3932460   8.8523300 125.0046350
  27.4810500  10.1945870 125.6992690  12.2414560   2.5377250 140.7051490
  12.7453580   1.9584530 141.2767720  11.5021980   2.8217480 141.2427860
  19.1438180   5.2591440 124.2597780  19.0388820   4.6443790 124.9859160
  18.9762400   4.7357330 123.4760790  19.2952500   3.9448240 140.2387010
  18.5298170   4.5133240 140.1541680  19.4768460   3.6524450 139.3455240
  22.3840910   4.3211470 124.8639770  21.8351010   4.7680770 125.5082510
  23.0060170   3.8160720 125.3877440  26.4375850   5.6753570 140.7962030
  27.1785320   6.0129330 140.2929490  25.6748530   5.8445630 140.2431800
  18.0516030   3.2802390 126.7605070  18.4732450   3.1142260 127.6036460
  18.1766870   2.4702620 126.2660210  25.1121510   3.7268400 139.3317240
  25.5262530   3.8813480 140.1807660  24.1772510   3.8523620 139.4943020
  19.8736740   3.6788880 137.3013170  20.2924850   4.5221610 137.1289410
  18.9545370   3.8160920 137.0719950  24.5488540   1.9642250 137.2613520
  24.0223760   2.4884870 136.6578660  24.8919880   2.5969640 137.8923250
  17.7244160   9.9841890 138.4170900  17.1865250  10.7087950 138.0979600
  17.9778120   9.5072230 137.6268240  20.5806370  11.2193100 138.6757550
  20.5065070  12.1228240 138.9829920  19.6785210  10.9005000 138.6479620
  21.1291700  10.3851610 126.2983910  22.0242490  10.7236580 126.3202670
  21.1609330   9.6631020 125.6708190  14.7687860   5.7578660 124.5270910
  15.2062730   6.3008330 125.1828490  15.2535590   4.9325610 124.5367250
  11.9833660   8.5467690 131.9791170  12.3136670   7.6788750 131.7469810
  12.4124660   8.7526210 132.8096130  16.5795580   6.8776700 129.6393140
  16.2791120   6.7541670 130.5397050  16.4733070   6.0185290 129.2308870
  12.4723870   9.4138280 134.7172800  12.0354860   9.5939080 135.5496950
  13.0401550  10.1712900 134.5754520  28.1086050   8.9155280 139.0050110
  27.5088040   8.9747840 138.2614030  28.2379950   7.9760260 139.1346960
  29.3487500   6.6573100 124.3419820  28.5180460   6.7249750 124.8127050
  29.5259330   7.5477220 124.0386680  28.8043960   3.4020580 126.8454020
  29.5662870   3.9717230 126.9513710  28.8198330   2.8347780 127.6162330
  12.3048300   1.9258510 131.0761680  11.6497140   1.6570150 130.4321380
  13.1426250   1.8162990 130.6263660  29.8103930   4.2570680 131.6895950
  30.1812760   3.4738000 131.2831920  30.4505860   4.9459780 131.5113250
  26.7937690   5.6407260 137.1026270  25.9797530   6.0704420 137.3652060
  27.2011890   6.2525670 136.4895320  28.8563130   3.6954950 124.0026540
  29.1311970   4.6033830 123.8745760  28.6673870   3.6317480 124.9388530
  26.8513740  10.3925860 130.6294540  27.4472810  10.0710430 129.9528960
  27.1091890   9.9197680 131.4207810  14.7576310   6.8243770 140.7785170
  14.7145940   6.4536680 141.6599630  14.8887320   7.7621340 140.9186990
  18.4582340   8.3803360 136.3794890  18.2173700   8.6477920 135.4925410
  19.3984980   8.5509090 136.4345750  29.7186500  10.3997740 137.1805530
  29.2244780  10.7966610 136.4632660  29.1099790   9.7746950 137.5742810
  14.5964340   9.7706020 137.8982950  14.0024660   9.6390720 138.6372990
  14.5888180   8.9344160 137.4325050  27.4025950  11.0421160 134.4592270
  26.9428920  11.7936970 134.0850290  26.7738410  10.3227630 134.4007070
  14.2276570   7.1364400 136.8490990  13.5010630   6.5169690 136.7816940
  14.2885720   7.5305010 135.9789070  17.8321670   9.3509400 133.6340400
  18.3486690   8.7396760 133.1088660  18.4819050   9.8538180 134.1251410
  20.5717170  10.2417890 134.4609380  20.8594980   9.9872190 133.5842390
  21.0840390   9.6895250 135.0514950  12.5106570  10.4538790 130.0587750
  12.3428610   9.8209470 130.7569640  11.6441080  10.6598190 129.7081940
  14.1169270   9.1472020 127.5037890  13.5916890   9.5280050 126.7999850
  14.0413850   9.7722790 128.2247600  20.6389530  11.1633990 141.8277580
  21.5656840  10.9278260 141.8713540  20.6239960  11.9905990 141.3463610
  28.8734590  10.7059560 128.8251830  29.0486780  10.0197300 128.1812750
  28.1756160  11.2306610 128.4328500  16.7162240  11.0954400 126.3787140
  17.4481060  10.8113680 125.8311030  16.9755910  10.8567680 127.2686520
  15.8777030   7.2119130 126.3833470  15.2485910   7.6804230 126.9319300
  15.9924860   6.3668350 126.8179660  27.2067090  10.3903850 141.6518620
  27.9992410   9.8953080 141.4444580  27.5000240  11.0693990 142.2594230
  21.4644790   3.0403810 114.4143940  20.6886890   2.5604250 114.7042510
  22.1157720   2.3609460 114.2400100  15.4810620   3.3523620 115.2919700
  14.6495500   3.0972330 115.6916210  16.0891600   3.4234390 116.0277620
  25.4852220   7.4464000 113.1943070  25.0233750   6.6751240 113.5230240
  26.2977770   7.4730070 113.6995520  15.4611880   7.3863710 115.4877720
  15.7639920   6.4961450 115.3087940  16.2055470   7.9433930 115.2599970
  21.7115530   9.7322010 112.8147060  21.0926970  10.1879510 112.2441500
  22.5667310   9.8873470 112.4136760  20.9053780   5.7161000 114.4214100
  20.8362060   4.7750940 114.2603230  21.6673640   5.8062410 114.9936670
  22.5778880   4.6161250 110.2078970  21.9596150   5.0810700 109.6441690
  23.0902130   5.3088730 110.6248480  17.4410640   4.1437120 116.8862570
  17.1080020   4.7706040 117.5283640  17.6177320   4.6699000 116.1064240
  16.6529740   6.1117920 118.7011750  17.2703740   6.7869000 118.4196200
  15.7922860   6.5205900 118.6099250  11.9462080   5.3017780 107.5818600
  11.5690060   5.7904880 106.8503500  12.2035150   5.9743060 108.2125130
  27.5707330   7.5757330 116.6166390  26.8870850   8.2456440 116.6083060
  28.1101620   7.7737980 115.8511250  25.1066070   9.4201460 115.3311570
  25.1193230   9.0163750 114.4633830  24.5541290  10.1948750 115.2273000
  26.4011490   6.1417680 110.4201740  26.2907820   5.1992010 110.5451160
  26.3979740   6.5033320 111.3064500  24.5051510   4.3231300 116.6594180
  24.9220300   4.1091410 115.8247640  25.2291330   4.5804090 117.2302800
  21.9431770   1.7683000 109.7764230  21.0161050   1.7020380 110.0052700
  22.0956590   2.7063130 109.6619470  28.4513610   2.7218520 116.7510420
  27.6232240   2.7911610 116.2760550  29.0464090   3.3072830 116.2826250
  25.9729060   3.3303300 110.2799480  25.3541480   2.9922850 109.6325780
  25.9553510   2.6863060 110.9878670  18.0170110   5.9815300 114.7223170
  17.7198400   5.3760770 114.0430950  18.9669930   6.0192610 114.6112530
  26.1055720   9.5547170 118.3846270  25.6286280  10.3619360 118.1918880
  25.4217510   8.9025500 118.5372480  17.1088540   5.7196990 121.3730970
  16.2117070   5.9436960 121.6204370  17.1341410   5.8431930 120.4242370
  24.1493760   2.5690110 107.2872230  24.5887040   1.7312540 107.1410050
  24.8622180   3.2019510 107.3736370  15.9359760   2.5910310 119.9488340
  15.7967530   3.4633110 120.3175740  15.0541120   2.2483120 119.8036280
  22.2589140   7.5086180 111.2553470  22.6985050   8.2510510 110.8408860
  22.1976030   7.7512750 112.1792430  17.7340110   8.5332010 122.1573490
  17.7055540   8.9374960 121.2901920  17.5705080   7.6042370 121.9945090
  29.6854930   9.3159110 123.4537660  30.1614650   9.7942000 124.1326740
  30.3062090   9.2476600 122.7283160  11.8878410   4.3607860 115.8659250
  11.9658830   4.4956630 114.9214970  12.5020090   3.6523750 116.0587370
  13.1326040   6.0608050 112.2765430  12.7254120   6.2022640 111.4219030
  14.0239050   5.7768210 112.0736640  29.0888180   6.5071960 120.6137670
  29.2151240   6.2683840 119.6954850  29.1309560   5.6756500 121.0859750
  22.9504920  10.2099960 119.1832480  23.4649590  10.1207970 119.9854910
  22.1074000  10.5559660 119.4760390  24.9259320  10.4955300 108.6116480
  24.7660460  10.2058240 109.5098310  24.7606030   9.7195430 108.0761710
  17.4047700  10.2753830 110.3888100  17.2290180   9.3589370 110.1755900
  16.5503440  10.6341120 110.6285900  24.6285450   8.0042860 107.1714480
  23.9350610   8.0020150 106.5116760  25.3708310   7.5802180 106.7408650
  24.1935380   9.6305570 111.2462970  24.6492330   8.8494950 111.5601590
  24.5327900  10.3412390 111.7904150  11.9437930   5.4022030 118.4053710
  12.1068970   4.9327390 117.5873080  12.4090380   4.8945590 119.0702550
  13.5176910   4.7773460 120.5649520  13.1331700   4.1367130 121.1632480
  13.8289100   5.4809580 121.1344250  15.9855210   4.8719630 108.9609200
  15.2117470   4.3317250 108.8007920  16.7149840   4.3526240 108.6226960
  26.7443190   3.8684990 114.7535590  27.4642310   4.3640280 114.3631700
  26.5425010   3.1902880 114.1089460  22.1261990   3.9394050 120.6404590
  22.0599300   3.0189720 120.3862180  21.4967130   4.0369490 121.3549230
  16.0292610   4.5400010 112.5988010  16.5471280   3.7368270 112.5444900
  15.5776630   4.4779150 113.4404840  20.9162110   5.8066290 107.8715310
  21.2577810   6.5508520 107.3758630  20.0874820   6.1197410 108.2340140
  22.0578720   6.7614620 120.3908390  22.0723260   5.8295580 120.1727300
  21.3503820   6.8474380 121.0298160  28.2689930   3.4021960 119.7376970
  27.5438120   3.9950740 119.5406360  28.7965390   3.3945500 118.9390340
  28.2203040   7.7996700 109.3889130  27.5779200   7.1452320 109.6632850
  27.8333700   8.2051790 108.6129800  23.7989520   5.1282130 113.2360820
  24.1513340   4.5310260 112.5762190  22.9151850   4.8026360 113.4069070
  19.8852800   5.8879820 110.6431230  20.5723930   6.4349030 111.0238820
  19.0985220   6.4320550 110.6780840  19.1880010   2.8925850 110.2556590
  19.6442790   3.7031100 110.4816780  18.8368220   2.5748990 111.0875080
  21.4912620   8.4032190 117.4848890  22.1354840   8.6091570 118.1622310
  21.8542060   7.6420590 117.0319740  22.7644700   6.4064540 116.2026340
  23.4066930   5.7057700 116.3158510  23.2894050   7.1862980 116.0223230
  26.6100420   6.6913160 105.9265480  26.3838000   5.9743600 106.5190120
  26.2196620   6.4425600 105.0887230  24.5382320   7.2059440 119.4062400
  24.8738560   7.7926130 120.0840320  23.6182660   7.0752150 119.6360190
  12.3916450  10.7180020 106.7009940  12.7514090  11.3169360 106.0467210
  12.2508790  11.2639910 107.4744970  26.1916670   4.6085100 107.5879640
  25.9038370   5.0697790 108.3757520  26.9868840   4.1482870 107.8563860
  12.3758310   8.9834880 121.1752340  12.4849430   8.0429620 121.0347730
  11.7238870   9.2489630 120.5266070  20.3670900   7.2550770 122.5750460
  20.0467770   6.5360010 123.1196150  19.6929260   7.9305840 122.6486520
  18.4085070   8.1011220 107.5183610  18.3995170   8.8340910 106.9028120
  17.4883430   7.8542800 107.6110570  14.0091710   3.3226110 108.2630370
  13.4019660   4.0625010 108.2725670  14.4841060   3.4125470 107.4368570
  21.3944670   8.1639460 106.1808800  21.4956650   7.9603450 105.2510780
  20.4946410   7.9097740 106.3856580  20.0362780  10.6825780 110.8756470
  20.2904280  10.6447170 109.9535840  19.0875260  10.5559110 110.8684720
  16.0197000   3.2837260 106.0118940  16.7860270   3.1718620 106.5744370
  16.0971690   2.5875230 105.3595710  28.0440940   8.7726510 114.1269240
  28.1688360   9.5957680 114.5993050  28.9106500   8.5617240 113.7793390
  15.5158470  10.8657720 113.7986370  16.2520950  10.3173180 114.0694940
  15.8999390  11.7313730 113.6592360  12.4003950   6.9331290 109.6727880
  11.4743730   7.1752430 109.6633290  12.8660380   7.7605550 109.5512630
  14.5216750  10.0503790 122.9871950  15.3229480  10.3715840 123.4007350
  14.0068570   9.6899370 123.7091860  18.6260780  10.0388030 105.6211940
  19.4189390  10.3276860 105.1693730  18.1065130   9.6080200 104.9424420
  23.3581380   6.1583660 122.9347360  22.7519540   6.1815260 122.1943110
  23.0535490   5.4266700 123.4714610  24.7881750   9.8863950 121.5456770
  25.7403500   9.8021970 121.4957010  24.6409970  10.5505660 122.2190560
  27.6790950   9.2658160 107.0448680  27.3932460   8.8523300 106.2302860
  27.4810500  10.1945870 106.9249200  12.2414560   2.5377250 121.9308000
  12.7453580   1.9584530 122.5024230  11.5021980   2.8217480 122.4684370
  19.1438180   5.2591440 105.4854290  19.0388820   4.6443790 106.2115670
  18.9762400   4.7357330 104.7017300  19.2952500   3.9448240 121.4643520
  18.5298170   4.5133240 121.3798190  19.4768460   3.6524450 120.5711750
  22.3840910   4.3211470 106.0896280  21.8351010   4.7680770 106.7339020
  23.0060170   3.8160720 106.6133950  26.4375850   5.6753570 122.0218540
  27.1785320   6.0129330 121.5186000  25.6748530   5.8445630 121.4688310
  18.0516030   3.2802390 107.9861580  18.4732450   3.1142260 108.8292970
  18.1766870   2.4702620 107.4916720  25.1121510   3.7268400 120.5573750
  25.5262530   3.8813480 121.4064170  24.1772510   3.8523620 120.7199530
  19.8736740   3.6788880 118.5269680  20.2924850   4.5221610 118.3545920
  18.9545370   3.8160920 118.2976460  24.5488540   1.9642250 118.4870030
  24.0223760   2.4884870 117.8835170  24.8919880   2.5969640 119.1179760
  17.7244160   9.9841890 119.6427410  17.1865250  10.7087950 119.3236110
  17.9778120   9.5072230 118.8524750  20.5806370  11.2193100 119.9014060
  20.5065070  12.1228240 120.2086430  19.6785210  10.9005000 119.8736130
  21.1291700  10.3851610 107.5240420  22.0242490  10.7236580 107.5459180
  21.1609330   9.6631020 106.8964700  14.7687860   5.7578660 105.7527420
  15.2062730   6.3008330 106.4085000  15.2535590   4.9325610 105.7623760
  11.9833660   8.5467690 113.2047680  12.3136670   7.6788750 112.9726320
  12.4124660   8.7526210 114.0352640  16.5795580   6.8776700 110.8649650
  16.2791120   6.7541670 111.7653560  16.4733070   6.0185290 110.4565380
  12.4723870   9.4138280 115.9429310  12.0354860   9.5939080 116.7753460
  13.0401550  10.1712900 115.8011030  28.1086050   8.9155280 120.2306620
  27.5088040   8.9747840 119.4870540  28.2379950   7.9760260 120.3603470
  29.3487500   6.6573100 105.5676330  28.5180460   6.7249750 106.0383560
  29.5259330   7.5477220 105.2643190  28.8043960   3.4020580 108.0710530
  29.5662870   3.9717230 108.1770220  28.8198330   2.8347780 108.8418840
  12.3048300   1.9258510 112.3018190  11.6497140   1.6570150 111.6577890
  13.1426250   1.8162990 111.8520170  29.8103930   4.2570680 112.9152460
  30.1812760   3.4738000 112.5088430  30.4505860   4.9459780 112.7369760
  26.7937690   5.6407260 118.3282780  25.9797530   6.0704420 118.5908570
  27.2011890   6.2525670 117.7151830  28.8563130   3.6954950 105.2283050
  29.1311970   4.6033830 105.1002270  28.6673870   3.6317480 106.1645040
  26.8513740  10.3925860 111.8551050  27.4472810  10.0710430 111.1785470
  27.1091890   9.9197680 112.6464320  14.7576310   6.8243770 122.0041680
  14.7145940   6.4536680 122.8856140  14.8887320   7.7621340 122.1443500
  18.4582340   8.3803360 117.6051400  18.2173700   8.6477920 116.7181920
  19.3984980   8.5509090 117.6602260  29.7186500  10.3997740 118.4062040
  29.2244780  10.7966610 117.6889170  29.1099790   9.7746950 118.7999320
  14.5964340   9.7706020 119.1239460  14.0024660   9.6390720 119.8629500
  14.5888180   8.9344160 118.6581560  27.4025950  11.0421160 115.6848780
  26.9428920  11.7936970 115.3106800  26.7738410  10.3227630 115.6263580
  14.2276570   7.1364400 118.0747500  13.5010630   6.5169690 118.0073450
  14.2885720   7.5305010 117.2045580  17.8321670   9.3509400 114.8596910
  18.3486690   8.7396760 114.3345170  18.4819050   9.8538180 115.3507920
  20.5717170  10.2417890 115.6865890  20.8594980   9.9872190 114.8098900
  21.0840390   9.6895250 116.2771460  12.5106570  10.4538790 111.2844260
  12.3428610   9.8209470 111.9826150  11.6441080  10.6598190 110.9338450
  14.1169270   9.1472020 108.7294400  13.5916890   9.5280050 108.0256360
  14.0413850   9.7722790 109.4504110  20.6389530  11.1633990 123.0534090
  21.5656840  10.9278260 123.0970050  20.6239960  11.9905990 122.5720120
  28.8734590  10.7059560 110.0508340  29.0486780  10.0197300 109.4069260
  28.1756160  11.2306610 109.6585010  16.7162240  11.0954400 107.6043650
  17.4481060  10.8113680 107.0567540  16.9755910  10.8567680 108.4943030
  15.8777030   7.2119130 107.6089980  15.2485910   7.6804230 108.1575810
  15.9924860   6.3668350 108.0436170  27.2067090  10.3903850 122.8775130
  27.9992410   9.8953080 122.6701090  27.5000240  11.0693990 123.4850740
  21.4644790   3.0403810  95.6400450  20.6886890   2.5604250  95.9299020
  22.1157720   2.3609460  95.4656610  15.4810620   3.3523620  96.5176210
  14.6495500   3.0972330  96.9172720  16.0891600   3.4234390  97.2534130
  25.4852220   7.4464000  94.4199580  25.0233750   6.6751240  94.7486750
  26.2977770   7.4730070  94.9252030  15.4611880   7.3863710  96.7134230
  15.7639920   6.4961450  96.5344450  16.2055470   7.9433930  96.4856480
  21.7115530   9.7322010  94.0403570  21.0926970  10.1879510  93.4698010
  22.5667310   9.8873470  93.6393270  20.9053780   5.7161000  95.6470610
  20.8362060   4.7750940  95.4859740  21.6673640   5.8062410  96.2193180
  22.5778880   4.6161250  91.4335480  21.9596150   5.0810700  90.8698200
  23.0902130   5.3088730  91.8504990  17.4410640   4.1437120  98.1119080
  17.1080020   4.7706040  98.7540150  17.6177320   4.6699000  97.3320750
  16.6529740   6.1117920  99.9268260  17.2703740   6.7869000  99.6452710
  15.7922860   6.5205900  99.8355760  11.9462080   5.3017780  88.8075110
  11.5690060   5.7904880  88.0760010  12.2035150   5.9743060  89.4381640
  27.5707330   7.5757330  97.8422900  26.8870850   8.2456440  97.8339570
  28.1101620   7.7737980  97.0767760  25.1066070   9.4201460  96.5568080
  25.1193230   9.0163750  95.6890340  24.5541290  10.1948750  96.4529510
  26.4011490   6.1417680  91.6458250  26.2907820   5.1992010  91.7707670
  26.3979740   6.5033320  92.5321010  24.5051510   4.3231300  97.8850690
  24.9220300   4.1091410  97.0504150  25.2291330   4.5804090  98.4559310
  21.9431770   1.7683000  91.0020740  21.0161050   1.7020380  91.2309210
  22.0956590   2.7063130  90.8875980  28.4513610   2.7218520  97.9766930
  27.6232240   2.7911610  97.5017060  29.0464090   3.3072830  97.5082760
  25.9729060   3.3303300  91.5055990  25.3541480   2.9922850  90.8582290
  25.9553510   2.6863060  92.2135180  18.0170110   5.9815300  95.9479680
  17.7198400   5.3760770  95.2687460  18.9669930   6.0192610  95.8369040
  26.1055720   9.5547170  99.6102780  25.6286280  10.3619360  99.4175390
  25.4217510   8.9025500  99.7628990  17.1088540   5.7196990 102.5987480
  16.2117070   5.9436960 102.8460880  17.1341410   5.8431930 101.6498880
  24.1493760   2.5690110  88.5128740  24.5887040   1.7312540  88.3666560
  24.8622180   3.2019510  88.5992880  15.9359760   2.5910310 101.1744850
  15.7967530   3.4633110 101.5432250  15.0541120   2.2483120 101.0292790
  22.2589140   7.5086180  92.4809980  22.6985050   8.2510510  92.0665370
  22.1976030   7.7512750  93.4048940  17.7340110   8.5332010 103.3830000
  17.7055540   8.9374960 102.5158430  17.5705080   7.6042370 103.2201600
  29.6854930   9.3159110 104.6794170  30.1614650   9.7942000 105.3583250
  30.3062090   9.2476600 103.9539670  11.8878410   4.3607860  97.0915760
  11.9658830   4.4956630  96.1471480  12.5020090   3.6523750  97.2843880
  13.1326040   6.0608050  93.5021940  12.7254120   6.2022640  92.6475540
  14.0239050   5.7768210  93.2993150  29.0888180   6.5071960 101.8394180
  29.2151240   6.2683840 100.9211360  29.1309560   5.6756500 102.3116260
  22.9504920  10.2099960 100.4088990  23.4649590  10.1207970 101.2111420
  22.1074000  10.5559660 100.7016900  24.9259320  10.4955300  89.8372990
  24.7660460  10.2058240  90.7354820  24.7606030   9.7195430  89.3018220
  17.4047700  10.2753830  91.6144610  17.2290180   9.3589370  91.4012410
  16.5503440  10.6341120  91.8542410  24.6285450   8.0042860  88.3970990
  23.9350610   8.0020150  87.7373270  25.3708310   7.5802180  87.9665160
  24.1935380   9.6305570  92.4719480  24.6492330   8.8494950  92.7858100
  24.5327900  10.3412390  93.0160660  11.9437930   5.4022030  99.6310220
  12.1068970   4.9327390  98.8129590  12.4090380   4.8945590 100.2959060
  13.5176910   4.7773460 101.7906030  13.1331700   4.1367130 102.3888990
  13.8289100   5.4809580 102.3600760  15.9855210   4.8719630  90.1865710
  15.2117470   4.3317250  90.0264430  16.7149840   4.3526240  89.8483470
  26.7443190   3.8684990  95.9792100  27.4642310   4.3640280  95.5888210
  26.5425010   3.1902880  95.3345970  22.1261990   3.9394050 101.8661100
  22.0599300   3.0189720 101.6118690  21.4967130   4.0369490 102.5805740
  16.0292610   4.5400010  93.8244520  16.5471280   3.7368270  93.7701410
  15.5776630   4.4779150  94.6661350  20.9162110   5.8066290  89.0971820
  21.2577810   6.5508520  88.6015140  20.0874820   6.1197410  89.4596650
  22.0578720   6.7614620 101.6164900  22.0723260   5.8295580 101.3983810
  21.3503820   6.8474380 102.2554670  28.2689930   3.4021960 100.9633480
  27.5438120   3.9950740 100.7662870  28.7965390   3.3945500 100.1646850
  28.2203040   7.7996700  90.6145640  27.5779200   7.1452320  90.8889360
  27.8333700   8.2051790  89.8386310  23.7989520   5.1282130  94.4617330
  24.1513340   4.5310260  93.8018700  22.9151850   4.8026360  94.6325580
  19.8852800   5.8879820  91.8687740  20.5723930   6.4349030  92.2495330
  19.0985220   6.4320550  91.9037350  19.1880010   2.8925850  91.4813100
  19.6442790   3.7031100  91.7073290  18.8368220   2.5748990  92.3131590
  21.4912620   8.4032190  98.7105400  22.1354840   8.6091570  99.3878820
  21.8542060   7.6420590  98.2576250  22.7644700   6.4064540  97.4282850
  23.4066930   5.7057700  97.5415020  23.2894050   7.1862980  97.2479740
  26.6100420   6.6913160  87.1521990  26.3838000   5.9743600  87.7446630
  26.2196620   6.4425600  86.3143740  24.5382320   7.2059440 100.6318910
  24.8738560   7.7926130 101.3096830  23.6182660   7.0752150 100.8616700
  12.3916450  10.7180020  87.9266450  12.7514090  11.3169360  87.2723720
  12.2508790  11.2639910  88.7001480  26.1916670   4.6085100  88.8136150
  25.9038370   5.0697790  89.6014030  26.9868840   4.1482870  89.0820370
  12.3758310   8.9834880 102.4008850  12.4849430   8.0429620 102.2604240
  11.7238870   9.2489630 101.7522580  20.3670900   7.2550770 103.8006970
  20.0467770   6.5360010 104.3452660  19.6929260   7.9305840 103.8743030
  18.4085070   8.1011220  88.7440120  18.3995170   8.8340910  88.1284630
  17.4883430   7.8542800  88.8367080  14.0091710   3.3226110  89.4886880
  13.4019660   4.0625010  89.4982180  14.4841060   3.4125470  88.6625080
  21.3944670   8.1639460  87.4065310  21.4956650   7.9603450  86.4767290
  20.4946410   7.9097740  87.6113090  20.0362780  10.6825780  92.1012980
  20.2904280  10.6447170  91.1792350  19.0875260  10.5559110  92.0941230
  16.0197000   3.2837260  87.2375450  16.7860270   3.1718620  87.8000880
  16.0971690   2.5875230  86.5852220  28.0440940   8.7726510  95.3525750
  28.1688360   9.5957680  95.8249560  28.9106500   8.5617240  95.0049900
  15.5158470  10.8657720  95.0242880  16.2520950  10.3173180  95.2951450
  15.8999390  11.7313730  94.8848870  12.4003950   6.9331290  90.8984390
  11.4743730   7.1752430  90.8889800  12.8660380   7.7605550  90.7769140
  14.5216750  10.0503790 104.2128460  15.3229480  10.3715840 104.6263860
  14.0068570   9.6899370 104.9348370  18.6260780  10.0388030  86.8468450
  19.4189390  10.3276860  86.3950240  18.1065130   9.6080200  86.1680930
  23.3581380   6.1583660 104.1603870  22.7519540   6.1815260 103.4199620
  23.0535490   5.4266700 104.6971120  24.7881750   9.8863950 102.7713280
  25.7403500   9.8021970 102.7213520  24.6409970  10.5505660 103.4447070
  27.6790950   9.2658160  88.2705190  27.3932460   8.8523300  87.4559370
  27.4810500  10.1945870  88.1505710  12.2414560   2.5377250 103.1564510
  12.7453580   1.9584530 103.7280740  11.5021980   2.8217480 103.6940880
  19.1438180   5.2591440  86.7110800  19.0388820   4.6443790  87.4372180
  18.9762400   4.7357330  85.9273810  19.2952500   3.9448240 102.6900030
  18.5298170   4.5133240 102.6054700  19.4768460   3.6524450 101.7968260
  22.3840910   4.3211470  87.3152790  21.8351010   4.7680770  87.9595530
  23.0060170   3.8160720  87.8390460  26.4375850   5.6753570 103.2475050
  27.1785320   6.0129330 102.7442510  25.6748530   5.8445630 102.6944820
  18.0516030   3.2802390  89.2118090  18.4732450   3.1142260  90.0549480
  18.1766870   2.4702620  88.7173230  25.1121510   3.7268400 101.7830260
  25.5262530   3.8813480 102.6320680  24.1772510   3.8523620 101.9456040
  19.8736740   3.6788880  99.7526190  20.2924850   4.5221610  99.5802430
  18.9545370   3.8160920  99.5232970  24.5488540   1.9642250  99.7126540
  24.0223760   2.4884870  99.1091680  24.8919880   2.5969640 100.3436270
  17.7244160   9.9841890 100.8683920  17.1865250  10.7087950 100.5492620
  17.9778120   9.5072230 100.0781260  20.5806370  11.2193100 101.1270570
  20.5065070  12.1228240 101.4342940  19.6785210  10.9005000 101.0992640
  21.1291700  10.3851610  88.7496930  22.0242490  10.7236580  88.7715690
  21.1609330   9.6631020  88.1221210  14.7687860   5.7578660  86.9783930
  15.2062730   6.3008330  87.6341510  15.2535590   4.9325610  86.9880270
  11.9833660   8.5467690  94.4304190  12.3136670   7.6788750  94.1982830
  12.4124660   8.7526210  95.2609150  16.5795580   6.8776700  92.0906160
  16.2791120   6.7541670  92.9910070  16.4733070   6.0185290  91.6821890
  12.4723870   9.4138280  97.1685820  12.0354860   9.5939080  98.0009970
  13.0401550  10.1712900  97.0267540  28.1086050   8.9155280 101.4563130
  27.5088040   8.9747840 100.7127050  28.2379950   7.9760260 101.5859980
  29.3487500   6.6573100  86.7932840  28.5180460   6.7249750  87.2640070
  29.5259330   7.5477220  86.4899700  28.8043960   3.4020580  89.2967040
  29.5662870   3.9717230  89.4026730  28.8198330   2.8347780  90.0675350
  12.3048300   1.9258510  93.5274700  11.6497140   1.6570150  92.8834400
  13.1426250   1.8162990  93.0776680  29.8103930   4.2570680  94.1408970
  30.1812760   3.4738000  93.7344940  30.4505860   4.9459780  93.9626270
  26.7937690   5.6407260  99.5539290  25.9797530   6.0704420  99.8165080
  27.2011890   6.2525670  98.9408340  28.8563130   3.6954950  86.4539560
  29.1311970   4.6033830  86.3258780  28.6673870   3.6317480  87.3901550
  26.8513740  10.3925860  93.0807560  27.4472810  10.0710430  92.4041980
  27.1091890   9.9197680  93.8720830  14.7576310   6.8243770 103.2298190
  14.7145940   6.4536680 104.1112650  14.8887320   7.7621340 103.3700010
  18.4582340   8.3803360  98.8307910  18.2173700   8.6477920  97.9438430
  19.3984980   8.5509090  98.8858770  29.7186500  10.3997740  99.6318550
  29.2244780  10.7966610  98.9145680  29.1099790   9.7746950 100.0255830
  14.5964340   9.7706020 100.3495970  14.0024660   9.6390720 101.0886010
  14.5888180   8.9344160  99.8838070  27.4025950  11.0421160  96.9105290
  26.9428920  11.7936970  96.5363310  26.7738410  10.3227630  96.8520090
  14.2276570   7.1364400  99.3004010  13.5010630   6.5169690  99.2329960
  14.2885720   7.5305010  98.4302090  17.8321670   9.3509400  96.0853420
  18.3486690   8.7396760  95.5601680  18.4819050   9.8538180  96.5764430
  20.5717170  10.2417890  96.9122400  20.8594980   9.9872190  96.0355410
  21.0840390   9.6895250  97.5027970  12.5106570  10.4538790  92.5100770
  12.3428610   9.8209470  93.2082660  11.6441080  10.6598190  92.1594960
  14.1169270   9.1472020  89.9550910  13.5916890   9.5280050  89.2512870
  14.0413850   9.7722790  90.6760620  20.6389530  11.1633990 104.2790600
  21.5656840  10.9278260 104.3226560  20.6239960  11.9905990 103.7976630
  28.8734590  10.7059560  91.2764850  29.0486780  10.0197300  90.6325770
  28.1756160  11.2306610  90.8841520  16.7162240  11.0954400  88.8300160
  17.4481060  10.8113680  88.2824050  16.9755910  10.8567680  89.7199540
  15.8777030   7.2119130  88.8346490  15.2485910   7.6804230  89.3832320
  15.9924860   6.3668350  89.2692680  27.2067090  10.3903850 104.1031640
  27.9992410   9.8953080 103.8957600  27.5000240  11.0693990 104.7107250
  21.4644790   3.0403810  76.8656960  20.6886890   2.5604250  77.1555530
  22.1157720   2.3609460  76.6913120  15.4810620   3.3523620  77.7432720
  14.6495500   3.0972330  78.1429230  16.0891600   3.4234390  78.4790640
  25.4852220   7.4464000  75.6456090  25.0233750   6.6751240  75.9743260
  26.2977770   7.4730070  76.1508540  15.4611880   7.3863710  77.9390740
  15.7639920   6.4961450  77.7600960  16.2055470   7.9433930  77.7112990
  21.7115530   9.7322010  75.2660080  21.0926970  10.1879510  74.6954520
  22.5667310   9.8873470  74.8649780  20.9053780   5.7161000  76.8727120
  20.8362060   4.7750940  76.7116250  21.6673640   5.8062410  77.4449690
  22.5778880   4.6161250  72.6591990  21.9596150   5.0810700  72.0954710
  23.0902130   5.3088730  73.0761500  17.4410640   4.1437120  79.3375590
  17.1080020   4.7706040  79.9796660  17.6177320   4.6699000  78.5577260
  16.6529740   6.1117920  81.1524770  17.2703740   6.7869000  80.8709220
  15.7922860   6.5205900  81.0612270  11.9462080   5.3017780  70.0331620
  11.5690060   5.7904880  69.3016520  12.2035150   5.9743060  70.6638150
  27.5707330   7.5757330  79.0679410  26.8870850   8.2456440  79.0596080
  28.1101620   7.7737980  78.3024270  25.1066070   9.4201460  77.7824590
  25.1193230   9.0163750  76.9146850  24.5541290  10.1948750  77.6786020
  26.4011490   6.1417680  72.8714760  26.2907820   5.1992010  72.9964180
  26.3979740   6.5033320  73.7577520  24.5051510   4.3231300  79.1107200
  24.9220300   4.1091410  78.2760660  25.2291330   4.5804090  79.6815820
  21.9431770   1.7683000  72.2277250  21.0161050   1.7020380  72.4565720
  22.0956590   2.7063130  72.1132490  28.4513610   2.7218520  79.2023440
  27.6232240   2.7911610  78.7273570  29.0464090   3.3072830  78.7339270
  25.9729060   3.3303300  72.7312500  25.3541480   2.9922850  72.0838800
  25.9553510   2.6863060  73.4391690  18.0170110   5.9815300  77.1736190
  17.7198400   5.3760770  76.4943970  18.9669930   6.0192610  77.0625550
  26.1055720   9.5547170  80.8359290  25.6286280  10.3619360  80.6431900
  25.4217510   8.9025500  80.9885500  17.1088540   5.7196990  83.8243990
  16.2117070   5.9436960  84.0717390  17.1341410   5.8431930  82.8755390
  24.1493760   2.5690110  69.7385250  24.5887040   1.7312540  69.5923070
  24.8622180   3.2019510  69.8249390  15.9359760   2.5910310  82.4001360
  15.7967530   3.4633110  82.7688760  15.0541120   2.2483120  82.2549300
  22.2589140   7.5086180  73.7066490  22.6985050   8.2510510  73.2921880
  22.1976030   7.7512750  74.6305450  17.7340110   8.5332010  84.6086510
  17.7055540   8.9374960  83.7414940  17.5705080   7.6042370  84.4458110
  29.6854930   9.3159110  85.9050680  30.1614650   9.7942000  86.5839760
  30.3062090   9.2476600  85.1796180  11.8878410   4.3607860  78.3172270
  11.9658830   4.4956630  77.3727990  12.5020090   3.6523750  78.5100390
  13.1326040   6.0608050  74.7278450  12.7254120   6.2022640  73.8732050
  14.0239050   5.7768210  74.5249660  29.0888180   6.5071960  83.0650690
  29.2151240   6.2683840  82.1467870  29.1309560   5.6756500  83.5372770
  22.9504920  10.2099960  81.6345500  23.4649590  10.1207970  82.4367930
  22.1074000  10.5559660  81.9273410  24.9259320  10.4955300  71.0629500
  24.7660460  10.2058240  71.9611330  24.7606030   9.7195430  70.5274730
  17.4047700  10.2753830  72.8401120  17.2290180   9.3589370  72.6268920
  16.5503440  10.6341120  73.0798920  24.6285450   8.0042860  69.6227500
  23.9350610   8.0020150  68.9629780  25.3708310   7.5802180  69.1921670
  24.1935380   9.6305570  73.6975990  24.6492330   8.8494950  74.0114610
  24.5327900  10.3412390  74.2417170  11.9437930   5.4022030  80.8566730
  12.1068970   4.9327390  80.0386100  12.4090380   4.8945590  81.5215570
  13.5176910   4.7773460  83.0162540  13.1331700   4.1367130  83.6145500
  13.8289100   5.4809580  83.5857270  15.9855210   4.8719630  71.4122220
  15.2117470   4.3317250  71.2520940  16.7149840   4.3526240  71.0739980
  26.7443190   3.8684990  77.2048610  27.4642310   4.3640280  76.8144720
  26.5425010   3.1902880  76.5602480  22.1261990   3.9394050  83.0917610
  22.0599300   3.0189720  82.8375200  21.4967130   4.0369490  83.8062250
  16.0292610   4.5400010  75.0501030  16.5471280   3.7368270  74.9957920
  15.5776630   4.4779150  75.8917860  20.9162110   5.8066290  70.3228330
  21.2577810   6.5508520  69.8271650  20.0874820   6.1197410  70.6853160
  22.0578720   6.7614620  82.8421410  22.0723260   5.8295580  82.6240320
  21.3503820   6.8474380  83.4811180  28.2689930   3.4021960  82.1889990
  27.5438120   3.9950740  81.9919380  28.7965390   3.3945500  81.3903360
  28.2203040   7.7996700  71.8402150  27.5779200   7.1452320  72.1145870
  27.8333700   8.2051790  71.0642820  23.7989520   5.1282130  75.6873840
  24.1513340   4.5310260  75.0275210  22.9151850   4.8026360  75.8582090
  19.8852800   5.8879820  73.0944250  20.5723930   6.4349030  73.4751840
  19.0985220   6.4320550  73.1293860  19.1880010   2.8925850  72.7069610
  19.6442790   3.7031100  72.9329800  18.8368220   2.5748990  73.5388100
  21.4912620   8.4032190  79.9361910  22.1354840   8.6091570  80.6135330
  21.8542060   7.6420590  79.4832760  22.7644700   6.4064540  78.6539360
  23.4066930   5.7057700  78.7671530  23.2894050   7.1862980  78.4736250
  26.6100420   6.6913160  68.3778500  26.3838000   5.9743600  68.9703140
  26.2196620   6.4425600  67.5400250  24.5382320   7.2059440  81.8575420
  24.8738560   7.7926130  82.5353340  23.6182660   7.0752150  82.0873210
  12.3916450  10.7180020  69.1522960  12.7514090  11.3169360  68.4980230
  12.2508790  11.2639910  69.9257990  26.1916670   4.6085100  70.0392660
  25.9038370   5.0697790  70.8270540  26.9868840   4.1482870  70.3076880
  12.3758310   8.9834880  83.6265360  12.4849430   8.0429620  83.4860750
  11.7238870   9.2489630  82.9779090  20.3670900   7.2550770  85.0263480
  20.0467770   6.5360010  85.5709170  19.6929260   7.9305840  85.0999540
  18.4085070   8.1011220  69.9696630  18.3995170   8.8340910  69.3541140
  17.4883430   7.8542800  70.0623590  14.0091710   3.3226110  70.7143390
  13.4019660   4.0625010  70.7238690  14.4841060   3.4125470  69.8881590
  21.3944670   8.1639460  68.6321820  21.4956650   7.9603450  67.7023800
  20.4946410   7.9097740  68.8369600  20.0362780  10.6825780  73.3269490
  20.2904280  10.6447170  72.4048860  19.0875260  10.5559110  73.3197740
  16.0197000   3.2837260  68.4631960  16.7860270   3.1718620  69.0257390
  16.0971690   2.5875230  67.8108730  28.0440940   8.7726510  76.5782260
  28.1688360   9.5957680  77.0506070  28.9106500   8.5617240  76.2306410
  15.5158470  10.8657720  76.2499390  16.2520950  10.3173180  76.5207960
  15.8999390  11.7313730  76.1105380  12.4003950   6.9331290  72.1240900
  11.4743730   7.1752430  72.1146310  12.8660380   7.7605550  72.0025650
  14.5216750  10.0503790  85.4384970  15.3229480  10.3715840  85.8520370
  14.0068570   9.6899370  86.1604880  18.6260780  10.0388030  68.0724960
  19.4189390  10.3276860  67.6206750  18.1065130   9.6080200  67.3937440
  23.3581380   6.1583660  85.3860380  22.7519540   6.1815260  84.6456130
  23.0535490   5.4266700  85.9227630  24.7881750   9.8863950  83.9969790
  25.7403500   9.8021970  83.9470030  24.6409970  10.5505660  84.6703580
  27.6790950   9.2658160  69.4961700  27.3932460   8.8523300  68.6815880
  27.4810500  10.1945870  69.3762220  12.2414560   2.5377250  84.3821020
  12.7453580   1.9584530  84.9537250  11.5021980   2.8217480  84.9197390
  19.1438180   5.2591440  67.9367310  19.0388820   4.6443790  68.6628690
  18.9762400   4.7357330  67.1530320  19.2952500   3.9448240  83.9156540
  18.5298170   4.5133240  83.8311210  19.4768460   3.6524450  83.0224770
  22.3840910   4.3211470  68.5409300  21.8351010   4.7680770  69.1852040
  23.0060170   3.8160720  69.0646970  26.4375850   5.6753570  84.4731560
  27.1785320   6.0129330  83.9699020  25.6748530   5.8445630  83.9201330
  18.0516030   3.2802390  70.4374600  18.4732450   3.1142260  71.2805990
  18.1766870   2.4702620  69.9429740  25.1121510   3.7268400  83.0086770
  25.5262530   3.8813480  83.8577190  24.1772510   3.8523620  83.1712550
  19.8736740   3.6788880  80.9782700  20.2924850   4.5221610  80.8058940
  18.9545370   3.8160920  80.7489480  24.5488540   1.9642250  80.9383050
  24.0223760   2.4884870  80.3348190  24.8919880   2.5969640  81.5692780
  17.7244160   9.9841890  82.0940430  17.1865250  10.7087950  81.7749130
  17.9778120   9.5072230  81.3037770  20.5806370  11.2193100  82.3527080
  20.5065070  12.1228240  82.6599450  19.6785210  10.9005000  82.3249150
  21.1291700  10.3851610  69.9753440  22.0242490  10.7236580  69.9972200
  21.1609330   9.6631020  69.3477720  14.7687860   5.7578660  68.2040440
  15.2062730   6.3008330  68.8598020  15.2535590   4.9325610  68.2136780
  11.9833660   8.5467690  75.6560700  12.3136670   7.6788750  75.4239340
  12.4124660   8.7526210  76.4865660  16.5795580   6.8776700  73.3162670
  16.2791120   6.7541670  74.2166580  16.4733070   6.0185290  72.9078400
  12.4723870   9.4138280  78.3942330  12.0354860   9.5939080  79.2266480
  13.0401550  10.1712900  78.2524050  28.1086050   8.9155280  82.6819640
  27.5088040   8.9747840  81.9383560  28.2379950   7.9760260  82.8116490
  29.3487500   6.6573100  68.0189350  28.5180460   6.7249750  68.4896580
  29.5259330   7.5477220  67.7156210  28.8043960   3.4020580  70.5223550
  29.5662870   3.9717230  70.6283240  28.8198330   2.8347780  71.2931860
  12.3048300   1.9258510  74.7531210  11.6497140   1.6570150  74.1090910
  13.1426250   1.8162990  74.3033190  29.8103930   4.2570680  75.3665480
  30.1812760   3.4738000  74.9601450  30.4505860   4.9459780  75.1882780
  26.7937690   5.6407260  80.7795800  25.9797530   6.0704420  81.0421590
  27.2011890   6.2525670  80.1664850  28.8563130   3.6954950  67.6796070
  29.1311970   4.6033830  67.5515290  28.6673870   3.6317480  68.6158060
  26.8513740  10.3925860  74.3064070  27.4472810  10.0710430  73.6298490
  27.1091890   9.9197680  75.0977340  14.7576310   6.8243770  84.4554700
  14.7145940   6.4536680  85.3369160  14.8887320   7.7621340  84.5956520
  18.4582340   8.3803360  80.0564420  18.2173700   8.6477920  79.1694940
  19.3984980   8.5509090  80.1115280  29.7186500  10.3997740  80.8575060
  29.2244780  10.7966610  80.1402190  29.1099790   9.7746950  81.2512340
  14.5964340   9.7706020  81.5752480  14.0024660   9.6390720  82.3142520
  14.5888180   8.9344160  81.1094580  27.4025950  11.0421160  78.1361800
  26.9428920  11.7936970  77.7619820  26.7738410  10.3227630  78.0776600
  14.2276570   7.1364400  80.5260520  13.5010630   6.5169690  80.4586470
  14.2885720   7.5305010  79.6558600  17.8321670   9.3509400  77.3109930
  18.3486690   8.7396760  76.7858190  18.4819050   9.8538180  77.8020940
  20.5717170  10.2417890  78.1378910  20.8594980   9.9872190  77.2611920
  21.0840390   9.6895250  78.7284480  12.5106570  10.4538790  73.7357280
  12.3428610   9.8209470  74.4339170  11.6441080  10.6598190  73.3851470
  14.1169270   9.1472020  71.1807420  13.5916890   9.5280050  70.4769380
  14.0413850   9.7722790  71.9017130  20.6389530  11.1633990  85.5047110
  21.5656840  10.9278260  85.5483070  20.6239960  11.9905990  85.0233140
  28.8734590  10.7059560  72.5021360  29.0486780  10.0197300  71.8582280
  28.1756160  11.2306610  72.1098030  16.7162240  11.0954400  70.0556670
  17.4481060  10.8113680  69.5080560  16.9755910  10.8567680  70.9456050
  15.8777030   7.2119130  70.0603000  15.2485910   7.6804230  70.6088830
  15.9924860   6.3668350  70.4949190  27.2067090  10.3903850  85.3288150
  27.9992410   9.8953080  85.1214110  27.5000240  11.0693990  85.9363760
  21.4644790   3.0403810  58.0913470  20.6886890   2.5604250  58.3812040
  22.1157720   2.3609460  57.9169630  15.4810620   3.3523620  58.9689230
  14.6495500   3.0972330  59.3685740  16.0891600   3.4234390  59.7047150
  25.4852220   7.4464000  56.8712600  25.0233750   6.6751240  57.1999770
  26.2977770   7.4730070  57.3765050  15.4611880   7.3863710  59.1647250
  15.7639920   6.4961450  58.9857470  16.2055470   7.9433930  58.9369500
  21.7115530   9.7322010  56.4916590  21.0926970  10.1879510  55.9211030
  22.5667310   9.8873470  56.0906290  20.9053780   5.7161000  58.0983630
  20.8362060   4.7750940  57.9372760  21.6673640   5.8062410  58.6706200
  22.5778880   4.6161250  53.8848500  21.9596150   5.0810700  53.3211220
  23.0902130   5.3088730  54.3018010  17.4410640   4.1437120  60.5632100
  17.1080020   4.7706040  61.2053170  17.6177320   4.6699000  59.7833770
  16.6529740   6.1117920  62.3781280  17.2703740   6.7869000  62.0965730
  15.7922860   6.5205900  62.2868780  11.9462080   5.3017780  51.2588130
  11.5690060   5.7904880  50.5273030  12.2035150   5.9743060  51.8894660
  27.5707330   7.5757330  60.2935920  26.8870850   8.2456440  60.2852590
  28.1101620   7.7737980  59.5280780  25.1066070   9.4201460  59.0081100
  25.1193230   9.0163750  58.1403360  24.5541290  10.1948750  58.9042530
  26.4011490   6.1417680  54.0971270  26.2907820   5.1992010  54.2220690
  26.3979740   6.5033320  54.9834030  24.5051510   4.3231300  60.3363710
  24.9220300   4.1091410  59.5017170  25.2291330   4.5804090  60.9072330
  21.9431770   1.7683000  53.4533760  21.0161050   1.7020380  53.6822230
  22.0956590   2.7063130  53.3389000  28.4513610   2.7218520  60.4279950
  27.6232240   2.7911610  59.9530080  29.0464090   3.3072830  59.9595780
  25.9729060   3.3303300  53.9569010  25.3541480   2.9922850  53.3095310
  25.9553510   2.6863060  54.6648200  18.0170110   5.9815300  58.3992700
  17.7198400   5.3760770  57.7200480  18.9669930   6.0192610  58.2882060
  26.1055720   9.5547170  62.0615800  25.6286280  10.3619360  61.8688410
  25.4217510   8.9025500  62.2142010  17.1088540   5.7196990  65.0500500
  16.2117070   5.9436960  65.2973900  17.1341410   5.8431930  64.1011900
  24.1493760   2.5690110  50.9641760  24.5887040   1.7312540  50.8179580
  24.8622180   3.2019510  51.0505900  15.9359760   2.5910310  63.6257870
  15.7967530   3.4633110  63.9945270  15.0541120   2.2483120  63.4805810
  22.2589140   7.5086180  54.9323000  22.6985050   8.2510510  54.5178390
  22.1976030   7.7512750  55.8561960  17.7340110   8.5332010  65.8343020
  17.7055540   8.9374960  64.9671450  17.5705080   7.6042370  65.6714620
  29.6854930   9.3159110  67.1307190  30.1614650   9.7942000  67.8096270
  30.3062090   9.2476600  66.4052690  11.8878410   4.3607860  59.5428780
  11.9658830   4.4956630  58.5984500  12.5020090   3.6523750  59.7356900
  13.1326040   6.0608050  55.9534960  12.7254120   6.2022640  55.0988560
  14.0239050   5.7768210  55.7506170  29.0888180   6.5071960  64.2907200
  29.2151240   6.2683840  63.3724380  29.1309560   5.6756500  64.7629280
  22.9504920  10.2099960  62.8602010  23.4649590  10.1207970  63.6624440
  22.1074000  10.5559660  63.1529920  24.9259320  10.4955300  52.2886010
  24.7660460  10.2058240  53.1867840  24.7606030   9.7195430  51.7531240
  17.4047700  10.2753830  54.0657630  17.2290180   9.3589370  53.8525430
  16.5503440  10.6341120  54.3055430  24.6285450   8.0042860  50.8484010
  23.9350610   8.0020150  50.1886290  25.3708310   7.5802180  50.4178180
  24.1935380   9.6305570  54.9232500  24.6492330   8.8494950  55.2371120
  24.5327900  10.3412390  55.4673680  11.9437930   5.4022030  62.0823240
  12.1068970   4.9327390  61.2642610  12.4090380   4.8945590  62.7472080
  13.5176910   4.7773460  64.2419050  13.1331700   4.1367130  64.8402010
  13.8289100   5.4809580  64.8113780  15.9855210   4.8719630  52.6378730
  15.2117470   4.3317250  52.4777450  16.7149840   4.3526240  52.2996490
  26.7443190   3.8684990  58.4305120  27.4642310   4.3640280  58.0401230
  26.5425010   3.1902880  57.7858990  22.1261990   3.9394050  64.3174120
  22.0599300   3.0189720  64.0631710  21.4967130   4.0369490  65.0318760
  16.0292610   4.5400010  56.2757540  16.5471280   3.7368270  56.2214430
  15.5776630   4.4779150  57.1174370  20.9162110   5.8066290  51.5484840
  21.2577810   6.5508520  51.0528160  20.0874820   6.1197410  51.9109670
  22.0578720   6.7614620  64.0677920  22.0723260   5.8295580  63.8496830
  21.3503820   6.8474380  64.7067690  28.2689930   3.4021960  63.4146500
  27.5438120   3.9950740  63.2175890  28.7965390   3.3945500  62.6159870
  28.2203040   7.7996700  53.0658660  27.5779200   7.1452320  53.3402380
  27.8333700   8.2051790  52.2899330  23.7989520   5.1282130  56.9130350
  24.1513340   4.5310260  56.2531720  22.9151850   4.8026360  57.0838600
  19.8852800   5.8879820  54.3200760  20.5723930   6.4349030  54.7008350
  19.0985220   6.4320550  54.3550370  19.1880010   2.8925850  53.9326120
  19.6442790   3.7031100  54.1586310  18.8368220   2.5748990  54.7644610
  21.4912620   8.4032190  61.1618420  22.1354840   8.6091570  61.8391840
  21.8542060   7.6420590  60.7089270  22.7644700   6.4064540  59.8795870
  23.4066930   5.7057700  59.9928040  23.2894050   7.1862980  59.6992760
  26.6100420   6.6913160  49.6035010  26.3838000   5.9743600  50.1959650
  26.2196620   6.4425600  48.7656760  24.5382320   7.2059440  63.0831930
  24.8738560   7.7926130  63.7609850  23.6182660   7.0752150  63.3129720
  12.3916450  10.7180020  50.3779470  12.7514090  11.3169360  49.7236740
  12.2508790  11.2639910  51.1514500  26.1916670   4.6085100  51.2649170
  25.9038370   5.0697790  52.0527050  26.9868840   4.1482870  51.5333390
  12.3758310   8.9834880  64.8521870  12.4849430   8.0429620  64.7117260
  11.7238870   9.2489630  64.2035600  20.3670900   7.2550770  66.2519990
  20.0467770   6.5360010  66.7965680  19.6929260   7.9305840  66.3256050
  18.4085070   8.1011220  51.1953140  18.3995170   8.8340910  50.5797650
  17.4883430   7.8542800  51.2880100  14.0091710   3.3226110  51.9399900
  13.4019660   4.0625010  51.9495200  14.4841060   3.4125470  51.1138100
  21.3944670   8.1639460  49.8578330  21.4956650   7.9603450  48.9280310
  20.4946410   7.9097740  50.0626110  20.0362780  10.6825780  54.5526000
  20.2904280  10.6447170  53.6305370  19.0875260  10.5559110  54.5454250
  16.0197000   3.2837260  49.6888470  16.7860270   3.1718620  50.2513900
  16.0971690   2.5875230  49.0365240  28.0440940   8.7726510  57.8038770
  28.1688360   9.5957680  58.2762580  28.9106500   8.5617240  57.4562920
  15.5158470  10.8657720  57.4755900  16.2520950  10.3173180  57.7464470
  15.8999390  11.7313730  57.3361890  12.4003950   6.9331290  53.3497410
  11.4743730   7.1752430  53.3402820  12.8660380   7.7605550  53.2282160
  14.5216750  10.0503790  66.6641480  15.3229480  10.3715840  67.0776880
  14.0068570   9.6899370  67.3861390  18.6260780  10.0388030  49.2981470
  19.4189390  10.3276860  48.8463260  18.1065130   9.6080200  48.6193950
  23.3581380   6.1583660  66.6116890  22.7519540   6.1815260  65.8712640
  23.0535490   5.4266700  67.1484140  24.7881750   9.8863950  65.2226300
  25.7403500   9.8021970  65.1726540  24.6409970  10.5505660  65.8960090
  27.6790950   9.2658160  50.7218210  27.3932460   8.8523300  49.9072390
  27.4810500  10.1945870  50.6018730  12.2414560   2.5377250  65.6077530
  12.7453580   1.9584530  66.1793760  11.5021980   2.8217480  66.1453900
  19.1438180   5.2591440  49.1623820  19.0388820   4.6443790  49.8885200
  18.9762400   4.7357330  48.3786830  19.2952500   3.9448240  65.1413050
  18.5298170   4.5133240  65.0567720  19.4768460   3.6524450  64.2481280
  22.3840910   4.3211470  49.7665810  21.8351010   4.7680770  50.4108550
  23.0060170   3.8160720  50.2903480  26.4375850   5.6753570  65.6988070
  27.1785320   6.0129330  65.1955530  25.6748530   5.8445630  65.1457840
  18.0516030   3.2802390  51.6631110  18.4732450   3.1142260  52.5062500
  18.1766870   2.4702620  51.1686250  25.1121510   3.7268400  64.2343280
  25.5262530   3.8813480  65.0833700  24.1772510   3.8523620  64.3969060
  19.8736740   3.6788880  62.2039210  20.2924850   4.5221610  62.0315450
  18.9545370   3.8160920  61.9745990  24.5488540   1.9642250  62.1639560
  24.0223760   2.4884870  61.5604700  24.8919880   2.5969640  62.7949290
  17.7244160   9.9841890  63.3196940  17.1865250  10.7087950  63.0005640
  17.9778120   9.5072230  62.5294280  20.5806370  11.2193100  63.5783590
  20.5065070  12.1228240  63.8855960  19.6785210  10.9005000  63.5505660
  21.1291700  10.3851610  51.2009950  22.0242490  10.7236580  51.2228710
  21.1609330   9.6631020  50.5734230  14.7687860   5.7578660  49.4296950
  15.2062730   6.3008330  50.0854530  15.2535590   4.9325610  49.4393290
  11.9833660   8.5467690  56.8817210  12.3136670   7.6788750  56.6495850
  12.4124660   8.7526210  57.7122170  16.5795580   6.8776700  54.5419180
  16.2791120   6.7541670  55.4423090  16.4733070   6.0185290  54.1334910
  12.4723870   9.4138280  59.6198840  12.0354860   9.5939080  60.4522990
  13.0401550  10.1712900  59.4780560  28.1086050   8.9155280  63.9076150
  27.5088040   8.9747840  63.1640070  28.2379950   7.9760260  64.0373000
  29.3487500   6.6573100  49.2445860  28.5180460   6.7249750  49.7153090
  29.5259330   7.5477220  48.9412720  28.8043960   3.4020580  51.7480060
  29.5662870   3.9717230  51.8539750  28.8198330   2.8347780  52.5188370
  12.3048300   1.9258510  55.9787720  11.6497140   1.6570150  55.3347420
  13.1426250   1.8162990  55.5289700  29.8103930   4.2570680  56.5921990
  30.1812760   3.4738000  56.1857960  30.4505860   4.9459780  56.4139290
  26.7937690   5.6407260  62.0052310  25.9797530   6.0704420  62.2678100
  27.2011890   6.2525670  61.3921360  28.8563130   3.6954950  48.9052580
  29.1311970   4.6033830  48.7771800  28.6673870   3.6317480  49.8414570
  26.8513740  10.3925860  55.5320580  27.4472810  10.0710430  54.8555000
  27.1091890   9.9197680  56.3233850  14.7576310   6.8243770  65.6811210
  14.7145940   6.4536680  66.5625670  14.8887320   7.7621340  65.8213030
  18.4582340   8.3803360  61.2820930  18.2173700   8.6477920  60.3951450
  19.3984980   8.5509090  61.3371790  29.7186500  10.3997740  62.0831570
  29.2244780  10.7966610  61.3658700  29.1099790   9.7746950  62.4768850
  14.5964340   9.7706020  62.8008990  14.0024660   9.6390720  63.5399030
  14.5888180   8.9344160  62.3351090  27.4025950  11.0421160  59.3618310
  26.9428920  11.7936970  58.9876330  26.7738410  10.3227630  59.3033110
  14.2276570   7.1364400  61.7517030  13.5010630   6.5169690  61.6842980
  14.2885720   7.5305010  60.8815110  17.8321670   9.3509400  58.5366440
  18.3486690   8.7396760  58.0114700  18.4819050   9.8538180  59.0277450
  20.5717170  10.2417890  59.3635420  20.8594980   9.9872190  58.4868430
  21.0840390   9.6895250  59.9540990  12.5106570  10.4538790  54.9613790
  12.3428610   9.8209470  55.6595680  11.6441080  10.6598190  54.6107980
  14.1169270   9.1472020  52.4063930  13.5916890   9.5280050  51.7025890
  14.0413850   9.7722790  53.1273640  20.6389530  11.1633990  66.7303620
  21.5656840  10.9278260  66.7739580  20.6239960  11.9905990  66.2489650
  28.8734590  10.7059560  53.7277870  29.0486780  10.0197300  53.0838790
  28.1756160  11.2306610  53.3354540  16.7162240  11.0954400  51.2813180
  17.4481060  10.8113680  50.7337070  16.9755910  10.8567680  52.1712560
  15.8777030   7.2119130  51.2859510  15.2485910   7.6804230  51.8345340
  15.9924860   6.3668350  51.7205700  27.2067090  10.3903850  66.5544660
  27.9992410   9.8953080  66.3470620  27.5000240  11.0693990  67.1620270
  21.4644790   3.0403810  39.3169980  20.6886890   2.5604250  39.6068550
  22.1157720   2.3609460  39.1426140  15.4810620   3.3523620  40.1945740
  14.6495500   3.0972330  40.5942250  16.0891600   3.4234390  40.9303660
  25.4852220   7.4464000  38.0969110  25.0233750   6.6751240  38.4256280
  26.2977770   7.4730070  38.6021560  15.4611880   7.3863710  40.3903760
  15.7639920   6.4961450  40.2113980  16.2055470   7.9433930  40.1626010
  21.7115530   9.7322010  37.7173100  21.0926970  10.1879510  37.1467540
  22.5667310   9.8873470  37.3162800  20.9053780   5.7161000  39.3240140
  20.8362060   4.7750940  39.1629270  21.6673640   5.8062410  39.8962710
  22.5778880   4.6161250  35.1105010  21.9596150   5.0810700  34.5467730
  23.0902130   5.3088730  35.5274520  17.4410640   4.1437120  41.7888610
  17.1080020   4.7706040  42.4309680  17.6177320   4.6699000  41.0090280
  16.6529740   6.1117920  43.6037790  17.2703740   6.7869000  43.3222240
  15.7922860   6.5205900  43.5125290  11.9462080   5.3017780  32.4844640
  11.5690060   5.7904880  31.7529540  12.2035150   5.9743060  33.1151170
  27.5707330   7.5757330  41.5192430  26.8870850   8.2456440  41.5109100
  28.1101620   7.7737980  40.7537290  25.1066070   9.4201460  40.2337610
  25.1193230   9.0163750  39.3659870  24.5541290  10.1948750  40.1299040
  26.4011490   6.1417680  35.3227780  26.2907820   5.1992010  35.4477200
  26.3979740   6.5033320  36.2090540  24.5051510   4.3231300  41.5620220
  24.9220300   4.1091410  40.7273680  25.2291330   4.5804090  42.1328840
  21.9431770   1.7683000  34.6790270  21.0161050   1.7020380  34.9078740
  22.0956590   2.7063130  34.5645510  28.4513610   2.7218520  41.6536460
  27.6232240   2.7911610  41.1786590  29.0464090   3.3072830  41.1852290
  25.9729060   3.3303300  35.1825520  25.3541480   2.9922850  34.5351820
  25.9553510   2.6863060  35.8904710  18.0170110   5.9815300  39.6249210
  17.7198400   5.3760770  38.9456990  18.9669930   6.0192610  39.5138570
  26.1055720   9.5547170  43.2872310  25.6286280  10.3619360  43.0944920
  25.4217510   8.9025500  43.4398520  17.1088540   5.7196990  46.2757010
  16.2117070   5.9436960  46.5230410  17.1341410   5.8431930  45.3268410
  24.1493760   2.5690110  32.1898270  24.5887040   1.7312540  32.0436090
  24.8622180   3.2019510  32.2762410  15.9359760   2.5910310  44.8514380
  15.7967530   3.4633110  45.2201780  15.0541120   2.2483120  44.7062320
  22.2589140   7.5086180  36.1579510  22.6985050   8.2510510  35.7434900
  22.1976030   7.7512750  37.0818470  17.7340110   8.5332010  47.0599530
  17.7055540   8.9374960  46.1927960  17.5705080   7.6042370  46.8971130
  29.6854930   9.3159110  48.3563700  30.1614650   9.7942000  49.0352780
  30.3062090   9.2476600  47.6309200  11.8878410   4.3607860  40.7685290
  11.9658830   4.4956630  39.8241010  12.5020090   3.6523750  40.9613410
  13.1326040   6.0608050  37.1791470  12.7254120   6.2022640  36.3245070
  14.0239050   5.7768210  36.9762680  29.0888180   6.5071960  45.5163710
  29.2151240   6.2683840  44.5980890  29.1309560   5.6756500  45.9885790
  22.9504920  10.2099960  44.0858520  23.4649590  10.1207970  44.8880950
  22.1074000  10.5559660  44.3786430  24.9259320  10.4955300  33.5142520
  24.7660460  10.2058240  34.4124350  24.7606030   9.7195430  32.9787750
  17.4047700  10.2753830  35.2914140  17.2290180   9.3589370  35.0781940
  16.5503440  10.6341120  35.5311940  24.6285450   8.0042860  32.0740520
  23.9350610   8.0020150  31.4142800  25.3708310   7.5802180  31.6434690
  24.1935380   9.6305570  36.1489010  24.6492330   8.8494950  36.4627630
  24.5327900  10.3412390  36.6930190  11.9437930   5.4022030  43.3079750
  12.1068970   4.9327390  42.4899120  12.4090380   4.8945590  43.9728590
  13.5176910   4.7773460  45.4675560  13.1331700   4.1367130  46.0658520
  13.8289100   5.4809580  46.0370290  15.9855210   4.8719630  33.8635240
  15.2117470   4.3317250  33.7033960  16.7149840   4.3526240  33.5253000
  26.7443190   3.8684990  39.6561630  27.4642310   4.3640280  39.2657740
  26.5425010   3.1902880  39.0115500  22.1261990   3.9394050  45.5430630
  22.0599300   3.0189720  45.2888220  21.4967130   4.0369490  46.2575270
  16.0292610   4.5400010  37.5014050  16.5471280   3.7368270  37.4470940
  15.5776630   4.4779150  38.3430880  20.9162110   5.8066290  32.7741350
  21.2577810   6.5508520  32.2784670  20.0874820   6.1197410  33.1366180
  22.0578720   6.7614620  45.2934430  22.0723260   5.8295580  45.0753340
  21.3503820   6.8474380  45.9324200  28.2689930   3.4021960  44.6403010
  27.5438120   3.9950740  44.4432400  28.7965390   3.3945500  43.8416380
  28.2203040   7.7996700  34.2915170  27.5779200   7.1452320  34.5658890
  27.8333700   8.2051790  33.5155840  23.7989520   5.1282130  38.1386860
  24.1513340   4.5310260  37.4788230  22.9151850   4.8026360  38.3095110
  19.8852800   5.8879820  35.5457270  20.5723930   6.4349030  35.9264860
  19.0985220   6.4320550  35.5806880  19.1880010   2.8925850  35.1582630
  19.6442790   3.7031100  35.3842820  18.8368220   2.5748990  35.9901120
  21.4912620   8.4032190  42.3874930  22.1354840   8.6091570  43.0648350
  21.8542060   7.6420590  41.9345780  22.7644700   6.4064540  41.1052380
  23.4066930   5.7057700  41.2184550  23.2894050   7.1862980  40.9249270
  26.6100420   6.6913160  30.8291520  26.3838000   5.9743600  31.4216160
  26.2196620   6.4425600  29.9913270  24.5382320   7.2059440  44.3088440
  24.8738560   7.7926130  44.9866360  23.6182660   7.0752150  44.5386230
  12.3916450  10.7180020  31.6035980  12.7514090  11.3169360  30.9493250
  12.2508790  11.2639910  32.3771010  26.1916670   4.6085100  32.4905680
  25.9038370   5.0697790  33.2783560  26.9868840   4.1482870  32.7589900
  12.3758310   8.9834880  46.0778380  12.4849430   8.0429620  45.9373770
  11.7238870   9.2489630  45.4292110  20.3670900   7.2550770  47.4776500
  20.0467770   6.5360010  48.0222190  19.6929260   7.9305840  47.5512560
  18.4085070   8.1011220  32.4209650  18.3995170   8.8340910  31.8054160
  17.4883430   7.8542800  32.5136610  14.0091710   3.3226110  33.1656410
  13.4019660   4.0625010  33.1751710  14.4841060   3.4125470  32.3394610
  21.3944670   8.1639460  31.0834840  21.4956650   7.9603450  30.1536820
  20.4946410   7.9097740  31.2882620  20.0362780  10.6825780  35.7782510
  20.2904280  10.6447170  34.8561880  19.0875260  10.5559110  35.7710760
  16.0197000   3.2837260  30.9144980  16.7860270   3.1718620  31.4770410
  16.0971690   2.5875230  30.2621750  28.0440940   8.7726510  39.0295280
  28.1688360   9.5957680  39.5019090  28.9106500   8.5617240  38.6819430
  15.5158470  10.8657720  38.7012410  16.2520950  10.3173180  38.9720980
  15.8999390  11.7313730  38.5618400  12.4003950   6.9331290  34.5753920
  11.4743730   7.1752430  34.5659330  12.8660380   7.7605550  34.4538670
  14.5216750  10.0503790  47.8897990  15.3229480  10.3715840  48.3033390
  14.0068570   9.6899370  48.6117900  18.6260780  10.0388030  30.5237980
  19.4189390  10.3276860  30.0719770  18.1065130   9.6080200  29.8450460
  23.3581380   6.1583660  47.8373400  22.7519540   6.1815260  47.0969150
  23.0535490   5.4266700  48.3740650  24.7881750   9.8863950  46.4482810
  25.7403500   9.8021970  46.3983050  24.6409970  10.5505660  47.1216600
  27.6790950   9.2658160  31.9474720  27.3932460   8.8523300  31.1328900
  27.4810500  10.1945870  31.8275240  12.2414560   2.5377250  46.8334040
  12.7453580   1.9584530  47.4050270  11.5021980   2.8217480  47.3710410
  19.1438180   5.2591440  30.3880330  19.0388820   4.6443790  31.1141710
  18.9762400   4.7357330  29.6043340  19.2952500   3.9448240  46.3669560
  18.5298170   4.5133240  46.2824230  19.4768460   3.6524450  45.4737790
  22.3840910   4.3211470  30.9922320  21.8351010   4.7680770  31.6365060
  23.0060170   3.8160720  31.5159990  26.4375850   5.6753570  46.9244580
  27.1785320   6.0129330  46.4212040  25.6748530   5.8445630  46.3714350
  18.0516030   3.2802390  32.8887620  18.4732450   3.1142260  33.7319010
  18.1766870   2.4702620  32.3942760  25.1121510   3.7268400  45.4599790
  25.5262530   3.8813480  46.3090210  24.1772510   3.8523620  45.6225570
  19.8736740   3.6788880  43.4295720  20.2924850   4.5221610  43.2571960
  18.9545370   3.8160920  43.2002500  24.5488540   1.9642250  43.3896070
  24.0223760   2.4884870  42.7861210  24.8919880   2.5969640  44.0205800
  17.7244160   9.9841890  44.5453450  17.1865250  10.7087950  44.2262150
  17.9778120   9.5072230  43.7550790  20.5806370  11.2193100  44.8040100
  20.5065070  12.1228240  45.1112470  19.6785210  10.9005000  44.7762170
  21.1291700  10.3851610  32.4266460  22.0242490  10.7236580  32.4485220
  21.1609330   9.6631020  31.7990740  14.7687860   5.7578660  30.6553460
  15.2062730   6.3008330  31.3111040  15.2535590   4.9325610  30.6649800
  11.9833660   8.5467690  38.1073720  12.3136670   7.6788750  37.8752360
  12.4124660   8.7526210  38.9378680  16.5795580   6.8776700  35.7675690
  16.2791120   6.7541670  36.6679600  16.4733070   6.0185290  35.3591420
  12.4723870   9.4138280  40.8455350  12.0354860   9.5939080  41.6779500
  13.0401550  10.1712900  40.7037070  28.1086050   8.9155280  45.1332660
  27.5088040   8.9747840  44.3896580  28.2379950   7.9760260  45.2629510
  29.3487500   6.6573100  30.4702370  28.5180460   6.7249750  30.9409600
  29.5259330   7.5477220  30.1669230  28.8043960   3.4020580  32.9736570
  29.5662870   3.9717230  33.0796260  28.8198330   2.8347780  33.7444880
  12.3048300   1.9258510  37.2044230  11.6497140   1.6570150  36.5603930
  13.1426250   1.8162990  36.7546210  29.8103930   4.2570680  37.8178500
  30.1812760   3.4738000  37.4114470  30.4505860   4.9459780  37.6395800
  26.7937690   5.6407260  43.2308820  25.9797530   6.0704420  43.4934610
  27.2011890   6.2525670  42.6177870  28.8563130   3.6954950  30.1309090
  29.1311970   4.6033830  30.0028310  28.6673870   3.6317480  31.0671080
  26.8513740  10.3925860  36.7577090  27.4472810  10.0710430  36.0811510
  27.1091890   9.9197680  37.5490360  14.7576310   6.8243770  46.9067720
  14.7145940   6.4536680  47.7882180  14.8887320   7.7621340  47.0469540
  18.4582340   8.3803360  42.5077440  18.2173700   8.6477920  41.6207960
  19.3984980   8.5509090  42.5628300  29.7186500  10.3997740  43.3088080
  29.2244780  10.7966610  42.5915210  29.1099790   9.7746950  43.7025360
  14.5964340   9.7706020  44.0265500  14.0024660   9.6390720  44.7655540
  14.5888180   8.9344160  43.5607600  27.4025950  11.0421160  40.5874820
  26.9428920  11.7936970  40.2132840  26.7738410  10.3227630  40.5289620
  14.2276570   7.1364400  42.9773540  13.5010630   6.5169690  42.9099490
  14.2885720   7.5305010  42.1071620  17.8321670   9.3509400  39.7622950
  18.3486690   8.7396760  39.2371210  18.4819050   9.8538180  40.2533960
  20.5717170  10.2417890  40.5891930  20.8594980   9.9872190  39.7124940
  21.0840390   9.6895250  41.1797500  12.5106570  10.4538790  36.1870300
  12.3428610   9.8209470  36.8852190  11.6441080  10.6598190  35.8364490
  14.1169270   9.1472020  33.6320440  13.5916890   9.5280050  32.9282400
  14.0413850   9.7722790  34.3530150  20.6389530  11.1633990  47.9560130
  21.5656840  10.9278260  47.9996090  20.6239960  11.9905990  47.4746160
  28.8734590  10.7059560  34.9534380  29.0486780  10.0197300  34.3095300
  28.1756160  11.2306610  34.5611050  16.7162240  11.0954400  32.5069690
  17.4481060  10.8113680  31.9593580  16.9755910  10.8567680  33.3969070
  15.8777030   7.2119130  32.5116020  15.2485910   7.6804230  33.0601850
  15.9924860   6.3668350  32.9462210  27.2067090  10.3903850  47.7801170
  27.9992410   9.8953080  47.5727130  27.5000240  11.0693990  48.3876780
  21.4644790   3.0403810  20.5426490  20.6886890   2.5604250  20.8325060
  22.1157720   2.3609460  20.3682650  15.4810620   3.3523620  21.4202250
  14.6495500   3.0972330  21.8198760  16.0891600   3.4234390  22.1560170
  25.4852220   7.4464000  19.3225620  25.0233750   6.6751240  19.6512790
  26.2977770   7.4730070  19.8278070  15.4611880   7.3863710  21.6160270
  15.7639920   6.4961450  21.4370490  16.2055470   7.9433930  21.3882520
  21.7115530   9.7322010  18.9429610  21.0926970  10.1879510  18.3724050
  22.5667310   9.8873470  18.5419310  20.9053780   5.7161000  20.5496650
  20.8362060   4.7750940  20.3885780  21.6673640   5.8062410  21.1219220
  22.5778880   4.6161250  16.3361520  21.9596150   5.0810700  15.7724240
  23.0902130   5.3088730  16.7531030  17.4410640   4.1437120  23.0145120
  17.1080020   4.7706040  23.6566190  17.6177320   4.6699000  22.2346790
  16.6529740   6.1117920  24.8294300  17.2703740   6.7869000  24.5478750
  15.7922860   6.5205900  24.7381800  11.9462080   5.3017780  13.7101150
  11.5690060   5.7904880  12.9786050  12.2035150   5.9743060  14.3407680
  27.5707330   7.5757330  22.7448940  26.8870850   8.2456440  22.7365610
  28.1101620   7.7737980  21.9793800  25.1066070   9.4201460  21.4594120
  25.1193230   9.0163750  20.5916380  24.5541290  10.1948750  21.3555550
  26.4011490   6.1417680  16.5484290  26.2907820   5.1992010  16.6733710
  26.3979740   6.5033320  17.4347050  24.5051510   4.3231300  22.7876730
  24.9220300   4.1091410  21.9530190  25.2291330   4.5804090  23.3585350
  21.9431770   1.7683000  15.9046780  21.0161050   1.7020380  16.1335250
  22.0956590   2.7063130  15.7902020  28.4513610   2.7218520  22.8792970
  27.6232240   2.7911610  22.4043100  29.0464090   3.3072830  22.4108800
  25.9729060   3.3303300  16.4082030  25.3541480   2.9922850  15.7608330
  25.9553510   2.6863060  17.1161220  18.0170110   5.9815300  20.8505720
  17.7198400   5.3760770  20.1713500  18.9669930   6.0192610  20.7395080
  26.1055720   9.5547170  24.5128820  25.6286280  10.3619360  24.3201430
  25.4217510   8.9025500  24.6655030  17.1088540   5.7196990  27.5013520
  16.2117070   5.9436960  27.7486920  17.1341410   5.8431930  26.5524920
  24.1493760   2.5690110  13.4154780  24.5887040   1.7312540  13.2692600
  24.8622180   3.2019510  13.5018920  15.9359760   2.5910310  26.0770890
  15.7967530   3.4633110  26.4458290  15.0541120   2.2483120  25.9318830
  22.2589140   7.5086180  17.3836020  22.6985050   8.2510510  16.9691410
  22.1976030   7.7512750  18.3074980  17.7340110   8.5332010  28.2856040
  17.7055540   8.9374960  27.4184470  17.5705080   7.6042370  28.1227640
  29.6854930   9.3159110  29.5820210  30.1614650   9.7942000  30.2609290
  30.3062090   9.2476600  28.8565710  11.8878410   4.3607860  21.9941800
  11.9658830   4.4956630  21.0497520  12.5020090   3.6523750  22.1869920
  13.1326040   6.0608050  18.4047980  12.7254120   6.2022640  17.5501580
  14.0239050   5.7768210  18.2019190  29.0888180   6.5071960  26.7420220
  29.2151240   6.2683840  25.8237400  29.1309560   5.6756500  27.2142300
  22.9504920  10.2099960  25.3115030  23.4649590  10.1207970  26.1137460
  22.1074000  10.5559660  25.6042940  24.9259320  10.4955300  14.7399030
  24.7660460  10.2058240  15.6380860  24.7606030   9.7195430  14.2044260
  17.4047700  10.2753830  16.5170650  17.2290180   9.3589370  16.3038450
  16.5503440  10.6341120  16.7568450  24.6285450   8.0042860  13.2997030
  23.9350610   8.0020150  12.6399310  25.3708310   7.5802180  12.8691200
  24.1935380   9.6305570  17.3745520  24.6492330   8.8494950  17.6884140
  24.5327900  10.3412390  17.9186700  11.9437930   5.4022030  24.5336260
  12.1068970   4.9327390  23.7155630  12.4090380   4.8945590  25.1985100
  13.5176910   4.7773460  26.6932070  13.1331700   4.1367130  27.2915030
  13.8289100   5.4809580  27.2626800  15.9855210   4.8719630  15.0891750
  15.2117470   4.3317250  14.9290470  16.7149840   4.3526240  14.7509510
  26.7443190   3.8684990  20.8818140  27.4642310   4.3640280  20.4914250
  26.5425010   3.1902880  20.2372010  22.1261990   3.9394050  26.7687140
  22.0599300   3.0189720  26.5144730  21.4967130   4.0369490  27.4831780
  16.0292610   4.5400010  18.7270560  16.5471280   3.7368270  18.6727450
  15.5776630   4.4779150  19.5687390  20.9162110   5.8066290  13.9997860
  21.2577810   6.5508520  13.5041180  20.0874820   6.1197410  14.3622690
  22.0578720   6.7614620  26.5190940  22.0723260   5.8295580  26.3009850
  21.3503820   6.8474380  27.1580710  28.2689930   3.4021960  25.8659520
  27.5438120   3.9950740  25.6688910  28.7965390   3.3945500  25.0672890
  28.2203040   7.7996700  15.5171680  27.5779200   7.1452320  15.7915400
  27.8333700   8.2051790  14.7412350  23.7989520   5.1282130  19.3643370
  24.1513340   4.5310260  18.7044740  22.9151850   4.8026360  19.5351620
  19.8852800   5.8879820  16.7713780  20.5723930   6.4349030  17.1521370
  19.0985220   6.4320550  16.8063390  19.1880010   2.8925850  16.3839140
  19.6442790   3.7031100  16.6099330  18.8368220   2.5748990  17.2157630
  21.4912620   8.4032190  23.6131440  22.1354840   8.6091570  24.2904860
  21.8542060   7.6420590  23.1602290  22.7644700   6.4064540  22.3308890
  23.4066930   5.7057700  22.4441060  23.2894050   7.1862980  22.1505780
  26.6100420   6.6913160  12.0548030  26.3838000   5.9743600  12.6472670
  26.2196620   6.4425600  11.2169780  24.5382320   7.2059440  25.5344950
  24.8738560   7.7926130  26.2122870  23.6182660   7.0752150  25.7642740
  12.3916450  10.7180020  12.8292490  12.7514090  11.3169360  12.1749760
  12.2508790  11.2639910  13.6027520  26.1916670   4.6085100  13.7162190
  25.9038370   5.0697790  14.5040070  26.9868840   4.1482870  13.9846410
  12.3758310   8.9834880  27.3034890  12.4849430   8.0429620  27.1630280
  11.7238870   9.2489630  26.6548620  20.3670900   7.2550770  28.7033010
  20.0467770   6.5360010  29.2478700  19.6929260   7.9305840  28.7769070
  18.4085070   8.1011220  13.6466160  18.3995170   8.8340910  13.0310670
  17.4883430   7.8542800  13.7393120  14.0091710   3.3226110  14.3912920
  13.4019660   4.0625010  14.4008220  14.4841060   3.4125470  13.5651120
  21.3944670   8.1639460  12.3091350  21.4956650   7.9603450  11.3793330
  20.4946410   7.9097740  12.5139130  20.0362780  10.6825780  17.0039020
  20.2904280  10.6447170  16.0818390  19.0875260  10.5559110  16.9967270
  16.0197000   3.2837260  12.1401490  16.7860270   3.1718620  12.7026920
  16.0971690   2.5875230  11.4878260  28.0440940   8.7726510  20.2551790
  28.1688360   9.5957680  20.7275600  28.9106500   8.5617240  19.9075940
  15.5158470  10.8657720  19.9268920  16.2520950  10.3173180  20.1977490
  15.8999390  11.7313730  19.7874910  12.4003950   6.9331290  15.8010430
  11.4743730   7.1752430  15.7915840  12.8660380   7.7605550  15.6795180
  14.5216750  10.0503790  29.1154500  15.3229480  10.3715840  29.5289900
  14.0068570   9.6899370  29.8374410  18.6260780  10.0388030  11.7494490
  19.4189390  10.3276860  11.2976280  18.1065130   9.6080200  11.0706970
  23.3581380   6.1583660  29.0629910  22.7519540   6.1815260  28.3225660
  23.0535490   5.4266700  29.5997160  24.7881750   9.8863950  27.6739320
  25.7403500   9.8021970  27.6239560  24.6409970  10.5505660  28.3473110
  27.6790950   9.2658160  13.1731230  27.3932460   8.8523300  12.3585410
  27.4810500  10.1945870  13.0531750  12.2414560   2.5377250  28.0590550
  12.7453580   1.9584530  28.6306780  11.5021980   2.8217480  28.5966920
  19.1438180   5.2591440  11.6136840  19.0388820   4.6443790  12.3398220
  18.9762400   4.7357330  10.8299850  19.2952500   3.9448240  27.5926070
  18.5298170   4.5133240  27.5080740  19.4768460   3.6524450  26.6994300
  22.3840910   4.3211470  12.2178830  21.8351010   4.7680770  12.8621570
  23.0060170   3.8160720  12.7416500  26.4375850   5.6753570  28.1501090
  27.1785320   6.0129330  27.6468550  25.6748530   5.8445630  27.5970860
  18.0516030   3.2802390  14.1144130  18.4732450   3.1142260  14.9575520
  18.1766870   2.4702620  13.6199270  25.1121510   3.7268400  26.6856300
  25.5262530   3.8813480  27.5346720  24.1772510   3.8523620  26.8482080
  19.8736740   3.6788880  24.6552230  20.2924850   4.5221610  24.4828470
  18.9545370   3.8160920  24.4259010  24.5488540   1.9642250  24.6152580
  24.0223760   2.4884870  24.0117720  24.8919880   2.5969640  25.2462310
  17.7244160   9.9841890  25.7709960  17.1865250  10.7087950  25.4518660
  17.9778120   9.5072230  24.9807300  20.5806370  11.2193100  26.0296610
  20.5065070  12.1228240  26.3368980  19.6785210  10.9005000  26.0018680
  21.1291700  10.3851610  13.6522970  22.0242490  10.7236580  13.6741730
  21.1609330   9.6631020  13.0247250  14.7687860   5.7578660  11.8809970
  15.2062730   6.3008330  12.5367550  15.2535590   4.9325610  11.8906310
  11.9833660   8.5467690  19.3330230  12.3136670   7.6788750  19.1008870
  12.4124660   8.7526210  20.1635190  16.5795580   6.8776700  16.9932200
  16.2791120   6.7541670  17.8936110  16.4733070   6.0185290  16.5847930
  12.4723870   9.4138280  22.0711860  12.0354860   9.5939080  22.9036010
  13.0401550  10.1712900  21.9293580  28.1086050   8.9155280  26.3589170
  27.5088040   8.9747840  25.6153090  28.2379950   7.9760260  26.4886020
  29.3487500   6.6573100  11.6958880  28.5180460   6.7249750  12.1666110
  29.5259330   7.5477220  11.3925740  28.8043960   3.4020580  14.1993080
  29.5662870   3.9717230  14.3052770  28.8198330   2.8347780  14.9701390
  12.3048300   1.9258510  18.4300740  11.6497140   1.6570150  17.7860440
  13.1426250   1.8162990  17.9802720  29.8103930   4.2570680  19.0435010
  30.1812760   3.4738000  18.6370980  30.4505860   4.9459780  18.8652310
  26.7937690   5.6407260  24.4565330  25.9797530   6.0704420  24.7191120
  27.2011890   6.2525670  23.8434380  28.8563130   3.6954950  11.3565600
  29.1311970   4.6033830  11.2284820  28.6673870   3.6317480  12.2927590
  26.8513740  10.3925860  17.9833600  27.4472810  10.0710430  17.3068020
  27.1091890   9.9197680  18.7746870  14.7576310   6.8243770  28.1324230
  14.7145940   6.4536680  29.0138690  14.8887320   7.7621340  28.2726050
  18.4582340   8.3803360  23.7333950  18.2173700   8.6477920  22.8464470
  19.3984980   8.5509090  23.7884810  29.7186500  10.3997740  24.5344590
  29.2244780  10.7966610  23.8171720  29.1099790   9.7746950  24.9281870
  14.5964340   9.7706020  25.2522010  14.0024660   9.6390720  25.9912050
  14.5888180   8.9344160  24.7864110  27.4025950  11.0421160  21.8131330
  26.9428920  11.7936970  21.4389350  26.7738410  10.3227630  21.7546130
  14.2276570   7.1364400  24.2030050  13.5010630   6.5169690  24.1356000
  14.2885720   7.5305010  23.3328130  17.8321670   9.3509400  20.9879460
  18.3486690   8.7396760  20.4627720  18.4819050   9.8538180  21.4790470
  20.5717170  10.2417890  21.8148440  20.8594980   9.9872190  20.9381450
  21.0840390   9.6895250  22.4054010  12.5106570  10.4538790  17.4126810
  12.3428610   9.8209470  18.1108700  11.6441080  10.6598190  17.0621000
  14.1169270   9.1472020  14.8576950  13.5916890   9.5280050  14.1538910
  14.0413850   9.7722790  15.5786660  20.6389530  11.1633990  29.1816640
  21.5656840  10.9278260  29.2252600  20.6239960  11.9905990  28.7002670
  28.8734590  10.7059560  16.1790890  29.0486780  10.0197300  15.5351810
  28.1756160  11.2306610  15.7867560  16.7162240  11.0954400  13.7326200
  17.4481060  10.8113680  13.1850090  16.9755910  10.8567680  14.6225580
  15.8777030   7.2119130  13.7372530  15.2485910   7.6804230  14.2858360
  15.9924860   6.3668350  14.1718720  27.2067090  10.3903850  29.0057680
  27.9992410   9.8953080  28.7983640  27.5000240  11.0693990  29.6133290
  21.4644790   3.0403810   1.7683000  20.6886890   2.5604250   2.0581570
  22.1157720   2.3609460   1.5939160  15.4810620   3.3523620   2.6458760
  14.6495500   3.0972330   3.0455270  16.0891600   3.4234390   3.3816680
  15.4611880   7.3863710   2.8416780  15.7639920   6.4961450   2.6627000
  16.2055470   7.9433930   2.6139030  20.9053780   5.7161000   1.7753160
  20.8362060   4.7750940   1.6142290  21.6673640   5.8062410   2.3475730
  17.4410640   4.1437120   4.2401630  17.1080020   4.7706040   4.8822700
  17.6177320   4.6699000   3.4603300  16.6529740   6.1117920   6.0550810
  17.2703740   6.7869000   5.7735260  15.7922860   6.5205900   5.9638310
  27.5707330   7.5757330   3.9705450  26.8870850   8.2456440   3.9622120
  28.1101620   7.7737980   3.2050310  25.1066070   9.4201460   2.6850630
  25.1193230   9.0163750   1.8172890  24.5541290  10.1948750   2.5812060
  24.5051510   4.3231300   4.0133240  24.9220300   4.1091410   3.1786700
  25.2291330   4.5804090   4.5841860  28.4513610   2.7218520   4.1049480
  27.6232240   2.7911610   3.6299610  29.0464090   3.3072830   3.6365310
  26.1055720   9.5547170   5.7385330  25.6286280  10.3619360   5.5457940
  25.4217510   8.9025500   5.8911540  17.1088540   5.7196990   8.7270030
  16.2117070   5.9436960   8.9743430  17.1341410   5.8431930   7.7781430
  15.9359760   2.5910310   7.3027400  15.7967530   3.4633110   7.6714800
  15.0541120   2.2483120   7.1575340  17.7340110   8.5332010   9.5112550
  17.7055540   8.9374960   8.6440980  17.5705080   7.6042370   9.3484150
  29.6854930   9.3159110  10.8076720  30.1614650   9.7942000  11.4865800
  30.3062090   9.2476600  10.0822220  11.8878410   4.3607860   3.2198310
  11.9658830   4.4956630   2.2754030  12.5020090   3.6523750   3.4126430
  29.0888180   6.5071960   7.9676730  29.2151240   6.2683840   7.0493910
  29.1309560   5.6756500   8.4398810  22.9504920  10.2099960   6.5371540
  23.4649590  10.1207970   7.3393970  22.1074000  10.5559660   6.8299450
  11.9437930   5.4022030   5.7592770  12.1068970   4.9327390   4.9412140
  12.4090380   4.8945590   6.4241610  13.5176910   4.7773460   7.9188580
  13.1331700   4.1367130   8.5171540  13.8289100   5.4809580   8.4883310
  26.7443190   3.8684990   2.1074650  27.4642310   4.3640280   1.7170760
  26.5425010   3.1902880   1.4628520  22.1261990   3.9394050   7.9943650
  22.0599300   3.0189720   7.7401240  21.4967130   4.0369490   8.7088290
  22.0578720   6.7614620   7.7447450  22.0723260   5.8295580   7.5266360
  21.3503820   6.8474380   8.3837220  28.2689930   3.4021960   7.0916030
  27.5438120   3.9950740   6.8945420  28.7965390   3.3945500   6.2929400
  21.4912620   8.4032190   4.8387950  22.1354840   8.6091570   5.5161370
  21.8542060   7.6420590   4.3858800  22.7644700   6.4064540   3.5565400
  23.4066930   5.7057700   3.6697570  23.2894050   7.1862980   3.3762290
  24.5382320   7.2059440   6.7601460  24.8738560   7.7926130   7.4379380
  23.6182660   7.0752150   6.9899250  12.3758310   8.9834880   8.5291400
  12.4849430   8.0429620   8.3886790  11.7238870   9.2489630   7.8805130
  20.3670900   7.2550770   9.9289520  20.0467770   6.5360010  10.4735210
  19.6929260   7.9305840  10.0025580  14.5216750  10.0503790  10.3411010
  15.3229480  10.3715840  10.7546410  14.0068570   9.6899370  11.0630920
  23.3581380   6.1583660  10.2886420  22.7519540   6.1815260   9.5482170
  23.0535490   5.4266700  10.8253670  24.7881750   9.8863950   8.8995830
  25.7403500   9.8021970   8.8496070  24.6409970  10.5505660   9.5729620
  12.2414560   2.5377250   9.2847060  12.7453580   1.9584530   9.8563290
  11.5021980   2.8217480   9.8223430  19.2952500   3.9448240   8.8182580
  18.5298170   4.5133240   8.7337250  19.4768460   3.6524450   7.9250810
  26.4375850   5.6753570   9.3757600  27.1785320   6.0129330   8.8725060
  25.6748530   5.8445630   8.8227370  25.1121510   3.7268400   7.9112810
  25.5262530   3.8813480   8.7603230  24.1772510   3.8523620   8.0738590
  19.8736740   3.6788880   5.8808740  20.2924850   4.5221610   5.7084980
  18.9545370   3.8160920   5.6515520  24.5488540   1.9642250   5.8409090
  24.0223760   2.4884870   5.2374230  24.8919880   2.5969640   6.4718820
  17.7244160   9.9841890   6.9966470  17.1865250  10.7087950   6.6775170
  17.9778120   9.5072230   6.2063810  20.5806370  11.2193100   7.2553120
  20.5065070  12.1228240   7.5625490  19.6785210  10.9005000   7.2275190
  12.4723870   9.4138280   3.2968370  12.0354860   9.5939080   4.1292520
  13.0401550  10.1712900   3.1550090  28.1086050   8.9155280   7.5845680
  27.5088040   8.9747840   6.8409600  28.2379950   7.9760260   7.7142530
  26.7937690   5.6407260   5.6821840  25.9797530   6.0704420   5.9447630
  27.2011890   6.2525670   5.0690890  14.7576310   6.8243770   9.3580740
  14.7145940   6.4536680  10.2395200  14.8887320   7.7621340   9.4982560
  18.4582340   8.3803360   4.9590460  18.2173700   8.6477920   4.0720980
  19.3984980   8.5509090   5.0141320  29.7186500  10.3997740   5.7601100
  29.2244780  10.7966610   5.0428230  29.1099790   9.7746950   6.1538380
  14.5964340   9.7706020   6.4778520  14.0024660   9.6390720   7.2168560
  14.5888180   8.9344160   6.0120620  27.4025950  11.0421160   3.0387840
  26.9428920  11.7936970   2.6645860  26.7738410  10.3227630   2.9802640
  14.2276570   7.1364400   5.4286560  13.5010630   6.5169690   5.3612510
  14.2885720   7.5305010   4.5584640  17.8321670   9.3509400   2.2135970
  18.3486690   8.7396760   1.6884230  18.4819050   9.8538180   2.7046980
  20.5717170  10.2417890   3.0404950  20.8594980   9.9872190   2.1637960
  21.0840390   9.6895250   3.6310520  20.6389530  11.1633990  10.4073150
  21.5656840  10.9278260  10.4509110  20.6239960  11.9905990   9.9259180
  27.2067090  10.3903850  10.2314190  27.9992410   9.8953080  10.0240150
  27.5000240  11.0693990  10.8389800   4.5583260 151.4572710 150.0821650
   4.4777310 150.5427320 149.8113360   4.1447680 151.9539780 149.3761360
   6.9439580 146.2129740 149.1298350   7.7649200 145.7226310 149.1723830
   6.9773660 146.8027400 149.8830190   3.1557360 148.2347920 144.3218370
   2.2161030 148.3961880 144.4070830   3.4740620 148.9533600 143.7754360
   8.9567410 144.0180840 143.1500250   8.6440070 144.1107670 144.0499320
   9.7179880 144.5961870 143.0997680   4.9625190 149.8572650 147.3173160
   4.3634080 150.5808450 147.1336780   5.5104800 149.7949430 146.5349610
   3.5690060 148.4936190 149.3476440   3.9619630 148.8108390 148.5345130
   3.9306910 147.6148070 149.4620960   3.4309640 145.4570870 146.4451960
   2.6174250 144.9584040 146.3697270   3.2371590 146.2969120 146.0288310
   6.1458030 149.8290520 144.7414120   7.0337650 150.1407750 144.5665460
   6.1163120 148.9562770 144.3494700   8.4172300 151.1402360 144.2093980
   8.3336020 151.5716580 143.3590420   9.1366490 151.6000710 144.6420800
   8.1743040 146.6381790 146.2961800   7.5456200 146.7427460 145.5820030
   7.6794960 146.8578570 147.0855680   4.1742500 145.6418400 149.1515470
   4.0510280 145.6604530 148.2024980   5.1227060 145.6897340 149.2713870
   7.2671870 151.7965580 150.0001960   6.3262010 151.8115810 150.1749650
   7.5815940 151.0101540 150.4462260   5.6519750 144.3591770 145.0093600
   5.9322040 143.5159670 145.3653020   4.8785480 144.5914880 145.5232350
   6.4795250 146.9147720 144.0723660   6.8980130 146.7278700 143.2320320
   6.1731310 146.0626770 144.3826590   9.9784980 151.8271860 147.7699460
   9.6028580 151.0599790 147.3380750   9.2488100 152.2094560 148.2574390
   8.7435910 149.3102700 147.0099110   9.2395030 149.0773570 147.7947990
   8.5451980 148.4714540 146.5936750  10.1723070 147.9463650 149.5436790
  10.0622350 147.7919690 150.4819060  10.9330660 147.4184590 149.3012200
  11.0613340 145.7771570 142.7842930  11.9862650 145.6452750 142.5761220
  11.0389130 145.8564390 143.7379380  11.1351830 146.5482230 145.4099640
  10.3403330 146.4827350 145.9392550  11.3395110 147.4832870 145.3984990
   9.4310330 144.5094350 149.8707290   9.3698730 143.5655570 149.7238310
  10.2102360 144.6174440 150.4160750   5.4029890 143.2585210 150.5648480
   6.0059260 143.8305420 151.0397000   4.6622880 143.8224650 150.3422380
   8.5464490 143.6606770 145.8388760   8.7415120 144.5590220 146.1056190
   7.7594360 143.4293850 146.3321710   4.5583260 151.4572710 131.3078160
   4.4777310 150.5427320 131.0369870   4.1447680 151.9539780 130.6017870
   3.1615460 148.7179300 133.4226520   3.5380280 147.8451180 133.3100190
   3.0634970 149.0538000 132.5316960   6.9439580 146.2129740 130.3554860
   7.7649200 145.7226310 130.3980340   6.9773660 146.8027400 131.1086700
  11.2339130 148.2296490 136.9198490  10.5291300 148.6178200 136.4013600
  11.4997050 148.9246780 137.5219420   7.1801060 148.1530120 133.1282400
   6.4756630 148.4415010 133.7085510   7.5413220 148.9630230 132.7681960
  10.2487980 147.5984910 133.5191610   9.3012890 147.6323890 133.6507040
  10.5737970 148.4123860 133.9040970   3.1557360 148.2347920 125.5474880
   2.2161030 148.3961880 125.6327340   3.4740620 148.9533600 125.0010870
   6.6412130 149.7035760 136.4708780   6.2283310 150.5289470 136.7248770
   5.9088080 149.1180800 136.2785140   8.9567410 144.0180840 124.3756760
   8.6440070 144.1107670 125.2755830   9.7179880 144.5961870 124.3254190
  10.1668700 148.7552340 140.3530900   9.5512970 149.2632010 139.8246360
   9.8465120 147.8550670 140.2956840   2.2283020 147.5944230 137.8193090
   1.7662390 147.8027250 138.6313030   1.8261130 146.7803580 137.5163760
   7.2287530 148.8153180 138.9489750   6.3781120 148.5158930 139.2698820
   7.0689320 149.0595190 138.0373570   4.3237240 150.3154930 141.0488540
   4.6490650 149.4818680 140.7090770   5.1117570 150.8383450 141.1966870
   4.9625190 149.8572650 128.5429670   4.3634080 150.5808450 128.3593290
   5.5104800 149.7949430 127.7606120   3.5690060 148.4936190 130.5732950
   3.9619630 148.8108390 129.7601640   3.9306910 147.6148070 130.6877470
   4.1545200 151.0841940 134.6683730   3.4226320 151.5928750 135.0173830
   3.7569540 150.2671920 134.3672510   4.6171110 146.5375620 134.0806670
   4.6343850 146.9884270 134.9248520   4.3686690 145.6381260 134.2940110
   8.0441860 143.9507800 139.9193050   8.3687630 143.2197460 140.4451030
   8.0798370 143.6321440 139.0174040   3.4309640 145.4570870 127.6708470
   2.6174250 144.9584040 127.5953780   3.2371590 146.2969120 127.2544820
   6.1458030 149.8290520 125.9670630   7.0337650 150.1407750 125.7921970
   6.1163120 148.9562770 125.5751210   8.4172300 151.1402360 125.4350490
   8.3336020 151.5716580 124.5846930   9.1366490 151.6000710 125.8677310
   4.8081010 147.6824850 136.7130750   5.1761830 146.8620060 137.0410320
   3.9479210 147.7426740 137.1286400   8.1743040 146.6381790 127.5218310
   7.5456200 146.7427460 126.8076540   7.6794960 146.8578570 128.3112190
   1.7683000 150.3364440 136.9368720   2.2668250 150.8110260 137.6020570
   1.9105950 149.4127960 137.1438750   4.1742500 145.6418400 130.3771980
   4.0510280 145.6604530 129.4281490   5.1227060 145.6897340 130.4970380
   8.9749860 146.5532400 137.7797110   8.4723460 147.2937800 138.1190920
   9.7906520 146.9416400 137.4633900   7.2671870 151.7965580 131.2258470
   6.3262010 151.8115810 131.4006160   7.5815940 151.0101540 131.6718770
   6.8100190 151.2612480 141.3356390   7.3920960 150.5064800 141.2476870
   6.9861960 151.7919920 140.5587870   3.4357150 151.6052980 138.6851010
   3.5553360 151.0094120 139.4245850   4.2951150 151.6422670 138.2652310
   5.0219350 147.7640140 140.1759850   4.3334870 147.1021680 140.1109840
   5.7425370 147.3178410 140.6208310   5.6519750 144.3591770 126.2350110
   5.9322040 143.5159670 126.5909530   4.8785480 144.5914880 126.7488860
   6.4795250 146.9147720 125.2980170   6.8980130 146.7278700 124.4576830
   6.1731310 146.0626770 125.6083100   9.9784980 151.8271860 128.9955970
   9.6028580 151.0599790 128.5637260   9.2488100 152.2094560 129.4830900
   9.3684600 150.9743380 138.6295490   9.1370690 150.7456130 137.7293440
   9.6289150 151.8942930 138.5840380   7.8072670 146.1999810 141.4075190
   8.6842850 146.2083210 141.7909190   7.8193510 145.4630650 140.7967540
   9.2535940 150.0529350 132.2963210   9.7773420 149.5592000 131.6653380
   9.8395360 150.1879710 133.0410780   9.4325660 150.1369220 135.8182760
   8.4828370 150.1032760 135.9327750   9.6138670 151.0469330 135.5832530
   8.7435910 149.3102700 128.2355620   9.2395030 149.0773570 129.0204500
   8.5451980 148.4714540 127.8193260  10.1723070 147.9463650 130.7693300
  10.0622350 147.7919690 131.7075570  10.9330660 147.4184590 130.5268710
   8.5188790 143.8857780 137.2276300   9.1561010 144.4991920 137.5935490
   8.6663680 143.9218440 136.2825530  11.0613340 145.7771570 124.0099440
  11.9862650 145.6452750 123.8017730  11.0389130 145.8564390 124.9635890
  11.1351830 146.5482230 126.6356150  10.3403330 146.4827350 127.1649060
  11.3395110 147.4832870 126.6241500   1.8893270 145.0383970 140.1351400
   1.8282160 145.6305800 140.8846810   2.8293650 144.9309930 139.9901660
   4.5267830 144.6954030 139.7743690   5.1408240 145.0133320 139.1124770
   5.0717390 144.2102620 140.3939550   5.2675870 143.2586170 136.1012980
   4.3935710 143.5921280 135.8985910   5.1586620 142.7859350 136.9264850
   6.1747850 145.4657040 137.4854700   5.8461210 144.6508800 137.1056430
   7.1230150 145.4226850 137.3620390   3.0150690 144.1756010 135.0405890
   2.2322480 144.6501510 135.3202650   2.7213620 143.2710840 134.9319070
   7.5671760 144.8779110 133.0854980   8.0079850 144.8224210 132.2376580
   7.2979350 145.7937120 133.1565160   9.4310330 144.5094350 131.0963800
   9.3698730 143.5655570 130.9494820  10.2102360 144.6174440 131.6417260
   5.4029890 143.2585210 131.7904990   6.0059260 143.8305420 132.2653510
   4.6622880 143.8224650 131.5678890   8.5464490 143.6606770 127.0645270
   8.7415120 144.5590220 127.3312700   7.7594360 143.4293850 127.5578220
   5.6525110 143.4380240 142.1699930   5.5390560 143.7574850 143.0651450
   6.4694850 143.8392750 141.8737210   4.5583260 151.4572710 112.5334670
   4.4777310 150.5427320 112.2626380   4.1447680 151.9539780 111.8274380
   3.1615460 148.7179300 114.6483030   3.5380280 147.8451180 114.5356700
   3.0634970 149.0538000 113.7573470   6.9439580 146.2129740 111.5811370
   7.7649200 145.7226310 111.6236850   6.9773660 146.8027400 112.3343210
  11.2339130 148.2296490 118.1455000  10.5291300 148.6178200 117.6270110
  11.4997050 148.9246780 118.7475930   7.1801060 148.1530120 114.3538910
   6.4756630 148.4415010 114.9342020   7.5413220 148.9630230 113.9938470
  10.2487980 147.5984910 114.7448120   9.3012890 147.6323890 114.8763550
  10.5737970 148.4123860 115.1297480   3.1557360 148.2347920 106.7731390
   2.2161030 148.3961880 106.8583850   3.4740620 148.9533600 106.2267380
   6.6412130 149.7035760 117.6965290   6.2283310 150.5289470 117.9505280
   5.9088080 149.1180800 117.5041650   8.9567410 144.0180840 105.6013270
   8.6440070 144.1107670 106.5012340   9.7179880 144.5961870 105.5510700
  10.1668700 148.7552340 121.5787410   9.5512970 149.2632010 121.0502870
   9.8465120 147.8550670 121.5213350   2.2283020 147.5944230 119.0449600
   1.7662390 147.8027250 119.8569540   1.8261130 146.7803580 118.7420270
   7.2287530 148.8153180 120.1746260   6.3781120 148.5158930 120.4955330
   7.0689320 149.0595190 119.2630080   4.3237240 150.3154930 122.2745050
   4.6490650 149.4818680 121.9347280   5.1117570 150.8383450 122.4223380
   4.9625190 149.8572650 109.7686180   4.3634080 150.5808450 109.5849800
   5.5104800 149.7949430 108.9862630   3.5690060 148.4936190 111.7989460
   3.9619630 148.8108390 110.9858150   3.9306910 147.6148070 111.9133980
   4.1545200 151.0841940 115.8940240   3.4226320 151.5928750 116.2430340
   3.7569540 150.2671920 115.5929020   4.6171110 146.5375620 115.3063180
   4.6343850 146.9884270 116.1505030   4.3686690 145.6381260 115.5196620
   8.0441860 143.9507800 121.1449560   8.3687630 143.2197460 121.6707540
   8.0798370 143.6321440 120.2430550   3.4309640 145.4570870 108.8964980
   2.6174250 144.9584040 108.8210290   3.2371590 146.2969120 108.4801330
   6.1458030 149.8290520 107.1927140   7.0337650 150.1407750 107.0178480
   6.1163120 148.9562770 106.8007720   8.4172300 151.1402360 106.6607000
   8.3336020 151.5716580 105.8103440   9.1366490 151.6000710 107.0933820
   4.8081010 147.6824850 117.9387260   5.1761830 146.8620060 118.2666830
   3.9479210 147.7426740 118.3542910   8.1743040 146.6381790 108.7474820
   7.5456200 146.7427460 108.0333050   7.6794960 146.8578570 109.5368700
   1.7683000 150.3364440 118.1625230   2.2668250 150.8110260 118.8277080
   1.9105950 149.4127960 118.3695260   4.1742500 145.6418400 111.6028490
   4.0510280 145.6604530 110.6538000   5.1227060 145.6897340 111.7226890
   8.9749860 146.5532400 119.0053620   8.4723460 147.2937800 119.3447430
   9.7906520 146.9416400 118.6890410   7.2671870 151.7965580 112.4514980
   6.3262010 151.8115810 112.6262670   7.5815940 151.0101540 112.8975280
   6.8100190 151.2612480 122.5612900   7.3920960 150.5064800 122.4733380
   6.9861960 151.7919920 121.7844380   3.4357150 151.6052980 119.9107520
   3.5553360 151.0094120 120.6502360   4.2951150 151.6422670 119.4908820
   5.0219350 147.7640140 121.4016360   4.3334870 147.1021680 121.3366350
   5.7425370 147.3178410 121.8464820   5.6519750 144.3591770 107.4606620
   5.9322040 143.5159670 107.8166040   4.8785480 144.5914880 107.9745370
   6.4795250 146.9147720 106.5236680   6.8980130 146.7278700 105.6833340
   6.1731310 146.0626770 106.8339610   9.9784980 151.8271860 110.2212480
   9.6028580 151.0599790 109.7893770   9.2488100 152.2094560 110.7087410
   9.3684600 150.9743380 119.8552000   9.1370690 150.7456130 118.9549950
   9.6289150 151.8942930 119.8096890   7.8072670 146.1999810 122.6331700
   8.6842850 146.2083210 123.0165700   7.8193510 145.4630650 122.0224050
   9.2535940 150.0529350 113.5219720   9.7773420 149.5592000 112.8909890
   9.8395360 150.1879710 114.2667290   9.4325660 150.1369220 117.0439270
   8.4828370 150.1032760 117.1584260   9.6138670 151.0469330 116.8089040
   8.7435910 149.3102700 109.4612130   9.2395030 149.0773570 110.2461010
   8.5451980 148.4714540 109.0449770  10.1723070 147.9463650 111.9949810
  10.0622350 147.7919690 112.9332080  10.9330660 147.4184590 111.7525220
   8.5188790 143.8857780 118.4532810   9.1561010 144.4991920 118.8192000
   8.6663680 143.9218440 117.5082040  11.0613340 145.7771570 105.2355950
  11.9862650 145.6452750 105.0274240  11.0389130 145.8564390 106.1892400
  11.1351830 146.5482230 107.8612660  10.3403330 146.4827350 108.3905570
  11.3395110 147.4832870 107.8498010   1.8893270 145.0383970 121.3607910
   1.8282160 145.6305800 122.1103320   2.8293650 144.9309930 121.2158170
   4.5267830 144.6954030 121.0000200   5.1408240 145.0133320 120.3381280
   5.0717390 144.2102620 121.6196060   5.2675870 143.2586170 117.3269490
   4.3935710 143.5921280 117.1242420   5.1586620 142.7859350 118.1521360
   6.1747850 145.4657040 118.7111210   5.8461210 144.6508800 118.3312940
   7.1230150 145.4226850 118.5876900   3.0150690 144.1756010 116.2662400
   2.2322480 144.6501510 116.5459160   2.7213620 143.2710840 116.1575580
   7.5671760 144.8779110 114.3111490   8.0079850 144.8224210 113.4633090
   7.2979350 145.7937120 114.3821670   9.4310330 144.5094350 112.3220310
   9.3698730 143.5655570 112.1751330  10.2102360 144.6174440 112.8673770
   5.4029890 143.2585210 113.0161500   6.0059260 143.8305420 113.4910020
   4.6622880 143.8224650 112.7935400   8.5464490 143.6606770 108.2901780
   8.7415120 144.5590220 108.5569210   7.7594360 143.4293850 108.7834730
   5.6525110 143.4380240 123.3956440   5.5390560 143.7574850 124.2907960
   6.4694850 143.8392750 123.0993720   4.5583260 151.4572710  93.7591180
   4.4777310 150.5427320  93.4882890   4.1447680 151.9539780  93.0530890
   3.1615460 148.7179300  95.8739540   3.5380280 147.8451180  95.7613210
   3.0634970 149.0538000  94.9829980   6.9439580 146.2129740  92.8067880
   7.7649200 145.7226310  92.8493360   6.9773660 146.8027400  93.5599720
  11.2339130 148.2296490  99.3711510  10.5291300 148.6178200  98.8526620
  11.4997050 148.9246780  99.9732440   7.1801060 148.1530120  95.5795420
   6.4756630 148.4415010  96.1598530   7.5413220 148.9630230  95.2194980
  10.2487980 147.5984910  95.9704630   9.3012890 147.6323890  96.1020060
  10.5737970 148.4123860  96.3553990   3.1557360 148.2347920  87.9987900
   2.2161030 148.3961880  88.0840360   3.4740620 148.9533600  87.4523890
   6.6412130 149.7035760  98.9221800   6.2283310 150.5289470  99.1761790
   5.9088080 149.1180800  98.7298160   8.9567410 144.0180840  86.8269780
   8.6440070 144.1107670  87.7268850   9.7179880 144.5961870  86.7767210
  10.1668700 148.7552340 102.8043920   9.5512970 149.2632010 102.2759380
   9.8465120 147.8550670 102.7469860   2.2283020 147.5944230 100.2706110
   1.7662390 147.8027250 101.0826050   1.8261130 146.7803580  99.9676780
   7.2287530 148.8153180 101.4002770   6.3781120 148.5158930 101.7211840
   7.0689320 149.0595190 100.4886590   4.3237240 150.3154930 103.5001560
   4.6490650 149.4818680 103.1603790   5.1117570 150.8383450 103.6479890
   4.9625190 149.8572650  90.9942690   4.3634080 150.5808450  90.8106310
   5.5104800 149.7949430  90.2119140   3.5690060 148.4936190  93.0245970
   3.9619630 148.8108390  92.2114660   3.9306910 147.6148070  93.1390490
   4.1545200 151.0841940  97.1196750   3.4226320 151.5928750  97.4686850
   3.7569540 150.2671920  96.8185530   4.6171110 146.5375620  96.5319690
   4.6343850 146.9884270  97.3761540   4.3686690 145.6381260  96.7453130
   8.0441860 143.9507800 102.3706070   8.3687630 143.2197460 102.8964050
   8.0798370 143.6321440 101.4687060   3.4309640 145.4570870  90.1221490
   2.6174250 144.9584040  90.0466800   3.2371590 146.2969120  89.7057840
   6.1458030 149.8290520  88.4183650   7.0337650 150.1407750  88.2434990
   6.1163120 148.9562770  88.0264230   8.4172300 151.1402360  87.8863510
   8.3336020 151.5716580  87.0359950   9.1366490 151.6000710  88.3190330
   4.8081010 147.6824850  99.1643770   5.1761830 146.8620060  99.4923340
   3.9479210 147.7426740  99.5799420   8.1743040 146.6381790  89.9731330
   7.5456200 146.7427460  89.2589560   7.6794960 146.8578570  90.7625210
   1.7683000 150.3364440  99.3881740   2.2668250 150.8110260 100.0533590
   1.9105950 149.4127960  99.5951770   4.1742500 145.6418400  92.8285000
   4.0510280 145.6604530  91.8794510   5.1227060 145.6897340  92.9483400
   8.9749860 146.5532400 100.2310130   8.4723460 147.2937800 100.5703940
   9.7906520 146.9416400  99.9146920   7.2671870 151.7965580  93.6771490
   6.3262010 151.8115810  93.8519180   7.5815940 151.0101540  94.1231790
   6.8100190 151.2612480 103.7869410   7.3920960 150.5064800 103.6989890
   6.9861960 151.7919920 103.0100890   3.4357150 151.6052980 101.1364030
   3.5553360 151.0094120 101.8758870   4.2951150 151.6422670 100.7165330
   5.0219350 147.7640140 102.6272870   4.3334870 147.1021680 102.5622860
   5.7425370 147.3178410 103.0721330   5.6519750 144.3591770  88.6863130
   5.9322040 143.5159670  89.0422550   4.8785480 144.5914880  89.2001880
   6.4795250 146.9147720  87.7493190   6.8980130 146.7278700  86.9089850
   6.1731310 146.0626770  88.0596120   9.9784980 151.8271860  91.4468990
   9.6028580 151.0599790  91.0150280   9.2488100 152.2094560  91.9343920
   9.3684600 150.9743380 101.0808510   9.1370690 150.7456130 100.1806460
   9.6289150 151.8942930 101.0353400   7.8072670 146.1999810 103.8588210
   8.6842850 146.2083210 104.2422210   7.8193510 145.4630650 103.2480560
   9.2535940 150.0529350  94.7476230   9.7773420 149.5592000  94.1166400
   9.8395360 150.1879710  95.4923800   9.4325660 150.1369220  98.2695780
   8.4828370 150.1032760  98.3840770   9.6138670 151.0469330  98.0345550
   8.7435910 149.3102700  90.6868640   9.2395030 149.0773570  91.4717520
   8.5451980 148.4714540  90.2706280  10.1723070 147.9463650  93.2206320
  10.0622350 147.7919690  94.1588590  10.9330660 147.4184590  92.9781730
   8.5188790 143.8857780  99.6789320   9.1561010 144.4991920 100.0448510
   8.6663680 143.9218440  98.7338550  11.0613340 145.7771570  86.4612460
  11.9862650 145.6452750  86.2530750  11.0389130 145.8564390  87.4148910
  11.1351830 146.5482230  89.0869170  10.3403330 146.4827350  89.6162080
  11.3395110 147.4832870  89.0754520   1.8893270 145.0383970 102.5864420
   1.8282160 145.6305800 103.3359830   2.8293650 144.9309930 102.4414680
   4.5267830 144.6954030 102.2256710   5.1408240 145.0133320 101.5637790
   5.0717390 144.2102620 102.8452570   5.2675870 143.2586170  98.5526000
   4.3935710 143.5921280  98.3498930   5.1586620 142.7859350  99.3777870
   6.1747850 145.4657040  99.9367720   5.8461210 144.6508800  99.5569450
   7.1230150 145.4226850  99.8133410   3.0150690 144.1756010  97.4918910
   2.2322480 144.6501510  97.7715670   2.7213620 143.2710840  97.3832090
   7.5671760 144.8779110  95.5368000   8.0079850 144.8224210  94.6889600
   7.2979350 145.7937120  95.6078180   9.4310330 144.5094350  93.5476820
   9.3698730 143.5655570  93.4007840  10.2102360 144.6174440  94.0930280
   5.4029890 143.2585210  94.2418010   6.0059260 143.8305420  94.7166530
   4.6622880 143.8224650  94.0191910   8.5464490 143.6606770  89.5158290
   8.7415120 144.5590220  89.7825720   7.7594360 143.4293850  90.0091240
   5.6525110 143.4380240 104.6212950   5.5390560 143.7574850 105.5164470
   6.4694850 143.8392750 104.3250230   4.5583260 151.4572710  74.9847690
   4.4777310 150.5427320  74.7139400   4.1447680 151.9539780  74.2787400
   3.1615460 148.7179300  77.0996050   3.5380280 147.8451180  76.9869720
   3.0634970 149.0538000  76.2086490   6.9439580 146.2129740  74.0324390
   7.7649200 145.7226310  74.0749870   6.9773660 146.8027400  74.7856230
  11.2339130 148.2296490  80.5968020  10.5291300 148.6178200  80.0783130
  11.4997050 148.9246780  81.1988950   7.1801060 148.1530120  76.8051930
   6.4756630 148.4415010  77.3855040   7.5413220 148.9630230  76.4451490
  10.2487980 147.5984910  77.1961140   9.3012890 147.6323890  77.3276570
  10.5737970 148.4123860  77.5810500   3.1557360 148.2347920  69.2244410
   2.2161030 148.3961880  69.3096870   3.4740620 148.9533600  68.6780400
   6.6412130 149.7035760  80.1478310   6.2283310 150.5289470  80.4018300
   5.9088080 149.1180800  79.9554670   8.9567410 144.0180840  68.0526290
   8.6440070 144.1107670  68.9525360   9.7179880 144.5961870  68.0023720
  10.1668700 148.7552340  84.0300430   9.5512970 149.2632010  83.5015890
   9.8465120 147.8550670  83.9726370   2.2283020 147.5944230  81.4962620
   1.7662390 147.8027250  82.3082560   1.8261130 146.7803580  81.1933290
   7.2287530 148.8153180  82.6259280   6.3781120 148.5158930  82.9468350
   7.0689320 149.0595190  81.7143100   4.3237240 150.3154930  84.7258070
   4.6490650 149.4818680  84.3860300   5.1117570 150.8383450  84.8736400
   4.9625190 149.8572650  72.2199200   4.3634080 150.5808450  72.0362820
   5.5104800 149.7949430  71.4375650   3.5690060 148.4936190  74.2502480
   3.9619630 148.8108390  73.4371170   3.9306910 147.6148070  74.3647000
   4.1545200 151.0841940  78.3453260   3.4226320 151.5928750  78.6943360
   3.7569540 150.2671920  78.0442040   4.6171110 146.5375620  77.7576200
   4.6343850 146.9884270  78.6018050   4.3686690 145.6381260  77.9709640
   8.0441860 143.9507800  83.5962580   8.3687630 143.2197460  84.1220560
   8.0798370 143.6321440  82.6943570   3.4309640 145.4570870  71.3478000
   2.6174250 144.9584040  71.2723310   3.2371590 146.2969120  70.9314350
   6.1458030 149.8290520  69.6440160   7.0337650 150.1407750  69.4691500
   6.1163120 148.9562770  69.2520740   8.4172300 151.1402360  69.1120020
   8.3336020 151.5716580  68.2616460   9.1366490 151.6000710  69.5446840
   4.8081010 147.6824850  80.3900280   5.1761830 146.8620060  80.7179850
   3.9479210 147.7426740  80.8055930   8.1743040 146.6381790  71.1987840
   7.5456200 146.7427460  70.4846070   7.6794960 146.8578570  71.9881720
   1.7683000 150.3364440  80.6138250   2.2668250 150.8110260  81.2790100
   1.9105950 149.4127960  80.8208280   4.1742500 145.6418400  74.0541510
   4.0510280 145.6604530  73.1051020   5.1227060 145.6897340  74.1739910
   8.9749860 146.5532400  81.4566640   8.4723460 147.2937800  81.7960450
   9.7906520 146.9416400  81.1403430   7.2671870 151.7965580  74.9028000
   6.3262010 151.8115810  75.0775690   7.5815940 151.0101540  75.3488300
   6.8100190 151.2612480  85.0125920   7.3920960 150.5064800  84.9246400
   6.9861960 151.7919920  84.2357400   3.4357150 151.6052980  82.3620540
   3.5553360 151.0094120  83.1015380   4.2951150 151.6422670  81.9421840
   5.0219350 147.7640140  83.8529380   4.3334870 147.1021680  83.7879370
   5.7425370 147.3178410  84.2977840   5.6519750 144.3591770  69.9119640
   5.9322040 143.5159670  70.2679060   4.8785480 144.5914880  70.4258390
   6.4795250 146.9147720  68.9749700   6.8980130 146.7278700  68.1346360
   6.1731310 146.0626770  69.2852630   9.9784980 151.8271860  72.6725500
   9.6028580 151.0599790  72.2406790   9.2488100 152.2094560  73.1600430
   9.3684600 150.9743380  82.3065020   9.1370690 150.7456130  81.4062970
   9.6289150 151.8942930  82.2609910   7.8072670 146.1999810  85.0844720
   8.6842850 146.2083210  85.4678720   7.8193510 145.4630650  84.4737070
   9.2535940 150.0529350  75.9732740   9.7773420 149.5592000  75.3422910
   9.8395360 150.1879710  76.7180310   9.4325660 150.1369220  79.4952290
   8.4828370 150.1032760  79.6097280   9.6138670 151.0469330  79.2602060
   8.7435910 149.3102700  71.9125150   9.2395030 149.0773570  72.6974030
   8.5451980 148.4714540  71.4962790  10.1723070 147.9463650  74.4462830
  10.0622350 147.7919690  75.3845100  10.9330660 147.4184590  74.2038240
   8.5188790 143.8857780  80.9045830   9.1561010 144.4991920  81.2705020
   8.6663680 143.9218440  79.9595060  11.0613340 145.7771570  67.6868970
  11.9862650 145.6452750  67.4787260  11.0389130 145.8564390  68.6405420
  11.1351830 146.5482230  70.3125680  10.3403330 146.4827350  70.8418590
  11.3395110 147.4832870  70.3011030   1.8893270 145.0383970  83.8120930
   1.8282160 145.6305800  84.5616340   2.8293650 144.9309930  83.6671190
   4.5267830 144.6954030  83.4513220   5.1408240 145.0133320  82.7894300
   5.0717390 144.2102620  84.0709080   5.2675870 143.2586170  79.7782510
   4.3935710 143.5921280  79.5755440   5.1586620 142.7859350  80.6034380
   6.1747850 145.4657040  81.1624230   5.8461210 144.6508800  80.7825960
   7.1230150 145.4226850  81.0389920   3.0150690 144.1756010  78.7175420
   2.2322480 144.6501510  78.9972180   2.7213620 143.2710840  78.6088600
   7.5671760 144.8779110  76.7624510   8.0079850 144.8224210  75.9146110
   7.2979350 145.7937120  76.8334690   9.4310330 144.5094350  74.7733330
   9.3698730 143.5655570  74.6264350  10.2102360 144.6174440  75.3186790
   5.4029890 143.2585210  75.4674520   6.0059260 143.8305420  75.9423040
   4.6622880 143.8224650  75.2448420   8.5464490 143.6606770  70.7414800
   8.7415120 144.5590220  71.0082230   7.7594360 143.4293850  71.2347750
   5.6525110 143.4380240  85.8469460   5.5390560 143.7574850  86.7420980
   6.4694850 143.8392750  85.5506740   4.5583260 151.4572710  56.2104200
   4.4777310 150.5427320  55.9395910   4.1447680 151.9539780  55.5043910
   3.1615460 148.7179300  58.3252560   3.5380280 147.8451180  58.2126230
   3.0634970 149.0538000  57.4343000   6.9439580 146.2129740  55.2580900
   7.7649200 145.7226310  55.3006380   6.9773660 146.8027400  56.0112740
  11.2339130 148.2296490  61.8224530  10.5291300 148.6178200  61.3039640
  11.4997050 148.9246780  62.4245460   7.1801060 148.1530120  58.0308440
   6.4756630 148.4415010  58.6111550   7.5413220 148.9630230  57.6708000
  10.2487980 147.5984910  58.4217650   9.3012890 147.6323890  58.5533080
  10.5737970 148.4123860  58.8067010   3.1557360 148.2347920  50.4500920
   2.2161030 148.3961880  50.5353380   3.4740620 148.9533600  49.9036910
   6.6412130 149.7035760  61.3734820   6.2283310 150.5289470  61.6274810
   5.9088080 149.1180800  61.1811180   8.9567410 144.0180840  49.2782800
   8.6440070 144.1107670  50.1781870   9.7179880 144.5961870  49.2280230
  10.1668700 148.7552340  65.2556940   9.5512970 149.2632010  64.7272400
   9.8465120 147.8550670  65.1982880   2.2283020 147.5944230  62.7219130
   1.7662390 147.8027250  63.5339070   1.8261130 146.7803580  62.4189800
   7.2287530 148.8153180  63.8515790   6.3781120 148.5158930  64.1724860
   7.0689320 149.0595190  62.9399610   4.3237240 150.3154930  65.9514580
   4.6490650 149.4818680  65.6116810   5.1117570 150.8383450  66.0992910
   4.9625190 149.8572650  53.4455710   4.3634080 150.5808450  53.2619330
   5.5104800 149.7949430  52.6632160   3.5690060 148.4936190  55.4758990
   3.9619630 148.8108390  54.6627680   3.9306910 147.6148070  55.5903510
   4.1545200 151.0841940  59.5709770   3.4226320 151.5928750  59.9199870
   3.7569540 150.2671920  59.2698550   4.6171110 146.5375620  58.9832710
   4.6343850 146.9884270  59.8274560   4.3686690 145.6381260  59.1966150
   8.0441860 143.9507800  64.8219090   8.3687630 143.2197460  65.3477070
   8.0798370 143.6321440  63.9200080   3.4309640 145.4570870  52.5734510
   2.6174250 144.9584040  52.4979820   3.2371590 146.2969120  52.1570860
   6.1458030 149.8290520  50.8696670   7.0337650 150.1407750  50.6948010
   6.1163120 148.9562770  50.4777250   8.4172300 151.1402360  50.3376530
   8.3336020 151.5716580  49.4872970   9.1366490 151.6000710  50.7703350
   4.8081010 147.6824850  61.6156790   5.1761830 146.8620060  61.9436360
   3.9479210 147.7426740  62.0312440   8.1743040 146.6381790  52.4244350
   7.5456200 146.7427460  51.7102580   7.6794960 146.8578570  53.2138230
   1.7683000 150.3364440  61.8394760   2.2668250 150.8110260  62.5046610
   1.9105950 149.4127960  62.0464790   4.1742500 145.6418400  55.2798020
   4.0510280 145.6604530  54.3307530   5.1227060 145.6897340  55.3996420
   8.9749860 146.5532400  62.6823150   8.4723460 147.2937800  63.0216960
   9.7906520 146.9416400  62.3659940   7.2671870 151.7965580  56.1284510
   6.3262010 151.8115810  56.3032200   7.5815940 151.0101540  56.5744810
   6.8100190 151.2612480  66.2382430   7.3920960 150.5064800  66.1502910
   6.9861960 151.7919920  65.4613910   3.4357150 151.6052980  63.5877050
   3.5553360 151.0094120  64.3271890   4.2951150 151.6422670  63.1678350
   5.0219350 147.7640140  65.0785890   4.3334870 147.1021680  65.0135880
   5.7425370 147.3178410  65.5234350   5.6519750 144.3591770  51.1376150
   5.9322040 143.5159670  51.4935570   4.8785480 144.5914880  51.6514900
   6.4795250 146.9147720  50.2006210   6.8980130 146.7278700  49.3602870
   6.1731310 146.0626770  50.5109140   9.9784980 151.8271860  53.8982010
   9.6028580 151.0599790  53.4663300   9.2488100 152.2094560  54.3856940
   9.3684600 150.9743380  63.5321530   9.1370690 150.7456130  62.6319480
   9.6289150 151.8942930  63.4866420   7.8072670 146.1999810  66.3101230
   8.6842850 146.2083210  66.6935230   7.8193510 145.4630650  65.6993580
   9.2535940 150.0529350  57.1989250   9.7773420 149.5592000  56.5679420
   9.8395360 150.1879710  57.9436820   9.4325660 150.1369220  60.7208800
   8.4828370 150.1032760  60.8353790   9.6138670 151.0469330  60.4858570
   8.7435910 149.3102700  53.1381660   9.2395030 149.0773570  53.9230540
   8.5451980 148.4714540  52.7219300  10.1723070 147.9463650  55.6719340
  10.0622350 147.7919690  56.6101610  10.9330660 147.4184590  55.4294750
   8.5188790 143.8857780  62.1302340   9.1561010 144.4991920  62.4961530
   8.6663680 143.9218440  61.1851570  11.0613340 145.7771570  48.9125480
  11.9862650 145.6452750  48.7043770  11.0389130 145.8564390  49.8661930
  11.1351830 146.5482230  51.5382190  10.3403330 146.4827350  52.0675100
  11.3395110 147.4832870  51.5267540   1.8893270 145.0383970  65.0377440
   1.8282160 145.6305800  65.7872850   2.8293650 144.9309930  64.8927700
   4.5267830 144.6954030  64.6769730   5.1408240 145.0133320  64.0150810
   5.0717390 144.2102620  65.2965590   5.2675870 143.2586170  61.0039020
   4.3935710 143.5921280  60.8011950   5.1586620 142.7859350  61.8290890
   6.1747850 145.4657040  62.3880740   5.8461210 144.6508800  62.0082470
   7.1230150 145.4226850  62.2646430   3.0150690 144.1756010  59.9431930
   2.2322480 144.6501510  60.2228690   2.7213620 143.2710840  59.8345110
   7.5671760 144.8779110  57.9881020   8.0079850 144.8224210  57.1402620
   7.2979350 145.7937120  58.0591200   9.4310330 144.5094350  55.9989840
   9.3698730 143.5655570  55.8520860  10.2102360 144.6174440  56.5443300
   5.4029890 143.2585210  56.6931030   6.0059260 143.8305420  57.1679550
   4.6622880 143.8224650  56.4704930   8.5464490 143.6606770  51.9671310
   8.7415120 144.5590220  52.2338740   7.7594360 143.4293850  52.4604260
   5.6525110 143.4380240  67.0725970   5.5390560 143.7574850  67.9677490
   6.4694850 143.8392750  66.7763250   4.5583260 151.4572710  37.4360710
   4.4777310 150.5427320  37.1652420   4.1447680 151.9539780  36.7300420
   3.1615460 148.7179300  39.5509070   3.5380280 147.8451180  39.4382740
   3.0634970 149.0538000  38.6599510   6.9439580 146.2129740  36.4837410
   7.7649200 145.7226310  36.5262890   6.9773660 146.8027400  37.2369250
  11.2339130 148.2296490  43.0481040  10.5291300 148.6178200  42.5296150
  11.4997050 148.9246780  43.6501970   7.1801060 148.1530120  39.2564950
   6.4756630 148.4415010  39.8368060   7.5413220 148.9630230  38.8964510
  10.2487980 147.5984910  39.6474160   9.3012890 147.6323890  39.7789590
  10.5737970 148.4123860  40.0323520   3.1557360 148.2347920  31.6757430
   2.2161030 148.3961880  31.7609890   3.4740620 148.9533600  31.1293420
   6.6412130 149.7035760  42.5991330   6.2283310 150.5289470  42.8531320
   5.9088080 149.1180800  42.4067690   8.9567410 144.0180840  30.5039310
   8.6440070 144.1107670  31.4038380   9.7179880 144.5961870  30.4536740
  10.1668700 148.7552340  46.4813450   9.5512970 149.2632010  45.9528910
   9.8465120 147.8550670  46.4239390   2.2283020 147.5944230  43.9475640
   1.7662390 147.8027250  44.7595580   1.8261130 146.7803580  43.6446310
   7.2287530 148.8153180  45.0772300   6.3781120 148.5158930  45.3981370
   7.0689320 149.0595190  44.1656120   4.3237240 150.3154930  47.1771090
   4.6490650 149.4818680  46.8373320   5.1117570 150.8383450  47.3249420
   4.9625190 149.8572650  34.6712220   4.3634080 150.5808450  34.4875840
   5.5104800 149.7949430  33.8888670   3.5690060 148.4936190  36.7015500
   3.9619630 148.8108390  35.8884190   3.9306910 147.6148070  36.8160020
   4.1545200 151.0841940  40.7966280   3.4226320 151.5928750  41.1456380
   3.7569540 150.2671920  40.4955060   4.6171110 146.5375620  40.2089220
   4.6343850 146.9884270  41.0531070   4.3686690 145.6381260  40.4222660
   8.0441860 143.9507800  46.0475600   8.3687630 143.2197460  46.5733580
   8.0798370 143.6321440  45.1456590   3.4309640 145.4570870  33.7991020
   2.6174250 144.9584040  33.7236330   3.2371590 146.2969120  33.3827370
   6.1458030 149.8290520  32.0953180   7.0337650 150.1407750  31.9204520
   6.1163120 148.9562770  31.7033760   8.4172300 151.1402360  31.5633040
   8.3336020 151.5716580  30.7129480   9.1366490 151.6000710  31.9959860
   4.8081010 147.6824850  42.8413300   5.1761830 146.8620060  43.1692870
   3.9479210 147.7426740  43.2568950   8.1743040 146.6381790  33.6500860
   7.5456200 146.7427460  32.9359090   7.6794960 146.8578570  34.4394740
   1.7683000 150.3364440  43.0651270   2.2668250 150.8110260  43.7303120
   1.9105950 149.4127960  43.2721300   4.1742500 145.6418400  36.5054530
   4.0510280 145.6604530  35.5564040   5.1227060 145.6897340  36.6252930
   8.9749860 146.5532400  43.9079660   8.4723460 147.2937800  44.2473470
   9.7906520 146.9416400  43.5916450   7.2671870 151.7965580  37.3541020
   6.3262010 151.8115810  37.5288710   7.5815940 151.0101540  37.8001320
   6.8100190 151.2612480  47.4638940   7.3920960 150.5064800  47.3759420
   6.9861960 151.7919920  46.6870420   3.4357150 151.6052980  44.8133560
   3.5553360 151.0094120  45.5528400   4.2951150 151.6422670  44.3934860
   5.0219350 147.7640140  46.3042400   4.3334870 147.1021680  46.2392390
   5.7425370 147.3178410  46.7490860   5.6519750 144.3591770  32.3632660
   5.9322040 143.5159670  32.7192080   4.8785480 144.5914880  32.8771410
   6.4795250 146.9147720  31.4262720   6.8980130 146.7278700  30.5859380
   6.1731310 146.0626770  31.7365650   9.9784980 151.8271860  35.1238520
   9.6028580 151.0599790  34.6919810   9.2488100 152.2094560  35.6113450
   9.3684600 150.9743380  44.7578040   9.1370690 150.7456130  43.8575990
   9.6289150 151.8942930  44.7122930   7.8072670 146.1999810  47.5357740
   8.6842850 146.2083210  47.9191740   7.8193510 145.4630650  46.9250090
   9.2535940 150.0529350  38.4245760   9.7773420 149.5592000  37.7935930
   9.8395360 150.1879710  39.1693330   9.4325660 150.1369220  41.9465310
   8.4828370 150.1032760  42.0610300   9.6138670 151.0469330  41.7115080
   8.7435910 149.3102700  34.3638170   9.2395030 149.0773570  35.1487050
   8.5451980 148.4714540  33.9475810  10.1723070 147.9463650  36.8975850
  10.0622350 147.7919690  37.8358120  10.9330660 147.4184590  36.6551260
   8.5188790 143.8857780  43.3558850   9.1561010 144.4991920  43.7218040
   8.6663680 143.9218440  42.4108080  11.0613340 145.7771570  30.1381990
  11.9862650 145.6452750  29.9300280  11.0389130 145.8564390  31.0918440
  11.1351830 146.5482230  32.7638700  10.3403330 146.4827350  33.2931610
  11.3395110 147.4832870  32.7524050   1.8893270 145.0383970  46.2633950
   1.8282160 145.6305800  47.0129360   2.8293650 144.9309930  46.1184210
   4.5267830 144.6954030  45.9026240   5.1408240 145.0133320  45.2407320
   5.0717390 144.2102620  46.5222100   5.2675870 143.2586170  42.2295530
   4.3935710 143.5921280  42.0268460   5.1586620 142.7859350  43.0547400
   6.1747850 145.4657040  43.6137250   5.8461210 144.6508800  43.2338980
   7.1230150 145.4226850  43.4902940   3.0150690 144.1756010  41.1688440
   2.2322480 144.6501510  41.4485200   2.7213620 143.2710840  41.0601620
   7.5671760 144.8779110  39.2137530   8.0079850 144.8224210  38.3659130
   7.2979350 145.7937120  39.2847710   9.4310330 144.5094350  37.2246350
   9.3698730 143.5655570  37.0777370  10.2102360 144.6174440  37.7699810
   5.4029890 143.2585210  37.9187540   6.0059260 143.8305420  38.3936060
   4.6622880 143.8224650  37.6961440   8.5464490 143.6606770  33.1927820
   8.7415120 144.5590220  33.4595250   7.7594360 143.4293850  33.6860770
   5.6525110 143.4380240  48.2982480   5.5390560 143.7574850  49.1934000
   6.4694850 143.8392750  48.0019760   4.5583260 151.4572710  18.6617220
   4.4777310 150.5427320  18.3908930   4.1447680 151.9539780  17.9556930
   3.1615460 148.7179300  20.7765580   3.5380280 147.8451180  20.6639250
   3.0634970 149.0538000  19.8856020   6.9439580 146.2129740  17.7093920
   7.7649200 145.7226310  17.7519400   6.9773660 146.8027400  18.4625760
  11.2339130 148.2296490  24.2737550  10.5291300 148.6178200  23.7552660
  11.4997050 148.9246780  24.8758480   7.1801060 148.1530120  20.4821460
   6.4756630 148.4415010  21.0624570   7.5413220 148.9630230  20.1221020
  10.2487980 147.5984910  20.8730670   9.3012890 147.6323890  21.0046100
  10.5737970 148.4123860  21.2580030   3.1557360 148.2347920  12.9013940
   2.2161030 148.3961880  12.9866400   3.4740620 148.9533600  12.3549930
   6.6412130 149.7035760  23.8247840   6.2283310 150.5289470  24.0787830
   5.9088080 149.1180800  23.6324200   8.9567410 144.0180840  11.7295820
   8.6440070 144.1107670  12.6294890   9.7179880 144.5961870  11.6793250
  10.1668700 148.7552340  27.7069960   9.5512970 149.2632010  27.1785420
   9.8465120 147.8550670  27.6495900   2.2283020 147.5944230  25.1732150
   1.7662390 147.8027250  25.9852090   1.8261130 146.7803580  24.8702820
   7.2287530 148.8153180  26.3028810   6.3781120 148.5158930  26.6237880
   7.0689320 149.0595190  25.3912630   4.3237240 150.3154930  28.4027600
   4.6490650 149.4818680  28.0629830   5.1117570 150.8383450  28.5505930
   4.9625190 149.8572650  15.8968730   4.3634080 150.5808450  15.7132350
   5.5104800 149.7949430  15.1145180   3.5690060 148.4936190  17.9272010
   3.9619630 148.8108390  17.1140700   3.9306910 147.6148070  18.0416530
   4.1545200 151.0841940  22.0222790   3.4226320 151.5928750  22.3712890
   3.7569540 150.2671920  21.7211570   4.6171110 146.5375620  21.4345730
   4.6343850 146.9884270  22.2787580   4.3686690 145.6381260  21.6479170
   8.0441860 143.9507800  27.2732110   8.3687630 143.2197460  27.7990090
   8.0798370 143.6321440  26.3713100   3.4309640 145.4570870  15.0247530
   2.6174250 144.9584040  14.9492840   3.2371590 146.2969120  14.6083880
   6.1458030 149.8290520  13.3209690   7.0337650 150.1407750  13.1461030
   6.1163120 148.9562770  12.9290270   8.4172300 151.1402360  12.7889550
   8.3336020 151.5716580  11.9385990   9.1366490 151.6000710  13.2216370
   4.8081010 147.6824850  24.0669810   5.1761830 146.8620060  24.3949380
   3.9479210 147.7426740  24.4825460   8.1743040 146.6381790  14.8757370
   7.5456200 146.7427460  14.1615600   7.6794960 146.8578570  15.6651250
   1.7683000 150.3364440  24.2907780   2.2668250 150.8110260  24.9559630
   1.9105950 149.4127960  24.4977810   4.1742500 145.6418400  17.7311040
   4.0510280 145.6604530  16.7820550   5.1227060 145.6897340  17.8509440
   8.9749860 146.5532400  25.1336170   8.4723460 147.2937800  25.4729980
   9.7906520 146.9416400  24.8172960   7.2671870 151.7965580  18.5797530
   6.3262010 151.8115810  18.7545220   7.5815940 151.0101540  19.0257830
   6.8100190 151.2612480  28.6895450   7.3920960 150.5064800  28.6015930
   6.9861960 151.7919920  27.9126930   3.4357150 151.6052980  26.0390070
   3.5553360 151.0094120  26.7784910   4.2951150 151.6422670  25.6191370
   5.0219350 147.7640140  27.5298910   4.3334870 147.1021680  27.4648900
   5.7425370 147.3178410  27.9747370   5.6519750 144.3591770  13.5889170
   5.9322040 143.5159670  13.9448590   4.8785480 144.5914880  14.1027920
   6.4795250 146.9147720  12.6519230   6.8980130 146.7278700  11.8115890
   6.1731310 146.0626770  12.9622160   9.9784980 151.8271860  16.3495030
   9.6028580 151.0599790  15.9176320   9.2488100 152.2094560  16.8369960
   9.3684600 150.9743380  25.9834550   9.1370690 150.7456130  25.0832500
   9.6289150 151.8942930  25.9379440   7.8072670 146.1999810  28.7614250
   8.6842850 146.2083210  29.1448250   7.8193510 145.4630650  28.1506600
   9.2535940 150.0529350  19.6502270   9.7773420 149.5592000  19.0192440
   9.8395360 150.1879710  20.3949840   9.4325660 150.1369220  23.1721820
   8.4828370 150.1032760  23.2866810   9.6138670 151.0469330  22.9371590
   8.7435910 149.3102700  15.5894680   9.2395030 149.0773570  16.3743560
   8.5451980 148.4714540  15.1732320  10.1723070 147.9463650  18.1232360
  10.0622350 147.7919690  19.0614630  10.9330660 147.4184590  17.8807770
   8.5188790 143.8857780  24.5815360   9.1561010 144.4991920  24.9474550
   8.6663680 143.9218440  23.6364590  11.0613340 145.7771570  11.3638500
  11.9862650 145.6452750  11.1556790  11.0389130 145.8564390  12.3174950
  11.1351830 146.5482230  13.9895210  10.3403330 146.4827350  14.5188120
  11.3395110 147.4832870  13.9780560   1.8893270 145.0383970  27.4890460
   1.8282160 145.6305800  28.2385870   2.8293650 144.9309930  27.3440720
   4.5267830 144.6954030  27.1282750   5.1408240 145.0133320  26.4663830
   5.0717390 144.2102620  27.7478610   5.2675870 143.2586170  23.4552040
   4.3935710 143.5921280  23.2524970   5.1586620 142.7859350  24.2803910
   6.1747850 145.4657040  24.8393760   5.8461210 144.6508800  24.4595490
   7.1230150 145.4226850  24.7159450   3.0150690 144.1756010  22.3944950
   2.2322480 144.6501510  22.6741710   2.7213620 143.2710840  22.2858130
   7.5671760 144.8779110  20.4394040   8.0079850 144.8224210  19.5915640
   7.2979350 145.7937120  20.5104220   9.4310330 144.5094350  18.4502860
   9.3698730 143.5655570  18.3033880  10.2102360 144.6174440  18.9956320
   5.4029890 143.2585210  19.1444050   6.0059260 143.8305420  19.6192570
   4.6622880 143.8224650  18.9217950   8.5464490 143.6606770  14.4184330
   8.7415120 144.5590220  14.6851760   7.7594360 143.4293850  14.9117280
   5.6525110 143.4380240  29.5238990   5.5390560 143.7574850  30.4190510
   6.4694850 143.8392750  29.2276270  11.2339130 148.2296490   5.4994060
  10.5291300 148.6178200   4.9809170  11.4997050 148.9246780   6.1014990
  10.2487980 147.5984910   2.0987180   9.3012890 147.6323890   2.2302610
  10.5737970 148.4123860   2.4836540   6.6412130 149.7035760   5.0504350
   6.2283310 150.5289470   5.3044340   5.9088080 149.1180800   4.8580710
  10.1668700 148.7552340   8.9326470   9.5512970 149.2632010   8.4041930
   9.8465120 147.8550670   8.8752410   2.2283020 147.5944230   6.3988660
   1.7662390 147.8027250   7.2108600   1.8261130 146.7803580   6.0959330
   7.2287530 148.8153180   7.5285320   6.3781120 148.5158930   7.8494390
   7.0689320 149.0595190   6.6169140   4.3237240 150.3154930   9.6284110
   4.6490650 149.4818680   9.2886340   5.1117570 150.8383450   9.7762440
   4.1545200 151.0841940   3.2479300   3.4226320 151.5928750   3.5969400
   3.7569540 150.2671920   2.9468080   4.6171110 146.5375620   2.6602240
   4.6343850 146.9884270   3.5044090   4.3686690 145.6381260   2.8735680
   8.0441860 143.9507800   8.4988620   8.3687630 143.2197460   9.0246600
   8.0798370 143.6321440   7.5969610   4.8081010 147.6824850   5.2926320
   5.1761830 146.8620060   5.6205890   3.9479210 147.7426740   5.7081970
   1.7683000 150.3364440   5.5164290   2.2668250 150.8110260   6.1816140
   1.9105950 149.4127960   5.7234320   8.9749860 146.5532400   6.3592680
   8.4723460 147.2937800   6.6986490   9.7906520 146.9416400   6.0429470
   6.8100190 151.2612480   9.9151960   7.3920960 150.5064800   9.8272440
   6.9861960 151.7919920   9.1383440   3.4357150 151.6052980   7.2646580
   3.5553360 151.0094120   8.0041420   4.2951150 151.6422670   6.8447880
   5.0219350 147.7640140   8.7555420   4.3334870 147.1021680   8.6905410
   5.7425370 147.3178410   9.2003880   9.3684600 150.9743380   7.2091060
   9.1370690 150.7456130   6.3089010   9.6289150 151.8942930   7.1635950
   7.8072670 146.1999810   9.9870760   8.6842850 146.2083210  10.3704760
   7.8193510 145.4630650   9.3763110   9.4325660 150.1369220   4.3978330
   8.4828370 150.1032760   4.5123320   9.6138670 151.0469330   4.1628100
   8.5188790 143.8857780   5.8071870   9.1561010 144.4991920   6.1731060
   8.6663680 143.9218440   4.8621100   1.8893270 145.0383970   8.7146970
   1.8282160 145.6305800   9.4642380   2.8293650 144.9309930   8.5697230
   4.5267830 144.6954030   8.3539260   5.1408240 145.0133320   7.6920340
   5.0717390 144.2102620   8.9735120   5.2675870 143.2586170   4.6808550
   4.3935710 143.5921280   4.4781480   5.1586620 142.7859350   5.5060420
   6.1747850 145.4657040   6.0650270   5.8461210 144.6508800   5.6852000
   7.1230150 145.4226850   5.9415960   3.0150690 144.1756010   3.6201460
   2.2322480 144.6501510   3.8998220   2.7213620 143.2710840   3.5114640
   5.6525110 143.4380240  10.7495500   5.5390560 143.7574850  11.6447020
   6.4694850 143.8392750  10.4532780   4.5583260 132.6829220 150.0821650
   4.4777310 131.7683830 149.8113360   4.1447680 133.1796290 149.3761360
   6.7108730 138.8668430 150.7430050   6.2490260 138.0955670 151.0717220
   7.5234280 138.8934500 151.2482500   2.9372040 141.1526440 150.3634040
   2.3183480 141.6083940 149.7928480   3.7923820 141.3077900 149.9623740
   6.9439580 127.4386250 149.1298350   7.7649200 126.9482820 149.1723830
   6.9773660 128.0283910 149.8830190   3.8035390 136.0365680 147.7565950
   3.1852660 136.5015130 147.1928670   4.3158640 136.7293160 148.1735460
   7.6268000 137.5622110 147.9688720   7.5164330 136.6196440 148.0938140
   7.6236250 137.9237750 148.8551480   3.1688280 133.1887430 147.3251210
   2.2417560 133.1224810 147.5539680   3.3213100 134.1267560 147.2106450
   3.1557360 129.4604430 144.3218370   2.2161030 129.6218390 144.4070830
   3.4740620 130.1790110 143.7754360   7.1985570 134.7507730 147.8286460
   6.5797990 134.4127280 147.1812760   7.1810020 134.1067490 148.5365650
   5.3750270 133.9894540 144.8359210   5.8143550 133.1516970 144.6897030
   6.0878690 134.6223940 144.9223350   3.4845650 138.9290610 148.8040450
   3.9241560 139.6714940 148.3895840   3.4232540 139.1717180 149.7279410
   8.9567410 125.2437350 143.1500250   8.6440070 125.3364180 144.0499320
   9.7179880 125.8218380 143.0997680   6.1515830 141.9159730 146.1603460
   5.9916970 141.6262670 147.0585290   5.9862540 141.1399860 145.6248690
   5.8541960 139.4247290 144.7201460   5.1607120 139.4224580 144.0603740
   6.5964820 139.0006610 144.2895630   5.4191890 141.0510000 148.7949950
   5.8748840 140.2699380 149.1088570   5.7584410 141.7616820 149.3391130
   4.9625190 131.0829160 147.3173160   4.3634080 131.8064960 147.1336780
   5.5104800 131.0205940 146.5349610   3.5690060 129.7192700 149.3476440
   3.9619630 130.0364900 148.5345130   3.9306910 128.8404580 149.4620960
   3.4309640 126.6827380 146.4451960   2.6174250 126.1840550 146.3697270
   3.2371590 127.5225630 146.0288310   6.1458030 131.0547030 144.7414120
   7.0337650 131.3664260 144.5665460   6.1163120 130.1819280 144.3494700
   2.1418620 137.2270720 145.4202290   2.4834320 137.9712950 144.9245610
   1.3131330 137.5401840 145.7827120   8.4172300 132.3658870 144.2093980
   8.3336020 132.7973090 143.3590420   9.1366490 132.8257220 144.6420800
   9.4459550 139.2201130 146.9376110   8.8035710 138.5656750 147.2119830
   9.0590210 139.6256220 146.1616780   5.0246030 136.5486560 150.7847800
   5.3769850 135.9514690 150.1249170   4.1408360 136.2230790 150.9556050
   7.8356930 138.1117590 143.4752460   7.6094510 137.3948030 144.0677100
   7.4453130 137.8630030 142.6374210   7.4173180 136.0289530 145.1366620
   7.1294880 136.4902220 145.9244500   8.2125350 135.5687300 145.4050840
   8.1743040 127.8638300 146.2961800   7.5456200 127.9683970 145.5820030
   7.6794960 128.0835080 147.0855680   2.6201180 139.5843890 143.7295780
   2.7213160 139.3807880 142.7997760   1.7202920 139.3302170 143.9343560
   4.1742500 126.8674910 149.1515470   4.0510280 126.8861040 148.2024980
   5.1227060 126.9153850 149.2713870   7.2671870 133.0222090 150.0001960
   6.3262010 133.0372320 150.1749650   7.5815940 132.2358050 150.4462260
   8.9047460 140.6862590 144.5935660   8.6188970 140.2727730 143.7789840
   8.7067010 141.6150300 144.4736180   3.6097420 135.7415900 143.6383260
   3.0607520 136.1885200 144.2826000   4.2316680 135.2365150 144.1620930
   1.7900180 133.7244430 142.7825660   2.3105840 133.0093450 142.4166810
   2.4368580 134.3630300 143.0826170   5.6519750 125.5848280 145.0093600
   5.9322040 124.7416180 145.3653020   4.8785480 125.8171390 145.5232350
   2.3548210 141.8056040 145.0727400   3.2499000 142.1441010 145.0946160
   2.3865840 141.0835450 144.4451680  10.5744010 138.0777530 143.1163310
   9.7436970 138.1454180 143.5870540  10.7515840 138.9681650 142.8130170
  10.0300470 134.8225010 145.6197510  10.7919380 135.3921660 145.7257200
  10.0454840 134.2552210 146.3905820  11.0360440 135.6775110 150.4639440
  11.4069270 134.8942430 150.0575410  11.6762370 136.3664210 150.2856740
  10.0819640 135.1159380 142.7770030  10.3568480 136.0238260 142.6489250
   9.8930380 135.0521910 143.7132020   6.4795250 128.1404230 144.0723660
   6.8980130 127.9535210 143.2320320   6.1731310 127.2883280 144.3826590
   9.9784980 133.0528370 147.7699460   9.6028580 132.2856300 147.3380750
   9.2488100 133.4351070 148.2574390   8.7435910 130.5359210 147.0099110
   9.2395030 130.3030080 147.7947990   8.5451980 129.6971050 146.5936750
  10.1723070 129.1720160 149.5436790  10.0622350 129.0176200 150.4819060
  10.9330660 128.6441100 149.3012200  11.0613340 127.0028080 142.7842930
  11.9862650 126.8709260 142.5761220  11.0389130 127.0820900 143.7379380
  11.1351830 127.7738740 145.4099640  10.3403330 127.7083860 145.9392550
  11.3395110 128.7089380 145.3984990   8.0770250 141.8130290 149.4038030
   8.6729320 141.4914860 148.7272450   8.3348400 141.3402110 150.1951300
   9.4310330 125.7350860 149.8707290   9.3698730 124.7912080 149.7238310
  10.2102360 125.8430950 150.4160750   5.4029890 124.4841720 150.5648480
   6.0059260 125.0561930 151.0397000   4.6622880 125.0481160 150.3422380
   8.5464490 124.8863280 145.8388760   8.7415120 125.7846730 146.1056190
   7.7594360 124.6550360 146.3321710  10.0991100 142.1263990 147.5995320
  10.2743290 141.4401730 146.9556240   9.4012670 142.6511040 147.2071990
   4.5583260 132.6829220 131.3078160   4.4777310 131.7683830 131.0369870
   4.1447680 133.1796290 130.6017870   2.6901300 134.4608240 133.1887430
   1.9143400 133.9808680 133.4786000   3.3414230 133.7813890 133.0143590
   6.7108730 138.8668430 131.9686560   6.2490260 138.0955670 132.2973730
   7.5234280 138.8934500 132.4739010   2.9372040 141.1526440 131.5890550
   2.3183480 141.6083940 131.0184990   3.7923820 141.3077900 131.1880250
   2.1310290 137.1365430 133.1957590   2.0618570 136.1955370 133.0346720
   2.8930150 137.2266840 133.7680160   3.1615460 129.9435810 133.4226520
   3.5380280 129.0707690 133.3100190   3.0634970 130.2794510 132.5316960
   6.9439580 127.4386250 130.3554860   7.7649200 126.9482820 130.3980340
   6.9773660 128.0283910 131.1086700  11.2339130 129.4553000 136.9198490
  10.5291300 129.8434710 136.4013600  11.4997050 130.1503290 137.5219420
   3.8035390 136.0365680 128.9822460   3.1852660 136.5015130 128.4185180
   4.3158640 136.7293160 129.3991970   7.1801060 129.3786630 133.1282400
   6.4756630 129.6671520 133.7085510   7.5413220 130.1886740 132.7681960
   8.7963840 138.9961760 135.3909880   8.1127360 139.6660870 135.3826550
   9.3358130 139.1942410 134.6254740  10.2487980 128.8241420 133.5191610
   9.3012890 128.8580400 133.6507040  10.5737970 129.6380370 133.9040970
   6.3322580 140.8405890 134.1055060   6.3449740 140.4368180 133.2377320
   5.7797800 141.6153180 134.0016490   7.6268000 137.5622110 129.1945230
   7.5164330 136.6196440 129.3194650   7.6236250 137.9237750 130.0807990
   5.7308020 135.7435730 135.4337670   6.1476810 135.5295840 134.5991130
   6.4547840 136.0008520 136.0046290   3.1688280 133.1887430 128.5507720
   2.2417560 133.1224810 128.7796190   3.3213100 134.1267560 128.4362960
   3.1557360 129.4604430 125.5474880   2.2161030 129.6218390 125.6327340
   3.4740620 130.1790110 125.0010870   9.6770120 134.1422950 135.5253910
   8.8488750 134.2116040 135.0504040  10.2720600 134.7277260 135.0569740
   7.1985570 134.7507730 129.0542970   6.5797990 134.4127280 128.4069270
   7.1810020 134.1067490 129.7622160   6.6412130 130.9292270 136.4708780
   6.2283310 131.7545980 136.7248770   5.9088080 130.3437310 136.2785140
   7.3312230 140.9751600 137.1589760   6.8542790 141.7823790 136.9662370
   6.6474020 140.3229930 137.3115970   5.3750270 133.9894540 126.0615720
   5.8143550 133.1516970 125.9153540   6.0878690 134.6223940 126.1479860
   3.4845650 138.9290610 130.0296960   3.9241560 139.6714940 129.6152350
   3.4232540 139.1717180 130.9535920   8.9567410 125.2437350 124.3756760
   8.6440070 125.3364180 125.2755830   9.7179880 125.8218380 124.3254190
  10.9111440 140.7363540 142.2281150  11.3871160 141.2146430 142.9070230
  11.5318600 140.6681030 141.5026650  10.3144690 137.9276390 139.3881160
  10.4407750 137.6888270 138.4698340  10.3566070 137.0960930 139.8603240
   4.1761430 141.6304390 137.9575970   4.6906100 141.5412400 138.7598400
   3.3330510 141.9764090 138.2503880   6.1515830 141.9159730 127.3859970
   5.9916970 141.6262670 128.2841800   5.9862540 141.1399860 126.8505200
   5.8541960 139.4247290 125.9457970   5.1607120 139.4224580 125.2860250
   6.5964820 139.0006610 125.5152140   5.4191890 141.0510000 130.0206460
   5.8748840 140.2699380 130.3345080   5.7584410 141.7616820 130.5647640
  10.1668700 129.9808850 140.3530900   9.5512970 130.4888520 139.8246360
   9.8465120 129.0807180 140.2956840   2.2283020 128.8200740 137.8193090
   1.7662390 129.0283760 138.6313030   1.8261130 128.0060090 137.5163760
   7.2287530 130.0409690 138.9489750   6.3781120 129.7415440 139.2698820
   7.0689320 130.2851700 138.0373570   4.3237240 131.5411440 141.0488540
   4.6490650 130.7075190 140.7090770   5.1117570 132.0639960 141.1966870
   4.9625190 131.0829160 128.5429670   4.3634080 131.8064960 128.3593290
   5.5104800 131.0205940 127.7606120   3.5690060 129.7192700 130.5732950
   3.9619630 130.0364900 129.7601640   3.9306910 128.8404580 130.6877470
   4.1545200 132.3098450 134.6683730   3.4226320 132.8185260 135.0173830
   3.7569540 131.4928430 134.3672510   4.6171110 127.7632130 134.0806670
   4.6343850 128.2140780 134.9248520   4.3686690 126.8637770 134.2940110
   8.0441860 125.1764310 139.9193050   8.3687630 124.4453970 140.4451030
   8.0798370 124.8577950 139.0174040   7.9699700 135.2889420 133.5279080
   8.6898820 135.7844710 133.1375190   7.7681520 134.6107310 132.8832950
   3.4309640 126.6827380 127.6708470   2.6174250 126.1840550 127.5953780
   3.2371590 127.5225630 127.2544820   3.3518500 135.3598480 139.4148080
   3.2855810 134.4394150 139.1605670   2.7223640 135.4573920 140.1292720
   6.1458030 131.0547030 125.9670630   7.0337650 131.3664260 125.7921970
   6.1163120 130.1819280 125.5751210   2.1418620 137.2270720 126.6458800
   2.4834320 137.9712950 126.1502120   1.3131330 137.5401840 127.0083630
   3.2835230 138.1819050 139.1651880   3.2979770 137.2500010 138.9470790
   2.5760330 138.2678810 139.8041650   8.4172300 132.3658870 125.4350490
   8.3336020 132.7973090 124.5846930   9.1366490 132.8257220 125.8677310
   9.4946440 134.8226390 138.5120460   8.7694630 135.4155170 138.3149850
  10.0221900 134.8149930 137.7133830   9.4459550 139.2201130 128.1632620
   8.8035710 138.5656750 128.4376340   9.0590210 139.6256220 127.3873290
   5.0246030 136.5486560 132.0104310   5.3769850 135.9514690 131.3505680
   4.1408360 136.2230790 132.1812560   2.7169130 139.8236620 136.2592380
   3.3611350 140.0296000 136.9365800   3.0798570 139.0625020 135.8063230
   3.9901210 137.8268970 134.9769830   4.6323440 137.1262130 135.0902000
   4.5150560 138.6067410 134.7966720   7.8356930 138.1117590 124.7008970
   7.6094510 137.3948030 125.2933610   7.4453130 137.8630030 123.8630720
   5.7638830 138.6263870 138.1805890   6.0995070 139.2130560 138.8583810
   4.8439170 138.4956580 138.4103680   7.4173180 136.0289530 126.3623130
   7.1294880 136.4902220 127.1501010   8.2125350 135.5687300 126.6307350
   4.8081010 128.9081360 136.7130750   5.1761830 128.0876570 137.0410320
   3.9479210 128.9683250 137.1286400   8.1743040 127.8638300 127.5218310
   7.5456200 127.9683970 126.8076540   7.6794960 128.0835080 128.3112190
   2.6201180 139.5843890 124.9552290   2.7213160 139.3807880 124.0254270
   1.7202920 139.3302170 125.1600070   1.7683000 131.5620950 136.9368720
   2.2668250 132.0366770 137.6020570   1.9105950 130.6384470 137.1438750
   4.1742500 126.8674910 130.3771980   4.0510280 126.8861040 129.4281490
   5.1227060 126.9153850 130.4970380   8.9749860 127.7788910 137.7797110
   8.4723460 128.5194310 138.1190920   9.7906520 128.1672910 137.4633900
   7.2671870 133.0222090 131.2258470   6.3262010 133.0372320 131.4006160
   7.5815940 132.2358050 131.6718770   9.2697450 140.1930940 132.9012730
   9.3944870 141.0162110 133.3736540  10.1363010 139.9821670 132.5536880
   4.5837890 137.5788090 141.7090850   3.9776050 137.6019690 140.9686600
   4.2792000 136.8471130 142.2458100   6.0138260 141.3068380 140.3200260
   6.9660010 141.2226400 140.2700500   5.8666480 141.9710090 140.9934050
   8.9047460 140.6862590 125.8192170   8.6188970 140.2727730 125.0046350
   8.7067010 141.6150300 125.6992690   3.6097420 135.7415900 124.8639770
   3.0607520 136.1885200 125.5082510   4.2316680 135.2365150 125.3877440
   7.6632360 137.0958000 140.7962030   8.4041830 137.4333760 140.2929490
   6.9005040 137.2650060 140.2431800   1.7900180 133.7244430 124.0082170
   2.3105840 133.0093450 123.6423320   2.4368580 134.3630300 124.3082680
   6.3378020 135.1472830 139.3317240   6.7519040 135.3017910 140.1807660
   5.4029020 135.2728050 139.4943020   6.8100190 132.4868990 141.3356390
   7.3920960 131.7321310 141.2476870   6.9861960 133.0176430 140.5587870
   3.4357150 132.8309490 138.6851010   3.5553360 132.2350630 139.4245850
   4.2951150 132.8679180 138.2652310   5.7745050 133.3846680 137.2613520
   5.2480270 133.9089300 136.6578660   6.1176390 134.0174070 137.8923250
   5.0219350 128.9896650 140.1759850   4.3334870 128.3278190 140.1109840
   5.7425370 128.5434920 140.6208310   5.6519750 125.5848280 126.2350110
   5.9322040 124.7416180 126.5909530   4.8785480 125.8171390 126.7488860
   2.3548210 141.8056040 126.2983910   3.2499000 142.1441010 126.3202670
   2.3865840 141.0835450 125.6708190   9.3342560 140.3359710 139.0050110
   8.7344550 140.3952270 138.2614030   9.4636460 139.3964690 139.1346960
  10.5744010 138.0777530 124.3419820   9.7436970 138.1454180 124.8127050
  10.7515840 138.9681650 124.0386680  10.0300470 134.8225010 126.8454020
  10.7919380 135.3921660 126.9513710  10.0454840 134.2552210 127.6162330
  11.0360440 135.6775110 131.6895950  11.4069270 134.8942430 131.2831920
  11.6762370 136.3664210 131.5113250   8.0194200 137.0611690 137.1026270
   7.2054040 137.4908850 137.3652060   8.4268400 137.6730100 136.4895320
  10.0819640 135.1159380 124.0026540  10.3568480 136.0238260 123.8745760
   9.8930380 135.0521910 124.9388530   6.4795250 128.1404230 125.2980170
   6.8980130 127.9535210 124.4576830   6.1731310 127.2883280 125.6083100
   9.9784980 133.0528370 128.9955970   9.6028580 132.2856300 128.5637260
   9.2488100 133.4351070 129.4830900   9.3684600 132.1999890 138.6295490
   9.1370690 131.9712640 137.7293440   9.6289150 133.1199440 138.5840380
   7.8072670 127.4256320 141.4075190   8.6842850 127.4339720 141.7909190
   7.8193510 126.6887160 140.7967540   9.2535940 131.2785860 132.2963210
   9.7773420 130.7848510 131.6653380   9.8395360 131.4136220 133.0410780
   9.4325660 131.3625730 135.8182760   8.4828370 131.3289270 135.9327750
   9.6138670 132.2725840 135.5832530   8.7435910 130.5359210 128.2355620
   9.2395030 130.3030080 129.0204500   8.5451980 129.6971050 127.8193260
  10.1723070 129.1720160 130.7693300  10.0622350 129.0176200 131.7075570
  10.9330660 128.6441100 130.5268710   8.5188790 125.1114290 137.2276300
   9.1561010 125.7248430 137.5935490   8.6663680 125.1474950 136.2825530
  11.0613340 127.0028080 124.0099440  11.9862650 126.8709260 123.8017730
  11.0389130 127.0820900 124.9635890  11.1351830 127.7738740 126.6356150
  10.3403330 127.7083860 127.1649060  11.3395110 128.7089380 126.6241500
   8.0770250 141.8130290 130.6294540   8.6729320 141.4914860 129.9528960
   8.3348400 141.3402110 131.4207810   1.8893270 126.2640480 140.1351400
   1.8282160 126.8562310 140.8846810   2.8293650 126.1566440 139.9901660
   4.5267830 125.9210540 139.7743690   5.1408240 126.2389830 139.1124770
   5.0717390 125.4359130 140.3939550  10.9443010 141.8202170 137.1805530
  10.4501290 142.2171040 136.4632660  10.3356300 141.1951380 137.5742810
   5.2675870 124.4842680 136.1012980   4.3935710 124.8177790 135.8985910
   5.1586620 124.0115860 136.9264850   6.1747850 126.6913550 137.4854700
   5.8461210 125.8765310 137.1056430   7.1230150 126.6483360 137.3620390
   8.6282460 142.4625590 134.4592270   8.1685430 143.2141400 134.0850290
   7.9994920 141.7432060 134.4007070   1.7973680 141.6622320 134.4609380
   2.0851490 141.4076620 133.5842390   2.3096900 141.1099680 135.0514950
   3.0150690 125.4012520 135.0405890   2.2322480 125.8758020 135.3202650
   2.7213620 124.4967350 134.9319070   7.5671760 126.1035620 133.0854980
   8.0079850 126.0480720 132.2376580   7.2979350 127.0193630 133.1565160
   9.4310330 125.7350860 131.0963800   9.3698730 124.7912080 130.9494820
  10.2102360 125.8430950 131.6417260   5.4029890 124.4841720 131.7904990
   6.0059260 125.0561930 132.2653510   4.6622880 125.0481160 131.5678890
   8.5464490 124.8863280 127.0645270   8.7415120 125.7846730 127.3312700
   7.7594360 124.6550360 127.5578220   1.8646040 142.5838420 141.8277580
   2.7913350 142.3482690 141.8713540   1.8496470 143.4110420 141.3463610
  10.0991100 142.1263990 128.8251830  10.2743290 141.4401730 128.1812750
   9.4012670 142.6511040 128.4328500   5.6525110 124.6636750 142.1699930
   5.5390560 124.9831360 143.0651450   6.4694850 125.0649260 141.8737210
   8.4323600 141.8108280 141.6518620   9.2248920 141.3157510 141.4444580
   8.7256750 142.4898420 142.2594230   4.5583260 132.6829220 112.5334670
   4.4777310 131.7683830 112.2626380   4.1447680 133.1796290 111.8274380
   2.6901300 134.4608240 114.4143940   1.9143400 133.9808680 114.7042510
   3.3414230 133.7813890 114.2400100   6.7108730 138.8668430 113.1943070
   6.2490260 138.0955670 113.5230240   7.5234280 138.8934500 113.6995520
   2.9372040 141.1526440 112.8147060   2.3183480 141.6083940 112.2441500
   3.7923820 141.3077900 112.4136760   2.1310290 137.1365430 114.4214100
   2.0618570 136.1955370 114.2603230   2.8930150 137.2266840 114.9936670
   3.1615460 129.9435810 114.6483030   3.5380280 129.0707690 114.5356700
   3.0634970 130.2794510 113.7573470   6.9439580 127.4386250 111.5811370
   7.7649200 126.9482820 111.6236850   6.9773660 128.0283910 112.3343210
  11.2339130 129.4553000 118.1455000  10.5291300 129.8434710 117.6270110
  11.4997050 130.1503290 118.7475930   3.8035390 136.0365680 110.2078970
   3.1852660 136.5015130 109.6441690   4.3158640 136.7293160 110.6248480
   7.1801060 129.3786630 114.3538910   6.4756630 129.6671520 114.9342020
   7.5413220 130.1886740 113.9938470   8.7963840 138.9961760 116.6166390
   8.1127360 139.6660870 116.6083060   9.3358130 139.1942410 115.8511250
  10.2487980 128.8241420 114.7448120   9.3012890 128.8580400 114.8763550
  10.5737970 129.6380370 115.1297480   6.3322580 140.8405890 115.3311570
   6.3449740 140.4368180 114.4633830   5.7797800 141.6153180 115.2273000
   7.6268000 137.5622110 110.4201740   7.5164330 136.6196440 110.5451160
   7.6236250 137.9237750 111.3064500   5.7308020 135.7435730 116.6594180
   6.1476810 135.5295840 115.8247640   6.4547840 136.0008520 117.2302800
   3.1688280 133.1887430 109.7764230   2.2417560 133.1224810 110.0052700
   3.3213100 134.1267560 109.6619470   3.1557360 129.4604430 106.7731390
   2.2161030 129.6218390 106.8583850   3.4740620 130.1790110 106.2267380
   9.6770120 134.1422950 116.7510420   8.8488750 134.2116040 116.2760550
  10.2720600 134.7277260 116.2826250   7.1985570 134.7507730 110.2799480
   6.5797990 134.4127280 109.6325780   7.1810020 134.1067490 110.9878670
   6.6412130 130.9292270 117.6965290   6.2283310 131.7545980 117.9505280
   5.9088080 130.3437310 117.5041650   7.3312230 140.9751600 118.3846270
   6.8542790 141.7823790 118.1918880   6.6474020 140.3229930 118.5372480
   5.3750270 133.9894540 107.2872230   5.8143550 133.1516970 107.1410050
   6.0878690 134.6223940 107.3736370   3.4845650 138.9290610 111.2553470
   3.9241560 139.6714940 110.8408860   3.4232540 139.1717180 112.1792430
   8.9567410 125.2437350 105.6013270   8.6440070 125.3364180 106.5012340
   9.7179880 125.8218380 105.5510700  10.9111440 140.7363540 123.4537660
  11.3871160 141.2146430 124.1326740  11.5318600 140.6681030 122.7283160
  10.3144690 137.9276390 120.6137670  10.4407750 137.6888270 119.6954850
  10.3566070 137.0960930 121.0859750   4.1761430 141.6304390 119.1832480
   4.6906100 141.5412400 119.9854910   3.3330510 141.9764090 119.4760390
   6.1515830 141.9159730 108.6116480   5.9916970 141.6262670 109.5098310
   5.9862540 141.1399860 108.0761710   5.8541960 139.4247290 107.1714480
   5.1607120 139.4224580 106.5116760   6.5964820 139.0006610 106.7408650
   5.4191890 141.0510000 111.2462970   5.8748840 140.2699380 111.5601590
   5.7584410 141.7616820 111.7904150  10.1668700 129.9808850 121.5787410
   9.5512970 130.4888520 121.0502870   9.8465120 129.0807180 121.5213350
   2.2283020 128.8200740 119.0449600   1.7662390 129.0283760 119.8569540
   1.8261130 128.0060090 118.7420270   7.2287530 130.0409690 120.1746260
   6.3781120 129.7415440 120.4955330   7.0689320 130.2851700 119.2630080
   4.3237240 131.5411440 122.2745050   4.6490650 130.7075190 121.9347280
   5.1117570 132.0639960 122.4223380   4.9625190 131.0829160 109.7686180
   4.3634080 131.8064960 109.5849800   5.5104800 131.0205940 108.9862630
   3.5690060 129.7192700 111.7989460   3.9619630 130.0364900 110.9858150
   3.9306910 128.8404580 111.9133980   4.1545200 132.3098450 115.8940240
   3.4226320 132.8185260 116.2430340   3.7569540 131.4928430 115.5929020
   4.6171110 127.7632130 115.3063180   4.6343850 128.2140780 116.1505030
   4.3686690 126.8637770 115.5196620   8.0441860 125.1764310 121.1449560
   8.3687630 124.4453970 121.6707540   8.0798370 124.8577950 120.2430550
   7.9699700 135.2889420 114.7535590   8.6898820 135.7844710 114.3631700
   7.7681520 134.6107310 114.1089460   3.4309640 126.6827380 108.8964980
   2.6174250 126.1840550 108.8210290   3.2371590 127.5225630 108.4801330
   3.3518500 135.3598480 120.6404590   3.2855810 134.4394150 120.3862180
   2.7223640 135.4573920 121.3549230   6.1458030 131.0547030 107.1927140
   7.0337650 131.3664260 107.0178480   6.1163120 130.1819280 106.8007720
   2.1418620 137.2270720 107.8715310   2.4834320 137.9712950 107.3758630
   1.3131330 137.5401840 108.2340140   3.2835230 138.1819050 120.3908390
   3.2979770 137.2500010 120.1727300   2.5760330 138.2678810 121.0298160
   8.4172300 132.3658870 106.6607000   8.3336020 132.7973090 105.8103440
   9.1366490 132.8257220 107.0933820   9.4946440 134.8226390 119.7376970
   8.7694630 135.4155170 119.5406360  10.0221900 134.8149930 118.9390340
   9.4459550 139.2201130 109.3889130   8.8035710 138.5656750 109.6632850
   9.0590210 139.6256220 108.6129800   5.0246030 136.5486560 113.2360820
   5.3769850 135.9514690 112.5762190   4.1408360 136.2230790 113.4069070
   2.7169130 139.8236620 117.4848890   3.3611350 140.0296000 118.1622310
   3.0798570 139.0625020 117.0319740   3.9901210 137.8268970 116.2026340
   4.6323440 137.1262130 116.3158510   4.5150560 138.6067410 116.0223230
   7.8356930 138.1117590 105.9265480   7.6094510 137.3948030 106.5190120
   7.4453130 137.8630030 105.0887230   5.7638830 138.6263870 119.4062400
   6.0995070 139.2130560 120.0840320   4.8439170 138.4956580 119.6360190
   7.4173180 136.0289530 107.5879640   7.1294880 136.4902220 108.3757520
   8.2125350 135.5687300 107.8563860   4.8081010 128.9081360 117.9387260
   5.1761830 128.0876570 118.2666830   3.9479210 128.9683250 118.3542910
   8.1743040 127.8638300 108.7474820   7.5456200 127.9683970 108.0333050
   7.6794960 128.0835080 109.5368700   2.6201180 139.5843890 106.1808800
   2.7213160 139.3807880 105.2510780   1.7202920 139.3302170 106.3856580
   1.7683000 131.5620950 118.1625230   2.2668250 132.0366770 118.8277080
   1.9105950 130.6384470 118.3695260   4.1742500 126.8674910 111.6028490
   4.0510280 126.8861040 110.6538000   5.1227060 126.9153850 111.7226890
   8.9749860 127.7788910 119.0053620   8.4723460 128.5194310 119.3447430
   9.7906520 128.1672910 118.6890410   7.2671870 133.0222090 112.4514980
   6.3262010 133.0372320 112.6262670   7.5815940 132.2358050 112.8975280
   9.2697450 140.1930940 114.1269240   9.3944870 141.0162110 114.5993050
  10.1363010 139.9821670 113.7793390   4.5837890 137.5788090 122.9347360
   3.9776050 137.6019690 122.1943110   4.2792000 136.8471130 123.4714610
   6.0138260 141.3068380 121.5456770   6.9660010 141.2226400 121.4957010
   5.8666480 141.9710090 122.2190560   8.9047460 140.6862590 107.0448680
   8.6188970 140.2727730 106.2302860   8.7067010 141.6150300 106.9249200
   3.6097420 135.7415900 106.0896280   3.0607520 136.1885200 106.7339020
   4.2316680 135.2365150 106.6133950   7.6632360 137.0958000 122.0218540
   8.4041830 137.4333760 121.5186000   6.9005040 137.2650060 121.4688310
   1.7900180 133.7244430 105.2338680   2.3105840 133.0093450 104.8679830
   2.4368580 134.3630300 105.5339190   6.3378020 135.1472830 120.5573750
   6.7519040 135.3017910 121.4064170   5.4029020 135.2728050 120.7199530
   6.8100190 132.4868990 122.5612900   7.3920960 131.7321310 122.4733380
   6.9861960 133.0176430 121.7844380   3.4357150 132.8309490 119.9107520
   3.5553360 132.2350630 120.6502360   4.2951150 132.8679180 119.4908820
   5.7745050 133.3846680 118.4870030   5.2480270 133.9089300 117.8835170
   6.1176390 134.0174070 119.1179760   5.0219350 128.9896650 121.4016360
   4.3334870 128.3278190 121.3366350   5.7425370 128.5434920 121.8464820
   5.6519750 125.5848280 107.4606620   5.9322040 124.7416180 107.8166040
   4.8785480 125.8171390 107.9745370   2.3548210 141.8056040 107.5240420
   3.2499000 142.1441010 107.5459180   2.3865840 141.0835450 106.8964700
   9.3342560 140.3359710 120.2306620   8.7344550 140.3952270 119.4870540
   9.4636460 139.3964690 120.3603470  10.5744010 138.0777530 105.5676330
   9.7436970 138.1454180 106.0383560  10.7515840 138.9681650 105.2643190
  10.0300470 134.8225010 108.0710530  10.7919380 135.3921660 108.1770220
  10.0454840 134.2552210 108.8418840  11.0360440 135.6775110 112.9152460
  11.4069270 134.8942430 112.5088430  11.6762370 136.3664210 112.7369760
   8.0194200 137.0611690 118.3282780   7.2054040 137.4908850 118.5908570
   8.4268400 137.6730100 117.7151830  10.0819640 135.1159380 105.2283050
  10.3568480 136.0238260 105.1002270   9.8930380 135.0521910 106.1645040
   6.4795250 128.1404230 106.5236680   6.8980130 127.9535210 105.6833340
   6.1731310 127.2883280 106.8339610   9.9784980 133.0528370 110.2212480
   9.6028580 132.2856300 109.7893770   9.2488100 133.4351070 110.7087410
   9.3684600 132.1999890 119.8552000   9.1370690 131.9712640 118.9549950
   9.6289150 133.1199440 119.8096890   7.8072670 127.4256320 122.6331700
   8.6842850 127.4339720 123.0165700   7.8193510 126.6887160 122.0224050
   9.2535940 131.2785860 113.5219720   9.7773420 130.7848510 112.8909890
   9.8395360 131.4136220 114.2667290   9.4325660 131.3625730 117.0439270
   8.4828370 131.3289270 117.1584260   9.6138670 132.2725840 116.8089040
   8.7435910 130.5359210 109.4612130   9.2395030 130.3030080 110.2461010
   8.5451980 129.6971050 109.0449770  10.1723070 129.1720160 111.9949810
  10.0622350 129.0176200 112.9332080  10.9330660 128.6441100 111.7525220
   8.5188790 125.1114290 118.4532810   9.1561010 125.7248430 118.8192000
   8.6663680 125.1474950 117.5082040  11.0613340 127.0028080 105.2355950
  11.9862650 126.8709260 105.0274240  11.0389130 127.0820900 106.1892400
  11.1351830 127.7738740 107.8612660  10.3403330 127.7083860 108.3905570
  11.3395110 128.7089380 107.8498010   8.0770250 141.8130290 111.8551050
   8.6729320 141.4914860 111.1785470   8.3348400 141.3402110 112.6464320
   1.8893270 126.2640480 121.3607910   1.8282160 126.8562310 122.1103320
   2.8293650 126.1566440 121.2158170   4.5267830 125.9210540 121.0000200
   5.1408240 126.2389830 120.3381280   5.0717390 125.4359130 121.6196060
  10.9443010 141.8202170 118.4062040  10.4501290 142.2171040 117.6889170
  10.3356300 141.1951380 118.7999320   5.2675870 124.4842680 117.3269490
   4.3935710 124.8177790 117.1242420   5.1586620 124.0115860 118.1521360
   6.1747850 126.6913550 118.7111210   5.8461210 125.8765310 118.3312940
   7.1230150 126.6483360 118.5876900   8.6282460 142.4625590 115.6848780
   8.1685430 143.2141400 115.3106800   7.9994920 141.7432060 115.6263580
   1.7973680 141.6622320 115.6865890   2.0851490 141.4076620 114.8098900
   2.3096900 141.1099680 116.2771460   3.0150690 125.4012520 116.2662400
   2.2322480 125.8758020 116.5459160   2.7213620 124.4967350 116.1575580
   7.5671760 126.1035620 114.3111490   8.0079850 126.0480720 113.4633090
   7.2979350 127.0193630 114.3821670   9.4310330 125.7350860 112.3220310
   9.3698730 124.7912080 112.1751330  10.2102360 125.8430950 112.8673770
   5.4029890 124.4841720 113.0161500   6.0059260 125.0561930 113.4910020
   4.6622880 125.0481160 112.7935400   8.5464490 124.8863280 108.2901780
   8.7415120 125.7846730 108.5569210   7.7594360 124.6550360 108.7834730
   1.8646040 142.5838420 123.0534090   2.7913350 142.3482690 123.0970050
   1.8496470 143.4110420 122.5720120  10.0991100 142.1263990 110.0508340
  10.2743290 141.4401730 109.4069260   9.4012670 142.6511040 109.6585010
   5.6525110 124.6636750 123.3956440   5.5390560 124.9831360 124.2907960
   6.4694850 125.0649260 123.0993720   8.4323600 141.8108280 122.8775130
   9.2248920 141.3157510 122.6701090   8.7256750 142.4898420 123.4850740
   4.5583260 132.6829220  93.7591180   4.4777310 131.7683830  93.4882890
   4.1447680 133.1796290  93.0530890   2.6901300 134.4608240  95.6400450
   1.9143400 133.9808680  95.9299020   3.3414230 133.7813890  95.4656610
   6.7108730 138.8668430  94.4199580   6.2490260 138.0955670  94.7486750
   7.5234280 138.8934500  94.9252030   2.9372040 141.1526440  94.0403570
   2.3183480 141.6083940  93.4698010   3.7923820 141.3077900  93.6393270
   2.1310290 137.1365430  95.6470610   2.0618570 136.1955370  95.4859740
   2.8930150 137.2266840  96.2193180   3.1615460 129.9435810  95.8739540
   3.5380280 129.0707690  95.7613210   3.0634970 130.2794510  94.9829980
   6.9439580 127.4386250  92.8067880   7.7649200 126.9482820  92.8493360
   6.9773660 128.0283910  93.5599720  11.2339130 129.4553000  99.3711510
  10.5291300 129.8434710  98.8526620  11.4997050 130.1503290  99.9732440
   3.8035390 136.0365680  91.4335480   3.1852660 136.5015130  90.8698200
   4.3158640 136.7293160  91.8504990   7.1801060 129.3786630  95.5795420
   6.4756630 129.6671520  96.1598530   7.5413220 130.1886740  95.2194980
   8.7963840 138.9961760  97.8422900   8.1127360 139.6660870  97.8339570
   9.3358130 139.1942410  97.0767760  10.2487980 128.8241420  95.9704630
   9.3012890 128.8580400  96.1020060  10.5737970 129.6380370  96.3553990
   6.3322580 140.8405890  96.5568080   6.3449740 140.4368180  95.6890340
   5.7797800 141.6153180  96.4529510   7.6268000 137.5622110  91.6458250
   7.5164330 136.6196440  91.7707670   7.6236250 137.9237750  92.5321010
   5.7308020 135.7435730  97.8850690   6.1476810 135.5295840  97.0504150
   6.4547840 136.0008520  98.4559310   3.1688280 133.1887430  91.0020740
   2.2417560 133.1224810  91.2309210   3.3213100 134.1267560  90.8875980
   3.1557360 129.4604430  87.9987900   2.2161030 129.6218390  88.0840360
   3.4740620 130.1790110  87.4523890   9.6770120 134.1422950  97.9766930
   8.8488750 134.2116040  97.5017060  10.2720600 134.7277260  97.5082760
   7.1985570 134.7507730  91.5055990   6.5797990 134.4127280  90.8582290
   7.1810020 134.1067490  92.2135180   6.6412130 130.9292270  98.9221800
   6.2283310 131.7545980  99.1761790   5.9088080 130.3437310  98.7298160
   7.3312230 140.9751600  99.6102780   6.8542790 141.7823790  99.4175390
   6.6474020 140.3229930  99.7628990   5.3750270 133.9894540  88.5128740
   5.8143550 133.1516970  88.3666560   6.0878690 134.6223940  88.5992880
   3.4845650 138.9290610  92.4809980   3.9241560 139.6714940  92.0665370
   3.4232540 139.1717180  93.4048940   8.9567410 125.2437350  86.8269780
   8.6440070 125.3364180  87.7268850   9.7179880 125.8218380  86.7767210
  10.9111440 140.7363540 104.6794170  11.3871160 141.2146430 105.3583250
  11.5318600 140.6681030 103.9539670  10.3144690 137.9276390 101.8394180
  10.4407750 137.6888270 100.9211360  10.3566070 137.0960930 102.3116260
   4.1761430 141.6304390 100.4088990   4.6906100 141.5412400 101.2111420
   3.3330510 141.9764090 100.7016900   6.1515830 141.9159730  89.8372990
   5.9916970 141.6262670  90.7354820   5.9862540 141.1399860  89.3018220
   5.8541960 139.4247290  88.3970990   5.1607120 139.4224580  87.7373270
   6.5964820 139.0006610  87.9665160   5.4191890 141.0510000  92.4719480
   5.8748840 140.2699380  92.7858100   5.7584410 141.7616820  93.0160660
  10.1668700 129.9808850 102.8043920   9.5512970 130.4888520 102.2759380
   9.8465120 129.0807180 102.7469860   2.2283020 128.8200740 100.2706110
   1.7662390 129.0283760 101.0826050   1.8261130 128.0060090  99.9676780
   7.2287530 130.0409690 101.4002770   6.3781120 129.7415440 101.7211840
   7.0689320 130.2851700 100.4886590   4.3237240 131.5411440 103.5001560
   4.6490650 130.7075190 103.1603790   5.1117570 132.0639960 103.6479890
   4.9625190 131.0829160  90.9942690   4.3634080 131.8064960  90.8106310
   5.5104800 131.0205940  90.2119140   3.5690060 129.7192700  93.0245970
   3.9619630 130.0364900  92.2114660   3.9306910 128.8404580  93.1390490
   4.1545200 132.3098450  97.1196750   3.4226320 132.8185260  97.4686850
   3.7569540 131.4928430  96.8185530   4.6171110 127.7632130  96.5319690
   4.6343850 128.2140780  97.3761540   4.3686690 126.8637770  96.7453130
   8.0441860 125.1764310 102.3706070   8.3687630 124.4453970 102.8964050
   8.0798370 124.8577950 101.4687060   7.9699700 135.2889420  95.9792100
   8.6898820 135.7844710  95.5888210   7.7681520 134.6107310  95.3345970
   3.4309640 126.6827380  90.1221490   2.6174250 126.1840550  90.0466800
   3.2371590 127.5225630  89.7057840   3.3518500 135.3598480 101.8661100
   3.2855810 134.4394150 101.6118690   2.7223640 135.4573920 102.5805740
   6.1458030 131.0547030  88.4183650   7.0337650 131.3664260  88.2434990
   6.1163120 130.1819280  88.0264230   2.1418620 137.2270720  89.0971820
   2.4834320 137.9712950  88.6015140   1.3131330 137.5401840  89.4596650
   3.2835230 138.1819050 101.6164900   3.2979770 137.2500010 101.3983810
   2.5760330 138.2678810 102.2554670   8.4172300 132.3658870  87.8863510
   8.3336020 132.7973090  87.0359950   9.1366490 132.8257220  88.3190330
   9.4946440 134.8226390 100.9633480   8.7694630 135.4155170 100.7662870
  10.0221900 134.8149930 100.1646850   9.4459550 139.2201130  90.6145640
   8.8035710 138.5656750  90.8889360   9.0590210 139.6256220  89.8386310
   5.0246030 136.5486560  94.4617330   5.3769850 135.9514690  93.8018700
   4.1408360 136.2230790  94.6325580   2.7169130 139.8236620  98.7105400
   3.3611350 140.0296000  99.3878820   3.0798570 139.0625020  98.2576250
   3.9901210 137.8268970  97.4282850   4.6323440 137.1262130  97.5415020
   4.5150560 138.6067410  97.2479740   7.8356930 138.1117590  87.1521990
   7.6094510 137.3948030  87.7446630   7.4453130 137.8630030  86.3143740
   5.7638830 138.6263870 100.6318910   6.0995070 139.2130560 101.3096830
   4.8439170 138.4956580 100.8616700   7.4173180 136.0289530  88.8136150
   7.1294880 136.4902220  89.6014030   8.2125350 135.5687300  89.0820370
   4.8081010 128.9081360  99.1643770   5.1761830 128.0876570  99.4923340
   3.9479210 128.9683250  99.5799420   8.1743040 127.8638300  89.9731330
   7.5456200 127.9683970  89.2589560   7.6794960 128.0835080  90.7625210
   2.6201180 139.5843890  87.4065310   2.7213160 139.3807880  86.4767290
   1.7202920 139.3302170  87.6113090   1.7683000 131.5620950  99.3881740
   2.2668250 132.0366770 100.0533590   1.9105950 130.6384470  99.5951770
   4.1742500 126.8674910  92.8285000   4.0510280 126.8861040  91.8794510
   5.1227060 126.9153850  92.9483400   8.9749860 127.7788910 100.2310130
   8.4723460 128.5194310 100.5703940   9.7906520 128.1672910  99.9146920
   7.2671870 133.0222090  93.6771490   6.3262010 133.0372320  93.8519180
   7.5815940 132.2358050  94.1231790   9.2697450 140.1930940  95.3525750
   9.3944870 141.0162110  95.8249560  10.1363010 139.9821670  95.0049900
   4.5837890 137.5788090 104.1603870   3.9776050 137.6019690 103.4199620
   4.2792000 136.8471130 104.6971120   6.0138260 141.3068380 102.7713280
   6.9660010 141.2226400 102.7213520   5.8666480 141.9710090 103.4447070
   8.9047460 140.6862590  88.2705190   8.6188970 140.2727730  87.4559370
   8.7067010 141.6150300  88.1505710   3.6097420 135.7415900  87.3152790
   3.0607520 136.1885200  87.9595530   4.2316680 135.2365150  87.8390460
   7.6632360 137.0958000 103.2475050   8.4041830 137.4333760 102.7442510
   6.9005040 137.2650060 102.6944820   1.7900180 133.7244430  86.4595190
   2.3105840 133.0093450  86.0936340   2.4368580 134.3630300  86.7595700
   6.3378020 135.1472830 101.7830260   6.7519040 135.3017910 102.6320680
   5.4029020 135.2728050 101.9456040   6.8100190 132.4868990 103.7869410
   7.3920960 131.7321310 103.6989890   6.9861960 133.0176430 103.0100890
   3.4357150 132.8309490 101.1364030   3.5553360 132.2350630 101.8758870
   4.2951150 132.8679180 100.7165330   5.7745050 133.3846680  99.7126540
   5.2480270 133.9089300  99.1091680   6.1176390 134.0174070 100.3436270
   5.0219350 128.9896650 102.6272870   4.3334870 128.3278190 102.5622860
   5.7425370 128.5434920 103.0721330   5.6519750 125.5848280  88.6863130
   5.9322040 124.7416180  89.0422550   4.8785480 125.8171390  89.2001880
   2.3548210 141.8056040  88.7496930   3.2499000 142.1441010  88.7715690
   2.3865840 141.0835450  88.1221210   9.3342560 140.3359710 101.4563130
   8.7344550 140.3952270 100.7127050   9.4636460 139.3964690 101.5859980
  10.5744010 138.0777530  86.7932840   9.7436970 138.1454180  87.2640070
  10.7515840 138.9681650  86.4899700  10.0300470 134.8225010  89.2967040
  10.7919380 135.3921660  89.4026730  10.0454840 134.2552210  90.0675350
  11.0360440 135.6775110  94.1408970  11.4069270 134.8942430  93.7344940
  11.6762370 136.3664210  93.9626270   8.0194200 137.0611690  99.5539290
   7.2054040 137.4908850  99.8165080   8.4268400 137.6730100  98.9408340
  10.0819640 135.1159380  86.4539560  10.3568480 136.0238260  86.3258780
   9.8930380 135.0521910  87.3901550   6.4795250 128.1404230  87.7493190
   6.8980130 127.9535210  86.9089850   6.1731310 127.2883280  88.0596120
   9.9784980 133.0528370  91.4468990   9.6028580 132.2856300  91.0150280
   9.2488100 133.4351070  91.9343920   9.3684600 132.1999890 101.0808510
   9.1370690 131.9712640 100.1806460   9.6289150 133.1199440 101.0353400
   7.8072670 127.4256320 103.8588210   8.6842850 127.4339720 104.2422210
   7.8193510 126.6887160 103.2480560   9.2535940 131.2785860  94.7476230
   9.7773420 130.7848510  94.1166400   9.8395360 131.4136220  95.4923800
   9.4325660 131.3625730  98.2695780   8.4828370 131.3289270  98.3840770
   9.6138670 132.2725840  98.0345550   8.7435910 130.5359210  90.6868640
   9.2395030 130.3030080  91.4717520   8.5451980 129.6971050  90.2706280
  10.1723070 129.1720160  93.2206320  10.0622350 129.0176200  94.1588590
  10.9330660 128.6441100  92.9781730   8.5188790 125.1114290  99.6789320
   9.1561010 125.7248430 100.0448510   8.6663680 125.1474950  98.7338550
  11.0613340 127.0028080  86.4612460  11.9862650 126.8709260  86.2530750
  11.0389130 127.0820900  87.4148910  11.1351830 127.7738740  89.0869170
  10.3403330 127.7083860  89.6162080  11.3395110 128.7089380  89.0754520
   8.0770250 141.8130290  93.0807560   8.6729320 141.4914860  92.4041980
   8.3348400 141.3402110  93.8720830   1.8893270 126.2640480 102.5864420
   1.8282160 126.8562310 103.3359830   2.8293650 126.1566440 102.4414680
   4.5267830 125.9210540 102.2256710   5.1408240 126.2389830 101.5637790
   5.0717390 125.4359130 102.8452570  10.9443010 141.8202170  99.6318550
  10.4501290 142.2171040  98.9145680  10.3356300 141.1951380 100.0255830
   5.2675870 124.4842680  98.5526000   4.3935710 124.8177790  98.3498930
   5.1586620 124.0115860  99.3777870   6.1747850 126.6913550  99.9367720
   5.8461210 125.8765310  99.5569450   7.1230150 126.6483360  99.8133410
   8.6282460 142.4625590  96.9105290   8.1685430 143.2141400  96.5363310
   7.9994920 141.7432060  96.8520090   1.7973680 141.6622320  96.9122400
   2.0851490 141.4076620  96.0355410   2.3096900 141.1099680  97.5027970
   3.0150690 125.4012520  97.4918910   2.2322480 125.8758020  97.7715670
   2.7213620 124.4967350  97.3832090   7.5671760 126.1035620  95.5368000
   8.0079850 126.0480720  94.6889600   7.2979350 127.0193630  95.6078180
   9.4310330 125.7350860  93.5476820   9.3698730 124.7912080  93.4007840
  10.2102360 125.8430950  94.0930280   5.4029890 124.4841720  94.2418010
   6.0059260 125.0561930  94.7166530   4.6622880 125.0481160  94.0191910
   8.5464490 124.8863280  89.5158290   8.7415120 125.7846730  89.7825720
   7.7594360 124.6550360  90.0091240   1.8646040 142.5838420 104.2790600
   2.7913350 142.3482690 104.3226560   1.8496470 143.4110420 103.7976630
  10.0991100 142.1263990  91.2764850  10.2743290 141.4401730  90.6325770
   9.4012670 142.6511040  90.8841520   5.6525110 124.6636750 104.6212950
   5.5390560 124.9831360 105.5164470   6.4694850 125.0649260 104.3250230
   8.4323600 141.8108280 104.1031640   9.2248920 141.3157510 103.8957600
   8.7256750 142.4898420 104.7107250   4.5583260 132.6829220  74.9847690
   4.4777310 131.7683830  74.7139400   4.1447680 133.1796290  74.2787400
   2.6901300 134.4608240  76.8656960   1.9143400 133.9808680  77.1555530
   3.3414230 133.7813890  76.6913120   6.7108730 138.8668430  75.6456090
   6.2490260 138.0955670  75.9743260   7.5234280 138.8934500  76.1508540
   2.9372040 141.1526440  75.2660080   2.3183480 141.6083940  74.6954520
   3.7923820 141.3077900  74.8649780   2.1310290 137.1365430  76.8727120
   2.0618570 136.1955370  76.7116250   2.8930150 137.2266840  77.4449690
   3.1615460 129.9435810  77.0996050   3.5380280 129.0707690  76.9869720
   3.0634970 130.2794510  76.2086490   6.9439580 127.4386250  74.0324390
   7.7649200 126.9482820  74.0749870   6.9773660 128.0283910  74.7856230
  11.2339130 129.4553000  80.5968020  10.5291300 129.8434710  80.0783130
  11.4997050 130.1503290  81.1988950   3.8035390 136.0365680  72.6591990
   3.1852660 136.5015130  72.0954710   4.3158640 136.7293160  73.0761500
   7.1801060 129.3786630  76.8051930   6.4756630 129.6671520  77.3855040
   7.5413220 130.1886740  76.4451490   8.7963840 138.9961760  79.0679410
   8.1127360 139.6660870  79.0596080   9.3358130 139.1942410  78.3024270
  10.2487980 128.8241420  77.1961140   9.3012890 128.8580400  77.3276570
  10.5737970 129.6380370  77.5810500   6.3322580 140.8405890  77.7824590
   6.3449740 140.4368180  76.9146850   5.7797800 141.6153180  77.6786020
   7.6268000 137.5622110  72.8714760   7.5164330 136.6196440  72.9964180
   7.6236250 137.9237750  73.7577520   5.7308020 135.7435730  79.1107200
   6.1476810 135.5295840  78.2760660   6.4547840 136.0008520  79.6815820
   3.1688280 133.1887430  72.2277250   2.2417560 133.1224810  72.4565720
   3.3213100 134.1267560  72.1132490   3.1557360 129.4604430  69.2244410
   2.2161030 129.6218390  69.3096870   3.4740620 130.1790110  68.6780400
   9.6770120 134.1422950  79.2023440   8.8488750 134.2116040  78.7273570
  10.2720600 134.7277260  78.7339270   7.1985570 134.7507730  72.7312500
   6.5797990 134.4127280  72.0838800   7.1810020 134.1067490  73.4391690
   6.6412130 130.9292270  80.1478310   6.2283310 131.7545980  80.4018300
   5.9088080 130.3437310  79.9554670   7.3312230 140.9751600  80.8359290
   6.8542790 141.7823790  80.6431900   6.6474020 140.3229930  80.9885500
   5.3750270 133.9894540  69.7385250   5.8143550 133.1516970  69.5923070
   6.0878690 134.6223940  69.8249390   3.4845650 138.9290610  73.7066490
   3.9241560 139.6714940  73.2921880   3.4232540 139.1717180  74.6305450
   8.9567410 125.2437350  68.0526290   8.6440070 125.3364180  68.9525360
   9.7179880 125.8218380  68.0023720  10.9111440 140.7363540  85.9050680
  11.3871160 141.2146430  86.5839760  11.5318600 140.6681030  85.1796180
  10.3144690 137.9276390  83.0650690  10.4407750 137.6888270  82.1467870
  10.3566070 137.0960930  83.5372770   4.1761430 141.6304390  81.6345500
   4.6906100 141.5412400  82.4367930   3.3330510 141.9764090  81.9273410
   6.1515830 141.9159730  71.0629500   5.9916970 141.6262670  71.9611330
   5.9862540 141.1399860  70.5274730   5.8541960 139.4247290  69.6227500
   5.1607120 139.4224580  68.9629780   6.5964820 139.0006610  69.1921670
   5.4191890 141.0510000  73.6975990   5.8748840 140.2699380  74.0114610
   5.7584410 141.7616820  74.2417170  10.1668700 129.9808850  84.0300430
   9.5512970 130.4888520  83.5015890   9.8465120 129.0807180  83.9726370
   2.2283020 128.8200740  81.4962620   1.7662390 129.0283760  82.3082560
   1.8261130 128.0060090  81.1933290   7.2287530 130.0409690  82.6259280
   6.3781120 129.7415440  82.9468350   7.0689320 130.2851700  81.7143100
   4.3237240 131.5411440  84.7258070   4.6490650 130.7075190  84.3860300
   5.1117570 132.0639960  84.8736400   4.9625190 131.0829160  72.2199200
   4.3634080 131.8064960  72.0362820   5.5104800 131.0205940  71.4375650
   3.5690060 129.7192700  74.2502480   3.9619630 130.0364900  73.4371170
   3.9306910 128.8404580  74.3647000   4.1545200 132.3098450  78.3453260
   3.4226320 132.8185260  78.6943360   3.7569540 131.4928430  78.0442040
   4.6171110 127.7632130  77.7576200   4.6343850 128.2140780  78.6018050
   4.3686690 126.8637770  77.9709640   8.0441860 125.1764310  83.5962580
   8.3687630 124.4453970  84.1220560   8.0798370 124.8577950  82.6943570
   7.9699700 135.2889420  77.2048610   8.6898820 135.7844710  76.8144720
   7.7681520 134.6107310  76.5602480   3.4309640 126.6827380  71.3478000
   2.6174250 126.1840550  71.2723310   3.2371590 127.5225630  70.9314350
   3.3518500 135.3598480  83.0917610   3.2855810 134.4394150  82.8375200
   2.7223640 135.4573920  83.8062250   6.1458030 131.0547030  69.6440160
   7.0337650 131.3664260  69.4691500   6.1163120 130.1819280  69.2520740
   2.1418620 137.2270720  70.3228330   2.4834320 137.9712950  69.8271650
   1.3131330 137.5401840  70.6853160   3.2835230 138.1819050  82.8421410
   3.2979770 137.2500010  82.6240320   2.5760330 138.2678810  83.4811180
   8.4172300 132.3658870  69.1120020   8.3336020 132.7973090  68.2616460
   9.1366490 132.8257220  69.5446840   9.4946440 134.8226390  82.1889990
   8.7694630 135.4155170  81.9919380  10.0221900 134.8149930  81.3903360
   9.4459550 139.2201130  71.8402150   8.8035710 138.5656750  72.1145870
   9.0590210 139.6256220  71.0642820   5.0246030 136.5486560  75.6873840
   5.3769850 135.9514690  75.0275210   4.1408360 136.2230790  75.8582090
   2.7169130 139.8236620  79.9361910   3.3611350 140.0296000  80.6135330
   3.0798570 139.0625020  79.4832760   3.9901210 137.8268970  78.6539360
   4.6323440 137.1262130  78.7671530   4.5150560 138.6067410  78.4736250
   7.8356930 138.1117590  68.3778500   7.6094510 137.3948030  68.9703140
   7.4453130 137.8630030  67.5400250   5.7638830 138.6263870  81.8575420
   6.0995070 139.2130560  82.5353340   4.8439170 138.4956580  82.0873210
   7.4173180 136.0289530  70.0392660   7.1294880 136.4902220  70.8270540
   8.2125350 135.5687300  70.3076880   4.8081010 128.9081360  80.3900280
   5.1761830 128.0876570  80.7179850   3.9479210 128.9683250  80.8055930
   8.1743040 127.8638300  71.1987840   7.5456200 127.9683970  70.4846070
   7.6794960 128.0835080  71.9881720   2.6201180 139.5843890  68.6321820
   2.7213160 139.3807880  67.7023800   1.7202920 139.3302170  68.8369600
   1.7683000 131.5620950  80.6138250   2.2668250 132.0366770  81.2790100
   1.9105950 130.6384470  80.8208280   4.1742500 126.8674910  74.0541510
   4.0510280 126.8861040  73.1051020   5.1227060 126.9153850  74.1739910
   8.9749860 127.7788910  81.4566640   8.4723460 128.5194310  81.7960450
   9.7906520 128.1672910  81.1403430   7.2671870 133.0222090  74.9028000
   6.3262010 133.0372320  75.0775690   7.5815940 132.2358050  75.3488300
   9.2697450 140.1930940  76.5782260   9.3944870 141.0162110  77.0506070
  10.1363010 139.9821670  76.2306410   4.5837890 137.5788090  85.3860380
   3.9776050 137.6019690  84.6456130   4.2792000 136.8471130  85.9227630
   6.0138260 141.3068380  83.9969790   6.9660010 141.2226400  83.9470030
   5.8666480 141.9710090  84.6703580   8.9047460 140.6862590  69.4961700
   8.6188970 140.2727730  68.6815880   8.7067010 141.6150300  69.3762220
   3.6097420 135.7415900  68.5409300   3.0607520 136.1885200  69.1852040
   4.2316680 135.2365150  69.0646970   7.6632360 137.0958000  84.4731560
   8.4041830 137.4333760  83.9699020   6.9005040 137.2650060  83.9201330
   1.7900180 133.7244430  67.6851700   2.3105840 133.0093450  67.3192850
   2.4368580 134.3630300  67.9852210   6.3378020 135.1472830  83.0086770
   6.7519040 135.3017910  83.8577190   5.4029020 135.2728050  83.1712550
   6.8100190 132.4868990  85.0125920   7.3920960 131.7321310  84.9246400
   6.9861960 133.0176430  84.2357400   3.4357150 132.8309490  82.3620540
   3.5553360 132.2350630  83.1015380   4.2951150 132.8679180  81.9421840
   5.7745050 133.3846680  80.9383050   5.2480270 133.9089300  80.3348190
   6.1176390 134.0174070  81.5692780   5.0219350 128.9896650  83.8529380
   4.3334870 128.3278190  83.7879370   5.7425370 128.5434920  84.2977840
   5.6519750 125.5848280  69.9119640   5.9322040 124.7416180  70.2679060
   4.8785480 125.8171390  70.4258390   2.3548210 141.8056040  69.9753440
   3.2499000 142.1441010  69.9972200   2.3865840 141.0835450  69.3477720
   9.3342560 140.3359710  82.6819640   8.7344550 140.3952270  81.9383560
   9.4636460 139.3964690  82.8116490  10.5744010 138.0777530  68.0189350
   9.7436970 138.1454180  68.4896580  10.7515840 138.9681650  67.7156210
  10.0300470 134.8225010  70.5223550  10.7919380 135.3921660  70.6283240
  10.0454840 134.2552210  71.2931860  11.0360440 135.6775110  75.3665480
  11.4069270 134.8942430  74.9601450  11.6762370 136.3664210  75.1882780
   8.0194200 137.0611690  80.7795800   7.2054040 137.4908850  81.0421590
   8.4268400 137.6730100  80.1664850  10.0819640 135.1159380  67.6796070
  10.3568480 136.0238260  67.5515290   9.8930380 135.0521910  68.6158060
   6.4795250 128.1404230  68.9749700   6.8980130 127.9535210  68.1346360
   6.1731310 127.2883280  69.2852630   9.9784980 133.0528370  72.6725500
   9.6028580 132.2856300  72.2406790   9.2488100 133.4351070  73.1600430
   9.3684600 132.1999890  82.3065020   9.1370690 131.9712640  81.4062970
   9.6289150 133.1199440  82.2609910   7.8072670 127.4256320  85.0844720
   8.6842850 127.4339720  85.4678720   7.8193510 126.6887160  84.4737070
   9.2535940 131.2785860  75.9732740   9.7773420 130.7848510  75.3422910
   9.8395360 131.4136220  76.7180310   9.4325660 131.3625730  79.4952290
   8.4828370 131.3289270  79.6097280   9.6138670 132.2725840  79.2602060
   8.7435910 130.5359210  71.9125150   9.2395030 130.3030080  72.6974030
   8.5451980 129.6971050  71.4962790  10.1723070 129.1720160  74.4462830
  10.0622350 129.0176200  75.3845100  10.9330660 128.6441100  74.2038240
   8.5188790 125.1114290  80.9045830   9.1561010 125.7248430  81.2705020
   8.6663680 125.1474950  79.9595060  11.0613340 127.0028080  67.6868970
  11.9862650 126.8709260  67.4787260  11.0389130 127.0820900  68.6405420
  11.1351830 127.7738740  70.3125680  10.3403330 127.7083860  70.8418590
  11.3395110 128.7089380  70.3011030   8.0770250 141.8130290  74.3064070
   8.6729320 141.4914860  73.6298490   8.3348400 141.3402110  75.0977340
   1.8893270 126.2640480  83.8120930   1.8282160 126.8562310  84.5616340
   2.8293650 126.1566440  83.6671190   4.5267830 125.9210540  83.4513220
   5.1408240 126.2389830  82.7894300   5.0717390 125.4359130  84.0709080
  10.9443010 141.8202170  80.8575060  10.4501290 142.2171040  80.1402190
  10.3356300 141.1951380  81.2512340   5.2675870 124.4842680  79.7782510
   4.3935710 124.8177790  79.5755440   5.1586620 124.0115860  80.6034380
   6.1747850 126.6913550  81.1624230   5.8461210 125.8765310  80.7825960
   7.1230150 126.6483360  81.0389920   8.6282460 142.4625590  78.1361800
   8.1685430 143.2141400  77.7619820   7.9994920 141.7432060  78.0776600
   1.7973680 141.6622320  78.1378910   2.0851490 141.4076620  77.2611920
   2.3096900 141.1099680  78.7284480   3.0150690 125.4012520  78.7175420
   2.2322480 125.8758020  78.9972180   2.7213620 124.4967350  78.6088600
   7.5671760 126.1035620  76.7624510   8.0079850 126.0480720  75.9146110
   7.2979350 127.0193630  76.8334690   9.4310330 125.7350860  74.7733330
   9.3698730 124.7912080  74.6264350  10.2102360 125.8430950  75.3186790
   5.4029890 124.4841720  75.4674520   6.0059260 125.0561930  75.9423040
   4.6622880 125.0481160  75.2448420   8.5464490 124.8863280  70.7414800
   8.7415120 125.7846730  71.0082230   7.7594360 124.6550360  71.2347750
   1.8646040 142.5838420  85.5047110   2.7913350 142.3482690  85.5483070
   1.8496470 143.4110420  85.0233140  10.0991100 142.1263990  72.5021360
  10.2743290 141.4401730  71.8582280   9.4012670 142.6511040  72.1098030
   5.6525110 124.6636750  85.8469460   5.5390560 124.9831360  86.7420980
   6.4694850 125.0649260  85.5506740   8.4323600 141.8108280  85.3288150
   9.2248920 141.3157510  85.1214110   8.7256750 142.4898420  85.9363760
   4.5583260 132.6829220  56.2104200   4.4777310 131.7683830  55.9395910
   4.1447680 133.1796290  55.5043910   2.6901300 134.4608240  58.0913470
   1.9143400 133.9808680  58.3812040   3.3414230 133.7813890  57.9169630
   6.7108730 138.8668430  56.8712600   6.2490260 138.0955670  57.1999770
   7.5234280 138.8934500  57.3765050   2.9372040 141.1526440  56.4916590
   2.3183480 141.6083940  55.9211030   3.7923820 141.3077900  56.0906290
   2.1310290 137.1365430  58.0983630   2.0618570 136.1955370  57.9372760
   2.8930150 137.2266840  58.6706200   3.1615460 129.9435810  58.3252560
   3.5380280 129.0707690  58.2126230   3.0634970 130.2794510  57.4343000
   6.9439580 127.4386250  55.2580900   7.7649200 126.9482820  55.3006380
   6.9773660 128.0283910  56.0112740  11.2339130 129.4553000  61.8224530
  10.5291300 129.8434710  61.3039640  11.4997050 130.1503290  62.4245460
   3.8035390 136.0365680  53.8848500   3.1852660 136.5015130  53.3211220
   4.3158640 136.7293160  54.3018010   7.1801060 129.3786630  58.0308440
   6.4756630 129.6671520  58.6111550   7.5413220 130.1886740  57.6708000
   8.7963840 138.9961760  60.2935920   8.1127360 139.6660870  60.2852590
   9.3358130 139.1942410  59.5280780  10.2487980 128.8241420  58.4217650
   9.3012890 128.8580400  58.5533080  10.5737970 129.6380370  58.8067010
   6.3322580 140.8405890  59.0081100   6.3449740 140.4368180  58.1403360
   5.7797800 141.6153180  58.9042530   7.6268000 137.5622110  54.0971270
   7.5164330 136.6196440  54.2220690   7.6236250 137.9237750  54.9834030
   5.7308020 135.7435730  60.3363710   6.1476810 135.5295840  59.5017170
   6.4547840 136.0008520  60.9072330   3.1688280 133.1887430  53.4533760
   2.2417560 133.1224810  53.6822230   3.3213100 134.1267560  53.3389000
   3.1557360 129.4604430  50.4500920   2.2161030 129.6218390  50.5353380
   3.4740620 130.1790110  49.9036910   9.6770120 134.1422950  60.4279950
   8.8488750 134.2116040  59.9530080  10.2720600 134.7277260  59.9595780
   7.1985570 134.7507730  53.9569010   6.5797990 134.4127280  53.3095310
   7.1810020 134.1067490  54.6648200   6.6412130 130.9292270  61.3734820
   6.2283310 131.7545980  61.6274810   5.9088080 130.3437310  61.1811180
   7.3312230 140.9751600  62.0615800   6.8542790 141.7823790  61.8688410
   6.6474020 140.3229930  62.2142010   5.3750270 133.9894540  50.9641760
   5.8143550 133.1516970  50.8179580   6.0878690 134.6223940  51.0505900
   3.4845650 138.9290610  54.9323000   3.9241560 139.6714940  54.5178390
   3.4232540 139.1717180  55.8561960   8.9567410 125.2437350  49.2782800
   8.6440070 125.3364180  50.1781870   9.7179880 125.8218380  49.2280230
  10.9111440 140.7363540  67.1307190  11.3871160 141.2146430  67.8096270
  11.5318600 140.6681030  66.4052690  10.3144690 137.9276390  64.2907200
  10.4407750 137.6888270  63.3724380  10.3566070 137.0960930  64.7629280
   4.1761430 141.6304390  62.8602010   4.6906100 141.5412400  63.6624440
   3.3330510 141.9764090  63.1529920   6.1515830 141.9159730  52.2886010
   5.9916970 141.6262670  53.1867840   5.9862540 141.1399860  51.7531240
   5.8541960 139.4247290  50.8484010   5.1607120 139.4224580  50.1886290
   6.5964820 139.0006610  50.4178180   5.4191890 141.0510000  54.9232500
   5.8748840 140.2699380  55.2371120   5.7584410 141.7616820  55.4673680
  10.1668700 129.9808850  65.2556940   9.5512970 130.4888520  64.7272400
   9.8465120 129.0807180  65.1982880   2.2283020 128.8200740  62.7219130
   1.7662390 129.0283760  63.5339070   1.8261130 128.0060090  62.4189800
   7.2287530 130.0409690  63.8515790   6.3781120 129.7415440  64.1724860
   7.0689320 130.2851700  62.9399610   4.3237240 131.5411440  65.9514580
   4.6490650 130.7075190  65.6116810   5.1117570 132.0639960  66.0992910
   4.9625190 131.0829160  53.4455710   4.3634080 131.8064960  53.2619330
   5.5104800 131.0205940  52.6632160   3.5690060 129.7192700  55.4758990
   3.9619630 130.0364900  54.6627680   3.9306910 128.8404580  55.5903510
   4.1545200 132.3098450  59.5709770   3.4226320 132.8185260  59.9199870
   3.7569540 131.4928430  59.2698550   4.6171110 127.7632130  58.9832710
   4.6343850 128.2140780  59.8274560   4.3686690 126.8637770  59.1966150
   8.0441860 125.1764310  64.8219090   8.3687630 124.4453970  65.3477070
   8.0798370 124.8577950  63.9200080   7.9699700 135.2889420  58.4305120
   8.6898820 135.7844710  58.0401230   7.7681520 134.6107310  57.7858990
   3.4309640 126.6827380  52.5734510   2.6174250 126.1840550  52.4979820
   3.2371590 127.5225630  52.1570860   3.3518500 135.3598480  64.3174120
   3.2855810 134.4394150  64.0631710   2.7223640 135.4573920  65.0318760
   6.1458030 131.0547030  50.8696670   7.0337650 131.3664260  50.6948010
   6.1163120 130.1819280  50.4777250   2.1418620 137.2270720  51.5484840
   2.4834320 137.9712950  51.0528160   1.3131330 137.5401840  51.9109670
   3.2835230 138.1819050  64.0677920   3.2979770 137.2500010  63.8496830
   2.5760330 138.2678810  64.7067690   8.4172300 132.3658870  50.3376530
   8.3336020 132.7973090  49.4872970   9.1366490 132.8257220  50.7703350
   9.4946440 134.8226390  63.4146500   8.7694630 135.4155170  63.2175890
  10.0221900 134.8149930  62.6159870   9.4459550 139.2201130  53.0658660
   8.8035710 138.5656750  53.3402380   9.0590210 139.6256220  52.2899330
   5.0246030 136.5486560  56.9130350   5.3769850 135.9514690  56.2531720
   4.1408360 136.2230790  57.0838600   2.7169130 139.8236620  61.1618420
   3.3611350 140.0296000  61.8391840   3.0798570 139.0625020  60.7089270
   3.9901210 137.8268970  59.8795870   4.6323440 137.1262130  59.9928040
   4.5150560 138.6067410  59.6992760   7.8356930 138.1117590  49.6035010
   7.6094510 137.3948030  50.1959650   7.4453130 137.8630030  48.7656760
   5.7638830 138.6263870  63.0831930   6.0995070 139.2130560  63.7609850
   4.8439170 138.4956580  63.3129720   7.4173180 136.0289530  51.2649170
   7.1294880 136.4902220  52.0527050   8.2125350 135.5687300  51.5333390
   4.8081010 128.9081360  61.6156790   5.1761830 128.0876570  61.9436360
   3.9479210 128.9683250  62.0312440   8.1743040 127.8638300  52.4244350
   7.5456200 127.9683970  51.7102580   7.6794960 128.0835080  53.2138230
   2.6201180 139.5843890  49.8578330   2.7213160 139.3807880  48.9280310
   1.7202920 139.3302170  50.0626110   1.7683000 131.5620950  61.8394760
   2.2668250 132.0366770  62.5046610   1.9105950 130.6384470  62.0464790
   4.1742500 126.8674910  55.2798020   4.0510280 126.8861040  54.3307530
   5.1227060 126.9153850  55.3996420   8.9749860 127.7788910  62.6823150
   8.4723460 128.5194310  63.0216960   9.7906520 128.1672910  62.3659940
   7.2671870 133.0222090  56.1284510   6.3262010 133.0372320  56.3032200
   7.5815940 132.2358050  56.5744810   9.2697450 140.1930940  57.8038770
   9.3944870 141.0162110  58.2762580  10.1363010 139.9821670  57.4562920
   4.5837890 137.5788090  66.6116890   3.9776050 137.6019690  65.8712640
   4.2792000 136.8471130  67.1484140   6.0138260 141.3068380  65.2226300
   6.9660010 141.2226400  65.1726540   5.8666480 141.9710090  65.8960090
   8.9047460 140.6862590  50.7218210   8.6188970 140.2727730  49.9072390
   8.7067010 141.6150300  50.6018730   3.6097420 135.7415900  49.7665810
   3.0607520 136.1885200  50.4108550   4.2316680 135.2365150  50.2903480
   7.6632360 137.0958000  65.6988070   8.4041830 137.4333760  65.1955530
   6.9005040 137.2650060  65.1457840   1.7900180 133.7244430  48.9108210
   2.3105840 133.0093450  48.5449360   2.4368580 134.3630300  49.2108720
   6.3378020 135.1472830  64.2343280   6.7519040 135.3017910  65.0833700
   5.4029020 135.2728050  64.3969060   6.8100190 132.4868990  66.2382430
   7.3920960 131.7321310  66.1502910   6.9861960 133.0176430  65.4613910
   3.4357150 132.8309490  63.5877050   3.5553360 132.2350630  64.3271890
   4.2951150 132.8679180  63.1678350   5.7745050 133.3846680  62.1639560
   5.2480270 133.9089300  61.5604700   6.1176390 134.0174070  62.7949290
   5.0219350 128.9896650  65.0785890   4.3334870 128.3278190  65.0135880
   5.7425370 128.5434920  65.5234350   5.6519750 125.5848280  51.1376150
   5.9322040 124.7416180  51.4935570   4.8785480 125.8171390  51.6514900
   2.3548210 141.8056040  51.2009950   3.2499000 142.1441010  51.2228710
   2.3865840 141.0835450  50.5734230   9.3342560 140.3359710  63.9076150
   8.7344550 140.3952270  63.1640070   9.4636460 139.3964690  64.0373000
  10.5744010 138.0777530  49.2445860   9.7436970 138.1454180  49.7153090
  10.7515840 138.9681650  48.9412720  10.0300470 134.8225010  51.7480060
  10.7919380 135.3921660  51.8539750  10.0454840 134.2552210  52.5188370
  11.0360440 135.6775110  56.5921990  11.4069270 134.8942430  56.1857960
  11.6762370 136.3664210  56.4139290   8.0194200 137.0611690  62.0052310
   7.2054040 137.4908850  62.2678100   8.4268400 137.6730100  61.3921360
  10.0819640 135.1159380  48.9052580  10.3568480 136.0238260  48.7771800
   9.8930380 135.0521910  49.8414570   6.4795250 128.1404230  50.2006210
   6.8980130 127.9535210  49.3602870   6.1731310 127.2883280  50.5109140
   9.9784980 133.0528370  53.8982010   9.6028580 132.2856300  53.4663300
   9.2488100 133.4351070  54.3856940   9.3684600 132.1999890  63.5321530
   9.1370690 131.9712640  62.6319480   9.6289150 133.1199440  63.4866420
   7.8072670 127.4256320  66.3101230   8.6842850 127.4339720  66.6935230
   7.8193510 126.6887160  65.6993580   9.2535940 131.2785860  57.1989250
   9.7773420 130.7848510  56.5679420   9.8395360 131.4136220  57.9436820
   9.4325660 131.3625730  60.7208800   8.4828370 131.3289270  60.8353790
   9.6138670 132.2725840  60.4858570   8.7435910 130.5359210  53.1381660
   9.2395030 130.3030080  53.9230540   8.5451980 129.6971050  52.7219300
  10.1723070 129.1720160  55.6719340  10.0622350 129.0176200  56.6101610
  10.9330660 128.6441100  55.4294750   8.5188790 125.1114290  62.1302340
   9.1561010 125.7248430  62.4961530   8.6663680 125.1474950  61.1851570
  11.0613340 127.0028080  48.9125480  11.9862650 126.8709260  48.7043770
  11.0389130 127.0820900  49.8661930  11.1351830 127.7738740  51.5382190
  10.3403330 127.7083860  52.0675100  11.3395110 128.7089380  51.5267540
   8.0770250 141.8130290  55.5320580   8.6729320 141.4914860  54.8555000
   8.3348400 141.3402110  56.3233850   1.8893270 126.2640480  65.0377440
   1.8282160 126.8562310  65.7872850   2.8293650 126.1566440  64.8927700
   4.5267830 125.9210540  64.6769730   5.1408240 126.2389830  64.0150810
   5.0717390 125.4359130  65.2965590  10.9443010 141.8202170  62.0831570
  10.4501290 142.2171040  61.3658700  10.3356300 141.1951380  62.4768850
   5.2675870 124.4842680  61.0039020   4.3935710 124.8177790  60.8011950
   5.1586620 124.0115860  61.8290890   6.1747850 126.6913550  62.3880740
   5.8461210 125.8765310  62.0082470   7.1230150 126.6483360  62.2646430
   8.6282460 142.4625590  59.3618310   8.1685430 143.2141400  58.9876330
   7.9994920 141.7432060  59.3033110   1.7973680 141.6622320  59.3635420
   2.0851490 141.4076620  58.4868430   2.3096900 141.1099680  59.9540990
   3.0150690 125.4012520  59.9431930   2.2322480 125.8758020  60.2228690
   2.7213620 124.4967350  59.8345110   7.5671760 126.1035620  57.9881020
   8.0079850 126.0480720  57.1402620   7.2979350 127.0193630  58.0591200
   9.4310330 125.7350860  55.9989840   9.3698730 124.7912080  55.8520860
  10.2102360 125.8430950  56.5443300   5.4029890 124.4841720  56.6931030
   6.0059260 125.0561930  57.1679550   4.6622880 125.0481160  56.4704930
   8.5464490 124.8863280  51.9671310   8.7415120 125.7846730  52.2338740
   7.7594360 124.6550360  52.4604260   1.8646040 142.5838420  66.7303620
   2.7913350 142.3482690  66.7739580   1.8496470 143.4110420  66.2489650
  10.0991100 142.1263990  53.7277870  10.2743290 141.4401730  53.0838790
   9.4012670 142.6511040  53.3354540   5.6525110 124.6636750  67.0725970
   5.5390560 124.9831360  67.9677490   6.4694850 125.0649260  66.7763250
   8.4323600 141.8108280  66.5544660   9.2248920 141.3157510  66.3470620
   8.7256750 142.4898420  67.1620270   4.5583260 132.6829220  37.4360710
   4.4777310 131.7683830  37.1652420   4.1447680 133.1796290  36.7300420
   2.6901300 134.4608240  39.3169980   1.9143400 133.9808680  39.6068550
   3.3414230 133.7813890  39.1426140   6.7108730 138.8668430  38.0969110
   6.2490260 138.0955670  38.4256280   7.5234280 138.8934500  38.6021560
   2.9372040 141.1526440  37.7173100   2.3183480 141.6083940  37.1467540
   3.7923820 141.3077900  37.3162800   2.1310290 137.1365430  39.3240140
   2.0618570 136.1955370  39.1629270   2.8930150 137.2266840  39.8962710
   3.1615460 129.9435810  39.5509070   3.5380280 129.0707690  39.4382740
   3.0634970 130.2794510  38.6599510   6.9439580 127.4386250  36.4837410
   7.7649200 126.9482820  36.5262890   6.9773660 128.0283910  37.2369250
  11.2339130 129.4553000  43.0481040  10.5291300 129.8434710  42.5296150
  11.4997050 130.1503290  43.6501970   3.8035390 136.0365680  35.1105010
   3.1852660 136.5015130  34.5467730   4.3158640 136.7293160  35.5274520
   7.1801060 129.3786630  39.2564950   6.4756630 129.6671520  39.8368060
   7.5413220 130.1886740  38.8964510   8.7963840 138.9961760  41.5192430
   8.1127360 139.6660870  41.5109100   9.3358130 139.1942410  40.7537290
  10.2487980 128.8241420  39.6474160   9.3012890 128.8580400  39.7789590
  10.5737970 129.6380370  40.0323520   6.3322580 140.8405890  40.2337610
   6.3449740 140.4368180  39.3659870   5.7797800 141.6153180  40.1299040
   7.6268000 137.5622110  35.3227780   7.5164330 136.6196440  35.4477200
   7.6236250 137.9237750  36.2090540   5.7308020 135.7435730  41.5620220
   6.1476810 135.5295840  40.7273680   6.4547840 136.0008520  42.1328840
   3.1688280 133.1887430  34.6790270   2.2417560 133.1224810  34.9078740
   3.3213100 134.1267560  34.5645510   3.1557360 129.4604430  31.6757430
   2.2161030 129.6218390  31.7609890   3.4740620 130.1790110  31.1293420
   9.6770120 134.1422950  41.6536460   8.8488750 134.2116040  41.1786590
  10.2720600 134.7277260  41.1852290   7.1985570 134.7507730  35.1825520
   6.5797990 134.4127280  34.5351820   7.1810020 134.1067490  35.8904710
   6.6412130 130.9292270  42.5991330   6.2283310 131.7545980  42.8531320
   5.9088080 130.3437310  42.4067690   7.3312230 140.9751600  43.2872310
   6.8542790 141.7823790  43.0944920   6.6474020 140.3229930  43.4398520
   5.3750270 133.9894540  32.1898270   5.8143550 133.1516970  32.0436090
   6.0878690 134.6223940  32.2762410   3.4845650 138.9290610  36.1579510
   3.9241560 139.6714940  35.7434900   3.4232540 139.1717180  37.0818470
   8.9567410 125.2437350  30.5039310   8.6440070 125.3364180  31.4038380
   9.7179880 125.8218380  30.4536740  10.9111440 140.7363540  48.3563700
  11.3871160 141.2146430  49.0352780  11.5318600 140.6681030  47.6309200
  10.3144690 137.9276390  45.5163710  10.4407750 137.6888270  44.5980890
  10.3566070 137.0960930  45.9885790   4.1761430 141.6304390  44.0858520
   4.6906100 141.5412400  44.8880950   3.3330510 141.9764090  44.3786430
   6.1515830 141.9159730  33.5142520   5.9916970 141.6262670  34.4124350
   5.9862540 141.1399860  32.9787750   5.8541960 139.4247290  32.0740520
   5.1607120 139.4224580  31.4142800   6.5964820 139.0006610  31.6434690
   5.4191890 141.0510000  36.1489010   5.8748840 140.2699380  36.4627630
   5.7584410 141.7616820  36.6930190  10.1668700 129.9808850  46.4813450
   9.5512970 130.4888520  45.9528910   9.8465120 129.0807180  46.4239390
   2.2283020 128.8200740  43.9475640   1.7662390 129.0283760  44.7595580
   1.8261130 128.0060090  43.6446310   7.2287530 130.0409690  45.0772300
   6.3781120 129.7415440  45.3981370   7.0689320 130.2851700  44.1656120
   4.3237240 131.5411440  47.1771090   4.6490650 130.7075190  46.8373320
   5.1117570 132.0639960  47.3249420   4.9625190 131.0829160  34.6712220
   4.3634080 131.8064960  34.4875840   5.5104800 131.0205940  33.8888670
   3.5690060 129.7192700  36.7015500   3.9619630 130.0364900  35.8884190
   3.9306910 128.8404580  36.8160020   4.1545200 132.3098450  40.7966280
   3.4226320 132.8185260  41.1456380   3.7569540 131.4928430  40.4955060
   4.6171110 127.7632130  40.2089220   4.6343850 128.2140780  41.0531070
   4.3686690 126.8637770  40.4222660   8.0441860 125.1764310  46.0475600
   8.3687630 124.4453970  46.5733580   8.0798370 124.8577950  45.1456590
   7.9699700 135.2889420  39.6561630   8.6898820 135.7844710  39.2657740
   7.7681520 134.6107310  39.0115500   3.4309640 126.6827380  33.7991020
   2.6174250 126.1840550  33.7236330   3.2371590 127.5225630  33.3827370
   3.3518500 135.3598480  45.5430630   3.2855810 134.4394150  45.2888220
   2.7223640 135.4573920  46.2575270   6.1458030 131.0547030  32.0953180
   7.0337650 131.3664260  31.9204520   6.1163120 130.1819280  31.7033760
   2.1418620 137.2270720  32.7741350   2.4834320 137.9712950  32.2784670
   1.3131330 137.5401840  33.1366180   3.2835230 138.1819050  45.2934430
   3.2979770 137.2500010  45.0753340   2.5760330 138.2678810  45.9324200
   8.4172300 132.3658870  31.5633040   8.3336020 132.7973090  30.7129480
   9.1366490 132.8257220  31.9959860   9.4946440 134.8226390  44.6403010
   8.7694630 135.4155170  44.4432400  10.0221900 134.8149930  43.8416380
   9.4459550 139.2201130  34.2915170   8.8035710 138.5656750  34.5658890
   9.0590210 139.6256220  33.5155840   5.0246030 136.5486560  38.1386860
   5.3769850 135.9514690  37.4788230   4.1408360 136.2230790  38.3095110
   2.7169130 139.8236620  42.3874930   3.3611350 140.0296000  43.0648350
   3.0798570 139.0625020  41.9345780   3.9901210 137.8268970  41.1052380
   4.6323440 137.1262130  41.2184550   4.5150560 138.6067410  40.9249270
   7.8356930 138.1117590  30.8291520   7.6094510 137.3948030  31.4216160
   7.4453130 137.8630030  29.9913270   5.7638830 138.6263870  44.3088440
   6.0995070 139.2130560  44.9866360   4.8439170 138.4956580  44.5386230
   7.4173180 136.0289530  32.4905680   7.1294880 136.4902220  33.2783560
   8.2125350 135.5687300  32.7589900   4.8081010 128.9081360  42.8413300
   5.1761830 128.0876570  43.1692870   3.9479210 128.9683250  43.2568950
   8.1743040 127.8638300  33.6500860   7.5456200 127.9683970  32.9359090
   7.6794960 128.0835080  34.4394740   2.6201180 139.5843890  31.0834840
   2.7213160 139.3807880  30.1536820   1.7202920 139.3302170  31.2882620
   1.7683000 131.5620950  43.0651270   2.2668250 132.0366770  43.7303120
   1.9105950 130.6384470  43.2721300   4.1742500 126.8674910  36.5054530
   4.0510280 126.8861040  35.5564040   5.1227060 126.9153850  36.6252930
   8.9749860 127.7788910  43.9079660   8.4723460 128.5194310  44.2473470
   9.7906520 128.1672910  43.5916450   7.2671870 133.0222090  37.3541020
   6.3262010 133.0372320  37.5288710   7.5815940 132.2358050  37.8001320
   9.2697450 140.1930940  39.0295280   9.3944870 141.0162110  39.5019090
  10.1363010 139.9821670  38.6819430   4.5837890 137.5788090  47.8373400
   3.9776050 137.6019690  47.0969150   4.2792000 136.8471130  48.3740650
   6.0138260 141.3068380  46.4482810   6.9660010 141.2226400  46.3983050
   5.8666480 141.9710090  47.1216600   8.9047460 140.6862590  31.9474720
   8.6188970 140.2727730  31.1328900   8.7067010 141.6150300  31.8275240
   3.6097420 135.7415900  30.9922320   3.0607520 136.1885200  31.6365060
   4.2316680 135.2365150  31.5159990   7.6632360 137.0958000  46.9244580
   8.4041830 137.4333760  46.4212040   6.9005040 137.2650060  46.3714350
   1.7900180 133.7244430  30.1364720   2.3105840 133.0093450  29.7705870
   2.4368580 134.3630300  30.4365230   6.3378020 135.1472830  45.4599790
   6.7519040 135.3017910  46.3090210   5.4029020 135.2728050  45.6225570
   6.8100190 132.4868990  47.4638940   7.3920960 131.7321310  47.3759420
   6.9861960 133.0176430  46.6870420   3.4357150 132.8309490  44.8133560
   3.5553360 132.2350630  45.5528400   4.2951150 132.8679180  44.3934860
   5.7745050 133.3846680  43.3896070   5.2480270 133.9089300  42.7861210
   6.1176390 134.0174070  44.0205800   5.0219350 128.9896650  46.3042400
   4.3334870 128.3278190  46.2392390   5.7425370 128.5434920  46.7490860
   5.6519750 125.5848280  32.3632660   5.9322040 124.7416180  32.7192080
   4.8785480 125.8171390  32.8771410   2.3548210 141.8056040  32.4266460
   3.2499000 142.1441010  32.4485220   2.3865840 141.0835450  31.7990740
   9.3342560 140.3359710  45.1332660   8.7344550 140.3952270  44.3896580
   9.4636460 139.3964690  45.2629510  10.5744010 138.0777530  30.4702370
   9.7436970 138.1454180  30.9409600  10.7515840 138.9681650  30.1669230
  10.0300470 134.8225010  32.9736570  10.7919380 135.3921660  33.0796260
  10.0454840 134.2552210  33.7444880  11.0360440 135.6775110  37.8178500
  11.4069270 134.8942430  37.4114470  11.6762370 136.3664210  37.6395800
   8.0194200 137.0611690  43.2308820   7.2054040 137.4908850  43.4934610
   8.4268400 137.6730100  42.6177870  10.0819640 135.1159380  30.1309090
  10.3568480 136.0238260  30.0028310   9.8930380 135.0521910  31.0671080
   6.4795250 128.1404230  31.4262720   6.8980130 127.9535210  30.5859380
   6.1731310 127.2883280  31.7365650   9.9784980 133.0528370  35.1238520
   9.6028580 132.2856300  34.6919810   9.2488100 133.4351070  35.6113450
   9.3684600 132.1999890  44.7578040   9.1370690 131.9712640  43.8575990
   9.6289150 133.1199440  44.7122930   7.8072670 127.4256320  47.5357740
   8.6842850 127.4339720  47.9191740   7.8193510 126.6887160  46.9250090
   9.2535940 131.2785860  38.4245760   9.7773420 130.7848510  37.7935930
   9.8395360 131.4136220  39.1693330   9.4325660 131.3625730  41.9465310
   8.4828370 131.3289270  42.0610300   9.6138670 132.2725840  41.7115080
   8.7435910 130.5359210  34.3638170   9.2395030 130.3030080  35.1487050
   8.5451980 129.6971050  33.9475810  10.1723070 129.1720160  36.8975850
  10.0622350 129.0176200  37.8358120  10.9330660 128.6441100  36.6551260
   8.5188790 125.1114290  43.3558850   9.1561010 125.7248430  43.7218040
   8.6663680 125.1474950  42.4108080  11.0613340 127.0028080  30.1381990
  11.9862650 126.8709260  29.9300280  11.0389130 127.0820900  31.0918440
  11.1351830 127.7738740  32.7638700  10.3403330 127.7083860  33.2931610
  11.3395110 128.7089380  32.7524050   8.0770250 141.8130290  36.7577090
   8.6729320 141.4914860  36.0811510   8.3348400 141.3402110  37.5490360
   1.8893270 126.2640480  46.2633950   1.8282160 126.8562310  47.0129360
   2.8293650 126.1566440  46.1184210   4.5267830 125.9210540  45.9026240
   5.1408240 126.2389830  45.2407320   5.0717390 125.4359130  46.5222100
  10.9443010 141.8202170  43.3088080  10.4501290 142.2171040  42.5915210
  10.3356300 141.1951380  43.7025360   5.2675870 124.4842680  42.2295530
   4.3935710 124.8177790  42.0268460   5.1586620 124.0115860  43.0547400
   6.1747850 126.6913550  43.6137250   5.8461210 125.8765310  43.2338980
   7.1230150 126.6483360  43.4902940   8.6282460 142.4625590  40.5874820
   8.1685430 143.2141400  40.2132840   7.9994920 141.7432060  40.5289620
   1.7973680 141.6622320  40.5891930   2.0851490 141.4076620  39.7124940
   2.3096900 141.1099680  41.1797500   3.0150690 125.4012520  41.1688440
   2.2322480 125.8758020  41.4485200   2.7213620 124.4967350  41.0601620
   7.5671760 126.1035620  39.2137530   8.0079850 126.0480720  38.3659130
   7.2979350 127.0193630  39.2847710   9.4310330 125.7350860  37.2246350
   9.3698730 124.7912080  37.0777370  10.2102360 125.8430950  37.7699810
   5.4029890 124.4841720  37.9187540   6.0059260 125.0561930  38.3936060
   4.6622880 125.0481160  37.6961440   8.5464490 124.8863280  33.1927820
   8.7415120 125.7846730  33.4595250   7.7594360 124.6550360  33.6860770
   1.8646040 142.5838420  47.9560130   2.7913350 142.3482690  47.9996090
   1.8496470 143.4110420  47.4746160  10.0991100 142.1263990  34.9534380
  10.2743290 141.4401730  34.3095300   9.4012670 142.6511040  34.5611050
   5.6525110 124.6636750  48.2982480   5.5390560 124.9831360  49.1934000
   6.4694850 125.0649260  48.0019760   8.4323600 141.8108280  47.7801170
   9.2248920 141.3157510  47.5727130   8.7256750 142.4898420  48.3876780
   4.5583260 132.6829220  18.6617220   4.4777310 131.7683830  18.3908930
   4.1447680 133.1796290  17.9556930   2.6901300 134.4608240  20.5426490
   1.9143400 133.9808680  20.8325060   3.3414230 133.7813890  20.3682650
   6.7108730 138.8668430  19.3225620   6.2490260 138.0955670  19.6512790
   7.5234280 138.8934500  19.8278070   2.9372040 141.1526440  18.9429610
   2.3183480 141.6083940  18.3724050   3.7923820 141.3077900  18.5419310
   2.1310290 137.1365430  20.5496650   2.0618570 136.1955370  20.3885780
   2.8930150 137.2266840  21.1219220   3.1615460 129.9435810  20.7765580
   3.5380280 129.0707690  20.6639250   3.0634970 130.2794510  19.8856020
   6.9439580 127.4386250  17.7093920   7.7649200 126.9482820  17.7519400
   6.9773660 128.0283910  18.4625760  11.2339130 129.4553000  24.2737550
  10.5291300 129.8434710  23.7552660  11.4997050 130.1503290  24.8758480
   3.8035390 136.0365680  16.3361520   3.1852660 136.5015130  15.7724240
   4.3158640 136.7293160  16.7531030   7.1801060 129.3786630  20.4821460
   6.4756630 129.6671520  21.0624570   7.5413220 130.1886740  20.1221020
   8.7963840 138.9961760  22.7448940   8.1127360 139.6660870  22.7365610
   9.3358130 139.1942410  21.9793800  10.2487980 128.8241420  20.8730670
   9.3012890 128.8580400  21.0046100  10.5737970 129.6380370  21.2580030
   6.3322580 140.8405890  21.4594120   6.3449740 140.4368180  20.5916380
   5.7797800 141.6153180  21.3555550   7.6268000 137.5622110  16.5484290
   7.5164330 136.6196440  16.6733710   7.6236250 137.9237750  17.4347050
   5.7308020 135.7435730  22.7876730   6.1476810 135.5295840  21.9530190
   6.4547840 136.0008520  23.3585350   3.1688280 133.1887430  15.9046780
   2.2417560 133.1224810  16.1335250   3.3213100 134.1267560  15.7902020
   3.1557360 129.4604430  12.9013940   2.2161030 129.6218390  12.9866400
   3.4740620 130.1790110  12.3549930   9.6770120 134.1422950  22.8792970
   8.8488750 134.2116040  22.4043100  10.2720600 134.7277260  22.4108800
   7.1985570 134.7507730  16.4082030   6.5797990 134.4127280  15.7608330
   7.1810020 134.1067490  17.1161220   6.6412130 130.9292270  23.8247840
   6.2283310 131.7545980  24.0787830   5.9088080 130.3437310  23.6324200
   7.3312230 140.9751600  24.5128820   6.8542790 141.7823790  24.3201430
   6.6474020 140.3229930  24.6655030   5.3750270 133.9894540  13.4154780
   5.8143550 133.1516970  13.2692600   6.0878690 134.6223940  13.5018920
   3.4845650 138.9290610  17.3836020   3.9241560 139.6714940  16.9691410
   3.4232540 139.1717180  18.3074980   8.9567410 125.2437350  11.7295820
   8.6440070 125.3364180  12.6294890   9.7179880 125.8218380  11.6793250
  10.9111440 140.7363540  29.5820210  11.3871160 141.2146430  30.2609290
  11.5318600 140.6681030  28.8565710  10.3144690 137.9276390  26.7420220
  10.4407750 137.6888270  25.8237400  10.3566070 137.0960930  27.2142300
   4.1761430 141.6304390  25.3115030   4.6906100 141.5412400  26.1137460
   3.3330510 141.9764090  25.6042940   6.1515830 141.9159730  14.7399030
   5.9916970 141.6262670  15.6380860   5.9862540 141.1399860  14.2044260
   5.8541960 139.4247290  13.2997030   5.1607120 139.4224580  12.6399310
   6.5964820 139.0006610  12.8691200   5.4191890 141.0510000  17.3745520
   5.8748840 140.2699380  17.6884140   5.7584410 141.7616820  17.9186700
  10.1668700 129.9808850  27.7069960   9.5512970 130.4888520  27.1785420
   9.8465120 129.0807180  27.6495900   2.2283020 128.8200740  25.1732150
   1.7662390 129.0283760  25.9852090   1.8261130 128.0060090  24.8702820
   7.2287530 130.0409690  26.3028810   6.3781120 129.7415440  26.6237880
   7.0689320 130.2851700  25.3912630   4.3237240 131.5411440  28.4027600
   4.6490650 130.7075190  28.0629830   5.1117570 132.0639960  28.5505930
   4.9625190 131.0829160  15.8968730   4.3634080 131.8064960  15.7132350
   5.5104800 131.0205940  15.1145180   3.5690060 129.7192700  17.9272010
   3.9619630 130.0364900  17.1140700   3.9306910 128.8404580  18.0416530
   4.1545200 132.3098450  22.0222790   3.4226320 132.8185260  22.3712890
   3.7569540 131.4928430  21.7211570   4.6171110 127.7632130  21.4345730
   4.6343850 128.2140780  22.2787580   4.3686690 126.8637770  21.6479170
   8.0441860 125.1764310  27.2732110   8.3687630 124.4453970  27.7990090
   8.0798370 124.8577950  26.3713100   7.9699700 135.2889420  20.8818140
   8.6898820 135.7844710  20.4914250   7.7681520 134.6107310  20.2372010
   3.4309640 126.6827380  15.0247530   2.6174250 126.1840550  14.9492840
   3.2371590 127.5225630  14.6083880   3.3518500 135.3598480  26.7687140
   3.2855810 134.4394150  26.5144730   2.7223640 135.4573920  27.4831780
   6.1458030 131.0547030  13.3209690   7.0337650 131.3664260  13.1461030
   6.1163120 130.1819280  12.9290270   2.1418620 137.2270720  13.9997860
   2.4834320 137.9712950  13.5041180   1.3131330 137.5401840  14.3622690
   3.2835230 138.1819050  26.5190940   3.2979770 137.2500010  26.3009850
   2.5760330 138.2678810  27.1580710   8.4172300 132.3658870  12.7889550
   8.3336020 132.7973090  11.9385990   9.1366490 132.8257220  13.2216370
   9.4946440 134.8226390  25.8659520   8.7694630 135.4155170  25.6688910
  10.0221900 134.8149930  25.0672890   9.4459550 139.2201130  15.5171680
   8.8035710 138.5656750  15.7915400   9.0590210 139.6256220  14.7412350
   5.0246030 136.5486560  19.3643370   5.3769850 135.9514690  18.7044740
   4.1408360 136.2230790  19.5351620   2.7169130 139.8236620  23.6131440
   3.3611350 140.0296000  24.2904860   3.0798570 139.0625020  23.1602290
   3.9901210 137.8268970  22.3308890   4.6323440 137.1262130  22.4441060
   4.5150560 138.6067410  22.1505780   7.8356930 138.1117590  12.0548030
   7.6094510 137.3948030  12.6472670   7.4453130 137.8630030  11.2169780
   5.7638830 138.6263870  25.5344950   6.0995070 139.2130560  26.2122870
   4.8439170 138.4956580  25.7642740   7.4173180 136.0289530  13.7162190
   7.1294880 136.4902220  14.5040070   8.2125350 135.5687300  13.9846410
   4.8081010 128.9081360  24.0669810   5.1761830 128.0876570  24.3949380
   3.9479210 128.9683250  24.4825460   8.1743040 127.8638300  14.8757370
   7.5456200 127.9683970  14.1615600   7.6794960 128.0835080  15.6651250
   2.6201180 139.5843890  12.3091350   2.7213160 139.3807880  11.3793330
   1.7202920 139.3302170  12.5139130   1.7683000 131.5620950  24.2907780
   2.2668250 132.0366770  24.9559630   1.9105950 130.6384470  24.4977810
   4.1742500 126.8674910  17.7311040   4.0510280 126.8861040  16.7820550
   5.1227060 126.9153850  17.8509440   8.9749860 127.7788910  25.1336170
   8.4723460 128.5194310  25.4729980   9.7906520 128.1672910  24.8172960
   7.2671870 133.0222090  18.5797530   6.3262010 133.0372320  18.7545220
   7.5815940 132.2358050  19.0257830   9.2697450 140.1930940  20.2551790
   9.3944870 141.0162110  20.7275600  10.1363010 139.9821670  19.9075940
   4.5837890 137.5788090  29.0629910   3.9776050 137.6019690  28.3225660
   4.2792000 136.8471130  29.5997160   6.0138260 141.3068380  27.6739320
   6.9660010 141.2226400  27.6239560   5.8666480 141.9710090  28.3473110
   8.9047460 140.6862590  13.1731230   8.6188970 140.2727730  12.3585410
   8.7067010 141.6150300  13.0531750   3.6097420 135.7415900  12.2178830
   3.0607520 136.1885200  12.8621570   4.2316680 135.2365150  12.7416500
   7.6632360 137.0958000  28.1501090   8.4041830 137.4333760  27.6468550
   6.9005040 137.2650060  27.5970860   1.7900180 133.7244430  11.3621230
   2.3105840 133.0093450  10.9962380   2.4368580 134.3630300  11.6621740
   6.3378020 135.1472830  26.6856300   6.7519040 135.3017910  27.5346720
   5.4029020 135.2728050  26.8482080   6.8100190 132.4868990  28.6895450
   7.3920960 131.7321310  28.6015930   6.9861960 133.0176430  27.9126930
   3.4357150 132.8309490  26.0390070   3.5553360 132.2350630  26.7784910
   4.2951150 132.8679180  25.6191370   5.7745050 133.3846680  24.6152580
   5.2480270 133.9089300  24.0117720   6.1176390 134.0174070  25.2462310
   5.0219350 128.9896650  27.5298910   4.3334870 128.3278190  27.4648900
   5.7425370 128.5434920  27.9747370   5.6519750 125.5848280  13.5889170
   5.9322040 124.7416180  13.9448590   4.8785480 125.8171390  14.1027920
   2.3548210 141.8056040  13.6522970   3.2499000 142.1441010  13.6741730
   2.3865840 141.0835450  13.0247250   9.3342560 140.3359710  26.3589170
   8.7344550 140.3952270  25.6153090   9.4636460 139.3964690  26.4886020
  10.5744010 138.0777530  11.6958880   9.7436970 138.1454180  12.1666110
  10.7515840 138.9681650  11.3925740  10.0300470 134.8225010  14.1993080
  10.7919380 135.3921660  14.3052770  10.0454840 134.2552210  14.9701390
  11.0360440 135.6775110  19.0435010  11.4069270 134.8942430  18.6370980
  11.6762370 136.3664210  18.8652310   8.0194200 137.0611690  24.4565330
   7.2054040 137.4908850  24.7191120   8.4268400 137.6730100  23.8434380
  10.0819640 135.1159380  11.3565600  10.3568480 136.0238260  11.2284820
   9.8930380 135.0521910  12.2927590   6.4795250 128.1404230  12.6519230
   6.8980130 127.9535210  11.8115890   6.1731310 127.2883280  12.9622160
   9.9784980 133.0528370  16.3495030   9.6028580 132.2856300  15.9176320
   9.2488100 133.4351070  16.8369960   9.3684600 132.1999890  25.9834550
   9.1370690 131.9712640  25.0832500   9.6289150 133.1199440  25.9379440
   7.8072670 127.4256320  28.7614250   8.6842850 127.4339720  29.1448250
   7.8193510 126.6887160  28.1506600   9.2535940 131.2785860  19.6502270
   9.7773420 130.7848510  19.0192440   9.8395360 131.4136220  20.3949840
   9.4325660 131.3625730  23.1721820   8.4828370 131.3289270  23.2866810
   9.6138670 132.2725840  22.9371590   8.7435910 130.5359210  15.5894680
   9.2395030 130.3030080  16.3743560   8.5451980 129.6971050  15.1732320
  10.1723070 129.1720160  18.1232360  10.0622350 129.0176200  19.0614630
  10.9330660 128.6441100  17.8807770   8.5188790 125.1114290  24.5815360
   9.1561010 125.7248430  24.9474550   8.6663680 125.1474950  23.6364590
  11.0613340 127.0028080  11.3638500  11.9862650 126.8709260  11.1556790
  11.0389130 127.0820900  12.3174950  11.1351830 127.7738740  13.9895210
  10.3403330 127.7083860  14.5188120  11.3395110 128.7089380  13.9780560
   8.0770250 141.8130290  17.9833600   8.6729320 141.4914860  17.3068020
   8.3348400 141.3402110  18.7746870   1.8893270 126.2640480  27.4890460
   1.8282160 126.8562310  28.2385870   2.8293650 126.1566440  27.3440720
   4.5267830 125.9210540  27.1282750   5.1408240 126.2389830  26.4663830
   5.0717390 125.4359130  27.7478610  10.9443010 141.8202170  24.5344590
  10.4501290 142.2171040  23.8171720  10.3356300 141.1951380  24.9281870
   5.2675870 124.4842680  23.4552040   4.3935710 124.8177790  23.2524970
   5.1586620 124.0115860  24.2803910   6.1747850 126.6913550  24.8393760
   5.8461210 125.8765310  24.4595490   7.1230150 126.6483360  24.7159450
   8.6282460 142.4625590  21.8131330   8.1685430 143.2141400  21.4389350
   7.9994920 141.7432060  21.7546130   1.7973680 141.6622320  21.8148440
   2.0851490 141.4076620  20.9381450   2.3096900 141.1099680  22.4054010
   3.0150690 125.4012520  22.3944950   2.2322480 125.8758020  22.6741710
   2.7213620 124.4967350  22.2858130   7.5671760 126.1035620  20.4394040
   8.0079850 126.0480720  19.5915640   7.2979350 127.0193630  20.5104220
   9.4310330 125.7350860  18.4502860   9.3698730 124.7912080  18.3033880
  10.2102360 125.8430950  18.9956320   5.4029890 124.4841720  19.1444050
   6.0059260 125.0561930  19.6192570   4.6622880 125.0481160  18.9217950
   8.5464490 124.8863280  14.4184330   8.7415120 125.7846730  14.6851760
   7.7594360 124.6550360  14.9117280   1.8646040 142.5838420  29.1816640
   2.7913350 142.3482690  29.2252600   1.8496470 143.4110420  28.7002670
  10.0991100 142.1263990  16.1790890  10.2743290 141.4401730  15.5351810
   9.4012670 142.6511040  15.7867560   5.6525110 124.6636750  29.5238990
   5.5390560 124.9831360  30.4190510   6.4694850 125.0649260  29.2276270
   8.4323600 141.8108280  29.0057680   9.2248920 141.3157510  28.7983640
   8.7256750 142.4898420  29.6133290   2.6901300 134.4608240   1.7683000
   1.9143400 133.9808680   2.0581570   3.3414230 133.7813890   1.5939160
   2.1310290 137.1365430   1.7753160   2.0618570 136.1955370   1.6142290
   2.8930150 137.2266840   2.3475730  11.2339130 129.4553000   5.4994060
  10.5291300 129.8434710   4.9809170  11.4997050 130.1503290   6.1014990
   8.7963840 138.9961760   3.9705450   8.1127360 139.6660870   3.9622120
   9.3358130 139.1942410   3.2050310  10.2487980 128.8241420   2.0987180
   9.3012890 128.8580400   2.2302610  10.5737970 129.6380370   2.4836540
   6.3322580 140.8405890   2.6850630   6.3449740 140.4368180   1.8172890
   5.7797800 141.6153180   2.5812060   5.7308020 135.7435730   4.0133240
   6.1476810 135.5295840   3.1786700   6.4547840 136.0008520   4.5841860
   9.6770120 134.1422950   4.1049480   8.8488750 134.2116040   3.6299610
  10.2720600 134.7277260   3.6365310   6.6412130 130.9292270   5.0504350
   6.2283310 131.7545980   5.3044340   5.9088080 130.3437310   4.8580710
   7.3312230 140.9751600   5.7385330   6.8542790 141.7823790   5.5457940
   6.6474020 140.3229930   5.8911540  10.9111440 140.7363540  10.8076720
  11.3871160 141.2146430  11.4865800  11.5318600 140.6681030  10.0822220
  10.3144690 137.9276390   7.9676730  10.4407750 137.6888270   7.0493910
  10.3566070 137.0960930   8.4398810   4.1761430 141.6304390   6.5371540
   4.6906100 141.5412400   7.3393970   3.3330510 141.9764090   6.8299450
  10.1668700 129.9808850   8.9326470   9.5512970 130.4888520   8.4041930
   9.8465120 129.0807180   8.8752410   2.2283020 128.8200740   6.3988660
   1.7662390 129.0283760   7.2108600   1.8261130 128.0060090   6.0959330
   7.2287530 130.0409690   7.5285320   6.3781120 129.7415440   7.8494390
   7.0689320 130.2851700   6.6169140   4.3237240 131.5411440   9.6284110
   4.6490650 130.7075190   9.2886340   5.1117570 132.0639960   9.7762440
   4.1545200 132.3098450   3.2479300   3.4226320 132.8185260   3.5969400
   3.7569540 131.4928430   2.9468080   4.6171110 127.7632130   2.6602240
   4.6343850 128.2140780   3.5044090   4.3686690 126.8637770   2.8735680
   8.0441860 125.1764310   8.4988620   8.3687630 124.4453970   9.0246600
   8.0798370 124.8577950   7.5969610   7.9699700 135.2889420   2.1074650
   8.6898820 135.7844710   1.7170760   7.7681520 134.6107310   1.4628520
   3.3518500 135.3598480   7.9943650   3.2855810 134.4394150   7.7401240
   2.7223640 135.4573920   8.7088290   3.2835230 138.1819050   7.7447450
   3.2979770 137.2500010   7.5266360   2.5760330 138.2678810   8.3837220
   9.4946440 134.8226390   7.0916030   8.7694630 135.4155170   6.8945420
  10.0221900 134.8149930   6.2929400   2.7169130 139.8236620   4.8387950
   3.3611350 140.0296000   5.5161370   3.0798570 139.0625020   4.3858800
   3.9901210 137.8268970   3.5565400   4.6323440 137.1262130   3.6697570
   4.5150560 138.6067410   3.3762290   5.7638830 138.6263870   6.7601460
   6.0995070 139.2130560   7.4379380   4.8439170 138.4956580   6.9899250
   4.8081010 128.9081360   5.2926320   5.1761830 128.0876570   5.6205890
   3.9479210 128.9683250   5.7081970   1.7683000 131.5620950   5.5164290
   2.2668250 132.0366770   6.1816140   1.9105950 130.6384470   5.7234320
   8.9749860 127.7788910   6.3592680   8.4723460 128.5194310   6.6986490
   9.7906520 128.1672910   6.0429470   4.5837890 137.5788090  10.2886420
   3.9776050 137.6019690   9.5482170   4.2792000 136.8471130  10.8253670
   6.0138260 141.3068380   8.8995830   6.9660010 141.2226400   8.8496070
   5.8666480 141.9710090   9.5729620   7.6632360 137.0958000   9.3757600
   8.4041830 137.4333760   8.8725060   6.9005040 137.2650060   8.8227370
   6.3378020 135.1472830   7.9112810   6.7519040 135.3017910   8.7603230
   5.4029020 135.2728050   8.0738590   6.8100190 132.4868990   9.9151960
   7.3920960 131.7321310   9.8272440   6.9861960 133.0176430   9.1383440
   3.4357150 132.8309490   7.2646580   3.5553360 132.2350630   8.0041420
   4.2951150 132.8679180   6.8447880   5.7745050 133.3846680   5.8409090
   5.2480270 133.9089300   5.2374230   6.1176390 134.0174070   6.4718820
   5.0219350 128.9896650   8.7555420   4.3334870 128.3278190   8.6905410
   5.7425370 128.5434920   9.2003880   9.3342560 140.3359710   7.5845680
   8.7344550 140.3952270   6.8409600   9.4636460 139.3964690   7.7142530
   8.0194200 137.0611690   5.6821840   7.2054040 137.4908850   5.9447630
   8.4268400 137.6730100   5.0690890   9.3684600 132.1999890   7.2091060
   9.1370690 131.9712640   6.3089010   9.6289150 133.1199440   7.1635950
   7.8072670 127.4256320   9.9870760   8.6842850 127.4339720  10.3704760
   7.8193510 126.6887160   9.3763110   9.4325660 131.3625730   4.3978330
   8.4828370 131.3289270   4.5123320   9.6138670 132.2725840   4.1628100
   8.5188790 125.1114290   5.8071870   9.1561010 125.7248430   6.1731060
   8.6663680 125.1474950   4.8621100   1.8893270 126.2640480   8.7146970
   1.8282160 126.8562310   9.4642380   2.8293650 126.1566440   8.5697230
   4.5267830 125.9210540   8.3539260   5.1408240 126.2389830   7.6920340
   5.0717390 125.4359130   8.9735120  10.9443010 141.8202170   5.7601100
  10.4501290 142.2171040   5.0428230  10.3356300 141.1951380   6.1538380
   5.2675870 124.4842680   4.6808550   4.3935710 124.8177790   4.4781480
   5.1586620 124.0115860   5.5060420   6.1747850 126.6913550   6.0650270
   5.8461210 125.8765310   5.6852000   7.1230150 126.6483360   5.9415960
   8.6282460 142.4625590   3.0387840   8.1685430 143.2141400   2.6645860
   7.9994920 141.7432060   2.9802640   1.7973680 141.6622320   3.0404950
   2.0851490 141.4076620   2.1637960   2.3096900 141.1099680   3.6310520
   3.0150690 125.4012520   3.6201460   2.2322480 125.8758020   3.8998220
   2.7213620 124.4967350   3.5114640   1.8646040 142.5838420  10.4073150
   2.7913350 142.3482690  10.4509110   1.8496470 143.4110420   9.9259180
   5.6525110 124.6636750  10.7495500   5.5390560 124.9831360  11.6447020
   6.4694850 125.0649260  10.4532780   8.4323600 141.8108280  10.2314190
   9.2248920 141.3157510  10.0240150   8.7256750 142.4898420  10.8389800
   4.5583260 113.9085730 150.0821650   4.4777310 112.9940340 149.8113360
   4.1447680 114.4052800 149.3761360   6.7108730 120.0924940 150.7430050
   6.2490260 119.3212180 151.0717220   7.5234280 120.1191010 151.2482500
   2.9372040 122.3782950 150.3634040   2.3183480 122.8340450 149.7928480
   3.7923820 122.5334410 149.9623740   6.9439580 108.6642760 149.1298350
   7.7649200 108.1739330 149.1723830   6.9773660 109.2540420 149.8830190
   3.8035390 117.2622190 147.7565950   3.1852660 117.7271640 147.1928670
   4.3158640 117.9549670 148.1735460   7.6268000 118.7878620 147.9688720
   7.5164330 117.8452950 148.0938140   7.6236250 119.1494260 148.8551480
   3.1688280 114.4143940 147.3251210   2.2417560 114.3481320 147.5539680
   3.3213100 115.3524070 147.2106450   3.1557360 110.6860940 144.3218370
   2.2161030 110.8474900 144.4070830   3.4740620 111.4046620 143.7754360
   7.1985570 115.9764240 147.8286460   6.5797990 115.6383790 147.1812760
   7.1810020 115.3324000 148.5365650   5.3750270 115.2151050 144.8359210
   5.8143550 114.3773480 144.6897030   6.0878690 115.8480450 144.9223350
   3.4845650 120.1547120 148.8040450   3.9241560 120.8971450 148.3895840
   3.4232540 120.3973690 149.7279410   8.9567410 106.4693860 143.1500250
   8.6440070 106.5620690 144.0499320   9.7179880 107.0474890 143.0997680
   6.1515830 123.1416240 146.1603460   5.9916970 122.8519180 147.0585290
   5.9862540 122.3656370 145.6248690   5.8541960 120.6503800 144.7201460
   5.1607120 120.6481090 144.0603740   6.5964820 120.2263120 144.2895630
   5.4191890 122.2766510 148.7949950   5.8748840 121.4955890 149.1088570
   5.7584410 122.9873330 149.3391130   4.9625190 112.3085670 147.3173160
   4.3634080 113.0321470 147.1336780   5.5104800 112.2462450 146.5349610
   3.5690060 110.9449210 149.3476440   3.9619630 111.2621410 148.5345130
   3.9306910 110.0661090 149.4620960   3.4309640 107.9083890 146.4451960
   2.6174250 107.4097060 146.3697270   3.2371590 108.7482140 146.0288310
   6.1458030 112.2803540 144.7414120   7.0337650 112.5920770 144.5665460
   6.1163120 111.4075790 144.3494700   2.1418620 118.4527230 145.4202290
   2.4834320 119.1969460 144.9245610   1.3131330 118.7658350 145.7827120
   8.4172300 113.5915380 144.2093980   8.3336020 114.0229600 143.3590420
   9.1366490 114.0513730 144.6420800   9.4459550 120.4457640 146.9376110
   8.8035710 119.7913260 147.2119830   9.0590210 120.8512730 146.1616780
   5.0246030 117.7743070 150.7847800   5.3769850 117.1771200 150.1249170
   4.1408360 117.4487300 150.9556050   7.8356930 119.3374100 143.4752460
   7.6094510 118.6204540 144.0677100   7.4453130 119.0886540 142.6374210
   7.4173180 117.2546040 145.1366620   7.1294880 117.7158730 145.9244500
   8.2125350 116.7943810 145.4050840   8.1743040 109.0894810 146.2961800
   7.5456200 109.1940480 145.5820030   7.6794960 109.3091590 147.0855680
   2.6201180 120.8100400 143.7295780   2.7213160 120.6064390 142.7997760
   1.7202920 120.5558680 143.9343560   4.1742500 108.0931420 149.1515470
   4.0510280 108.1117550 148.2024980   5.1227060 108.1410360 149.2713870
   7.2671870 114.2478600 150.0001960   6.3262010 114.2628830 150.1749650
   7.5815940 113.4614560 150.4462260   8.9047460 121.9119100 144.5935660
   8.6188970 121.4984240 143.7789840   8.7067010 122.8406810 144.4736180
   3.6097420 116.9672410 143.6383260   3.0607520 117.4141710 144.2826000
   4.2316680 116.4621660 144.1620930   1.7900180 114.9500940 142.7825660
   2.3105840 114.2349960 142.4166810   2.4368580 115.5886810 143.0826170
   5.6519750 106.8104790 145.0093600   5.9322040 105.9672690 145.3653020
   4.8785480 107.0427900 145.5232350   2.3548210 123.0312550 145.0727400
   3.2499000 123.3697520 145.0946160   2.3865840 122.3091960 144.4451680
  10.5744010 119.3034040 143.1163310   9.7436970 119.3710690 143.5870540
  10.7515840 120.1938160 142.8130170  10.0300470 116.0481520 145.6197510
  10.7919380 116.6178170 145.7257200  10.0454840 115.4808720 146.3905820
  11.0360440 116.9031620 150.4639440  11.4069270 116.1198940 150.0575410
  11.6762370 117.5920720 150.2856740  10.0819640 116.3415890 142.7770030
  10.3568480 117.2494770 142.6489250   9.8930380 116.2778420 143.7132020
   6.4795250 109.3660740 144.0723660   6.8980130 109.1791720 143.2320320
   6.1731310 108.5139790 144.3826590   9.9784980 114.2784880 147.7699460
   9.6028580 113.5112810 147.3380750   9.2488100 114.6607580 148.2574390
   8.7435910 111.7615720 147.0099110   9.2395030 111.5286590 147.7947990
   8.5451980 110.9227560 146.5936750  10.1723070 110.3976670 149.5436790
  10.0622350 110.2432710 150.4819060  10.9330660 109.8697610 149.3012200
  11.0613340 108.2284590 142.7842930  11.9862650 108.0965770 142.5761220
  11.0389130 108.3077410 143.7379380  11.1351830 108.9995250 145.4099640
  10.3403330 108.9340370 145.9392550  11.3395110 109.9345890 145.3984990
   8.0770250 123.0386800 149.4038030   8.6729320 122.7171370 148.7272450
   8.3348400 122.5658620 150.1951300   9.4310330 106.9607370 149.8707290
   9.3698730 106.0168590 149.7238310  10.2102360 107.0687460 150.4160750
   5.4029890 105.7098230 150.5648480   6.0059260 106.2818440 151.0397000
   4.6622880 106.2737670 150.3422380   8.5464490 106.1119790 145.8388760
   8.7415120 107.0103240 146.1056190   7.7594360 105.8806870 146.3321710
  10.0991100 123.3520500 147.5995320  10.2743290 122.6658240 146.9556240
   9.4012670 123.8767550 147.2071990   4.5583260 113.9085730 131.3078160
   4.4777310 112.9940340 131.0369870   4.1447680 114.4052800 130.6017870
   2.6901300 115.6864750 133.1887430   1.9143400 115.2065190 133.4786000
   3.3414230 115.0070400 133.0143590   6.7108730 120.0924940 131.9686560
   6.2490260 119.3212180 132.2973730   7.5234280 120.1191010 132.4739010
   2.9372040 122.3782950 131.5890550   2.3183480 122.8340450 131.0184990
   3.7923820 122.5334410 131.1880250   2.1310290 118.3621940 133.1957590
   2.0618570 117.4211880 133.0346720   2.8930150 118.4523350 133.7680160
   3.1615460 111.1692320 133.4226520   3.5380280 110.2964200 133.3100190
   3.0634970 111.5051020 132.5316960   6.9439580 108.6642760 130.3554860
   7.7649200 108.1739330 130.3980340   6.9773660 109.2540420 131.1086700
  11.2339130 110.6809510 136.9198490  10.5291300 111.0691220 136.4013600
  11.4997050 111.3759800 137.5219420   3.8035390 117.2622190 128.9822460
   3.1852660 117.7271640 128.4185180   4.3158640 117.9549670 129.3991970
   7.1801060 110.6043140 133.1282400   6.4756630 110.8928030 133.7085510
   7.5413220 111.4143250 132.7681960   8.7963840 120.2218270 135.3909880
   8.1127360 120.8917380 135.3826550   9.3358130 120.4198920 134.6254740
  10.2487980 110.0497930 133.5191610   9.3012890 110.0836910 133.6507040
  10.5737970 110.8636880 133.9040970   6.3322580 122.0662400 134.1055060
   6.3449740 121.6624690 133.2377320   5.7797800 122.8409690 134.0016490
   7.6268000 118.7878620 129.1945230   7.5164330 117.8452950 129.3194650
   7.6236250 119.1494260 130.0807990   5.7308020 116.9692240 135.4337670
   6.1476810 116.7552350 134.5991130   6.4547840 117.2265030 136.0046290
   3.1688280 114.4143940 128.5507720   2.2417560 114.3481320 128.7796190
   3.3213100 115.3524070 128.4362960   3.1557360 110.6860940 125.5474880
   2.2161030 110.8474900 125.6327340   3.4740620 111.4046620 125.0010870
   9.6770120 115.3679460 135.5253910   8.8488750 115.4372550 135.0504040
  10.2720600 115.9533770 135.0569740   7.1985570 115.9764240 129.0542970
   6.5797990 115.6383790 128.4069270   7.1810020 115.3324000 129.7622160
   6.6412130 112.1548780 136.4708780   6.2283310 112.9802490 136.7248770
   5.9088080 111.5693820 136.2785140   7.3312230 122.2008110 137.1589760
   6.8542790 123.0080300 136.9662370   6.6474020 121.5486440 137.3115970
   5.3750270 115.2151050 126.0615720   5.8143550 114.3773480 125.9153540
   6.0878690 115.8480450 126.1479860   3.4845650 120.1547120 130.0296960
   3.9241560 120.8971450 129.6152350   3.4232540 120.3973690 130.9535920
   8.9567410 106.4693860 124.3756760   8.6440070 106.5620690 125.2755830
   9.7179880 107.0474890 124.3254190  10.9111440 121.9620050 142.2281150
  11.3871160 122.4402940 142.9070230  11.5318600 121.8937540 141.5026650
  10.3144690 119.1532900 139.3881160  10.4407750 118.9144780 138.4698340
  10.3566070 118.3217440 139.8603240   4.1761430 122.8560900 137.9575970
   4.6906100 122.7668910 138.7598400   3.3330510 123.2020600 138.2503880
   6.1515830 123.1416240 127.3859970   5.9916970 122.8519180 128.2841800
   5.9862540 122.3656370 126.8505200   5.8541960 120.6503800 125.9457970
   5.1607120 120.6481090 125.2860250   6.5964820 120.2263120 125.5152140
   5.4191890 122.2766510 130.0206460   5.8748840 121.4955890 130.3345080
   5.7584410 122.9873330 130.5647640  10.1668700 111.2065360 140.3530900
   9.5512970 111.7145030 139.8246360   9.8465120 110.3063690 140.2956840
   2.2283020 110.0457250 137.8193090   1.7662390 110.2540270 138.6313030
   1.8261130 109.2316600 137.5163760   7.2287530 111.2666200 138.9489750
   6.3781120 110.9671950 139.2698820   7.0689320 111.5108210 138.0373570
   4.3237240 112.7667950 141.0488540   4.6490650 111.9331700 140.7090770
   5.1117570 113.2896470 141.1966870   4.9625190 112.3085670 128.5429670
   4.3634080 113.0321470 128.3593290   5.5104800 112.2462450 127.7606120
   3.5690060 110.9449210 130.5732950   3.9619630 111.2621410 129.7601640
   3.9306910 110.0661090 130.6877470   4.1545200 113.5354960 134.6683730
   3.4226320 114.0441770 135.0173830   3.7569540 112.7184940 134.3672510
   4.6171110 108.9888640 134.0806670   4.6343850 109.4397290 134.9248520
   4.3686690 108.0894280 134.2940110   8.0441860 106.4020820 139.9193050
   8.3687630 105.6710480 140.4451030   8.0798370 106.0834460 139.0174040
   7.9699700 116.5145930 133.5279080   8.6898820 117.0101220 133.1375190
   7.7681520 115.8363820 132.8832950   3.4309640 107.9083890 127.6708470
   2.6174250 107.4097060 127.5953780   3.2371590 108.7482140 127.2544820
   3.3518500 116.5854990 139.4148080   3.2855810 115.6650660 139.1605670
   2.7223640 116.6830430 140.1292720   6.1458030 112.2803540 125.9670630
   7.0337650 112.5920770 125.7921970   6.1163120 111.4075790 125.5751210
   2.1418620 118.4527230 126.6458800   2.4834320 119.1969460 126.1502120
   1.3131330 118.7658350 127.0083630   3.2835230 119.4075560 139.1651880
   3.2979770 118.4756520 138.9470790   2.5760330 119.4935320 139.8041650
   8.4172300 113.5915380 125.4350490   8.3336020 114.0229600 124.5846930
   9.1366490 114.0513730 125.8677310   9.4946440 116.0482900 138.5120460
   8.7694630 116.6411680 138.3149850  10.0221900 116.0406440 137.7133830
   9.4459550 120.4457640 128.1632620   8.8035710 119.7913260 128.4376340
   9.0590210 120.8512730 127.3873290   5.0246030 117.7743070 132.0104310
   5.3769850 117.1771200 131.3505680   4.1408360 117.4487300 132.1812560
   2.7169130 121.0493130 136.2592380   3.3611350 121.2552510 136.9365800
   3.0798570 120.2881530 135.8063230   3.9901210 119.0525480 134.9769830
   4.6323440 118.3518640 135.0902000   4.5150560 119.8323920 134.7966720
   7.8356930 119.3374100 124.7008970   7.6094510 118.6204540 125.2933610
   7.4453130 119.0886540 123.8630720   5.7638830 119.8520380 138.1805890
   6.0995070 120.4387070 138.8583810   4.8439170 119.7213090 138.4103680
   7.4173180 117.2546040 126.3623130   7.1294880 117.7158730 127.1501010
   8.2125350 116.7943810 126.6307350   4.8081010 110.1337870 136.7130750
   5.1761830 109.3133080 137.0410320   3.9479210 110.1939760 137.1286400
   8.1743040 109.0894810 127.5218310   7.5456200 109.1940480 126.8076540
   7.6794960 109.3091590 128.3112190   2.6201180 120.8100400 124.9552290
   2.7213160 120.6064390 124.0254270   1.7202920 120.5558680 125.1600070
   1.7683000 112.7877460 136.9368720   2.2668250 113.2623280 137.6020570
   1.9105950 111.8640980 137.1438750   4.1742500 108.0931420 130.3771980
   4.0510280 108.1117550 129.4281490   5.1227060 108.1410360 130.4970380
   8.9749860 109.0045420 137.7797110   8.4723460 109.7450820 138.1190920
   9.7906520 109.3929420 137.4633900   7.2671870 114.2478600 131.2258470
   6.3262010 114.2628830 131.4006160   7.5815940 113.4614560 131.6718770
   9.2697450 121.4187450 132.9012730   9.3944870 122.2418620 133.3736540
  10.1363010 121.2078180 132.5536880   4.5837890 118.8044600 141.7090850
   3.9776050 118.8276200 140.9686600   4.2792000 118.0727640 142.2458100
   6.0138260 122.5324890 140.3200260   6.9660010 122.4482910 140.2700500
   5.8666480 123.1966600 140.9934050   8.9047460 121.9119100 125.8192170
   8.6188970 121.4984240 125.0046350   8.7067010 122.8406810 125.6992690
   3.6097420 116.9672410 124.8639770   3.0607520 117.4141710 125.5082510
   4.2316680 116.4621660 125.3877440   7.6632360 118.3214510 140.7962030
   8.4041830 118.6590270 140.2929490   6.9005040 118.4906570 140.2431800
   1.7900180 114.9500940 124.0082170   2.3105840 114.2349960 123.6423320
   2.4368580 115.5886810 124.3082680   6.3378020 116.3729340 139.3317240
   6.7519040 116.5274420 140.1807660   5.4029020 116.4984560 139.4943020
   6.8100190 113.7125500 141.3356390   7.3920960 112.9577820 141.2476870
   6.9861960 114.2432940 140.5587870   3.4357150 114.0566000 138.6851010
   3.5553360 113.4607140 139.4245850   4.2951150 114.0935690 138.2652310
   5.7745050 114.6103190 137.2613520   5.2480270 115.1345810 136.6578660
   6.1176390 115.2430580 137.8923250   5.0219350 110.2153160 140.1759850
   4.3334870 109.5534700 140.1109840   5.7425370 109.7691430 140.6208310
   5.6519750 106.8104790 126.2350110   5.9322040 105.9672690 126.5909530
   4.8785480 107.0427900 126.7488860   2.3548210 123.0312550 126.2983910
   3.2499000 123.3697520 126.3202670   2.3865840 122.3091960 125.6708190
   9.3342560 121.5616220 139.0050110   8.7344550 121.6208780 138.2614030
   9.4636460 120.6221200 139.1346960  10.5744010 119.3034040 124.3419820
   9.7436970 119.3710690 124.8127050  10.7515840 120.1938160 124.0386680
  10.0300470 116.0481520 126.8454020  10.7919380 116.6178170 126.9513710
  10.0454840 115.4808720 127.6162330  11.0360440 116.9031620 131.6895950
  11.4069270 116.1198940 131.2831920  11.6762370 117.5920720 131.5113250
   8.0194200 118.2868200 137.1026270   7.2054040 118.7165360 137.3652060
   8.4268400 118.8986610 136.4895320  10.0819640 116.3415890 124.0026540
  10.3568480 117.2494770 123.8745760   9.8930380 116.2778420 124.9388530
   6.4795250 109.3660740 125.2980170   6.8980130 109.1791720 124.4576830
   6.1731310 108.5139790 125.6083100   9.9784980 114.2784880 128.9955970
   9.6028580 113.5112810 128.5637260   9.2488100 114.6607580 129.4830900
   9.3684600 113.4256400 138.6295490   9.1370690 113.1969150 137.7293440
   9.6289150 114.3455950 138.5840380   7.8072670 108.6512830 141.4075190
   8.6842850 108.6596230 141.7909190   7.8193510 107.9143670 140.7967540
   9.2535940 112.5042370 132.2963210   9.7773420 112.0105020 131.6653380
   9.8395360 112.6392730 133.0410780   9.4325660 112.5882240 135.8182760
   8.4828370 112.5545780 135.9327750   9.6138670 113.4982350 135.5832530
   8.7435910 111.7615720 128.2355620   9.2395030 111.5286590 129.0204500
   8.5451980 110.9227560 127.8193260  10.1723070 110.3976670 130.7693300
  10.0622350 110.2432710 131.7075570  10.9330660 109.8697610 130.5268710
   8.5188790 106.3370800 137.2276300   9.1561010 106.9504940 137.5935490
   8.6663680 106.3731460 136.2825530  11.0613340 108.2284590 124.0099440
  11.9862650 108.0965770 123.8017730  11.0389130 108.3077410 124.9635890
  11.1351830 108.9995250 126.6356150  10.3403330 108.9340370 127.1649060
  11.3395110 109.9345890 126.6241500   8.0770250 123.0386800 130.6294540
   8.6729320 122.7171370 129.9528960   8.3348400 122.5658620 131.4207810
   1.8893270 107.4896990 140.1351400   1.8282160 108.0818820 140.8846810
   2.8293650 107.3822950 139.9901660   4.5267830 107.1467050 139.7743690
   5.1408240 107.4646340 139.1124770   5.0717390 106.6615640 140.3939550
  10.9443010 123.0458680 137.1805530  10.4501290 123.4427550 136.4632660
  10.3356300 122.4207890 137.5742810   5.2675870 105.7099190 136.1012980
   4.3935710 106.0434300 135.8985910   5.1586620 105.2372370 136.9264850
   6.1747850 107.9170060 137.4854700   5.8461210 107.1021820 137.1056430
   7.1230150 107.8739870 137.3620390   8.6282460 123.6882100 134.4592270
   8.1685430 124.4397910 134.0850290   7.9994920 122.9688570 134.4007070
   1.7973680 122.8878830 134.4609380   2.0851490 122.6333130 133.5842390
   2.3096900 122.3356190 135.0514950   3.0150690 106.6269030 135.0405890
   2.2322480 107.1014530 135.3202650   2.7213620 105.7223860 134.9319070
   7.5671760 107.3292130 133.0854980   8.0079850 107.2737230 132.2376580
   7.2979350 108.2450140 133.1565160   9.4310330 106.9607370 131.0963800
   9.3698730 106.0168590 130.9494820  10.2102360 107.0687460 131.6417260
   5.4029890 105.7098230 131.7904990   6.0059260 106.2818440 132.2653510
   4.6622880 106.2737670 131.5678890   8.5464490 106.1119790 127.0645270
   8.7415120 107.0103240 127.3312700   7.7594360 105.8806870 127.5578220
   1.8646040 123.8094930 141.8277580   2.7913350 123.5739200 141.8713540
   1.8496470 124.6366930 141.3463610  10.0991100 123.3520500 128.8251830
  10.2743290 122.6658240 128.1812750   9.4012670 123.8767550 128.4328500
   5.6525110 105.8893260 142.1699930   5.5390560 106.2087870 143.0651450
   6.4694850 106.2905770 141.8737210   8.4323600 123.0364790 141.6518620
   9.2248920 122.5414020 141.4444580   8.7256750 123.7154930 142.2594230
   4.5583260 113.9085730 112.5334670   4.4777310 112.9940340 112.2626380
   4.1447680 114.4052800 111.8274380   2.6901300 115.6864750 114.4143940
   1.9143400 115.2065190 114.7042510   3.3414230 115.0070400 114.2400100
   6.7108730 120.0924940 113.1943070   6.2490260 119.3212180 113.5230240
   7.5234280 120.1191010 113.6995520   2.9372040 122.3782950 112.8147060
   2.3183480 122.8340450 112.2441500   3.7923820 122.5334410 112.4136760
   2.1310290 118.3621940 114.4214100   2.0618570 117.4211880 114.2603230
   2.8930150 118.4523350 114.9936670   3.1615460 111.1692320 114.6483030
   3.5380280 110.2964200 114.5356700   3.0634970 111.5051020 113.7573470
   6.9439580 108.6642760 111.5811370   7.7649200 108.1739330 111.6236850
   6.9773660 109.2540420 112.3343210  11.2339130 110.6809510 118.1455000
  10.5291300 111.0691220 117.6270110  11.4997050 111.3759800 118.7475930
   3.8035390 117.2622190 110.2078970   3.1852660 117.7271640 109.6441690
   4.3158640 117.9549670 110.6248480   7.1801060 110.6043140 114.3538910
   6.4756630 110.8928030 114.9342020   7.5413220 111.4143250 113.9938470
   8.7963840 120.2218270 116.6166390   8.1127360 120.8917380 116.6083060
   9.3358130 120.4198920 115.8511250  10.2487980 110.0497930 114.7448120
   9.3012890 110.0836910 114.8763550  10.5737970 110.8636880 115.1297480
   6.3322580 122.0662400 115.3311570   6.3449740 121.6624690 114.4633830
   5.7797800 122.8409690 115.2273000   7.6268000 118.7878620 110.4201740
   7.5164330 117.8452950 110.5451160   7.6236250 119.1494260 111.3064500
   5.7308020 116.9692240 116.6594180   6.1476810 116.7552350 115.8247640
   6.4547840 117.2265030 117.2302800   3.1688280 114.4143940 109.7764230
   2.2417560 114.3481320 110.0052700   3.3213100 115.3524070 109.6619470
   3.1557360 110.6860940 106.7731390   2.2161030 110.8474900 106.8583850
   3.4740620 111.4046620 106.2267380   9.6770120 115.3679460 116.7510420
   8.8488750 115.4372550 116.2760550  10.2720600 115.9533770 116.2826250
   7.1985570 115.9764240 110.2799480   6.5797990 115.6383790 109.6325780
   7.1810020 115.3324000 110.9878670   6.6412130 112.1548780 117.6965290
   6.2283310 112.9802490 117.9505280   5.9088080 111.5693820 117.5041650
   7.3312230 122.2008110 118.3846270   6.8542790 123.0080300 118.1918880
   6.6474020 121.5486440 118.5372480   5.3750270 115.2151050 107.2872230
   5.8143550 114.3773480 107.1410050   6.0878690 115.8480450 107.3736370
   3.4845650 120.1547120 111.2553470   3.9241560 120.8971450 110.8408860
   3.4232540 120.3973690 112.1792430   8.9567410 106.4693860 105.6013270
   8.6440070 106.5620690 106.5012340   9.7179880 107.0474890 105.5510700
  10.9111440 121.9620050 123.4537660  11.3871160 122.4402940 124.1326740
  11.5318600 121.8937540 122.7283160  10.3144690 119.1532900 120.6137670
  10.4407750 118.9144780 119.6954850  10.3566070 118.3217440 121.0859750
   4.1761430 122.8560900 119.1832480   4.6906100 122.7668910 119.9854910
   3.3330510 123.2020600 119.4760390   6.1515830 123.1416240 108.6116480
   5.9916970 122.8519180 109.5098310   5.9862540 122.3656370 108.0761710
   5.8541960 120.6503800 107.1714480   5.1607120 120.6481090 106.5116760
   6.5964820 120.2263120 106.7408650   5.4191890 122.2766510 111.2462970
   5.8748840 121.4955890 111.5601590   5.7584410 122.9873330 111.7904150
  10.1668700 111.2065360 121.5787410   9.5512970 111.7145030 121.0502870
   9.8465120 110.3063690 121.5213350   2.2283020 110.0457250 119.0449600
   1.7662390 110.2540270 119.8569540   1.8261130 109.2316600 118.7420270
   7.2287530 111.2666200 120.1746260   6.3781120 110.9671950 120.4955330
   7.0689320 111.5108210 119.2630080   4.3237240 112.7667950 122.2745050
   4.6490650 111.9331700 121.9347280   5.1117570 113.2896470 122.4223380
   4.9625190 112.3085670 109.7686180   4.3634080 113.0321470 109.5849800
   5.5104800 112.2462450 108.9862630   3.5690060 110.9449210 111.7989460
   3.9619630 111.2621410 110.9858150   3.9306910 110.0661090 111.9133980
   4.1545200 113.5354960 115.8940240   3.4226320 114.0441770 116.2430340
   3.7569540 112.7184940 115.5929020   4.6171110 108.9888640 115.3063180
   4.6343850 109.4397290 116.1505030   4.3686690 108.0894280 115.5196620
   8.0441860 106.4020820 121.1449560   8.3687630 105.6710480 121.6707540
   8.0798370 106.0834460 120.2430550   7.9699700 116.5145930 114.7535590
   8.6898820 117.0101220 114.3631700   7.7681520 115.8363820 114.1089460
   3.4309640 107.9083890 108.8964980   2.6174250 107.4097060 108.8210290
   3.2371590 108.7482140 108.4801330   3.3518500 116.5854990 120.6404590
   3.2855810 115.6650660 120.3862180   2.7223640 116.6830430 121.3549230
   6.1458030 112.2803540 107.1927140   7.0337650 112.5920770 107.0178480
   6.1163120 111.4075790 106.8007720   2.1418620 118.4527230 107.8715310
   2.4834320 119.1969460 107.3758630   1.3131330 118.7658350 108.2340140
   3.2835230 119.4075560 120.3908390   3.2979770 118.4756520 120.1727300
   2.5760330 119.4935320 121.0298160   8.4172300 113.5915380 106.6607000
   8.3336020 114.0229600 105.8103440   9.1366490 114.0513730 107.0933820
   9.4946440 116.0482900 119.7376970   8.7694630 116.6411680 119.5406360
  10.0221900 116.0406440 118.9390340   9.4459550 120.4457640 109.3889130
   8.8035710 119.7913260 109.6632850   9.0590210 120.8512730 108.6129800
   5.0246030 117.7743070 113.2360820   5.3769850 117.1771200 112.5762190
   4.1408360 117.4487300 113.4069070   2.7169130 121.0493130 117.4848890
   3.3611350 121.2552510 118.1622310   3.0798570 120.2881530 117.0319740
   3.9901210 119.0525480 116.2026340   4.6323440 118.3518640 116.3158510
   4.5150560 119.8323920 116.0223230   7.8356930 119.3374100 105.9265480
   7.6094510 118.6204540 106.5190120   7.4453130 119.0886540 105.0887230
   5.7638830 119.8520380 119.4062400   6.0995070 120.4387070 120.0840320
   4.8439170 119.7213090 119.6360190   7.4173180 117.2546040 107.5879640
   7.1294880 117.7158730 108.3757520   8.2125350 116.7943810 107.8563860
   4.8081010 110.1337870 117.9387260   5.1761830 109.3133080 118.2666830
   3.9479210 110.1939760 118.3542910   8.1743040 109.0894810 108.7474820
   7.5456200 109.1940480 108.0333050   7.6794960 109.3091590 109.5368700
   2.6201180 120.8100400 106.1808800   2.7213160 120.6064390 105.2510780
   1.7202920 120.5558680 106.3856580   1.7683000 112.7877460 118.1625230
   2.2668250 113.2623280 118.8277080   1.9105950 111.8640980 118.3695260
   4.1742500 108.0931420 111.6028490   4.0510280 108.1117550 110.6538000
   5.1227060 108.1410360 111.7226890   8.9749860 109.0045420 119.0053620
   8.4723460 109.7450820 119.3447430   9.7906520 109.3929420 118.6890410
   7.2671870 114.2478600 112.4514980   6.3262010 114.2628830 112.6262670
   7.5815940 113.4614560 112.8975280   9.2697450 121.4187450 114.1269240
   9.3944870 122.2418620 114.5993050  10.1363010 121.2078180 113.7793390
   4.5837890 118.8044600 122.9347360   3.9776050 118.8276200 122.1943110
   4.2792000 118.0727640 123.4714610   6.0138260 122.5324890 121.5456770
   6.9660010 122.4482910 121.4957010   5.8666480 123.1966600 122.2190560
   8.9047460 121.9119100 107.0448680   8.6188970 121.4984240 106.2302860
   8.7067010 122.8406810 106.9249200   3.6097420 116.9672410 106.0896280
   3.0607520 117.4141710 106.7339020   4.2316680 116.4621660 106.6133950
   7.6632360 118.3214510 122.0218540   8.4041830 118.6590270 121.5186000
   6.9005040 118.4906570 121.4688310   1.7900180 114.9500940 105.2338680
   2.3105840 114.2349960 104.8679830   2.4368580 115.5886810 105.5339190
   6.3378020 116.3729340 120.5573750   6.7519040 116.5274420 121.4064170
   5.4029020 116.4984560 120.7199530   6.8100190 113.7125500 122.5612900
   7.3920960 112.9577820 122.4733380   6.9861960 114.2432940 121.7844380
   3.4357150 114.0566000 119.9107520   3.5553360 113.4607140 120.6502360
   4.2951150 114.0935690 119.4908820   5.7745050 114.6103190 118.4870030
   5.2480270 115.1345810 117.8835170   6.1176390 115.2430580 119.1179760
   5.0219350 110.2153160 121.4016360   4.3334870 109.5534700 121.3366350
   5.7425370 109.7691430 121.8464820   5.6519750 106.8104790 107.4606620
   5.9322040 105.9672690 107.8166040   4.8785480 107.0427900 107.9745370
   2.3548210 123.0312550 107.5240420   3.2499000 123.3697520 107.5459180
   2.3865840 122.3091960 106.8964700   9.3342560 121.5616220 120.2306620
   8.7344550 121.6208780 119.4870540   9.4636460 120.6221200 120.3603470
  10.5744010 119.3034040 105.5676330   9.7436970 119.3710690 106.0383560
  10.7515840 120.1938160 105.2643190  10.0300470 116.0481520 108.0710530
  10.7919380 116.6178170 108.1770220  10.0454840 115.4808720 108.8418840
  11.0360440 116.9031620 112.9152460  11.4069270 116.1198940 112.5088430
  11.6762370 117.5920720 112.7369760   8.0194200 118.2868200 118.3282780
   7.2054040 118.7165360 118.5908570   8.4268400 118.8986610 117.7151830
  10.0819640 116.3415890 105.2283050  10.3568480 117.2494770 105.1002270
   9.8930380 116.2778420 106.1645040   6.4795250 109.3660740 106.5236680
   6.8980130 109.1791720 105.6833340   6.1731310 108.5139790 106.8339610
   9.9784980 114.2784880 110.2212480   9.6028580 113.5112810 109.7893770
   9.2488100 114.6607580 110.7087410   9.3684600 113.4256400 119.8552000
   9.1370690 113.1969150 118.9549950   9.6289150 114.3455950 119.8096890
   7.8072670 108.6512830 122.6331700   8.6842850 108.6596230 123.0165700
   7.8193510 107.9143670 122.0224050   9.2535940 112.5042370 113.5219720
   9.7773420 112.0105020 112.8909890   9.8395360 112.6392730 114.2667290
   9.4325660 112.5882240 117.0439270   8.4828370 112.5545780 117.1584260
   9.6138670 113.4982350 116.8089040   8.7435910 111.7615720 109.4612130
   9.2395030 111.5286590 110.2461010   8.5451980 110.9227560 109.0449770
  10.1723070 110.3976670 111.9949810  10.0622350 110.2432710 112.9332080
  10.9330660 109.8697610 111.7525220   8.5188790 106.3370800 118.4532810
   9.1561010 106.9504940 118.8192000   8.6663680 106.3731460 117.5082040
  11.0613340 108.2284590 105.2355950  11.9862650 108.0965770 105.0274240
  11.0389130 108.3077410 106.1892400  11.1351830 108.9995250 107.8612660
  10.3403330 108.9340370 108.3905570  11.3395110 109.9345890 107.8498010
   8.0770250 123.0386800 111.8551050   8.6729320 122.7171370 111.1785470
   8.3348400 122.5658620 112.6464320   1.8893270 107.4896990 121.3607910
   1.8282160 108.0818820 122.1103320   2.8293650 107.3822950 121.2158170
   4.5267830 107.1467050 121.0000200   5.1408240 107.4646340 120.3381280
   5.0717390 106.6615640 121.6196060  10.9443010 123.0458680 118.4062040
  10.4501290 123.4427550 117.6889170  10.3356300 122.4207890 118.7999320
   5.2675870 105.7099190 117.3269490   4.3935710 106.0434300 117.1242420
   5.1586620 105.2372370 118.1521360   6.1747850 107.9170060 118.7111210
   5.8461210 107.1021820 118.3312940   7.1230150 107.8739870 118.5876900
   8.6282460 123.6882100 115.6848780   8.1685430 124.4397910 115.3106800
   7.9994920 122.9688570 115.6263580   1.7973680 122.8878830 115.6865890
   2.0851490 122.6333130 114.8098900   2.3096900 122.3356190 116.2771460
   3.0150690 106.6269030 116.2662400   2.2322480 107.1014530 116.5459160
   2.7213620 105.7223860 116.1575580   7.5671760 107.3292130 114.3111490
   8.0079850 107.2737230 113.4633090   7.2979350 108.2450140 114.3821670
   9.4310330 106.9607370 112.3220310   9.3698730 106.0168590 112.1751330
  10.2102360 107.0687460 112.8673770   5.4029890 105.7098230 113.0161500
   6.0059260 106.2818440 113.4910020   4.6622880 106.2737670 112.7935400
   8.5464490 106.1119790 108.2901780   8.7415120 107.0103240 108.5569210
   7.7594360 105.8806870 108.7834730   1.8646040 123.8094930 123.0534090
   2.7913350 123.5739200 123.0970050   1.8496470 124.6366930 122.5720120
  10.0991100 123.3520500 110.0508340  10.2743290 122.6658240 109.4069260
   9.4012670 123.8767550 109.6585010   5.6525110 105.8893260 123.3956440
   5.5390560 106.2087870 124.2907960   6.4694850 106.2905770 123.0993720
   8.4323600 123.0364790 122.8775130   9.2248920 122.5414020 122.6701090
   8.7256750 123.7154930 123.4850740   4.5583260 113.9085730  93.7591180
   4.4777310 112.9940340  93.4882890   4.1447680 114.4052800  93.0530890
   2.6901300 115.6864750  95.6400450   1.9143400 115.2065190  95.9299020
   3.3414230 115.0070400  95.4656610   6.7108730 120.0924940  94.4199580
   6.2490260 119.3212180  94.7486750   7.5234280 120.1191010  94.9252030
   2.9372040 122.3782950  94.0403570   2.3183480 122.8340450  93.4698010
   3.7923820 122.5334410  93.6393270   2.1310290 118.3621940  95.6470610
   2.0618570 117.4211880  95.4859740   2.8930150 118.4523350  96.2193180
   3.1615460 111.1692320  95.8739540   3.5380280 110.2964200  95.7613210
   3.0634970 111.5051020  94.9829980   6.9439580 108.6642760  92.8067880
   7.7649200 108.1739330  92.8493360   6.9773660 109.2540420  93.5599720
  11.2339130 110.6809510  99.3711510  10.5291300 111.0691220  98.8526620
  11.4997050 111.3759800  99.9732440   3.8035390 117.2622190  91.4335480
   3.1852660 117.7271640  90.8698200   4.3158640 117.9549670  91.8504990
   7.1801060 110.6043140  95.5795420   6.4756630 110.8928030  96.1598530
   7.5413220 111.4143250  95.2194980   8.7963840 120.2218270  97.8422900
   8.1127360 120.8917380  97.8339570   9.3358130 120.4198920  97.0767760
  10.2487980 110.0497930  95.9704630   9.3012890 110.0836910  96.1020060
  10.5737970 110.8636880  96.3553990   6.3322580 122.0662400  96.5568080
   6.3449740 121.6624690  95.6890340   5.7797800 122.8409690  96.4529510
   7.6268000 118.7878620  91.6458250   7.5164330 117.8452950  91.7707670
   7.6236250 119.1494260  92.5321010   5.7308020 116.9692240  97.8850690
   6.1476810 116.7552350  97.0504150   6.4547840 117.2265030  98.4559310
   3.1688280 114.4143940  91.0020740   2.2417560 114.3481320  91.2309210
   3.3213100 115.3524070  90.8875980   3.1557360 110.6860940  87.9987900
   2.2161030 110.8474900  88.0840360   3.4740620 111.4046620  87.4523890
   9.6770120 115.3679460  97.9766930   8.8488750 115.4372550  97.5017060
  10.2720600 115.9533770  97.5082760   7.1985570 115.9764240  91.5055990
   6.5797990 115.6383790  90.8582290   7.1810020 115.3324000  92.2135180
   6.6412130 112.1548780  98.9221800   6.2283310 112.9802490  99.1761790
   5.9088080 111.5693820  98.7298160   7.3312230 122.2008110  99.6102780
   6.8542790 123.0080300  99.4175390   6.6474020 121.5486440  99.7628990
   5.3750270 115.2151050  88.5128740   5.8143550 114.3773480  88.3666560
   6.0878690 115.8480450  88.5992880   3.4845650 120.1547120  92.4809980
   3.9241560 120.8971450  92.0665370   3.4232540 120.3973690  93.4048940
   8.9567410 106.4693860  86.8269780   8.6440070 106.5620690  87.7268850
   9.7179880 107.0474890  86.7767210  10.9111440 121.9620050 104.6794170
  11.3871160 122.4402940 105.3583250  11.5318600 121.8937540 103.9539670
  10.3144690 119.1532900 101.8394180  10.4407750 118.9144780 100.9211360
  10.3566070 118.3217440 102.3116260   4.1761430 122.8560900 100.4088990
   4.6906100 122.7668910 101.2111420   3.3330510 123.2020600 100.7016900
   6.1515830 123.1416240  89.8372990   5.9916970 122.8519180  90.7354820
   5.9862540 122.3656370  89.3018220   5.8541960 120.6503800  88.3970990
   5.1607120 120.6481090  87.7373270   6.5964820 120.2263120  87.9665160
   5.4191890 122.2766510  92.4719480   5.8748840 121.4955890  92.7858100
   5.7584410 122.9873330  93.0160660  10.1668700 111.2065360 102.8043920
   9.5512970 111.7145030 102.2759380   9.8465120 110.3063690 102.7469860
   2.2283020 110.0457250 100.2706110   1.7662390 110.2540270 101.0826050
   1.8261130 109.2316600  99.9676780   7.2287530 111.2666200 101.4002770
   6.3781120 110.9671950 101.7211840   7.0689320 111.5108210 100.4886590
   4.3237240 112.7667950 103.5001560   4.6490650 111.9331700 103.1603790
   5.1117570 113.2896470 103.6479890   4.9625190 112.3085670  90.9942690
   4.3634080 113.0321470  90.8106310   5.5104800 112.2462450  90.2119140
   3.5690060 110.9449210  93.0245970   3.9619630 111.2621410  92.2114660
   3.9306910 110.0661090  93.1390490   4.1545200 113.5354960  97.1196750
   3.4226320 114.0441770  97.4686850   3.7569540 112.7184940  96.8185530
   4.6171110 108.9888640  96.5319690   4.6343850 109.4397290  97.3761540
   4.3686690 108.0894280  96.7453130   8.0441860 106.4020820 102.3706070
   8.3687630 105.6710480 102.8964050   8.0798370 106.0834460 101.4687060
   7.9699700 116.5145930  95.9792100   8.6898820 117.0101220  95.5888210
   7.7681520 115.8363820  95.3345970   3.4309640 107.9083890  90.1221490
   2.6174250 107.4097060  90.0466800   3.2371590 108.7482140  89.7057840
   3.3518500 116.5854990 101.8661100   3.2855810 115.6650660 101.6118690
   2.7223640 116.6830430 102.5805740   6.1458030 112.2803540  88.4183650
   7.0337650 112.5920770  88.2434990   6.1163120 111.4075790  88.0264230
   2.1418620 118.4527230  89.0971820   2.4834320 119.1969460  88.6015140
   1.3131330 118.7658350  89.4596650   3.2835230 119.4075560 101.6164900
   3.2979770 118.4756520 101.3983810   2.5760330 119.4935320 102.2554670
   8.4172300 113.5915380  87.8863510   8.3336020 114.0229600  87.0359950
   9.1366490 114.0513730  88.3190330   9.4946440 116.0482900 100.9633480
   8.7694630 116.6411680 100.7662870  10.0221900 116.0406440 100.1646850
   9.4459550 120.4457640  90.6145640   8.8035710 119.7913260  90.8889360
   9.0590210 120.8512730  89.8386310   5.0246030 117.7743070  94.4617330
   5.3769850 117.1771200  93.8018700   4.1408360 117.4487300  94.6325580
   2.7169130 121.0493130  98.7105400   3.3611350 121.2552510  99.3878820
   3.0798570 120.2881530  98.2576250   3.9901210 119.0525480  97.4282850
   4.6323440 118.3518640  97.5415020   4.5150560 119.8323920  97.2479740
   7.8356930 119.3374100  87.1521990   7.6094510 118.6204540  87.7446630
   7.4453130 119.0886540  86.3143740   5.7638830 119.8520380 100.6318910
   6.0995070 120.4387070 101.3096830   4.8439170 119.7213090 100.8616700
   7.4173180 117.2546040  88.8136150   7.1294880 117.7158730  89.6014030
   8.2125350 116.7943810  89.0820370   4.8081010 110.1337870  99.1643770
   5.1761830 109.3133080  99.4923340   3.9479210 110.1939760  99.5799420
   8.1743040 109.0894810  89.9731330   7.5456200 109.1940480  89.2589560
   7.6794960 109.3091590  90.7625210   2.6201180 120.8100400  87.4065310
   2.7213160 120.6064390  86.4767290   1.7202920 120.5558680  87.6113090
   1.7683000 112.7877460  99.3881740   2.2668250 113.2623280 100.0533590
   1.9105950 111.8640980  99.5951770   4.1742500 108.0931420  92.8285000
   4.0510280 108.1117550  91.8794510   5.1227060 108.1410360  92.9483400
   8.9749860 109.0045420 100.2310130   8.4723460 109.7450820 100.5703940
   9.7906520 109.3929420  99.9146920   7.2671870 114.2478600  93.6771490
   6.3262010 114.2628830  93.8519180   7.5815940 113.4614560  94.1231790
   9.2697450 121.4187450  95.3525750   9.3944870 122.2418620  95.8249560
  10.1363010 121.2078180  95.0049900   4.5837890 118.8044600 104.1603870
   3.9776050 118.8276200 103.4199620   4.2792000 118.0727640 104.6971120
   6.0138260 122.5324890 102.7713280   6.9660010 122.4482910 102.7213520
   5.8666480 123.1966600 103.4447070   8.9047460 121.9119100  88.2705190
   8.6188970 121.4984240  87.4559370   8.7067010 122.8406810  88.1505710
   3.6097420 116.9672410  87.3152790   3.0607520 117.4141710  87.9595530
   4.2316680 116.4621660  87.8390460   7.6632360 118.3214510 103.2475050
   8.4041830 118.6590270 102.7442510   6.9005040 118.4906570 102.6944820
   1.7900180 114.9500940  86.4595190   2.3105840 114.2349960  86.0936340
   2.4368580 115.5886810  86.7595700   6.3378020 116.3729340 101.7830260
   6.7519040 116.5274420 102.6320680   5.4029020 116.4984560 101.9456040
   6.8100190 113.7125500 103.7869410   7.3920960 112.9577820 103.6989890
   6.9861960 114.2432940 103.0100890   3.4357150 114.0566000 101.1364030
   3.5553360 113.4607140 101.8758870   4.2951150 114.0935690 100.7165330
   5.7745050 114.6103190  99.7126540   5.2480270 115.1345810  99.1091680
   6.1176390 115.2430580 100.3436270   5.0219350 110.2153160 102.6272870
   4.3334870 109.5534700 102.5622860   5.7425370 109.7691430 103.0721330
   5.6519750 106.8104790  88.6863130   5.9322040 105.9672690  89.0422550
   4.8785480 107.0427900  89.2001880   2.3548210 123.0312550  88.7496930
   3.2499000 123.3697520  88.7715690   2.3865840 122.3091960  88.1221210
   9.3342560 121.5616220 101.4563130   8.7344550 121.6208780 100.7127050
   9.4636460 120.6221200 101.5859980  10.5744010 119.3034040  86.7932840
   9.7436970 119.3710690  87.2640070  10.7515840 120.1938160  86.4899700
  10.0300470 116.0481520  89.2967040  10.7919380 116.6178170  89.4026730
  10.0454840 115.4808720  90.0675350  11.0360440 116.9031620  94.1408970
  11.4069270 116.1198940  93.7344940  11.6762370 117.5920720  93.9626270
   8.0194200 118.2868200  99.5539290   7.2054040 118.7165360  99.8165080
   8.4268400 118.8986610  98.9408340  10.0819640 116.3415890  86.4539560
  10.3568480 117.2494770  86.3258780   9.8930380 116.2778420  87.3901550
   6.4795250 109.3660740  87.7493190   6.8980130 109.1791720  86.9089850
   6.1731310 108.5139790  88.0596120   9.9784980 114.2784880  91.4468990
   9.6028580 113.5112810  91.0150280   9.2488100 114.6607580  91.9343920
   9.3684600 113.4256400 101.0808510   9.1370690 113.1969150 100.1806460
   9.6289150 114.3455950 101.0353400   7.8072670 108.6512830 103.8588210
   8.6842850 108.6596230 104.2422210   7.8193510 107.9143670 103.2480560
   9.2535940 112.5042370  94.7476230   9.7773420 112.0105020  94.1166400
   9.8395360 112.6392730  95.4923800   9.4325660 112.5882240  98.2695780
   8.4828370 112.5545780  98.3840770   9.6138670 113.4982350  98.0345550
   8.7435910 111.7615720  90.6868640   9.2395030 111.5286590  91.4717520
   8.5451980 110.9227560  90.2706280  10.1723070 110.3976670  93.2206320
  10.0622350 110.2432710  94.1588590  10.9330660 109.8697610  92.9781730
   8.5188790 106.3370800  99.6789320   9.1561010 106.9504940 100.0448510
   8.6663680 106.3731460  98.7338550  11.0613340 108.2284590  86.4612460
  11.9862650 108.0965770  86.2530750  11.0389130 108.3077410  87.4148910
  11.1351830 108.9995250  89.0869170  10.3403330 108.9340370  89.6162080
  11.3395110 109.9345890  89.0754520   8.0770250 123.0386800  93.0807560
   8.6729320 122.7171370  92.4041980   8.3348400 122.5658620  93.8720830
   1.8893270 107.4896990 102.5864420   1.8282160 108.0818820 103.3359830
   2.8293650 107.3822950 102.4414680   4.5267830 107.1467050 102.2256710
   5.1408240 107.4646340 101.5637790   5.0717390 106.6615640 102.8452570
  10.9443010 123.0458680  99.6318550  10.4501290 123.4427550  98.9145680
  10.3356300 122.4207890 100.0255830   5.2675870 105.7099190  98.5526000
   4.3935710 106.0434300  98.3498930   5.1586620 105.2372370  99.3777870
   6.1747850 107.9170060  99.9367720   5.8461210 107.1021820  99.5569450
   7.1230150 107.8739870  99.8133410   8.6282460 123.6882100  96.9105290
   8.1685430 124.4397910  96.5363310   7.9994920 122.9688570  96.8520090
   1.7973680 122.8878830  96.9122400   2.0851490 122.6333130  96.0355410
   2.3096900 122.3356190  97.5027970   3.0150690 106.6269030  97.4918910
   2.2322480 107.1014530  97.7715670   2.7213620 105.7223860  97.3832090
   7.5671760 107.3292130  95.5368000   8.0079850 107.2737230  94.6889600
   7.2979350 108.2450140  95.6078180   9.4310330 106.9607370  93.5476820
   9.3698730 106.0168590  93.4007840  10.2102360 107.0687460  94.0930280
   5.4029890 105.7098230  94.2418010   6.0059260 106.2818440  94.7166530
   4.6622880 106.2737670  94.0191910   8.5464490 106.1119790  89.5158290
   8.7415120 107.0103240  89.7825720   7.7594360 105.8806870  90.0091240
   1.8646040 123.8094930 104.2790600   2.7913350 123.5739200 104.3226560
   1.8496470 124.6366930 103.7976630  10.0991100 123.3520500  91.2764850
  10.2743290 122.6658240  90.6325770   9.4012670 123.8767550  90.8841520
   5.6525110 105.8893260 104.6212950   5.5390560 106.2087870 105.5164470
   6.4694850 106.2905770 104.3250230   8.4323600 123.0364790 104.1031640
   9.2248920 122.5414020 103.8957600   8.7256750 123.7154930 104.7107250
   4.5583260 113.9085730  74.9847690   4.4777310 112.9940340  74.7139400
   4.1447680 114.4052800  74.2787400   2.6901300 115.6864750  76.8656960
   1.9143400 115.2065190  77.1555530   3.3414230 115.0070400  76.6913120
   6.7108730 120.0924940  75.6456090   6.2490260 119.3212180  75.9743260
   7.5234280 120.1191010  76.1508540   2.9372040 122.3782950  75.2660080
   2.3183480 122.8340450  74.6954520   3.7923820 122.5334410  74.8649780
   2.1310290 118.3621940  76.8727120   2.0618570 117.4211880  76.7116250
   2.8930150 118.4523350  77.4449690   3.1615460 111.1692320  77.0996050
   3.5380280 110.2964200  76.9869720   3.0634970 111.5051020  76.2086490
   6.9439580 108.6642760  74.0324390   7.7649200 108.1739330  74.0749870
   6.9773660 109.2540420  74.7856230  11.2339130 110.6809510  80.5968020
  10.5291300 111.0691220  80.0783130  11.4997050 111.3759800  81.1988950
   3.8035390 117.2622190  72.6591990   3.1852660 117.7271640  72.0954710
   4.3158640 117.9549670  73.0761500   7.1801060 110.6043140  76.8051930
   6.4756630 110.8928030  77.3855040   7.5413220 111.4143250  76.4451490
   8.7963840 120.2218270  79.0679410   8.1127360 120.8917380  79.0596080
   9.3358130 120.4198920  78.3024270  10.2487980 110.0497930  77.1961140
   9.3012890 110.0836910  77.3276570  10.5737970 110.8636880  77.5810500
   6.3322580 122.0662400  77.7824590   6.3449740 121.6624690  76.9146850
   5.7797800 122.8409690  77.6786020   7.6268000 118.7878620  72.8714760
   7.5164330 117.8452950  72.9964180   7.6236250 119.1494260  73.7577520
   5.7308020 116.9692240  79.1107200   6.1476810 116.7552350  78.2760660
   6.4547840 117.2265030  79.6815820   3.1688280 114.4143940  72.2277250
   2.2417560 114.3481320  72.4565720   3.3213100 115.3524070  72.1132490
   3.1557360 110.6860940  69.2244410   2.2161030 110.8474900  69.3096870
   3.4740620 111.4046620  68.6780400   9.6770120 115.3679460  79.2023440
   8.8488750 115.4372550  78.7273570  10.2720600 115.9533770  78.7339270
   7.1985570 115.9764240  72.7312500   6.5797990 115.6383790  72.0838800
   7.1810020 115.3324000  73.4391690   6.6412130 112.1548780  80.1478310
   6.2283310 112.9802490  80.4018300   5.9088080 111.5693820  79.9554670
   7.3312230 122.2008110  80.8359290   6.8542790 123.0080300  80.6431900
   6.6474020 121.5486440  80.9885500   5.3750270 115.2151050  69.7385250
   5.8143550 114.3773480  69.5923070   6.0878690 115.8480450  69.8249390
   3.4845650 120.1547120  73.7066490   3.9241560 120.8971450  73.2921880
   3.4232540 120.3973690  74.6305450   8.9567410 106.4693860  68.0526290
   8.6440070 106.5620690  68.9525360   9.7179880 107.0474890  68.0023720
  10.9111440 121.9620050  85.9050680  11.3871160 122.4402940  86.5839760
  11.5318600 121.8937540  85.1796180  10.3144690 119.1532900  83.0650690
  10.4407750 118.9144780  82.1467870  10.3566070 118.3217440  83.5372770
   4.1761430 122.8560900  81.6345500   4.6906100 122.7668910  82.4367930
   3.3330510 123.2020600  81.9273410   6.1515830 123.1416240  71.0629500
   5.9916970 122.8519180  71.9611330   5.9862540 122.3656370  70.5274730
   5.8541960 120.6503800  69.6227500   5.1607120 120.6481090  68.9629780
   6.5964820 120.2263120  69.1921670   5.4191890 122.2766510  73.6975990
   5.8748840 121.4955890  74.0114610   5.7584410 122.9873330  74.2417170
  10.1668700 111.2065360  84.0300430   9.5512970 111.7145030  83.5015890
   9.8465120 110.3063690  83.9726370   2.2283020 110.0457250  81.4962620
   1.7662390 110.2540270  82.3082560   1.8261130 109.2316600  81.1933290
   7.2287530 111.2666200  82.6259280   6.3781120 110.9671950  82.9468350
   7.0689320 111.5108210  81.7143100   4.3237240 112.7667950  84.7258070
   4.6490650 111.9331700  84.3860300   5.1117570 113.2896470  84.8736400
   4.9625190 112.3085670  72.2199200   4.3634080 113.0321470  72.0362820
   5.5104800 112.2462450  71.4375650   3.5690060 110.9449210  74.2502480
   3.9619630 111.2621410  73.4371170   3.9306910 110.0661090  74.3647000
   4.1545200 113.5354960  78.3453260   3.4226320 114.0441770  78.6943360
   3.7569540 112.7184940  78.0442040   4.6171110 108.9888640  77.7576200
   4.6343850 109.4397290  78.6018050   4.3686690 108.0894280  77.9709640
   8.0441860 106.4020820  83.5962580   8.3687630 105.6710480  84.1220560
   8.0798370 106.0834460  82.6943570   7.9699700 116.5145930  77.2048610
   8.6898820 117.0101220  76.8144720   7.7681520 115.8363820  76.5602480
   3.4309640 107.9083890  71.3478000   2.6174250 107.4097060  71.2723310
   3.2371590 108.7482140  70.9314350   3.3518500 116.5854990  83.0917610
   3.2855810 115.6650660  82.8375200   2.7223640 116.6830430  83.8062250
   6.1458030 112.2803540  69.6440160   7.0337650 112.5920770  69.4691500
   6.1163120 111.4075790  69.2520740   2.1418620 118.4527230  70.3228330
   2.4834320 119.1969460  69.8271650   1.3131330 118.7658350  70.6853160
   3.2835230 119.4075560  82.8421410   3.2979770 118.4756520  82.6240320
   2.5760330 119.4935320  83.4811180   8.4172300 113.5915380  69.1120020
   8.3336020 114.0229600  68.2616460   9.1366490 114.0513730  69.5446840
   9.4946440 116.0482900  82.1889990   8.7694630 116.6411680  81.9919380
  10.0221900 116.0406440  81.3903360   9.4459550 120.4457640  71.8402150
   8.8035710 119.7913260  72.1145870   9.0590210 120.8512730  71.0642820
   5.0246030 117.7743070  75.6873840   5.3769850 117.1771200  75.0275210
   4.1408360 117.4487300  75.8582090   2.7169130 121.0493130  79.9361910
   3.3611350 121.2552510  80.6135330   3.0798570 120.2881530  79.4832760
   3.9901210 119.0525480  78.6539360   4.6323440 118.3518640  78.7671530
   4.5150560 119.8323920  78.4736250   7.8356930 119.3374100  68.3778500
   7.6094510 118.6204540  68.9703140   7.4453130 119.0886540  67.5400250
   5.7638830 119.8520380  81.8575420   6.0995070 120.4387070  82.5353340
   4.8439170 119.7213090  82.0873210   7.4173180 117.2546040  70.0392660
   7.1294880 117.7158730  70.8270540   8.2125350 116.7943810  70.3076880
   4.8081010 110.1337870  80.3900280   5.1761830 109.3133080  80.7179850
   3.9479210 110.1939760  80.8055930   8.1743040 109.0894810  71.1987840
   7.5456200 109.1940480  70.4846070   7.6794960 109.3091590  71.9881720
   2.6201180 120.8100400  68.6321820   2.7213160 120.6064390  67.7023800
   1.7202920 120.5558680  68.8369600   1.7683000 112.7877460  80.6138250
   2.2668250 113.2623280  81.2790100   1.9105950 111.8640980  80.8208280
   4.1742500 108.0931420  74.0541510   4.0510280 108.1117550  73.1051020
   5.1227060 108.1410360  74.1739910   8.9749860 109.0045420  81.4566640
   8.4723460 109.7450820  81.7960450   9.7906520 109.3929420  81.1403430
   7.2671870 114.2478600  74.9028000   6.3262010 114.2628830  75.0775690
   7.5815940 113.4614560  75.3488300   9.2697450 121.4187450  76.5782260
   9.3944870 122.2418620  77.0506070  10.1363010 121.2078180  76.2306410
   4.5837890 118.8044600  85.3860380   3.9776050 118.8276200  84.6456130
   4.2792000 118.0727640  85.9227630   6.0138260 122.5324890  83.9969790
   6.9660010 122.4482910  83.9470030   5.8666480 123.1966600  84.6703580
   8.9047460 121.9119100  69.4961700   8.6188970 121.4984240  68.6815880
   8.7067010 122.8406810  69.3762220   3.6097420 116.9672410  68.5409300
   3.0607520 117.4141710  69.1852040   4.2316680 116.4621660  69.0646970
   7.6632360 118.3214510  84.4731560   8.4041830 118.6590270  83.9699020
   6.9005040 118.4906570  83.9201330   1.7900180 114.9500940  67.6851700
   2.3105840 114.2349960  67.3192850   2.4368580 115.5886810  67.9852210
   6.3378020 116.3729340  83.0086770   6.7519040 116.5274420  83.8577190
   5.4029020 116.4984560  83.1712550   6.8100190 113.7125500  85.0125920
   7.3920960 112.9577820  84.9246400   6.9861960 114.2432940  84.2357400
   3.4357150 114.0566000  82.3620540   3.5553360 113.4607140  83.1015380
   4.2951150 114.0935690  81.9421840   5.7745050 114.6103190  80.9383050
   5.2480270 115.1345810  80.3348190   6.1176390 115.2430580  81.5692780
   5.0219350 110.2153160  83.8529380   4.3334870 109.5534700  83.7879370
   5.7425370 109.7691430  84.2977840   5.6519750 106.8104790  69.9119640
   5.9322040 105.9672690  70.2679060   4.8785480 107.0427900  70.4258390
   2.3548210 123.0312550  69.9753440   3.2499000 123.3697520  69.9972200
   2.3865840 122.3091960  69.3477720   9.3342560 121.5616220  82.6819640
   8.7344550 121.6208780  81.9383560   9.4636460 120.6221200  82.8116490
  10.5744010 119.3034040  68.0189350   9.7436970 119.3710690  68.4896580
  10.7515840 120.1938160  67.7156210  10.0300470 116.0481520  70.5223550
  10.7919380 116.6178170  70.6283240  10.0454840 115.4808720  71.2931860
  11.0360440 116.9031620  75.3665480  11.4069270 116.1198940  74.9601450
  11.6762370 117.5920720  75.1882780   8.0194200 118.2868200  80.7795800
   7.2054040 118.7165360  81.0421590   8.4268400 118.8986610  80.1664850
  10.0819640 116.3415890  67.6796070  10.3568480 117.2494770  67.5515290
   9.8930380 116.2778420  68.6158060   6.4795250 109.3660740  68.9749700
   6.8980130 109.1791720  68.1346360   6.1731310 108.5139790  69.2852630
   9.9784980 114.2784880  72.6725500   9.6028580 113.5112810  72.2406790
   9.2488100 114.6607580  73.1600430   9.3684600 113.4256400  82.3065020
   9.1370690 113.1969150  81.4062970   9.6289150 114.3455950  82.2609910
   7.8072670 108.6512830  85.0844720   8.6842850 108.6596230  85.4678720
   7.8193510 107.9143670  84.4737070   9.2535940 112.5042370  75.9732740
   9.7773420 112.0105020  75.3422910   9.8395360 112.6392730  76.7180310
   9.4325660 112.5882240  79.4952290   8.4828370 112.5545780  79.6097280
   9.6138670 113.4982350  79.2602060   8.7435910 111.7615720  71.9125150
   9.2395030 111.5286590  72.6974030   8.5451980 110.9227560  71.4962790
  10.1723070 110.3976670  74.4462830  10.0622350 110.2432710  75.3845100
  10.9330660 109.8697610  74.2038240   8.5188790 106.3370800  80.9045830
   9.1561010 106.9504940  81.2705020   8.6663680 106.3731460  79.9595060
  11.0613340 108.2284590  67.6868970  11.9862650 108.0965770  67.4787260
  11.0389130 108.3077410  68.6405420  11.1351830 108.9995250  70.3125680
  10.3403330 108.9340370  70.8418590  11.3395110 109.9345890  70.3011030
   8.0770250 123.0386800  74.3064070   8.6729320 122.7171370  73.6298490
   8.3348400 122.5658620  75.0977340   1.8893270 107.4896990  83.8120930
   1.8282160 108.0818820  84.5616340   2.8293650 107.3822950  83.6671190
   4.5267830 107.1467050  83.4513220   5.1408240 107.4646340  82.7894300
   5.0717390 106.6615640  84.0709080  10.9443010 123.0458680  80.8575060
  10.4501290 123.4427550  80.1402190  10.3356300 122.4207890  81.2512340
   5.2675870 105.7099190  79.7782510   4.3935710 106.0434300  79.5755440
   5.1586620 105.2372370  80.6034380   6.1747850 107.9170060  81.1624230
   5.8461210 107.1021820  80.7825960   7.1230150 107.8739870  81.0389920
   8.6282460 123.6882100  78.1361800   8.1685430 124.4397910  77.7619820
   7.9994920 122.9688570  78.0776600   1.7973680 122.8878830  78.1378910
   2.0851490 122.6333130  77.2611920   2.3096900 122.3356190  78.7284480
   3.0150690 106.6269030  78.7175420   2.2322480 107.1014530  78.9972180
   2.7213620 105.7223860  78.6088600   7.5671760 107.3292130  76.7624510
   8.0079850 107.2737230  75.9146110   7.2979350 108.2450140  76.8334690
   9.4310330 106.9607370  74.7733330   9.3698730 106.0168590  74.6264350
  10.2102360 107.0687460  75.3186790   5.4029890 105.7098230  75.4674520
   6.0059260 106.2818440  75.9423040   4.6622880 106.2737670  75.2448420
   8.5464490 106.1119790  70.7414800   8.7415120 107.0103240  71.0082230
   7.7594360 105.8806870  71.2347750   1.8646040 123.8094930  85.5047110
   2.7913350 123.5739200  85.5483070   1.8496470 124.6366930  85.0233140
  10.0991100 123.3520500  72.5021360  10.2743290 122.6658240  71.8582280
   9.4012670 123.8767550  72.1098030   5.6525110 105.8893260  85.8469460
   5.5390560 106.2087870  86.7420980   6.4694850 106.2905770  85.5506740
   8.4323600 123.0364790  85.3288150   9.2248920 122.5414020  85.1214110
   8.7256750 123.7154930  85.9363760   4.5583260 113.9085730  56.2104200
   4.4777310 112.9940340  55.9395910   4.1447680 114.4052800  55.5043910
   2.6901300 115.6864750  58.0913470   1.9143400 115.2065190  58.3812040
   3.3414230 115.0070400  57.9169630   6.7108730 120.0924940  56.8712600
   6.2490260 119.3212180  57.1999770   7.5234280 120.1191010  57.3765050
   2.9372040 122.3782950  56.4916590   2.3183480 122.8340450  55.9211030
   3.7923820 122.5334410  56.0906290   2.1310290 118.3621940  58.0983630
   2.0618570 117.4211880  57.9372760   2.8930150 118.4523350  58.6706200
   3.1615460 111.1692320  58.3252560   3.5380280 110.2964200  58.2126230
   3.0634970 111.5051020  57.4343000   6.9439580 108.6642760  55.2580900
   7.7649200 108.1739330  55.3006380   6.9773660 109.2540420  56.0112740
  11.2339130 110.6809510  61.8224530  10.5291300 111.0691220  61.3039640
  11.4997050 111.3759800  62.4245460   3.8035390 117.2622190  53.8848500
   3.1852660 117.7271640  53.3211220   4.3158640 117.9549670  54.3018010
   7.1801060 110.6043140  58.0308440   6.4756630 110.8928030  58.6111550
   7.5413220 111.4143250  57.6708000   8.7963840 120.2218270  60.2935920
   8.1127360 120.8917380  60.2852590   9.3358130 120.4198920  59.5280780
  10.2487980 110.0497930  58.4217650   9.3012890 110.0836910  58.5533080
  10.5737970 110.8636880  58.8067010   6.3322580 122.0662400  59.0081100
   6.3449740 121.6624690  58.1403360   5.7797800 122.8409690  58.9042530
   7.6268000 118.7878620  54.0971270   7.5164330 117.8452950  54.2220690
   7.6236250 119.1494260  54.9834030   5.7308020 116.9692240  60.3363710
   6.1476810 116.7552350  59.5017170   6.4547840 117.2265030  60.9072330
   3.1688280 114.4143940  53.4533760   2.2417560 114.3481320  53.6822230
   3.3213100 115.3524070  53.3389000   3.1557360 110.6860940  50.4500920
   2.2161030 110.8474900  50.5353380   3.4740620 111.4046620  49.9036910
   9.6770120 115.3679460  60.4279950   8.8488750 115.4372550  59.9530080
  10.2720600 115.9533770  59.9595780   7.1985570 115.9764240  53.9569010
   6.5797990 115.6383790  53.3095310   7.1810020 115.3324000  54.6648200
   6.6412130 112.1548780  61.3734820   6.2283310 112.9802490  61.6274810
   5.9088080 111.5693820  61.1811180   7.3312230 122.2008110  62.0615800
   6.8542790 123.0080300  61.8688410   6.6474020 121.5486440  62.2142010
   5.3750270 115.2151050  50.9641760   5.8143550 114.3773480  50.8179580
   6.0878690 115.8480450  51.0505900   3.4845650 120.1547120  54.9323000
   3.9241560 120.8971450  54.5178390   3.4232540 120.3973690  55.8561960
   8.9567410 106.4693860  49.2782800   8.6440070 106.5620690  50.1781870
   9.7179880 107.0474890  49.2280230  10.9111440 121.9620050  67.1307190
  11.3871160 122.4402940  67.8096270  11.5318600 121.8937540  66.4052690
  10.3144690 119.1532900  64.2907200  10.4407750 118.9144780  63.3724380
  10.3566070 118.3217440  64.7629280   4.1761430 122.8560900  62.8602010
   4.6906100 122.7668910  63.6624440   3.3330510 123.2020600  63.1529920
   6.1515830 123.1416240  52.2886010   5.9916970 122.8519180  53.1867840
   5.9862540 122.3656370  51.7531240   5.8541960 120.6503800  50.8484010
   5.1607120 120.6481090  50.1886290   6.5964820 120.2263120  50.4178180
   5.4191890 122.2766510  54.9232500   5.8748840 121.4955890  55.2371120
   5.7584410 122.9873330  55.4673680  10.1668700 111.2065360  65.2556940
   9.5512970 111.7145030  64.7272400   9.8465120 110.3063690  65.1982880
   2.2283020 110.0457250  62.7219130   1.7662390 110.2540270  63.5339070
   1.8261130 109.2316600  62.4189800   7.2287530 111.2666200  63.8515790
   6.3781120 110.9671950  64.1724860   7.0689320 111.5108210  62.9399610
   4.3237240 112.7667950  65.9514580   4.6490650 111.9331700  65.6116810
   5.1117570 113.2896470  66.0992910   4.9625190 112.3085670  53.4455710
   4.3634080 113.0321470  53.2619330   5.5104800 112.2462450  52.6632160
   3.5690060 110.9449210  55.4758990   3.9619630 111.2621410  54.6627680
   3.9306910 110.0661090  55.5903510   4.1545200 113.5354960  59.5709770
   3.4226320 114.0441770  59.9199870   3.7569540 112.7184940  59.2698550
   4.6171110 108.9888640  58.9832710   4.6343850 109.4397290  59.8274560
   4.3686690 108.0894280  59.1966150   8.0441860 106.4020820  64.8219090
   8.3687630 105.6710480  65.3477070   8.0798370 106.0834460  63.9200080
   7.9699700 116.5145930  58.4305120   8.6898820 117.0101220  58.0401230
   7.7681520 115.8363820  57.7858990   3.4309640 107.9083890  52.5734510
   2.6174250 107.4097060  52.4979820   3.2371590 108.7482140  52.1570860
   3.3518500 116.5854990  64.3174120   3.2855810 115.6650660  64.0631710
   2.7223640 116.6830430  65.0318760   6.1458030 112.2803540  50.8696670
   7.0337650 112.5920770  50.6948010   6.1163120 111.4075790  50.4777250
   2.1418620 118.4527230  51.5484840   2.4834320 119.1969460  51.0528160
   1.3131330 118.7658350  51.9109670   3.2835230 119.4075560  64.0677920
   3.2979770 118.4756520  63.8496830   2.5760330 119.4935320  64.7067690
   8.4172300 113.5915380  50.3376530   8.3336020 114.0229600  49.4872970
   9.1366490 114.0513730  50.7703350   9.4946440 116.0482900  63.4146500
   8.7694630 116.6411680  63.2175890  10.0221900 116.0406440  62.6159870
   9.4459550 120.4457640  53.0658660   8.8035710 119.7913260  53.3402380
   9.0590210 120.8512730  52.2899330   5.0246030 117.7743070  56.9130350
   5.3769850 117.1771200  56.2531720   4.1408360 117.4487300  57.0838600
   2.7169130 121.0493130  61.1618420   3.3611350 121.2552510  61.8391840
   3.0798570 120.2881530  60.7089270   3.9901210 119.0525480  59.8795870
   4.6323440 118.3518640  59.9928040   4.5150560 119.8323920  59.6992760
   7.8356930 119.3374100  49.6035010   7.6094510 118.6204540  50.1959650
   7.4453130 119.0886540  48.7656760   5.7638830 119.8520380  63.0831930
   6.0995070 120.4387070  63.7609850   4.8439170 119.7213090  63.3129720
   7.4173180 117.2546040  51.2649170   7.1294880 117.7158730  52.0527050
   8.2125350 116.7943810  51.5333390   4.8081010 110.1337870  61.6156790
   5.1761830 109.3133080  61.9436360   3.9479210 110.1939760  62.0312440
   8.1743040 109.0894810  52.4244350   7.5456200 109.1940480  51.7102580
   7.6794960 109.3091590  53.2138230   2.6201180 120.8100400  49.8578330
   2.7213160 120.6064390  48.9280310   1.7202920 120.5558680  50.0626110
   1.7683000 112.7877460  61.8394760   2.2668250 113.2623280  62.5046610
   1.9105950 111.8640980  62.0464790   4.1742500 108.0931420  55.2798020
   4.0510280 108.1117550  54.3307530   5.1227060 108.1410360  55.3996420
   8.9749860 109.0045420  62.6823150   8.4723460 109.7450820  63.0216960
   9.7906520 109.3929420  62.3659940   7.2671870 114.2478600  56.1284510
   6.3262010 114.2628830  56.3032200   7.5815940 113.4614560  56.5744810
   9.2697450 121.4187450  57.8038770   9.3944870 122.2418620  58.2762580
  10.1363010 121.2078180  57.4562920   4.5837890 118.8044600  66.6116890
   3.9776050 118.8276200  65.8712640   4.2792000 118.0727640  67.1484140
   6.0138260 122.5324890  65.2226300   6.9660010 122.4482910  65.1726540
   5.8666480 123.1966600  65.8960090   8.9047460 121.9119100  50.7218210
   8.6188970 121.4984240  49.9072390   8.7067010 122.8406810  50.6018730
   3.6097420 116.9672410  49.7665810   3.0607520 117.4141710  50.4108550
   4.2316680 116.4621660  50.2903480   7.6632360 118.3214510  65.6988070
   8.4041830 118.6590270  65.1955530   6.9005040 118.4906570  65.1457840
   1.7900180 114.9500940  48.9108210   2.3105840 114.2349960  48.5449360
   2.4368580 115.5886810  49.2108720   6.3378020 116.3729340  64.2343280
   6.7519040 116.5274420  65.0833700   5.4029020 116.4984560  64.3969060
   6.8100190 113.7125500  66.2382430   7.3920960 112.9577820  66.1502910
   6.9861960 114.2432940  65.4613910   3.4357150 114.0566000  63.5877050
   3.5553360 113.4607140  64.3271890   4.2951150 114.0935690  63.1678350
   5.7745050 114.6103190  62.1639560   5.2480270 115.1345810  61.5604700
   6.1176390 115.2430580  62.7949290   5.0219350 110.2153160  65.0785890
   4.3334870 109.5534700  65.0135880   5.7425370 109.7691430  65.5234350
   5.6519750 106.8104790  51.1376150   5.9322040 105.9672690  51.4935570
   4.8785480 107.0427900  51.6514900   2.3548210 123.0312550  51.2009950
   3.2499000 123.3697520  51.2228710   2.3865840 122.3091960  50.5734230
   9.3342560 121.5616220  63.9076150   8.7344550 121.6208780  63.1640070
   9.4636460 120.6221200  64.0373000  10.5744010 119.3034040  49.2445860
   9.7436970 119.3710690  49.7153090  10.7515840 120.1938160  48.9412720
  10.0300470 116.0481520  51.7480060  10.7919380 116.6178170  51.8539750
  10.0454840 115.4808720  52.5188370  11.0360440 116.9031620  56.5921990
  11.4069270 116.1198940  56.1857960  11.6762370 117.5920720  56.4139290
   8.0194200 118.2868200  62.0052310   7.2054040 118.7165360  62.2678100
   8.4268400 118.8986610  61.3921360  10.0819640 116.3415890  48.9052580
  10.3568480 117.2494770  48.7771800   9.8930380 116.2778420  49.8414570
   6.4795250 109.3660740  50.2006210   6.8980130 109.1791720  49.3602870
   6.1731310 108.5139790  50.5109140   9.9784980 114.2784880  53.8982010
   9.6028580 113.5112810  53.4663300   9.2488100 114.6607580  54.3856940
   9.3684600 113.4256400  63.5321530   9.1370690 113.1969150  62.6319480
   9.6289150 114.3455950  63.4866420   7.8072670 108.6512830  66.3101230
   8.6842850 108.6596230  66.6935230   7.8193510 107.9143670  65.6993580
   9.2535940 112.5042370  57.1989250   9.7773420 112.0105020  56.5679420
   9.8395360 112.6392730  57.9436820   9.4325660 112.5882240  60.7208800
   8.4828370 112.5545780  60.8353790   9.6138670 113.4982350  60.4858570
   8.7435910 111.7615720  53.1381660   9.2395030 111.5286590  53.9230540
   8.5451980 110.9227560  52.7219300  10.1723070 110.3976670  55.6719340
  10.0622350 110.2432710  56.6101610  10.9330660 109.8697610  55.4294750
   8.5188790 106.3370800  62.1302340   9.1561010 106.9504940  62.4961530
   8.6663680 106.3731460  61.1851570  11.0613340 108.2284590  48.9125480
  11.9862650 108.0965770  48.7043770  11.0389130 108.3077410  49.8661930
  11.1351830 108.9995250  51.5382190  10.3403330 108.9340370  52.0675100
  11.3395110 109.9345890  51.5267540   8.0770250 123.0386800  55.5320580
   8.6729320 122.7171370  54.8555000   8.3348400 122.5658620  56.3233850
   1.8893270 107.4896990  65.0377440   1.8282160 108.0818820  65.7872850
   2.8293650 107.3822950  64.8927700   4.5267830 107.1467050  64.6769730
   5.1408240 107.4646340  64.0150810   5.0717390 106.6615640  65.2965590
  10.9443010 123.0458680  62.0831570  10.4501290 123.4427550  61.3658700
  10.3356300 122.4207890  62.4768850   5.2675870 105.7099190  61.0039020
   4.3935710 106.0434300  60.8011950   5.1586620 105.2372370  61.8290890
   6.1747850 107.9170060  62.3880740   5.8461210 107.1021820  62.0082470
   7.1230150 107.8739870  62.2646430   8.6282460 123.6882100  59.3618310
   8.1685430 124.4397910  58.9876330   7.9994920 122.9688570  59.3033110
   1.7973680 122.8878830  59.3635420   2.0851490 122.6333130  58.4868430
   2.3096900 122.3356190  59.9540990   3.0150690 106.6269030  59.9431930
   2.2322480 107.1014530  60.2228690   2.7213620 105.7223860  59.8345110
   7.5671760 107.3292130  57.9881020   8.0079850 107.2737230  57.1402620
   7.2979350 108.2450140  58.0591200   9.4310330 106.9607370  55.9989840
   9.3698730 106.0168590  55.8520860  10.2102360 107.0687460  56.5443300
   5.4029890 105.7098230  56.6931030   6.0059260 106.2818440  57.1679550
   4.6622880 106.2737670  56.4704930   8.5464490 106.1119790  51.9671310
   8.7415120 107.0103240  52.2338740   7.7594360 105.8806870  52.4604260
   1.8646040 123.8094930  66.7303620   2.7913350 123.5739200  66.7739580
   1.8496470 124.6366930  66.2489650  10.0991100 123.3520500  53.7277870
  10.2743290 122.6658240  53.0838790   9.4012670 123.8767550  53.3354540
   5.6525110 105.8893260  67.0725970   5.5390560 106.2087870  67.9677490
   6.4694850 106.2905770  66.7763250   8.4323600 123.0364790  66.5544660
   9.2248920 122.5414020  66.3470620   8.7256750 123.7154930  67.1620270
   4.5583260 113.9085730  37.4360710   4.4777310 112.9940340  37.1652420
   4.1447680 114.4052800  36.7300420   2.6901300 115.6864750  39.3169980
   1.9143400 115.2065190  39.6068550   3.3414230 115.0070400  39.1426140
   6.7108730 120.0924940  38.0969110   6.2490260 119.3212180  38.4256280
   7.5234280 120.1191010  38.6021560   2.9372040 122.3782950  37.7173100
   2.3183480 122.8340450  37.1467540   3.7923820 122.5334410  37.3162800
   2.1310290 118.3621940  39.3240140   2.0618570 117.4211880  39.1629270
   2.8930150 118.4523350  39.8962710   3.1615460 111.1692320  39.5509070
   3.5380280 110.2964200  39.4382740   3.0634970 111.5051020  38.6599510
   6.9439580 108.6642760  36.4837410   7.7649200 108.1739330  36.5262890
   6.9773660 109.2540420  37.2369250  11.2339130 110.6809510  43.0481040
  10.5291300 111.0691220  42.5296150  11.4997050 111.3759800  43.6501970
   3.8035390 117.2622190  35.1105010   3.1852660 117.7271640  34.5467730
   4.3158640 117.9549670  35.5274520   7.1801060 110.6043140  39.2564950
   6.4756630 110.8928030  39.8368060   7.5413220 111.4143250  38.8964510
   8.7963840 120.2218270  41.5192430   8.1127360 120.8917380  41.5109100
   9.3358130 120.4198920  40.7537290  10.2487980 110.0497930  39.6474160
   9.3012890 110.0836910  39.7789590  10.5737970 110.8636880  40.0323520
   6.3322580 122.0662400  40.2337610   6.3449740 121.6624690  39.3659870
   5.7797800 122.8409690  40.1299040   7.6268000 118.7878620  35.3227780
   7.5164330 117.8452950  35.4477200   7.6236250 119.1494260  36.2090540
   5.7308020 116.9692240  41.5620220   6.1476810 116.7552350  40.7273680
   6.4547840 117.2265030  42.1328840   3.1688280 114.4143940  34.6790270
   2.2417560 114.3481320  34.9078740   3.3213100 115.3524070  34.5645510
   3.1557360 110.6860940  31.6757430   2.2161030 110.8474900  31.7609890
   3.4740620 111.4046620  31.1293420   9.6770120 115.3679460  41.6536460
   8.8488750 115.4372550  41.1786590  10.2720600 115.9533770  41.1852290
   7.1985570 115.9764240  35.1825520   6.5797990 115.6383790  34.5351820
   7.1810020 115.3324000  35.8904710   6.6412130 112.1548780  42.5991330
   6.2283310 112.9802490  42.8531320   5.9088080 111.5693820  42.4067690
   7.3312230 122.2008110  43.2872310   6.8542790 123.0080300  43.0944920
   6.6474020 121.5486440  43.4398520   5.3750270 115.2151050  32.1898270
   5.8143550 114.3773480  32.0436090   6.0878690 115.8480450  32.2762410
   3.4845650 120.1547120  36.1579510   3.9241560 120.8971450  35.7434900
   3.4232540 120.3973690  37.0818470   8.9567410 106.4693860  30.5039310
   8.6440070 106.5620690  31.4038380   9.7179880 107.0474890  30.4536740
  10.9111440 121.9620050  48.3563700  11.3871160 122.4402940  49.0352780
  11.5318600 121.8937540  47.6309200  10.3144690 119.1532900  45.5163710
  10.4407750 118.9144780  44.5980890  10.3566070 118.3217440  45.9885790
   4.1761430 122.8560900  44.0858520   4.6906100 122.7668910  44.8880950
   3.3330510 123.2020600  44.3786430   6.1515830 123.1416240  33.5142520
   5.9916970 122.8519180  34.4124350   5.9862540 122.3656370  32.9787750
   5.8541960 120.6503800  32.0740520   5.1607120 120.6481090  31.4142800
   6.5964820 120.2263120  31.6434690   5.4191890 122.2766510  36.1489010
   5.8748840 121.4955890  36.4627630   5.7584410 122.9873330  36.6930190
  10.1668700 111.2065360  46.4813450   9.5512970 111.7145030  45.9528910
   9.8465120 110.3063690  46.4239390   2.2283020 110.0457250  43.9475640
   1.7662390 110.2540270  44.7595580   1.8261130 109.2316600  43.6446310
   7.2287530 111.2666200  45.0772300   6.3781120 110.9671950  45.3981370
   7.0689320 111.5108210  44.1656120   4.3237240 112.7667950  47.1771090
   4.6490650 111.9331700  46.8373320   5.1117570 113.2896470  47.3249420
   4.9625190 112.3085670  34.6712220   4.3634080 113.0321470  34.4875840
   5.5104800 112.2462450  33.8888670   3.5690060 110.9449210  36.7015500
   3.9619630 111.2621410  35.8884190   3.9306910 110.0661090  36.8160020
   4.1545200 113.5354960  40.7966280   3.4226320 114.0441770  41.1456380
   3.7569540 112.7184940  40.4955060   4.6171110 108.9888640  40.2089220
   4.6343850 109.4397290  41.0531070   4.3686690 108.0894280  40.4222660
   8.0441860 106.4020820  46.0475600   8.3687630 105.6710480  46.5733580
   8.0798370 106.0834460  45.1456590   7.9699700 116.5145930  39.6561630
   8.6898820 117.0101220  39.2657740   7.7681520 115.8363820  39.0115500
   3.4309640 107.9083890  33.7991020   2.6174250 107.4097060  33.7236330
   3.2371590 108.7482140  33.3827370   3.3518500 116.5854990  45.5430630
   3.2855810 115.6650660  45.2888220   2.7223640 116.6830430  46.2575270
   6.1458030 112.2803540  32.0953180   7.0337650 112.5920770  31.9204520
   6.1163120 111.4075790  31.7033760   2.1418620 118.4527230  32.7741350
   2.4834320 119.1969460  32.2784670   1.3131330 118.7658350  33.1366180
   3.2835230 119.4075560  45.2934430   3.2979770 118.4756520  45.0753340
   2.5760330 119.4935320  45.9324200   8.4172300 113.5915380  31.5633040
   8.3336020 114.0229600  30.7129480   9.1366490 114.0513730  31.9959860
   9.4946440 116.0482900  44.6403010   8.7694630 116.6411680  44.4432400
  10.0221900 116.0406440  43.8416380   9.4459550 120.4457640  34.2915170
   8.8035710 119.7913260  34.5658890   9.0590210 120.8512730  33.5155840
   5.0246030 117.7743070  38.1386860   5.3769850 117.1771200  37.4788230
   4.1408360 117.4487300  38.3095110   2.7169130 121.0493130  42.3874930
   3.3611350 121.2552510  43.0648350   3.0798570 120.2881530  41.9345780
   3.9901210 119.0525480  41.1052380   4.6323440 118.3518640  41.2184550
   4.5150560 119.8323920  40.9249270   7.8356930 119.3374100  30.8291520
   7.6094510 118.6204540  31.4216160   7.4453130 119.0886540  29.9913270
   5.7638830 119.8520380  44.3088440   6.0995070 120.4387070  44.9866360
   4.8439170 119.7213090  44.5386230   7.4173180 117.2546040  32.4905680
   7.1294880 117.7158730  33.2783560   8.2125350 116.7943810  32.7589900
   4.8081010 110.1337870  42.8413300   5.1761830 109.3133080  43.1692870
   3.9479210 110.1939760  43.2568950   8.1743040 109.0894810  33.6500860
   7.5456200 109.1940480  32.9359090   7.6794960 109.3091590  34.4394740
   2.6201180 120.8100400  31.0834840   2.7213160 120.6064390  30.1536820
   1.7202920 120.5558680  31.2882620   1.7683000 112.7877460  43.0651270
   2.2668250 113.2623280  43.7303120   1.9105950 111.8640980  43.2721300
   4.1742500 108.0931420  36.5054530   4.0510280 108.1117550  35.5564040
   5.1227060 108.1410360  36.6252930   8.9749860 109.0045420  43.9079660
   8.4723460 109.7450820  44.2473470   9.7906520 109.3929420  43.5916450
   7.2671870 114.2478600  37.3541020   6.3262010 114.2628830  37.5288710
   7.5815940 113.4614560  37.8001320   9.2697450 121.4187450  39.0295280
   9.3944870 122.2418620  39.5019090  10.1363010 121.2078180  38.6819430
   4.5837890 118.8044600  47.8373400   3.9776050 118.8276200  47.0969150
   4.2792000 118.0727640  48.3740650   6.0138260 122.5324890  46.4482810
   6.9660010 122.4482910  46.3983050   5.8666480 123.1966600  47.1216600
   8.9047460 121.9119100  31.9474720   8.6188970 121.4984240  31.1328900
   8.7067010 122.8406810  31.8275240   3.6097420 116.9672410  30.9922320
   3.0607520 117.4141710  31.6365060   4.2316680 116.4621660  31.5159990
   7.6632360 118.3214510  46.9244580   8.4041830 118.6590270  46.4212040
   6.9005040 118.4906570  46.3714350   1.7900180 114.9500940  30.1364720
   2.3105840 114.2349960  29.7705870   2.4368580 115.5886810  30.4365230
   6.3378020 116.3729340  45.4599790   6.7519040 116.5274420  46.3090210
   5.4029020 116.4984560  45.6225570   6.8100190 113.7125500  47.4638940
   7.3920960 112.9577820  47.3759420   6.9861960 114.2432940  46.6870420
   3.4357150 114.0566000  44.8133560   3.5553360 113.4607140  45.5528400
   4.2951150 114.0935690  44.3934860   5.7745050 114.6103190  43.3896070
   5.2480270 115.1345810  42.7861210   6.1176390 115.2430580  44.0205800
   5.0219350 110.2153160  46.3042400   4.3334870 109.5534700  46.2392390
   5.7425370 109.7691430  46.7490860   5.6519750 106.8104790  32.3632660
   5.9322040 105.9672690  32.7192080   4.8785480 107.0427900  32.8771410
   2.3548210 123.0312550  32.4266460   3.2499000 123.3697520  32.4485220
   2.3865840 122.3091960  31.7990740   9.3342560 121.5616220  45.1332660
   8.7344550 121.6208780  44.3896580   9.4636460 120.6221200  45.2629510
  10.5744010 119.3034040  30.4702370   9.7436970 119.3710690  30.9409600
  10.7515840 120.1938160  30.1669230  10.0300470 116.0481520  32.9736570
  10.7919380 116.6178170  33.0796260  10.0454840 115.4808720  33.7444880
  11.0360440 116.9031620  37.8178500  11.4069270 116.1198940  37.4114470
  11.6762370 117.5920720  37.6395800   8.0194200 118.2868200  43.2308820
   7.2054040 118.7165360  43.4934610   8.4268400 118.8986610  42.6177870
  10.0819640 116.3415890  30.1309090  10.3568480 117.2494770  30.0028310
   9.8930380 116.2778420  31.0671080   6.4795250 109.3660740  31.4262720
   6.8980130 109.1791720  30.5859380   6.1731310 108.5139790  31.7365650
   9.9784980 114.2784880  35.1238520   9.6028580 113.5112810  34.6919810
   9.2488100 114.6607580  35.6113450   9.3684600 113.4256400  44.7578040
   9.1370690 113.1969150  43.8575990   9.6289150 114.3455950  44.7122930
   7.8072670 108.6512830  47.5357740   8.6842850 108.6596230  47.9191740
   7.8193510 107.9143670  46.9250090   9.2535940 112.5042370  38.4245760
   9.7773420 112.0105020  37.7935930   9.8395360 112.6392730  39.1693330
   9.4325660 112.5882240  41.9465310   8.4828370 112.5545780  42.0610300
   9.6138670 113.4982350  41.7115080   8.7435910 111.7615720  34.3638170
   9.2395030 111.5286590  35.1487050   8.5451980 110.9227560  33.9475810
  10.1723070 110.3976670  36.8975850  10.0622350 110.2432710  37.8358120
  10.9330660 109.8697610  36.6551260   8.5188790 106.3370800  43.3558850
   9.1561010 106.9504940  43.7218040   8.6663680 106.3731460  42.4108080
  11.0613340 108.2284590  30.1381990  11.9862650 108.0965770  29.9300280
  11.0389130 108.3077410  31.0918440  11.1351830 108.9995250  32.7638700
  10.3403330 108.9340370  33.2931610  11.3395110 109.9345890  32.7524050
   8.0770250 123.0386800  36.7577090   8.6729320 122.7171370  36.0811510
   8.3348400 122.5658620  37.5490360   1.8893270 107.4896990  46.2633950
   1.8282160 108.0818820  47.0129360   2.8293650 107.3822950  46.1184210
   4.5267830 107.1467050  45.9026240   5.1408240 107.4646340  45.2407320
   5.0717390 106.6615640  46.5222100  10.9443010 123.0458680  43.3088080
  10.4501290 123.4427550  42.5915210  10.3356300 122.4207890  43.7025360
   5.2675870 105.7099190  42.2295530   4.3935710 106.0434300  42.0268460
   5.1586620 105.2372370  43.0547400   6.1747850 107.9170060  43.6137250
   5.8461210 107.1021820  43.2338980   7.1230150 107.8739870  43.4902940
   8.6282460 123.6882100  40.5874820   8.1685430 124.4397910  40.2132840
   7.9994920 122.9688570  40.5289620   1.7973680 122.8878830  40.5891930
   2.0851490 122.6333130  39.7124940   2.3096900 122.3356190  41.1797500
   3.0150690 106.6269030  41.1688440   2.2322480 107.1014530  41.4485200
   2.7213620 105.7223860  41.0601620   7.5671760 107.3292130  39.2137530
   8.0079850 107.2737230  38.3659130   7.2979350 108.2450140  39.2847710
   9.4310330 106.9607370  37.2246350   9.3698730 106.0168590  37.0777370
  10.2102360 107.0687460  37.7699810   5.4029890 105.7098230  37.9187540
   6.0059260 106.2818440  38.3936060   4.6622880 106.2737670  37.6961440
   8.5464490 106.1119790  33.1927820   8.7415120 107.0103240  33.4595250
   7.7594360 105.8806870  33.6860770   1.8646040 123.8094930  47.9560130
   2.7913350 123.5739200  47.9996090   1.8496470 124.6366930  47.4746160
  10.0991100 123.3520500  34.9534380  10.2743290 122.6658240  34.3095300
   9.4012670 123.8767550  34.5611050   5.6525110 105.8893260  48.2982480
   5.5390560 106.2087870  49.1934000   6.4694850 106.2905770  48.0019760
   8.4323600 123.0364790  47.7801170   9.2248920 122.5414020  47.5727130
   8.7256750 123.7154930  48.3876780   4.5583260 113.9085730  18.6617220
   4.4777310 112.9940340  18.3908930   4.1447680 114.4052800  17.9556930
   2.6901300 115.6864750  20.5426490   1.9143400 115.2065190  20.8325060
   3.3414230 115.0070400  20.3682650   6.7108730 120.0924940  19.3225620
   6.2490260 119.3212180  19.6512790   7.5234280 120.1191010  19.8278070
   2.9372040 122.3782950  18.9429610   2.3183480 122.8340450  18.3724050
   3.7923820 122.5334410  18.5419310   2.1310290 118.3621940  20.5496650
   2.0618570 117.4211880  20.3885780   2.8930150 118.4523350  21.1219220
   3.1615460 111.1692320  20.7765580   3.5380280 110.2964200  20.6639250
   3.0634970 111.5051020  19.8856020   6.9439580 108.6642760  17.7093920
   7.7649200 108.1739330  17.7519400   6.9773660 109.2540420  18.4625760
  11.2339130 110.6809510  24.2737550  10.5291300 111.0691220  23.7552660
  11.4997050 111.3759800  24.8758480   3.8035390 117.2622190  16.3361520
   3.1852660 117.7271640  15.7724240   4.3158640 117.9549670  16.7531030
   7.1801060 110.6043140  20.4821460   6.4756630 110.8928030  21.0624570
   7.5413220 111.4143250  20.1221020   8.7963840 120.2218270  22.7448940
   8.1127360 120.8917380  22.7365610   9.3358130 120.4198920  21.9793800
  10.2487980 110.0497930  20.8730670   9.3012890 110.0836910  21.0046100
  10.5737970 110.8636880  21.2580030   6.3322580 122.0662400  21.4594120
   6.3449740 121.6624690  20.5916380   5.7797800 122.8409690  21.3555550
   7.6268000 118.7878620  16.5484290   7.5164330 117.8452950  16.6733710
   7.6236250 119.1494260  17.4347050   5.7308020 116.9692240  22.7876730
   6.1476810 116.7552350  21.9530190   6.4547840 117.2265030  23.3585350
   3.1688280 114.4143940  15.9046780   2.2417560 114.3481320  16.1335250
   3.3213100 115.3524070  15.7902020   3.1557360 110.6860940  12.9013940
   2.2161030 110.8474900  12.9866400   3.4740620 111.4046620  12.3549930
   9.6770120 115.3679460  22.8792970   8.8488750 115.4372550  22.4043100
  10.2720600 115.9533770  22.4108800   7.1985570 115.9764240  16.4082030
   6.5797990 115.6383790  15.7608330   7.1810020 115.3324000  17.1161220
   6.6412130 112.1548780  23.8247840   6.2283310 112.9802490  24.0787830
   5.9088080 111.5693820  23.6324200   7.3312230 122.2008110  24.5128820
   6.8542790 123.0080300  24.3201430   6.6474020 121.5486440  24.6655030
   5.3750270 115.2151050  13.4154780   5.8143550 114.3773480  13.2692600
   6.0878690 115.8480450  13.5018920   3.4845650 120.1547120  17.3836020
   3.9241560 120.8971450  16.9691410   3.4232540 120.3973690  18.3074980
   8.9567410 106.4693860  11.7295820   8.6440070 106.5620690  12.6294890
   9.7179880 107.0474890  11.6793250  10.9111440 121.9620050  29.5820210
  11.3871160 122.4402940  30.2609290  11.5318600 121.8937540  28.8565710
  10.3144690 119.1532900  26.7420220  10.4407750 118.9144780  25.8237400
  10.3566070 118.3217440  27.2142300   4.1761430 122.8560900  25.3115030
   4.6906100 122.7668910  26.1137460   3.3330510 123.2020600  25.6042940
   6.1515830 123.1416240  14.7399030   5.9916970 122.8519180  15.6380860
   5.9862540 122.3656370  14.2044260   5.8541960 120.6503800  13.2997030
   5.1607120 120.6481090  12.6399310   6.5964820 120.2263120  12.8691200
   5.4191890 122.2766510  17.3745520   5.8748840 121.4955890  17.6884140
   5.7584410 122.9873330  17.9186700  10.1668700 111.2065360  27.7069960
   9.5512970 111.7145030  27.1785420   9.8465120 110.3063690  27.6495900
   2.2283020 110.0457250  25.1732150   1.7662390 110.2540270  25.9852090
   1.8261130 109.2316600  24.8702820   7.2287530 111.2666200  26.3028810
   6.3781120 110.9671950  26.6237880   7.0689320 111.5108210  25.3912630
   4.3237240 112.7667950  28.4027600   4.6490650 111.9331700  28.0629830
   5.1117570 113.2896470  28.5505930   4.9625190 112.3085670  15.8968730
   4.3634080 113.0321470  15.7132350   5.5104800 112.2462450  15.1145180
   3.5690060 110.9449210  17.9272010   3.9619630 111.2621410  17.1140700
   3.9306910 110.0661090  18.0416530   4.1545200 113.5354960  22.0222790
   3.4226320 114.0441770  22.3712890   3.7569540 112.7184940  21.7211570
   4.6171110 108.9888640  21.4345730   4.6343850 109.4397290  22.2787580
   4.3686690 108.0894280  21.6479170   8.0441860 106.4020820  27.2732110
   8.3687630 105.6710480  27.7990090   8.0798370 106.0834460  26.3713100
   7.9699700 116.5145930  20.8818140   8.6898820 117.0101220  20.4914250
   7.7681520 115.8363820  20.2372010   3.4309640 107.9083890  15.0247530
   2.6174250 107.4097060  14.9492840   3.2371590 108.7482140  14.6083880
   3.3518500 116.5854990  26.7687140   3.2855810 115.6650660  26.5144730
   2.7223640 116.6830430  27.4831780   6.1458030 112.2803540  13.3209690
   7.0337650 112.5920770  13.1461030   6.1163120 111.4075790  12.9290270
   2.1418620 118.4527230  13.9997860   2.4834320 119.1969460  13.5041180
   1.3131330 118.7658350  14.3622690   3.2835230 119.4075560  26.5190940
   3.2979770 118.4756520  26.3009850   2.5760330 119.4935320  27.1580710
   8.4172300 113.5915380  12.7889550   8.3336020 114.0229600  11.9385990
   9.1366490 114.0513730  13.2216370   9.4946440 116.0482900  25.8659520
   8.7694630 116.6411680  25.6688910  10.0221900 116.0406440  25.0672890
   9.4459550 120.4457640  15.5171680   8.8035710 119.7913260  15.7915400
   9.0590210 120.8512730  14.7412350   5.0246030 117.7743070  19.3643370
   5.3769850 117.1771200  18.7044740   4.1408360 117.4487300  19.5351620
   2.7169130 121.0493130  23.6131440   3.3611350 121.2552510  24.2904860
   3.0798570 120.2881530  23.1602290   3.9901210 119.0525480  22.3308890
   4.6323440 118.3518640  22.4441060   4.5150560 119.8323920  22.1505780
   7.8356930 119.3374100  12.0548030   7.6094510 118.6204540  12.6472670
   7.4453130 119.0886540  11.2169780   5.7638830 119.8520380  25.5344950
   6.0995070 120.4387070  26.2122870   4.8439170 119.7213090  25.7642740
   7.4173180 117.2546040  13.7162190   7.1294880 117.7158730  14.5040070
   8.2125350 116.7943810  13.9846410   4.8081010 110.1337870  24.0669810
   5.1761830 109.3133080  24.3949380   3.9479210 110.1939760  24.4825460
   8.1743040 109.0894810  14.8757370   7.5456200 109.1940480  14.1615600
   7.6794960 109.3091590  15.6651250   2.6201180 120.8100400  12.3091350
   2.7213160 120.6064390  11.3793330   1.7202920 120.5558680  12.5139130
   1.7683000 112.7877460  24.2907780   2.2668250 113.2623280  24.9559630
   1.9105950 111.8640980  24.4977810   4.1742500 108.0931420  17.7311040
   4.0510280 108.1117550  16.7820550   5.1227060 108.1410360  17.8509440
   8.9749860 109.0045420  25.1336170   8.4723460 109.7450820  25.4729980
   9.7906520 109.3929420  24.8172960   7.2671870 114.2478600  18.5797530
   6.3262010 114.2628830  18.7545220   7.5815940 113.4614560  19.0257830
   9.2697450 121.4187450  20.2551790   9.3944870 122.2418620  20.7275600
  10.1363010 121.2078180  19.9075940   4.5837890 118.8044600  29.0629910
   3.9776050 118.8276200  28.3225660   4.2792000 118.0727640  29.5997160
   6.0138260 122.5324890  27.6739320   6.9660010 122.4482910  27.6239560
   5.8666480 123.1966600  28.3473110   8.9047460 121.9119100  13.1731230
   8.6188970 121.4984240  12.3585410   8.7067010 122.8406810  13.0531750
   3.6097420 116.9672410  12.2178830   3.0607520 117.4141710  12.8621570
   4.2316680 116.4621660  12.7416500   7.6632360 118.3214510  28.1501090
   8.4041830 118.6590270  27.6468550   6.9005040 118.4906570  27.5970860
   1.7900180 114.9500940  11.3621230   2.3105840 114.2349960  10.9962380
   2.4368580 115.5886810  11.6621740   6.3378020 116.3729340  26.6856300
   6.7519040 116.5274420  27.5346720   5.4029020 116.4984560  26.8482080
   6.8100190 113.7125500  28.6895450   7.3920960 112.9577820  28.6015930
   6.9861960 114.2432940  27.9126930   3.4357150 114.0566000  26.0390070
   3.5553360 113.4607140  26.7784910   4.2951150 114.0935690  25.6191370
   5.7745050 114.6103190  24.6152580   5.2480270 115.1345810  24.0117720
   6.1176390 115.2430580  25.2462310   5.0219350 110.2153160  27.5298910
   4.3334870 109.5534700  27.4648900   5.7425370 109.7691430  27.9747370
   5.6519750 106.8104790  13.5889170   5.9322040 105.9672690  13.9448590
   4.8785480 107.0427900  14.1027920   2.3548210 123.0312550  13.6522970
   3.2499000 123.3697520  13.6741730   2.3865840 122.3091960  13.0247250
   9.3342560 121.5616220  26.3589170   8.7344550 121.6208780  25.6153090
   9.4636460 120.6221200  26.4886020  10.5744010 119.3034040  11.6958880
   9.7436970 119.3710690  12.1666110  10.7515840 120.1938160  11.3925740
  10.0300470 116.0481520  14.1993080  10.7919380 116.6178170  14.3052770
  10.0454840 115.4808720  14.9701390  11.0360440 116.9031620  19.0435010
  11.4069270 116.1198940  18.6370980  11.6762370 117.5920720  18.8652310
   8.0194200 118.2868200  24.4565330   7.2054040 118.7165360  24.7191120
   8.4268400 118.8986610  23.8434380  10.0819640 116.3415890  11.3565600
  10.3568480 117.2494770  11.2284820   9.8930380 116.2778420  12.2927590
   6.4795250 109.3660740  12.6519230   6.8980130 109.1791720  11.8115890
   6.1731310 108.5139790  12.9622160   9.9784980 114.2784880  16.3495030
   9.6028580 113.5112810  15.9176320   9.2488100 114.6607580  16.8369960
   9.3684600 113.4256400  25.9834550   9.1370690 113.1969150  25.0832500
   9.6289150 114.3455950  25.9379440   7.8072670 108.6512830  28.7614250
   8.6842850 108.6596230  29.1448250   7.8193510 107.9143670  28.1506600
   9.2535940 112.5042370  19.6502270   9.7773420 112.0105020  19.0192440
   9.8395360 112.6392730  20.3949840   9.4325660 112.5882240  23.1721820
   8.4828370 112.5545780  23.2866810   9.6138670 113.4982350  22.9371590
   8.7435910 111.7615720  15.5894680   9.2395030 111.5286590  16.3743560
   8.5451980 110.9227560  15.1732320  10.1723070 110.3976670  18.1232360
  10.0622350 110.2432710  19.0614630  10.9330660 109.8697610  17.8807770
   8.5188790 106.3370800  24.5815360   9.1561010 106.9504940  24.9474550
   8.6663680 106.3731460  23.6364590  11.0613340 108.2284590  11.3638500
  11.9862650 108.0965770  11.1556790  11.0389130 108.3077410  12.3174950
  11.1351830 108.9995250  13.9895210  10.3403330 108.9340370  14.5188120
  11.3395110 109.9345890  13.9780560   8.0770250 123.0386800  17.9833600
   8.6729320 122.7171370  17.3068020   8.3348400 122.5658620  18.7746870
   1.8893270 107.4896990  27.4890460   1.8282160 108.0818820  28.2385870
   2.8293650 107.3822950  27.3440720   4.5267830 107.1467050  27.1282750
   5.1408240 107.4646340  26.4663830   5.0717390 106.6615640  27.7478610
  10.9443010 123.0458680  24.5344590  10.4501290 123.4427550  23.8171720
  10.3356300 122.4207890  24.9281870   5.2675870 105.7099190  23.4552040
   4.3935710 106.0434300  23.2524970   5.1586620 105.2372370  24.2803910
   6.1747850 107.9170060  24.8393760   5.8461210 107.1021820  24.4595490
   7.1230150 107.8739870  24.7159450   8.6282460 123.6882100  21.8131330
   8.1685430 124.4397910  21.4389350   7.9994920 122.9688570  21.7546130
   1.7973680 122.8878830  21.8148440   2.0851490 122.6333130  20.9381450
   2.3096900 122.3356190  22.4054010   3.0150690 106.6269030  22.3944950
   2.2322480 107.1014530  22.6741710   2.7213620 105.7223860  22.2858130
   7.5671760 107.3292130  20.4394040   8.0079850 107.2737230  19.5915640
   7.2979350 108.2450140  20.5104220   9.4310330 106.9607370  18.4502860
   9.3698730 106.0168590  18.3033880  10.2102360 107.0687460  18.9956320
   5.4029890 105.7098230  19.1444050   6.0059260 106.2818440  19.6192570
   4.6622880 106.2737670  18.9217950   8.5464490 106.1119790  14.4184330
   8.7415120 107.0103240  14.6851760   7.7594360 105.8806870  14.9117280
   1.8646040 123.8094930  29.1816640   2.7913350 123.5739200  29.2252600
   1.8496470 124.6366930  28.7002670  10.0991100 123.3520500  16.1790890
  10.2743290 122.6658240  15.5351810   9.4012670 123.8767550  15.7867560
   5.6525110 105.8893260  29.5238990   5.5390560 106.2087870  30.4190510
   6.4694850 106.2905770  29.2276270   8.4323600 123.0364790  29.0057680
   9.2248920 122.5414020  28.7983640   8.7256750 123.7154930  29.6133290
   2.6901300 115.6864750   1.7683000   1.9143400 115.2065190   2.0581570
   3.3414230 115.0070400   1.5939160   2.1310290 118.3621940   1.7753160
   2.0618570 117.4211880   1.6142290   2.8930150 118.4523350   2.3475730
  11.2339130 110.6809510   5.4994060  10.5291300 111.0691220   4.9809170
  11.4997050 111.3759800   6.1014990   8.7963840 120.2218270   3.9705450
   8.1127360 120.8917380   3.9622120   9.3358130 120.4198920   3.2050310
  10.2487980 110.0497930   2.0987180   9.3012890 110.0836910   2.2302610
  10.5737970 110.8636880   2.4836540   6.3322580 122.0662400   2.6850630
   6.3449740 121.6624690   1.8172890   5.7797800 122.8409690   2.5812060
   5.7308020 116.9692240   4.0133240   6.1476810 116.7552350   3.1786700
   6.4547840 117.2265030   4.5841860   9.6770120 115.3679460   4.1049480
   8.8488750 115.4372550   3.6299610  10.2720600 115.9533770   3.6365310
   6.6412130 112.1548780   5.0504350   6.2283310 112.9802490   5.3044340
   5.9088080 111.5693820   4.8580710   7.3312230 122.2008110   5.7385330
   6.8542790 123.0080300   5.5457940   6.6474020 121.5486440   5.8911540
  10.9111440 121.9620050  10.8076720  11.3871160 122.4402940  11.4865800
  11.5318600 121.8937540  10.0822220  10.3144690 119.1532900   7.9676730
  10.4407750 118.9144780   7.0493910  10.3566070 118.3217440   8.4398810
   4.1761430 122.8560900   6.5371540   4.6906100 122.7668910   7.3393970
   3.3330510 123.2020600   6.8299450  10.1668700 111.2065360   8.9326470
   9.5512970 111.7145030   8.4041930   9.8465120 110.3063690   8.8752410
   2.2283020 110.0457250   6.3988660   1.7662390 110.2540270   7.2108600
   1.8261130 109.2316600   6.0959330   7.2287530 111.2666200   7.5285320
   6.3781120 110.9671950   7.8494390   7.0689320 111.5108210   6.6169140
   4.3237240 112.7667950   9.6284110   4.6490650 111.9331700   9.2886340
   5.1117570 113.2896470   9.7762440   4.1545200 113.5354960   3.2479300
   3.4226320 114.0441770   3.5969400   3.7569540 112.7184940   2.9468080
   4.6171110 108.9888640   2.6602240   4.6343850 109.4397290   3.5044090
   4.3686690 108.0894280   2.8735680   8.0441860 106.4020820   8.4988620
   8.3687630 105.6710480   9.0246600   8.0798370 106.0834460   7.5969610
   7.9699700 116.5145930   2.1074650   8.6898820 117.0101220   1.7170760
   7.7681520 115.8363820   1.4628520   3.3518500 116.5854990   7.9943650
   3.2855810 115.6650660   7.7401240   2.7223640 116.6830430   8.7088290
   3.2835230 119.4075560   7.7447450   3.2979770 118.4756520   7.5266360
   2.5760330 119.4935320   8.3837220   9.4946440 116.0482900   7.0916030
   8.7694630 116.6411680   6.8945420  10.0221900 116.0406440   6.2929400
   2.7169130 121.0493130   4.8387950   3.3611350 121.2552510   5.5161370
   3.0798570 120.2881530   4.3858800   3.9901210 119.0525480   3.5565400
   4.6323440 118.3518640   3.6697570   4.5150560 119.8323920   3.3762290
   5.7638830 119.8520380   6.7601460   6.0995070 120.4387070   7.4379380
   4.8439170 119.7213090   6.9899250   4.8081010 110.1337870   5.2926320
   5.1761830 109.3133080   5.6205890   3.9479210 110.1939760   5.7081970
   1.7683000 112.7877460   5.5164290   2.2668250 113.2623280   6.1816140
   1.9105950 111.8640980   5.7234320   8.9749860 109.0045420   6.3592680
   8.4723460 109.7450820   6.6986490   9.7906520 109.3929420   6.0429470
   4.5837890 118.8044600  10.2886420   3.9776050 118.8276200   9.5482170
   4.2792000 118.0727640  10.8253670   6.0138260 122.5324890   8.8995830
   6.9660010 122.4482910   8.8496070   5.8666480 123.1966600   9.5729620
   7.6632360 118.3214510   9.3757600   8.4041830 118.6590270   8.8725060
   6.9005040 118.4906570   8.8227370   6.3378020 116.3729340   7.9112810
   6.7519040 116.5274420   8.7603230   5.4029020 116.4984560   8.0738590
   6.8100190 113.7125500   9.9151960   7.3920960 112.9577820   9.8272440
   6.9861960 114.2432940   9.1383440   3.4357150 114.0566000   7.2646580
   3.5553360 113.4607140   8.0041420   4.2951150 114.0935690   6.8447880
   5.7745050 114.6103190   5.8409090   5.2480270 115.1345810   5.2374230
   6.1176390 115.2430580   6.4718820   5.0219350 110.2153160   8.7555420
   4.3334870 109.5534700   8.6905410   5.7425370 109.7691430   9.2003880
   9.3342560 121.5616220   7.5845680   8.7344550 121.6208780   6.8409600
   9.4636460 120.6221200   7.7142530   8.0194200 118.2868200   5.6821840
   7.2054040 118.7165360   5.9447630   8.4268400 118.8986610   5.0690890
   9.3684600 113.4256400   7.2091060   9.1370690 113.1969150   6.3089010
   9.6289150 114.3455950   7.1635950   7.8072670 108.6512830   9.9870760
   8.6842850 108.6596230  10.3704760   7.8193510 107.9143670   9.3763110
   9.4325660 112.5882240   4.3978330   8.4828370 112.5545780   4.5123320
   9.6138670 113.4982350   4.1628100   8.5188790 106.3370800   5.8071870
   9.1561010 106.9504940   6.1731060   8.6663680 106.3731460   4.8621100
   1.8893270 107.4896990   8.7146970   1.8282160 108.0818820   9.4642380
   2.8293650 107.3822950   8.5697230   4.5267830 107.1467050   8.3539260
   5.1408240 107.4646340   7.6920340   5.0717390 106.6615640   8.9735120
  10.9443010 123.0458680   5.7601100  10.4501290 123.4427550   5.0428230
  10.3356300 122.4207890   6.1538380   5.2675870 105.7099190   4.6808550
   4.3935710 106.0434300   4.4781480   5.1586620 105.2372370   5.5060420
   6.1747850 107.9170060   6.0650270   5.8461210 107.1021820   5.6852000
   7.1230150 107.8739870   5.9415960   8.6282460 123.6882100   3.0387840
   8.1685430 124.4397910   2.6645860   7.9994920 122.9688570   2.9802640
   1.7973680 122.8878830   3.0404950   2.0851490 122.6333130   2.1637960
   2.3096900 122.3356190   3.6310520   3.0150690 106.6269030   3.6201460
   2.2322480 107.1014530   3.8998220   2.7213620 105.7223860   3.5114640
   1.8646040 123.8094930  10.4073150   2.7913350 123.5739200  10.4509110
   1.8496470 124.6366930   9.9259180   5.6525110 105.8893260  10.7495500
   5.5390560 106.2087870  11.6447020   6.4694850 106.2905770  10.4532780
   8.4323600 123.0364790  10.2314190   9.2248920 122.5414020  10.0240150
   8.7256750 123.7154930  10.8389800   4.5583260  95.1342240 150.0821650
   4.4777310  94.2196850 149.8113360   4.1447680  95.6309310 149.3761360
   6.7108730 101.3181450 150.7430050   6.2490260 100.5468690 151.0717220
   7.5234280 101.3447520 151.2482500   2.9372040 103.6039460 150.3634040
   2.3183480 104.0596960 149.7928480   3.7923820 103.7590920 149.9623740
   6.9439580  89.8899270 149.1298350   7.7649200  89.3995840 149.1723830
   6.9773660  90.4796930 149.8830190   3.8035390  98.4878700 147.7565950
   3.1852660  98.9528150 147.1928670   4.3158640  99.1806180 148.1735460
   7.6268000 100.0135130 147.9688720   7.5164330  99.0709460 148.0938140
   7.6236250 100.3750770 148.8551480   3.1688280  95.6400450 147.3251210
   2.2417560  95.5737830 147.5539680   3.3213100  96.5780580 147.2106450
   3.1557360  91.9117450 144.3218370   2.2161030  92.0731410 144.4070830
   3.4740620  92.6303130 143.7754360   7.1985570  97.2020750 147.8286460
   6.5797990  96.8640300 147.1812760   7.1810020  96.5580510 148.5365650
   5.3750270  96.4407560 144.8359210   5.8143550  95.6029990 144.6897030
   6.0878690  97.0736960 144.9223350   3.4845650 101.3803630 148.8040450
   3.9241560 102.1227960 148.3895840   3.4232540 101.6230200 149.7279410
   8.9567410  87.6950370 143.1500250   8.6440070  87.7877200 144.0499320
   9.7179880  88.2731400 143.0997680   6.1515830 104.3672750 146.1603460
   5.9916970 104.0775690 147.0585290   5.9862540 103.5912880 145.6248690
   5.8541960 101.8760310 144.7201460   5.1607120 101.8737600 144.0603740
   6.5964820 101.4519630 144.2895630   5.4191890 103.5023020 148.7949950
   5.8748840 102.7212400 149.1088570   5.7584410 104.2129840 149.3391130
   4.9625190  93.5342180 147.3173160   4.3634080  94.2577980 147.1336780
   5.5104800  93.4718960 146.5349610   3.5690060  92.1705720 149.3476440
   3.9619630  92.4877920 148.5345130   3.9306910  91.2917600 149.4620960
   3.4309640  89.1340400 146.4451960   2.6174250  88.6353570 146.3697270
   3.2371590  89.9738650 146.0288310   6.1458030  93.5060050 144.7414120
   7.0337650  93.8177280 144.5665460   6.1163120  92.6332300 144.3494700
   2.1418620  99.6783740 145.4202290   2.4834320 100.4225970 144.9245610
   1.3131330  99.9914860 145.7827120   8.4172300  94.8171890 144.2093980
   8.3336020  95.2486110 143.3590420   9.1366490  95.2770240 144.6420800
   9.4459550 101.6714150 146.9376110   8.8035710 101.0169770 147.2119830
   9.0590210 102.0769240 146.1616780   5.0246030  98.9999580 150.7847800
   5.3769850  98.4027710 150.1249170   4.1408360  98.6743810 150.9556050
   7.8356930 100.5630610 143.4752460   7.6094510  99.8461050 144.0677100
   7.4453130 100.3143050 142.6374210   7.4173180  98.4802550 145.1366620
   7.1294880  98.9415240 145.9244500   8.2125350  98.0200320 145.4050840
   8.1743040  90.3151320 146.2961800   7.5456200  90.4196990 145.5820030
   7.6794960  90.5348100 147.0855680   2.6201180 102.0356910 143.7295780
   2.7213160 101.8320900 142.7997760   1.7202920 101.7815190 143.9343560
   4.1742500  89.3187930 149.1515470   4.0510280  89.3374060 148.2024980
   5.1227060  89.3666870 149.2713870   7.2671870  95.4735110 150.0001960
   6.3262010  95.4885340 150.1749650   7.5815940  94.6871070 150.4462260
   8.9047460 103.1375610 144.5935660   8.6188970 102.7240750 143.7789840
   8.7067010 104.0663320 144.4736180   3.6097420  98.1928920 143.6383260
   3.0607520  98.6398220 144.2826000   4.2316680  97.6878170 144.1620930
   1.7900180  96.1757450 142.7825660   2.3105840  95.4606470 142.4166810
   2.4368580  96.8143320 143.0826170   5.6519750  88.0361300 145.0093600
   5.9322040  87.1929200 145.3653020   4.8785480  88.2684410 145.5232350
   2.3548210 104.2569060 145.0727400   3.2499000 104.5954030 145.0946160
   2.3865840 103.5348470 144.4451680  10.5744010 100.5290550 143.1163310
   9.7436970 100.5967200 143.5870540  10.7515840 101.4194670 142.8130170
  10.0300470  97.2738030 145.6197510  10.7919380  97.8434680 145.7257200
  10.0454840  96.7065230 146.3905820  11.0360440  98.1288130 150.4639440
  11.4069270  97.3455450 150.0575410  11.6762370  98.8177230 150.2856740
  10.0819640  97.5672400 142.7770030  10.3568480  98.4751280 142.6489250
   9.8930380  97.5034930 143.7132020   6.4795250  90.5917250 144.0723660
   6.8980130  90.4048230 143.2320320   6.1731310  89.7396300 144.3826590
   9.9784980  95.5041390 147.7699460   9.6028580  94.7369320 147.3380750
   9.2488100  95.8864090 148.2574390   8.7435910  92.9872230 147.0099110
   9.2395030  92.7543100 147.7947990   8.5451980  92.1484070 146.5936750
  10.1723070  91.6233180 149.5436790  10.0622350  91.4689220 150.4819060
  10.9330660  91.0954120 149.3012200  11.0613340  89.4541100 142.7842930
  11.9862650  89.3222280 142.5761220  11.0389130  89.5333920 143.7379380
  11.1351830  90.2251760 145.4099640  10.3403330  90.1596880 145.9392550
  11.3395110  91.1602400 145.3984990   8.0770250 104.2643310 149.4038030
   8.6729320 103.9427880 148.7272450   8.3348400 103.7915130 150.1951300
   9.4310330  88.1863880 149.8707290   9.3698730  87.2425100 149.7238310
  10.2102360  88.2943970 150.4160750   5.4029890  86.9354740 150.5648480
   6.0059260  87.5074950 151.0397000   4.6622880  87.4994180 150.3422380
   8.5464490  87.3376300 145.8388760   8.7415120  88.2359750 146.1056190
   7.7594360  87.1063380 146.3321710  10.0991100 104.5777010 147.5995320
  10.2743290 103.8914750 146.9556240   9.4012670 105.1024060 147.2071990
   4.5583260  95.1342240 131.3078160   4.4777310  94.2196850 131.0369870
   4.1447680  95.6309310 130.6017870   2.6901300  96.9121260 133.1887430
   1.9143400  96.4321700 133.4786000   3.3414230  96.2326910 133.0143590
   6.7108730 101.3181450 131.9686560   6.2490260 100.5468690 132.2973730
   7.5234280 101.3447520 132.4739010   2.9372040 103.6039460 131.5890550
   2.3183480 104.0596960 131.0184990   3.7923820 103.7590920 131.1880250
   2.1310290  99.5878450 133.1957590   2.0618570  98.6468390 133.0346720
   2.8930150  99.6779860 133.7680160   3.1615460  92.3948830 133.4226520
   3.5380280  91.5220710 133.3100190   3.0634970  92.7307530 132.5316960
   6.9439580  89.8899270 130.3554860   7.7649200  89.3995840 130.3980340
   6.9773660  90.4796930 131.1086700  11.2339130  91.9066020 136.9198490
  10.5291300  92.2947730 136.4013600  11.4997050  92.6016310 137.5219420
   3.8035390  98.4878700 128.9822460   3.1852660  98.9528150 128.4185180
   4.3158640  99.1806180 129.3991970   7.1801060  91.8299650 133.1282400
   6.4756630  92.1184540 133.7085510   7.5413220  92.6399760 132.7681960
   8.7963840 101.4474780 135.3909880   8.1127360 102.1173890 135.3826550
   9.3358130 101.6455430 134.6254740  10.2487980  91.2754440 133.5191610
   9.3012890  91.3093420 133.6507040  10.5737970  92.0893390 133.9040970
   6.3322580 103.2918910 134.1055060   6.3449740 102.8881200 133.2377320
   5.7797800 104.0666200 134.0016490   7.6268000 100.0135130 129.1945230
   7.5164330  99.0709460 129.3194650   7.6236250 100.3750770 130.0807990
   5.7308020  98.1948750 135.4337670   6.1476810  97.9808860 134.5991130
   6.4547840  98.4521540 136.0046290   3.1688280  95.6400450 128.5507720
   2.2417560  95.5737830 128.7796190   3.3213100  96.5780580 128.4362960
   3.1557360  91.9117450 125.5474880   2.2161030  92.0731410 125.6327340
   3.4740620  92.6303130 125.0010870   9.6770120  96.5935970 135.5253910
   8.8488750  96.6629060 135.0504040  10.2720600  97.1790280 135.0569740
   7.1985570  97.2020750 129.0542970   6.5797990  96.8640300 128.4069270
   7.1810020  96.5580510 129.7622160   6.6412130  93.3805290 136.4708780
   6.2283310  94.2059000 136.7248770   5.9088080  92.7950330 136.2785140
   7.3312230 103.4264620 137.1589760   6.8542790 104.2336810 136.9662370
   6.6474020 102.7742950 137.3115970   5.3750270  96.4407560 126.0615720
   5.8143550  95.6029990 125.9153540   6.0878690  97.0736960 126.1479860
   3.4845650 101.3803630 130.0296960   3.9241560 102.1227960 129.6152350
   3.4232540 101.6230200 130.9535920   8.9567410  87.6950370 124.3756760
   8.6440070  87.7877200 125.2755830   9.7179880  88.2731400 124.3254190
  10.9111440 103.1876560 142.2281150  11.3871160 103.6659450 142.9070230
  11.5318600 103.1194050 141.5026650  10.3144690 100.3789410 139.3881160
  10.4407750 100.1401290 138.4698340  10.3566070  99.5473950 139.8603240
   4.1761430 104.0817410 137.9575970   4.6906100 103.9925420 138.7598400
   3.3330510 104.4277110 138.2503880   6.1515830 104.3672750 127.3859970
   5.9916970 104.0775690 128.2841800   5.9862540 103.5912880 126.8505200
   5.8541960 101.8760310 125.9457970   5.1607120 101.8737600 125.2860250
   6.5964820 101.4519630 125.5152140   5.4191890 103.5023020 130.0206460
   5.8748840 102.7212400 130.3345080   5.7584410 104.2129840 130.5647640
  10.1668700  92.4321870 140.3530900   9.5512970  92.9401540 139.8246360
   9.8465120  91.5320200 140.2956840   2.2283020  91.2713760 137.8193090
   1.7662390  91.4796780 138.6313030   1.8261130  90.4573110 137.5163760
   7.2287530  92.4922710 138.9489750   6.3781120  92.1928460 139.2698820
   7.0689320  92.7364720 138.0373570   4.3237240  93.9924460 141.0488540
   4.6490650  93.1588210 140.7090770   5.1117570  94.5152980 141.1966870
   4.9625190  93.5342180 128.5429670   4.3634080  94.2577980 128.3593290
   5.5104800  93.4718960 127.7606120   3.5690060  92.1705720 130.5732950
   3.9619630  92.4877920 129.7601640   3.9306910  91.2917600 130.6877470
   4.1545200  94.7611470 134.6683730   3.4226320  95.2698280 135.0173830
   3.7569540  93.9441450 134.3672510   4.6171110  90.2145150 134.0806670
   4.6343850  90.6653800 134.9248520   4.3686690  89.3150790 134.2940110
   8.0441860  87.6277330 139.9193050   8.3687630  86.8966990 140.4451030
   8.0798370  87.3090970 139.0174040   7.9699700  97.7402440 133.5279080
   8.6898820  98.2357730 133.1375190   7.7681520  97.0620330 132.8832950
   3.4309640  89.1340400 127.6708470   2.6174250  88.6353570 127.5953780
   3.2371590  89.9738650 127.2544820   3.3518500  97.8111500 139.4148080
   3.2855810  96.8907170 139.1605670   2.7223640  97.9086940 140.1292720
   6.1458030  93.5060050 125.9670630   7.0337650  93.8177280 125.7921970
   6.1163120  92.6332300 125.5751210   2.1418620  99.6783740 126.6458800
   2.4834320 100.4225970 126.1502120   1.3131330  99.9914860 127.0083630
   3.2835230 100.6332070 139.1651880   3.2979770  99.7013030 138.9470790
   2.5760330 100.7191830 139.8041650   8.4172300  94.8171890 125.4350490
   8.3336020  95.2486110 124.5846930   9.1366490  95.2770240 125.8677310
   9.4946440  97.2739410 138.5120460   8.7694630  97.8668190 138.3149850
  10.0221900  97.2662950 137.7133830   9.4459550 101.6714150 128.1632620
   8.8035710 101.0169770 128.4376340   9.0590210 102.0769240 127.3873290
   5.0246030  98.9999580 132.0104310   5.3769850  98.4027710 131.3505680
   4.1408360  98.6743810 132.1812560   2.7169130 102.2749640 136.2592380
   3.3611350 102.4809020 136.9365800   3.0798570 101.5138040 135.8063230
   3.9901210 100.2781990 134.9769830   4.6323440  99.5775150 135.0902000
   4.5150560 101.0580430 134.7966720   7.8356930 100.5630610 124.7008970
   7.6094510  99.8461050 125.2933610   7.4453130 100.3143050 123.8630720
   5.7638830 101.0776890 138.1805890   6.0995070 101.6643580 138.8583810
   4.8439170 100.9469600 138.4103680   7.4173180  98.4802550 126.3623130
   7.1294880  98.9415240 127.1501010   8.2125350  98.0200320 126.6307350
   4.8081010  91.3594380 136.7130750   5.1761830  90.5389590 137.0410320
   3.9479210  91.4196270 137.1286400   8.1743040  90.3151320 127.5218310
   7.5456200  90.4196990 126.8076540   7.6794960  90.5348100 128.3112190
   2.6201180 102.0356910 124.9552290   2.7213160 101.8320900 124.0254270
   1.7202920 101.7815190 125.1600070   1.7683000  94.0133970 136.9368720
   2.2668250  94.4879790 137.6020570   1.9105950  93.0897490 137.1438750
   4.1742500  89.3187930 130.3771980   4.0510280  89.3374060 129.4281490
   5.1227060  89.3666870 130.4970380   8.9749860  90.2301930 137.7797110
   8.4723460  90.9707330 138.1190920   9.7906520  90.6185930 137.4633900
   7.2671870  95.4735110 131.2258470   6.3262010  95.4885340 131.4006160
   7.5815940  94.6871070 131.6718770   9.2697450 102.6443960 132.9012730
   9.3944870 103.4675130 133.3736540  10.1363010 102.4334690 132.5536880
   4.5837890 100.0301110 141.7090850   3.9776050 100.0532710 140.9686600
   4.2792000  99.2984150 142.2458100   6.0138260 103.7581400 140.3200260
   6.9660010 103.6739420 140.2700500   5.8666480 104.4223110 140.9934050
   8.9047460 103.1375610 125.8192170   8.6188970 102.7240750 125.0046350
   8.7067010 104.0663320 125.6992690   3.6097420  98.1928920 124.8639770
   3.0607520  98.6398220 125.5082510   4.2316680  97.6878170 125.3877440
   7.6632360  99.5471020 140.7962030   8.4041830  99.8846780 140.2929490
   6.9005040  99.7163080 140.2431800   1.7900180  96.1757450 124.0082170
   2.3105840  95.4606470 123.6423320   2.4368580  96.8143320 124.3082680
   6.3378020  97.5985850 139.3317240   6.7519040  97.7530930 140.1807660
   5.4029020  97.7241070 139.4943020   6.8100190  94.9382010 141.3356390
   7.3920960  94.1834330 141.2476870   6.9861960  95.4689450 140.5587870
   3.4357150  95.2822510 138.6851010   3.5553360  94.6863650 139.4245850
   4.2951150  95.3192200 138.2652310   5.7745050  95.8359700 137.2613520
   5.2480270  96.3602320 136.6578660   6.1176390  96.4687090 137.8923250
   5.0219350  91.4409670 140.1759850   4.3334870  90.7791210 140.1109840
   5.7425370  90.9947940 140.6208310   5.6519750  88.0361300 126.2350110
   5.9322040  87.1929200 126.5909530   4.8785480  88.2684410 126.7488860
   2.3548210 104.2569060 126.2983910   3.2499000 104.5954030 126.3202670
   2.3865840 103.5348470 125.6708190   9.3342560 102.7872730 139.0050110
   8.7344550 102.8465290 138.2614030   9.4636460 101.8477710 139.1346960
  10.5744010 100.5290550 124.3419820   9.7436970 100.5967200 124.8127050
  10.7515840 101.4194670 124.0386680  10.0300470  97.2738030 126.8454020
  10.7919380  97.8434680 126.9513710  10.0454840  96.7065230 127.6162330
  11.0360440  98.1288130 131.6895950  11.4069270  97.3455450 131.2831920
  11.6762370  98.8177230 131.5113250   8.0194200  99.5124710 137.1026270
   7.2054040  99.9421870 137.3652060   8.4268400 100.1243120 136.4895320
  10.0819640  97.5672400 124.0026540  10.3568480  98.4751280 123.8745760
   9.8930380  97.5034930 124.9388530   6.4795250  90.5917250 125.2980170
   6.8980130  90.4048230 124.4576830   6.1731310  89.7396300 125.6083100
   9.9784980  95.5041390 128.9955970   9.6028580  94.7369320 128.5637260
   9.2488100  95.8864090 129.4830900   9.3684600  94.6512910 138.6295490
   9.1370690  94.4225660 137.7293440   9.6289150  95.5712460 138.5840380
   7.8072670  89.8769340 141.4075190   8.6842850  89.8852740 141.7909190
   7.8193510  89.1400180 140.7967540   9.2535940  93.7298880 132.2963210
   9.7773420  93.2361530 131.6653380   9.8395360  93.8649240 133.0410780
   9.4325660  93.8138750 135.8182760   8.4828370  93.7802290 135.9327750
   9.6138670  94.7238860 135.5832530   8.7435910  92.9872230 128.2355620
   9.2395030  92.7543100 129.0204500   8.5451980  92.1484070 127.8193260
  10.1723070  91.6233180 130.7693300  10.0622350  91.4689220 131.7075570
  10.9330660  91.0954120 130.5268710   8.5188790  87.5627310 137.2276300
   9.1561010  88.1761450 137.5935490   8.6663680  87.5987970 136.2825530
  11.0613340  89.4541100 124.0099440  11.9862650  89.3222280 123.8017730
  11.0389130  89.5333920 124.9635890  11.1351830  90.2251760 126.6356150
  10.3403330  90.1596880 127.1649060  11.3395110  91.1602400 126.6241500
   8.0770250 104.2643310 130.6294540   8.6729320 103.9427880 129.9528960
   8.3348400 103.7915130 131.4207810   1.8893270  88.7153500 140.1351400
   1.8282160  89.3075330 140.8846810   2.8293650  88.6079460 139.9901660
   4.5267830  88.3723560 139.7743690   5.1408240  88.6902850 139.1124770
   5.0717390  87.8872150 140.3939550  10.9443010 104.2715190 137.1805530
  10.4501290 104.6684060 136.4632660  10.3356300 103.6464400 137.5742810
   5.2675870  86.9355700 136.1012980   4.3935710  87.2690810 135.8985910
   5.1586620  86.4628880 136.9264850   6.1747850  89.1426570 137.4854700
   5.8461210  88.3278330 137.1056430   7.1230150  89.0996380 137.3620390
   8.6282460 104.9138610 134.4592270   8.1685430 105.6654420 134.0850290
   7.9994920 104.1945080 134.4007070   1.7973680 104.1135340 134.4609380
   2.0851490 103.8589640 133.5842390   2.3096900 103.5612700 135.0514950
   3.0150690  87.8525540 135.0405890   2.2322480  88.3271040 135.3202650
   2.7213620  86.9480370 134.9319070   7.5671760  88.5548640 133.0854980
   8.0079850  88.4993740 132.2376580   7.2979350  89.4706650 133.1565160
   9.4310330  88.1863880 131.0963800   9.3698730  87.2425100 130.9494820
  10.2102360  88.2943970 131.6417260   5.4029890  86.9354740 131.7904990
   6.0059260  87.5074950 132.2653510   4.6622880  87.4994180 131.5678890
   8.5464490  87.3376300 127.0645270   8.7415120  88.2359750 127.3312700
   7.7594360  87.1063380 127.5578220   1.8646040 105.0351440 141.8277580
   2.7913350 104.7995710 141.8713540   1.8496470 105.8623440 141.3463610
  10.0991100 104.5777010 128.8251830  10.2743290 103.8914750 128.1812750
   9.4012670 105.1024060 128.4328500   5.6525110  87.1149770 142.1699930
   5.5390560  87.4344380 143.0651450   6.4694850  87.5162280 141.8737210
   8.4323600 104.2621300 141.6518620   9.2248920 103.7670530 141.4444580
   8.7256750 104.9411440 142.2594230   4.5583260  95.1342240 112.5334670
   4.4777310  94.2196850 112.2626380   4.1447680  95.6309310 111.8274380
   2.6901300  96.9121260 114.4143940   1.9143400  96.4321700 114.7042510
   3.3414230  96.2326910 114.2400100   6.7108730 101.3181450 113.1943070
   6.2490260 100.5468690 113.5230240   7.5234280 101.3447520 113.6995520
   2.9372040 103.6039460 112.8147060   2.3183480 104.0596960 112.2441500
   3.7923820 103.7590920 112.4136760   2.1310290  99.5878450 114.4214100
   2.0618570  98.6468390 114.2603230   2.8930150  99.6779860 114.9936670
   3.1615460  92.3948830 114.6483030   3.5380280  91.5220710 114.5356700
   3.0634970  92.7307530 113.7573470   6.9439580  89.8899270 111.5811370
   7.7649200  89.3995840 111.6236850   6.9773660  90.4796930 112.3343210
  11.2339130  91.9066020 118.1455000  10.5291300  92.2947730 117.6270110
  11.4997050  92.6016310 118.7475930   3.8035390  98.4878700 110.2078970
   3.1852660  98.9528150 109.6441690   4.3158640  99.1806180 110.6248480
   7.1801060  91.8299650 114.3538910   6.4756630  92.1184540 114.9342020
   7.5413220  92.6399760 113.9938470   8.7963840 101.4474780 116.6166390
   8.1127360 102.1173890 116.6083060   9.3358130 101.6455430 115.8511250
  10.2487980  91.2754440 114.7448120   9.3012890  91.3093420 114.8763550
  10.5737970  92.0893390 115.1297480   6.3322580 103.2918910 115.3311570
   6.3449740 102.8881200 114.4633830   5.7797800 104.0666200 115.2273000
   7.6268000 100.0135130 110.4201740   7.5164330  99.0709460 110.5451160
   7.6236250 100.3750770 111.3064500   5.7308020  98.1948750 116.6594180
   6.1476810  97.9808860 115.8247640   6.4547840  98.4521540 117.2302800
   3.1688280  95.6400450 109.7764230   2.2417560  95.5737830 110.0052700
   3.3213100  96.5780580 109.6619470   3.1557360  91.9117450 106.7731390
   2.2161030  92.0731410 106.8583850   3.4740620  92.6303130 106.2267380
   9.6770120  96.5935970 116.7510420   8.8488750  96.6629060 116.2760550
  10.2720600  97.1790280 116.2826250   7.1985570  97.2020750 110.2799480
   6.5797990  96.8640300 109.6325780   7.1810020  96.5580510 110.9878670
   6.6412130  93.3805290 117.6965290   6.2283310  94.2059000 117.9505280
   5.9088080  92.7950330 117.5041650   7.3312230 103.4264620 118.3846270
   6.8542790 104.2336810 118.1918880   6.6474020 102.7742950 118.5372480
   5.3750270  96.4407560 107.2872230   5.8143550  95.6029990 107.1410050
   6.0878690  97.0736960 107.3736370   3.4845650 101.3803630 111.2553470
   3.9241560 102.1227960 110.8408860   3.4232540 101.6230200 112.1792430
   8.9567410  87.6950370 105.6013270   8.6440070  87.7877200 106.5012340
   9.7179880  88.2731400 105.5510700  10.9111440 103.1876560 123.4537660
  11.3871160 103.6659450 124.1326740  11.5318600 103.1194050 122.7283160
  10.3144690 100.3789410 120.6137670  10.4407750 100.1401290 119.6954850
  10.3566070  99.5473950 121.0859750   4.1761430 104.0817410 119.1832480
   4.6906100 103.9925420 119.9854910   3.3330510 104.4277110 119.4760390
   6.1515830 104.3672750 108.6116480   5.9916970 104.0775690 109.5098310
   5.9862540 103.5912880 108.0761710   5.8541960 101.8760310 107.1714480
   5.1607120 101.8737600 106.5116760   6.5964820 101.4519630 106.7408650
   5.4191890 103.5023020 111.2462970   5.8748840 102.7212400 111.5601590
   5.7584410 104.2129840 111.7904150  10.1668700  92.4321870 121.5787410
   9.5512970  92.9401540 121.0502870   9.8465120  91.5320200 121.5213350
   2.2283020  91.2713760 119.0449600   1.7662390  91.4796780 119.8569540
   1.8261130  90.4573110 118.7420270   7.2287530  92.4922710 120.1746260
   6.3781120  92.1928460 120.4955330   7.0689320  92.7364720 119.2630080
   4.3237240  93.9924460 122.2745050   4.6490650  93.1588210 121.9347280
   5.1117570  94.5152980 122.4223380   4.9625190  93.5342180 109.7686180
   4.3634080  94.2577980 109.5849800   5.5104800  93.4718960 108.9862630
   3.5690060  92.1705720 111.7989460   3.9619630  92.4877920 110.9858150
   3.9306910  91.2917600 111.9133980   4.1545200  94.7611470 115.8940240
   3.4226320  95.2698280 116.2430340   3.7569540  93.9441450 115.5929020
   4.6171110  90.2145150 115.3063180   4.6343850  90.6653800 116.1505030
   4.3686690  89.3150790 115.5196620   8.0441860  87.6277330 121.1449560
   8.3687630  86.8966990 121.6707540   8.0798370  87.3090970 120.2430550
   7.9699700  97.7402440 114.7535590   8.6898820  98.2357730 114.3631700
   7.7681520  97.0620330 114.1089460   3.4309640  89.1340400 108.8964980
   2.6174250  88.6353570 108.8210290   3.2371590  89.9738650 108.4801330
   3.3518500  97.8111500 120.6404590   3.2855810  96.8907170 120.3862180
   2.7223640  97.9086940 121.3549230   6.1458030  93.5060050 107.1927140
   7.0337650  93.8177280 107.0178480   6.1163120  92.6332300 106.8007720
   2.1418620  99.6783740 107.8715310   2.4834320 100.4225970 107.3758630
   1.3131330  99.9914860 108.2340140   3.2835230 100.6332070 120.3908390
   3.2979770  99.7013030 120.1727300   2.5760330 100.7191830 121.0298160
   8.4172300  94.8171890 106.6607000   8.3336020  95.2486110 105.8103440
   9.1366490  95.2770240 107.0933820   9.4946440  97.2739410 119.7376970
   8.7694630  97.8668190 119.5406360  10.0221900  97.2662950 118.9390340
   9.4459550 101.6714150 109.3889130   8.8035710 101.0169770 109.6632850
   9.0590210 102.0769240 108.6129800   5.0246030  98.9999580 113.2360820
   5.3769850  98.4027710 112.5762190   4.1408360  98.6743810 113.4069070
   2.7169130 102.2749640 117.4848890   3.3611350 102.4809020 118.1622310
   3.0798570 101.5138040 117.0319740   3.9901210 100.2781990 116.2026340
   4.6323440  99.5775150 116.3158510   4.5150560 101.0580430 116.0223230
   7.8356930 100.5630610 105.9265480   7.6094510  99.8461050 106.5190120
   7.4453130 100.3143050 105.0887230   5.7638830 101.0776890 119.4062400
   6.0995070 101.6643580 120.0840320   4.8439170 100.9469600 119.6360190
   7.4173180  98.4802550 107.5879640   7.1294880  98.9415240 108.3757520
   8.2125350  98.0200320 107.8563860   4.8081010  91.3594380 117.9387260
   5.1761830  90.5389590 118.2666830   3.9479210  91.4196270 118.3542910
   8.1743040  90.3151320 108.7474820   7.5456200  90.4196990 108.0333050
   7.6794960  90.5348100 109.5368700   2.6201180 102.0356910 106.1808800
   2.7213160 101.8320900 105.2510780   1.7202920 101.7815190 106.3856580
   1.7683000  94.0133970 118.1625230   2.2668250  94.4879790 118.8277080
   1.9105950  93.0897490 118.3695260   4.1742500  89.3187930 111.6028490
   4.0510280  89.3374060 110.6538000   5.1227060  89.3666870 111.7226890
   8.9749860  90.2301930 119.0053620   8.4723460  90.9707330 119.3447430
   9.7906520  90.6185930 118.6890410   7.2671870  95.4735110 112.4514980
   6.3262010  95.4885340 112.6262670   7.5815940  94.6871070 112.8975280
   9.2697450 102.6443960 114.1269240   9.3944870 103.4675130 114.5993050
  10.1363010 102.4334690 113.7793390   4.5837890 100.0301110 122.9347360
   3.9776050 100.0532710 122.1943110   4.2792000  99.2984150 123.4714610
   6.0138260 103.7581400 121.5456770   6.9660010 103.6739420 121.4957010
   5.8666480 104.4223110 122.2190560   8.9047460 103.1375610 107.0448680
   8.6188970 102.7240750 106.2302860   8.7067010 104.0663320 106.9249200
   3.6097420  98.1928920 106.0896280   3.0607520  98.6398220 106.7339020
   4.2316680  97.6878170 106.6133950   7.6632360  99.5471020 122.0218540
   8.4041830  99.8846780 121.5186000   6.9005040  99.7163080 121.4688310
   1.7900180  96.1757450 105.2338680   2.3105840  95.4606470 104.8679830
   2.4368580  96.8143320 105.5339190   6.3378020  97.5985850 120.5573750
   6.7519040  97.7530930 121.4064170   5.4029020  97.7241070 120.7199530
   6.8100190  94.9382010 122.5612900   7.3920960  94.1834330 122.4733380
   6.9861960  95.4689450 121.7844380   3.4357150  95.2822510 119.9107520
   3.5553360  94.6863650 120.6502360   4.2951150  95.3192200 119.4908820
   5.7745050  95.8359700 118.4870030   5.2480270  96.3602320 117.8835170
   6.1176390  96.4687090 119.1179760   5.0219350  91.4409670 121.4016360
   4.3334870  90.7791210 121.3366350   5.7425370  90.9947940 121.8464820
   5.6519750  88.0361300 107.4606620   5.9322040  87.1929200 107.8166040
   4.8785480  88.2684410 107.9745370   2.3548210 104.2569060 107.5240420
   3.2499000 104.5954030 107.5459180   2.3865840 103.5348470 106.8964700
   9.3342560 102.7872730 120.2306620   8.7344550 102.8465290 119.4870540
   9.4636460 101.8477710 120.3603470  10.5744010 100.5290550 105.5676330
   9.7436970 100.5967200 106.0383560  10.7515840 101.4194670 105.2643190
  10.0300470  97.2738030 108.0710530  10.7919380  97.8434680 108.1770220
  10.0454840  96.7065230 108.8418840  11.0360440  98.1288130 112.9152460
  11.4069270  97.3455450 112.5088430  11.6762370  98.8177230 112.7369760
   8.0194200  99.5124710 118.3282780   7.2054040  99.9421870 118.5908570
   8.4268400 100.1243120 117.7151830  10.0819640  97.5672400 105.2283050
  10.3568480  98.4751280 105.1002270   9.8930380  97.5034930 106.1645040
   6.4795250  90.5917250 106.5236680   6.8980130  90.4048230 105.6833340
   6.1731310  89.7396300 106.8339610   9.9784980  95.5041390 110.2212480
   9.6028580  94.7369320 109.7893770   9.2488100  95.8864090 110.7087410
   9.3684600  94.6512910 119.8552000   9.1370690  94.4225660 118.9549950
   9.6289150  95.5712460 119.8096890   7.8072670  89.8769340 122.6331700
   8.6842850  89.8852740 123.0165700   7.8193510  89.1400180 122.0224050
   9.2535940  93.7298880 113.5219720   9.7773420  93.2361530 112.8909890
   9.8395360  93.8649240 114.2667290   9.4325660  93.8138750 117.0439270
   8.4828370  93.7802290 117.1584260   9.6138670  94.7238860 116.8089040
   8.7435910  92.9872230 109.4612130   9.2395030  92.7543100 110.2461010
   8.5451980  92.1484070 109.0449770  10.1723070  91.6233180 111.9949810
  10.0622350  91.4689220 112.9332080  10.9330660  91.0954120 111.7525220
   8.5188790  87.5627310 118.4532810   9.1561010  88.1761450 118.8192000
   8.6663680  87.5987970 117.5082040  11.0613340  89.4541100 105.2355950
  11.9862650  89.3222280 105.0274240  11.0389130  89.5333920 106.1892400
  11.1351830  90.2251760 107.8612660  10.3403330  90.1596880 108.3905570
  11.3395110  91.1602400 107.8498010   8.0770250 104.2643310 111.8551050
   8.6729320 103.9427880 111.1785470   8.3348400 103.7915130 112.6464320
   1.8893270  88.7153500 121.3607910   1.8282160  89.3075330 122.1103320
   2.8293650  88.6079460 121.2158170   4.5267830  88.3723560 121.0000200
   5.1408240  88.6902850 120.3381280   5.0717390  87.8872150 121.6196060
  10.9443010 104.2715190 118.4062040  10.4501290 104.6684060 117.6889170
  10.3356300 103.6464400 118.7999320   5.2675870  86.9355700 117.3269490
   4.3935710  87.2690810 117.1242420   5.1586620  86.4628880 118.1521360
   6.1747850  89.1426570 118.7111210   5.8461210  88.3278330 118.3312940
   7.1230150  89.0996380 118.5876900   8.6282460 104.9138610 115.6848780
   8.1685430 105.6654420 115.3106800   7.9994920 104.1945080 115.6263580
   1.7973680 104.1135340 115.6865890   2.0851490 103.8589640 114.8098900
   2.3096900 103.5612700 116.2771460   3.0150690  87.8525540 116.2662400
   2.2322480  88.3271040 116.5459160   2.7213620  86.9480370 116.1575580
   7.5671760  88.5548640 114.3111490   8.0079850  88.4993740 113.4633090
   7.2979350  89.4706650 114.3821670   9.4310330  88.1863880 112.3220310
   9.3698730  87.2425100 112.1751330  10.2102360  88.2943970 112.8673770
   5.4029890  86.9354740 113.0161500   6.0059260  87.5074950 113.4910020
   4.6622880  87.4994180 112.7935400   8.5464490  87.3376300 108.2901780
   8.7415120  88.2359750 108.5569210   7.7594360  87.1063380 108.7834730
   1.8646040 105.0351440 123.0534090   2.7913350 104.7995710 123.0970050
   1.8496470 105.8623440 122.5720120  10.0991100 104.5777010 110.0508340
  10.2743290 103.8914750 109.4069260   9.4012670 105.1024060 109.6585010
   5.6525110  87.1149770 123.3956440   5.5390560  87.4344380 124.2907960
   6.4694850  87.5162280 123.0993720   8.4323600 104.2621300 122.8775130
   9.2248920 103.7670530 122.6701090   8.7256750 104.9411440 123.4850740
   4.5583260  95.1342240  93.7591180   4.4777310  94.2196850  93.4882890
   4.1447680  95.6309310  93.0530890   2.6901300  96.9121260  95.6400450
   1.9143400  96.4321700  95.9299020   3.3414230  96.2326910  95.4656610
   6.7108730 101.3181450  94.4199580   6.2490260 100.5468690  94.7486750
   7.5234280 101.3447520  94.9252030   2.9372040 103.6039460  94.0403570
   2.3183480 104.0596960  93.4698010   3.7923820 103.7590920  93.6393270
   2.1310290  99.5878450  95.6470610   2.0618570  98.6468390  95.4859740
   2.8930150  99.6779860  96.2193180   3.1615460  92.3948830  95.8739540
   3.5380280  91.5220710  95.7613210   3.0634970  92.7307530  94.9829980
   6.9439580  89.8899270  92.8067880   7.7649200  89.3995840  92.8493360
   6.9773660  90.4796930  93.5599720  11.2339130  91.9066020  99.3711510
  10.5291300  92.2947730  98.8526620  11.4997050  92.6016310  99.9732440
   3.8035390  98.4878700  91.4335480   3.1852660  98.9528150  90.8698200
   4.3158640  99.1806180  91.8504990   7.1801060  91.8299650  95.5795420
   6.4756630  92.1184540  96.1598530   7.5413220  92.6399760  95.2194980
   8.7963840 101.4474780  97.8422900   8.1127360 102.1173890  97.8339570
   9.3358130 101.6455430  97.0767760  10.2487980  91.2754440  95.9704630
   9.3012890  91.3093420  96.1020060  10.5737970  92.0893390  96.3553990
   6.3322580 103.2918910  96.5568080   6.3449740 102.8881200  95.6890340
   5.7797800 104.0666200  96.4529510   7.6268000 100.0135130  91.6458250
   7.5164330  99.0709460  91.7707670   7.6236250 100.3750770  92.5321010
   5.7308020  98.1948750  97.8850690   6.1476810  97.9808860  97.0504150
   6.4547840  98.4521540  98.4559310   3.1688280  95.6400450  91.0020740
   2.2417560  95.5737830  91.2309210   3.3213100  96.5780580  90.8875980
   3.1557360  91.9117450  87.9987900   2.2161030  92.0731410  88.0840360
   3.4740620  92.6303130  87.4523890   9.6770120  96.5935970  97.9766930
   8.8488750  96.6629060  97.5017060  10.2720600  97.1790280  97.5082760
   7.1985570  97.2020750  91.5055990   6.5797990  96.8640300  90.8582290
   7.1810020  96.5580510  92.2135180   6.6412130  93.3805290  98.9221800
   6.2283310  94.2059000  99.1761790   5.9088080  92.7950330  98.7298160
   7.3312230 103.4264620  99.6102780   6.8542790 104.2336810  99.4175390
   6.6474020 102.7742950  99.7628990   5.3750270  96.4407560  88.5128740
   5.8143550  95.6029990  88.3666560   6.0878690  97.0736960  88.5992880
   3.4845650 101.3803630  92.4809980   3.9241560 102.1227960  92.0665370
   3.4232540 101.6230200  93.4048940   8.9567410  87.6950370  86.8269780
   8.6440070  87.7877200  87.7268850   9.7179880  88.2731400  86.7767210
  10.9111440 103.1876560 104.6794170  11.3871160 103.6659450 105.3583250
  11.5318600 103.1194050 103.9539670  10.3144690 100.3789410 101.8394180
  10.4407750 100.1401290 100.9211360  10.3566070  99.5473950 102.3116260
   4.1761430 104.0817410 100.4088990   4.6906100 103.9925420 101.2111420
   3.3330510 104.4277110 100.7016900   6.1515830 104.3672750  89.8372990
   5.9916970 104.0775690  90.7354820   5.9862540 103.5912880  89.3018220
   5.8541960 101.8760310  88.3970990   5.1607120 101.8737600  87.7373270
   6.5964820 101.4519630  87.9665160   5.4191890 103.5023020  92.4719480
   5.8748840 102.7212400  92.7858100   5.7584410 104.2129840  93.0160660
  10.1668700  92.4321870 102.8043920   9.5512970  92.9401540 102.2759380
   9.8465120  91.5320200 102.7469860   2.2283020  91.2713760 100.2706110
   1.7662390  91.4796780 101.0826050   1.8261130  90.4573110  99.9676780
   7.2287530  92.4922710 101.4002770   6.3781120  92.1928460 101.7211840
   7.0689320  92.7364720 100.4886590   4.3237240  93.9924460 103.5001560
   4.6490650  93.1588210 103.1603790   5.1117570  94.5152980 103.6479890
   4.9625190  93.5342180  90.9942690   4.3634080  94.2577980  90.8106310
   5.5104800  93.4718960  90.2119140   3.5690060  92.1705720  93.0245970
   3.9619630  92.4877920  92.2114660   3.9306910  91.2917600  93.1390490
   4.1545200  94.7611470  97.1196750   3.4226320  95.2698280  97.4686850
   3.7569540  93.9441450  96.8185530   4.6171110  90.2145150  96.5319690
   4.6343850  90.6653800  97.3761540   4.3686690  89.3150790  96.7453130
   8.0441860  87.6277330 102.3706070   8.3687630  86.8966990 102.8964050
   8.0798370  87.3090970 101.4687060   7.9699700  97.7402440  95.9792100
   8.6898820  98.2357730  95.5888210   7.7681520  97.0620330  95.3345970
   3.4309640  89.1340400  90.1221490   2.6174250  88.6353570  90.0466800
   3.2371590  89.9738650  89.7057840   3.3518500  97.8111500 101.8661100
   3.2855810  96.8907170 101.6118690   2.7223640  97.9086940 102.5805740
   6.1458030  93.5060050  88.4183650   7.0337650  93.8177280  88.2434990
   6.1163120  92.6332300  88.0264230   2.1418620  99.6783740  89.0971820
   2.4834320 100.4225970  88.6015140   1.3131330  99.9914860  89.4596650
   3.2835230 100.6332070 101.6164900   3.2979770  99.7013030 101.3983810
   2.5760330 100.7191830 102.2554670   8.4172300  94.8171890  87.8863510
   8.3336020  95.2486110  87.0359950   9.1366490  95.2770240  88.3190330
   9.4946440  97.2739410 100.9633480   8.7694630  97.8668190 100.7662870
  10.0221900  97.2662950 100.1646850   9.4459550 101.6714150  90.6145640
   8.8035710 101.0169770  90.8889360   9.0590210 102.0769240  89.8386310
   5.0246030  98.9999580  94.4617330   5.3769850  98.4027710  93.8018700
   4.1408360  98.6743810  94.6325580   2.7169130 102.2749640  98.7105400
   3.3611350 102.4809020  99.3878820   3.0798570 101.5138040  98.2576250
   3.9901210 100.2781990  97.4282850   4.6323440  99.5775150  97.5415020
   4.5150560 101.0580430  97.2479740   7.8356930 100.5630610  87.1521990
   7.6094510  99.8461050  87.7446630   7.4453130 100.3143050  86.3143740
   5.7638830 101.0776890 100.6318910   6.0995070 101.6643580 101.3096830
   4.8439170 100.9469600 100.8616700   7.4173180  98.4802550  88.8136150
   7.1294880  98.9415240  89.6014030   8.2125350  98.0200320  89.0820370
   4.8081010  91.3594380  99.1643770   5.1761830  90.5389590  99.4923340
   3.9479210  91.4196270  99.5799420   8.1743040  90.3151320  89.9731330
   7.5456200  90.4196990  89.2589560   7.6794960  90.5348100  90.7625210
   2.6201180 102.0356910  87.4065310   2.7213160 101.8320900  86.4767290
   1.7202920 101.7815190  87.6113090   1.7683000  94.0133970  99.3881740
   2.2668250  94.4879790 100.0533590   1.9105950  93.0897490  99.5951770
   4.1742500  89.3187930  92.8285000   4.0510280  89.3374060  91.8794510
   5.1227060  89.3666870  92.9483400   8.9749860  90.2301930 100.2310130
   8.4723460  90.9707330 100.5703940   9.7906520  90.6185930  99.9146920
   7.2671870  95.4735110  93.6771490   6.3262010  95.4885340  93.8519180
   7.5815940  94.6871070  94.1231790   9.2697450 102.6443960  95.3525750
   9.3944870 103.4675130  95.8249560  10.1363010 102.4334690  95.0049900
   4.5837890 100.0301110 104.1603870   3.9776050 100.0532710 103.4199620
   4.2792000  99.2984150 104.6971120   6.0138260 103.7581400 102.7713280
   6.9660010 103.6739420 102.7213520   5.8666480 104.4223110 103.4447070
   8.9047460 103.1375610  88.2705190   8.6188970 102.7240750  87.4559370
   8.7067010 104.0663320  88.1505710   3.6097420  98.1928920  87.3152790
   3.0607520  98.6398220  87.9595530   4.2316680  97.6878170  87.8390460
   7.6632360  99.5471020 103.2475050   8.4041830  99.8846780 102.7442510
   6.9005040  99.7163080 102.6944820   1.7900180  96.1757450  86.4595190
   2.3105840  95.4606470  86.0936340   2.4368580  96.8143320  86.7595700
   6.3378020  97.5985850 101.7830260   6.7519040  97.7530930 102.6320680
   5.4029020  97.7241070 101.9456040   6.8100190  94.9382010 103.7869410
   7.3920960  94.1834330 103.6989890   6.9861960  95.4689450 103.0100890
   3.4357150  95.2822510 101.1364030   3.5553360  94.6863650 101.8758870
   4.2951150  95.3192200 100.7165330   5.7745050  95.8359700  99.7126540
   5.2480270  96.3602320  99.1091680   6.1176390  96.4687090 100.3436270
   5.0219350  91.4409670 102.6272870   4.3334870  90.7791210 102.5622860
   5.7425370  90.9947940 103.0721330   5.6519750  88.0361300  88.6863130
   5.9322040  87.1929200  89.0422550   4.8785480  88.2684410  89.2001880
   2.3548210 104.2569060  88.7496930   3.2499000 104.5954030  88.7715690
   2.3865840 103.5348470  88.1221210   9.3342560 102.7872730 101.4563130
   8.7344550 102.8465290 100.7127050   9.4636460 101.8477710 101.5859980
  10.5744010 100.5290550  86.7932840   9.7436970 100.5967200  87.2640070
  10.7515840 101.4194670  86.4899700  10.0300470  97.2738030  89.2967040
  10.7919380  97.8434680  89.4026730  10.0454840  96.7065230  90.0675350
  11.0360440  98.1288130  94.1408970  11.4069270  97.3455450  93.7344940
  11.6762370  98.8177230  93.9626270   8.0194200  99.5124710  99.5539290
   7.2054040  99.9421870  99.8165080   8.4268400 100.1243120  98.9408340
  10.0819640  97.5672400  86.4539560  10.3568480  98.4751280  86.3258780
   9.8930380  97.5034930  87.3901550   6.4795250  90.5917250  87.7493190
   6.8980130  90.4048230  86.9089850   6.1731310  89.7396300  88.0596120
   9.9784980  95.5041390  91.4468990   9.6028580  94.7369320  91.0150280
   9.2488100  95.8864090  91.9343920   9.3684600  94.6512910 101.0808510
   9.1370690  94.4225660 100.1806460   9.6289150  95.5712460 101.0353400
   7.8072670  89.8769340 103.8588210   8.6842850  89.8852740 104.2422210
   7.8193510  89.1400180 103.2480560   9.2535940  93.7298880  94.7476230
   9.7773420  93.2361530  94.1166400   9.8395360  93.8649240  95.4923800
   9.4325660  93.8138750  98.2695780   8.4828370  93.7802290  98.3840770
   9.6138670  94.7238860  98.0345550   8.7435910  92.9872230  90.6868640
   9.2395030  92.7543100  91.4717520   8.5451980  92.1484070  90.2706280
  10.1723070  91.6233180  93.2206320  10.0622350  91.4689220  94.1588590
  10.9330660  91.0954120  92.9781730   8.5188790  87.5627310  99.6789320
   9.1561010  88.1761450 100.0448510   8.6663680  87.5987970  98.7338550
  11.0613340  89.4541100  86.4612460  11.9862650  89.3222280  86.2530750
  11.0389130  89.5333920  87.4148910  11.1351830  90.2251760  89.0869170
  10.3403330  90.1596880  89.6162080  11.3395110  91.1602400  89.0754520
   8.0770250 104.2643310  93.0807560   8.6729320 103.9427880  92.4041980
   8.3348400 103.7915130  93.8720830   1.8893270  88.7153500 102.5864420
   1.8282160  89.3075330 103.3359830   2.8293650  88.6079460 102.4414680
   4.5267830  88.3723560 102.2256710   5.1408240  88.6902850 101.5637790
   5.0717390  87.8872150 102.8452570  10.9443010 104.2715190  99.6318550
  10.4501290 104.6684060  98.9145680  10.3356300 103.6464400 100.0255830
   5.2675870  86.9355700  98.5526000   4.3935710  87.2690810  98.3498930
   5.1586620  86.4628880  99.3777870   6.1747850  89.1426570  99.9367720
   5.8461210  88.3278330  99.5569450   7.1230150  89.0996380  99.8133410
   8.6282460 104.9138610  96.9105290   8.1685430 105.6654420  96.5363310
   7.9994920 104.1945080  96.8520090   1.7973680 104.1135340  96.9122400
   2.0851490 103.8589640  96.0355410   2.3096900 103.5612700  97.5027970
   3.0150690  87.8525540  97.4918910   2.2322480  88.3271040  97.7715670
   2.7213620  86.9480370  97.3832090   7.5671760  88.5548640  95.5368000
   8.0079850  88.4993740  94.6889600   7.2979350  89.4706650  95.6078180
   9.4310330  88.1863880  93.5476820   9.3698730  87.2425100  93.4007840
  10.2102360  88.2943970  94.0930280   5.4029890  86.9354740  94.2418010
   6.0059260  87.5074950  94.7166530   4.6622880  87.4994180  94.0191910
   8.5464490  87.3376300  89.5158290   8.7415120  88.2359750  89.7825720
   7.7594360  87.1063380  90.0091240   1.8646040 105.0351440 104.2790600
   2.7913350 104.7995710 104.3226560   1.8496470 105.8623440 103.7976630
  10.0991100 104.5777010  91.2764850  10.2743290 103.8914750  90.6325770
   9.4012670 105.1024060  90.8841520   5.6525110  87.1149770 104.6212950
   5.5390560  87.4344380 105.5164470   6.4694850  87.5162280 104.3250230
   8.4323600 104.2621300 104.1031640   9.2248920 103.7670530 103.8957600
   8.7256750 104.9411440 104.7107250   4.5583260  95.1342240  74.9847690
   4.4777310  94.2196850  74.7139400   4.1447680  95.6309310  74.2787400
   2.6901300  96.9121260  76.8656960   1.9143400  96.4321700  77.1555530
   3.3414230  96.2326910  76.6913120   6.7108730 101.3181450  75.6456090
   6.2490260 100.5468690  75.9743260   7.5234280 101.3447520  76.1508540
   2.9372040 103.6039460  75.2660080   2.3183480 104.0596960  74.6954520
   3.7923820 103.7590920  74.8649780   2.1310290  99.5878450  76.8727120
   2.0618570  98.6468390  76.7116250   2.8930150  99.6779860  77.4449690
   3.1615460  92.3948830  77.0996050   3.5380280  91.5220710  76.9869720
   3.0634970  92.7307530  76.2086490   6.9439580  89.8899270  74.0324390
   7.7649200  89.3995840  74.0749870   6.9773660  90.4796930  74.7856230
   3.8035390  98.4878700  72.6591990   3.1852660  98.9528150  72.0954710
   4.3158640  99.1806180  73.0761500   7.1801060  91.8299650  76.8051930
   6.4756630  92.1184540  77.3855040   7.5413220  92.6399760  76.4451490
   8.7963840 101.4474780  79.0679410   8.1127360 102.1173890  79.0596080
   9.3358130 101.6455430  78.3024270  10.2487980  91.2754440  77.1961140
   9.3012890  91.3093420  77.3276570  10.5737970  92.0893390  77.5810500
   6.3322580 103.2918910  77.7824590   6.3449740 102.8881200  76.9146850
   5.7797800 104.0666200  77.6786020   7.6268000 100.0135130  72.8714760
   7.5164330  99.0709460  72.9964180   7.6236250 100.3750770  73.7577520
   5.7308020  98.1948750  79.1107200   6.1476810  97.9808860  78.2760660
   6.4547840  98.4521540  79.6815820   3.1688280  95.6400450  72.2277250
   2.2417560  95.5737830  72.4565720   3.3213100  96.5780580  72.1132490
   3.1557360  91.9117450  69.2244410   2.2161030  92.0731410  69.3096870
   3.4740620  92.6303130  68.6780400   9.6770120  96.5935970  79.2023440
   8.8488750  96.6629060  78.7273570  10.2720600  97.1790280  78.7339270
   7.1985570  97.2020750  72.7312500   6.5797990  96.8640300  72.0838800
   7.1810020  96.5580510  73.4391690   6.6412130  93.3805290  80.1478310
   6.2283310  94.2059000  80.4018300   5.9088080  92.7950330  79.9554670
   7.3312230 103.4264620  80.8359290   6.8542790 104.2336810  80.6431900
   6.6474020 102.7742950  80.9885500   5.3750270  96.4407560  69.7385250
   5.8143550  95.6029990  69.5923070   6.0878690  97.0736960  69.8249390
   3.4845650 101.3803630  73.7066490   3.9241560 102.1227960  73.2921880
   3.4232540 101.6230200  74.6305450   8.9567410  87.6950370  68.0526290
   8.6440070  87.7877200  68.9525360   9.7179880  88.2731400  68.0023720
  10.9111440 103.1876560  85.9050680  11.3871160 103.6659450  86.5839760
  11.5318600 103.1194050  85.1796180  10.3144690 100.3789410  83.0650690
  10.4407750 100.1401290  82.1467870  10.3566070  99.5473950  83.5372770
   4.1761430 104.0817410  81.6345500   4.6906100 103.9925420  82.4367930
   3.3330510 104.4277110  81.9273410   6.1515830 104.3672750  71.0629500
   5.9916970 104.0775690  71.9611330   5.9862540 103.5912880  70.5274730
   5.8541960 101.8760310  69.6227500   5.1607120 101.8737600  68.9629780
   6.5964820 101.4519630  69.1921670   5.4191890 103.5023020  73.6975990
   5.8748840 102.7212400  74.0114610   5.7584410 104.2129840  74.2417170
  10.1668700  92.4321870  84.0300430   9.5512970  92.9401540  83.5015890
   9.8465120  91.5320200  83.9726370   2.2283020  91.2713760  81.4962620
   1.7662390  91.4796780  82.3082560   1.8261130  90.4573110  81.1933290
   7.2287530  92.4922710  82.6259280   6.3781120  92.1928460  82.9468350
   7.0689320  92.7364720  81.7143100   4.3237240  93.9924460  84.7258070
   4.6490650  93.1588210  84.3860300   5.1117570  94.5152980  84.8736400
   4.9625190  93.5342180  72.2199200   4.3634080  94.2577980  72.0362820
   5.5104800  93.4718960  71.4375650   3.5690060  92.1705720  74.2502480
   3.9619630  92.4877920  73.4371170   3.9306910  91.2917600  74.3647000
   4.1545200  94.7611470  78.3453260   3.4226320  95.2698280  78.6943360
   3.7569540  93.9441450  78.0442040   4.6171110  90.2145150  77.7576200
   4.6343850  90.6653800  78.6018050   4.3686690  89.3150790  77.9709640
   8.0441860  87.6277330  83.5962580   8.3687630  86.8966990  84.1220560
   8.0798370  87.3090970  82.6943570   7.9699700  97.7402440  77.2048610
   8.6898820  98.2357730  76.8144720   7.7681520  97.0620330  76.5602480
   3.4309640  89.1340400  71.3478000   2.6174250  88.6353570  71.2723310
   3.2371590  89.9738650  70.9314350   3.3518500  97.8111500  83.0917610
   3.2855810  96.8907170  82.8375200   2.7223640  97.9086940  83.8062250
   6.1458030  93.5060050  69.6440160   7.0337650  93.8177280  69.4691500
   6.1163120  92.6332300  69.2520740   2.1418620  99.6783740  70.3228330
   2.4834320 100.4225970  69.8271650   1.3131330  99.9914860  70.6853160
   3.2835230 100.6332070  82.8421410   3.2979770  99.7013030  82.6240320
   2.5760330 100.7191830  83.4811180   8.4172300  94.8171890  69.1120020
   8.3336020  95.2486110  68.2616460   9.1366490  95.2770240  69.5446840
   9.4946440  97.2739410  82.1889990   8.7694630  97.8668190  81.9919380
  10.0221900  97.2662950  81.3903360   9.4459550 101.6714150  71.8402150
   8.8035710 101.0169770  72.1145870   9.0590210 102.0769240  71.0642820
   5.0246030  98.9999580  75.6873840   5.3769850  98.4027710  75.0275210
   4.1408360  98.6743810  75.8582090   2.7169130 102.2749640  79.9361910
   3.3611350 102.4809020  80.6135330   3.0798570 101.5138040  79.4832760
   3.9901210 100.2781990  78.6539360   4.6323440  99.5775150  78.7671530
   4.5150560 101.0580430  78.4736250   7.8356930 100.5630610  68.3778500
   7.6094510  99.8461050  68.9703140   7.4453130 100.3143050  67.5400250
   5.7638830 101.0776890  81.8575420   6.0995070 101.6643580  82.5353340
   4.8439170 100.9469600  82.0873210   7.4173180  98.4802550  70.0392660
   7.1294880  98.9415240  70.8270540   8.2125350  98.0200320  70.3076880
   4.8081010  91.3594380  80.3900280   5.1761830  90.5389590  80.7179850
   3.9479210  91.4196270  80.8055930   8.1743040  90.3151320  71.1987840
   7.5456200  90.4196990  70.4846070   7.6794960  90.5348100  71.9881720
   2.6201180 102.0356910  68.6321820   2.7213160 101.8320900  67.7023800
   1.7202920 101.7815190  68.8369600   1.7683000  94.0133970  80.6138250
   2.2668250  94.4879790  81.2790100   1.9105950  93.0897490  80.8208280
   4.1742500  89.3187930  74.0541510   4.0510280  89.3374060  73.1051020
   5.1227060  89.3666870  74.1739910   8.9749860  90.2301930  81.4566640
   8.4723460  90.9707330  81.7960450   9.7906520  90.6185930  81.1403430
   7.2671870  95.4735110  74.9028000   6.3262010  95.4885340  75.0775690
   7.5815940  94.6871070  75.3488300   9.2697450 102.6443960  76.5782260
   9.3944870 103.4675130  77.0506070  10.1363010 102.4334690  76.2306410
   4.5837890 100.0301110  85.3860380   3.9776050 100.0532710  84.6456130
   4.2792000  99.2984150  85.9227630   6.0138260 103.7581400  83.9969790
   6.9660010 103.6739420  83.9470030   5.8666480 104.4223110  84.6703580
   8.9047460 103.1375610  69.4961700   8.6188970 102.7240750  68.6815880
   8.7067010 104.0663320  69.3762220   3.6097420  98.1928920  68.5409300
   3.0607520  98.6398220  69.1852040   4.2316680  97.6878170  69.0646970
   7.6632360  99.5471020  84.4731560   8.4041830  99.8846780  83.9699020
   6.9005040  99.7163080  83.9201330   1.7900180  96.1757450  67.6851700
   2.3105840  95.4606470  67.3192850   2.4368580  96.8143320  67.9852210
   6.3378020  97.5985850  83.0086770   6.7519040  97.7530930  83.8577190
   5.4029020  97.7241070  83.1712550   6.8100190  94.9382010  85.0125920
   7.3920960  94.1834330  84.9246400   6.9861960  95.4689450  84.2357400
   3.4357150  95.2822510  82.3620540   3.5553360  94.6863650  83.1015380
   4.2951150  95.3192200  81.9421840   5.7745050  95.8359700  80.9383050
   5.2480270  96.3602320  80.3348190   6.1176390  96.4687090  81.5692780
   5.0219350  91.4409670  83.8529380   4.3334870  90.7791210  83.7879370
   5.7425370  90.9947940  84.2977840   5.6519750  88.0361300  69.9119640
   5.9322040  87.1929200  70.2679060   4.8785480  88.2684410  70.4258390
   2.3548210 104.2569060  69.9753440   3.2499000 104.5954030  69.9972200
   2.3865840 103.5348470  69.3477720   9.3342560 102.7872730  82.6819640
   8.7344550 102.8465290  81.9383560   9.4636460 101.8477710  82.8116490
  10.5744010 100.5290550  68.0189350   9.7436970 100.5967200  68.4896580
  10.7515840 101.4194670  67.7156210  10.0300470  97.2738030  70.5223550
  10.7919380  97.8434680  70.6283240  10.0454840  96.7065230  71.2931860
  11.0360440  98.1288130  75.3665480  11.4069270  97.3455450  74.9601450
  11.6762370  98.8177230  75.1882780   8.0194200  99.5124710  80.7795800
   7.2054040  99.9421870  81.0421590   8.4268400 100.1243120  80.1664850
  10.0819640  97.5672400  67.6796070  10.3568480  98.4751280  67.5515290
   9.8930380  97.5034930  68.6158060   6.4795250  90.5917250  68.9749700
   6.8980130  90.4048230  68.1346360   6.1731310  89.7396300  69.2852630
   9.9784980  95.5041390  72.6725500   9.6028580  94.7369320  72.2406790
   9.2488100  95.8864090  73.1600430   9.3684600  94.6512910  82.3065020
   9.1370690  94.4225660  81.4062970   9.6289150  95.5712460  82.2609910
   7.8072670  89.8769340  85.0844720   8.6842850  89.8852740  85.4678720
   7.8193510  89.1400180  84.4737070   9.2535940  93.7298880  75.9732740
   9.7773420  93.2361530  75.3422910   9.8395360  93.8649240  76.7180310
   9.4325660  93.8138750  79.4952290   8.4828370  93.7802290  79.6097280
   9.6138670  94.7238860  79.2602060   8.7435910  92.9872230  71.9125150
   9.2395030  92.7543100  72.6974030   8.5451980  92.1484070  71.4962790
  10.1723070  91.6233180  74.4462830  10.0622350  91.4689220  75.3845100
  10.9330660  91.0954120  74.2038240   8.5188790  87.5627310  80.9045830
   9.1561010  88.1761450  81.2705020   8.6663680  87.5987970  79.9595060
  11.0613340  89.4541100  67.6868970  11.9862650  89.3222280  67.4787260
  11.0389130  89.5333920  68.6405420  11.1351830  90.2251760  70.3125680
  10.3403330  90.1596880  70.8418590  11.3395110  91.1602400  70.3011030
   8.0770250 104.2643310  74.3064070   8.6729320 103.9427880  73.6298490
   8.3348400 103.7915130  75.0977340   1.8893270  88.7153500  83.8120930
   1.8282160  89.3075330  84.5616340   2.8293650  88.6079460  83.6671190
   4.5267830  88.3723560  83.4513220   5.1408240  88.6902850  82.7894300
   5.0717390  87.8872150  84.0709080  10.9443010 104.2715190  80.8575060
  10.4501290 104.6684060  80.1402190  10.3356300 103.6464400  81.2512340
   5.2675870  86.9355700  79.7782510   4.3935710  87.2690810  79.5755440
   5.1586620  86.4628880  80.6034380   6.1747850  89.1426570  81.1624230
   5.8461210  88.3278330  80.7825960   7.1230150  89.0996380  81.0389920
   8.6282460 104.9138610  78.1361800   8.1685430 105.6654420  77.7619820
   7.9994920 104.1945080  78.0776600   1.7973680 104.1135340  78.1378910
   2.0851490 103.8589640  77.2611920   2.3096900 103.5612700  78.7284480
   3.0150690  87.8525540  78.7175420   2.2322480  88.3271040  78.9972180
   2.7213620  86.9480370  78.6088600   7.5671760  88.5548640  76.7624510
   8.0079850  88.4993740  75.9146110   7.2979350  89.4706650  76.8334690
   9.4310330  88.1863880  74.7733330   9.3698730  87.2425100  74.6264350
  10.2102360  88.2943970  75.3186790   5.4029890  86.9354740  75.4674520
   6.0059260  87.5074950  75.9423040   4.6622880  87.4994180  75.2448420
   8.5464490  87.3376300  70.7414800   8.7415120  88.2359750  71.0082230
   7.7594360  87.1063380  71.2347750   1.8646040 105.0351440  85.5047110
   2.7913350 104.7995710  85.5483070   1.8496470 105.8623440  85.0233140
  10.0991100 104.5777010  72.5021360  10.2743290 103.8914750  71.8582280
   9.4012670 105.1024060  72.1098030   5.6525110  87.1149770  85.8469460
   5.5390560  87.4344380  86.7420980   6.4694850  87.5162280  85.5506740
   8.4323600 104.2621300  85.3288150   9.2248920 103.7670530  85.1214110
   8.7256750 104.9411440  85.9363760   4.5583260  95.1342240  56.2104200
   4.4777310  94.2196850  55.9395910   4.1447680  95.6309310  55.5043910
   2.6901300  96.9121260  58.0913470   1.9143400  96.4321700  58.3812040
   3.3414230  96.2326910  57.9169630   6.7108730 101.3181450  56.8712600
   6.2490260 100.5468690  57.1999770   7.5234280 101.3447520  57.3765050
   2.9372040 103.6039460  56.4916590   2.3183480 104.0596960  55.9211030
   3.7923820 103.7590920  56.0906290   2.1310290  99.5878450  58.0983630
   2.0618570  98.6468390  57.9372760   2.8930150  99.6779860  58.6706200
   3.1615460  92.3948830  58.3252560   3.5380280  91.5220710  58.2126230
   3.0634970  92.7307530  57.4343000   6.9439580  89.8899270  55.2580900
   7.7649200  89.3995840  55.3006380   6.9773660  90.4796930  56.0112740
  11.2339130  91.9066020  61.8224530  10.5291300  92.2947730  61.3039640
  11.4997050  92.6016310  62.4245460   3.8035390  98.4878700  53.8848500
   3.1852660  98.9528150  53.3211220   4.3158640  99.1806180  54.3018010
   7.1801060  91.8299650  58.0308440   6.4756630  92.1184540  58.6111550
   7.5413220  92.6399760  57.6708000   8.7963840 101.4474780  60.2935920
   8.1127360 102.1173890  60.2852590   9.3358130 101.6455430  59.5280780
  10.2487980  91.2754440  58.4217650   9.3012890  91.3093420  58.5533080
  10.5737970  92.0893390  58.8067010   6.3322580 103.2918910  59.0081100
   6.3449740 102.8881200  58.1403360   5.7797800 104.0666200  58.9042530
   7.6268000 100.0135130  54.0971270   7.5164330  99.0709460  54.2220690
   7.6236250 100.3750770  54.9834030   5.7308020  98.1948750  60.3363710
   6.1476810  97.9808860  59.5017170   6.4547840  98.4521540  60.9072330
   3.1688280  95.6400450  53.4533760   2.2417560  95.5737830  53.6822230
   3.3213100  96.5780580  53.3389000   3.1557360  91.9117450  50.4500920
   2.2161030  92.0731410  50.5353380   3.4740620  92.6303130  49.9036910
   9.6770120  96.5935970  60.4279950   8.8488750  96.6629060  59.9530080
  10.2720600  97.1790280  59.9595780   7.1985570  97.2020750  53.9569010
   6.5797990  96.8640300  53.3095310   7.1810020  96.5580510  54.6648200
   6.6412130  93.3805290  61.3734820   6.2283310  94.2059000  61.6274810
   5.9088080  92.7950330  61.1811180   7.3312230 103.4264620  62.0615800
   6.8542790 104.2336810  61.8688410   6.6474020 102.7742950  62.2142010
   5.3750270  96.4407560  50.9641760   5.8143550  95.6029990  50.8179580
   6.0878690  97.0736960  51.0505900   3.4845650 101.3803630  54.9323000
   3.9241560 102.1227960  54.5178390   3.4232540 101.6230200  55.8561960
   8.9567410  87.6950370  49.2782800   8.6440070  87.7877200  50.1781870
   9.7179880  88.2731400  49.2280230  10.9111440 103.1876560  67.1307190
  11.3871160 103.6659450  67.8096270  11.5318600 103.1194050  66.4052690
  10.3144690 100.3789410  64.2907200  10.4407750 100.1401290  63.3724380
  10.3566070  99.5473950  64.7629280   4.1761430 104.0817410  62.8602010
   4.6906100 103.9925420  63.6624440   3.3330510 104.4277110  63.1529920
   6.1515830 104.3672750  52.2886010   5.9916970 104.0775690  53.1867840
   5.9862540 103.5912880  51.7531240   5.8541960 101.8760310  50.8484010
   5.1607120 101.8737600  50.1886290   6.5964820 101.4519630  50.4178180
   5.4191890 103.5023020  54.9232500   5.8748840 102.7212400  55.2371120
   5.7584410 104.2129840  55.4673680  10.1668700  92.4321870  65.2556940
   9.5512970  92.9401540  64.7272400   9.8465120  91.5320200  65.1982880
   2.2283020  91.2713760  62.7219130   1.7662390  91.4796780  63.5339070
   1.8261130  90.4573110  62.4189800   7.2287530  92.4922710  63.8515790
   6.3781120  92.1928460  64.1724860   7.0689320  92.7364720  62.9399610
   4.3237240  93.9924460  65.9514580   4.6490650  93.1588210  65.6116810
   5.1117570  94.5152980  66.0992910   4.9625190  93.5342180  53.4455710
   4.3634080  94.2577980  53.2619330   5.5104800  93.4718960  52.6632160
   3.5690060  92.1705720  55.4758990   3.9619630  92.4877920  54.6627680
   3.9306910  91.2917600  55.5903510   4.1545200  94.7611470  59.5709770
   3.4226320  95.2698280  59.9199870   3.7569540  93.9441450  59.2698550
   4.6171110  90.2145150  58.9832710   4.6343850  90.6653800  59.8274560
   4.3686690  89.3150790  59.1966150   8.0441860  87.6277330  64.8219090
   8.3687630  86.8966990  65.3477070   8.0798370  87.3090970  63.9200080
   7.9699700  97.7402440  58.4305120   8.6898820  98.2357730  58.0401230
   7.7681520  97.0620330  57.7858990   3.4309640  89.1340400  52.5734510
   2.6174250  88.6353570  52.4979820   3.2371590  89.9738650  52.1570860
   3.3518500  97.8111500  64.3174120   3.2855810  96.8907170  64.0631710
   2.7223640  97.9086940  65.0318760   6.1458030  93.5060050  50.8696670
   7.0337650  93.8177280  50.6948010   6.1163120  92.6332300  50.4777250
   2.1418620  99.6783740  51.5484840   2.4834320 100.4225970  51.0528160
   1.3131330  99.9914860  51.9109670   3.2835230 100.6332070  64.0677920
   3.2979770  99.7013030  63.8496830   2.5760330 100.7191830  64.7067690
   8.4172300  94.8171890  50.3376530   8.3336020  95.2486110  49.4872970
   9.1366490  95.2770240  50.7703350   9.4946440  97.2739410  63.4146500
   8.7694630  97.8668190  63.2175890  10.0221900  97.2662950  62.6159870
   9.4459550 101.6714150  53.0658660   8.8035710 101.0169770  53.3402380
   9.0590210 102.0769240  52.2899330   5.0246030  98.9999580  56.9130350
   5.3769850  98.4027710  56.2531720   4.1408360  98.6743810  57.0838600
   2.7169130 102.2749640  61.1618420   3.3611350 102.4809020  61.8391840
   3.0798570 101.5138040  60.7089270   3.9901210 100.2781990  59.8795870
   4.6323440  99.5775150  59.9928040   4.5150560 101.0580430  59.6992760
   7.8356930 100.5630610  49.6035010   7.6094510  99.8461050  50.1959650
   7.4453130 100.3143050  48.7656760   5.7638830 101.0776890  63.0831930
   6.0995070 101.6643580  63.7609850   4.8439170 100.9469600  63.3129720
   7.4173180  98.4802550  51.2649170   7.1294880  98.9415240  52.0527050
   8.2125350  98.0200320  51.5333390   4.8081010  91.3594380  61.6156790
   5.1761830  90.5389590  61.9436360   3.9479210  91.4196270  62.0312440
   8.1743040  90.3151320  52.4244350   7.5456200  90.4196990  51.7102580
   7.6794960  90.5348100  53.2138230   2.6201180 102.0356910  49.8578330
   2.7213160 101.8320900  48.9280310   1.7202920 101.7815190  50.0626110
   1.7683000  94.0133970  61.8394760   2.2668250  94.4879790  62.5046610
   1.9105950  93.0897490  62.0464790   4.1742500  89.3187930  55.2798020
   4.0510280  89.3374060  54.3307530   5.1227060  89.3666870  55.3996420
   8.9749860  90.2301930  62.6823150   8.4723460  90.9707330  63.0216960
   9.7906520  90.6185930  62.3659940   7.2671870  95.4735110  56.1284510
   6.3262010  95.4885340  56.3032200   7.5815940  94.6871070  56.5744810
   9.2697450 102.6443960  57.8038770   9.3944870 103.4675130  58.2762580
  10.1363010 102.4334690  57.4562920   4.5837890 100.0301110  66.6116890
   3.9776050 100.0532710  65.8712640   4.2792000  99.2984150  67.1484140
   6.0138260 103.7581400  65.2226300   6.9660010 103.6739420  65.1726540
   5.8666480 104.4223110  65.8960090   8.9047460 103.1375610  50.7218210
   8.6188970 102.7240750  49.9072390   8.7067010 104.0663320  50.6018730
   3.6097420  98.1928920  49.7665810   3.0607520  98.6398220  50.4108550
   4.2316680  97.6878170  50.2903480   7.6632360  99.5471020  65.6988070
   8.4041830  99.8846780  65.1955530   6.9005040  99.7163080  65.1457840
   1.7900180  96.1757450  48.9108210   2.3105840  95.4606470  48.5449360
   2.4368580  96.8143320  49.2108720   6.3378020  97.5985850  64.2343280
   6.7519040  97.7530930  65.0833700   5.4029020  97.7241070  64.3969060
   6.8100190  94.9382010  66.2382430   7.3920960  94.1834330  66.1502910
   6.9861960  95.4689450  65.4613910   3.4357150  95.2822510  63.5877050
   3.5553360  94.6863650  64.3271890   4.2951150  95.3192200  63.1678350
   5.7745050  95.8359700  62.1639560   5.2480270  96.3602320  61.5604700
   6.1176390  96.4687090  62.7949290   5.0219350  91.4409670  65.0785890
   4.3334870  90.7791210  65.0135880   5.7425370  90.9947940  65.5234350
   5.6519750  88.0361300  51.1376150   5.9322040  87.1929200  51.4935570
   4.8785480  88.2684410  51.6514900   2.3548210 104.2569060  51.2009950
   3.2499000 104.5954030  51.2228710   2.3865840 103.5348470  50.5734230
   9.3342560 102.7872730  63.9076150   8.7344550 102.8465290  63.1640070
   9.4636460 101.8477710  64.0373000  10.5744010 100.5290550  49.2445860
   9.7436970 100.5967200  49.7153090  10.7515840 101.4194670  48.9412720
  10.0300470  97.2738030  51.7480060  10.7919380  97.8434680  51.8539750
  10.0454840  96.7065230  52.5188370  11.0360440  98.1288130  56.5921990
  11.4069270  97.3455450  56.1857960  11.6762370  98.8177230  56.4139290
   8.0194200  99.5124710  62.0052310   7.2054040  99.9421870  62.2678100
   8.4268400 100.1243120  61.3921360  10.0819640  97.5672400  48.9052580
  10.3568480  98.4751280  48.7771800   9.8930380  97.5034930  49.8414570
   6.4795250  90.5917250  50.2006210   6.8980130  90.4048230  49.3602870
   6.1731310  89.7396300  50.5109140   9.9784980  95.5041390  53.8982010
   9.6028580  94.7369320  53.4663300   9.2488100  95.8864090  54.3856940
   9.3684600  94.6512910  63.5321530   9.1370690  94.4225660  62.6319480
   9.6289150  95.5712460  63.4866420   7.8072670  89.8769340  66.3101230
   8.6842850  89.8852740  66.6935230   7.8193510  89.1400180  65.6993580
   9.2535940  93.7298880  57.1989250   9.7773420  93.2361530  56.5679420
   9.8395360  93.8649240  57.9436820   9.4325660  93.8138750  60.7208800
   8.4828370  93.7802290  60.8353790   9.6138670  94.7238860  60.4858570
   8.7435910  92.9872230  53.1381660   9.2395030  92.7543100  53.9230540
   8.5451980  92.1484070  52.7219300  10.1723070  91.6233180  55.6719340
  10.0622350  91.4689220  56.6101610  10.9330660  91.0954120  55.4294750
   8.5188790  87.5627310  62.1302340   9.1561010  88.1761450  62.4961530
   8.6663680  87.5987970  61.1851570  11.0613340  89.4541100  48.9125480
  11.9862650  89.3222280  48.7043770  11.0389130  89.5333920  49.8661930
  11.1351830  90.2251760  51.5382190  10.3403330  90.1596880  52.0675100
  11.3395110  91.1602400  51.5267540   8.0770250 104.2643310  55.5320580
   8.6729320 103.9427880  54.8555000   8.3348400 103.7915130  56.3233850
   1.8893270  88.7153500  65.0377440   1.8282160  89.3075330  65.7872850
   2.8293650  88.6079460  64.8927700   4.5267830  88.3723560  64.6769730
   5.1408240  88.6902850  64.0150810   5.0717390  87.8872150  65.2965590
  10.9443010 104.2715190  62.0831570  10.4501290 104.6684060  61.3658700
  10.3356300 103.6464400  62.4768850   5.2675870  86.9355700  61.0039020
   4.3935710  87.2690810  60.8011950   5.1586620  86.4628880  61.8290890
   6.1747850  89.1426570  62.3880740   5.8461210  88.3278330  62.0082470
   7.1230150  89.0996380  62.2646430   8.6282460 104.9138610  59.3618310
   8.1685430 105.6654420  58.9876330   7.9994920 104.1945080  59.3033110
   1.7973680 104.1135340  59.3635420   2.0851490 103.8589640  58.4868430
   2.3096900 103.5612700  59.9540990   3.0150690  87.8525540  59.9431930
   2.2322480  88.3271040  60.2228690   2.7213620  86.9480370  59.8345110
   7.5671760  88.5548640  57.9881020   8.0079850  88.4993740  57.1402620
   7.2979350  89.4706650  58.0591200   9.4310330  88.1863880  55.9989840
   9.3698730  87.2425100  55.8520860  10.2102360  88.2943970  56.5443300
   5.4029890  86.9354740  56.6931030   6.0059260  87.5074950  57.1679550
   4.6622880  87.4994180  56.4704930   8.5464490  87.3376300  51.9671310
   8.7415120  88.2359750  52.2338740   7.7594360  87.1063380  52.4604260
   1.8646040 105.0351440  66.7303620   2.7913350 104.7995710  66.7739580
   1.8496470 105.8623440  66.2489650  10.0991100 104.5777010  53.7277870
  10.2743290 103.8914750  53.0838790   9.4012670 105.1024060  53.3354540
   5.6525110  87.1149770  67.0725970   5.5390560  87.4344380  67.9677490
   6.4694850  87.5162280  66.7763250   8.4323600 104.2621300  66.5544660
   9.2248920 103.7670530  66.3470620   8.7256750 104.9411440  67.1620270
   4.5583260  95.1342240  37.4360710   4.4777310  94.2196850  37.1652420
   4.1447680  95.6309310  36.7300420   2.6901300  96.9121260  39.3169980
   1.9143400  96.4321700  39.6068550   3.3414230  96.2326910  39.1426140
   6.7108730 101.3181450  38.0969110   6.2490260 100.5468690  38.4256280
   7.5234280 101.3447520  38.6021560   2.9372040 103.6039460  37.7173100
   2.3183480 104.0596960  37.1467540   3.7923820 103.7590920  37.3162800
   2.1310290  99.5878450  39.3240140   2.0618570  98.6468390  39.1629270
   2.8930150  99.6779860  39.8962710   3.1615460  92.3948830  39.5509070
   3.5380280  91.5220710  39.4382740   3.0634970  92.7307530  38.6599510
   6.9439580  89.8899270  36.4837410   7.7649200  89.3995840  36.5262890
   6.9773660  90.4796930  37.2369250  11.2339130  91.9066020  43.0481040
  10.5291300  92.2947730  42.5296150  11.4997050  92.6016310  43.6501970
   3.8035390  98.4878700  35.1105010   3.1852660  98.9528150  34.5467730
   4.3158640  99.1806180  35.5274520   7.1801060  91.8299650  39.2564950
   6.4756630  92.1184540  39.8368060   7.5413220  92.6399760  38.8964510
   8.7963840 101.4474780  41.5192430   8.1127360 102.1173890  41.5109100
   9.3358130 101.6455430  40.7537290  10.2487980  91.2754440  39.6474160
   9.3012890  91.3093420  39.7789590  10.5737970  92.0893390  40.0323520
   6.3322580 103.2918910  40.2337610   6.3449740 102.8881200  39.3659870
   5.7797800 104.0666200  40.1299040   7.6268000 100.0135130  35.3227780
   7.5164330  99.0709460  35.4477200   7.6236250 100.3750770  36.2090540
   5.7308020  98.1948750  41.5620220   6.1476810  97.9808860  40.7273680
   6.4547840  98.4521540  42.1328840   3.1688280  95.6400450  34.6790270
   2.2417560  95.5737830  34.9078740   3.3213100  96.5780580  34.5645510
   3.1557360  91.9117450  31.6757430   2.2161030  92.0731410  31.7609890
   3.4740620  92.6303130  31.1293420   9.6770120  96.5935970  41.6536460
   8.8488750  96.6629060  41.1786590  10.2720600  97.1790280  41.1852290
   7.1985570  97.2020750  35.1825520   6.5797990  96.8640300  34.5351820
   7.1810020  96.5580510  35.8904710   6.6412130  93.3805290  42.5991330
   6.2283310  94.2059000  42.8531320   5.9088080  92.7950330  42.4067690
   7.3312230 103.4264620  43.2872310   6.8542790 104.2336810  43.0944920
   6.6474020 102.7742950  43.4398520   5.3750270  96.4407560  32.1898270
   5.8143550  95.6029990  32.0436090   6.0878690  97.0736960  32.2762410
   3.4845650 101.3803630  36.1579510   3.9241560 102.1227960  35.7434900
   3.4232540 101.6230200  37.0818470   8.9567410  87.6950370  30.5039310
   8.6440070  87.7877200  31.4038380   9.7179880  88.2731400  30.4536740
  10.9111440 103.1876560  48.3563700  11.3871160 103.6659450  49.0352780
  11.5318600 103.1194050  47.6309200  10.3144690 100.3789410  45.5163710
  10.4407750 100.1401290  44.5980890  10.3566070  99.5473950  45.9885790
   4.1761430 104.0817410  44.0858520   4.6906100 103.9925420  44.8880950
   3.3330510 104.4277110  44.3786430   6.1515830 104.3672750  33.5142520
   5.9916970 104.0775690  34.4124350   5.9862540 103.5912880  32.9787750
   5.8541960 101.8760310  32.0740520   5.1607120 101.8737600  31.4142800
   6.5964820 101.4519630  31.6434690   5.4191890 103.5023020  36.1489010
   5.8748840 102.7212400  36.4627630   5.7584410 104.2129840  36.6930190
  10.1668700  92.4321870  46.4813450   9.5512970  92.9401540  45.9528910
   9.8465120  91.5320200  46.4239390   2.2283020  91.2713760  43.9475640
   1.7662390  91.4796780  44.7595580   1.8261130  90.4573110  43.6446310
   7.2287530  92.4922710  45.0772300   6.3781120  92.1928460  45.3981370
   7.0689320  92.7364720  44.1656120   4.3237240  93.9924460  47.1771090
   4.6490650  93.1588210  46.8373320   5.1117570  94.5152980  47.3249420
   4.9625190  93.5342180  34.6712220   4.3634080  94.2577980  34.4875840
   5.5104800  93.4718960  33.8888670   3.5690060  92.1705720  36.7015500
   3.9619630  92.4877920  35.8884190   3.9306910  91.2917600  36.8160020
   4.1545200  94.7611470  40.7966280   3.4226320  95.2698280  41.1456380
   3.7569540  93.9441450  40.4955060   4.6171110  90.2145150  40.2089220
   4.6343850  90.6653800  41.0531070   4.3686690  89.3150790  40.4222660
   8.0441860  87.6277330  46.0475600   8.3687630  86.8966990  46.5733580
   8.0798370  87.3090970  45.1456590   7.9699700  97.7402440  39.6561630
   8.6898820  98.2357730  39.2657740   7.7681520  97.0620330  39.0115500
   3.4309640  89.1340400  33.7991020   2.6174250  88.6353570  33.7236330
   3.2371590  89.9738650  33.3827370   3.3518500  97.8111500  45.5430630
   3.2855810  96.8907170  45.2888220   2.7223640  97.9086940  46.2575270
   6.1458030  93.5060050  32.0953180   7.0337650  93.8177280  31.9204520
   6.1163120  92.6332300  31.7033760   2.1418620  99.6783740  32.7741350
   2.4834320 100.4225970  32.2784670   1.3131330  99.9914860  33.1366180
   3.2835230 100.6332070  45.2934430   3.2979770  99.7013030  45.0753340
   2.5760330 100.7191830  45.9324200   8.4172300  94.8171890  31.5633040
   8.3336020  95.2486110  30.7129480   9.1366490  95.2770240  31.9959860
   9.4946440  97.2739410  44.6403010   8.7694630  97.8668190  44.4432400
  10.0221900  97.2662950  43.8416380   9.4459550 101.6714150  34.2915170
   8.8035710 101.0169770  34.5658890   9.0590210 102.0769240  33.5155840
   5.0246030  98.9999580  38.1386860   5.3769850  98.4027710  37.4788230
   4.1408360  98.6743810  38.3095110   2.7169130 102.2749640  42.3874930
   3.3611350 102.4809020  43.0648350   3.0798570 101.5138040  41.9345780
   3.9901210 100.2781990  41.1052380   4.6323440  99.5775150  41.2184550
   4.5150560 101.0580430  40.9249270   7.8356930 100.5630610  30.8291520
   7.6094510  99.8461050  31.4216160   7.4453130 100.3143050  29.9913270
   5.7638830 101.0776890  44.3088440   6.0995070 101.6643580  44.9866360
   4.8439170 100.9469600  44.5386230   7.4173180  98.4802550  32.4905680
   7.1294880  98.9415240  33.2783560   8.2125350  98.0200320  32.7589900
   4.8081010  91.3594380  42.8413300   5.1761830  90.5389590  43.1692870
   3.9479210  91.4196270  43.2568950   8.1743040  90.3151320  33.6500860
   7.5456200  90.4196990  32.9359090   7.6794960  90.5348100  34.4394740
   2.6201180 102.0356910  31.0834840   2.7213160 101.8320900  30.1536820
   1.7202920 101.7815190  31.2882620   1.7683000  94.0133970  43.0651270
   2.2668250  94.4879790  43.7303120   1.9105950  93.0897490  43.2721300
   4.1742500  89.3187930  36.5054530   4.0510280  89.3374060  35.5564040
   5.1227060  89.3666870  36.6252930   8.9749860  90.2301930  43.9079660
   8.4723460  90.9707330  44.2473470   9.7906520  90.6185930  43.5916450
   7.2671870  95.4735110  37.3541020   6.3262010  95.4885340  37.5288710
   7.5815940  94.6871070  37.8001320   9.2697450 102.6443960  39.0295280
   9.3944870 103.4675130  39.5019090  10.1363010 102.4334690  38.6819430
   4.5837890 100.0301110  47.8373400   3.9776050 100.0532710  47.0969150
   4.2792000  99.2984150  48.3740650   6.0138260 103.7581400  46.4482810
   6.9660010 103.6739420  46.3983050   5.8666480 104.4223110  47.1216600
   8.9047460 103.1375610  31.9474720   8.6188970 102.7240750  31.1328900
   8.7067010 104.0663320  31.8275240   3.6097420  98.1928920  30.9922320
   3.0607520  98.6398220  31.6365060   4.2316680  97.6878170  31.5159990
   7.6632360  99.5471020  46.9244580   8.4041830  99.8846780  46.4212040
   6.9005040  99.7163080  46.3714350   1.7900180  96.1757450  30.1364720
   2.3105840  95.4606470  29.7705870   2.4368580  96.8143320  30.4365230
   6.3378020  97.5985850  45.4599790   6.7519040  97.7530930  46.3090210
   5.4029020  97.7241070  45.6225570   6.8100190  94.9382010  47.4638940
   7.3920960  94.1834330  47.3759420   6.9861960  95.4689450  46.6870420
   3.4357150  95.2822510  44.8133560   3.5553360  94.6863650  45.5528400
   4.2951150  95.3192200  44.3934860   5.7745050  95.8359700  43.3896070
   5.2480270  96.3602320  42.7861210   6.1176390  96.4687090  44.0205800
   5.0219350  91.4409670  46.3042400   4.3334870  90.7791210  46.2392390
   5.7425370  90.9947940  46.7490860   5.6519750  88.0361300  32.3632660
   5.9322040  87.1929200  32.7192080   4.8785480  88.2684410  32.8771410
   2.3548210 104.2569060  32.4266460   3.2499000 104.5954030  32.4485220
   2.3865840 103.5348470  31.7990740   9.3342560 102.7872730  45.1332660
   8.7344550 102.8465290  44.3896580   9.4636460 101.8477710  45.2629510
  10.5744010 100.5290550  30.4702370   9.7436970 100.5967200  30.9409600
  10.7515840 101.4194670  30.1669230  10.0300470  97.2738030  32.9736570
  10.7919380  97.8434680  33.0796260  10.0454840  96.7065230  33.7444880
  11.0360440  98.1288130  37.8178500  11.4069270  97.3455450  37.4114470
  11.6762370  98.8177230  37.6395800   8.0194200  99.5124710  43.2308820
   7.2054040  99.9421870  43.4934610   8.4268400 100.1243120  42.6177870
  10.0819640  97.5672400  30.1309090  10.3568480  98.4751280  30.0028310
   9.8930380  97.5034930  31.0671080   6.4795250  90.5917250  31.4262720
   6.8980130  90.4048230  30.5859380   6.1731310  89.7396300  31.7365650
   9.9784980  95.5041390  35.1238520   9.6028580  94.7369320  34.6919810
   9.2488100  95.8864090  35.6113450   9.3684600  94.6512910  44.7578040
   9.1370690  94.4225660  43.8575990   9.6289150  95.5712460  44.7122930
   7.8072670  89.8769340  47.5357740   8.6842850  89.8852740  47.9191740
   7.8193510  89.1400180  46.9250090   9.2535940  93.7298880  38.4245760
   9.7773420  93.2361530  37.7935930   9.8395360  93.8649240  39.1693330
   9.4325660  93.8138750  41.9465310   8.4828370  93.7802290  42.0610300
   9.6138670  94.7238860  41.7115080   8.7435910  92.9872230  34.3638170
   9.2395030  92.7543100  35.1487050   8.5451980  92.1484070  33.9475810
  10.1723070  91.6233180  36.8975850  10.0622350  91.4689220  37.8358120
  10.9330660  91.0954120  36.6551260   8.5188790  87.5627310  43.3558850
   9.1561010  88.1761450  43.7218040   8.6663680  87.5987970  42.4108080
  11.0613340  89.4541100  30.1381990  11.9862650  89.3222280  29.9300280
  11.0389130  89.5333920  31.0918440  11.1351830  90.2251760  32.7638700
  10.3403330  90.1596880  33.2931610  11.3395110  91.1602400  32.7524050
   8.0770250 104.2643310  36.7577090   8.6729320 103.9427880  36.0811510
   8.3348400 103.7915130  37.5490360   1.8893270  88.7153500  46.2633950
   1.8282160  89.3075330  47.0129360   2.8293650  88.6079460  46.1184210
   4.5267830  88.3723560  45.9026240   5.1408240  88.6902850  45.2407320
   5.0717390  87.8872150  46.5222100  10.9443010 104.2715190  43.3088080
  10.4501290 104.6684060  42.5915210  10.3356300 103.6464400  43.7025360
   5.2675870  86.9355700  42.2295530   4.3935710  87.2690810  42.0268460
   5.1586620  86.4628880  43.0547400   6.1747850  89.1426570  43.6137250
   5.8461210  88.3278330  43.2338980   7.1230150  89.0996380  43.4902940
   8.6282460 104.9138610  40.5874820   8.1685430 105.6654420  40.2132840
   7.9994920 104.1945080  40.5289620   1.7973680 104.1135340  40.5891930
   2.0851490 103.8589640  39.7124940   2.3096900 103.5612700  41.1797500
   3.0150690  87.8525540  41.1688440   2.2322480  88.3271040  41.4485200
   2.7213620  86.9480370  41.0601620   7.5671760  88.5548640  39.2137530
   8.0079850  88.4993740  38.3659130   7.2979350  89.4706650  39.2847710
   9.4310330  88.1863880  37.2246350   9.3698730  87.2425100  37.0777370
  10.2102360  88.2943970  37.7699810   5.4029890  86.9354740  37.9187540
   6.0059260  87.5074950  38.3936060   4.6622880  87.4994180  37.6961440
   8.5464490  87.3376300  33.1927820   8.7415120  88.2359750  33.4595250
   7.7594360  87.1063380  33.6860770   1.8646040 105.0351440  47.9560130
   2.7913350 104.7995710  47.9996090   1.8496470 105.8623440  47.4746160
  10.0991100 104.5777010  34.9534380  10.2743290 103.8914750  34.3095300
   9.4012670 105.1024060  34.5611050   5.6525110  87.1149770  48.2982480
   5.5390560  87.4344380  49.1934000   6.4694850  87.5162280  48.0019760
   8.4323600 104.2621300  47.7801170   9.2248920 103.7670530  47.5727130
   8.7256750 104.9411440  48.3876780   4.5583260  95.1342240  18.6617220
   4.4777310  94.2196850  18.3908930   4.1447680  95.6309310  17.9556930
   2.6901300  96.9121260  20.5426490   1.9143400  96.4321700  20.8325060
   3.3414230  96.2326910  20.3682650   6.7108730 101.3181450  19.3225620
   6.2490260 100.5468690  19.6512790   7.5234280 101.3447520  19.8278070
   2.9372040 103.6039460  18.9429610   2.3183480 104.0596960  18.3724050
   3.7923820 103.7590920  18.5419310   2.1310290  99.5878450  20.5496650
   2.0618570  98.6468390  20.3885780   2.8930150  99.6779860  21.1219220
   3.1615460  92.3948830  20.7765580   3.5380280  91.5220710  20.6639250
   3.0634970  92.7307530  19.8856020   6.9439580  89.8899270  17.7093920
   7.7649200  89.3995840  17.7519400   6.9773660  90.4796930  18.4625760
  11.2339130  91.9066020  24.2737550  10.5291300  92.2947730  23.7552660
  11.4997050  92.6016310  24.8758480   3.8035390  98.4878700  16.3361520
   3.1852660  98.9528150  15.7724240   4.3158640  99.1806180  16.7531030
   7.1801060  91.8299650  20.4821460   6.4756630  92.1184540  21.0624570
   7.5413220  92.6399760  20.1221020   8.7963840 101.4474780  22.7448940
   8.1127360 102.1173890  22.7365610   9.3358130 101.6455430  21.9793800
  10.2487980  91.2754440  20.8730670   9.3012890  91.3093420  21.0046100
  10.5737970  92.0893390  21.2580030   6.3322580 103.2918910  21.4594120
   6.3449740 102.8881200  20.5916380   5.7797800 104.0666200  21.3555550
   7.6268000 100.0135130  16.5484290   7.5164330  99.0709460  16.6733710
   7.6236250 100.3750770  17.4347050   5.7308020  98.1948750  22.7876730
   6.1476810  97.9808860  21.9530190   6.4547840  98.4521540  23.3585350
   3.1688280  95.6400450  15.9046780   2.2417560  95.5737830  16.1335250
   3.3213100  96.5780580  15.7902020   3.1557360  91.9117450  12.9013940
   2.2161030  92.0731410  12.9866400   3.4740620  92.6303130  12.3549930
   9.6770120  96.5935970  22.8792970   8.8488750  96.6629060  22.4043100
  10.2720600  97.1790280  22.4108800   7.1985570  97.2020750  16.4082030
   6.5797990  96.8640300  15.7608330   7.1810020  96.5580510  17.1161220
   6.6412130  93.3805290  23.8247840   6.2283310  94.2059000  24.0787830
   5.9088080  92.7950330  23.6324200   7.3312230 103.4264620  24.5128820
   6.8542790 104.2336810  24.3201430   6.6474020 102.7742950  24.6655030
   5.3750270  96.4407560  13.4154780   5.8143550  95.6029990  13.2692600
   6.0878690  97.0736960  13.5018920   3.4845650 101.3803630  17.3836020
   3.9241560 102.1227960  16.9691410   3.4232540 101.6230200  18.3074980
   8.9567410  87.6950370  11.7295820   8.6440070  87.7877200  12.6294890
   9.7179880  88.2731400  11.6793250  10.9111440 103.1876560  29.5820210
  11.3871160 103.6659450  30.2609290  11.5318600 103.1194050  28.8565710
  10.3144690 100.3789410  26.7420220  10.4407750 100.1401290  25.8237400
  10.3566070  99.5473950  27.2142300   4.1761430 104.0817410  25.3115030
   4.6906100 103.9925420  26.1137460   3.3330510 104.4277110  25.6042940
   6.1515830 104.3672750  14.7399030   5.9916970 104.0775690  15.6380860
   5.9862540 103.5912880  14.2044260   5.8541960 101.8760310  13.2997030
   5.1607120 101.8737600  12.6399310   6.5964820 101.4519630  12.8691200
   5.4191890 103.5023020  17.3745520   5.8748840 102.7212400  17.6884140
   5.7584410 104.2129840  17.9186700  10.1668700  92.4321870  27.7069960
   9.5512970  92.9401540  27.1785420   9.8465120  91.5320200  27.6495900
   2.2283020  91.2713760  25.1732150   1.7662390  91.4796780  25.9852090
   1.8261130  90.4573110  24.8702820   7.2287530  92.4922710  26.3028810
   6.3781120  92.1928460  26.6237880   7.0689320  92.7364720  25.3912630
   4.3237240  93.9924460  28.4027600   4.6490650  93.1588210  28.0629830
   5.1117570  94.5152980  28.5505930   4.9625190  93.5342180  15.8968730
   4.3634080  94.2577980  15.7132350   5.5104800  93.4718960  15.1145180
   3.5690060  92.1705720  17.9272010   3.9619630  92.4877920  17.1140700
   3.9306910  91.2917600  18.0416530   4.1545200  94.7611470  22.0222790
   3.4226320  95.2698280  22.3712890   3.7569540  93.9441450  21.7211570
   4.6171110  90.2145150  21.4345730   4.6343850  90.6653800  22.2787580
   4.3686690  89.3150790  21.6479170   8.0441860  87.6277330  27.2732110
   8.3687630  86.8966990  27.7990090   8.0798370  87.3090970  26.3713100
   7.9699700  97.7402440  20.8818140   8.6898820  98.2357730  20.4914250
   7.7681520  97.0620330  20.2372010   3.4309640  89.1340400  15.0247530
   2.6174250  88.6353570  14.9492840   3.2371590  89.9738650  14.6083880
   3.3518500  97.8111500  26.7687140   3.2855810  96.8907170  26.5144730
   2.7223640  97.9086940  27.4831780   6.1458030  93.5060050  13.3209690
   7.0337650  93.8177280  13.1461030   6.1163120  92.6332300  12.9290270
   2.1418620  99.6783740  13.9997860   2.4834320 100.4225970  13.5041180
   1.3131330  99.9914860  14.3622690   3.2835230 100.6332070  26.5190940
   3.2979770  99.7013030  26.3009850   2.5760330 100.7191830  27.1580710
   8.4172300  94.8171890  12.7889550   8.3336020  95.2486110  11.9385990
   9.1366490  95.2770240  13.2216370   9.4946440  97.2739410  25.8659520
   8.7694630  97.8668190  25.6688910  10.0221900  97.2662950  25.0672890
   9.4459550 101.6714150  15.5171680   8.8035710 101.0169770  15.7915400
   9.0590210 102.0769240  14.7412350   5.0246030  98.9999580  19.3643370
   5.3769850  98.4027710  18.7044740   4.1408360  98.6743810  19.5351620
   2.7169130 102.2749640  23.6131440   3.3611350 102.4809020  24.2904860
   3.0798570 101.5138040  23.1602290   3.9901210 100.2781990  22.3308890
   4.6323440  99.5775150  22.4441060   4.5150560 101.0580430  22.1505780
   7.8356930 100.5630610  12.0548030   7.6094510  99.8461050  12.6472670
   7.4453130 100.3143050  11.2169780   5.7638830 101.0776890  25.5344950
   6.0995070 101.6643580  26.2122870   4.8439170 100.9469600  25.7642740
   7.4173180  98.4802550  13.7162190   7.1294880  98.9415240  14.5040070
   8.2125350  98.0200320  13.9846410   4.8081010  91.3594380  24.0669810
   5.1761830  90.5389590  24.3949380   3.9479210  91.4196270  24.4825460
   8.1743040  90.3151320  14.8757370   7.5456200  90.4196990  14.1615600
   7.6794960  90.5348100  15.6651250   2.6201180 102.0356910  12.3091350
   2.7213160 101.8320900  11.3793330   1.7202920 101.7815190  12.5139130
   1.7683000  94.0133970  24.2907780   2.2668250  94.4879790  24.9559630
   1.9105950  93.0897490  24.4977810   4.1742500  89.3187930  17.7311040
   4.0510280  89.3374060  16.7820550   5.1227060  89.3666870  17.8509440
   8.9749860  90.2301930  25.1336170   8.4723460  90.9707330  25.4729980
   9.7906520  90.6185930  24.8172960   7.2671870  95.4735110  18.5797530
   6.3262010  95.4885340  18.7545220   7.5815940  94.6871070  19.0257830
   9.2697450 102.6443960  20.2551790   9.3944870 103.4675130  20.7275600
  10.1363010 102.4334690  19.9075940   4.5837890 100.0301110  29.0629910
   3.9776050 100.0532710  28.3225660   4.2792000  99.2984150  29.5997160
   6.0138260 103.7581400  27.6739320   6.9660010 103.6739420  27.6239560
   5.8666480 104.4223110  28.3473110   8.9047460 103.1375610  13.1731230
   8.6188970 102.7240750  12.3585410   8.7067010 104.0663320  13.0531750
   3.6097420  98.1928920  12.2178830   3.0607520  98.6398220  12.8621570
   4.2316680  97.6878170  12.7416500   7.6632360  99.5471020  28.1501090
   8.4041830  99.8846780  27.6468550   6.9005040  99.7163080  27.5970860
   1.7900180  96.1757450  11.3621230   2.3105840  95.4606470  10.9962380
   2.4368580  96.8143320  11.6621740   6.3378020  97.5985850  26.6856300
   6.7519040  97.7530930  27.5346720   5.4029020  97.7241070  26.8482080
   6.8100190  94.9382010  28.6895450   7.3920960  94.1834330  28.6015930
   6.9861960  95.4689450  27.9126930   3.4357150  95.2822510  26.0390070
   3.5553360  94.6863650  26.7784910   4.2951150  95.3192200  25.6191370
   5.7745050  95.8359700  24.6152580   5.2480270  96.3602320  24.0117720
   6.1176390  96.4687090  25.2462310   5.0219350  91.4409670  27.5298910
   4.3334870  90.7791210  27.4648900   5.7425370  90.9947940  27.9747370
   5.6519750  88.0361300  13.5889170   5.9322040  87.1929200  13.9448590
   4.8785480  88.2684410  14.1027920   2.3548210 104.2569060  13.6522970
   3.2499000 104.5954030  13.6741730   2.3865840 103.5348470  13.0247250
   9.3342560 102.7872730  26.3589170   8.7344550 102.8465290  25.6153090
   9.4636460 101.8477710  26.4886020  10.5744010 100.5290550  11.6958880
   9.7436970 100.5967200  12.1666110  10.7515840 101.4194670  11.3925740
  10.0300470  97.2738030  14.1993080  10.7919380  97.8434680  14.3052770
  10.0454840  96.7065230  14.9701390  11.0360440  98.1288130  19.0435010
  11.4069270  97.3455450  18.6370980  11.6762370  98.8177230  18.8652310
   8.0194200  99.5124710  24.4565330   7.2054040  99.9421870  24.7191120
   8.4268400 100.1243120  23.8434380  10.0819640  97.5672400  11.3565600
  10.3568480  98.4751280  11.2284820   9.8930380  97.5034930  12.2927590
   6.4795250  90.5917250  12.6519230   6.8980130  90.4048230  11.8115890
   6.1731310  89.7396300  12.9622160   9.9784980  95.5041390  16.3495030
   9.6028580  94.7369320  15.9176320   9.2488100  95.8864090  16.8369960
   9.3684600  94.6512910  25.9834550   9.1370690  94.4225660  25.0832500
   9.6289150  95.5712460  25.9379440   7.8072670  89.8769340  28.7614250
   8.6842850  89.8852740  29.1448250   7.8193510  89.1400180  28.1506600
   9.2535940  93.7298880  19.6502270   9.7773420  93.2361530  19.0192440
   9.8395360  93.8649240  20.3949840   9.4325660  93.8138750  23.1721820
   8.4828370  93.7802290  23.2866810   9.6138670  94.7238860  22.9371590
   8.7435910  92.9872230  15.5894680   9.2395030  92.7543100  16.3743560
   8.5451980  92.1484070  15.1732320  10.1723070  91.6233180  18.1232360
  10.0622350  91.4689220  19.0614630  10.9330660  91.0954120  17.8807770
   8.5188790  87.5627310  24.5815360   9.1561010  88.1761450  24.9474550
   8.6663680  87.5987970  23.6364590  11.0613340  89.4541100  11.3638500
  11.9862650  89.3222280  11.1556790  11.0389130  89.5333920  12.3174950
  11.1351830  90.2251760  13.9895210  10.3403330  90.1596880  14.5188120
  11.3395110  91.1602400  13.9780560   8.0770250 104.2643310  17.9833600
   8.6729320 103.9427880  17.3068020   8.3348400 103.7915130  18.7746870
   1.8893270  88.7153500  27.4890460   1.8282160  89.3075330  28.2385870
   2.8293650  88.6079460  27.3440720   4.5267830  88.3723560  27.1282750
   5.1408240  88.6902850  26.4663830   5.0717390  87.8872150  27.7478610
  10.9443010 104.2715190  24.5344590  10.4501290 104.6684060  23.8171720
  10.3356300 103.6464400  24.9281870   5.2675870  86.9355700  23.4552040
   4.3935710  87.2690810  23.2524970   5.1586620  86.4628880  24.2803910
   6.1747850  89.1426570  24.8393760   5.8461210  88.3278330  24.4595490
   7.1230150  89.0996380  24.7159450   8.6282460 104.9138610  21.8131330
   8.1685430 105.6654420  21.4389350   7.9994920 104.1945080  21.7546130
   1.7973680 104.1135340  21.8148440   2.0851490 103.8589640  20.9381450
   2.3096900 103.5612700  22.4054010   3.0150690  87.8525540  22.3944950
   2.2322480  88.3271040  22.6741710   2.7213620  86.9480370  22.2858130
   7.5671760  88.5548640  20.4394040   8.0079850  88.4993740  19.5915640
   7.2979350  89.4706650  20.5104220   9.4310330  88.1863880  18.4502860
   9.3698730  87.2425100  18.3033880  10.2102360  88.2943970  18.9956320
   5.4029890  86.9354740  19.1444050   6.0059260  87.5074950  19.6192570
   4.6622880  87.4994180  18.9217950   8.5464490  87.3376300  14.4184330
   8.7415120  88.2359750  14.6851760   7.7594360  87.1063380  14.9117280
   1.8646040 105.0351440  29.1816640   2.7913350 104.7995710  29.2252600
   1.8496470 105.8623440  28.7002670  10.0991100 104.5777010  16.1790890
  10.2743290 103.8914750  15.5351810   9.4012670 105.1024060  15.7867560
   5.6525110  87.1149770  29.5238990   5.5390560  87.4344380  30.4190510
   6.4694850  87.5162280  29.2276270   8.4323600 104.2621300  29.0057680
   9.2248920 103.7670530  28.7983640   8.7256750 104.9411440  29.6133290
   2.6901300  96.9121260   1.7683000   1.9143400  96.4321700   2.0581570
   3.3414230  96.2326910   1.5939160   2.1310290  99.5878450   1.7753160
   2.0618570  98.6468390   1.6142290   2.8930150  99.6779860   2.3475730
  11.2339130  91.9066020   5.4994060  10.5291300  92.2947730   4.9809170
  11.4997050  92.6016310   6.1014990   8.7963840 101.4474780   3.9705450
   8.1127360 102.1173890   3.9622120   9.3358130 101.6455430   3.2050310
  10.2487980  91.2754440   2.0987180   9.3012890  91.3093420   2.2302610
  10.5737970  92.0893390   2.4836540   6.3322580 103.2918910   2.6850630
   6.3449740 102.8881200   1.8172890   5.7797800 104.0666200   2.5812060
   5.7308020  98.1948750   4.0133240   6.1476810  97.9808860   3.1786700
   6.4547840  98.4521540   4.5841860   9.6770120  96.5935970   4.1049480
   8.8488750  96.6629060   3.6299610  10.2720600  97.1790280   3.6365310
   6.6412130  93.3805290   5.0504350   6.2283310  94.2059000   5.3044340
   5.9088080  92.7950330   4.8580710   7.3312230 103.4264620   5.7385330
   6.8542790 104.2336810   5.5457940   6.6474020 102.7742950   5.8911540
  10.9111440 103.1876560  10.8076720  11.3871160 103.6659450  11.4865800
  11.5318600 103.1194050  10.0822220  10.3144690 100.3789410   7.9676730
  10.4407750 100.1401290   7.0493910  10.3566070  99.5473950   8.4398810
   4.1761430 104.0817410   6.5371540   4.6906100 103.9925420   7.3393970
   3.3330510 104.4277110   6.8299450  10.1668700  92.4321870   8.9326470
   9.5512970  92.9401540   8.4041930   9.8465120  91.5320200   8.8752410
   2.2283020  91.2713760   6.3988660   1.7662390  91.4796780   7.2108600
   1.8261130  90.4573110   6.0959330   7.2287530  92.4922710   7.5285320
   6.3781120  92.1928460   7.8494390   7.0689320  92.7364720   6.6169140
   4.3237240  93.9924460   9.6284110   4.6490650  93.1588210   9.2886340
   5.1117570  94.5152980   9.7762440   4.1545200  94.7611470   3.2479300
   3.4226320  95.2698280   3.5969400   3.7569540  93.9441450   2.9468080
   4.6171110  90.2145150   2.6602240   4.6343850  90.6653800   3.5044090
   4.3686690  89.3150790   2.8735680   8.0441860  87.6277330   8.4988620
   8.3687630  86.8966990   9.0246600   8.0798370  87.3090970   7.5969610
   7.9699700  97.7402440   2.1074650   8.6898820  98.2357730   1.7170760
   7.7681520  97.0620330   1.4628520   3.3518500  97.8111500   7.9943650
   3.2855810  96.8907170   7.7401240   2.7223640  97.9086940   8.7088290
   3.2835230 100.6332070   7.7447450   3.2979770  99.7013030   7.5266360
   2.5760330 100.7191830   8.3837220   9.4946440  97.2739410   7.0916030
   8.7694630  97.8668190   6.8945420  10.0221900  97.2662950   6.2929400
   2.7169130 102.2749640   4.8387950   3.3611350 102.4809020   5.5161370
   3.0798570 101.5138040   4.3858800   3.9901210 100.2781990   3.5565400
   4.6323440  99.5775150   3.6697570   4.5150560 101.0580430   3.3762290
   5.7638830 101.0776890   6.7601460   6.0995070 101.6643580   7.4379380
   4.8439170 100.9469600   6.9899250   4.8081010  91.3594380   5.2926320
   5.1761830  90.5389590   5.6205890   3.9479210  91.4196270   5.7081970
   1.7683000  94.0133970   5.5164290   2.2668250  94.4879790   6.1816140
   1.9105950  93.0897490   5.7234320   8.9749860  90.2301930   6.3592680
   8.4723460  90.9707330   6.6986490   9.7906520  90.6185930   6.0429470
   4.5837890 100.0301110  10.2886420   3.9776050 100.0532710   9.5482170
   4.2792000  99.2984150  10.8253670   6.0138260 103.7581400   8.8995830
   6.9660010 103.6739420   8.8496070   5.8666480 104.4223110   9.5729620
   7.6632360  99.5471020   9.3757600   8.4041830  99.8846780   8.8725060
   6.9005040  99.7163080   8.8227370   6.3378020  97.5985850   7.9112810
   6.7519040  97.7530930   8.7603230   5.4029020  97.7241070   8.0738590
   6.8100190  94.9382010   9.9151960   7.3920960  94.1834330   9.8272440
   6.9861960  95.4689450   9.1383440   3.4357150  95.2822510   7.2646580
   3.5553360  94.6863650   8.0041420   4.2951150  95.3192200   6.8447880
   5.7745050  95.8359700   5.8409090   5.2480270  96.3602320   5.2374230
   6.1176390  96.4687090   6.4718820   5.0219350  91.4409670   8.7555420
   4.3334870  90.7791210   8.6905410   5.7425370  90.9947940   9.2003880
   9.3342560 102.7872730   7.5845680   8.7344550 102.8465290   6.8409600
   9.4636460 101.8477710   7.7142530   8.0194200  99.5124710   5.6821840
   7.2054040  99.9421870   5.9447630   8.4268400 100.1243120   5.0690890
   9.3684600  94.6512910   7.2091060   9.1370690  94.4225660   6.3089010
   9.6289150  95.5712460   7.1635950   7.8072670  89.8769340   9.9870760
   8.6842850  89.8852740  10.3704760   7.8193510  89.1400180   9.3763110
   9.4325660  93.8138750   4.3978330   8.4828370  93.7802290   4.5123320
   9.6138670  94.7238860   4.1628100   8.5188790  87.5627310   5.8071870
   9.1561010  88.1761450   6.1731060   8.6663680  87.5987970   4.8621100
   1.8893270  88.7153500   8.7146970   1.8282160  89.3075330   9.4642380
   2.8293650  88.6079460   8.5697230   4.5267830  88.3723560   8.3539260
   5.1408240  88.6902850   7.6920340   5.0717390  87.8872150   8.9735120
  10.9443010 104.2715190   5.7601100  10.4501290 104.6684060   5.0428230
  10.3356300 103.6464400   6.1538380   5.2675870  86.9355700   4.6808550
   4.3935710  87.2690810   4.4781480   5.1586620  86.4628880   5.5060420
   6.1747850  89.1426570   6.0650270   5.8461210  88.3278330   5.6852000
   7.1230150  89.0996380   5.9415960   8.6282460 104.9138610   3.0387840
   8.1685430 105.6654420   2.6645860   7.9994920 104.1945080   2.9802640
   1.7973680 104.1135340   3.0404950   2.0851490 103.8589640   2.1637960
   2.3096900 103.5612700   3.6310520   3.0150690  87.8525540   3.6201460
   2.2322480  88.3271040   3.8998220   2.7213620  86.9480370   3.5114640
   1.8646040 105.0351440  10.4073150   2.7913350 104.7995710  10.4509110
   1.8496470 105.8623440   9.9259180   5.6525110  87.1149770  10.7495500
   5.5390560  87.4344380  11.6447020   6.4694850  87.5162280  10.4532780
   8.4323600 104.2621300  10.2314190   9.2248920 103.7670530  10.0240150
   8.7256750 104.9411440  10.8389800   4.5583260  76.3598750 150.0821650
   4.4777310  75.4453360 149.8113360   4.1447680  76.8565820 149.3761360
   6.7108730  82.5437960 150.7430050   6.2490260  81.7725200 151.0717220
   7.5234280  82.5704030 151.2482500   2.9372040  84.8295970 150.3634040
   2.3183480  85.2853470 149.7928480   3.7923820  84.9847430 149.9623740
   6.9439580  71.1155780 149.1298350   7.7649200  70.6252350 149.1723830
   6.9773660  71.7053440 149.8830190   3.8035390  79.7135210 147.7565950
   3.1852660  80.1784660 147.1928670   4.3158640  80.4062690 148.1735460
   7.6268000  81.2391640 147.9688720   7.5164330  80.2965970 148.0938140
   7.6236250  81.6007280 148.8551480   3.1688280  76.8656960 147.3251210
   2.2417560  76.7994340 147.5539680   3.3213100  77.8037090 147.2106450
   3.1557360  73.1373960 144.3218370   2.2161030  73.2987920 144.4070830
   3.4740620  73.8559640 143.7754360   7.1985570  78.4277260 147.8286460
   6.5797990  78.0896810 147.1812760   7.1810020  77.7837020 148.5365650
   5.3750270  77.6664070 144.8359210   5.8143550  76.8286500 144.6897030
   6.0878690  78.2993470 144.9223350   3.4845650  82.6060140 148.8040450
   3.9241560  83.3484470 148.3895840   3.4232540  82.8486710 149.7279410
   8.9567410  68.9206880 143.1500250   8.6440070  69.0133710 144.0499320
   9.7179880  69.4987910 143.0997680   6.1515830  85.5929260 146.1603460
   5.9916970  85.3032200 147.0585290   5.9862540  84.8169390 145.6248690
   5.8541960  83.1016820 144.7201460   5.1607120  83.0994110 144.0603740
   6.5964820  82.6776140 144.2895630   5.4191890  84.7279530 148.7949950
   5.8748840  83.9468910 149.1088570   5.7584410  85.4386350 149.3391130
   4.9625190  74.7598690 147.3173160   4.3634080  75.4834490 147.1336780
   5.5104800  74.6975470 146.5349610   3.5690060  73.3962230 149.3476440
   3.9619630  73.7134430 148.5345130   3.9306910  72.5174110 149.4620960
   3.4309640  70.3596910 146.4451960   2.6174250  69.8610080 146.3697270
   3.2371590  71.1995160 146.0288310   6.1458030  74.7316560 144.7414120
   7.0337650  75.0433790 144.5665460   6.1163120  73.8588810 144.3494700
   2.1418620  80.9040250 145.4202290   2.4834320  81.6482480 144.9245610
   1.3131330  81.2171370 145.7827120   8.4172300  76.0428400 144.2093980
   8.3336020  76.4742620 143.3590420   9.1366490  76.5026750 144.6420800
   9.4459550  82.8970660 146.9376110   8.8035710  82.2426280 147.2119830
   9.0590210  83.3025750 146.1616780   5.0246030  80.2256090 150.7847800
   5.3769850  79.6284220 150.1249170   4.1408360  79.9000320 150.9556050
   7.8356930  81.7887120 143.4752460   7.6094510  81.0717560 144.0677100
   7.4453130  81.5399560 142.6374210   7.4173180  79.7059060 145.1366620
   7.1294880  80.1671750 145.9244500   8.2125350  79.2456830 145.4050840
   8.1743040  71.5407830 146.2961800   7.5456200  71.6453500 145.5820030
   7.6794960  71.7604610 147.0855680   2.6201180  83.2613420 143.7295780
   2.7213160  83.0577410 142.7997760   1.7202920  83.0071700 143.9343560
   4.1742500  70.5444440 149.1515470   4.0510280  70.5630570 148.2024980
   5.1227060  70.5923380 149.2713870   7.2671870  76.6991620 150.0001960
   6.3262010  76.7141850 150.1749650   7.5815940  75.9127580 150.4462260
   8.9047460  84.3632120 144.5935660   8.6188970  83.9497260 143.7789840
   8.7067010  85.2919830 144.4736180   3.6097420  79.4185430 143.6383260
   3.0607520  79.8654730 144.2826000   4.2316680  78.9134680 144.1620930
   1.7900180  77.4013960 142.7825660   2.3105840  76.6862980 142.4166810
   2.4368580  78.0399830 143.0826170   5.6519750  69.2617810 145.0093600
   5.9322040  68.4185710 145.3653020   4.8785480  69.4940920 145.5232350
   2.3548210  85.4825570 145.0727400   3.2499000  85.8210540 145.0946160
   2.3865840  84.7604980 144.4451680  10.5744010  81.7547060 143.1163310
   9.7436970  81.8223710 143.5870540  10.7515840  82.6451180 142.8130170
  10.0300470  78.4994540 145.6197510  10.7919380  79.0691190 145.7257200
  10.0454840  77.9321740 146.3905820  11.0360440  79.3544640 150.4639440
  11.4069270  78.5711960 150.0575410  11.6762370  80.0433740 150.2856740
  10.0819640  78.7928910 142.7770030  10.3568480  79.7007790 142.6489250
   9.8930380  78.7291440 143.7132020   6.4795250  71.8173760 144.0723660
   6.8980130  71.6304740 143.2320320   6.1731310  70.9652810 144.3826590
   9.9784980  76.7297900 147.7699460   9.6028580  75.9625830 147.3380750
   9.2488100  77.1120600 148.2574390   8.7435910  74.2128740 147.0099110
   9.2395030  73.9799610 147.7947990   8.5451980  73.3740580 146.5936750
  10.1723070  72.8489690 149.5436790  10.0622350  72.6945730 150.4819060
  10.9330660  72.3210630 149.3012200  11.0613340  70.6797610 142.7842930
  11.9862650  70.5478790 142.5761220  11.0389130  70.7590430 143.7379380
  11.1351830  71.4508270 145.4099640  10.3403330  71.3853390 145.9392550
  11.3395110  72.3858910 145.3984990   8.0770250  85.4899820 149.4038030
   8.6729320  85.1684390 148.7272450   8.3348400  85.0171640 150.1951300
   9.4310330  69.4120390 149.8707290   9.3698730  68.4681610 149.7238310
  10.2102360  69.5200480 150.4160750   5.4029890  68.1611250 150.5648480
   6.0059260  68.7331460 151.0397000   4.6622880  68.7250690 150.3422380
   8.5464490  68.5632810 145.8388760   8.7415120  69.4616260 146.1056190
   7.7594360  68.3319890 146.3321710  10.0991100  85.8033520 147.5995320
  10.2743290  85.1171260 146.9556240   9.4012670  86.3280570 147.2071990
   4.5583260  76.3598750 131.3078160   4.4777310  75.4453360 131.0369870
   4.1447680  76.8565820 130.6017870   2.6901300  78.1377770 133.1887430
   1.9143400  77.6578210 133.4786000   3.3414230  77.4583420 133.0143590
   6.7108730  82.5437960 131.9686560   6.2490260  81.7725200 132.2973730
   7.5234280  82.5704030 132.4739010   2.9372040  84.8295970 131.5890550
   2.3183480  85.2853470 131.0184990   3.7923820  84.9847430 131.1880250
   2.1310290  80.8134960 133.1957590   2.0618570  79.8724900 133.0346720
   2.8930150  80.9036370 133.7680160   3.1615460  73.6205340 133.4226520
   3.5380280  72.7477220 133.3100190   3.0634970  73.9564040 132.5316960
   6.9439580  71.1155780 130.3554860   7.7649200  70.6252350 130.3980340
   6.9773660  71.7053440 131.1086700  11.2339130  73.1322530 136.9198490
  10.5291300  73.5204240 136.4013600  11.4997050  73.8272820 137.5219420
   3.8035390  79.7135210 128.9822460   3.1852660  80.1784660 128.4185180
   4.3158640  80.4062690 129.3991970   7.1801060  73.0556160 133.1282400
   6.4756630  73.3441050 133.7085510   7.5413220  73.8656270 132.7681960
   8.7963840  82.6731290 135.3909880   8.1127360  83.3430400 135.3826550
   9.3358130  82.8711940 134.6254740  10.2487980  72.5010950 133.5191610
   9.3012890  72.5349930 133.6507040  10.5737970  73.3149900 133.9040970
   6.3322580  84.5175420 134.1055060   6.3449740  84.1137710 133.2377320
   5.7797800  85.2922710 134.0016490   7.6268000  81.2391640 129.1945230
   7.5164330  80.2965970 129.3194650   7.6236250  81.6007280 130.0807990
   5.7308020  79.4205260 135.4337670   6.1476810  79.2065370 134.5991130
   6.4547840  79.6778050 136.0046290   3.1688280  76.8656960 128.5507720
   2.2417560  76.7994340 128.7796190   3.3213100  77.8037090 128.4362960
   3.1557360  73.1373960 125.5474880   2.2161030  73.2987920 125.6327340
   3.4740620  73.8559640 125.0010870   9.6770120  77.8192480 135.5253910
   8.8488750  77.8885570 135.0504040  10.2720600  78.4046790 135.0569740
   7.1985570  78.4277260 129.0542970   6.5797990  78.0896810 128.4069270
   7.1810020  77.7837020 129.7622160   6.6412130  74.6061800 136.4708780
   6.2283310  75.4315510 136.7248770   5.9088080  74.0206840 136.2785140
   7.3312230  84.6521130 137.1589760   6.8542790  85.4593320 136.9662370
   6.6474020  83.9999460 137.3115970   5.3750270  77.6664070 126.0615720
   5.8143550  76.8286500 125.9153540   6.0878690  78.2993470 126.1479860
   3.4845650  82.6060140 130.0296960   3.9241560  83.3484470 129.6152350
   3.4232540  82.8486710 130.9535920   8.9567410  68.9206880 124.3756760
   8.6440070  69.0133710 125.2755830   9.7179880  69.4987910 124.3254190
  10.9111440  84.4133070 142.2281150  11.3871160  84.8915960 142.9070230
  11.5318600  84.3450560 141.5026650  10.3144690  81.6045920 139.3881160
  10.4407750  81.3657800 138.4698340  10.3566070  80.7730460 139.8603240
   4.1761430  85.3073920 137.9575970   4.6906100  85.2181930 138.7598400
   3.3330510  85.6533620 138.2503880   6.1515830  85.5929260 127.3859970
   5.9916970  85.3032200 128.2841800   5.9862540  84.8169390 126.8505200
   5.8541960  83.1016820 125.9457970   5.1607120  83.0994110 125.2860250
   6.5964820  82.6776140 125.5152140   5.4191890  84.7279530 130.0206460
   5.8748840  83.9468910 130.3345080   5.7584410  85.4386350 130.5647640
  10.1668700  73.6578380 140.3530900   9.5512970  74.1658050 139.8246360
   9.8465120  72.7576710 140.2956840   2.2283020  72.4970270 137.8193090
   1.7662390  72.7053290 138.6313030   1.8261130  71.6829620 137.5163760
   7.2287530  73.7179220 138.9489750   6.3781120  73.4184970 139.2698820
   7.0689320  73.9621230 138.0373570   4.3237240  75.2180970 141.0488540
   4.6490650  74.3844720 140.7090770   5.1117570  75.7409490 141.1966870
   4.9625190  74.7598690 128.5429670   4.3634080  75.4834490 128.3593290
   5.5104800  74.6975470 127.7606120   3.5690060  73.3962230 130.5732950
   3.9619630  73.7134430 129.7601640   3.9306910  72.5174110 130.6877470
   4.1545200  75.9867980 134.6683730   3.4226320  76.4954790 135.0173830
   3.7569540  75.1697960 134.3672510   4.6171110  71.4401660 134.0806670
   4.6343850  71.8910310 134.9248520   4.3686690  70.5407300 134.2940110
   8.0441860  68.8533840 139.9193050   8.3687630  68.1223500 140.4451030
   8.0798370  68.5347480 139.0174040   7.9699700  78.9658950 133.5279080
   8.6898820  79.4614240 133.1375190   7.7681520  78.2876840 132.8832950
   3.4309640  70.3596910 127.6708470   2.6174250  69.8610080 127.5953780
   3.2371590  71.1995160 127.2544820   3.3518500  79.0368010 139.4148080
   3.2855810  78.1163680 139.1605670   2.7223640  79.1343450 140.1292720
   6.1458030  74.7316560 125.9670630   7.0337650  75.0433790 125.7921970
   6.1163120  73.8588810 125.5751210   2.1418620  80.9040250 126.6458800
   2.4834320  81.6482480 126.1502120   1.3131330  81.2171370 127.0083630
   3.2835230  81.8588580 139.1651880   3.2979770  80.9269540 138.9470790
   2.5760330  81.9448340 139.8041650   8.4172300  76.0428400 125.4350490
   8.3336020  76.4742620 124.5846930   9.1366490  76.5026750 125.8677310
   9.4946440  78.4995920 138.5120460   8.7694630  79.0924700 138.3149850
  10.0221900  78.4919460 137.7133830   9.4459550  82.8970660 128.1632620
   8.8035710  82.2426280 128.4376340   9.0590210  83.3025750 127.3873290
   5.0246030  80.2256090 132.0104310   5.3769850  79.6284220 131.3505680
   4.1408360  79.9000320 132.1812560   2.7169130  83.5006150 136.2592380
   3.3611350  83.7065530 136.9365800   3.0798570  82.7394550 135.8063230
   3.9901210  81.5038500 134.9769830   4.6323440  80.8031660 135.0902000
   4.5150560  82.2836940 134.7966720   7.8356930  81.7887120 124.7008970
   7.6094510  81.0717560 125.2933610   7.4453130  81.5399560 123.8630720
   5.7638830  82.3033400 138.1805890   6.0995070  82.8900090 138.8583810
   4.8439170  82.1726110 138.4103680   7.4173180  79.7059060 126.3623130
   7.1294880  80.1671750 127.1501010   8.2125350  79.2456830 126.6307350
   4.8081010  72.5850890 136.7130750   5.1761830  71.7646100 137.0410320
   3.9479210  72.6452780 137.1286400   8.1743040  71.5407830 127.5218310
   7.5456200  71.6453500 126.8076540   7.6794960  71.7604610 128.3112190
   2.6201180  83.2613420 124.9552290   2.7213160  83.0577410 124.0254270
   1.7202920  83.0071700 125.1600070   1.7683000  75.2390480 136.9368720
   2.2668250  75.7136300 137.6020570   1.9105950  74.3154000 137.1438750
   4.1742500  70.5444440 130.3771980   4.0510280  70.5630570 129.4281490
   5.1227060  70.5923380 130.4970380   8.9749860  71.4558440 137.7797110
   8.4723460  72.1963840 138.1190920   9.7906520  71.8442440 137.4633900
   7.2671870  76.6991620 131.2258470   6.3262010  76.7141850 131.4006160
   7.5815940  75.9127580 131.6718770   9.2697450  83.8700470 132.9012730
   9.3944870  84.6931640 133.3736540  10.1363010  83.6591200 132.5536880
   4.5837890  81.2557620 141.7090850   3.9776050  81.2789220 140.9686600
   4.2792000  80.5240660 142.2458100   6.0138260  84.9837910 140.3200260
   6.9660010  84.8995930 140.2700500   5.8666480  85.6479620 140.9934050
   8.9047460  84.3632120 125.8192170   8.6188970  83.9497260 125.0046350
   8.7067010  85.2919830 125.6992690   3.6097420  79.4185430 124.8639770
   3.0607520  79.8654730 125.5082510   4.2316680  78.9134680 125.3877440
   7.6632360  80.7727530 140.7962030   8.4041830  81.1103290 140.2929490
   6.9005040  80.9419590 140.2431800   1.7900180  77.4013960 124.0082170
   2.3105840  76.6862980 123.6423320   2.4368580  78.0399830 124.3082680
   6.3378020  78.8242360 139.3317240   6.7519040  78.9787440 140.1807660
   5.4029020  78.9497580 139.4943020   6.8100190  76.1638520 141.3356390
   7.3920960  75.4090840 141.2476870   6.9861960  76.6945960 140.5587870
   3.4357150  76.5079020 138.6851010   3.5553360  75.9120160 139.4245850
   4.2951150  76.5448710 138.2652310   5.7745050  77.0616210 137.2613520
   5.2480270  77.5858830 136.6578660   6.1176390  77.6943600 137.8923250
   5.0219350  72.6666180 140.1759850   4.3334870  72.0047720 140.1109840
   5.7425370  72.2204450 140.6208310   5.6519750  69.2617810 126.2350110
   5.9322040  68.4185710 126.5909530   4.8785480  69.4940920 126.7488860
   2.3548210  85.4825570 126.2983910   3.2499000  85.8210540 126.3202670
   2.3865840  84.7604980 125.6708190   9.3342560  84.0129240 139.0050110
   8.7344550  84.0721800 138.2614030   9.4636460  83.0734220 139.1346960
  10.5744010  81.7547060 124.3419820   9.7436970  81.8223710 124.8127050
  10.7515840  82.6451180 124.0386680  10.0300470  78.4994540 126.8454020
  10.7919380  79.0691190 126.9513710  10.0454840  77.9321740 127.6162330
  11.0360440  79.3544640 131.6895950  11.4069270  78.5711960 131.2831920
  11.6762370  80.0433740 131.5113250   8.0194200  80.7381220 137.1026270
   7.2054040  81.1678380 137.3652060   8.4268400  81.3499630 136.4895320
  10.0819640  78.7928910 124.0026540  10.3568480  79.7007790 123.8745760
   9.8930380  78.7291440 124.9388530   6.4795250  71.8173760 125.2980170
   6.8980130  71.6304740 124.4576830   6.1731310  70.9652810 125.6083100
   9.9784980  76.7297900 128.9955970   9.6028580  75.9625830 128.5637260
   9.2488100  77.1120600 129.4830900   9.3684600  75.8769420 138.6295490
   9.1370690  75.6482170 137.7293440   9.6289150  76.7968970 138.5840380
   7.8072670  71.1025850 141.4075190   8.6842850  71.1109250 141.7909190
   7.8193510  70.3656690 140.7967540   9.2535940  74.9555390 132.2963210
   9.7773420  74.4618040 131.6653380   9.8395360  75.0905750 133.0410780
   9.4325660  75.0395260 135.8182760   8.4828370  75.0058800 135.9327750
   9.6138670  75.9495370 135.5832530   8.7435910  74.2128740 128.2355620
   9.2395030  73.9799610 129.0204500   8.5451980  73.3740580 127.8193260
  10.1723070  72.8489690 130.7693300  10.0622350  72.6945730 131.7075570
  10.9330660  72.3210630 130.5268710   8.5188790  68.7883820 137.2276300
   9.1561010  69.4017960 137.5935490   8.6663680  68.8244480 136.2825530
  11.0613340  70.6797610 124.0099440  11.9862650  70.5478790 123.8017730
  11.0389130  70.7590430 124.9635890  11.1351830  71.4508270 126.6356150
  10.3403330  71.3853390 127.1649060  11.3395110  72.3858910 126.6241500
   8.0770250  85.4899820 130.6294540   8.6729320  85.1684390 129.9528960
   8.3348400  85.0171640 131.4207810   1.8893270  69.9410010 140.1351400
   1.8282160  70.5331840 140.8846810   2.8293650  69.8335970 139.9901660
   4.5267830  69.5980070 139.7743690   5.1408240  69.9159360 139.1124770
   5.0717390  69.1128660 140.3939550  10.9443010  85.4971700 137.1805530
  10.4501290  85.8940570 136.4632660  10.3356300  84.8720910 137.5742810
   5.2675870  68.1612210 136.1012980   4.3935710  68.4947320 135.8985910
   5.1586620  67.6885390 136.9264850   6.1747850  70.3683080 137.4854700
   5.8461210  69.5534840 137.1056430   7.1230150  70.3252890 137.3620390
   8.6282460  86.1395120 134.4592270   8.1685430  86.8910930 134.0850290
   7.9994920  85.4201590 134.4007070   1.7973680  85.3391850 134.4609380
   2.0851490  85.0846150 133.5842390   2.3096900  84.7869210 135.0514950
   3.0150690  69.0782050 135.0405890   2.2322480  69.5527550 135.3202650
   2.7213620  68.1736880 134.9319070   7.5671760  69.7805150 133.0854980
   8.0079850  69.7250250 132.2376580   7.2979350  70.6963160 133.1565160
   9.4310330  69.4120390 131.0963800   9.3698730  68.4681610 130.9494820
  10.2102360  69.5200480 131.6417260   5.4029890  68.1611250 131.7904990
   6.0059260  68.7331460 132.2653510   4.6622880  68.7250690 131.5678890
   8.5464490  68.5632810 127.0645270   8.7415120  69.4616260 127.3312700
   7.7594360  68.3319890 127.5578220   1.8646040  86.2607950 141.8277580
   2.7913350  86.0252220 141.8713540   1.8496470  87.0879950 141.3463610
  10.0991100  85.8033520 128.8251830  10.2743290  85.1171260 128.1812750
   9.4012670  86.3280570 128.4328500   5.6525110  68.3406280 142.1699930
   5.5390560  68.6600890 143.0651450   6.4694850  68.7418790 141.8737210
   8.4323600  85.4877810 141.6518620   9.2248920  84.9927040 141.4444580
   8.7256750  86.1667950 142.2594230   4.5583260  76.3598750 112.5334670
   4.4777310  75.4453360 112.2626380   4.1447680  76.8565820 111.8274380
   2.6901300  78.1377770 114.4143940   1.9143400  77.6578210 114.7042510
   3.3414230  77.4583420 114.2400100   6.7108730  82.5437960 113.1943070
   6.2490260  81.7725200 113.5230240   7.5234280  82.5704030 113.6995520
   2.9372040  84.8295970 112.8147060   2.3183480  85.2853470 112.2441500
   3.7923820  84.9847430 112.4136760   2.1310290  80.8134960 114.4214100
   2.0618570  79.8724900 114.2603230   2.8930150  80.9036370 114.9936670
   3.1615460  73.6205340 114.6483030   3.5380280  72.7477220 114.5356700
   3.0634970  73.9564040 113.7573470   6.9439580  71.1155780 111.5811370
   7.7649200  70.6252350 111.6236850   6.9773660  71.7053440 112.3343210
  11.2339130  73.1322530 118.1455000  10.5291300  73.5204240 117.6270110
  11.4997050  73.8272820 118.7475930   3.8035390  79.7135210 110.2078970
   3.1852660  80.1784660 109.6441690   4.3158640  80.4062690 110.6248480
   7.1801060  73.0556160 114.3538910   6.4756630  73.3441050 114.9342020
   7.5413220  73.8656270 113.9938470   8.7963840  82.6731290 116.6166390
   8.1127360  83.3430400 116.6083060   9.3358130  82.8711940 115.8511250
  10.2487980  72.5010950 114.7448120   9.3012890  72.5349930 114.8763550
  10.5737970  73.3149900 115.1297480   6.3322580  84.5175420 115.3311570
   6.3449740  84.1137710 114.4633830   5.7797800  85.2922710 115.2273000
   7.6268000  81.2391640 110.4201740   7.5164330  80.2965970 110.5451160
   7.6236250  81.6007280 111.3064500   5.7308020  79.4205260 116.6594180
   6.1476810  79.2065370 115.8247640   6.4547840  79.6778050 117.2302800
   3.1688280  76.8656960 109.7764230   2.2417560  76.7994340 110.0052700
   3.3213100  77.8037090 109.6619470   3.1557360  73.1373960 106.7731390
   2.2161030  73.2987920 106.8583850   3.4740620  73.8559640 106.2267380
   9.6770120  77.8192480 116.7510420   8.8488750  77.8885570 116.2760550
  10.2720600  78.4046790 116.2826250   7.1985570  78.4277260 110.2799480
   6.5797990  78.0896810 109.6325780   7.1810020  77.7837020 110.9878670
   6.6412130  74.6061800 117.6965290   6.2283310  75.4315510 117.9505280
   5.9088080  74.0206840 117.5041650   7.3312230  84.6521130 118.3846270
   6.8542790  85.4593320 118.1918880   6.6474020  83.9999460 118.5372480
   5.3750270  77.6664070 107.2872230   5.8143550  76.8286500 107.1410050
   6.0878690  78.2993470 107.3736370   3.4845650  82.6060140 111.2553470
   3.9241560  83.3484470 110.8408860   3.4232540  82.8486710 112.1792430
   8.9567410  68.9206880 105.6013270   8.6440070  69.0133710 106.5012340
   9.7179880  69.4987910 105.5510700  10.9111440  84.4133070 123.4537660
  11.3871160  84.8915960 124.1326740  11.5318600  84.3450560 122.7283160
  10.3144690  81.6045920 120.6137670  10.4407750  81.3657800 119.6954850
  10.3566070  80.7730460 121.0859750   4.1761430  85.3073920 119.1832480
   4.6906100  85.2181930 119.9854910   3.3330510  85.6533620 119.4760390
   6.1515830  85.5929260 108.6116480   5.9916970  85.3032200 109.5098310
   5.9862540  84.8169390 108.0761710   5.8541960  83.1016820 107.1714480
   5.1607120  83.0994110 106.5116760   6.5964820  82.6776140 106.7408650
   5.4191890  84.7279530 111.2462970   5.8748840  83.9468910 111.5601590
   5.7584410  85.4386350 111.7904150  10.1668700  73.6578380 121.5787410
   9.5512970  74.1658050 121.0502870   9.8465120  72.7576710 121.5213350
   2.2283020  72.4970270 119.0449600   1.7662390  72.7053290 119.8569540
   1.8261130  71.6829620 118.7420270   7.2287530  73.7179220 120.1746260
   6.3781120  73.4184970 120.4955330   7.0689320  73.9621230 119.2630080
   4.3237240  75.2180970 122.2745050   4.6490650  74.3844720 121.9347280
   5.1117570  75.7409490 122.4223380   4.9625190  74.7598690 109.7686180
   4.3634080  75.4834490 109.5849800   5.5104800  74.6975470 108.9862630
   3.5690060  73.3962230 111.7989460   3.9619630  73.7134430 110.9858150
   3.9306910  72.5174110 111.9133980   4.1545200  75.9867980 115.8940240
   3.4226320  76.4954790 116.2430340   3.7569540  75.1697960 115.5929020
   4.6171110  71.4401660 115.3063180   4.6343850  71.8910310 116.1505030
   4.3686690  70.5407300 115.5196620   8.0441860  68.8533840 121.1449560
   8.3687630  68.1223500 121.6707540   8.0798370  68.5347480 120.2430550
   7.9699700  78.9658950 114.7535590   8.6898820  79.4614240 114.3631700
   7.7681520  78.2876840 114.1089460   3.4309640  70.3596910 108.8964980
   2.6174250  69.8610080 108.8210290   3.2371590  71.1995160 108.4801330
   3.3518500  79.0368010 120.6404590   3.2855810  78.1163680 120.3862180
   2.7223640  79.1343450 121.3549230   6.1458030  74.7316560 107.1927140
   7.0337650  75.0433790 107.0178480   6.1163120  73.8588810 106.8007720
   2.1418620  80.9040250 107.8715310   2.4834320  81.6482480 107.3758630
   1.3131330  81.2171370 108.2340140   3.2835230  81.8588580 120.3908390
   3.2979770  80.9269540 120.1727300   2.5760330  81.9448340 121.0298160
   8.4172300  76.0428400 106.6607000   8.3336020  76.4742620 105.8103440
   9.1366490  76.5026750 107.0933820   9.4946440  78.4995920 119.7376970
   8.7694630  79.0924700 119.5406360  10.0221900  78.4919460 118.9390340
   9.4459550  82.8970660 109.3889130   8.8035710  82.2426280 109.6632850
   9.0590210  83.3025750 108.6129800   5.0246030  80.2256090 113.2360820
   5.3769850  79.6284220 112.5762190   4.1408360  79.9000320 113.4069070
   2.7169130  83.5006150 117.4848890   3.3611350  83.7065530 118.1622310
   3.0798570  82.7394550 117.0319740   3.9901210  81.5038500 116.2026340
   4.6323440  80.8031660 116.3158510   4.5150560  82.2836940 116.0223230
   7.8356930  81.7887120 105.9265480   7.6094510  81.0717560 106.5190120
   7.4453130  81.5399560 105.0887230   5.7638830  82.3033400 119.4062400
   6.0995070  82.8900090 120.0840320   4.8439170  82.1726110 119.6360190
   7.4173180  79.7059060 107.5879640   7.1294880  80.1671750 108.3757520
   8.2125350  79.2456830 107.8563860   4.8081010  72.5850890 117.9387260
   5.1761830  71.7646100 118.2666830   3.9479210  72.6452780 118.3542910
   8.1743040  71.5407830 108.7474820   7.5456200  71.6453500 108.0333050
   7.6794960  71.7604610 109.5368700   2.6201180  83.2613420 106.1808800
   2.7213160  83.0577410 105.2510780   1.7202920  83.0071700 106.3856580
   1.7683000  75.2390480 118.1625230   2.2668250  75.7136300 118.8277080
   1.9105950  74.3154000 118.3695260   4.1742500  70.5444440 111.6028490
   4.0510280  70.5630570 110.6538000   5.1227060  70.5923380 111.7226890
   8.9749860  71.4558440 119.0053620   8.4723460  72.1963840 119.3447430
   9.7906520  71.8442440 118.6890410   7.2671870  76.6991620 112.4514980
   6.3262010  76.7141850 112.6262670   7.5815940  75.9127580 112.8975280
   9.2697450  83.8700470 114.1269240   9.3944870  84.6931640 114.5993050
  10.1363010  83.6591200 113.7793390   4.5837890  81.2557620 122.9347360
   3.9776050  81.2789220 122.1943110   4.2792000  80.5240660 123.4714610
   6.0138260  84.9837910 121.5456770   6.9660010  84.8995930 121.4957010
   5.8666480  85.6479620 122.2190560   8.9047460  84.3632120 107.0448680
   8.6188970  83.9497260 106.2302860   8.7067010  85.2919830 106.9249200
   3.6097420  79.4185430 106.0896280   3.0607520  79.8654730 106.7339020
   4.2316680  78.9134680 106.6133950   7.6632360  80.7727530 122.0218540
   8.4041830  81.1103290 121.5186000   6.9005040  80.9419590 121.4688310
   1.7900180  77.4013960 105.2338680   2.3105840  76.6862980 104.8679830
   2.4368580  78.0399830 105.5339190   6.3378020  78.8242360 120.5573750
   6.7519040  78.9787440 121.4064170   5.4029020  78.9497580 120.7199530
   6.8100190  76.1638520 122.5612900   7.3920960  75.4090840 122.4733380
   6.9861960  76.6945960 121.7844380   3.4357150  76.5079020 119.9107520
   3.5553360  75.9120160 120.6502360   4.2951150  76.5448710 119.4908820
   5.7745050  77.0616210 118.4870030   5.2480270  77.5858830 117.8835170
   6.1176390  77.6943600 119.1179760   5.0219350  72.6666180 121.4016360
   4.3334870  72.0047720 121.3366350   5.7425370  72.2204450 121.8464820
   5.6519750  69.2617810 107.4606620   5.9322040  68.4185710 107.8166040
   4.8785480  69.4940920 107.9745370   2.3548210  85.4825570 107.5240420
   3.2499000  85.8210540 107.5459180   2.3865840  84.7604980 106.8964700
   9.3342560  84.0129240 120.2306620   8.7344550  84.0721800 119.4870540
   9.4636460  83.0734220 120.3603470  10.5744010  81.7547060 105.5676330
   9.7436970  81.8223710 106.0383560  10.7515840  82.6451180 105.2643190
  10.0300470  78.4994540 108.0710530  10.7919380  79.0691190 108.1770220
  10.0454840  77.9321740 108.8418840  11.0360440  79.3544640 112.9152460
  11.4069270  78.5711960 112.5088430  11.6762370  80.0433740 112.7369760
   8.0194200  80.7381220 118.3282780   7.2054040  81.1678380 118.5908570
   8.4268400  81.3499630 117.7151830  10.0819640  78.7928910 105.2283050
  10.3568480  79.7007790 105.1002270   9.8930380  78.7291440 106.1645040
   6.4795250  71.8173760 106.5236680   6.8980130  71.6304740 105.6833340
   6.1731310  70.9652810 106.8339610   9.9784980  76.7297900 110.2212480
   9.6028580  75.9625830 109.7893770   9.2488100  77.1120600 110.7087410
   9.3684600  75.8769420 119.8552000   9.1370690  75.6482170 118.9549950
   9.6289150  76.7968970 119.8096890   7.8072670  71.1025850 122.6331700
   8.6842850  71.1109250 123.0165700   7.8193510  70.3656690 122.0224050
   9.2535940  74.9555390 113.5219720   9.7773420  74.4618040 112.8909890
   9.8395360  75.0905750 114.2667290   9.4325660  75.0395260 117.0439270
   8.4828370  75.0058800 117.1584260   9.6138670  75.9495370 116.8089040
   8.7435910  74.2128740 109.4612130   9.2395030  73.9799610 110.2461010
   8.5451980  73.3740580 109.0449770  10.1723070  72.8489690 111.9949810
  10.0622350  72.6945730 112.9332080  10.9330660  72.3210630 111.7525220
   8.5188790  68.7883820 118.4532810   9.1561010  69.4017960 118.8192000
   8.6663680  68.8244480 117.5082040  11.0613340  70.6797610 105.2355950
  11.9862650  70.5478790 105.0274240  11.0389130  70.7590430 106.1892400
  11.1351830  71.4508270 107.8612660  10.3403330  71.3853390 108.3905570
  11.3395110  72.3858910 107.8498010   8.0770250  85.4899820 111.8551050
   8.6729320  85.1684390 111.1785470   8.3348400  85.0171640 112.6464320
   1.8893270  69.9410010 121.3607910   1.8282160  70.5331840 122.1103320
   2.8293650  69.8335970 121.2158170   4.5267830  69.5980070 121.0000200
   5.1408240  69.9159360 120.3381280   5.0717390  69.1128660 121.6196060
  10.9443010  85.4971700 118.4062040  10.4501290  85.8940570 117.6889170
  10.3356300  84.8720910 118.7999320   5.2675870  68.1612210 117.3269490
   4.3935710  68.4947320 117.1242420   5.1586620  67.6885390 118.1521360
   6.1747850  70.3683080 118.7111210   5.8461210  69.5534840 118.3312940
   7.1230150  70.3252890 118.5876900   8.6282460  86.1395120 115.6848780
   8.1685430  86.8910930 115.3106800   7.9994920  85.4201590 115.6263580
   1.7973680  85.3391850 115.6865890   2.0851490  85.0846150 114.8098900
   2.3096900  84.7869210 116.2771460   3.0150690  69.0782050 116.2662400
   2.2322480  69.5527550 116.5459160   2.7213620  68.1736880 116.1575580
   7.5671760  69.7805150 114.3111490   8.0079850  69.7250250 113.4633090
   7.2979350  70.6963160 114.3821670   9.4310330  69.4120390 112.3220310
   9.3698730  68.4681610 112.1751330  10.2102360  69.5200480 112.8673770
   5.4029890  68.1611250 113.0161500   6.0059260  68.7331460 113.4910020
   4.6622880  68.7250690 112.7935400   8.5464490  68.5632810 108.2901780
   8.7415120  69.4616260 108.5569210   7.7594360  68.3319890 108.7834730
   1.8646040  86.2607950 123.0534090   2.7913350  86.0252220 123.0970050
   1.8496470  87.0879950 122.5720120  10.0991100  85.8033520 110.0508340
  10.2743290  85.1171260 109.4069260   9.4012670  86.3280570 109.6585010
   5.6525110  68.3406280 123.3956440   5.5390560  68.6600890 124.2907960
   6.4694850  68.7418790 123.0993720   8.4323600  85.4877810 122.8775130
   9.2248920  84.9927040 122.6701090   8.7256750  86.1667950 123.4850740
   4.5583260  76.3598750  93.7591180   4.4777310  75.4453360  93.4882890
   4.1447680  76.8565820  93.0530890   2.6901300  78.1377770  95.6400450
   1.9143400  77.6578210  95.9299020   3.3414230  77.4583420  95.4656610
   6.7108730  82.5437960  94.4199580   6.2490260  81.7725200  94.7486750
   7.5234280  82.5704030  94.9252030   2.9372040  84.8295970  94.0403570
   2.3183480  85.2853470  93.4698010   3.7923820  84.9847430  93.6393270
   2.1310290  80.8134960  95.6470610   2.0618570  79.8724900  95.4859740
   2.8930150  80.9036370  96.2193180   3.1615460  73.6205340  95.8739540
   3.5380280  72.7477220  95.7613210   3.0634970  73.9564040  94.9829980
   6.9439580  71.1155780  92.8067880   7.7649200  70.6252350  92.8493360
   6.9773660  71.7053440  93.5599720  11.2339130  73.1322530  99.3711510
  10.5291300  73.5204240  98.8526620  11.4997050  73.8272820  99.9732440
   3.8035390  79.7135210  91.4335480   3.1852660  80.1784660  90.8698200
   4.3158640  80.4062690  91.8504990   7.1801060  73.0556160  95.5795420
   6.4756630  73.3441050  96.1598530   7.5413220  73.8656270  95.2194980
   8.7963840  82.6731290  97.8422900   8.1127360  83.3430400  97.8339570
   9.3358130  82.8711940  97.0767760  10.2487980  72.5010950  95.9704630
   9.3012890  72.5349930  96.1020060  10.5737970  73.3149900  96.3553990
   6.3322580  84.5175420  96.5568080   6.3449740  84.1137710  95.6890340
   5.7797800  85.2922710  96.4529510   7.6268000  81.2391640  91.6458250
   7.5164330  80.2965970  91.7707670   7.6236250  81.6007280  92.5321010
   5.7308020  79.4205260  97.8850690   6.1476810  79.2065370  97.0504150
   6.4547840  79.6778050  98.4559310   3.1688280  76.8656960  91.0020740
   2.2417560  76.7994340  91.2309210   3.3213100  77.8037090  90.8875980
   3.1557360  73.1373960  87.9987900   2.2161030  73.2987920  88.0840360
   3.4740620  73.8559640  87.4523890   9.6770120  77.8192480  97.9766930
   8.8488750  77.8885570  97.5017060  10.2720600  78.4046790  97.5082760
   7.1985570  78.4277260  91.5055990   6.5797990  78.0896810  90.8582290
   7.1810020  77.7837020  92.2135180   6.6412130  74.6061800  98.9221800
   6.2283310  75.4315510  99.1761790   5.9088080  74.0206840  98.7298160
   7.3312230  84.6521130  99.6102780   6.8542790  85.4593320  99.4175390
   6.6474020  83.9999460  99.7628990   5.3750270  77.6664070  88.5128740
   5.8143550  76.8286500  88.3666560   6.0878690  78.2993470  88.5992880
   3.4845650  82.6060140  92.4809980   3.9241560  83.3484470  92.0665370
   3.4232540  82.8486710  93.4048940   8.9567410  68.9206880  86.8269780
   8.6440070  69.0133710  87.7268850   9.7179880  69.4987910  86.7767210
  10.9111440  84.4133070 104.6794170  11.3871160  84.8915960 105.3583250
  11.5318600  84.3450560 103.9539670  10.3144690  81.6045920 101.8394180
  10.4407750  81.3657800 100.9211360  10.3566070  80.7730460 102.3116260
   4.1761430  85.3073920 100.4088990   4.6906100  85.2181930 101.2111420
   3.3330510  85.6533620 100.7016900   6.1515830  85.5929260  89.8372990
   5.9916970  85.3032200  90.7354820   5.9862540  84.8169390  89.3018220
   5.8541960  83.1016820  88.3970990   5.1607120  83.0994110  87.7373270
   6.5964820  82.6776140  87.9665160   5.4191890  84.7279530  92.4719480
   5.8748840  83.9468910  92.7858100   5.7584410  85.4386350  93.0160660
  10.1668700  73.6578380 102.8043920   9.5512970  74.1658050 102.2759380
   9.8465120  72.7576710 102.7469860   2.2283020  72.4970270 100.2706110
   1.7662390  72.7053290 101.0826050   1.8261130  71.6829620  99.9676780
   7.2287530  73.7179220 101.4002770   6.3781120  73.4184970 101.7211840
   7.0689320  73.9621230 100.4886590   4.3237240  75.2180970 103.5001560
   4.6490650  74.3844720 103.1603790   5.1117570  75.7409490 103.6479890
   4.9625190  74.7598690  90.9942690   4.3634080  75.4834490  90.8106310
   5.5104800  74.6975470  90.2119140   3.5690060  73.3962230  93.0245970
   3.9619630  73.7134430  92.2114660   3.9306910  72.5174110  93.1390490
   4.1545200  75.9867980  97.1196750   3.4226320  76.4954790  97.4686850
   3.7569540  75.1697960  96.8185530   4.6171110  71.4401660  96.5319690
   4.6343850  71.8910310  97.3761540   4.3686690  70.5407300  96.7453130
   8.0441860  68.8533840 102.3706070   8.3687630  68.1223500 102.8964050
   8.0798370  68.5347480 101.4687060   7.9699700  78.9658950  95.9792100
   8.6898820  79.4614240  95.5888210   7.7681520  78.2876840  95.3345970
   3.4309640  70.3596910  90.1221490   2.6174250  69.8610080  90.0466800
   3.2371590  71.1995160  89.7057840   3.3518500  79.0368010 101.8661100
   3.2855810  78.1163680 101.6118690   2.7223640  79.1343450 102.5805740
   6.1458030  74.7316560  88.4183650   7.0337650  75.0433790  88.2434990
   6.1163120  73.8588810  88.0264230   2.1418620  80.9040250  89.0971820
   2.4834320  81.6482480  88.6015140   1.3131330  81.2171370  89.4596650
   3.2835230  81.8588580 101.6164900   3.2979770  80.9269540 101.3983810
   2.5760330  81.9448340 102.2554670   8.4172300  76.0428400  87.8863510
   8.3336020  76.4742620  87.0359950   9.1366490  76.5026750  88.3190330
   9.4946440  78.4995920 100.9633480   8.7694630  79.0924700 100.7662870
  10.0221900  78.4919460 100.1646850   9.4459550  82.8970660  90.6145640
   8.8035710  82.2426280  90.8889360   9.0590210  83.3025750  89.8386310
   5.0246030  80.2256090  94.4617330   5.3769850  79.6284220  93.8018700
   4.1408360  79.9000320  94.6325580   2.7169130  83.5006150  98.7105400
   3.3611350  83.7065530  99.3878820   3.0798570  82.7394550  98.2576250
   3.9901210  81.5038500  97.4282850   4.6323440  80.8031660  97.5415020
   4.5150560  82.2836940  97.2479740   7.8356930  81.7887120  87.1521990
   7.6094510  81.0717560  87.7446630   7.4453130  81.5399560  86.3143740
   5.7638830  82.3033400 100.6318910   6.0995070  82.8900090 101.3096830
   4.8439170  82.1726110 100.8616700   7.4173180  79.7059060  88.8136150
   7.1294880  80.1671750  89.6014030   8.2125350  79.2456830  89.0820370
   4.8081010  72.5850890  99.1643770   5.1761830  71.7646100  99.4923340
   3.9479210  72.6452780  99.5799420   8.1743040  71.5407830  89.9731330
   7.5456200  71.6453500  89.2589560   7.6794960  71.7604610  90.7625210
   2.6201180  83.2613420  87.4065310   2.7213160  83.0577410  86.4767290
   1.7202920  83.0071700  87.6113090   1.7683000  75.2390480  99.3881740
   2.2668250  75.7136300 100.0533590   1.9105950  74.3154000  99.5951770
   4.1742500  70.5444440  92.8285000   4.0510280  70.5630570  91.8794510
   5.1227060  70.5923380  92.9483400   8.9749860  71.4558440 100.2310130
   8.4723460  72.1963840 100.5703940   9.7906520  71.8442440  99.9146920
   7.2671870  76.6991620  93.6771490   6.3262010  76.7141850  93.8519180
   7.5815940  75.9127580  94.1231790   9.2697450  83.8700470  95.3525750
   9.3944870  84.6931640  95.8249560  10.1363010  83.6591200  95.0049900
   4.5837890  81.2557620 104.1603870   3.9776050  81.2789220 103.4199620
   4.2792000  80.5240660 104.6971120   6.0138260  84.9837910 102.7713280
   6.9660010  84.8995930 102.7213520   5.8666480  85.6479620 103.4447070
   8.9047460  84.3632120  88.2705190   8.6188970  83.9497260  87.4559370
   8.7067010  85.2919830  88.1505710   3.6097420  79.4185430  87.3152790
   3.0607520  79.8654730  87.9595530   4.2316680  78.9134680  87.8390460
   7.6632360  80.7727530 103.2475050   8.4041830  81.1103290 102.7442510
   6.9005040  80.9419590 102.6944820   1.7900180  77.4013960  86.4595190
   2.3105840  76.6862980  86.0936340   2.4368580  78.0399830  86.7595700
   6.3378020  78.8242360 101.7830260   6.7519040  78.9787440 102.6320680
   5.4029020  78.9497580 101.9456040   6.8100190  76.1638520 103.7869410
   7.3920960  75.4090840 103.6989890   6.9861960  76.6945960 103.0100890
   3.4357150  76.5079020 101.1364030   3.5553360  75.9120160 101.8758870
   4.2951150  76.5448710 100.7165330   5.7745050  77.0616210  99.7126540
   5.2480270  77.5858830  99.1091680   6.1176390  77.6943600 100.3436270
   5.0219350  72.6666180 102.6272870   4.3334870  72.0047720 102.5622860
   5.7425370  72.2204450 103.0721330   5.6519750  69.2617810  88.6863130
   5.9322040  68.4185710  89.0422550   4.8785480  69.4940920  89.2001880
   2.3548210  85.4825570  88.7496930   3.2499000  85.8210540  88.7715690
   2.3865840  84.7604980  88.1221210   9.3342560  84.0129240 101.4563130
   8.7344550  84.0721800 100.7127050   9.4636460  83.0734220 101.5859980
  10.5744010  81.7547060  86.7932840   9.7436970  81.8223710  87.2640070
  10.7515840  82.6451180  86.4899700  10.0300470  78.4994540  89.2967040
  10.7919380  79.0691190  89.4026730  10.0454840  77.9321740  90.0675350
  11.0360440  79.3544640  94.1408970  11.4069270  78.5711960  93.7344940
  11.6762370  80.0433740  93.9626270   8.0194200  80.7381220  99.5539290
   7.2054040  81.1678380  99.8165080   8.4268400  81.3499630  98.9408340
  10.0819640  78.7928910  86.4539560  10.3568480  79.7007790  86.3258780
   9.8930380  78.7291440  87.3901550   6.4795250  71.8173760  87.7493190
   6.8980130  71.6304740  86.9089850   6.1731310  70.9652810  88.0596120
   9.9784980  76.7297900  91.4468990   9.6028580  75.9625830  91.0150280
   9.2488100  77.1120600  91.9343920   9.3684600  75.8769420 101.0808510
   9.1370690  75.6482170 100.1806460   9.6289150  76.7968970 101.0353400
   7.8072670  71.1025850 103.8588210   8.6842850  71.1109250 104.2422210
   7.8193510  70.3656690 103.2480560   9.2535940  74.9555390  94.7476230
   9.7773420  74.4618040  94.1166400   9.8395360  75.0905750  95.4923800
   9.4325660  75.0395260  98.2695780   8.4828370  75.0058800  98.3840770
   9.6138670  75.9495370  98.0345550   8.7435910  74.2128740  90.6868640
   9.2395030  73.9799610  91.4717520   8.5451980  73.3740580  90.2706280
  10.1723070  72.8489690  93.2206320  10.0622350  72.6945730  94.1588590
  10.9330660  72.3210630  92.9781730   8.5188790  68.7883820  99.6789320
   9.1561010  69.4017960 100.0448510   8.6663680  68.8244480  98.7338550
  11.0613340  70.6797610  86.4612460  11.9862650  70.5478790  86.2530750
  11.0389130  70.7590430  87.4148910  11.1351830  71.4508270  89.0869170
  10.3403330  71.3853390  89.6162080  11.3395110  72.3858910  89.0754520
   8.0770250  85.4899820  93.0807560   8.6729320  85.1684390  92.4041980
   8.3348400  85.0171640  93.8720830   1.8893270  69.9410010 102.5864420
   1.8282160  70.5331840 103.3359830   2.8293650  69.8335970 102.4414680
   4.5267830  69.5980070 102.2256710   5.1408240  69.9159360 101.5637790
   5.0717390  69.1128660 102.8452570  10.9443010  85.4971700  99.6318550
  10.4501290  85.8940570  98.9145680  10.3356300  84.8720910 100.0255830
   5.2675870  68.1612210  98.5526000   4.3935710  68.4947320  98.3498930
   5.1586620  67.6885390  99.3777870   6.1747850  70.3683080  99.9367720
   5.8461210  69.5534840  99.5569450   7.1230150  70.3252890  99.8133410
   8.6282460  86.1395120  96.9105290   8.1685430  86.8910930  96.5363310
   7.9994920  85.4201590  96.8520090   1.7973680  85.3391850  96.9122400
   2.0851490  85.0846150  96.0355410   2.3096900  84.7869210  97.5027970
   3.0150690  69.0782050  97.4918910   2.2322480  69.5527550  97.7715670
   2.7213620  68.1736880  97.3832090   7.5671760  69.7805150  95.5368000
   8.0079850  69.7250250  94.6889600   7.2979350  70.6963160  95.6078180
   9.4310330  69.4120390  93.5476820   9.3698730  68.4681610  93.4007840
  10.2102360  69.5200480  94.0930280   5.4029890  68.1611250  94.2418010
   6.0059260  68.7331460  94.7166530   4.6622880  68.7250690  94.0191910
   8.5464490  68.5632810  89.5158290   8.7415120  69.4616260  89.7825720
   7.7594360  68.3319890  90.0091240   1.8646040  86.2607950 104.2790600
   2.7913350  86.0252220 104.3226560   1.8496470  87.0879950 103.7976630
  10.0991100  85.8033520  91.2764850  10.2743290  85.1171260  90.6325770
   9.4012670  86.3280570  90.8841520   5.6525110  68.3406280 104.6212950
   5.5390560  68.6600890 105.5164470   6.4694850  68.7418790 104.3250230
   8.4323600  85.4877810 104.1031640   9.2248920  84.9927040 103.8957600
   8.7256750  86.1667950 104.7107250   4.5583260  76.3598750  74.9847690
   4.4777310  75.4453360  74.7139400   4.1447680  76.8565820  74.2787400
   2.6901300  78.1377770  76.8656960   1.9143400  77.6578210  77.1555530
   3.3414230  77.4583420  76.6913120   6.7108730  82.5437960  75.6456090
   6.2490260  81.7725200  75.9743260   7.5234280  82.5704030  76.1508540
   2.9372040  84.8295970  75.2660080   2.3183480  85.2853470  74.6954520
   3.7923820  84.9847430  74.8649780   2.1310290  80.8134960  76.8727120
   2.0618570  79.8724900  76.7116250   2.8930150  80.9036370  77.4449690
   3.1615460  73.6205340  77.0996050   3.5380280  72.7477220  76.9869720
   3.0634970  73.9564040  76.2086490   6.9439580  71.1155780  74.0324390
   7.7649200  70.6252350  74.0749870   6.9773660  71.7053440  74.7856230
  11.2339130  73.1322530  80.5968020  10.5291300  73.5204240  80.0783130
  11.4997050  73.8272820  81.1988950   3.8035390  79.7135210  72.6591990
   3.1852660  80.1784660  72.0954710   4.3158640  80.4062690  73.0761500
   7.1801060  73.0556160  76.8051930   6.4756630  73.3441050  77.3855040
   7.5413220  73.8656270  76.4451490   8.7963840  82.6731290  79.0679410
   8.1127360  83.3430400  79.0596080   9.3358130  82.8711940  78.3024270
  10.2487980  72.5010950  77.1961140   9.3012890  72.5349930  77.3276570
  10.5737970  73.3149900  77.5810500   6.3322580  84.5175420  77.7824590
   6.3449740  84.1137710  76.9146850   5.7797800  85.2922710  77.6786020
   7.6268000  81.2391640  72.8714760   7.5164330  80.2965970  72.9964180
   7.6236250  81.6007280  73.7577520   5.7308020  79.4205260  79.1107200
   6.1476810  79.2065370  78.2760660   6.4547840  79.6778050  79.6815820
   3.1688280  76.8656960  72.2277250   2.2417560  76.7994340  72.4565720
   3.3213100  77.8037090  72.1132490   3.1557360  73.1373960  69.2244410
   2.2161030  73.2987920  69.3096870   3.4740620  73.8559640  68.6780400
   9.6770120  77.8192480  79.2023440   8.8488750  77.8885570  78.7273570
  10.2720600  78.4046790  78.7339270   7.1985570  78.4277260  72.7312500
   6.5797990  78.0896810  72.0838800   7.1810020  77.7837020  73.4391690
   6.6412130  74.6061800  80.1478310   6.2283310  75.4315510  80.4018300
   5.9088080  74.0206840  79.9554670   7.3312230  84.6521130  80.8359290
   6.8542790  85.4593320  80.6431900   6.6474020  83.9999460  80.9885500
   5.3750270  77.6664070  69.7385250   5.8143550  76.8286500  69.5923070
   6.0878690  78.2993470  69.8249390   3.4845650  82.6060140  73.7066490
   3.9241560  83.3484470  73.2921880   3.4232540  82.8486710  74.6305450
   8.9567410  68.9206880  68.0526290   8.6440070  69.0133710  68.9525360
   9.7179880  69.4987910  68.0023720  10.9111440  84.4133070  85.9050680
  11.3871160  84.8915960  86.5839760  11.5318600  84.3450560  85.1796180
  10.3144690  81.6045920  83.0650690  10.4407750  81.3657800  82.1467870
  10.3566070  80.7730460  83.5372770   4.1761430  85.3073920  81.6345500
   4.6906100  85.2181930  82.4367930   3.3330510  85.6533620  81.9273410
   6.1515830  85.5929260  71.0629500   5.9916970  85.3032200  71.9611330
   5.9862540  84.8169390  70.5274730   5.8541960  83.1016820  69.6227500
   5.1607120  83.0994110  68.9629780   6.5964820  82.6776140  69.1921670
   5.4191890  84.7279530  73.6975990   5.8748840  83.9468910  74.0114610
   5.7584410  85.4386350  74.2417170  10.1668700  73.6578380  84.0300430
   9.5512970  74.1658050  83.5015890   9.8465120  72.7576710  83.9726370
   2.2283020  72.4970270  81.4962620   1.7662390  72.7053290  82.3082560
   1.8261130  71.6829620  81.1933290   7.2287530  73.7179220  82.6259280
   6.3781120  73.4184970  82.9468350   7.0689320  73.9621230  81.7143100
   4.3237240  75.2180970  84.7258070   4.6490650  74.3844720  84.3860300
   5.1117570  75.7409490  84.8736400   4.9625190  74.7598690  72.2199200
   4.3634080  75.4834490  72.0362820   5.5104800  74.6975470  71.4375650
   3.5690060  73.3962230  74.2502480   3.9619630  73.7134430  73.4371170
   3.9306910  72.5174110  74.3647000   4.1545200  75.9867980  78.3453260
   3.4226320  76.4954790  78.6943360   3.7569540  75.1697960  78.0442040
   4.6171110  71.4401660  77.7576200   4.6343850  71.8910310  78.6018050
   4.3686690  70.5407300  77.9709640   8.0441860  68.8533840  83.5962580
   8.3687630  68.1223500  84.1220560   8.0798370  68.5347480  82.6943570
   7.9699700  78.9658950  77.2048610   8.6898820  79.4614240  76.8144720
   7.7681520  78.2876840  76.5602480   3.4309640  70.3596910  71.3478000
   2.6174250  69.8610080  71.2723310   3.2371590  71.1995160  70.9314350
   3.3518500  79.0368010  83.0917610   3.2855810  78.1163680  82.8375200
   2.7223640  79.1343450  83.8062250   6.1458030  74.7316560  69.6440160
   7.0337650  75.0433790  69.4691500   6.1163120  73.8588810  69.2520740
   2.1418620  80.9040250  70.3228330   2.4834320  81.6482480  69.8271650
   1.3131330  81.2171370  70.6853160   3.2835230  81.8588580  82.8421410
   3.2979770  80.9269540  82.6240320   2.5760330  81.9448340  83.4811180
   8.4172300  76.0428400  69.1120020   8.3336020  76.4742620  68.2616460
   9.1366490  76.5026750  69.5446840   9.4946440  78.4995920  82.1889990
   8.7694630  79.0924700  81.9919380  10.0221900  78.4919460  81.3903360
   9.4459550  82.8970660  71.8402150   8.8035710  82.2426280  72.1145870
   9.0590210  83.3025750  71.0642820   5.0246030  80.2256090  75.6873840
   5.3769850  79.6284220  75.0275210   4.1408360  79.9000320  75.8582090
   2.7169130  83.5006150  79.9361910   3.3611350  83.7065530  80.6135330
   3.0798570  82.7394550  79.4832760   3.9901210  81.5038500  78.6539360
   4.6323440  80.8031660  78.7671530   4.5150560  82.2836940  78.4736250
   7.8356930  81.7887120  68.3778500   7.6094510  81.0717560  68.9703140
   7.4453130  81.5399560  67.5400250   5.7638830  82.3033400  81.8575420
   6.0995070  82.8900090  82.5353340   4.8439170  82.1726110  82.0873210
   7.4173180  79.7059060  70.0392660   7.1294880  80.1671750  70.8270540
   8.2125350  79.2456830  70.3076880   4.8081010  72.5850890  80.3900280
   5.1761830  71.7646100  80.7179850   3.9479210  72.6452780  80.8055930
   8.1743040  71.5407830  71.1987840   7.5456200  71.6453500  70.4846070
   7.6794960  71.7604610  71.9881720   2.6201180  83.2613420  68.6321820
   2.7213160  83.0577410  67.7023800   1.7202920  83.0071700  68.8369600
   1.7683000  75.2390480  80.6138250   2.2668250  75.7136300  81.2790100
   1.9105950  74.3154000  80.8208280   4.1742500  70.5444440  74.0541510
   4.0510280  70.5630570  73.1051020   5.1227060  70.5923380  74.1739910
   8.9749860  71.4558440  81.4566640   8.4723460  72.1963840  81.7960450
   9.7906520  71.8442440  81.1403430   7.2671870  76.6991620  74.9028000
   6.3262010  76.7141850  75.0775690   7.5815940  75.9127580  75.3488300
   9.2697450  83.8700470  76.5782260   9.3944870  84.6931640  77.0506070
  10.1363010  83.6591200  76.2306410   4.5837890  81.2557620  85.3860380
   3.9776050  81.2789220  84.6456130   4.2792000  80.5240660  85.9227630
   6.0138260  84.9837910  83.9969790   6.9660010  84.8995930  83.9470030
   5.8666480  85.6479620  84.6703580   8.9047460  84.3632120  69.4961700
   8.6188970  83.9497260  68.6815880   8.7067010  85.2919830  69.3762220
   3.6097420  79.4185430  68.5409300   3.0607520  79.8654730  69.1852040
   4.2316680  78.9134680  69.0646970   7.6632360  80.7727530  84.4731560
   8.4041830  81.1103290  83.9699020   6.9005040  80.9419590  83.9201330
   1.7900180  77.4013960  67.6851700   2.3105840  76.6862980  67.3192850
   2.4368580  78.0399830  67.9852210   6.3378020  78.8242360  83.0086770
   6.7519040  78.9787440  83.8577190   5.4029020  78.9497580  83.1712550
   6.8100190  76.1638520  85.0125920   7.3920960  75.4090840  84.9246400
   6.9861960  76.6945960  84.2357400   3.4357150  76.5079020  82.3620540
   3.5553360  75.9120160  83.1015380   4.2951150  76.5448710  81.9421840
   5.7745050  77.0616210  80.9383050   5.2480270  77.5858830  80.3348190
   6.1176390  77.6943600  81.5692780   5.0219350  72.6666180  83.8529380
   4.3334870  72.0047720  83.7879370   5.7425370  72.2204450  84.2977840
   5.6519750  69.2617810  69.9119640   5.9322040  68.4185710  70.2679060
   4.8785480  69.4940920  70.4258390   2.3548210  85.4825570  69.9753440
   3.2499000  85.8210540  69.9972200   2.3865840  84.7604980  69.3477720
   9.3342560  84.0129240  82.6819640   8.7344550  84.0721800  81.9383560
   9.4636460  83.0734220  82.8116490  10.5744010  81.7547060  68.0189350
   9.7436970  81.8223710  68.4896580  10.7515840  82.6451180  67.7156210
  10.0300470  78.4994540  70.5223550  10.7919380  79.0691190  70.6283240
  10.0454840  77.9321740  71.2931860   8.0194200  80.7381220  80.7795800
   7.2054040  81.1678380  81.0421590   8.4268400  81.3499630  80.1664850
  10.0819640  78.7928910  67.6796070  10.3568480  79.7007790  67.5515290
   9.8930380  78.7291440  68.6158060   6.4795250  71.8173760  68.9749700
   6.8980130  71.6304740  68.1346360   6.1731310  70.9652810  69.2852630
   9.9784980  76.7297900  72.6725500   9.6028580  75.9625830  72.2406790
   9.2488100  77.1120600  73.1600430   9.3684600  75.8769420  82.3065020
   9.1370690  75.6482170  81.4062970   9.6289150  76.7968970  82.2609910
   7.8072670  71.1025850  85.0844720   8.6842850  71.1109250  85.4678720
   7.8193510  70.3656690  84.4737070   9.2535940  74.9555390  75.9732740
   9.7773420  74.4618040  75.3422910   9.8395360  75.0905750  76.7180310
   9.4325660  75.0395260  79.4952290   8.4828370  75.0058800  79.6097280
   9.6138670  75.9495370  79.2602060   8.7435910  74.2128740  71.9125150
   9.2395030  73.9799610  72.6974030   8.5451980  73.3740580  71.4962790
  10.1723070  72.8489690  74.4462830  10.0622350  72.6945730  75.3845100
  10.9330660  72.3210630  74.2038240   8.5188790  68.7883820  80.9045830
   9.1561010  69.4017960  81.2705020   8.6663680  68.8244480  79.9595060
  11.0613340  70.6797610  67.6868970  11.9862650  70.5478790  67.4787260
  11.0389130  70.7590430  68.6405420  11.1351830  71.4508270  70.3125680
  10.3403330  71.3853390  70.8418590  11.3395110  72.3858910  70.3011030
   8.0770250  85.4899820  74.3064070   8.6729320  85.1684390  73.6298490
   8.3348400  85.0171640  75.0977340   1.8893270  69.9410010  83.8120930
   1.8282160  70.5331840  84.5616340   2.8293650  69.8335970  83.6671190
   4.5267830  69.5980070  83.4513220   5.1408240  69.9159360  82.7894300
   5.0717390  69.1128660  84.0709080  10.9443010  85.4971700  80.8575060
  10.4501290  85.8940570  80.1402190  10.3356300  84.8720910  81.2512340
   5.2675870  68.1612210  79.7782510   4.3935710  68.4947320  79.5755440
   5.1586620  67.6885390  80.6034380   6.1747850  70.3683080  81.1624230
   5.8461210  69.5534840  80.7825960   7.1230150  70.3252890  81.0389920
   8.6282460  86.1395120  78.1361800   8.1685430  86.8910930  77.7619820
   7.9994920  85.4201590  78.0776600   1.7973680  85.3391850  78.1378910
   2.0851490  85.0846150  77.2611920   2.3096900  84.7869210  78.7284480
   3.0150690  69.0782050  78.7175420   2.2322480  69.5527550  78.9972180
   2.7213620  68.1736880  78.6088600   7.5671760  69.7805150  76.7624510
   8.0079850  69.7250250  75.9146110   7.2979350  70.6963160  76.8334690
   9.4310330  69.4120390  74.7733330   9.3698730  68.4681610  74.6264350
  10.2102360  69.5200480  75.3186790   5.4029890  68.1611250  75.4674520
   6.0059260  68.7331460  75.9423040   4.6622880  68.7250690  75.2448420
   8.5464490  68.5632810  70.7414800   8.7415120  69.4616260  71.0082230
   7.7594360  68.3319890  71.2347750   1.8646040  86.2607950  85.5047110
   2.7913350  86.0252220  85.5483070   1.8496470  87.0879950  85.0233140
  10.0991100  85.8033520  72.5021360  10.2743290  85.1171260  71.8582280
   9.4012670  86.3280570  72.1098030   5.6525110  68.3406280  85.8469460
   5.5390560  68.6600890  86.7420980   6.4694850  68.7418790  85.5506740
   8.4323600  85.4877810  85.3288150   9.2248920  84.9927040  85.1214110
   8.7256750  86.1667950  85.9363760   4.5583260  76.3598750  56.2104200
   4.4777310  75.4453360  55.9395910   4.1447680  76.8565820  55.5043910
   2.6901300  78.1377770  58.0913470   1.9143400  77.6578210  58.3812040
   3.3414230  77.4583420  57.9169630   6.7108730  82.5437960  56.8712600
   6.2490260  81.7725200  57.1999770   7.5234280  82.5704030  57.3765050
   2.9372040  84.8295970  56.4916590   2.3183480  85.2853470  55.9211030
   3.7923820  84.9847430  56.0906290   2.1310290  80.8134960  58.0983630
   2.0618570  79.8724900  57.9372760   2.8930150  80.9036370  58.6706200
   3.1615460  73.6205340  58.3252560   3.5380280  72.7477220  58.2126230
   3.0634970  73.9564040  57.4343000   6.9439580  71.1155780  55.2580900
   7.7649200  70.6252350  55.3006380   6.9773660  71.7053440  56.0112740
  11.2339130  73.1322530  61.8224530  10.5291300  73.5204240  61.3039640
  11.4997050  73.8272820  62.4245460   3.8035390  79.7135210  53.8848500
   3.1852660  80.1784660  53.3211220   4.3158640  80.4062690  54.3018010
   7.1801060  73.0556160  58.0308440   6.4756630  73.3441050  58.6111550
   7.5413220  73.8656270  57.6708000   8.7963840  82.6731290  60.2935920
   8.1127360  83.3430400  60.2852590   9.3358130  82.8711940  59.5280780
  10.2487980  72.5010950  58.4217650   9.3012890  72.5349930  58.5533080
  10.5737970  73.3149900  58.8067010   6.3322580  84.5175420  59.0081100
   6.3449740  84.1137710  58.1403360   5.7797800  85.2922710  58.9042530
   7.6268000  81.2391640  54.0971270   7.5164330  80.2965970  54.2220690
   7.6236250  81.6007280  54.9834030   5.7308020  79.4205260  60.3363710
   6.1476810  79.2065370  59.5017170   6.4547840  79.6778050  60.9072330
   3.1688280  76.8656960  53.4533760   2.2417560  76.7994340  53.6822230
   3.3213100  77.8037090  53.3389000   3.1557360  73.1373960  50.4500920
   2.2161030  73.2987920  50.5353380   3.4740620  73.8559640  49.9036910
   9.6770120  77.8192480  60.4279950   8.8488750  77.8885570  59.9530080
  10.2720600  78.4046790  59.9595780   7.1985570  78.4277260  53.9569010
   6.5797990  78.0896810  53.3095310   7.1810020  77.7837020  54.6648200
   6.6412130  74.6061800  61.3734820   6.2283310  75.4315510  61.6274810
   5.9088080  74.0206840  61.1811180   7.3312230  84.6521130  62.0615800
   6.8542790  85.4593320  61.8688410   6.6474020  83.9999460  62.2142010
   5.3750270  77.6664070  50.9641760   5.8143550  76.8286500  50.8179580
   6.0878690  78.2993470  51.0505900   3.4845650  82.6060140  54.9323000
   3.9241560  83.3484470  54.5178390   3.4232540  82.8486710  55.8561960
   8.9567410  68.9206880  49.2782800   8.6440070  69.0133710  50.1781870
   9.7179880  69.4987910  49.2280230  10.9111440  84.4133070  67.1307190
  11.3871160  84.8915960  67.8096270  11.5318600  84.3450560  66.4052690
  10.3144690  81.6045920  64.2907200  10.4407750  81.3657800  63.3724380
  10.3566070  80.7730460  64.7629280   4.1761430  85.3073920  62.8602010
   4.6906100  85.2181930  63.6624440   3.3330510  85.6533620  63.1529920
   6.1515830  85.5929260  52.2886010   5.9916970  85.3032200  53.1867840
   5.9862540  84.8169390  51.7531240   5.8541960  83.1016820  50.8484010
   5.1607120  83.0994110  50.1886290   6.5964820  82.6776140  50.4178180
   5.4191890  84.7279530  54.9232500   5.8748840  83.9468910  55.2371120
   5.7584410  85.4386350  55.4673680  10.1668700  73.6578380  65.2556940
   9.5512970  74.1658050  64.7272400   9.8465120  72.7576710  65.1982880
   2.2283020  72.4970270  62.7219130   1.7662390  72.7053290  63.5339070
   1.8261130  71.6829620  62.4189800   7.2287530  73.7179220  63.8515790
   6.3781120  73.4184970  64.1724860   7.0689320  73.9621230  62.9399610
   4.3237240  75.2180970  65.9514580   4.6490650  74.3844720  65.6116810
   5.1117570  75.7409490  66.0992910   4.9625190  74.7598690  53.4455710
   4.3634080  75.4834490  53.2619330   5.5104800  74.6975470  52.6632160
   3.5690060  73.3962230  55.4758990   3.9619630  73.7134430  54.6627680
   3.9306910  72.5174110  55.5903510   4.1545200  75.9867980  59.5709770
   3.4226320  76.4954790  59.9199870   3.7569540  75.1697960  59.2698550
   4.6171110  71.4401660  58.9832710   4.6343850  71.8910310  59.8274560
   4.3686690  70.5407300  59.1966150   8.0441860  68.8533840  64.8219090
   8.3687630  68.1223500  65.3477070   8.0798370  68.5347480  63.9200080
   7.9699700  78.9658950  58.4305120   8.6898820  79.4614240  58.0401230
   7.7681520  78.2876840  57.7858990   3.4309640  70.3596910  52.5734510
   2.6174250  69.8610080  52.4979820   3.2371590  71.1995160  52.1570860
   3.3518500  79.0368010  64.3174120   3.2855810  78.1163680  64.0631710
   2.7223640  79.1343450  65.0318760   6.1458030  74.7316560  50.8696670
   7.0337650  75.0433790  50.6948010   6.1163120  73.8588810  50.4777250
   2.1418620  80.9040250  51.5484840   2.4834320  81.6482480  51.0528160
   1.3131330  81.2171370  51.9109670   3.2835230  81.8588580  64.0677920
   3.2979770  80.9269540  63.8496830   2.5760330  81.9448340  64.7067690
   8.4172300  76.0428400  50.3376530   8.3336020  76.4742620  49.4872970
   9.1366490  76.5026750  50.7703350   9.4946440  78.4995920  63.4146500
   8.7694630  79.0924700  63.2175890  10.0221900  78.4919460  62.6159870
   9.4459550  82.8970660  53.0658660   8.8035710  82.2426280  53.3402380
   9.0590210  83.3025750  52.2899330   5.0246030  80.2256090  56.9130350
   5.3769850  79.6284220  56.2531720   4.1408360  79.9000320  57.0838600
   2.7169130  83.5006150  61.1618420   3.3611350  83.7065530  61.8391840
   3.0798570  82.7394550  60.7089270   3.9901210  81.5038500  59.8795870
   4.6323440  80.8031660  59.9928040   4.5150560  82.2836940  59.6992760
   7.8356930  81.7887120  49.6035010   7.6094510  81.0717560  50.1959650
   7.4453130  81.5399560  48.7656760   5.7638830  82.3033400  63.0831930
   6.0995070  82.8900090  63.7609850   4.8439170  82.1726110  63.3129720
   7.4173180  79.7059060  51.2649170   7.1294880  80.1671750  52.0527050
   8.2125350  79.2456830  51.5333390   4.8081010  72.5850890  61.6156790
   5.1761830  71.7646100  61.9436360   3.9479210  72.6452780  62.0312440
   8.1743040  71.5407830  52.4244350   7.5456200  71.6453500  51.7102580
   7.6794960  71.7604610  53.2138230   2.6201180  83.2613420  49.8578330
   2.7213160  83.0577410  48.9280310   1.7202920  83.0071700  50.0626110
   1.7683000  75.2390480  61.8394760   2.2668250  75.7136300  62.5046610
   1.9105950  74.3154000  62.0464790   4.1742500  70.5444440  55.2798020
   4.0510280  70.5630570  54.3307530   5.1227060  70.5923380  55.3996420
   8.9749860  71.4558440  62.6823150   8.4723460  72.1963840  63.0216960
   9.7906520  71.8442440  62.3659940   7.2671870  76.6991620  56.1284510
   6.3262010  76.7141850  56.3032200   7.5815940  75.9127580  56.5744810
   9.2697450  83.8700470  57.8038770   9.3944870  84.6931640  58.2762580
  10.1363010  83.6591200  57.4562920   4.5837890  81.2557620  66.6116890
   3.9776050  81.2789220  65.8712640   4.2792000  80.5240660  67.1484140
   6.0138260  84.9837910  65.2226300   6.9660010  84.8995930  65.1726540
   5.8666480  85.6479620  65.8960090   8.9047460  84.3632120  50.7218210
   8.6188970  83.9497260  49.9072390   8.7067010  85.2919830  50.6018730
   3.6097420  79.4185430  49.7665810   3.0607520  79.8654730  50.4108550
   4.2316680  78.9134680  50.2903480   7.6632360  80.7727530  65.6988070
   8.4041830  81.1103290  65.1955530   6.9005040  80.9419590  65.1457840
   1.7900180  77.4013960  48.9108210   2.3105840  76.6862980  48.5449360
   2.4368580  78.0399830  49.2108720   6.3378020  78.8242360  64.2343280
   6.7519040  78.9787440  65.0833700   5.4029020  78.9497580  64.3969060
   6.8100190  76.1638520  66.2382430   7.3920960  75.4090840  66.1502910
   6.9861960  76.6945960  65.4613910   3.4357150  76.5079020  63.5877050
   3.5553360  75.9120160  64.3271890   4.2951150  76.5448710  63.1678350
   5.7745050  77.0616210  62.1639560   5.2480270  77.5858830  61.5604700
   6.1176390  77.6943600  62.7949290   5.0219350  72.6666180  65.0785890
   4.3334870  72.0047720  65.0135880   5.7425370  72.2204450  65.5234350
   5.6519750  69.2617810  51.1376150   5.9322040  68.4185710  51.4935570
   4.8785480  69.4940920  51.6514900   2.3548210  85.4825570  51.2009950
   3.2499000  85.8210540  51.2228710   2.3865840  84.7604980  50.5734230
   9.3342560  84.0129240  63.9076150   8.7344550  84.0721800  63.1640070
   9.4636460  83.0734220  64.0373000  10.5744010  81.7547060  49.2445860
   9.7436970  81.8223710  49.7153090  10.7515840  82.6451180  48.9412720
  10.0300470  78.4994540  51.7480060  10.7919380  79.0691190  51.8539750
  10.0454840  77.9321740  52.5188370  11.0360440  79.3544640  56.5921990
  11.4069270  78.5711960  56.1857960  11.6762370  80.0433740  56.4139290
   8.0194200  80.7381220  62.0052310   7.2054040  81.1678380  62.2678100
   8.4268400  81.3499630  61.3921360  10.0819640  78.7928910  48.9052580
  10.3568480  79.7007790  48.7771800   9.8930380  78.7291440  49.8414570
   6.4795250  71.8173760  50.2006210   6.8980130  71.6304740  49.3602870
   6.1731310  70.9652810  50.5109140   9.9784980  76.7297900  53.8982010
   9.6028580  75.9625830  53.4663300   9.2488100  77.1120600  54.3856940
   9.3684600  75.8769420  63.5321530   9.1370690  75.6482170  62.6319480
   9.6289150  76.7968970  63.4866420   7.8072670  71.1025850  66.3101230
   8.6842850  71.1109250  66.6935230   7.8193510  70.3656690  65.6993580
   9.2535940  74.9555390  57.1989250   9.7773420  74.4618040  56.5679420
   9.8395360  75.0905750  57.9436820   9.4325660  75.0395260  60.7208800
   8.4828370  75.0058800  60.8353790   9.6138670  75.9495370  60.4858570
   8.7435910  74.2128740  53.1381660   9.2395030  73.9799610  53.9230540
   8.5451980  73.3740580  52.7219300  10.1723070  72.8489690  55.6719340
  10.0622350  72.6945730  56.6101610  10.9330660  72.3210630  55.4294750
   8.5188790  68.7883820  62.1302340   9.1561010  69.4017960  62.4961530
   8.6663680  68.8244480  61.1851570  11.0613340  70.6797610  48.9125480
  11.9862650  70.5478790  48.7043770  11.0389130  70.7590430  49.8661930
  11.1351830  71.4508270  51.5382190  10.3403330  71.3853390  52.0675100
  11.3395110  72.3858910  51.5267540   8.0770250  85.4899820  55.5320580
   8.6729320  85.1684390  54.8555000   8.3348400  85.0171640  56.3233850
   1.8893270  69.9410010  65.0377440   1.8282160  70.5331840  65.7872850
   2.8293650  69.8335970  64.8927700   4.5267830  69.5980070  64.6769730
   5.1408240  69.9159360  64.0150810   5.0717390  69.1128660  65.2965590
  10.9443010  85.4971700  62.0831570  10.4501290  85.8940570  61.3658700
  10.3356300  84.8720910  62.4768850   5.2675870  68.1612210  61.0039020
   4.3935710  68.4947320  60.8011950   5.1586620  67.6885390  61.8290890
   6.1747850  70.3683080  62.3880740   5.8461210  69.5534840  62.0082470
   7.1230150  70.3252890  62.2646430   8.6282460  86.1395120  59.3618310
   8.1685430  86.8910930  58.9876330   7.9994920  85.4201590  59.3033110
   1.7973680  85.3391850  59.3635420   2.0851490  85.0846150  58.4868430
   2.3096900  84.7869210  59.9540990   3.0150690  69.0782050  59.9431930
   2.2322480  69.5527550  60.2228690   2.7213620  68.1736880  59.8345110
   7.5671760  69.7805150  57.9881020   8.0079850  69.7250250  57.1402620
   7.2979350  70.6963160  58.0591200   9.4310330  69.4120390  55.9989840
   9.3698730  68.4681610  55.8520860  10.2102360  69.5200480  56.5443300
   5.4029890  68.1611250  56.6931030   6.0059260  68.7331460  57.1679550
   4.6622880  68.7250690  56.4704930   8.5464490  68.5632810  51.9671310
   8.7415120  69.4616260  52.2338740   7.7594360  68.3319890  52.4604260
   1.8646040  86.2607950  66.7303620   2.7913350  86.0252220  66.7739580
   1.8496470  87.0879950  66.2489650  10.0991100  85.8033520  53.7277870
  10.2743290  85.1171260  53.0838790   9.4012670  86.3280570  53.3354540
   5.6525110  68.3406280  67.0725970   5.5390560  68.6600890  67.9677490
   6.4694850  68.7418790  66.7763250   8.4323600  85.4877810  66.5544660
   9.2248920  84.9927040  66.3470620   8.7256750  86.1667950  67.1620270
   4.5583260  76.3598750  37.4360710   4.4777310  75.4453360  37.1652420
   4.1447680  76.8565820  36.7300420   2.6901300  78.1377770  39.3169980
   1.9143400  77.6578210  39.6068550   3.3414230  77.4583420  39.1426140
   6.7108730  82.5437960  38.0969110   6.2490260  81.7725200  38.4256280
   7.5234280  82.5704030  38.6021560   2.9372040  84.8295970  37.7173100
   2.3183480  85.2853470  37.1467540   3.7923820  84.9847430  37.3162800
   2.1310290  80.8134960  39.3240140   2.0618570  79.8724900  39.1629270
   2.8930150  80.9036370  39.8962710   3.1615460  73.6205340  39.5509070
   3.5380280  72.7477220  39.4382740   3.0634970  73.9564040  38.6599510
   6.9439580  71.1155780  36.4837410   7.7649200  70.6252350  36.5262890
   6.9773660  71.7053440  37.2369250  11.2339130  73.1322530  43.0481040
  10.5291300  73.5204240  42.5296150  11.4997050  73.8272820  43.6501970
   3.8035390  79.7135210  35.1105010   3.1852660  80.1784660  34.5467730
   4.3158640  80.4062690  35.5274520   7.1801060  73.0556160  39.2564950
   6.4756630  73.3441050  39.8368060   7.5413220  73.8656270  38.8964510
   8.7963840  82.6731290  41.5192430   8.1127360  83.3430400  41.5109100
   9.3358130  82.8711940  40.7537290  10.2487980  72.5010950  39.6474160
   9.3012890  72.5349930  39.7789590  10.5737970  73.3149900  40.0323520
   6.3322580  84.5175420  40.2337610   6.3449740  84.1137710  39.3659870
   5.7797800  85.2922710  40.1299040   7.6268000  81.2391640  35.3227780
   7.5164330  80.2965970  35.4477200   7.6236250  81.6007280  36.2090540
   5.7308020  79.4205260  41.5620220   6.1476810  79.2065370  40.7273680
   6.4547840  79.6778050  42.1328840   3.1688280  76.8656960  34.6790270
   2.2417560  76.7994340  34.9078740   3.3213100  77.8037090  34.5645510
   3.1557360  73.1373960  31.6757430   2.2161030  73.2987920  31.7609890
   3.4740620  73.8559640  31.1293420   9.6770120  77.8192480  41.6536460
   8.8488750  77.8885570  41.1786590  10.2720600  78.4046790  41.1852290
   7.1985570  78.4277260  35.1825520   6.5797990  78.0896810  34.5351820
   7.1810020  77.7837020  35.8904710   6.6412130  74.6061800  42.5991330
   6.2283310  75.4315510  42.8531320   5.9088080  74.0206840  42.4067690
   7.3312230  84.6521130  43.2872310   6.8542790  85.4593320  43.0944920
   6.6474020  83.9999460  43.4398520   5.3750270  77.6664070  32.1898270
   5.8143550  76.8286500  32.0436090   6.0878690  78.2993470  32.2762410
   3.4845650  82.6060140  36.1579510   3.9241560  83.3484470  35.7434900
   3.4232540  82.8486710  37.0818470   8.9567410  68.9206880  30.5039310
   8.6440070  69.0133710  31.4038380   9.7179880  69.4987910  30.4536740
  10.9111440  84.4133070  48.3563700  11.3871160  84.8915960  49.0352780
  11.5318600  84.3450560  47.6309200  10.3144690  81.6045920  45.5163710
  10.4407750  81.3657800  44.5980890  10.3566070  80.7730460  45.9885790
   4.1761430  85.3073920  44.0858520   4.6906100  85.2181930  44.8880950
   3.3330510  85.6533620  44.3786430   6.1515830  85.5929260  33.5142520
   5.9916970  85.3032200  34.4124350   5.9862540  84.8169390  32.9787750
   5.8541960  83.1016820  32.0740520   5.1607120  83.0994110  31.4142800
   6.5964820  82.6776140  31.6434690   5.4191890  84.7279530  36.1489010
   5.8748840  83.9468910  36.4627630   5.7584410  85.4386350  36.6930190
  10.1668700  73.6578380  46.4813450   9.5512970  74.1658050  45.9528910
   9.8465120  72.7576710  46.4239390   2.2283020  72.4970270  43.9475640
   1.7662390  72.7053290  44.7595580   1.8261130  71.6829620  43.6446310
   7.2287530  73.7179220  45.0772300   6.3781120  73.4184970  45.3981370
   7.0689320  73.9621230  44.1656120   4.3237240  75.2180970  47.1771090
   4.6490650  74.3844720  46.8373320   5.1117570  75.7409490  47.3249420
   4.9625190  74.7598690  34.6712220   4.3634080  75.4834490  34.4875840
   5.5104800  74.6975470  33.8888670   3.5690060  73.3962230  36.7015500
   3.9619630  73.7134430  35.8884190   3.9306910  72.5174110  36.8160020
   4.1545200  75.9867980  40.7966280   3.4226320  76.4954790  41.1456380
   3.7569540  75.1697960  40.4955060   4.6171110  71.4401660  40.2089220
   4.6343850  71.8910310  41.0531070   4.3686690  70.5407300  40.4222660
   8.0441860  68.8533840  46.0475600   8.3687630  68.1223500  46.5733580
   8.0798370  68.5347480  45.1456590   7.9699700  78.9658950  39.6561630
   8.6898820  79.4614240  39.2657740   7.7681520  78.2876840  39.0115500
   3.4309640  70.3596910  33.7991020   2.6174250  69.8610080  33.7236330
   3.2371590  71.1995160  33.3827370   3.3518500  79.0368010  45.5430630
   3.2855810  78.1163680  45.2888220   2.7223640  79.1343450  46.2575270
   6.1458030  74.7316560  32.0953180   7.0337650  75.0433790  31.9204520
   6.1163120  73.8588810  31.7033760   2.1418620  80.9040250  32.7741350
   2.4834320  81.6482480  32.2784670   1.3131330  81.2171370  33.1366180
   3.2835230  81.8588580  45.2934430   3.2979770  80.9269540  45.0753340
   2.5760330  81.9448340  45.9324200   8.4172300  76.0428400  31.5633040
   8.3336020  76.4742620  30.7129480   9.1366490  76.5026750  31.9959860
   9.4946440  78.4995920  44.6403010   8.7694630  79.0924700  44.4432400
  10.0221900  78.4919460  43.8416380   9.4459550  82.8970660  34.2915170
   8.8035710  82.2426280  34.5658890   9.0590210  83.3025750  33.5155840
   5.0246030  80.2256090  38.1386860   5.3769850  79.6284220  37.4788230
   4.1408360  79.9000320  38.3095110   2.7169130  83.5006150  42.3874930
   3.3611350  83.7065530  43.0648350   3.0798570  82.7394550  41.9345780
   3.9901210  81.5038500  41.1052380   4.6323440  80.8031660  41.2184550
   4.5150560  82.2836940  40.9249270   7.8356930  81.7887120  30.8291520
   7.6094510  81.0717560  31.4216160   7.4453130  81.5399560  29.9913270
   5.7638830  82.3033400  44.3088440   6.0995070  82.8900090  44.9866360
   4.8439170  82.1726110  44.5386230   7.4173180  79.7059060  32.4905680
   7.1294880  80.1671750  33.2783560   8.2125350  79.2456830  32.7589900
   4.8081010  72.5850890  42.8413300   5.1761830  71.7646100  43.1692870
   3.9479210  72.6452780  43.2568950   8.1743040  71.5407830  33.6500860
   7.5456200  71.6453500  32.9359090   7.6794960  71.7604610  34.4394740
   2.6201180  83.2613420  31.0834840   2.7213160  83.0577410  30.1536820
   1.7202920  83.0071700  31.2882620   1.7683000  75.2390480  43.0651270
   2.2668250  75.7136300  43.7303120   1.9105950  74.3154000  43.2721300
   4.1742500  70.5444440  36.5054530   4.0510280  70.5630570  35.5564040
   5.1227060  70.5923380  36.6252930   8.9749860  71.4558440  43.9079660
   8.4723460  72.1963840  44.2473470   9.7906520  71.8442440  43.5916450
   7.2671870  76.6991620  37.3541020   6.3262010  76.7141850  37.5288710
   7.5815940  75.9127580  37.8001320   9.2697450  83.8700470  39.0295280
   9.3944870  84.6931640  39.5019090  10.1363010  83.6591200  38.6819430
   4.5837890  81.2557620  47.8373400   3.9776050  81.2789220  47.0969150
   4.2792000  80.5240660  48.3740650   6.0138260  84.9837910  46.4482810
   6.9660010  84.8995930  46.3983050   5.8666480  85.6479620  47.1216600
   8.9047460  84.3632120  31.9474720   8.6188970  83.9497260  31.1328900
   8.7067010  85.2919830  31.8275240   3.6097420  79.4185430  30.9922320
   3.0607520  79.8654730  31.6365060   4.2316680  78.9134680  31.5159990
   7.6632360  80.7727530  46.9244580   8.4041830  81.1103290  46.4212040
   6.9005040  80.9419590  46.3714350   1.7900180  77.4013960  30.1364720
   2.3105840  76.6862980  29.7705870   2.4368580  78.0399830  30.4365230
   6.3378020  78.8242360  45.4599790   6.7519040  78.9787440  46.3090210
   5.4029020  78.9497580  45.6225570   6.8100190  76.1638520  47.4638940
   7.3920960  75.4090840  47.3759420   6.9861960  76.6945960  46.6870420
   3.4357150  76.5079020  44.8133560   3.5553360  75.9120160  45.5528400
   4.2951150  76.5448710  44.3934860   5.7745050  77.0616210  43.3896070
   5.2480270  77.5858830  42.7861210   6.1176390  77.6943600  44.0205800
   5.0219350  72.6666180  46.3042400   4.3334870  72.0047720  46.2392390
   5.7425370  72.2204450  46.7490860   5.6519750  69.2617810  32.3632660
   5.9322040  68.4185710  32.7192080   4.8785480  69.4940920  32.8771410
   2.3548210  85.4825570  32.4266460   3.2499000  85.8210540  32.4485220
   2.3865840  84.7604980  31.7990740   9.3342560  84.0129240  45.1332660
   8.7344550  84.0721800  44.3896580   9.4636460  83.0734220  45.2629510
  10.5744010  81.7547060  30.4702370   9.7436970  81.8223710  30.9409600
  10.7515840  82.6451180  30.1669230  10.0300470  78.4994540  32.9736570
  10.7919380  79.0691190  33.0796260  10.0454840  77.9321740  33.7444880
  11.0360440  79.3544640  37.8178500  11.4069270  78.5711960  37.4114470
  11.6762370  80.0433740  37.6395800   8.0194200  80.7381220  43.2308820
   7.2054040  81.1678380  43.4934610   8.4268400  81.3499630  42.6177870
  10.0819640  78.7928910  30.1309090  10.3568480  79.7007790  30.0028310
   9.8930380  78.7291440  31.0671080   6.4795250  71.8173760  31.4262720
   6.8980130  71.6304740  30.5859380   6.1731310  70.9652810  31.7365650
   9.9784980  76.7297900  35.1238520   9.6028580  75.9625830  34.6919810
   9.2488100  77.1120600  35.6113450   9.3684600  75.8769420  44.7578040
   9.1370690  75.6482170  43.8575990   9.6289150  76.7968970  44.7122930
   7.8072670  71.1025850  47.5357740   8.6842850  71.1109250  47.9191740
   7.8193510  70.3656690  46.9250090   9.2535940  74.9555390  38.4245760
   9.7773420  74.4618040  37.7935930   9.8395360  75.0905750  39.1693330
   9.4325660  75.0395260  41.9465310   8.4828370  75.0058800  42.0610300
   9.6138670  75.9495370  41.7115080   8.7435910  74.2128740  34.3638170
   9.2395030  73.9799610  35.1487050   8.5451980  73.3740580  33.9475810
  10.1723070  72.8489690  36.8975850  10.0622350  72.6945730  37.8358120
  10.9330660  72.3210630  36.6551260   8.5188790  68.7883820  43.3558850
   9.1561010  69.4017960  43.7218040   8.6663680  68.8244480  42.4108080
  11.0613340  70.6797610  30.1381990  11.9862650  70.5478790  29.9300280
  11.0389130  70.7590430  31.0918440  11.1351830  71.4508270  32.7638700
  10.3403330  71.3853390  33.2931610  11.3395110  72.3858910  32.7524050
   8.0770250  85.4899820  36.7577090   8.6729320  85.1684390  36.0811510
   8.3348400  85.0171640  37.5490360   1.8893270  69.9410010  46.2633950
   1.8282160  70.5331840  47.0129360   2.8293650  69.8335970  46.1184210
   4.5267830  69.5980070  45.9026240   5.1408240  69.9159360  45.2407320
   5.0717390  69.1128660  46.5222100  10.9443010  85.4971700  43.3088080
  10.4501290  85.8940570  42.5915210  10.3356300  84.8720910  43.7025360
   5.2675870  68.1612210  42.2295530   4.3935710  68.4947320  42.0268460
   5.1586620  67.6885390  43.0547400   6.1747850  70.3683080  43.6137250
   5.8461210  69.5534840  43.2338980   7.1230150  70.3252890  43.4902940
   8.6282460  86.1395120  40.5874820   8.1685430  86.8910930  40.2132840
   7.9994920  85.4201590  40.5289620   1.7973680  85.3391850  40.5891930
   2.0851490  85.0846150  39.7124940   2.3096900  84.7869210  41.1797500
   3.0150690  69.0782050  41.1688440   2.2322480  69.5527550  41.4485200
   2.7213620  68.1736880  41.0601620   7.5671760  69.7805150  39.2137530
   8.0079850  69.7250250  38.3659130   7.2979350  70.6963160  39.2847710
   9.4310330  69.4120390  37.2246350   9.3698730  68.4681610  37.0777370
  10.2102360  69.5200480  37.7699810   5.4029890  68.1611250  37.9187540
   6.0059260  68.7331460  38.3936060   4.6622880  68.7250690  37.6961440
   8.5464490  68.5632810  33.1927820   8.7415120  69.4616260  33.4595250
   7.7594360  68.3319890  33.6860770   1.8646040  86.2607950  47.9560130
   2.7913350  86.0252220  47.9996090   1.8496470  87.0879950  47.4746160
  10.0991100  85.8033520  34.9534380  10.2743290  85.1171260  34.3095300
   9.4012670  86.3280570  34.5611050   5.6525110  68.3406280  48.2982480
   5.5390560  68.6600890  49.1934000   6.4694850  68.7418790  48.0019760
   8.4323600  85.4877810  47.7801170   9.2248920  84.9927040  47.5727130
   8.7256750  86.1667950  48.3876780   4.5583260  76.3598750  18.6617220
   4.4777310  75.4453360  18.3908930   4.1447680  76.8565820  17.9556930
   2.6901300  78.1377770  20.5426490   1.9143400  77.6578210  20.8325060
   3.3414230  77.4583420  20.3682650   6.7108730  82.5437960  19.3225620
   6.2490260  81.7725200  19.6512790   7.5234280  82.5704030  19.8278070
   2.9372040  84.8295970  18.9429610   2.3183480  85.2853470  18.3724050
   3.7923820  84.9847430  18.5419310   2.1310290  80.8134960  20.5496650
   2.0618570  79.8724900  20.3885780   2.8930150  80.9036370  21.1219220
   3.1615460  73.6205340  20.7765580   3.5380280  72.7477220  20.6639250
   3.0634970  73.9564040  19.8856020   6.9439580  71.1155780  17.7093920
   7.7649200  70.6252350  17.7519400   6.9773660  71.7053440  18.4625760
  11.2339130  73.1322530  24.2737550  10.5291300  73.5204240  23.7552660
  11.4997050  73.8272820  24.8758480   3.8035390  79.7135210  16.3361520
   3.1852660  80.1784660  15.7724240   4.3158640  80.4062690  16.7531030
   7.1801060  73.0556160  20.4821460   6.4756630  73.3441050  21.0624570
   7.5413220  73.8656270  20.1221020   8.7963840  82.6731290  22.7448940
   8.1127360  83.3430400  22.7365610   9.3358130  82.8711940  21.9793800
  10.2487980  72.5010950  20.8730670   9.3012890  72.5349930  21.0046100
  10.5737970  73.3149900  21.2580030   6.3322580  84.5175420  21.4594120
   6.3449740  84.1137710  20.5916380   5.7797800  85.2922710  21.3555550
   7.6268000  81.2391640  16.5484290   7.5164330  80.2965970  16.6733710
   7.6236250  81.6007280  17.4347050   5.7308020  79.4205260  22.7876730
   6.1476810  79.2065370  21.9530190   6.4547840  79.6778050  23.3585350
   3.1688280  76.8656960  15.9046780   2.2417560  76.7994340  16.1335250
   3.3213100  77.8037090  15.7902020   3.1557360  73.1373960  12.9013940
   2.2161030  73.2987920  12.9866400   3.4740620  73.8559640  12.3549930
   9.6770120  77.8192480  22.8792970   8.8488750  77.8885570  22.4043100
  10.2720600  78.4046790  22.4108800   7.1985570  78.4277260  16.4082030
   6.5797990  78.0896810  15.7608330   7.1810020  77.7837020  17.1161220
   6.6412130  74.6061800  23.8247840   6.2283310  75.4315510  24.0787830
   5.9088080  74.0206840  23.6324200   7.3312230  84.6521130  24.5128820
   6.8542790  85.4593320  24.3201430   6.6474020  83.9999460  24.6655030
   5.3750270  77.6664070  13.4154780   5.8143550  76.8286500  13.2692600
   6.0878690  78.2993470  13.5018920   3.4845650  82.6060140  17.3836020
   3.9241560  83.3484470  16.9691410   3.4232540  82.8486710  18.3074980
   8.9567410  68.9206880  11.7295820   8.6440070  69.0133710  12.6294890
   9.7179880  69.4987910  11.6793250  10.9111440  84.4133070  29.5820210
  11.3871160  84.8915960  30.2609290  11.5318600  84.3450560  28.8565710
  10.3144690  81.6045920  26.7420220  10.4407750  81.3657800  25.8237400
  10.3566070  80.7730460  27.2142300   4.1761430  85.3073920  25.3115030
   4.6906100  85.2181930  26.1137460   3.3330510  85.6533620  25.6042940
   6.1515830  85.5929260  14.7399030   5.9916970  85.3032200  15.6380860
   5.9862540  84.8169390  14.2044260   5.8541960  83.1016820  13.2997030
   5.1607120  83.0994110  12.6399310   6.5964820  82.6776140  12.8691200
   5.4191890  84.7279530  17.3745520   5.8748840  83.9468910  17.6884140
   5.7584410  85.4386350  17.9186700  10.1668700  73.6578380  27.7069960
   9.5512970  74.1658050  27.1785420   9.8465120  72.7576710  27.6495900
   2.2283020  72.4970270  25.1732150   1.7662390  72.7053290  25.9852090
   1.8261130  71.6829620  24.8702820   7.2287530  73.7179220  26.3028810
   6.3781120  73.4184970  26.6237880   7.0689320  73.9621230  25.3912630
   4.3237240  75.2180970  28.4027600   4.6490650  74.3844720  28.0629830
   5.1117570  75.7409490  28.5505930   4.9625190  74.7598690  15.8968730
   4.3634080  75.4834490  15.7132350   5.5104800  74.6975470  15.1145180
   3.5690060  73.3962230  17.9272010   3.9619630  73.7134430  17.1140700
   3.9306910  72.5174110  18.0416530   4.1545200  75.9867980  22.0222790
   3.4226320  76.4954790  22.3712890   3.7569540  75.1697960  21.7211570
   4.6171110  71.4401660  21.4345730   4.6343850  71.8910310  22.2787580
   4.3686690  70.5407300  21.6479170   8.0441860  68.8533840  27.2732110
   8.3687630  68.1223500  27.7990090   8.0798370  68.5347480  26.3713100
   7.9699700  78.9658950  20.8818140   8.6898820  79.4614240  20.4914250
   7.7681520  78.2876840  20.2372010   3.4309640  70.3596910  15.0247530
   2.6174250  69.8610080  14.9492840   3.2371590  71.1995160  14.6083880
   3.3518500  79.0368010  26.7687140   3.2855810  78.1163680  26.5144730
   2.7223640  79.1343450  27.4831780   6.1458030  74.7316560  13.3209690
   7.0337650  75.0433790  13.1461030   6.1163120  73.8588810  12.9290270
   2.1418620  80.9040250  13.9997860   2.4834320  81.6482480  13.5041180
   1.3131330  81.2171370  14.3622690   3.2835230  81.8588580  26.5190940
   3.2979770  80.9269540  26.3009850   2.5760330  81.9448340  27.1580710
   8.4172300  76.0428400  12.7889550   8.3336020  76.4742620  11.9385990
   9.1366490  76.5026750  13.2216370   9.4946440  78.4995920  25.8659520
   8.7694630  79.0924700  25.6688910  10.0221900  78.4919460  25.0672890
   9.4459550  82.8970660  15.5171680   8.8035710  82.2426280  15.7915400
   9.0590210  83.3025750  14.7412350   5.0246030  80.2256090  19.3643370
   5.3769850  79.6284220  18.7044740   4.1408360  79.9000320  19.5351620
   2.7169130  83.5006150  23.6131440   3.3611350  83.7065530  24.2904860
   3.0798570  82.7394550  23.1602290   3.9901210  81.5038500  22.3308890
   4.6323440  80.8031660  22.4441060   4.5150560  82.2836940  22.1505780
   7.8356930  81.7887120  12.0548030   7.6094510  81.0717560  12.6472670
   7.4453130  81.5399560  11.2169780   5.7638830  82.3033400  25.5344950
   6.0995070  82.8900090  26.2122870   4.8439170  82.1726110  25.7642740
   7.4173180  79.7059060  13.7162190   7.1294880  80.1671750  14.5040070
   8.2125350  79.2456830  13.9846410   4.8081010  72.5850890  24.0669810
   5.1761830  71.7646100  24.3949380   3.9479210  72.6452780  24.4825460
   8.1743040  71.5407830  14.8757370   7.5456200  71.6453500  14.1615600
   7.6794960  71.7604610  15.6651250   2.6201180  83.2613420  12.3091350
   2.7213160  83.0577410  11.3793330   1.7202920  83.0071700  12.5139130
   1.7683000  75.2390480  24.2907780   2.2668250  75.7136300  24.9559630
   1.9105950  74.3154000  24.4977810   4.1742500  70.5444440  17.7311040
   4.0510280  70.5630570  16.7820550   5.1227060  70.5923380  17.8509440
   8.9749860  71.4558440  25.1336170   8.4723460  72.1963840  25.4729980
   9.7906520  71.8442440  24.8172960   7.2671870  76.6991620  18.5797530
   6.3262010  76.7141850  18.7545220   7.5815940  75.9127580  19.0257830
   9.2697450  83.8700470  20.2551790   9.3944870  84.6931640  20.7275600
  10.1363010  83.6591200  19.9075940   4.5837890  81.2557620  29.0629910
   3.9776050  81.2789220  28.3225660   4.2792000  80.5240660  29.5997160
   6.0138260  84.9837910  27.6739320   6.9660010  84.8995930  27.6239560
   5.8666480  85.6479620  28.3473110   8.9047460  84.3632120  13.1731230
   8.6188970  83.9497260  12.3585410   8.7067010  85.2919830  13.0531750
   3.6097420  79.4185430  12.2178830   3.0607520  79.8654730  12.8621570
   4.2316680  78.9134680  12.7416500   7.6632360  80.7727530  28.1501090
   8.4041830  81.1103290  27.6468550   6.9005040  80.9419590  27.5970860
   1.7900180  77.4013960  11.3621230   2.3105840  76.6862980  10.9962380
   2.4368580  78.0399830  11.6621740   6.3378020  78.8242360  26.6856300
   6.7519040  78.9787440  27.5346720   5.4029020  78.9497580  26.8482080
   6.8100190  76.1638520  28.6895450   7.3920960  75.4090840  28.6015930
   6.9861960  76.6945960  27.9126930   3.4357150  76.5079020  26.0390070
   3.5553360  75.9120160  26.7784910   4.2951150  76.5448710  25.6191370
   5.7745050  77.0616210  24.6152580   5.2480270  77.5858830  24.0117720
   6.1176390  77.6943600  25.2462310   5.0219350  72.6666180  27.5298910
   4.3334870  72.0047720  27.4648900   5.7425370  72.2204450  27.9747370
   5.6519750  69.2617810  13.5889170   5.9322040  68.4185710  13.9448590
   4.8785480  69.4940920  14.1027920   2.3548210  85.4825570  13.6522970
   3.2499000  85.8210540  13.6741730   2.3865840  84.7604980  13.0247250
   9.3342560  84.0129240  26.3589170   8.7344550  84.0721800  25.6153090
   9.4636460  83.0734220  26.4886020  10.5744010  81.7547060  11.6958880
   9.7436970  81.8223710  12.1666110  10.7515840  82.6451180  11.3925740
  10.0300470  78.4994540  14.1993080  10.7919380  79.0691190  14.3052770
  10.0454840  77.9321740  14.9701390  11.0360440  79.3544640  19.0435010
  11.4069270  78.5711960  18.6370980  11.6762370  80.0433740  18.8652310
   8.0194200  80.7381220  24.4565330   7.2054040  81.1678380  24.7191120
   8.4268400  81.3499630  23.8434380  10.0819640  78.7928910  11.3565600
  10.3568480  79.7007790  11.2284820   9.8930380  78.7291440  12.2927590
   6.4795250  71.8173760  12.6519230   6.8980130  71.6304740  11.8115890
   6.1731310  70.9652810  12.9622160   9.9784980  76.7297900  16.3495030
   9.6028580  75.9625830  15.9176320   9.2488100  77.1120600  16.8369960
   9.3684600  75.8769420  25.9834550   9.1370690  75.6482170  25.0832500
   9.6289150  76.7968970  25.9379440   7.8072670  71.1025850  28.7614250
   8.6842850  71.1109250  29.1448250   7.8193510  70.3656690  28.1506600
   9.2535940  74.9555390  19.6502270   9.7773420  74.4618040  19.0192440
   9.8395360  75.0905750  20.3949840   9.4325660  75.0395260  23.1721820
   8.4828370  75.0058800  23.2866810   9.6138670  75.9495370  22.9371590
   8.7435910  74.2128740  15.5894680   9.2395030  73.9799610  16.3743560
   8.5451980  73.3740580  15.1732320  10.1723070  72.8489690  18.1232360
  10.0622350  72.6945730  19.0614630  10.9330660  72.3210630  17.8807770
   8.5188790  68.7883820  24.5815360   9.1561010  69.4017960  24.9474550
   8.6663680  68.8244480  23.6364590  11.0613340  70.6797610  11.3638500
  11.9862650  70.5478790  11.1556790  11.0389130  70.7590430  12.3174950
  11.1351830  71.4508270  13.9895210  10.3403330  71.3853390  14.5188120
  11.3395110  72.3858910  13.9780560   8.0770250  85.4899820  17.9833600
   8.6729320  85.1684390  17.3068020   8.3348400  85.0171640  18.7746870
   1.8893270  69.9410010  27.4890460   1.8282160  70.5331840  28.2385870
   2.8293650  69.8335970  27.3440720   4.5267830  69.5980070  27.1282750
   5.1408240  69.9159360  26.4663830   5.0717390  69.1128660  27.7478610
  10.9443010  85.4971700  24.5344590  10.4501290  85.8940570  23.8171720
  10.3356300  84.8720910  24.9281870   5.2675870  68.1612210  23.4552040
   4.3935710  68.4947320  23.2524970   5.1586620  67.6885390  24.2803910
   6.1747850  70.3683080  24.8393760   5.8461210  69.5534840  24.4595490
   7.1230150  70.3252890  24.7159450   8.6282460  86.1395120  21.8131330
   8.1685430  86.8910930  21.4389350   7.9994920  85.4201590  21.7546130
   1.7973680  85.3391850  21.8148440   2.0851490  85.0846150  20.9381450
   2.3096900  84.7869210  22.4054010   3.0150690  69.0782050  22.3944950
   2.2322480  69.5527550  22.6741710   2.7213620  68.1736880  22.2858130
   7.5671760  69.7805150  20.4394040   8.0079850  69.7250250  19.5915640
   7.2979350  70.6963160  20.5104220   9.4310330  69.4120390  18.4502860
   9.3698730  68.4681610  18.3033880  10.2102360  69.5200480  18.9956320
   5.4029890  68.1611250  19.1444050   6.0059260  68.7331460  19.6192570
   4.6622880  68.7250690  18.9217950   8.5464490  68.5632810  14.4184330
   8.7415120  69.4616260  14.6851760   7.7594360  68.3319890  14.9117280
   1.8646040  86.2607950  29.1816640   2.7913350  86.0252220  29.2252600
   1.8496470  87.0879950  28.7002670  10.0991100  85.8033520  16.1790890
  10.2743290  85.1171260  15.5351810   9.4012670  86.3280570  15.7867560
   5.6525110  68.3406280  29.5238990   5.5390560  68.6600890  30.4190510
   6.4694850  68.7418790  29.2276270   8.4323600  85.4877810  29.0057680
   9.2248920  84.9927040  28.7983640   8.7256750  86.1667950  29.6133290
   2.6901300  78.1377770   1.7683000   1.9143400  77.6578210   2.0581570
   3.3414230  77.4583420   1.5939160   2.1310290  80.8134960   1.7753160
   2.0618570  79.8724900   1.6142290   2.8930150  80.9036370   2.3475730
  11.2339130  73.1322530   5.4994060  10.5291300  73.5204240   4.9809170
  11.4997050  73.8272820   6.1014990   8.7963840  82.6731290   3.9705450
   8.1127360  83.3430400   3.9622120   9.3358130  82.8711940   3.2050310
  10.2487980  72.5010950   2.0987180   9.3012890  72.5349930   2.2302610
  10.5737970  73.3149900   2.4836540   6.3322580  84.5175420   2.6850630
   6.3449740  84.1137710   1.8172890   5.7797800  85.2922710   2.5812060
   5.7308020  79.4205260   4.0133240   6.1476810  79.2065370   3.1786700
   6.4547840  79.6778050   4.5841860   9.6770120  77.8192480   4.1049480
   8.8488750  77.8885570   3.6299610  10.2720600  78.4046790   3.6365310
   6.6412130  74.6061800   5.0504350   6.2283310  75.4315510   5.3044340
   5.9088080  74.0206840   4.8580710   7.3312230  84.6521130   5.7385330
   6.8542790  85.4593320   5.5457940   6.6474020  83.9999460   5.8911540
  10.9111440  84.4133070  10.8076720  11.3871160  84.8915960  11.4865800
  11.5318600  84.3450560  10.0822220  10.3144690  81.6045920   7.9676730
  10.4407750  81.3657800   7.0493910  10.3566070  80.7730460   8.4398810
   4.1761430  85.3073920   6.5371540   4.6906100  85.2181930   7.3393970
   3.3330510  85.6533620   6.8299450  10.1668700  73.6578380   8.9326470
   9.5512970  74.1658050   8.4041930   9.8465120  72.7576710   8.8752410
   2.2283020  72.4970270   6.3988660   1.7662390  72.7053290   7.2108600
   1.8261130  71.6829620   6.0959330   7.2287530  73.7179220   7.5285320
   6.3781120  73.4184970   7.8494390   7.0689320  73.9621230   6.6169140
   4.3237240  75.2180970   9.6284110   4.6490650  74.3844720   9.2886340
   5.1117570  75.7409490   9.7762440   4.1545200  75.9867980   3.2479300
   3.4226320  76.4954790   3.5969400   3.7569540  75.1697960   2.9468080
   4.6171110  71.4401660   2.6602240   4.6343850  71.8910310   3.5044090
   4.3686690  70.5407300   2.8735680   8.0441860  68.8533840   8.4988620
   8.3687630  68.1223500   9.0246600   8.0798370  68.5347480   7.5969610
   7.9699700  78.9658950   2.1074650   8.6898820  79.4614240   1.7170760
   7.7681520  78.2876840   1.4628520   3.3518500  79.0368010   7.9943650
   3.2855810  78.1163680   7.7401240   2.7223640  79.1343450   8.7088290
   3.2835230  81.8588580   7.7447450   3.2979770  80.9269540   7.5266360
   2.5760330  81.9448340   8.3837220   9.4946440  78.4995920   7.0916030
   8.7694630  79.0924700   6.8945420  10.0221900  78.4919460   6.2929400
   2.7169130  83.5006150   4.8387950   3.3611350  83.7065530   5.5161370
   3.0798570  82.7394550   4.3858800   3.9901210  81.5038500   3.5565400
   4.6323440  80.8031660   3.6697570   4.5150560  82.2836940   3.3762290
   5.7638830  82.3033400   6.7601460   6.0995070  82.8900090   7.4379380
   4.8439170  82.1726110   6.9899250   4.8081010  72.5850890   5.2926320
   5.1761830  71.7646100   5.6205890   3.9479210  72.6452780   5.7081970
   1.7683000  75.2390480   5.5164290   2.2668250  75.7136300   6.1816140
   1.9105950  74.3154000   5.7234320   8.9749860  71.4558440   6.3592680
   8.4723460  72.1963840   6.6986490   9.7906520  71.8442440   6.0429470
   4.5837890  81.2557620  10.2886420   3.9776050  81.2789220   9.5482170
   4.2792000  80.5240660  10.8253670   6.0138260  84.9837910   8.8995830
   6.9660010  84.8995930   8.8496070   5.8666480  85.6479620   9.5729620
   7.6632360  80.7727530   9.3757600   8.4041830  81.1103290   8.8725060
   6.9005040  80.9419590   8.8227370   6.3378020  78.8242360   7.9112810
   6.7519040  78.9787440   8.7603230   5.4029020  78.9497580   8.0738590
   6.8100190  76.1638520   9.9151960   7.3920960  75.4090840   9.8272440
   6.9861960  76.6945960   9.1383440   3.4357150  76.5079020   7.2646580
   3.5553360  75.9120160   8.0041420   4.2951150  76.5448710   6.8447880
   5.7745050  77.0616210   5.8409090   5.2480270  77.5858830   5.2374230
   6.1176390  77.6943600   6.4718820   5.0219350  72.6666180   8.7555420
   4.3334870  72.0047720   8.6905410   5.7425370  72.2204450   9.2003880
   9.3342560  84.0129240   7.5845680   8.7344550  84.0721800   6.8409600
   9.4636460  83.0734220   7.7142530   8.0194200  80.7381220   5.6821840
   7.2054040  81.1678380   5.9447630   8.4268400  81.3499630   5.0690890
   9.3684600  75.8769420   7.2091060   9.1370690  75.6482170   6.3089010
   9.6289150  76.7968970   7.1635950   7.8072670  71.1025850   9.9870760
   8.6842850  71.1109250  10.3704760   7.8193510  70.3656690   9.3763110
   9.4325660  75.0395260   4.3978330   8.4828370  75.0058800   4.5123320
   9.6138670  75.9495370   4.1628100   8.5188790  68.7883820   5.8071870
   9.1561010  69.4017960   6.1731060   8.6663680  68.8244480   4.8621100
   1.8893270  69.9410010   8.7146970   1.8282160  70.5331840   9.4642380
   2.8293650  69.8335970   8.5697230   4.5267830  69.5980070   8.3539260
   5.1408240  69.9159360   7.6920340   5.0717390  69.1128660   8.9735120
  10.9443010  85.4971700   5.7601100  10.4501290  85.8940570   5.0428230
  10.3356300  84.8720910   6.1538380   5.2675870  68.1612210   4.6808550
   4.3935710  68.4947320   4.4781480   5.1586620  67.6885390   5.5060420
   6.1747850  70.3683080   6.0650270   5.8461210  69.5534840   5.6852000
   7.1230150  70.3252890   5.9415960   8.6282460  86.1395120   3.0387840
   8.1685430  86.8910930   2.6645860   7.9994920  85.4201590   2.9802640
   1.7973680  85.3391850   3.0404950   2.0851490  85.0846150   2.1637960
   2.3096900  84.7869210   3.6310520   3.0150690  69.0782050   3.6201460
   2.2322480  69.5527550   3.8998220   2.7213620  68.1736880   3.5114640
   1.8646040  86.2607950  10.4073150   2.7913350  86.0252220  10.4509110
   1.8496470  87.0879950   9.9259180   5.6525110  68.3406280  10.7495500
   5.5390560  68.6600890  11.6447020   6.4694850  68.7418790  10.4532780
   8.4323600  85.4877810  10.2314190   9.2248920  84.9927040  10.0240150
   8.7256750  86.1667950  10.8389800   4.5583260  57.5855260 150.0821650
   4.4777310  56.6709870 149.8113360   4.1447680  58.0822330 149.3761360
   6.7108730  63.7694470 150.7430050   6.2490260  62.9981710 151.0717220
   7.5234280  63.7960540 151.2482500   2.9372040  66.0552480 150.3634040
   2.3183480  66.5109980 149.7928480   3.7923820  66.2103940 149.9623740
   6.9439580  52.3412290 149.1298350   7.7649200  51.8508860 149.1723830
   6.9773660  52.9309950 149.8830190   3.8035390  60.9391720 147.7565950
   3.1852660  61.4041170 147.1928670   4.3158640  61.6319200 148.1735460
   7.6268000  62.4648150 147.9688720   7.5164330  61.5222480 148.0938140
   7.6236250  62.8263790 148.8551480   3.1688280  58.0913470 147.3251210
   2.2417560  58.0250850 147.5539680   3.3213100  59.0293600 147.2106450
   3.1557360  54.3630470 144.3218370   2.2161030  54.5244430 144.4070830
   3.4740620  55.0816150 143.7754360   7.1985570  59.6533770 147.8286460
   6.5797990  59.3153320 147.1812760   7.1810020  59.0093530 148.5365650
   5.3750270  58.8920580 144.8359210   5.8143550  58.0543010 144.6897030
   6.0878690  59.5249980 144.9223350   3.4845650  63.8316650 148.8040450
   3.9241560  64.5740980 148.3895840   3.4232540  64.0743220 149.7279410
   8.9567410  50.1463390 143.1500250   8.6440070  50.2390220 144.0499320
   9.7179880  50.7244420 143.0997680   6.1515830  66.8185770 146.1603460
   5.9916970  66.5288710 147.0585290   5.9862540  66.0425900 145.6248690
   5.8541960  64.3273330 144.7201460   5.1607120  64.3250620 144.0603740
   6.5964820  63.9032650 144.2895630   5.4191890  65.9536040 148.7949950
   5.8748840  65.1725420 149.1088570   5.7584410  66.6642860 149.3391130
   4.9625190  55.9855200 147.3173160   4.3634080  56.7091000 147.1336780
   5.5104800  55.9231980 146.5349610   3.5690060  54.6218740 149.3476440
   3.9619630  54.9390940 148.5345130   3.9306910  53.7430620 149.4620960
   3.4309640  51.5853420 146.4451960   2.6174250  51.0866590 146.3697270
   3.2371590  52.4251670 146.0288310   6.1458030  55.9573070 144.7414120
   7.0337650  56.2690300 144.5665460   6.1163120  55.0845320 144.3494700
   2.1418620  62.1296760 145.4202290   2.4834320  62.8738990 144.9245610
   1.3131330  62.4427880 145.7827120   8.4172300  57.2684910 144.2093980
   8.3336020  57.6999130 143.3590420   9.1366490  57.7283260 144.6420800
   9.4459550  64.1227170 146.9376110   8.8035710  63.4682790 147.2119830
   9.0590210  64.5282260 146.1616780   5.0246030  61.4512600 150.7847800
   5.3769850  60.8540730 150.1249170   4.1408360  61.1256830 150.9556050
   7.8356930  63.0143630 143.4752460   7.6094510  62.2974070 144.0677100
   7.4453130  62.7656070 142.6374210   7.4173180  60.9315570 145.1366620
   7.1294880  61.3928260 145.9244500   8.2125350  60.4713340 145.4050840
   8.1743040  52.7664340 146.2961800   7.5456200  52.8710010 145.5820030
   7.6794960  52.9861120 147.0855680   2.6201180  64.4869930 143.7295780
   2.7213160  64.2833920 142.7997760   1.7202920  64.2328210 143.9343560
   4.1742500  51.7700950 149.1515470   4.0510280  51.7887080 148.2024980
   5.1227060  51.8179890 149.2713870   7.2671870  57.9248130 150.0001960
   6.3262010  57.9398360 150.1749650   7.5815940  57.1384090 150.4462260
   8.9047460  65.5888630 144.5935660   8.6188970  65.1753770 143.7789840
   8.7067010  66.5176340 144.4736180   3.6097420  60.6441940 143.6383260
   3.0607520  61.0911240 144.2826000   4.2316680  60.1391190 144.1620930
   1.7900180  58.6270470 142.7825660   2.3105840  57.9119490 142.4166810
   2.4368580  59.2656340 143.0826170   5.6519750  50.4874320 145.0093600
   5.9322040  49.6442220 145.3653020   4.8785480  50.7197430 145.5232350
   2.3548210  66.7082080 145.0727400   3.2499000  67.0467050 145.0946160
   2.3865840  65.9861490 144.4451680  10.5744010  62.9803570 143.1163310
   9.7436970  63.0480220 143.5870540  10.7515840  63.8707690 142.8130170
  10.0300470  59.7251050 145.6197510  10.7919380  60.2947700 145.7257200
  10.0454840  59.1578250 146.3905820  11.0360440  60.5801150 150.4639440
  11.4069270  59.7968470 150.0575410  11.6762370  61.2690250 150.2856740
  10.0819640  60.0185420 142.7770030  10.3568480  60.9264300 142.6489250
   9.8930380  59.9547950 143.7132020   6.4795250  53.0430270 144.0723660
   6.8980130  52.8561250 143.2320320   6.1731310  52.1909320 144.3826590
   9.9784980  57.9554410 147.7699460   9.6028580  57.1882340 147.3380750
   9.2488100  58.3377110 148.2574390   8.7435910  55.4385250 147.0099110
   9.2395030  55.2056120 147.7947990   8.5451980  54.5997090 146.5936750
  10.1723070  54.0746200 149.5436790  10.0622350  53.9202240 150.4819060
  10.9330660  53.5467140 149.3012200  11.0613340  51.9054120 142.7842930
  11.9862650  51.7735300 142.5761220  11.0389130  51.9846940 143.7379380
  11.1351830  52.6764780 145.4099640  10.3403330  52.6109900 145.9392550
  11.3395110  53.6115420 145.3984990   8.0770250  66.7156330 149.4038030
   8.6729320  66.3940900 148.7272450   8.3348400  66.2428150 150.1951300
   9.4310330  50.6376900 149.8707290   9.3698730  49.6938120 149.7238310
  10.2102360  50.7456990 150.4160750   5.4029890  49.3867760 150.5648480
   6.0059260  49.9587970 151.0397000   4.6622880  49.9507200 150.3422380
   8.5464490  49.7889320 145.8388760   8.7415120  50.6872770 146.1056190
   7.7594360  49.5576400 146.3321710  10.0991100  67.0290030 147.5995320
  10.2743290  66.3427770 146.9556240   9.4012670  67.5537080 147.2071990
   4.5583260  57.5855260 131.3078160   4.4777310  56.6709870 131.0369870
   4.1447680  58.0822330 130.6017870   2.6901300  59.3634280 133.1887430
   1.9143400  58.8834720 133.4786000   3.3414230  58.6839930 133.0143590
   6.7108730  63.7694470 131.9686560   6.2490260  62.9981710 132.2973730
   7.5234280  63.7960540 132.4739010   2.9372040  66.0552480 131.5890550
   2.3183480  66.5109980 131.0184990   3.7923820  66.2103940 131.1880250
   2.1310290  62.0391470 133.1957590   2.0618570  61.0981410 133.0346720
   2.8930150  62.1292880 133.7680160   3.1615460  54.8461850 133.4226520
   3.5380280  53.9733730 133.3100190   3.0634970  55.1820550 132.5316960
   6.9439580  52.3412290 130.3554860   7.7649200  51.8508860 130.3980340
   6.9773660  52.9309950 131.1086700  11.2339130  54.3579040 136.9198490
  10.5291300  54.7460750 136.4013600  11.4997050  55.0529330 137.5219420
   3.8035390  60.9391720 128.9822460   3.1852660  61.4041170 128.4185180
   4.3158640  61.6319200 129.3991970   7.1801060  54.2812670 133.1282400
   6.4756630  54.5697560 133.7085510   7.5413220  55.0912780 132.7681960
   8.7963840  63.8987800 135.3909880   8.1127360  64.5686910 135.3826550
   9.3358130  64.0968450 134.6254740  10.2487980  53.7267460 133.5191610
   9.3012890  53.7606440 133.6507040  10.5737970  54.5406410 133.9040970
   6.3322580  65.7431930 134.1055060   6.3449740  65.3394220 133.2377320
   5.7797800  66.5179220 134.0016490   7.6268000  62.4648150 129.1945230
   7.5164330  61.5222480 129.3194650   7.6236250  62.8263790 130.0807990
   5.7308020  60.6461770 135.4337670   6.1476810  60.4321880 134.5991130
   6.4547840  60.9034560 136.0046290   3.1688280  58.0913470 128.5507720
   2.2417560  58.0250850 128.7796190   3.3213100  59.0293600 128.4362960
   3.1557360  54.3630470 125.5474880   2.2161030  54.5244430 125.6327340
   3.4740620  55.0816150 125.0010870   9.6770120  59.0448990 135.5253910
   8.8488750  59.1142080 135.0504040  10.2720600  59.6303300 135.0569740
   7.1985570  59.6533770 129.0542970   6.5797990  59.3153320 128.4069270
   7.1810020  59.0093530 129.7622160   6.6412130  55.8318310 136.4708780
   6.2283310  56.6572020 136.7248770   5.9088080  55.2463350 136.2785140
   7.3312230  65.8777640 137.1589760   6.8542790  66.6849830 136.9662370
   6.6474020  65.2255970 137.3115970   5.3750270  58.8920580 126.0615720
   5.8143550  58.0543010 125.9153540   6.0878690  59.5249980 126.1479860
   3.4845650  63.8316650 130.0296960   3.9241560  64.5740980 129.6152350
   3.4232540  64.0743220 130.9535920   8.9567410  50.1463390 124.3756760
   8.6440070  50.2390220 125.2755830   9.7179880  50.7244420 124.3254190
  10.9111440  65.6389580 142.2281150  11.3871160  66.1172470 142.9070230
  11.5318600  65.5707070 141.5026650  10.3144690  62.8302430 139.3881160
  10.4407750  62.5914310 138.4698340  10.3566070  61.9986970 139.8603240
   4.1761430  66.5330430 137.9575970   4.6906100  66.4438440 138.7598400
   3.3330510  66.8790130 138.2503880   6.1515830  66.8185770 127.3859970
   5.9916970  66.5288710 128.2841800   5.9862540  66.0425900 126.8505200
   5.8541960  64.3273330 125.9457970   5.1607120  64.3250620 125.2860250
   6.5964820  63.9032650 125.5152140   5.4191890  65.9536040 130.0206460
   5.8748840  65.1725420 130.3345080   5.7584410  66.6642860 130.5647640
  10.1668700  54.8834890 140.3530900   9.5512970  55.3914560 139.8246360
   9.8465120  53.9833220 140.2956840   2.2283020  53.7226780 137.8193090
   1.7662390  53.9309800 138.6313030   1.8261130  52.9086130 137.5163760
   7.2287530  54.9435730 138.9489750   6.3781120  54.6441480 139.2698820
   7.0689320  55.1877740 138.0373570   4.3237240  56.4437480 141.0488540
   4.6490650  55.6101230 140.7090770   5.1117570  56.9666000 141.1966870
   4.9625190  55.9855200 128.5429670   4.3634080  56.7091000 128.3593290
   5.5104800  55.9231980 127.7606120   3.5690060  54.6218740 130.5732950
   3.9619630  54.9390940 129.7601640   3.9306910  53.7430620 130.6877470
   4.1545200  57.2124490 134.6683730   3.4226320  57.7211300 135.0173830
   3.7569540  56.3954470 134.3672510   4.6171110  52.6658170 134.0806670
   4.6343850  53.1166820 134.9248520   4.3686690  51.7663810 134.2940110
   8.0441860  50.0790350 139.9193050   8.3687630  49.3480010 140.4451030
   8.0798370  49.7603990 139.0174040   7.9699700  60.1915460 133.5279080
   8.6898820  60.6870750 133.1375190   7.7681520  59.5133350 132.8832950
   3.4309640  51.5853420 127.6708470   2.6174250  51.0866590 127.5953780
   3.2371590  52.4251670 127.2544820   3.3518500  60.2624520 139.4148080
   3.2855810  59.3420190 139.1605670   2.7223640  60.3599960 140.1292720
   6.1458030  55.9573070 125.9670630   7.0337650  56.2690300 125.7921970
   6.1163120  55.0845320 125.5751210   2.1418620  62.1296760 126.6458800
   2.4834320  62.8738990 126.1502120   1.3131330  62.4427880 127.0083630
   3.2835230  63.0845090 139.1651880   3.2979770  62.1526050 138.9470790
   2.5760330  63.1704850 139.8041650   8.4172300  57.2684910 125.4350490
   8.3336020  57.6999130 124.5846930   9.1366490  57.7283260 125.8677310
   9.4946440  59.7252430 138.5120460   8.7694630  60.3181210 138.3149850
  10.0221900  59.7175970 137.7133830   9.4459550  64.1227170 128.1632620
   8.8035710  63.4682790 128.4376340   9.0590210  64.5282260 127.3873290
   5.0246030  61.4512600 132.0104310   5.3769850  60.8540730 131.3505680
   4.1408360  61.1256830 132.1812560   2.7169130  64.7262660 136.2592380
   3.3611350  64.9322040 136.9365800   3.0798570  63.9651060 135.8063230
   3.9901210  62.7295010 134.9769830   4.6323440  62.0288170 135.0902000
   4.5150560  63.5093450 134.7966720   7.8356930  63.0143630 124.7008970
   7.6094510  62.2974070 125.2933610   7.4453130  62.7656070 123.8630720
   5.7638830  63.5289910 138.1805890   6.0995070  64.1156600 138.8583810
   4.8439170  63.3982620 138.4103680   7.4173180  60.9315570 126.3623130
   7.1294880  61.3928260 127.1501010   8.2125350  60.4713340 126.6307350
   4.8081010  53.8107400 136.7130750   5.1761830  52.9902610 137.0410320
   3.9479210  53.8709290 137.1286400   8.1743040  52.7664340 127.5218310
   7.5456200  52.8710010 126.8076540   7.6794960  52.9861120 128.3112190
   2.6201180  64.4869930 124.9552290   2.7213160  64.2833920 124.0254270
   1.7202920  64.2328210 125.1600070   1.7683000  56.4646990 136.9368720
   2.2668250  56.9392810 137.6020570   1.9105950  55.5410510 137.1438750
   4.1742500  51.7700950 130.3771980   4.0510280  51.7887080 129.4281490
   5.1227060  51.8179890 130.4970380   8.9749860  52.6814950 137.7797110
   8.4723460  53.4220350 138.1190920   9.7906520  53.0698950 137.4633900
   7.2671870  57.9248130 131.2258470   6.3262010  57.9398360 131.4006160
   7.5815940  57.1384090 131.6718770   9.2697450  65.0956980 132.9012730
   9.3944870  65.9188150 133.3736540  10.1363010  64.8847710 132.5536880
   4.5837890  62.4814130 141.7090850   3.9776050  62.5045730 140.9686600
   4.2792000  61.7497170 142.2458100   6.0138260  66.2094420 140.3200260
   6.9660010  66.1252440 140.2700500   5.8666480  66.8736130 140.9934050
   8.9047460  65.5888630 125.8192170   8.6188970  65.1753770 125.0046350
   8.7067010  66.5176340 125.6992690   3.6097420  60.6441940 124.8639770
   3.0607520  61.0911240 125.5082510   4.2316680  60.1391190 125.3877440
   7.6632360  61.9984040 140.7962030   8.4041830  62.3359800 140.2929490
   6.9005040  62.1676100 140.2431800   1.7900180  58.6270470 124.0082170
   2.3105840  57.9119490 123.6423320   2.4368580  59.2656340 124.3082680
   6.3378020  60.0498870 139.3317240   6.7519040  60.2043950 140.1807660
   5.4029020  60.1754090 139.4943020   6.8100190  57.3895030 141.3356390
   7.3920960  56.6347350 141.2476870   6.9861960  57.9202470 140.5587870
   3.4357150  57.7335530 138.6851010   3.5553360  57.1376670 139.4245850
   4.2951150  57.7705220 138.2652310   5.7745050  58.2872720 137.2613520
   5.2480270  58.8115340 136.6578660   6.1176390  58.9200110 137.8923250
   5.0219350  53.8922690 140.1759850   4.3334870  53.2304230 140.1109840
   5.7425370  53.4460960 140.6208310   5.6519750  50.4874320 126.2350110
   5.9322040  49.6442220 126.5909530   4.8785480  50.7197430 126.7488860
   2.3548210  66.7082080 126.2983910   3.2499000  67.0467050 126.3202670
   2.3865840  65.9861490 125.6708190   9.3342560  65.2385750 139.0050110
   8.7344550  65.2978310 138.2614030   9.4636460  64.2990730 139.1346960
  10.5744010  62.9803570 124.3419820   9.7436970  63.0480220 124.8127050
  10.7515840  63.8707690 124.0386680  10.0300470  59.7251050 126.8454020
  10.7919380  60.2947700 126.9513710  10.0454840  59.1578250 127.6162330
  11.0360440  60.5801150 131.6895950  11.4069270  59.7968470 131.2831920
  11.6762370  61.2690250 131.5113250   8.0194200  61.9637730 137.1026270
   7.2054040  62.3934890 137.3652060   8.4268400  62.5756140 136.4895320
  10.0819640  60.0185420 124.0026540  10.3568480  60.9264300 123.8745760
   9.8930380  59.9547950 124.9388530   6.4795250  53.0430270 125.2980170
   6.8980130  52.8561250 124.4576830   6.1731310  52.1909320 125.6083100
   9.9784980  57.9554410 128.9955970   9.6028580  57.1882340 128.5637260
   9.2488100  58.3377110 129.4830900   9.3684600  57.1025930 138.6295490
   9.1370690  56.8738680 137.7293440   9.6289150  58.0225480 138.5840380
   7.8072670  52.3282360 141.4075190   8.6842850  52.3365760 141.7909190
   7.8193510  51.5913200 140.7967540   9.2535940  56.1811900 132.2963210
   9.7773420  55.6874550 131.6653380   9.8395360  56.3162260 133.0410780
   9.4325660  56.2651770 135.8182760   8.4828370  56.2315310 135.9327750
   9.6138670  57.1751880 135.5832530   8.7435910  55.4385250 128.2355620
   9.2395030  55.2056120 129.0204500   8.5451980  54.5997090 127.8193260
  10.1723070  54.0746200 130.7693300  10.0622350  53.9202240 131.7075570
  10.9330660  53.5467140 130.5268710   8.5188790  50.0140330 137.2276300
   9.1561010  50.6274470 137.5935490   8.6663680  50.0500990 136.2825530
  11.0613340  51.9054120 124.0099440  11.9862650  51.7735300 123.8017730
  11.0389130  51.9846940 124.9635890  11.1351830  52.6764780 126.6356150
  10.3403330  52.6109900 127.1649060  11.3395110  53.6115420 126.6241500
   8.0770250  66.7156330 130.6294540   8.6729320  66.3940900 129.9528960
   8.3348400  66.2428150 131.4207810   1.8893270  51.1666520 140.1351400
   1.8282160  51.7588350 140.8846810   2.8293650  51.0592480 139.9901660
   4.5267830  50.8236580 139.7743690   5.1408240  51.1415870 139.1124770
   5.0717390  50.3385170 140.3939550  10.9443010  66.7228210 137.1805530
  10.4501290  67.1197080 136.4632660  10.3356300  66.0977420 137.5742810
   5.2675870  49.3868720 136.1012980   4.3935710  49.7203830 135.8985910
   5.1586620  48.9141900 136.9264850   6.1747850  51.5939590 137.4854700
   5.8461210  50.7791350 137.1056430   7.1230150  51.5509400 137.3620390
   8.6282460  67.3651630 134.4592270   8.1685430  68.1167440 134.0850290
   7.9994920  66.6458100 134.4007070   1.7973680  66.5648360 134.4609380
   2.0851490  66.3102660 133.5842390   2.3096900  66.0125720 135.0514950
   3.0150690  50.3038560 135.0405890   2.2322480  50.7784060 135.3202650
   2.7213620  49.3993390 134.9319070   7.5671760  51.0061660 133.0854980
   8.0079850  50.9506760 132.2376580   7.2979350  51.9219670 133.1565160
   9.4310330  50.6376900 131.0963800   9.3698730  49.6938120 130.9494820
  10.2102360  50.7456990 131.6417260   5.4029890  49.3867760 131.7904990
   6.0059260  49.9587970 132.2653510   4.6622880  49.9507200 131.5678890
   8.5464490  49.7889320 127.0645270   8.7415120  50.6872770 127.3312700
   7.7594360  49.5576400 127.5578220   1.8646040  67.4864460 141.8277580
   2.7913350  67.2508730 141.8713540   1.8496470  68.3136460 141.3463610
  10.0991100  67.0290030 128.8251830  10.2743290  66.3427770 128.1812750
   9.4012670  67.5537080 128.4328500   5.6525110  49.5662790 142.1699930
   5.5390560  49.8857400 143.0651450   6.4694850  49.9675300 141.8737210
   8.4323600  66.7134320 141.6518620   9.2248920  66.2183550 141.4444580
   8.7256750  67.3924460 142.2594230   4.5583260  57.5855260 112.5334670
   4.4777310  56.6709870 112.2626380   4.1447680  58.0822330 111.8274380
   2.6901300  59.3634280 114.4143940   1.9143400  58.8834720 114.7042510
   3.3414230  58.6839930 114.2400100   6.7108730  63.7694470 113.1943070
   6.2490260  62.9981710 113.5230240   7.5234280  63.7960540 113.6995520
   2.9372040  66.0552480 112.8147060   2.3183480  66.5109980 112.2441500
   3.7923820  66.2103940 112.4136760   2.1310290  62.0391470 114.4214100
   2.0618570  61.0981410 114.2603230   2.8930150  62.1292880 114.9936670
   3.1615460  54.8461850 114.6483030   3.5380280  53.9733730 114.5356700
   3.0634970  55.1820550 113.7573470   6.9439580  52.3412290 111.5811370
   7.7649200  51.8508860 111.6236850   6.9773660  52.9309950 112.3343210
  11.2339130  54.3579040 118.1455000  10.5291300  54.7460750 117.6270110
  11.4997050  55.0529330 118.7475930   3.8035390  60.9391720 110.2078970
   3.1852660  61.4041170 109.6441690   4.3158640  61.6319200 110.6248480
   7.1801060  54.2812670 114.3538910   6.4756630  54.5697560 114.9342020
   7.5413220  55.0912780 113.9938470   8.7963840  63.8987800 116.6166390
   8.1127360  64.5686910 116.6083060   9.3358130  64.0968450 115.8511250
  10.2487980  53.7267460 114.7448120   9.3012890  53.7606440 114.8763550
  10.5737970  54.5406410 115.1297480   6.3322580  65.7431930 115.3311570
   6.3449740  65.3394220 114.4633830   5.7797800  66.5179220 115.2273000
   7.6268000  62.4648150 110.4201740   7.5164330  61.5222480 110.5451160
   7.6236250  62.8263790 111.3064500   5.7308020  60.6461770 116.6594180
   6.1476810  60.4321880 115.8247640   6.4547840  60.9034560 117.2302800
   3.1688280  58.0913470 109.7764230   2.2417560  58.0250850 110.0052700
   3.3213100  59.0293600 109.6619470   3.1557360  54.3630470 106.7731390
   2.2161030  54.5244430 106.8583850   3.4740620  55.0816150 106.2267380
   9.6770120  59.0448990 116.7510420   8.8488750  59.1142080 116.2760550
  10.2720600  59.6303300 116.2826250   7.1985570  59.6533770 110.2799480
   6.5797990  59.3153320 109.6325780   7.1810020  59.0093530 110.9878670
   6.6412130  55.8318310 117.6965290   6.2283310  56.6572020 117.9505280
   5.9088080  55.2463350 117.5041650   7.3312230  65.8777640 118.3846270
   6.8542790  66.6849830 118.1918880   6.6474020  65.2255970 118.5372480
   5.3750270  58.8920580 107.2872230   5.8143550  58.0543010 107.1410050
   6.0878690  59.5249980 107.3736370   3.4845650  63.8316650 111.2553470
   3.9241560  64.5740980 110.8408860   3.4232540  64.0743220 112.1792430
   8.9567410  50.1463390 105.6013270   8.6440070  50.2390220 106.5012340
   9.7179880  50.7244420 105.5510700  10.9111440  65.6389580 123.4537660
  11.3871160  66.1172470 124.1326740  11.5318600  65.5707070 122.7283160
  10.3144690  62.8302430 120.6137670  10.4407750  62.5914310 119.6954850
  10.3566070  61.9986970 121.0859750   4.1761430  66.5330430 119.1832480
   4.6906100  66.4438440 119.9854910   3.3330510  66.8790130 119.4760390
   6.1515830  66.8185770 108.6116480   5.9916970  66.5288710 109.5098310
   5.9862540  66.0425900 108.0761710   5.8541960  64.3273330 107.1714480
   5.1607120  64.3250620 106.5116760   6.5964820  63.9032650 106.7408650
   5.4191890  65.9536040 111.2462970   5.8748840  65.1725420 111.5601590
   5.7584410  66.6642860 111.7904150  10.1668700  54.8834890 121.5787410
   9.5512970  55.3914560 121.0502870   9.8465120  53.9833220 121.5213350
   2.2283020  53.7226780 119.0449600   1.7662390  53.9309800 119.8569540
   1.8261130  52.9086130 118.7420270   7.2287530  54.9435730 120.1746260
   6.3781120  54.6441480 120.4955330   7.0689320  55.1877740 119.2630080
   4.3237240  56.4437480 122.2745050   4.6490650  55.6101230 121.9347280
   5.1117570  56.9666000 122.4223380   4.9625190  55.9855200 109.7686180
   4.3634080  56.7091000 109.5849800   5.5104800  55.9231980 108.9862630
   3.5690060  54.6218740 111.7989460   3.9619630  54.9390940 110.9858150
   3.9306910  53.7430620 111.9133980   4.1545200  57.2124490 115.8940240
   3.4226320  57.7211300 116.2430340   3.7569540  56.3954470 115.5929020
   4.6171110  52.6658170 115.3063180   4.6343850  53.1166820 116.1505030
   4.3686690  51.7663810 115.5196620   8.0441860  50.0790350 121.1449560
   8.3687630  49.3480010 121.6707540   8.0798370  49.7603990 120.2430550
   7.9699700  60.1915460 114.7535590   8.6898820  60.6870750 114.3631700
   7.7681520  59.5133350 114.1089460   3.4309640  51.5853420 108.8964980
   2.6174250  51.0866590 108.8210290   3.2371590  52.4251670 108.4801330
   3.3518500  60.2624520 120.6404590   3.2855810  59.3420190 120.3862180
   2.7223640  60.3599960 121.3549230   6.1458030  55.9573070 107.1927140
   7.0337650  56.2690300 107.0178480   6.1163120  55.0845320 106.8007720
   2.1418620  62.1296760 107.8715310   2.4834320  62.8738990 107.3758630
   1.3131330  62.4427880 108.2340140   3.2835230  63.0845090 120.3908390
   3.2979770  62.1526050 120.1727300   2.5760330  63.1704850 121.0298160
   8.4172300  57.2684910 106.6607000   8.3336020  57.6999130 105.8103440
   9.1366490  57.7283260 107.0933820   9.4946440  59.7252430 119.7376970
   8.7694630  60.3181210 119.5406360  10.0221900  59.7175970 118.9390340
   9.4459550  64.1227170 109.3889130   8.8035710  63.4682790 109.6632850
   9.0590210  64.5282260 108.6129800   5.0246030  61.4512600 113.2360820
   5.3769850  60.8540730 112.5762190   4.1408360  61.1256830 113.4069070
   2.7169130  64.7262660 117.4848890   3.3611350  64.9322040 118.1622310
   3.0798570  63.9651060 117.0319740   3.9901210  62.7295010 116.2026340
   4.6323440  62.0288170 116.3158510   4.5150560  63.5093450 116.0223230
   7.8356930  63.0143630 105.9265480   7.6094510  62.2974070 106.5190120
   7.4453130  62.7656070 105.0887230   5.7638830  63.5289910 119.4062400
   6.0995070  64.1156600 120.0840320   4.8439170  63.3982620 119.6360190
   7.4173180  60.9315570 107.5879640   7.1294880  61.3928260 108.3757520
   8.2125350  60.4713340 107.8563860   4.8081010  53.8107400 117.9387260
   5.1761830  52.9902610 118.2666830   3.9479210  53.8709290 118.3542910
   8.1743040  52.7664340 108.7474820   7.5456200  52.8710010 108.0333050
   7.6794960  52.9861120 109.5368700   2.6201180  64.4869930 106.1808800
   2.7213160  64.2833920 105.2510780   1.7202920  64.2328210 106.3856580
   1.7683000  56.4646990 118.1625230   2.2668250  56.9392810 118.8277080
   1.9105950  55.5410510 118.3695260   4.1742500  51.7700950 111.6028490
   4.0510280  51.7887080 110.6538000   5.1227060  51.8179890 111.7226890
   8.9749860  52.6814950 119.0053620   8.4723460  53.4220350 119.3447430
   9.7906520  53.0698950 118.6890410   7.2671870  57.9248130 112.4514980
   6.3262010  57.9398360 112.6262670   7.5815940  57.1384090 112.8975280
   9.2697450  65.0956980 114.1269240   9.3944870  65.9188150 114.5993050
  10.1363010  64.8847710 113.7793390   4.5837890  62.4814130 122.9347360
   3.9776050  62.5045730 122.1943110   4.2792000  61.7497170 123.4714610
   6.0138260  66.2094420 121.5456770   6.9660010  66.1252440 121.4957010
   5.8666480  66.8736130 122.2190560   8.9047460  65.5888630 107.0448680
   8.6188970  65.1753770 106.2302860   8.7067010  66.5176340 106.9249200
   3.6097420  60.6441940 106.0896280   3.0607520  61.0911240 106.7339020
   4.2316680  60.1391190 106.6133950   7.6632360  61.9984040 122.0218540
   8.4041830  62.3359800 121.5186000   6.9005040  62.1676100 121.4688310
   1.7900180  58.6270470 105.2338680   2.3105840  57.9119490 104.8679830
   2.4368580  59.2656340 105.5339190   6.3378020  60.0498870 120.5573750
   6.7519040  60.2043950 121.4064170   5.4029020  60.1754090 120.7199530
   6.8100190  57.3895030 122.5612900   7.3920960  56.6347350 122.4733380
   6.9861960  57.9202470 121.7844380   3.4357150  57.7335530 119.9107520
   3.5553360  57.1376670 120.6502360   4.2951150  57.7705220 119.4908820
   5.7745050  58.2872720 118.4870030   5.2480270  58.8115340 117.8835170
   6.1176390  58.9200110 119.1179760   5.0219350  53.8922690 121.4016360
   4.3334870  53.2304230 121.3366350   5.7425370  53.4460960 121.8464820
   5.6519750  50.4874320 107.4606620   5.9322040  49.6442220 107.8166040
   4.8785480  50.7197430 107.9745370   2.3548210  66.7082080 107.5240420
   3.2499000  67.0467050 107.5459180   2.3865840  65.9861490 106.8964700
   9.3342560  65.2385750 120.2306620   8.7344550  65.2978310 119.4870540
   9.4636460  64.2990730 120.3603470  10.5744010  62.9803570 105.5676330
   9.7436970  63.0480220 106.0383560  10.7515840  63.8707690 105.2643190
  10.0300470  59.7251050 108.0710530  10.7919380  60.2947700 108.1770220
  10.0454840  59.1578250 108.8418840  11.0360440  60.5801150 112.9152460
  11.4069270  59.7968470 112.5088430  11.6762370  61.2690250 112.7369760
   8.0194200  61.9637730 118.3282780   7.2054040  62.3934890 118.5908570
   8.4268400  62.5756140 117.7151830  10.0819640  60.0185420 105.2283050
  10.3568480  60.9264300 105.1002270   9.8930380  59.9547950 106.1645040
   6.4795250  53.0430270 106.5236680   6.8980130  52.8561250 105.6833340
   6.1731310  52.1909320 106.8339610   9.9784980  57.9554410 110.2212480
   9.6028580  57.1882340 109.7893770   9.2488100  58.3377110 110.7087410
   9.3684600  57.1025930 119.8552000   9.1370690  56.8738680 118.9549950
   9.6289150  58.0225480 119.8096890   7.8072670  52.3282360 122.6331700
   8.6842850  52.3365760 123.0165700   7.8193510  51.5913200 122.0224050
   9.2535940  56.1811900 113.5219720   9.7773420  55.6874550 112.8909890
   9.8395360  56.3162260 114.2667290   9.4325660  56.2651770 117.0439270
   8.4828370  56.2315310 117.1584260   9.6138670  57.1751880 116.8089040
   8.7435910  55.4385250 109.4612130   9.2395030  55.2056120 110.2461010
   8.5451980  54.5997090 109.0449770  10.1723070  54.0746200 111.9949810
  10.0622350  53.9202240 112.9332080  10.9330660  53.5467140 111.7525220
   8.5188790  50.0140330 118.4532810   9.1561010  50.6274470 118.8192000
   8.6663680  50.0500990 117.5082040  11.0613340  51.9054120 105.2355950
  11.9862650  51.7735300 105.0274240  11.0389130  51.9846940 106.1892400
  11.1351830  52.6764780 107.8612660  10.3403330  52.6109900 108.3905570
  11.3395110  53.6115420 107.8498010   8.0770250  66.7156330 111.8551050
   8.6729320  66.3940900 111.1785470   8.3348400  66.2428150 112.6464320
   1.8893270  51.1666520 121.3607910   1.8282160  51.7588350 122.1103320
   2.8293650  51.0592480 121.2158170   4.5267830  50.8236580 121.0000200
   5.1408240  51.1415870 120.3381280   5.0717390  50.3385170 121.6196060
  10.9443010  66.7228210 118.4062040  10.4501290  67.1197080 117.6889170
  10.3356300  66.0977420 118.7999320   5.2675870  49.3868720 117.3269490
   4.3935710  49.7203830 117.1242420   5.1586620  48.9141900 118.1521360
   6.1747850  51.5939590 118.7111210   5.8461210  50.7791350 118.3312940
   7.1230150  51.5509400 118.5876900   8.6282460  67.3651630 115.6848780
   8.1685430  68.1167440 115.3106800   7.9994920  66.6458100 115.6263580
   1.7973680  66.5648360 115.6865890   2.0851490  66.3102660 114.8098900
   2.3096900  66.0125720 116.2771460   3.0150690  50.3038560 116.2662400
   2.2322480  50.7784060 116.5459160   2.7213620  49.3993390 116.1575580
   7.5671760  51.0061660 114.3111490   8.0079850  50.9506760 113.4633090
   7.2979350  51.9219670 114.3821670   9.4310330  50.6376900 112.3220310
   9.3698730  49.6938120 112.1751330  10.2102360  50.7456990 112.8673770
   5.4029890  49.3867760 113.0161500   6.0059260  49.9587970 113.4910020
   4.6622880  49.9507200 112.7935400   8.5464490  49.7889320 108.2901780
   8.7415120  50.6872770 108.5569210   7.7594360  49.5576400 108.7834730
   1.8646040  67.4864460 123.0534090   2.7913350  67.2508730 123.0970050
   1.8496470  68.3136460 122.5720120  10.0991100  67.0290030 110.0508340
  10.2743290  66.3427770 109.4069260   9.4012670  67.5537080 109.6585010
   5.6525110  49.5662790 123.3956440   5.5390560  49.8857400 124.2907960
   6.4694850  49.9675300 123.0993720   8.4323600  66.7134320 122.8775130
   9.2248920  66.2183550 122.6701090   8.7256750  67.3924460 123.4850740
   4.5583260  57.5855260  93.7591180   4.4777310  56.6709870  93.4882890
   4.1447680  58.0822330  93.0530890   2.6901300  59.3634280  95.6400450
   1.9143400  58.8834720  95.9299020   3.3414230  58.6839930  95.4656610
   6.7108730  63.7694470  94.4199580   6.2490260  62.9981710  94.7486750
   7.5234280  63.7960540  94.9252030   2.9372040  66.0552480  94.0403570
   2.3183480  66.5109980  93.4698010   3.7923820  66.2103940  93.6393270
   2.1310290  62.0391470  95.6470610   2.0618570  61.0981410  95.4859740
   2.8930150  62.1292880  96.2193180   3.1615460  54.8461850  95.8739540
   3.5380280  53.9733730  95.7613210   3.0634970  55.1820550  94.9829980
   6.9439580  52.3412290  92.8067880   7.7649200  51.8508860  92.8493360
   6.9773660  52.9309950  93.5599720  11.2339130  54.3579040  99.3711510
  10.5291300  54.7460750  98.8526620  11.4997050  55.0529330  99.9732440
   3.8035390  60.9391720  91.4335480   3.1852660  61.4041170  90.8698200
   4.3158640  61.6319200  91.8504990   7.1801060  54.2812670  95.5795420
   6.4756630  54.5697560  96.1598530   7.5413220  55.0912780  95.2194980
   8.7963840  63.8987800  97.8422900   8.1127360  64.5686910  97.8339570
   9.3358130  64.0968450  97.0767760  10.2487980  53.7267460  95.9704630
   9.3012890  53.7606440  96.1020060  10.5737970  54.5406410  96.3553990
   6.3322580  65.7431930  96.5568080   6.3449740  65.3394220  95.6890340
   5.7797800  66.5179220  96.4529510   7.6268000  62.4648150  91.6458250
   7.5164330  61.5222480  91.7707670   7.6236250  62.8263790  92.5321010
   5.7308020  60.6461770  97.8850690   6.1476810  60.4321880  97.0504150
   6.4547840  60.9034560  98.4559310   3.1688280  58.0913470  91.0020740
   2.2417560  58.0250850  91.2309210   3.3213100  59.0293600  90.8875980
   3.1557360  54.3630470  87.9987900   2.2161030  54.5244430  88.0840360
   3.4740620  55.0816150  87.4523890   9.6770120  59.0448990  97.9766930
   8.8488750  59.1142080  97.5017060  10.2720600  59.6303300  97.5082760
   7.1985570  59.6533770  91.5055990   6.5797990  59.3153320  90.8582290
   7.1810020  59.0093530  92.2135180   6.6412130  55.8318310  98.9221800
   6.2283310  56.6572020  99.1761790   5.9088080  55.2463350  98.7298160
   7.3312230  65.8777640  99.6102780   6.8542790  66.6849830  99.4175390
   6.6474020  65.2255970  99.7628990   5.3750270  58.8920580  88.5128740
   5.8143550  58.0543010  88.3666560   6.0878690  59.5249980  88.5992880
   3.4845650  63.8316650  92.4809980   3.9241560  64.5740980  92.0665370
   3.4232540  64.0743220  93.4048940   8.9567410  50.1463390  86.8269780
   8.6440070  50.2390220  87.7268850   9.7179880  50.7244420  86.7767210
  10.9111440  65.6389580 104.6794170  11.3871160  66.1172470 105.3583250
  11.5318600  65.5707070 103.9539670  10.3144690  62.8302430 101.8394180
  10.4407750  62.5914310 100.9211360  10.3566070  61.9986970 102.3116260
   4.1761430  66.5330430 100.4088990   4.6906100  66.4438440 101.2111420
   3.3330510  66.8790130 100.7016900   6.1515830  66.8185770  89.8372990
   5.9916970  66.5288710  90.7354820   5.9862540  66.0425900  89.3018220
   5.8541960  64.3273330  88.3970990   5.1607120  64.3250620  87.7373270
   6.5964820  63.9032650  87.9665160   5.4191890  65.9536040  92.4719480
   5.8748840  65.1725420  92.7858100   5.7584410  66.6642860  93.0160660
  10.1668700  54.8834890 102.8043920   9.5512970  55.3914560 102.2759380
   9.8465120  53.9833220 102.7469860   2.2283020  53.7226780 100.2706110
   1.7662390  53.9309800 101.0826050   1.8261130  52.9086130  99.9676780
   7.2287530  54.9435730 101.4002770   6.3781120  54.6441480 101.7211840
   7.0689320  55.1877740 100.4886590   4.3237240  56.4437480 103.5001560
   4.6490650  55.6101230 103.1603790   5.1117570  56.9666000 103.6479890
   4.9625190  55.9855200  90.9942690   4.3634080  56.7091000  90.8106310
   5.5104800  55.9231980  90.2119140   3.5690060  54.6218740  93.0245970
   3.9619630  54.9390940  92.2114660   3.9306910  53.7430620  93.1390490
   4.1545200  57.2124490  97.1196750   3.4226320  57.7211300  97.4686850
   3.7569540  56.3954470  96.8185530   4.6171110  52.6658170  96.5319690
   4.6343850  53.1166820  97.3761540   4.3686690  51.7663810  96.7453130
   8.0441860  50.0790350 102.3706070   8.3687630  49.3480010 102.8964050
   8.0798370  49.7603990 101.4687060   7.9699700  60.1915460  95.9792100
   8.6898820  60.6870750  95.5888210   7.7681520  59.5133350  95.3345970
   3.4309640  51.5853420  90.1221490   2.6174250  51.0866590  90.0466800
   3.2371590  52.4251670  89.7057840   3.3518500  60.2624520 101.8661100
   3.2855810  59.3420190 101.6118690   2.7223640  60.3599960 102.5805740
   6.1458030  55.9573070  88.4183650   7.0337650  56.2690300  88.2434990
   6.1163120  55.0845320  88.0264230   2.1418620  62.1296760  89.0971820
   2.4834320  62.8738990  88.6015140   1.3131330  62.4427880  89.4596650
   3.2835230  63.0845090 101.6164900   3.2979770  62.1526050 101.3983810
   2.5760330  63.1704850 102.2554670   8.4172300  57.2684910  87.8863510
   8.3336020  57.6999130  87.0359950   9.1366490  57.7283260  88.3190330
   9.4946440  59.7252430 100.9633480   8.7694630  60.3181210 100.7662870
  10.0221900  59.7175970 100.1646850   9.4459550  64.1227170  90.6145640
   8.8035710  63.4682790  90.8889360   9.0590210  64.5282260  89.8386310
   5.0246030  61.4512600  94.4617330   5.3769850  60.8540730  93.8018700
   4.1408360  61.1256830  94.6325580   2.7169130  64.7262660  98.7105400
   3.3611350  64.9322040  99.3878820   3.0798570  63.9651060  98.2576250
   3.9901210  62.7295010  97.4282850   4.6323440  62.0288170  97.5415020
   4.5150560  63.5093450  97.2479740   7.8356930  63.0143630  87.1521990
   7.6094510  62.2974070  87.7446630   7.4453130  62.7656070  86.3143740
   5.7638830  63.5289910 100.6318910   6.0995070  64.1156600 101.3096830
   4.8439170  63.3982620 100.8616700   7.4173180  60.9315570  88.8136150
   7.1294880  61.3928260  89.6014030   8.2125350  60.4713340  89.0820370
   4.8081010  53.8107400  99.1643770   5.1761830  52.9902610  99.4923340
   3.9479210  53.8709290  99.5799420   8.1743040  52.7664340  89.9731330
   7.5456200  52.8710010  89.2589560   7.6794960  52.9861120  90.7625210
   2.6201180  64.4869930  87.4065310   2.7213160  64.2833920  86.4767290
   1.7202920  64.2328210  87.6113090   1.7683000  56.4646990  99.3881740
   2.2668250  56.9392810 100.0533590   1.9105950  55.5410510  99.5951770
   4.1742500  51.7700950  92.8285000   4.0510280  51.7887080  91.8794510
   5.1227060  51.8179890  92.9483400   8.9749860  52.6814950 100.2310130
   8.4723460  53.4220350 100.5703940   9.7906520  53.0698950  99.9146920
   7.2671870  57.9248130  93.6771490   6.3262010  57.9398360  93.8519180
   7.5815940  57.1384090  94.1231790   9.2697450  65.0956980  95.3525750
   9.3944870  65.9188150  95.8249560  10.1363010  64.8847710  95.0049900
   4.5837890  62.4814130 104.1603870   3.9776050  62.5045730 103.4199620
   4.2792000  61.7497170 104.6971120   6.0138260  66.2094420 102.7713280
   6.9660010  66.1252440 102.7213520   5.8666480  66.8736130 103.4447070
   8.9047460  65.5888630  88.2705190   8.6188970  65.1753770  87.4559370
   8.7067010  66.5176340  88.1505710   3.6097420  60.6441940  87.3152790
   3.0607520  61.0911240  87.9595530   4.2316680  60.1391190  87.8390460
   7.6632360  61.9984040 103.2475050   8.4041830  62.3359800 102.7442510
   6.9005040  62.1676100 102.6944820   1.7900180  58.6270470  86.4595190
   2.3105840  57.9119490  86.0936340   2.4368580  59.2656340  86.7595700
   6.3378020  60.0498870 101.7830260   6.7519040  60.2043950 102.6320680
   5.4029020  60.1754090 101.9456040   6.8100190  57.3895030 103.7869410
   7.3920960  56.6347350 103.6989890   6.9861960  57.9202470 103.0100890
   3.4357150  57.7335530 101.1364030   3.5553360  57.1376670 101.8758870
   4.2951150  57.7705220 100.7165330   5.7745050  58.2872720  99.7126540
   5.2480270  58.8115340  99.1091680   6.1176390  58.9200110 100.3436270
   5.0219350  53.8922690 102.6272870   4.3334870  53.2304230 102.5622860
   5.7425370  53.4460960 103.0721330   5.6519750  50.4874320  88.6863130
   5.9322040  49.6442220  89.0422550   4.8785480  50.7197430  89.2001880
   2.3548210  66.7082080  88.7496930   3.2499000  67.0467050  88.7715690
   2.3865840  65.9861490  88.1221210   9.3342560  65.2385750 101.4563130
   8.7344550  65.2978310 100.7127050   9.4636460  64.2990730 101.5859980
  10.5744010  62.9803570  86.7932840   9.7436970  63.0480220  87.2640070
  10.7515840  63.8707690  86.4899700  10.0300470  59.7251050  89.2967040
  10.7919380  60.2947700  89.4026730  10.0454840  59.1578250  90.0675350
  11.0360440  60.5801150  94.1408970  11.4069270  59.7968470  93.7344940
  11.6762370  61.2690250  93.9626270   8.0194200  61.9637730  99.5539290
   7.2054040  62.3934890  99.8165080   8.4268400  62.5756140  98.9408340
  10.0819640  60.0185420  86.4539560  10.3568480  60.9264300  86.3258780
   9.8930380  59.9547950  87.3901550   6.4795250  53.0430270  87.7493190
   6.8980130  52.8561250  86.9089850   6.1731310  52.1909320  88.0596120
   9.9784980  57.9554410  91.4468990   9.6028580  57.1882340  91.0150280
   9.2488100  58.3377110  91.9343920   9.3684600  57.1025930 101.0808510
   9.1370690  56.8738680 100.1806460   9.6289150  58.0225480 101.0353400
   7.8072670  52.3282360 103.8588210   8.6842850  52.3365760 104.2422210
   7.8193510  51.5913200 103.2480560   9.2535940  56.1811900  94.7476230
   9.7773420  55.6874550  94.1166400   9.8395360  56.3162260  95.4923800
   9.4325660  56.2651770  98.2695780   8.4828370  56.2315310  98.3840770
   9.6138670  57.1751880  98.0345550   8.7435910  55.4385250  90.6868640
   9.2395030  55.2056120  91.4717520   8.5451980  54.5997090  90.2706280
  10.1723070  54.0746200  93.2206320  10.0622350  53.9202240  94.1588590
  10.9330660  53.5467140  92.9781730   8.5188790  50.0140330  99.6789320
   9.1561010  50.6274470 100.0448510   8.6663680  50.0500990  98.7338550
  11.0613340  51.9054120  86.4612460  11.9862650  51.7735300  86.2530750
  11.0389130  51.9846940  87.4148910  11.1351830  52.6764780  89.0869170
  10.3403330  52.6109900  89.6162080  11.3395110  53.6115420  89.0754520
   8.0770250  66.7156330  93.0807560   8.6729320  66.3940900  92.4041980
   8.3348400  66.2428150  93.8720830   1.8893270  51.1666520 102.5864420
   1.8282160  51.7588350 103.3359830   2.8293650  51.0592480 102.4414680
   4.5267830  50.8236580 102.2256710   5.1408240  51.1415870 101.5637790
   5.0717390  50.3385170 102.8452570  10.9443010  66.7228210  99.6318550
  10.4501290  67.1197080  98.9145680  10.3356300  66.0977420 100.0255830
   5.2675870  49.3868720  98.5526000   4.3935710  49.7203830  98.3498930
   5.1586620  48.9141900  99.3777870   6.1747850  51.5939590  99.9367720
   5.8461210  50.7791350  99.5569450   7.1230150  51.5509400  99.8133410
   8.6282460  67.3651630  96.9105290   8.1685430  68.1167440  96.5363310
   7.9994920  66.6458100  96.8520090   1.7973680  66.5648360  96.9122400
   2.0851490  66.3102660  96.0355410   2.3096900  66.0125720  97.5027970
   3.0150690  50.3038560  97.4918910   2.2322480  50.7784060  97.7715670
   2.7213620  49.3993390  97.3832090   7.5671760  51.0061660  95.5368000
   8.0079850  50.9506760  94.6889600   7.2979350  51.9219670  95.6078180
   9.4310330  50.6376900  93.5476820   9.3698730  49.6938120  93.4007840
  10.2102360  50.7456990  94.0930280   5.4029890  49.3867760  94.2418010
   6.0059260  49.9587970  94.7166530   4.6622880  49.9507200  94.0191910
   8.5464490  49.7889320  89.5158290   8.7415120  50.6872770  89.7825720
   7.7594360  49.5576400  90.0091240   1.8646040  67.4864460 104.2790600
   2.7913350  67.2508730 104.3226560   1.8496470  68.3136460 103.7976630
  10.0991100  67.0290030  91.2764850  10.2743290  66.3427770  90.6325770
   9.4012670  67.5537080  90.8841520   5.6525110  49.5662790 104.6212950
   5.5390560  49.8857400 105.5164470   6.4694850  49.9675300 104.3250230
   8.4323600  66.7134320 104.1031640   9.2248920  66.2183550 103.8957600
   8.7256750  67.3924460 104.7107250   4.5583260  57.5855260  74.9847690
   4.4777310  56.6709870  74.7139400   4.1447680  58.0822330  74.2787400
   2.6901300  59.3634280  76.8656960   1.9143400  58.8834720  77.1555530
   3.3414230  58.6839930  76.6913120   6.7108730  63.7694470  75.6456090
   6.2490260  62.9981710  75.9743260   7.5234280  63.7960540  76.1508540
   2.9372040  66.0552480  75.2660080   2.3183480  66.5109980  74.6954520
   3.7923820  66.2103940  74.8649780   2.1310290  62.0391470  76.8727120
   2.0618570  61.0981410  76.7116250   2.8930150  62.1292880  77.4449690
   3.1615460  54.8461850  77.0996050   3.5380280  53.9733730  76.9869720
   3.0634970  55.1820550  76.2086490   6.9439580  52.3412290  74.0324390
   7.7649200  51.8508860  74.0749870   6.9773660  52.9309950  74.7856230
  11.2339130  54.3579040  80.5968020  10.5291300  54.7460750  80.0783130
  11.4997050  55.0529330  81.1988950   3.8035390  60.9391720  72.6591990
   3.1852660  61.4041170  72.0954710   4.3158640  61.6319200  73.0761500
   7.1801060  54.2812670  76.8051930   6.4756630  54.5697560  77.3855040
   7.5413220  55.0912780  76.4451490   8.7963840  63.8987800  79.0679410
   8.1127360  64.5686910  79.0596080   9.3358130  64.0968450  78.3024270
  10.2487980  53.7267460  77.1961140   9.3012890  53.7606440  77.3276570
  10.5737970  54.5406410  77.5810500   6.3322580  65.7431930  77.7824590
   6.3449740  65.3394220  76.9146850   5.7797800  66.5179220  77.6786020
   7.6268000  62.4648150  72.8714760   7.5164330  61.5222480  72.9964180
   7.6236250  62.8263790  73.7577520   5.7308020  60.6461770  79.1107200
   6.1476810  60.4321880  78.2760660   6.4547840  60.9034560  79.6815820
   3.1688280  58.0913470  72.2277250   2.2417560  58.0250850  72.4565720
   3.3213100  59.0293600  72.1132490   3.1557360  54.3630470  69.2244410
   2.2161030  54.5244430  69.3096870   3.4740620  55.0816150  68.6780400
   9.6770120  59.0448990  79.2023440   8.8488750  59.1142080  78.7273570
  10.2720600  59.6303300  78.7339270   7.1985570  59.6533770  72.7312500
   6.5797990  59.3153320  72.0838800   7.1810020  59.0093530  73.4391690
   6.6412130  55.8318310  80.1478310   6.2283310  56.6572020  80.4018300
   5.9088080  55.2463350  79.9554670   7.3312230  65.8777640  80.8359290
   6.8542790  66.6849830  80.6431900   6.6474020  65.2255970  80.9885500
   5.3750270  58.8920580  69.7385250   5.8143550  58.0543010  69.5923070
   6.0878690  59.5249980  69.8249390   3.4845650  63.8316650  73.7066490
   3.9241560  64.5740980  73.2921880   3.4232540  64.0743220  74.6305450
   8.9567410  50.1463390  68.0526290   8.6440070  50.2390220  68.9525360
   9.7179880  50.7244420  68.0023720  10.9111440  65.6389580  85.9050680
  11.3871160  66.1172470  86.5839760  11.5318600  65.5707070  85.1796180
  10.3144690  62.8302430  83.0650690  10.4407750  62.5914310  82.1467870
  10.3566070  61.9986970  83.5372770   4.1761430  66.5330430  81.6345500
   4.6906100  66.4438440  82.4367930   3.3330510  66.8790130  81.9273410
   6.1515830  66.8185770  71.0629500   5.9916970  66.5288710  71.9611330
   5.9862540  66.0425900  70.5274730   5.8541960  64.3273330  69.6227500
   5.1607120  64.3250620  68.9629780   6.5964820  63.9032650  69.1921670
   5.4191890  65.9536040  73.6975990   5.8748840  65.1725420  74.0114610
   5.7584410  66.6642860  74.2417170  10.1668700  54.8834890  84.0300430
   9.5512970  55.3914560  83.5015890   9.8465120  53.9833220  83.9726370
   2.2283020  53.7226780  81.4962620   1.7662390  53.9309800  82.3082560
   1.8261130  52.9086130  81.1933290   7.2287530  54.9435730  82.6259280
   6.3781120  54.6441480  82.9468350   7.0689320  55.1877740  81.7143100
   4.3237240  56.4437480  84.7258070   4.6490650  55.6101230  84.3860300
   5.1117570  56.9666000  84.8736400   4.9625190  55.9855200  72.2199200
   4.3634080  56.7091000  72.0362820   5.5104800  55.9231980  71.4375650
   3.5690060  54.6218740  74.2502480   3.9619630  54.9390940  73.4371170
   3.9306910  53.7430620  74.3647000   4.1545200  57.2124490  78.3453260
   3.4226320  57.7211300  78.6943360   3.7569540  56.3954470  78.0442040
   4.6171110  52.6658170  77.7576200   4.6343850  53.1166820  78.6018050
   4.3686690  51.7663810  77.9709640   8.0441860  50.0790350  83.5962580
   8.3687630  49.3480010  84.1220560   8.0798370  49.7603990  82.6943570
   7.9699700  60.1915460  77.2048610   8.6898820  60.6870750  76.8144720
   7.7681520  59.5133350  76.5602480   3.4309640  51.5853420  71.3478000
   2.6174250  51.0866590  71.2723310   3.2371590  52.4251670  70.9314350
   3.3518500  60.2624520  83.0917610   3.2855810  59.3420190  82.8375200
   2.7223640  60.3599960  83.8062250   6.1458030  55.9573070  69.6440160
   7.0337650  56.2690300  69.4691500   6.1163120  55.0845320  69.2520740
   2.1418620  62.1296760  70.3228330   2.4834320  62.8738990  69.8271650
   1.3131330  62.4427880  70.6853160   3.2835230  63.0845090  82.8421410
   3.2979770  62.1526050  82.6240320   2.5760330  63.1704850  83.4811180
   8.4172300  57.2684910  69.1120020   8.3336020  57.6999130  68.2616460
   9.1366490  57.7283260  69.5446840   9.4946440  59.7252430  82.1889990
   8.7694630  60.3181210  81.9919380  10.0221900  59.7175970  81.3903360
   9.4459550  64.1227170  71.8402150   8.8035710  63.4682790  72.1145870
   9.0590210  64.5282260  71.0642820   5.0246030  61.4512600  75.6873840
   5.3769850  60.8540730  75.0275210   4.1408360  61.1256830  75.8582090
   2.7169130  64.7262660  79.9361910   3.3611350  64.9322040  80.6135330
   3.0798570  63.9651060  79.4832760   3.9901210  62.7295010  78.6539360
   4.6323440  62.0288170  78.7671530   4.5150560  63.5093450  78.4736250
   7.8356930  63.0143630  68.3778500   7.6094510  62.2974070  68.9703140
   7.4453130  62.7656070  67.5400250   5.7638830  63.5289910  81.8575420
   6.0995070  64.1156600  82.5353340   4.8439170  63.3982620  82.0873210
   7.4173180  60.9315570  70.0392660   7.1294880  61.3928260  70.8270540
   8.2125350  60.4713340  70.3076880   4.8081010  53.8107400  80.3900280
   5.1761830  52.9902610  80.7179850   3.9479210  53.8709290  80.8055930
   8.1743040  52.7664340  71.1987840   7.5456200  52.8710010  70.4846070
   7.6794960  52.9861120  71.9881720   2.6201180  64.4869930  68.6321820
   2.7213160  64.2833920  67.7023800   1.7202920  64.2328210  68.8369600
   1.7683000  56.4646990  80.6138250   2.2668250  56.9392810  81.2790100
   1.9105950  55.5410510  80.8208280   4.1742500  51.7700950  74.0541510
   4.0510280  51.7887080  73.1051020   5.1227060  51.8179890  74.1739910
   8.9749860  52.6814950  81.4566640   8.4723460  53.4220350  81.7960450
   9.7906520  53.0698950  81.1403430   7.2671870  57.9248130  74.9028000
   6.3262010  57.9398360  75.0775690   7.5815940  57.1384090  75.3488300
   9.2697450  65.0956980  76.5782260   9.3944870  65.9188150  77.0506070
  10.1363010  64.8847710  76.2306410   4.5837890  62.4814130  85.3860380
   3.9776050  62.5045730  84.6456130   4.2792000  61.7497170  85.9227630
   6.0138260  66.2094420  83.9969790   6.9660010  66.1252440  83.9470030
   5.8666480  66.8736130  84.6703580   8.9047460  65.5888630  69.4961700
   8.6188970  65.1753770  68.6815880   8.7067010  66.5176340  69.3762220
   3.6097420  60.6441940  68.5409300   3.0607520  61.0911240  69.1852040
   4.2316680  60.1391190  69.0646970   7.6632360  61.9984040  84.4731560
   8.4041830  62.3359800  83.9699020   6.9005040  62.1676100  83.9201330
   1.7900180  58.6270470  67.6851700   2.3105840  57.9119490  67.3192850
   2.4368580  59.2656340  67.9852210   6.3378020  60.0498870  83.0086770
   6.7519040  60.2043950  83.8577190   5.4029020  60.1754090  83.1712550
   6.8100190  57.3895030  85.0125920   7.3920960  56.6347350  84.9246400
   6.9861960  57.9202470  84.2357400   3.4357150  57.7335530  82.3620540
   3.5553360  57.1376670  83.1015380   4.2951150  57.7705220  81.9421840
   5.7745050  58.2872720  80.9383050   5.2480270  58.8115340  80.3348190
   6.1176390  58.9200110  81.5692780   5.0219350  53.8922690  83.8529380
   4.3334870  53.2304230  83.7879370   5.7425370  53.4460960  84.2977840
   5.6519750  50.4874320  69.9119640   5.9322040  49.6442220  70.2679060
   4.8785480  50.7197430  70.4258390   2.3548210  66.7082080  69.9753440
   3.2499000  67.0467050  69.9972200   2.3865840  65.9861490  69.3477720
   9.3342560  65.2385750  82.6819640   8.7344550  65.2978310  81.9383560
   9.4636460  64.2990730  82.8116490  10.5744010  62.9803570  68.0189350
   9.7436970  63.0480220  68.4896580  10.7515840  63.8707690  67.7156210
  10.0300470  59.7251050  70.5223550  10.7919380  60.2947700  70.6283240
  10.0454840  59.1578250  71.2931860  11.0360440  60.5801150  75.3665480
  11.4069270  59.7968470  74.9601450  11.6762370  61.2690250  75.1882780
   8.0194200  61.9637730  80.7795800   7.2054040  62.3934890  81.0421590
   8.4268400  62.5756140  80.1664850  10.0819640  60.0185420  67.6796070
  10.3568480  60.9264300  67.5515290   9.8930380  59.9547950  68.6158060
   6.4795250  53.0430270  68.9749700   6.8980130  52.8561250  68.1346360
   6.1731310  52.1909320  69.2852630   9.9784980  57.9554410  72.6725500
   9.6028580  57.1882340  72.2406790   9.2488100  58.3377110  73.1600430
   9.3684600  57.1025930  82.3065020   9.1370690  56.8738680  81.4062970
   9.6289150  58.0225480  82.2609910   7.8072670  52.3282360  85.0844720
   8.6842850  52.3365760  85.4678720   7.8193510  51.5913200  84.4737070
   9.2535940  56.1811900  75.9732740   9.7773420  55.6874550  75.3422910
   9.8395360  56.3162260  76.7180310   9.4325660  56.2651770  79.4952290
   8.4828370  56.2315310  79.6097280   9.6138670  57.1751880  79.2602060
   8.7435910  55.4385250  71.9125150   9.2395030  55.2056120  72.6974030
   8.5451980  54.5997090  71.4962790  10.1723070  54.0746200  74.4462830
  10.0622350  53.9202240  75.3845100  10.9330660  53.5467140  74.2038240
   8.5188790  50.0140330  80.9045830   9.1561010  50.6274470  81.2705020
   8.6663680  50.0500990  79.9595060  11.0613340  51.9054120  67.6868970
  11.9862650  51.7735300  67.4787260  11.0389130  51.9846940  68.6405420
  11.1351830  52.6764780  70.3125680  10.3403330  52.6109900  70.8418590
  11.3395110  53.6115420  70.3011030   8.0770250  66.7156330  74.3064070
   8.6729320  66.3940900  73.6298490   8.3348400  66.2428150  75.0977340
   1.8893270  51.1666520  83.8120930   1.8282160  51.7588350  84.5616340
   2.8293650  51.0592480  83.6671190   4.5267830  50.8236580  83.4513220
   5.1408240  51.1415870  82.7894300   5.0717390  50.3385170  84.0709080
  10.9443010  66.7228210  80.8575060  10.4501290  67.1197080  80.1402190
  10.3356300  66.0977420  81.2512340   5.2675870  49.3868720  79.7782510
   4.3935710  49.7203830  79.5755440   5.1586620  48.9141900  80.6034380
   6.1747850  51.5939590  81.1624230   5.8461210  50.7791350  80.7825960
   7.1230150  51.5509400  81.0389920   8.6282460  67.3651630  78.1361800
   8.1685430  68.1167440  77.7619820   7.9994920  66.6458100  78.0776600
   1.7973680  66.5648360  78.1378910   2.0851490  66.3102660  77.2611920
   2.3096900  66.0125720  78.7284480   3.0150690  50.3038560  78.7175420
   2.2322480  50.7784060  78.9972180   2.7213620  49.3993390  78.6088600
   7.5671760  51.0061660  76.7624510   8.0079850  50.9506760  75.9146110
   7.2979350  51.9219670  76.8334690   9.4310330  50.6376900  74.7733330
   9.3698730  49.6938120  74.6264350  10.2102360  50.7456990  75.3186790
   5.4029890  49.3867760  75.4674520   6.0059260  49.9587970  75.9423040
   4.6622880  49.9507200  75.2448420   8.5464490  49.7889320  70.7414800
   8.7415120  50.6872770  71.0082230   7.7594360  49.5576400  71.2347750
   1.8646040  67.4864460  85.5047110   2.7913350  67.2508730  85.5483070
   1.8496470  68.3136460  85.0233140  10.0991100  67.0290030  72.5021360
  10.2743290  66.3427770  71.8582280   9.4012670  67.5537080  72.1098030
   5.6525110  49.5662790  85.8469460   5.5390560  49.8857400  86.7420980
   6.4694850  49.9675300  85.5506740   8.4323600  66.7134320  85.3288150
   9.2248920  66.2183550  85.1214110   8.7256750  67.3924460  85.9363760
   4.5583260  57.5855260  56.2104200   4.4777310  56.6709870  55.9395910
   4.1447680  58.0822330  55.5043910   2.6901300  59.3634280  58.0913470
   1.9143400  58.8834720  58.3812040   3.3414230  58.6839930  57.9169630
   6.7108730  63.7694470  56.8712600   6.2490260  62.9981710  57.1999770
   7.5234280  63.7960540  57.3765050   2.9372040  66.0552480  56.4916590
   2.3183480  66.5109980  55.9211030   3.7923820  66.2103940  56.0906290
   2.1310290  62.0391470  58.0983630   2.0618570  61.0981410  57.9372760
   2.8930150  62.1292880  58.6706200   3.1615460  54.8461850  58.3252560
   3.5380280  53.9733730  58.2126230   3.0634970  55.1820550  57.4343000
   6.9439580  52.3412290  55.2580900   7.7649200  51.8508860  55.3006380
   6.9773660  52.9309950  56.0112740  11.2339130  54.3579040  61.8224530
  10.5291300  54.7460750  61.3039640  11.4997050  55.0529330  62.4245460
   3.8035390  60.9391720  53.8848500   3.1852660  61.4041170  53.3211220
   4.3158640  61.6319200  54.3018010   7.1801060  54.2812670  58.0308440
   6.4756630  54.5697560  58.6111550   7.5413220  55.0912780  57.6708000
   8.7963840  63.8987800  60.2935920   8.1127360  64.5686910  60.2852590
   9.3358130  64.0968450  59.5280780  10.2487980  53.7267460  58.4217650
   9.3012890  53.7606440  58.5533080  10.5737970  54.5406410  58.8067010
   6.3322580  65.7431930  59.0081100   6.3449740  65.3394220  58.1403360
   5.7797800  66.5179220  58.9042530   7.6268000  62.4648150  54.0971270
   7.5164330  61.5222480  54.2220690   7.6236250  62.8263790  54.9834030
   5.7308020  60.6461770  60.3363710   6.1476810  60.4321880  59.5017170
   6.4547840  60.9034560  60.9072330   3.1688280  58.0913470  53.4533760
   2.2417560  58.0250850  53.6822230   3.3213100  59.0293600  53.3389000
   3.1557360  54.3630470  50.4500920   2.2161030  54.5244430  50.5353380
   3.4740620  55.0816150  49.9036910   9.6770120  59.0448990  60.4279950
   8.8488750  59.1142080  59.9530080  10.2720600  59.6303300  59.9595780
   7.1985570  59.6533770  53.9569010   6.5797990  59.3153320  53.3095310
   7.1810020  59.0093530  54.6648200   6.6412130  55.8318310  61.3734820
   6.2283310  56.6572020  61.6274810   5.9088080  55.2463350  61.1811180
   7.3312230  65.8777640  62.0615800   6.8542790  66.6849830  61.8688410
   6.6474020  65.2255970  62.2142010   5.3750270  58.8920580  50.9641760
   5.8143550  58.0543010  50.8179580   6.0878690  59.5249980  51.0505900
   3.4845650  63.8316650  54.9323000   3.9241560  64.5740980  54.5178390
   3.4232540  64.0743220  55.8561960   8.9567410  50.1463390  49.2782800
   8.6440070  50.2390220  50.1781870   9.7179880  50.7244420  49.2280230
  10.9111440  65.6389580  67.1307190  11.3871160  66.1172470  67.8096270
  11.5318600  65.5707070  66.4052690  10.3144690  62.8302430  64.2907200
  10.4407750  62.5914310  63.3724380  10.3566070  61.9986970  64.7629280
   4.1761430  66.5330430  62.8602010   4.6906100  66.4438440  63.6624440
   3.3330510  66.8790130  63.1529920   6.1515830  66.8185770  52.2886010
   5.9916970  66.5288710  53.1867840   5.9862540  66.0425900  51.7531240
   5.8541960  64.3273330  50.8484010   5.1607120  64.3250620  50.1886290
   6.5964820  63.9032650  50.4178180   5.4191890  65.9536040  54.9232500
   5.8748840  65.1725420  55.2371120   5.7584410  66.6642860  55.4673680
  10.1668700  54.8834890  65.2556940   9.5512970  55.3914560  64.7272400
   9.8465120  53.9833220  65.1982880   2.2283020  53.7226780  62.7219130
   1.7662390  53.9309800  63.5339070   1.8261130  52.9086130  62.4189800
   7.2287530  54.9435730  63.8515790   6.3781120  54.6441480  64.1724860
   7.0689320  55.1877740  62.9399610   4.3237240  56.4437480  65.9514580
   4.6490650  55.6101230  65.6116810   5.1117570  56.9666000  66.0992910
   4.9625190  55.9855200  53.4455710   4.3634080  56.7091000  53.2619330
   5.5104800  55.9231980  52.6632160   3.5690060  54.6218740  55.4758990
   3.9619630  54.9390940  54.6627680   3.9306910  53.7430620  55.5903510
   4.1545200  57.2124490  59.5709770   3.4226320  57.7211300  59.9199870
   3.7569540  56.3954470  59.2698550   4.6171110  52.6658170  58.9832710
   4.6343850  53.1166820  59.8274560   4.3686690  51.7663810  59.1966150
   8.0441860  50.0790350  64.8219090   8.3687630  49.3480010  65.3477070
   8.0798370  49.7603990  63.9200080   7.9699700  60.1915460  58.4305120
   8.6898820  60.6870750  58.0401230   7.7681520  59.5133350  57.7858990
   3.4309640  51.5853420  52.5734510   2.6174250  51.0866590  52.4979820
   3.2371590  52.4251670  52.1570860   3.3518500  60.2624520  64.3174120
   3.2855810  59.3420190  64.0631710   2.7223640  60.3599960  65.0318760
   6.1458030  55.9573070  50.8696670   7.0337650  56.2690300  50.6948010
   6.1163120  55.0845320  50.4777250   2.1418620  62.1296760  51.5484840
   2.4834320  62.8738990  51.0528160   1.3131330  62.4427880  51.9109670
   3.2835230  63.0845090  64.0677920   3.2979770  62.1526050  63.8496830
   2.5760330  63.1704850  64.7067690   8.4172300  57.2684910  50.3376530
   8.3336020  57.6999130  49.4872970   9.1366490  57.7283260  50.7703350
   9.4946440  59.7252430  63.4146500   8.7694630  60.3181210  63.2175890
  10.0221900  59.7175970  62.6159870   9.4459550  64.1227170  53.0658660
   8.8035710  63.4682790  53.3402380   9.0590210  64.5282260  52.2899330
   5.0246030  61.4512600  56.9130350   5.3769850  60.8540730  56.2531720
   4.1408360  61.1256830  57.0838600   2.7169130  64.7262660  61.1618420
   3.3611350  64.9322040  61.8391840   3.0798570  63.9651060  60.7089270
   3.9901210  62.7295010  59.8795870   4.6323440  62.0288170  59.9928040
   4.5150560  63.5093450  59.6992760   7.8356930  63.0143630  49.6035010
   7.6094510  62.2974070  50.1959650   7.4453130  62.7656070  48.7656760
   5.7638830  63.5289910  63.0831930   6.0995070  64.1156600  63.7609850
   4.8439170  63.3982620  63.3129720   7.4173180  60.9315570  51.2649170
   7.1294880  61.3928260  52.0527050   8.2125350  60.4713340  51.5333390
   4.8081010  53.8107400  61.6156790   5.1761830  52.9902610  61.9436360
   3.9479210  53.8709290  62.0312440   8.1743040  52.7664340  52.4244350
   7.5456200  52.8710010  51.7102580   7.6794960  52.9861120  53.2138230
   2.6201180  64.4869930  49.8578330   2.7213160  64.2833920  48.9280310
   1.7202920  64.2328210  50.0626110   1.7683000  56.4646990  61.8394760
   2.2668250  56.9392810  62.5046610   1.9105950  55.5410510  62.0464790
   4.1742500  51.7700950  55.2798020   4.0510280  51.7887080  54.3307530
   5.1227060  51.8179890  55.3996420   8.9749860  52.6814950  62.6823150
   8.4723460  53.4220350  63.0216960   9.7906520  53.0698950  62.3659940
   7.2671870  57.9248130  56.1284510   6.3262010  57.9398360  56.3032200
   7.5815940  57.1384090  56.5744810   9.2697450  65.0956980  57.8038770
   9.3944870  65.9188150  58.2762580  10.1363010  64.8847710  57.4562920
   4.5837890  62.4814130  66.6116890   3.9776050  62.5045730  65.8712640
   4.2792000  61.7497170  67.1484140   6.0138260  66.2094420  65.2226300
   6.9660010  66.1252440  65.1726540   5.8666480  66.8736130  65.8960090
   8.9047460  65.5888630  50.7218210   8.6188970  65.1753770  49.9072390
   8.7067010  66.5176340  50.6018730   3.6097420  60.6441940  49.7665810
   3.0607520  61.0911240  50.4108550   4.2316680  60.1391190  50.2903480
   7.6632360  61.9984040  65.6988070   8.4041830  62.3359800  65.1955530
   6.9005040  62.1676100  65.1457840   1.7900180  58.6270470  48.9108210
   2.3105840  57.9119490  48.5449360   2.4368580  59.2656340  49.2108720
   6.3378020  60.0498870  64.2343280   6.7519040  60.2043950  65.0833700
   5.4029020  60.1754090  64.3969060   6.8100190  57.3895030  66.2382430
   7.3920960  56.6347350  66.1502910   6.9861960  57.9202470  65.4613910
   3.4357150  57.7335530  63.5877050   3.5553360  57.1376670  64.3271890
   4.2951150  57.7705220  63.1678350   5.7745050  58.2872720  62.1639560
   5.2480270  58.8115340  61.5604700   6.1176390  58.9200110  62.7949290
   5.0219350  53.8922690  65.0785890   4.3334870  53.2304230  65.0135880
   5.7425370  53.4460960  65.5234350   5.6519750  50.4874320  51.1376150
   5.9322040  49.6442220  51.4935570   4.8785480  50.7197430  51.6514900
   2.3548210  66.7082080  51.2009950   3.2499000  67.0467050  51.2228710
   2.3865840  65.9861490  50.5734230   9.3342560  65.2385750  63.9076150
   8.7344550  65.2978310  63.1640070   9.4636460  64.2990730  64.0373000
  10.5744010  62.9803570  49.2445860   9.7436970  63.0480220  49.7153090
  10.7515840  63.8707690  48.9412720  10.0300470  59.7251050  51.7480060
  10.7919380  60.2947700  51.8539750  10.0454840  59.1578250  52.5188370
  11.0360440  60.5801150  56.5921990  11.4069270  59.7968470  56.1857960
  11.6762370  61.2690250  56.4139290   8.0194200  61.9637730  62.0052310
   7.2054040  62.3934890  62.2678100   8.4268400  62.5756140  61.3921360
  10.0819640  60.0185420  48.9052580  10.3568480  60.9264300  48.7771800
   9.8930380  59.9547950  49.8414570   6.4795250  53.0430270  50.2006210
   6.8980130  52.8561250  49.3602870   6.1731310  52.1909320  50.5109140
   9.9784980  57.9554410  53.8982010   9.6028580  57.1882340  53.4663300
   9.2488100  58.3377110  54.3856940   9.3684600  57.1025930  63.5321530
   9.1370690  56.8738680  62.6319480   9.6289150  58.0225480  63.4866420
   7.8072670  52.3282360  66.3101230   8.6842850  52.3365760  66.6935230
   7.8193510  51.5913200  65.6993580   9.2535940  56.1811900  57.1989250
   9.7773420  55.6874550  56.5679420   9.8395360  56.3162260  57.9436820
   9.4325660  56.2651770  60.7208800   8.4828370  56.2315310  60.8353790
   9.6138670  57.1751880  60.4858570   8.7435910  55.4385250  53.1381660
   9.2395030  55.2056120  53.9230540   8.5451980  54.5997090  52.7219300
  10.1723070  54.0746200  55.6719340  10.0622350  53.9202240  56.6101610
  10.9330660  53.5467140  55.4294750   8.5188790  50.0140330  62.1302340
   9.1561010  50.6274470  62.4961530   8.6663680  50.0500990  61.1851570
  11.0613340  51.9054120  48.9125480  11.9862650  51.7735300  48.7043770
  11.0389130  51.9846940  49.8661930  11.1351830  52.6764780  51.5382190
  10.3403330  52.6109900  52.0675100  11.3395110  53.6115420  51.5267540
   8.0770250  66.7156330  55.5320580   8.6729320  66.3940900  54.8555000
   8.3348400  66.2428150  56.3233850   1.8893270  51.1666520  65.0377440
   1.8282160  51.7588350  65.7872850   2.8293650  51.0592480  64.8927700
   4.5267830  50.8236580  64.6769730   5.1408240  51.1415870  64.0150810
   5.0717390  50.3385170  65.2965590  10.9443010  66.7228210  62.0831570
  10.4501290  67.1197080  61.3658700  10.3356300  66.0977420  62.4768850
   5.2675870  49.3868720  61.0039020   4.3935710  49.7203830  60.8011950
   5.1586620  48.9141900  61.8290890   6.1747850  51.5939590  62.3880740
   5.8461210  50.7791350  62.0082470   7.1230150  51.5509400  62.2646430
   8.6282460  67.3651630  59.3618310   8.1685430  68.1167440  58.9876330
   7.9994920  66.6458100  59.3033110   1.7973680  66.5648360  59.3635420
   2.0851490  66.3102660  58.4868430   2.3096900  66.0125720  59.9540990
   3.0150690  50.3038560  59.9431930   2.2322480  50.7784060  60.2228690
   2.7213620  49.3993390  59.8345110   7.5671760  51.0061660  57.9881020
   8.0079850  50.9506760  57.1402620   7.2979350  51.9219670  58.0591200
   9.4310330  50.6376900  55.9989840   9.3698730  49.6938120  55.8520860
  10.2102360  50.7456990  56.5443300   5.4029890  49.3867760  56.6931030
   6.0059260  49.9587970  57.1679550   4.6622880  49.9507200  56.4704930
   8.5464490  49.7889320  51.9671310   8.7415120  50.6872770  52.2338740
   7.7594360  49.5576400  52.4604260   1.8646040  67.4864460  66.7303620
   2.7913350  67.2508730  66.7739580   1.8496470  68.3136460  66.2489650
  10.0991100  67.0290030  53.7277870  10.2743290  66.3427770  53.0838790
   9.4012670  67.5537080  53.3354540   5.6525110  49.5662790  67.0725970
   5.5390560  49.8857400  67.9677490   6.4694850  49.9675300  66.7763250
   8.4323600  66.7134320  66.5544660   9.2248920  66.2183550  66.3470620
   8.7256750  67.3924460  67.1620270   4.5583260  57.5855260  37.4360710
   4.4777310  56.6709870  37.1652420   4.1447680  58.0822330  36.7300420
   2.6901300  59.3634280  39.3169980   1.9143400  58.8834720  39.6068550
   3.3414230  58.6839930  39.1426140   6.7108730  63.7694470  38.0969110
   6.2490260  62.9981710  38.4256280   7.5234280  63.7960540  38.6021560
   2.9372040  66.0552480  37.7173100   2.3183480  66.5109980  37.1467540
   3.7923820  66.2103940  37.3162800   2.1310290  62.0391470  39.3240140
   2.0618570  61.0981410  39.1629270   2.8930150  62.1292880  39.8962710
   3.1615460  54.8461850  39.5509070   3.5380280  53.9733730  39.4382740
   3.0634970  55.1820550  38.6599510   6.9439580  52.3412290  36.4837410
   7.7649200  51.8508860  36.5262890   6.9773660  52.9309950  37.2369250
  11.2339130  54.3579040  43.0481040  10.5291300  54.7460750  42.5296150
  11.4997050  55.0529330  43.6501970   3.8035390  60.9391720  35.1105010
   3.1852660  61.4041170  34.5467730   4.3158640  61.6319200  35.5274520
   7.1801060  54.2812670  39.2564950   6.4756630  54.5697560  39.8368060
   7.5413220  55.0912780  38.8964510   8.7963840  63.8987800  41.5192430
   8.1127360  64.5686910  41.5109100   9.3358130  64.0968450  40.7537290
  10.2487980  53.7267460  39.6474160   9.3012890  53.7606440  39.7789590
  10.5737970  54.5406410  40.0323520   6.3322580  65.7431930  40.2337610
   6.3449740  65.3394220  39.3659870   5.7797800  66.5179220  40.1299040
   7.6268000  62.4648150  35.3227780   7.5164330  61.5222480  35.4477200
   7.6236250  62.8263790  36.2090540   5.7308020  60.6461770  41.5620220
   6.1476810  60.4321880  40.7273680   6.4547840  60.9034560  42.1328840
   3.1688280  58.0913470  34.6790270   2.2417560  58.0250850  34.9078740
   3.3213100  59.0293600  34.5645510   3.1557360  54.3630470  31.6757430
   2.2161030  54.5244430  31.7609890   3.4740620  55.0816150  31.1293420
   9.6770120  59.0448990  41.6536460   8.8488750  59.1142080  41.1786590
  10.2720600  59.6303300  41.1852290   7.1985570  59.6533770  35.1825520
   6.5797990  59.3153320  34.5351820   7.1810020  59.0093530  35.8904710
   6.6412130  55.8318310  42.5991330   6.2283310  56.6572020  42.8531320
   5.9088080  55.2463350  42.4067690   7.3312230  65.8777640  43.2872310
   6.8542790  66.6849830  43.0944920   6.6474020  65.2255970  43.4398520
   5.3750270  58.8920580  32.1898270   5.8143550  58.0543010  32.0436090
   6.0878690  59.5249980  32.2762410   3.4845650  63.8316650  36.1579510
   3.9241560  64.5740980  35.7434900   3.4232540  64.0743220  37.0818470
   8.9567410  50.1463390  30.5039310   8.6440070  50.2390220  31.4038380
   9.7179880  50.7244420  30.4536740  10.9111440  65.6389580  48.3563700
  11.3871160  66.1172470  49.0352780  11.5318600  65.5707070  47.6309200
  10.3144690  62.8302430  45.5163710  10.4407750  62.5914310  44.5980890
  10.3566070  61.9986970  45.9885790   4.1761430  66.5330430  44.0858520
   4.6906100  66.4438440  44.8880950   3.3330510  66.8790130  44.3786430
   6.1515830  66.8185770  33.5142520   5.9916970  66.5288710  34.4124350
   5.9862540  66.0425900  32.9787750   5.8541960  64.3273330  32.0740520
   5.1607120  64.3250620  31.4142800   6.5964820  63.9032650  31.6434690
   5.4191890  65.9536040  36.1489010   5.8748840  65.1725420  36.4627630
   5.7584410  66.6642860  36.6930190  10.1668700  54.8834890  46.4813450
   9.5512970  55.3914560  45.9528910   9.8465120  53.9833220  46.4239390
   2.2283020  53.7226780  43.9475640   1.7662390  53.9309800  44.7595580
   1.8261130  52.9086130  43.6446310   7.2287530  54.9435730  45.0772300
   6.3781120  54.6441480  45.3981370   7.0689320  55.1877740  44.1656120
   4.3237240  56.4437480  47.1771090   4.6490650  55.6101230  46.8373320
   5.1117570  56.9666000  47.3249420   4.9625190  55.9855200  34.6712220
   4.3634080  56.7091000  34.4875840   5.5104800  55.9231980  33.8888670
   3.5690060  54.6218740  36.7015500   3.9619630  54.9390940  35.8884190
   3.9306910  53.7430620  36.8160020   4.1545200  57.2124490  40.7966280
   3.4226320  57.7211300  41.1456380   3.7569540  56.3954470  40.4955060
   4.6171110  52.6658170  40.2089220   4.6343850  53.1166820  41.0531070
   4.3686690  51.7663810  40.4222660   8.0441860  50.0790350  46.0475600
   8.3687630  49.3480010  46.5733580   8.0798370  49.7603990  45.1456590
   7.9699700  60.1915460  39.6561630   8.6898820  60.6870750  39.2657740
   7.7681520  59.5133350  39.0115500   3.4309640  51.5853420  33.7991020
   2.6174250  51.0866590  33.7236330   3.2371590  52.4251670  33.3827370
   3.3518500  60.2624520  45.5430630   3.2855810  59.3420190  45.2888220
   2.7223640  60.3599960  46.2575270   6.1458030  55.9573070  32.0953180
   7.0337650  56.2690300  31.9204520   6.1163120  55.0845320  31.7033760
   2.1418620  62.1296760  32.7741350   2.4834320  62.8738990  32.2784670
   1.3131330  62.4427880  33.1366180   3.2835230  63.0845090  45.2934430
   3.2979770  62.1526050  45.0753340   2.5760330  63.1704850  45.9324200
   8.4172300  57.2684910  31.5633040   8.3336020  57.6999130  30.7129480
   9.1366490  57.7283260  31.9959860   9.4946440  59.7252430  44.6403010
   8.7694630  60.3181210  44.4432400  10.0221900  59.7175970  43.8416380
   9.4459550  64.1227170  34.2915170   8.8035710  63.4682790  34.5658890
   9.0590210  64.5282260  33.5155840   5.0246030  61.4512600  38.1386860
   5.3769850  60.8540730  37.4788230   4.1408360  61.1256830  38.3095110
   2.7169130  64.7262660  42.3874930   3.3611350  64.9322040  43.0648350
   3.0798570  63.9651060  41.9345780   3.9901210  62.7295010  41.1052380
   4.6323440  62.0288170  41.2184550   4.5150560  63.5093450  40.9249270
   7.8356930  63.0143630  30.8291520   7.6094510  62.2974070  31.4216160
   7.4453130  62.7656070  29.9913270   5.7638830  63.5289910  44.3088440
   6.0995070  64.1156600  44.9866360   4.8439170  63.3982620  44.5386230
   7.4173180  60.9315570  32.4905680   7.1294880  61.3928260  33.2783560
   8.2125350  60.4713340  32.7589900   4.8081010  53.8107400  42.8413300
   5.1761830  52.9902610  43.1692870   3.9479210  53.8709290  43.2568950
   8.1743040  52.7664340  33.6500860   7.5456200  52.8710010  32.9359090
   7.6794960  52.9861120  34.4394740   2.6201180  64.4869930  31.0834840
   2.7213160  64.2833920  30.1536820   1.7202920  64.2328210  31.2882620
   1.7683000  56.4646990  43.0651270   2.2668250  56.9392810  43.7303120
   1.9105950  55.5410510  43.2721300   4.1742500  51.7700950  36.5054530
   4.0510280  51.7887080  35.5564040   5.1227060  51.8179890  36.6252930
   8.9749860  52.6814950  43.9079660   8.4723460  53.4220350  44.2473470
   9.7906520  53.0698950  43.5916450   7.2671870  57.9248130  37.3541020
   6.3262010  57.9398360  37.5288710   7.5815940  57.1384090  37.8001320
   9.2697450  65.0956980  39.0295280   9.3944870  65.9188150  39.5019090
  10.1363010  64.8847710  38.6819430   4.5837890  62.4814130  47.8373400
   3.9776050  62.5045730  47.0969150   4.2792000  61.7497170  48.3740650
   6.0138260  66.2094420  46.4482810   6.9660010  66.1252440  46.3983050
   5.8666480  66.8736130  47.1216600   8.9047460  65.5888630  31.9474720
   8.6188970  65.1753770  31.1328900   8.7067010  66.5176340  31.8275240
   3.6097420  60.6441940  30.9922320   3.0607520  61.0911240  31.6365060
   4.2316680  60.1391190  31.5159990   7.6632360  61.9984040  46.9244580
   8.4041830  62.3359800  46.4212040   6.9005040  62.1676100  46.3714350
   1.7900180  58.6270470  30.1364720   2.3105840  57.9119490  29.7705870
   2.4368580  59.2656340  30.4365230   6.3378020  60.0498870  45.4599790
   6.7519040  60.2043950  46.3090210   5.4029020  60.1754090  45.6225570
   6.8100190  57.3895030  47.4638940   7.3920960  56.6347350  47.3759420
   6.9861960  57.9202470  46.6870420   3.4357150  57.7335530  44.8133560
   3.5553360  57.1376670  45.5528400   4.2951150  57.7705220  44.3934860
   5.7745050  58.2872720  43.3896070   5.2480270  58.8115340  42.7861210
   6.1176390  58.9200110  44.0205800   5.0219350  53.8922690  46.3042400
   4.3334870  53.2304230  46.2392390   5.7425370  53.4460960  46.7490860
   5.6519750  50.4874320  32.3632660   5.9322040  49.6442220  32.7192080
   4.8785480  50.7197430  32.8771410   2.3548210  66.7082080  32.4266460
   3.2499000  67.0467050  32.4485220   2.3865840  65.9861490  31.7990740
   9.3342560  65.2385750  45.1332660   8.7344550  65.2978310  44.3896580
   9.4636460  64.2990730  45.2629510  10.5744010  62.9803570  30.4702370
   9.7436970  63.0480220  30.9409600  10.7515840  63.8707690  30.1669230
  10.0300470  59.7251050  32.9736570  10.7919380  60.2947700  33.0796260
  10.0454840  59.1578250  33.7444880  11.0360440  60.5801150  37.8178500
  11.4069270  59.7968470  37.4114470  11.6762370  61.2690250  37.6395800
   8.0194200  61.9637730  43.2308820   7.2054040  62.3934890  43.4934610
   8.4268400  62.5756140  42.6177870  10.0819640  60.0185420  30.1309090
  10.3568480  60.9264300  30.0028310   9.8930380  59.9547950  31.0671080
   6.4795250  53.0430270  31.4262720   6.8980130  52.8561250  30.5859380
   6.1731310  52.1909320  31.7365650   9.9784980  57.9554410  35.1238520
   9.6028580  57.1882340  34.6919810   9.2488100  58.3377110  35.6113450
   9.3684600  57.1025930  44.7578040   9.1370690  56.8738680  43.8575990
   9.6289150  58.0225480  44.7122930   7.8072670  52.3282360  47.5357740
   8.6842850  52.3365760  47.9191740   7.8193510  51.5913200  46.9250090
   9.2535940  56.1811900  38.4245760   9.7773420  55.6874550  37.7935930
   9.8395360  56.3162260  39.1693330   9.4325660  56.2651770  41.9465310
   8.4828370  56.2315310  42.0610300   9.6138670  57.1751880  41.7115080
   8.7435910  55.4385250  34.3638170   9.2395030  55.2056120  35.1487050
   8.5451980  54.5997090  33.9475810  10.1723070  54.0746200  36.8975850
  10.0622350  53.9202240  37.8358120  10.9330660  53.5467140  36.6551260
   8.5188790  50.0140330  43.3558850   9.1561010  50.6274470  43.7218040
   8.6663680  50.0500990  42.4108080  11.0613340  51.9054120  30.1381990
  11.9862650  51.7735300  29.9300280  11.0389130  51.9846940  31.0918440
  11.1351830  52.6764780  32.7638700  10.3403330  52.6109900  33.2931610
  11.3395110  53.6115420  32.7524050   8.0770250  66.7156330  36.7577090
   8.6729320  66.3940900  36.0811510   8.3348400  66.2428150  37.5490360
   1.8893270  51.1666520  46.2633950   1.8282160  51.7588350  47.0129360
   2.8293650  51.0592480  46.1184210   4.5267830  50.8236580  45.9026240
   5.1408240  51.1415870  45.2407320   5.0717390  50.3385170  46.5222100
  10.9443010  66.7228210  43.3088080  10.4501290  67.1197080  42.5915210
  10.3356300  66.0977420  43.7025360   5.2675870  49.3868720  42.2295530
   4.3935710  49.7203830  42.0268460   5.1586620  48.9141900  43.0547400
   6.1747850  51.5939590  43.6137250   5.8461210  50.7791350  43.2338980
   7.1230150  51.5509400  43.4902940   8.6282460  67.3651630  40.5874820
   8.1685430  68.1167440  40.2132840   7.9994920  66.6458100  40.5289620
   1.7973680  66.5648360  40.5891930   2.0851490  66.3102660  39.7124940
   2.3096900  66.0125720  41.1797500   3.0150690  50.3038560  41.1688440
   2.2322480  50.7784060  41.4485200   2.7213620  49.3993390  41.0601620
   7.5671760  51.0061660  39.2137530   8.0079850  50.9506760  38.3659130
   7.2979350  51.9219670  39.2847710   9.4310330  50.6376900  37.2246350
   9.3698730  49.6938120  37.0777370  10.2102360  50.7456990  37.7699810
   5.4029890  49.3867760  37.9187540   6.0059260  49.9587970  38.3936060
   4.6622880  49.9507200  37.6961440   8.5464490  49.7889320  33.1927820
   8.7415120  50.6872770  33.4595250   7.7594360  49.5576400  33.6860770
   1.8646040  67.4864460  47.9560130   2.7913350  67.2508730  47.9996090
   1.8496470  68.3136460  47.4746160  10.0991100  67.0290030  34.9534380
  10.2743290  66.3427770  34.3095300   9.4012670  67.5537080  34.5611050
   5.6525110  49.5662790  48.2982480   5.5390560  49.8857400  49.1934000
   6.4694850  49.9675300  48.0019760   8.4323600  66.7134320  47.7801170
   9.2248920  66.2183550  47.5727130   8.7256750  67.3924460  48.3876780
   4.5583260  57.5855260  18.6617220   4.4777310  56.6709870  18.3908930
   4.1447680  58.0822330  17.9556930   2.6901300  59.3634280  20.5426490
   1.9143400  58.8834720  20.8325060   3.3414230  58.6839930  20.3682650
   6.7108730  63.7694470  19.3225620   6.2490260  62.9981710  19.6512790
   7.5234280  63.7960540  19.8278070   2.9372040  66.0552480  18.9429610
   2.3183480  66.5109980  18.3724050   3.7923820  66.2103940  18.5419310
   2.1310290  62.0391470  20.5496650   2.0618570  61.0981410  20.3885780
   2.8930150  62.1292880  21.1219220   3.1615460  54.8461850  20.7765580
   3.5380280  53.9733730  20.6639250   3.0634970  55.1820550  19.8856020
   6.9439580  52.3412290  17.7093920   7.7649200  51.8508860  17.7519400
   6.9773660  52.9309950  18.4625760  11.2339130  54.3579040  24.2737550
  10.5291300  54.7460750  23.7552660  11.4997050  55.0529330  24.8758480
   3.8035390  60.9391720  16.3361520   3.1852660  61.4041170  15.7724240
   4.3158640  61.6319200  16.7531030   7.1801060  54.2812670  20.4821460
   6.4756630  54.5697560  21.0624570   7.5413220  55.0912780  20.1221020
   8.7963840  63.8987800  22.7448940   8.1127360  64.5686910  22.7365610
   9.3358130  64.0968450  21.9793800  10.2487980  53.7267460  20.8730670
   9.3012890  53.7606440  21.0046100  10.5737970  54.5406410  21.2580030
   6.3322580  65.7431930  21.4594120   6.3449740  65.3394220  20.5916380
   5.7797800  66.5179220  21.3555550   7.6268000  62.4648150  16.5484290
   7.5164330  61.5222480  16.6733710   7.6236250  62.8263790  17.4347050
   5.7308020  60.6461770  22.7876730   6.1476810  60.4321880  21.9530190
   6.4547840  60.9034560  23.3585350   3.1688280  58.0913470  15.9046780
   2.2417560  58.0250850  16.1335250   3.3213100  59.0293600  15.7902020
   3.1557360  54.3630470  12.9013940   2.2161030  54.5244430  12.9866400
   3.4740620  55.0816150  12.3549930   9.6770120  59.0448990  22.8792970
   8.8488750  59.1142080  22.4043100  10.2720600  59.6303300  22.4108800
   7.1985570  59.6533770  16.4082030   6.5797990  59.3153320  15.7608330
   7.1810020  59.0093530  17.1161220   6.6412130  55.8318310  23.8247840
   6.2283310  56.6572020  24.0787830   5.9088080  55.2463350  23.6324200
   7.3312230  65.8777640  24.5128820   6.8542790  66.6849830  24.3201430
   6.6474020  65.2255970  24.6655030   5.3750270  58.8920580  13.4154780
   5.8143550  58.0543010  13.2692600   6.0878690  59.5249980  13.5018920
   3.4845650  63.8316650  17.3836020   3.9241560  64.5740980  16.9691410
   3.4232540  64.0743220  18.3074980   8.9567410  50.1463390  11.7295820
   8.6440070  50.2390220  12.6294890   9.7179880  50.7244420  11.6793250
  10.9111440  65.6389580  29.5820210  11.3871160  66.1172470  30.2609290
  11.5318600  65.5707070  28.8565710  10.3144690  62.8302430  26.7420220
  10.4407750  62.5914310  25.8237400  10.3566070  61.9986970  27.2142300
   4.1761430  66.5330430  25.3115030   4.6906100  66.4438440  26.1137460
   3.3330510  66.8790130  25.6042940   6.1515830  66.8185770  14.7399030
   5.9916970  66.5288710  15.6380860   5.9862540  66.0425900  14.2044260
   5.8541960  64.3273330  13.2997030   5.1607120  64.3250620  12.6399310
   6.5964820  63.9032650  12.8691200   5.4191890  65.9536040  17.3745520
   5.8748840  65.1725420  17.6884140   5.7584410  66.6642860  17.9186700
  10.1668700  54.8834890  27.7069960   9.5512970  55.3914560  27.1785420
   9.8465120  53.9833220  27.6495900   2.2283020  53.7226780  25.1732150
   1.7662390  53.9309800  25.9852090   1.8261130  52.9086130  24.8702820
   7.2287530  54.9435730  26.3028810   6.3781120  54.6441480  26.6237880
   7.0689320  55.1877740  25.3912630   4.3237240  56.4437480  28.4027600
   4.6490650  55.6101230  28.0629830   5.1117570  56.9666000  28.5505930
   4.9625190  55.9855200  15.8968730   4.3634080  56.7091000  15.7132350
   5.5104800  55.9231980  15.1145180   3.5690060  54.6218740  17.9272010
   3.9619630  54.9390940  17.1140700   3.9306910  53.7430620  18.0416530
   4.1545200  57.2124490  22.0222790   3.4226320  57.7211300  22.3712890
   3.7569540  56.3954470  21.7211570   4.6171110  52.6658170  21.4345730
   4.6343850  53.1166820  22.2787580   4.3686690  51.7663810  21.6479170
   8.0441860  50.0790350  27.2732110   8.3687630  49.3480010  27.7990090
   8.0798370  49.7603990  26.3713100   7.9699700  60.1915460  20.8818140
   8.6898820  60.6870750  20.4914250   7.7681520  59.5133350  20.2372010
   3.4309640  51.5853420  15.0247530   2.6174250  51.0866590  14.9492840
   3.2371590  52.4251670  14.6083880   3.3518500  60.2624520  26.7687140
   3.2855810  59.3420190  26.5144730   2.7223640  60.3599960  27.4831780
   6.1458030  55.9573070  13.3209690   7.0337650  56.2690300  13.1461030
   6.1163120  55.0845320  12.9290270   2.1418620  62.1296760  13.9997860
   2.4834320  62.8738990  13.5041180   1.3131330  62.4427880  14.3622690
   3.2835230  63.0845090  26.5190940   3.2979770  62.1526050  26.3009850
   2.5760330  63.1704850  27.1580710   8.4172300  57.2684910  12.7889550
   8.3336020  57.6999130  11.9385990   9.1366490  57.7283260  13.2216370
   9.4946440  59.7252430  25.8659520   8.7694630  60.3181210  25.6688910
  10.0221900  59.7175970  25.0672890   9.4459550  64.1227170  15.5171680
   8.8035710  63.4682790  15.7915400   9.0590210  64.5282260  14.7412350
   5.0246030  61.4512600  19.3643370   5.3769850  60.8540730  18.7044740
   4.1408360  61.1256830  19.5351620   2.7169130  64.7262660  23.6131440
   3.3611350  64.9322040  24.2904860   3.0798570  63.9651060  23.1602290
   3.9901210  62.7295010  22.3308890   4.6323440  62.0288170  22.4441060
   4.5150560  63.5093450  22.1505780   7.8356930  63.0143630  12.0548030
   7.6094510  62.2974070  12.6472670   7.4453130  62.7656070  11.2169780
   5.7638830  63.5289910  25.5344950   6.0995070  64.1156600  26.2122870
   4.8439170  63.3982620  25.7642740   7.4173180  60.9315570  13.7162190
   7.1294880  61.3928260  14.5040070   8.2125350  60.4713340  13.9846410
   4.8081010  53.8107400  24.0669810   5.1761830  52.9902610  24.3949380
   3.9479210  53.8709290  24.4825460   8.1743040  52.7664340  14.8757370
   7.5456200  52.8710010  14.1615600   7.6794960  52.9861120  15.6651250
   2.6201180  64.4869930  12.3091350   2.7213160  64.2833920  11.3793330
   1.7202920  64.2328210  12.5139130   1.7683000  56.4646990  24.2907780
   2.2668250  56.9392810  24.9559630   1.9105950  55.5410510  24.4977810
   4.1742500  51.7700950  17.7311040   4.0510280  51.7887080  16.7820550
   5.1227060  51.8179890  17.8509440   8.9749860  52.6814950  25.1336170
   8.4723460  53.4220350  25.4729980   9.7906520  53.0698950  24.8172960
   7.2671870  57.9248130  18.5797530   6.3262010  57.9398360  18.7545220
   7.5815940  57.1384090  19.0257830   9.2697450  65.0956980  20.2551790
   9.3944870  65.9188150  20.7275600  10.1363010  64.8847710  19.9075940
   4.5837890  62.4814130  29.0629910   3.9776050  62.5045730  28.3225660
   4.2792000  61.7497170  29.5997160   6.0138260  66.2094420  27.6739320
   6.9660010  66.1252440  27.6239560   5.8666480  66.8736130  28.3473110
   8.9047460  65.5888630  13.1731230   8.6188970  65.1753770  12.3585410
   8.7067010  66.5176340  13.0531750   3.6097420  60.6441940  12.2178830
   3.0607520  61.0911240  12.8621570   4.2316680  60.1391190  12.7416500
   7.6632360  61.9984040  28.1501090   8.4041830  62.3359800  27.6468550
   6.9005040  62.1676100  27.5970860   1.7900180  58.6270470  11.3621230
   2.3105840  57.9119490  10.9962380   2.4368580  59.2656340  11.6621740
   6.3378020  60.0498870  26.6856300   6.7519040  60.2043950  27.5346720
   5.4029020  60.1754090  26.8482080   6.8100190  57.3895030  28.6895450
   7.3920960  56.6347350  28.6015930   6.9861960  57.9202470  27.9126930
   3.4357150  57.7335530  26.0390070   3.5553360  57.1376670  26.7784910
   4.2951150  57.7705220  25.6191370   5.7745050  58.2872720  24.6152580
   5.2480270  58.8115340  24.0117720   6.1176390  58.9200110  25.2462310
   5.0219350  53.8922690  27.5298910   4.3334870  53.2304230  27.4648900
   5.7425370  53.4460960  27.9747370   5.6519750  50.4874320  13.5889170
   5.9322040  49.6442220  13.9448590   4.8785480  50.7197430  14.1027920
   2.3548210  66.7082080  13.6522970   3.2499000  67.0467050  13.6741730
   2.3865840  65.9861490  13.0247250   9.3342560  65.2385750  26.3589170
   8.7344550  65.2978310  25.6153090   9.4636460  64.2990730  26.4886020
  10.5744010  62.9803570  11.6958880   9.7436970  63.0480220  12.1666110
  10.7515840  63.8707690  11.3925740  10.0300470  59.7251050  14.1993080
  10.7919380  60.2947700  14.3052770  10.0454840  59.1578250  14.9701390
  11.0360440  60.5801150  19.0435010  11.4069270  59.7968470  18.6370980
  11.6762370  61.2690250  18.8652310   8.0194200  61.9637730  24.4565330
   7.2054040  62.3934890  24.7191120   8.4268400  62.5756140  23.8434380
  10.0819640  60.0185420  11.3565600  10.3568480  60.9264300  11.2284820
   9.8930380  59.9547950  12.2927590   6.4795250  53.0430270  12.6519230
   6.8980130  52.8561250  11.8115890   6.1731310  52.1909320  12.9622160
   9.9784980  57.9554410  16.3495030   9.6028580  57.1882340  15.9176320
   9.2488100  58.3377110  16.8369960   9.3684600  57.1025930  25.9834550
   9.1370690  56.8738680  25.0832500   9.6289150  58.0225480  25.9379440
   7.8072670  52.3282360  28.7614250   8.6842850  52.3365760  29.1448250
   7.8193510  51.5913200  28.1506600   9.2535940  56.1811900  19.6502270
   9.7773420  55.6874550  19.0192440   9.8395360  56.3162260  20.3949840
   9.4325660  56.2651770  23.1721820   8.4828370  56.2315310  23.2866810
   9.6138670  57.1751880  22.9371590   8.7435910  55.4385250  15.5894680
   9.2395030  55.2056120  16.3743560   8.5451980  54.5997090  15.1732320
  10.1723070  54.0746200  18.1232360  10.0622350  53.9202240  19.0614630
  10.9330660  53.5467140  17.8807770   8.5188790  50.0140330  24.5815360
   9.1561010  50.6274470  24.9474550   8.6663680  50.0500990  23.6364590
  11.0613340  51.9054120  11.3638500  11.9862650  51.7735300  11.1556790
  11.0389130  51.9846940  12.3174950  11.1351830  52.6764780  13.9895210
  10.3403330  52.6109900  14.5188120  11.3395110  53.6115420  13.9780560
   8.0770250  66.7156330  17.9833600   8.6729320  66.3940900  17.3068020
   8.3348400  66.2428150  18.7746870   1.8893270  51.1666520  27.4890460
   1.8282160  51.7588350  28.2385870   2.8293650  51.0592480  27.3440720
   4.5267830  50.8236580  27.1282750   5.1408240  51.1415870  26.4663830
   5.0717390  50.3385170  27.7478610  10.9443010  66.7228210  24.5344590
  10.4501290  67.1197080  23.8171720  10.3356300  66.0977420  24.9281870
   5.2675870  49.3868720  23.4552040   4.3935710  49.7203830  23.2524970
   5.1586620  48.9141900  24.2803910   6.1747850  51.5939590  24.8393760
   5.8461210  50.7791350  24.4595490   7.1230150  51.5509400  24.7159450
   8.6282460  67.3651630  21.8131330   8.1685430  68.1167440  21.4389350
   7.9994920  66.6458100  21.7546130   1.7973680  66.5648360  21.8148440
   2.0851490  66.3102660  20.9381450   2.3096900  66.0125720  22.4054010
   3.0150690  50.3038560  22.3944950   2.2322480  50.7784060  22.6741710
   2.7213620  49.3993390  22.2858130   7.5671760  51.0061660  20.4394040
   8.0079850  50.9506760  19.5915640   7.2979350  51.9219670  20.5104220
   9.4310330  50.6376900  18.4502860   9.3698730  49.6938120  18.3033880
  10.2102360  50.7456990  18.9956320   5.4029890  49.3867760  19.1444050
   6.0059260  49.9587970  19.6192570   4.6622880  49.9507200  18.9217950
   8.5464490  49.7889320  14.4184330   8.7415120  50.6872770  14.6851760
   7.7594360  49.5576400  14.9117280   1.8646040  67.4864460  29.1816640
   2.7913350  67.2508730  29.2252600   1.8496470  68.3136460  28.7002670
  10.0991100  67.0290030  16.1790890  10.2743290  66.3427770  15.5351810
   9.4012670  67.5537080  15.7867560   5.6525110  49.5662790  29.5238990
   5.5390560  49.8857400  30.4190510   6.4694850  49.9675300  29.2276270
   8.4323600  66.7134320  29.0057680   9.2248920  66.2183550  28.7983640
   8.7256750  67.3924460  29.6133290   2.6901300  59.3634280   1.7683000
   1.9143400  58.8834720   2.0581570   3.3414230  58.6839930   1.5939160
   2.1310290  62.0391470   1.7753160   2.0618570  61.0981410   1.6142290
   2.8930150  62.1292880   2.3475730  11.2339130  54.3579040   5.4994060
  10.5291300  54.7460750   4.9809170  11.4997050  55.0529330   6.1014990
   8.7963840  63.8987800   3.9705450   8.1127360  64.5686910   3.9622120
   9.3358130  64.0968450   3.2050310  10.2487980  53.7267460   2.0987180
   9.3012890  53.7606440   2.2302610  10.5737970  54.5406410   2.4836540
   6.3322580  65.7431930   2.6850630   6.3449740  65.3394220   1.8172890
   5.7797800  66.5179220   2.5812060   5.7308020  60.6461770   4.0133240
   6.1476810  60.4321880   3.1786700   6.4547840  60.9034560   4.5841860
   9.6770120  59.0448990   4.1049480   8.8488750  59.1142080   3.6299610
  10.2720600  59.6303300   3.6365310   6.6412130  55.8318310   5.0504350
   6.2283310  56.6572020   5.3044340   5.9088080  55.2463350   4.8580710
   7.3312230  65.8777640   5.7385330   6.8542790  66.6849830   5.5457940
   6.6474020  65.2255970   5.8911540  10.9111440  65.6389580  10.8076720
  11.3871160  66.1172470  11.4865800  11.5318600  65.5707070  10.0822220
  10.3144690  62.8302430   7.9676730  10.4407750  62.5914310   7.0493910
  10.3566070  61.9986970   8.4398810   4.1761430  66.5330430   6.5371540
   4.6906100  66.4438440   7.3393970   3.3330510  66.8790130   6.8299450
  10.1668700  54.8834890   8.9326470   9.5512970  55.3914560   8.4041930
   9.8465120  53.9833220   8.8752410   2.2283020  53.7226780   6.3988660
   1.7662390  53.9309800   7.2108600   1.8261130  52.9086130   6.0959330
   7.2287530  54.9435730   7.5285320   6.3781120  54.6441480   7.8494390
   7.0689320  55.1877740   6.6169140   4.3237240  56.4437480   9.6284110
   4.6490650  55.6101230   9.2886340   5.1117570  56.9666000   9.7762440
   4.1545200  57.2124490   3.2479300   3.4226320  57.7211300   3.5969400
   3.7569540  56.3954470   2.9468080   4.6171110  52.6658170   2.6602240
   4.6343850  53.1166820   3.5044090   4.3686690  51.7663810   2.8735680
   8.0441860  50.0790350   8.4988620   8.3687630  49.3480010   9.0246600
   8.0798370  49.7603990   7.5969610   7.9699700  60.1915460   2.1074650
   8.6898820  60.6870750   1.7170760   7.7681520  59.5133350   1.4628520
   3.3518500  60.2624520   7.9943650   3.2855810  59.3420190   7.7401240
   2.7223640  60.3599960   8.7088290   3.2835230  63.0845090   7.7447450
   3.2979770  62.1526050   7.5266360   2.5760330  63.1704850   8.3837220
   9.4946440  59.7252430   7.0916030   8.7694630  60.3181210   6.8945420
  10.0221900  59.7175970   6.2929400   2.7169130  64.7262660   4.8387950
   3.3611350  64.9322040   5.5161370   3.0798570  63.9651060   4.3858800
   3.9901210  62.7295010   3.5565400   4.6323440  62.0288170   3.6697570
   4.5150560  63.5093450   3.3762290   5.7638830  63.5289910   6.7601460
   6.0995070  64.1156600   7.4379380   4.8439170  63.3982620   6.9899250
   4.8081010  53.8107400   5.2926320   5.1761830  52.9902610   5.6205890
   3.9479210  53.8709290   5.7081970   1.7683000  56.4646990   5.5164290
   2.2668250  56.9392810   6.1816140   1.9105950  55.5410510   5.7234320
   8.9749860  52.6814950   6.3592680   8.4723460  53.4220350   6.6986490
   9.7906520  53.0698950   6.0429470   4.5837890  62.4814130  10.2886420
   3.9776050  62.5045730   9.5482170   4.2792000  61.7497170  10.8253670
   6.0138260  66.2094420   8.8995830   6.9660010  66.1252440   8.8496070
   5.8666480  66.8736130   9.5729620   7.6632360  61.9984040   9.3757600
   8.4041830  62.3359800   8.8725060   6.9005040  62.1676100   8.8227370
   6.3378020  60.0498870   7.9112810   6.7519040  60.2043950   8.7603230
   5.4029020  60.1754090   8.0738590   6.8100190  57.3895030   9.9151960
   7.3920960  56.6347350   9.8272440   6.9861960  57.9202470   9.1383440
   3.4357150  57.7335530   7.2646580   3.5553360  57.1376670   8.0041420
   4.2951150  57.7705220   6.8447880   5.7745050  58.2872720   5.8409090
   5.2480270  58.8115340   5.2374230   6.1176390  58.9200110   6.4718820
   5.0219350  53.8922690   8.7555420   4.3334870  53.2304230   8.6905410
   5.7425370  53.4460960   9.2003880   9.3342560  65.2385750   7.5845680
   8.7344550  65.2978310   6.8409600   9.4636460  64.2990730   7.7142530
   8.0194200  61.9637730   5.6821840   7.2054040  62.3934890   5.9447630
   8.4268400  62.5756140   5.0690890   9.3684600  57.1025930   7.2091060
   9.1370690  56.8738680   6.3089010   9.6289150  58.0225480   7.1635950
   7.8072670  52.3282360   9.9870760   8.6842850  52.3365760  10.3704760
   7.8193510  51.5913200   9.3763110   9.4325660  56.2651770   4.3978330
   8.4828370  56.2315310   4.5123320   9.6138670  57.1751880   4.1628100
   8.5188790  50.0140330   5.8071870   9.1561010  50.6274470   6.1731060
   8.6663680  50.0500990   4.8621100   1.8893270  51.1666520   8.7146970
   1.8282160  51.7588350   9.4642380   2.8293650  51.0592480   8.5697230
   4.5267830  50.8236580   8.3539260   5.1408240  51.1415870   7.6920340
   5.0717390  50.3385170   8.9735120  10.9443010  66.7228210   5.7601100
  10.4501290  67.1197080   5.0428230  10.3356300  66.0977420   6.1538380
   5.2675870  49.3868720   4.6808550   4.3935710  49.7203830   4.4781480
   5.1586620  48.9141900   5.5060420   6.1747850  51.5939590   6.0650270
   5.8461210  50.7791350   5.6852000   7.1230150  51.5509400   5.9415960
   8.6282460  67.3651630   3.0387840   8.1685430  68.1167440   2.6645860
   7.9994920  66.6458100   2.9802640   1.7973680  66.5648360   3.0404950
   2.0851490  66.3102660   2.1637960   2.3096900  66.0125720   3.6310520
   3.0150690  50.3038560   3.6201460   2.2322480  50.7784060   3.8998220
   2.7213620  49.3993390   3.5114640   1.8646040  67.4864460  10.4073150
   2.7913350  67.2508730  10.4509110   1.8496470  68.3136460   9.9259180
   5.6525110  49.5662790  10.7495500   5.5390560  49.8857400  11.6447020
   6.4694850  49.9675300  10.4532780   8.4323600  66.7134320  10.2314190
   9.2248920  66.2183550  10.0240150   8.7256750  67.3924460  10.8389800
   4.5583260  38.8111770 150.0821650   4.4777310  37.8966380 149.8113360
   4.1447680  39.3078840 149.3761360   6.7108730  44.9950980 150.7430050
   6.2490260  44.2238220 151.0717220   7.5234280  45.0217050 151.2482500
   2.9372040  47.2808990 150.3634040   2.3183480  47.7366490 149.7928480
   3.7923820  47.4360450 149.9623740   6.9439580  33.5668800 149.1298350
   7.7649200  33.0765370 149.1723830   6.9773660  34.1566460 149.8830190
   3.8035390  42.1648230 147.7565950   3.1852660  42.6297680 147.1928670
   4.3158640  42.8575710 148.1735460   7.6268000  43.6904660 147.9688720
   7.5164330  42.7478990 148.0938140   7.6236250  44.0520300 148.8551480
   3.1688280  39.3169980 147.3251210   2.2417560  39.2507360 147.5539680
   3.3213100  40.2550110 147.2106450   3.1557360  35.5886980 144.3218370
   2.2161030  35.7500940 144.4070830   3.4740620  36.3072660 143.7754360
   7.1985570  40.8790280 147.8286460   6.5797990  40.5409830 147.1812760
   7.1810020  40.2350040 148.5365650   5.3750270  40.1177090 144.8359210
   5.8143550  39.2799520 144.6897030   6.0878690  40.7506490 144.9223350
   3.4845650  45.0573160 148.8040450   3.9241560  45.7997490 148.3895840
   3.4232540  45.2999730 149.7279410   8.9567410  31.3719900 143.1500250
   8.6440070  31.4646730 144.0499320   9.7179880  31.9500930 143.0997680
   6.1515830  48.0442280 146.1603460   5.9916970  47.7545220 147.0585290
   5.9862540  47.2682410 145.6248690   5.8541960  45.5529840 144.7201460
   5.1607120  45.5507130 144.0603740   6.5964820  45.1289160 144.2895630
   5.4191890  47.1792550 148.7949950   5.8748840  46.3981930 149.1088570
   5.7584410  47.8899370 149.3391130   4.9625190  37.2111710 147.3173160
   4.3634080  37.9347510 147.1336780   5.5104800  37.1488490 146.5349610
   3.5690060  35.8475250 149.3476440   3.9619630  36.1647450 148.5345130
   3.9306910  34.9687130 149.4620960   3.4309640  32.8109930 146.4451960
   2.6174250  32.3123100 146.3697270   3.2371590  33.6508180 146.0288310
   6.1458030  37.1829580 144.7414120   7.0337650  37.4946810 144.5665460
   6.1163120  36.3101830 144.3494700   2.1418620  43.3553270 145.4202290
   2.4834320  44.0995500 144.9245610   1.3131330  43.6684390 145.7827120
   8.4172300  38.4941420 144.2093980   8.3336020  38.9255640 143.3590420
   9.1366490  38.9539770 144.6420800   9.4459550  45.3483680 146.9376110
   8.8035710  44.6939300 147.2119830   9.0590210  45.7538770 146.1616780
   5.0246030  42.6769110 150.7847800   5.3769850  42.0797240 150.1249170
   4.1408360  42.3513340 150.9556050   7.8356930  44.2400140 143.4752460
   7.6094510  43.5230580 144.0677100   7.4453130  43.9912580 142.6374210
   7.4173180  42.1572080 145.1366620   7.1294880  42.6184770 145.9244500
   8.2125350  41.6969850 145.4050840   8.1743040  33.9920850 146.2961800
   7.5456200  34.0966520 145.5820030   7.6794960  34.2117630 147.0855680
   2.6201180  45.7126440 143.7295780   2.7213160  45.5090430 142.7997760
   1.7202920  45.4584720 143.9343560   4.1742500  32.9957460 149.1515470
   4.0510280  33.0143590 148.2024980   5.1227060  33.0436400 149.2713870
   7.2671870  39.1504640 150.0001960   6.3262010  39.1654870 150.1749650
   7.5815940  38.3640600 150.4462260   8.9047460  46.8145140 144.5935660
   8.6188970  46.4010280 143.7789840   8.7067010  47.7432850 144.4736180
   3.6097420  41.8698450 143.6383260   3.0607520  42.3167750 144.2826000
   4.2316680  41.3647700 144.1620930   1.7900180  39.8526980 142.7825660
   2.3105840  39.1376000 142.4166810   2.4368580  40.4912850 143.0826170
   5.6519750  31.7130830 145.0093600   5.9322040  30.8698730 145.3653020
   4.8785480  31.9453940 145.5232350   2.3548210  47.9338590 145.0727400
   3.2499000  48.2723560 145.0946160   2.3865840  47.2118000 144.4451680
  10.5744010  44.2060080 143.1163310   9.7436970  44.2736730 143.5870540
  10.7515840  45.0964200 142.8130170  10.0300470  40.9507560 145.6197510
  10.7919380  41.5204210 145.7257200  10.0454840  40.3834760 146.3905820
  11.0360440  41.8057660 150.4639440  11.4069270  41.0224980 150.0575410
  11.6762370  42.4946760 150.2856740  10.0819640  41.2441930 142.7770030
  10.3568480  42.1520810 142.6489250   9.8930380  41.1804460 143.7132020
   6.4795250  34.2686780 144.0723660   6.8980130  34.0817760 143.2320320
   6.1731310  33.4165830 144.3826590   9.9784980  39.1810920 147.7699460
   9.6028580  38.4138850 147.3380750   9.2488100  39.5633620 148.2574390
   8.7435910  36.6641760 147.0099110   9.2395030  36.4312630 147.7947990
   8.5451980  35.8253600 146.5936750  10.1723070  35.3002710 149.5436790
  10.0622350  35.1458750 150.4819060  10.9330660  34.7723650 149.3012200
  11.0613340  33.1310630 142.7842930  11.9862650  32.9991810 142.5761220
  11.0389130  33.2103450 143.7379380  11.1351830  33.9021290 145.4099640
  10.3403330  33.8366410 145.9392550  11.3395110  34.8371930 145.3984990
   8.0770250  47.9412840 149.4038030   8.6729320  47.6197410 148.7272450
   8.3348400  47.4684660 150.1951300   9.4310330  31.8633410 149.8707290
   9.3698730  30.9194630 149.7238310  10.2102360  31.9713500 150.4160750
   5.4029890  30.6124270 150.5648480   6.0059260  31.1844480 151.0397000
   4.6622880  31.1763710 150.3422380   8.5464490  31.0145830 145.8388760
   8.7415120  31.9129280 146.1056190   7.7594360  30.7832910 146.3321710
  10.0991100  48.2546540 147.5995320  10.2743290  47.5684280 146.9556240
   9.4012670  48.7793590 147.2071990   4.5583260  38.8111770 131.3078160
   4.4777310  37.8966380 131.0369870   4.1447680  39.3078840 130.6017870
   2.6901300  40.5890790 133.1887430   1.9143400  40.1091230 133.4786000
   3.3414230  39.9096440 133.0143590   6.7108730  44.9950980 131.9686560
   6.2490260  44.2238220 132.2973730   7.5234280  45.0217050 132.4739010
   2.9372040  47.2808990 131.5890550   2.3183480  47.7366490 131.0184990
   3.7923820  47.4360450 131.1880250   2.1310290  43.2647980 133.1957590
   2.0618570  42.3237920 133.0346720   2.8930150  43.3549390 133.7680160
   3.1615460  36.0718360 133.4226520   3.5380280  35.1990240 133.3100190
   3.0634970  36.4077060 132.5316960   6.9439580  33.5668800 130.3554860
   7.7649200  33.0765370 130.3980340   6.9773660  34.1566460 131.1086700
  11.2339130  35.5835550 136.9198490  10.5291300  35.9717260 136.4013600
  11.4997050  36.2785840 137.5219420   3.8035390  42.1648230 128.9822460
   3.1852660  42.6297680 128.4185180   4.3158640  42.8575710 129.3991970
   7.1801060  35.5069180 133.1282400   6.4756630  35.7954070 133.7085510
   7.5413220  36.3169290 132.7681960   8.7963840  45.1244310 135.3909880
   8.1127360  45.7943420 135.3826550   9.3358130  45.3224960 134.6254740
  10.2487980  34.9523970 133.5191610   9.3012890  34.9862950 133.6507040
  10.5737970  35.7662920 133.9040970   6.3322580  46.9688440 134.1055060
   6.3449740  46.5650730 133.2377320   5.7797800  47.7435730 134.0016490
   7.6268000  43.6904660 129.1945230   7.5164330  42.7478990 129.3194650
   7.6236250  44.0520300 130.0807990   5.7308020  41.8718280 135.4337670
   6.1476810  41.6578390 134.5991130   6.4547840  42.1291070 136.0046290
   3.1688280  39.3169980 128.5507720   2.2417560  39.2507360 128.7796190
   3.3213100  40.2550110 128.4362960   3.1557360  35.5886980 125.5474880
   2.2161030  35.7500940 125.6327340   3.4740620  36.3072660 125.0010870
   9.6770120  40.2705500 135.5253910   8.8488750  40.3398590 135.0504040
  10.2720600  40.8559810 135.0569740   7.1985570  40.8790280 129.0542970
   6.5797990  40.5409830 128.4069270   7.1810020  40.2350040 129.7622160
   6.6412130  37.0574820 136.4708780   6.2283310  37.8828530 136.7248770
   5.9088080  36.4719860 136.2785140   7.3312230  47.1034150 137.1589760
   6.8542790  47.9106340 136.9662370   6.6474020  46.4512480 137.3115970
   5.3750270  40.1177090 126.0615720   5.8143550  39.2799520 125.9153540
   6.0878690  40.7506490 126.1479860   3.4845650  45.0573160 130.0296960
   3.9241560  45.7997490 129.6152350   3.4232540  45.2999730 130.9535920
   8.9567410  31.3719900 124.3756760   8.6440070  31.4646730 125.2755830
   9.7179880  31.9500930 124.3254190  10.9111440  46.8646090 142.2281150
  11.3871160  47.3428980 142.9070230  11.5318600  46.7963580 141.5026650
  10.3144690  44.0558940 139.3881160  10.4407750  43.8170820 138.4698340
  10.3566070  43.2243480 139.8603240   4.1761430  47.7586940 137.9575970
   4.6906100  47.6694950 138.7598400   3.3330510  48.1046640 138.2503880
   6.1515830  48.0442280 127.3859970   5.9916970  47.7545220 128.2841800
   5.9862540  47.2682410 126.8505200   5.8541960  45.5529840 125.9457970
   5.1607120  45.5507130 125.2860250   6.5964820  45.1289160 125.5152140
   5.4191890  47.1792550 130.0206460   5.8748840  46.3981930 130.3345080
   5.7584410  47.8899370 130.5647640  10.1668700  36.1091400 140.3530900
   9.5512970  36.6171070 139.8246360   9.8465120  35.2089730 140.2956840
   2.2283020  34.9483290 137.8193090   1.7662390  35.1566310 138.6313030
   1.8261130  34.1342640 137.5163760   7.2287530  36.1692240 138.9489750
   6.3781120  35.8697990 139.2698820   7.0689320  36.4134250 138.0373570
   4.3237240  37.6693990 141.0488540   4.6490650  36.8357740 140.7090770
   5.1117570  38.1922510 141.1966870   4.9625190  37.2111710 128.5429670
   4.3634080  37.9347510 128.3593290   5.5104800  37.1488490 127.7606120
   3.5690060  35.8475250 130.5732950   3.9619630  36.1647450 129.7601640
   3.9306910  34.9687130 130.6877470   4.1545200  38.4381000 134.6683730
   3.4226320  38.9467810 135.0173830   3.7569540  37.6210980 134.3672510
   4.6171110  33.8914680 134.0806670   4.6343850  34.3423330 134.9248520
   4.3686690  32.9920320 134.2940110   8.0441860  31.3046860 139.9193050
   8.3687630  30.5736520 140.4451030   8.0798370  30.9860500 139.0174040
   7.9699700  41.4171970 133.5279080   8.6898820  41.9127260 133.1375190
   7.7681520  40.7389860 132.8832950   3.4309640  32.8109930 127.6708470
   2.6174250  32.3123100 127.5953780   3.2371590  33.6508180 127.2544820
   3.3518500  41.4881030 139.4148080   3.2855810  40.5676700 139.1605670
   2.7223640  41.5856470 140.1292720   6.1458030  37.1829580 125.9670630
   7.0337650  37.4946810 125.7921970   6.1163120  36.3101830 125.5751210
   2.1418620  43.3553270 126.6458800   2.4834320  44.0995500 126.1502120
   1.3131330  43.6684390 127.0083630   3.2835230  44.3101600 139.1651880
   3.2979770  43.3782560 138.9470790   2.5760330  44.3961360 139.8041650
   8.4172300  38.4941420 125.4350490   8.3336020  38.9255640 124.5846930
   9.1366490  38.9539770 125.8677310   9.4946440  40.9508940 138.5120460
   8.7694630  41.5437720 138.3149850  10.0221900  40.9432480 137.7133830
   9.4459550  45.3483680 128.1632620   8.8035710  44.6939300 128.4376340
   9.0590210  45.7538770 127.3873290   5.0246030  42.6769110 132.0104310
   5.3769850  42.0797240 131.3505680   4.1408360  42.3513340 132.1812560
   2.7169130  45.9519170 136.2592380   3.3611350  46.1578550 136.9365800
   3.0798570  45.1907570 135.8063230   3.9901210  43.9551520 134.9769830
   4.6323440  43.2544680 135.0902000   4.5150560  44.7349960 134.7966720
   7.8356930  44.2400140 124.7008970   7.6094510  43.5230580 125.2933610
   7.4453130  43.9912580 123.8630720   5.7638830  44.7546420 138.1805890
   6.0995070  45.3413110 138.8583810   4.8439170  44.6239130 138.4103680
   7.4173180  42.1572080 126.3623130   7.1294880  42.6184770 127.1501010
   8.2125350  41.6969850 126.6307350   4.8081010  35.0363910 136.7130750
   5.1761830  34.2159120 137.0410320   3.9479210  35.0965800 137.1286400
   8.1743040  33.9920850 127.5218310   7.5456200  34.0966520 126.8076540
   7.6794960  34.2117630 128.3112190   2.6201180  45.7126440 124.9552290
   2.7213160  45.5090430 124.0254270   1.7202920  45.4584720 125.1600070
   1.7683000  37.6903500 136.9368720   2.2668250  38.1649320 137.6020570
   1.9105950  36.7667020 137.1438750   4.1742500  32.9957460 130.3771980
   4.0510280  33.0143590 129.4281490   5.1227060  33.0436400 130.4970380
   8.9749860  33.9071460 137.7797110   8.4723460  34.6476860 138.1190920
   9.7906520  34.2955460 137.4633900   7.2671870  39.1504640 131.2258470
   6.3262010  39.1654870 131.4006160   7.5815940  38.3640600 131.6718770
   9.2697450  46.3213490 132.9012730   9.3944870  47.1444660 133.3736540
  10.1363010  46.1104220 132.5536880   4.5837890  43.7070640 141.7090850
   3.9776050  43.7302240 140.9686600   4.2792000  42.9753680 142.2458100
   6.0138260  47.4350930 140.3200260   6.9660010  47.3508950 140.2700500
   5.8666480  48.0992640 140.9934050   8.9047460  46.8145140 125.8192170
   8.6188970  46.4010280 125.0046350   8.7067010  47.7432850 125.6992690
   3.6097420  41.8698450 124.8639770   3.0607520  42.3167750 125.5082510
   4.2316680  41.3647700 125.3877440   7.6632360  43.2240550 140.7962030
   8.4041830  43.5616310 140.2929490   6.9005040  43.3932610 140.2431800
   1.7900180  39.8526980 124.0082170   2.3105840  39.1376000 123.6423320
   2.4368580  40.4912850 124.3082680   6.3378020  41.2755380 139.3317240
   6.7519040  41.4300460 140.1807660   5.4029020  41.4010600 139.4943020
   6.8100190  38.6151540 141.3356390   7.3920960  37.8603860 141.2476870
   6.9861960  39.1458980 140.5587870   3.4357150  38.9592040 138.6851010
   3.5553360  38.3633180 139.4245850   4.2951150  38.9961730 138.2652310
   5.7745050  39.5129230 137.2613520   5.2480270  40.0371850 136.6578660
   6.1176390  40.1456620 137.8923250   5.0219350  35.1179200 140.1759850
   4.3334870  34.4560740 140.1109840   5.7425370  34.6717470 140.6208310
   5.6519750  31.7130830 126.2350110   5.9322040  30.8698730 126.5909530
   4.8785480  31.9453940 126.7488860   2.3548210  47.9338590 126.2983910
   3.2499000  48.2723560 126.3202670   2.3865840  47.2118000 125.6708190
   9.3342560  46.4642260 139.0050110   8.7344550  46.5234820 138.2614030
   9.4636460  45.5247240 139.1346960  10.5744010  44.2060080 124.3419820
   9.7436970  44.2736730 124.8127050  10.7515840  45.0964200 124.0386680
  10.0300470  40.9507560 126.8454020  10.7919380  41.5204210 126.9513710
  10.0454840  40.3834760 127.6162330  11.0360440  41.8057660 131.6895950
  11.4069270  41.0224980 131.2831920  11.6762370  42.4946760 131.5113250
   8.0194200  43.1894240 137.1026270   7.2054040  43.6191400 137.3652060
   8.4268400  43.8012650 136.4895320  10.0819640  41.2441930 124.0026540
  10.3568480  42.1520810 123.8745760   9.8930380  41.1804460 124.9388530
   6.4795250  34.2686780 125.2980170   6.8980130  34.0817760 124.4576830
   6.1731310  33.4165830 125.6083100   9.9784980  39.1810920 128.9955970
   9.6028580  38.4138850 128.5637260   9.2488100  39.5633620 129.4830900
   9.3684600  38.3282440 138.6295490   9.1370690  38.0995190 137.7293440
   9.6289150  39.2481990 138.5840380   7.8072670  33.5538870 141.4075190
   8.6842850  33.5622270 141.7909190   7.8193510  32.8169710 140.7967540
   9.2535940  37.4068410 132.2963210   9.7773420  36.9131060 131.6653380
   9.8395360  37.5418770 133.0410780   9.4325660  37.4908280 135.8182760
   8.4828370  37.4571820 135.9327750   9.6138670  38.4008390 135.5832530
   8.7435910  36.6641760 128.2355620   9.2395030  36.4312630 129.0204500
   8.5451980  35.8253600 127.8193260  10.1723070  35.3002710 130.7693300
  10.0622350  35.1458750 131.7075570  10.9330660  34.7723650 130.5268710
   8.5188790  31.2396840 137.2276300   9.1561010  31.8530980 137.5935490
   8.6663680  31.2757500 136.2825530  11.0613340  33.1310630 124.0099440
  11.9862650  32.9991810 123.8017730  11.0389130  33.2103450 124.9635890
  11.1351830  33.9021290 126.6356150  10.3403330  33.8366410 127.1649060
  11.3395110  34.8371930 126.6241500   8.0770250  47.9412840 130.6294540
   8.6729320  47.6197410 129.9528960   8.3348400  47.4684660 131.4207810
   1.8893270  32.3923030 140.1351400   1.8282160  32.9844860 140.8846810
   2.8293650  32.2848990 139.9901660   4.5267830  32.0493090 139.7743690
   5.1408240  32.3672380 139.1124770   5.0717390  31.5641680 140.3939550
  10.9443010  47.9484720 137.1805530  10.4501290  48.3453590 136.4632660
  10.3356300  47.3233930 137.5742810   5.2675870  30.6125230 136.1012980
   4.3935710  30.9460340 135.8985910   5.1586620  30.1398410 136.9264850
   6.1747850  32.8196100 137.4854700   5.8461210  32.0047860 137.1056430
   7.1230150  32.7765910 137.3620390   8.6282460  48.5908140 134.4592270
   8.1685430  49.3423950 134.0850290   7.9994920  47.8714610 134.4007070
   1.7973680  47.7904870 134.4609380   2.0851490  47.5359170 133.5842390
   2.3096900  47.2382230 135.0514950   3.0150690  31.5295070 135.0405890
   2.2322480  32.0040570 135.3202650   2.7213620  30.6249900 134.9319070
   7.5671760  32.2318170 133.0854980   8.0079850  32.1763270 132.2376580
   7.2979350  33.1476180 133.1565160   9.4310330  31.8633410 131.0963800
   9.3698730  30.9194630 130.9494820  10.2102360  31.9713500 131.6417260
   5.4029890  30.6124270 131.7904990   6.0059260  31.1844480 132.2653510
   4.6622880  31.1763710 131.5678890   8.5464490  31.0145830 127.0645270
   8.7415120  31.9129280 127.3312700   7.7594360  30.7832910 127.5578220
   1.8646040  48.7120970 141.8277580   2.7913350  48.4765240 141.8713540
   1.8496470  49.5392970 141.3463610  10.0991100  48.2546540 128.8251830
  10.2743290  47.5684280 128.1812750   9.4012670  48.7793590 128.4328500
   5.6525110  30.7919300 142.1699930   5.5390560  31.1113910 143.0651450
   6.4694850  31.1931810 141.8737210   8.4323600  47.9390830 141.6518620
   9.2248920  47.4440060 141.4444580   8.7256750  48.6180970 142.2594230
   4.5583260  38.8111770 112.5334670   4.4777310  37.8966380 112.2626380
   4.1447680  39.3078840 111.8274380   2.6901300  40.5890790 114.4143940
   1.9143400  40.1091230 114.7042510   3.3414230  39.9096440 114.2400100
   6.7108730  44.9950980 113.1943070   6.2490260  44.2238220 113.5230240
   7.5234280  45.0217050 113.6995520   2.9372040  47.2808990 112.8147060
   2.3183480  47.7366490 112.2441500   3.7923820  47.4360450 112.4136760
   2.1310290  43.2647980 114.4214100   2.0618570  42.3237920 114.2603230
   2.8930150  43.3549390 114.9936670   3.1615460  36.0718360 114.6483030
   3.5380280  35.1990240 114.5356700   3.0634970  36.4077060 113.7573470
   6.9439580  33.5668800 111.5811370   7.7649200  33.0765370 111.6236850
   6.9773660  34.1566460 112.3343210  11.2339130  35.5835550 118.1455000
  10.5291300  35.9717260 117.6270110  11.4997050  36.2785840 118.7475930
   3.8035390  42.1648230 110.2078970   3.1852660  42.6297680 109.6441690
   4.3158640  42.8575710 110.6248480   7.1801060  35.5069180 114.3538910
   6.4756630  35.7954070 114.9342020   7.5413220  36.3169290 113.9938470
   8.7963840  45.1244310 116.6166390   8.1127360  45.7943420 116.6083060
   9.3358130  45.3224960 115.8511250  10.2487980  34.9523970 114.7448120
   9.3012890  34.9862950 114.8763550  10.5737970  35.7662920 115.1297480
   6.3322580  46.9688440 115.3311570   6.3449740  46.5650730 114.4633830
   5.7797800  47.7435730 115.2273000   7.6268000  43.6904660 110.4201740
   7.5164330  42.7478990 110.5451160   7.6236250  44.0520300 111.3064500
   5.7308020  41.8718280 116.6594180   6.1476810  41.6578390 115.8247640
   6.4547840  42.1291070 117.2302800   3.1688280  39.3169980 109.7764230
   2.2417560  39.2507360 110.0052700   3.3213100  40.2550110 109.6619470
   3.1557360  35.5886980 106.7731390   2.2161030  35.7500940 106.8583850
   3.4740620  36.3072660 106.2267380   9.6770120  40.2705500 116.7510420
   8.8488750  40.3398590 116.2760550  10.2720600  40.8559810 116.2826250
   7.1985570  40.8790280 110.2799480   6.5797990  40.5409830 109.6325780
   7.1810020  40.2350040 110.9878670   6.6412130  37.0574820 117.6965290
   6.2283310  37.8828530 117.9505280   5.9088080  36.4719860 117.5041650
   7.3312230  47.1034150 118.3846270   6.8542790  47.9106340 118.1918880
   6.6474020  46.4512480 118.5372480   5.3750270  40.1177090 107.2872230
   5.8143550  39.2799520 107.1410050   6.0878690  40.7506490 107.3736370
   3.4845650  45.0573160 111.2553470   3.9241560  45.7997490 110.8408860
   3.4232540  45.2999730 112.1792430   8.9567410  31.3719900 105.6013270
   8.6440070  31.4646730 106.5012340   9.7179880  31.9500930 105.5510700
  10.9111440  46.8646090 123.4537660  11.3871160  47.3428980 124.1326740
  11.5318600  46.7963580 122.7283160  10.3144690  44.0558940 120.6137670
  10.4407750  43.8170820 119.6954850  10.3566070  43.2243480 121.0859750
   4.1761430  47.7586940 119.1832480   4.6906100  47.6694950 119.9854910
   3.3330510  48.1046640 119.4760390   6.1515830  48.0442280 108.6116480
   5.9916970  47.7545220 109.5098310   5.9862540  47.2682410 108.0761710
   5.8541960  45.5529840 107.1714480   5.1607120  45.5507130 106.5116760
   6.5964820  45.1289160 106.7408650   5.4191890  47.1792550 111.2462970
   5.8748840  46.3981930 111.5601590   5.7584410  47.8899370 111.7904150
  10.1668700  36.1091400 121.5787410   9.5512970  36.6171070 121.0502870
   9.8465120  35.2089730 121.5213350   2.2283020  34.9483290 119.0449600
   1.7662390  35.1566310 119.8569540   1.8261130  34.1342640 118.7420270
   7.2287530  36.1692240 120.1746260   6.3781120  35.8697990 120.4955330
   7.0689320  36.4134250 119.2630080   4.3237240  37.6693990 122.2745050
   4.6490650  36.8357740 121.9347280   5.1117570  38.1922510 122.4223380
   4.9625190  37.2111710 109.7686180   4.3634080  37.9347510 109.5849800
   5.5104800  37.1488490 108.9862630   3.5690060  35.8475250 111.7989460
   3.9619630  36.1647450 110.9858150   3.9306910  34.9687130 111.9133980
   4.1545200  38.4381000 115.8940240   3.4226320  38.9467810 116.2430340
   3.7569540  37.6210980 115.5929020   4.6171110  33.8914680 115.3063180
   4.6343850  34.3423330 116.1505030   4.3686690  32.9920320 115.5196620
   8.0441860  31.3046860 121.1449560   8.3687630  30.5736520 121.6707540
   8.0798370  30.9860500 120.2430550   7.9699700  41.4171970 114.7535590
   8.6898820  41.9127260 114.3631700   7.7681520  40.7389860 114.1089460
   3.4309640  32.8109930 108.8964980   2.6174250  32.3123100 108.8210290
   3.2371590  33.6508180 108.4801330   3.3518500  41.4881030 120.6404590
   3.2855810  40.5676700 120.3862180   2.7223640  41.5856470 121.3549230
   6.1458030  37.1829580 107.1927140   7.0337650  37.4946810 107.0178480
   6.1163120  36.3101830 106.8007720   2.1418620  43.3553270 107.8715310
   2.4834320  44.0995500 107.3758630   1.3131330  43.6684390 108.2340140
   3.2835230  44.3101600 120.3908390   3.2979770  43.3782560 120.1727300
   2.5760330  44.3961360 121.0298160   8.4172300  38.4941420 106.6607000
   8.3336020  38.9255640 105.8103440   9.1366490  38.9539770 107.0933820
   9.4946440  40.9508940 119.7376970   8.7694630  41.5437720 119.5406360
  10.0221900  40.9432480 118.9390340   9.4459550  45.3483680 109.3889130
   8.8035710  44.6939300 109.6632850   9.0590210  45.7538770 108.6129800
   5.0246030  42.6769110 113.2360820   5.3769850  42.0797240 112.5762190
   4.1408360  42.3513340 113.4069070   2.7169130  45.9519170 117.4848890
   3.3611350  46.1578550 118.1622310   3.0798570  45.1907570 117.0319740
   3.9901210  43.9551520 116.2026340   4.6323440  43.2544680 116.3158510
   4.5150560  44.7349960 116.0223230   7.8356930  44.2400140 105.9265480
   7.6094510  43.5230580 106.5190120   7.4453130  43.9912580 105.0887230
   5.7638830  44.7546420 119.4062400   6.0995070  45.3413110 120.0840320
   4.8439170  44.6239130 119.6360190   7.4173180  42.1572080 107.5879640
   7.1294880  42.6184770 108.3757520   8.2125350  41.6969850 107.8563860
   4.8081010  35.0363910 117.9387260   5.1761830  34.2159120 118.2666830
   3.9479210  35.0965800 118.3542910   8.1743040  33.9920850 108.7474820
   7.5456200  34.0966520 108.0333050   7.6794960  34.2117630 109.5368700
   2.6201180  45.7126440 106.1808800   2.7213160  45.5090430 105.2510780
   1.7202920  45.4584720 106.3856580   1.7683000  37.6903500 118.1625230
   2.2668250  38.1649320 118.8277080   1.9105950  36.7667020 118.3695260
   4.1742500  32.9957460 111.6028490   4.0510280  33.0143590 110.6538000
   5.1227060  33.0436400 111.7226890   8.9749860  33.9071460 119.0053620
   8.4723460  34.6476860 119.3447430   9.7906520  34.2955460 118.6890410
   7.2671870  39.1504640 112.4514980   6.3262010  39.1654870 112.6262670
   7.5815940  38.3640600 112.8975280   9.2697450  46.3213490 114.1269240
   9.3944870  47.1444660 114.5993050  10.1363010  46.1104220 113.7793390
   4.5837890  43.7070640 122.9347360   3.9776050  43.7302240 122.1943110
   4.2792000  42.9753680 123.4714610   6.0138260  47.4350930 121.5456770
   6.9660010  47.3508950 121.4957010   5.8666480  48.0992640 122.2190560
   8.9047460  46.8145140 107.0448680   8.6188970  46.4010280 106.2302860
   8.7067010  47.7432850 106.9249200   3.6097420  41.8698450 106.0896280
   3.0607520  42.3167750 106.7339020   4.2316680  41.3647700 106.6133950
   7.6632360  43.2240550 122.0218540   8.4041830  43.5616310 121.5186000
   6.9005040  43.3932610 121.4688310   1.7900180  39.8526980 105.2338680
   2.3105840  39.1376000 104.8679830   2.4368580  40.4912850 105.5339190
   6.3378020  41.2755380 120.5573750   6.7519040  41.4300460 121.4064170
   5.4029020  41.4010600 120.7199530   6.8100190  38.6151540 122.5612900
   7.3920960  37.8603860 122.4733380   6.9861960  39.1458980 121.7844380
   3.4357150  38.9592040 119.9107520   3.5553360  38.3633180 120.6502360
   4.2951150  38.9961730 119.4908820   5.7745050  39.5129230 118.4870030
   5.2480270  40.0371850 117.8835170   6.1176390  40.1456620 119.1179760
   5.0219350  35.1179200 121.4016360   4.3334870  34.4560740 121.3366350
   5.7425370  34.6717470 121.8464820   5.6519750  31.7130830 107.4606620
   5.9322040  30.8698730 107.8166040   4.8785480  31.9453940 107.9745370
   2.3548210  47.9338590 107.5240420   3.2499000  48.2723560 107.5459180
   2.3865840  47.2118000 106.8964700   9.3342560  46.4642260 120.2306620
   8.7344550  46.5234820 119.4870540   9.4636460  45.5247240 120.3603470
  10.5744010  44.2060080 105.5676330   9.7436970  44.2736730 106.0383560
  10.7515840  45.0964200 105.2643190  10.0300470  40.9507560 108.0710530
  10.7919380  41.5204210 108.1770220  10.0454840  40.3834760 108.8418840
  11.0360440  41.8057660 112.9152460  11.4069270  41.0224980 112.5088430
  11.6762370  42.4946760 112.7369760   8.0194200  43.1894240 118.3282780
   7.2054040  43.6191400 118.5908570   8.4268400  43.8012650 117.7151830
  10.0819640  41.2441930 105.2283050  10.3568480  42.1520810 105.1002270
   9.8930380  41.1804460 106.1645040   6.4795250  34.2686780 106.5236680
   6.8980130  34.0817760 105.6833340   6.1731310  33.4165830 106.8339610
   9.9784980  39.1810920 110.2212480   9.6028580  38.4138850 109.7893770
   9.2488100  39.5633620 110.7087410   9.3684600  38.3282440 119.8552000
   9.1370690  38.0995190 118.9549950   9.6289150  39.2481990 119.8096890
   7.8072670  33.5538870 122.6331700   8.6842850  33.5622270 123.0165700
   7.8193510  32.8169710 122.0224050   9.2535940  37.4068410 113.5219720
   9.7773420  36.9131060 112.8909890   9.8395360  37.5418770 114.2667290
   9.4325660  37.4908280 117.0439270   8.4828370  37.4571820 117.1584260
   9.6138670  38.4008390 116.8089040   8.7435910  36.6641760 109.4612130
   9.2395030  36.4312630 110.2461010   8.5451980  35.8253600 109.0449770
  10.1723070  35.3002710 111.9949810  10.0622350  35.1458750 112.9332080
  10.9330660  34.7723650 111.7525220   8.5188790  31.2396840 118.4532810
   9.1561010  31.8530980 118.8192000   8.6663680  31.2757500 117.5082040
  11.0613340  33.1310630 105.2355950  11.9862650  32.9991810 105.0274240
  11.0389130  33.2103450 106.1892400  11.1351830  33.9021290 107.8612660
  10.3403330  33.8366410 108.3905570  11.3395110  34.8371930 107.8498010
   8.0770250  47.9412840 111.8551050   8.6729320  47.6197410 111.1785470
   8.3348400  47.4684660 112.6464320   1.8893270  32.3923030 121.3607910
   1.8282160  32.9844860 122.1103320   2.8293650  32.2848990 121.2158170
   4.5267830  32.0493090 121.0000200   5.1408240  32.3672380 120.3381280
   5.0717390  31.5641680 121.6196060  10.9443010  47.9484720 118.4062040
  10.4501290  48.3453590 117.6889170  10.3356300  47.3233930 118.7999320
   5.2675870  30.6125230 117.3269490   4.3935710  30.9460340 117.1242420
   5.1586620  30.1398410 118.1521360   6.1747850  32.8196100 118.7111210
   5.8461210  32.0047860 118.3312940   7.1230150  32.7765910 118.5876900
   8.6282460  48.5908140 115.6848780   8.1685430  49.3423950 115.3106800
   7.9994920  47.8714610 115.6263580   1.7973680  47.7904870 115.6865890
   2.0851490  47.5359170 114.8098900   2.3096900  47.2382230 116.2771460
   3.0150690  31.5295070 116.2662400   2.2322480  32.0040570 116.5459160
   2.7213620  30.6249900 116.1575580   7.5671760  32.2318170 114.3111490
   8.0079850  32.1763270 113.4633090   7.2979350  33.1476180 114.3821670
   9.4310330  31.8633410 112.3220310   9.3698730  30.9194630 112.1751330
  10.2102360  31.9713500 112.8673770   5.4029890  30.6124270 113.0161500
   6.0059260  31.1844480 113.4910020   4.6622880  31.1763710 112.7935400
   8.5464490  31.0145830 108.2901780   8.7415120  31.9129280 108.5569210
   7.7594360  30.7832910 108.7834730   1.8646040  48.7120970 123.0534090
   2.7913350  48.4765240 123.0970050   1.8496470  49.5392970 122.5720120
  10.0991100  48.2546540 110.0508340  10.2743290  47.5684280 109.4069260
   9.4012670  48.7793590 109.6585010   5.6525110  30.7919300 123.3956440
   5.5390560  31.1113910 124.2907960   6.4694850  31.1931810 123.0993720
   8.4323600  47.9390830 122.8775130   9.2248920  47.4440060 122.6701090
   8.7256750  48.6180970 123.4850740   4.5583260  38.8111770  93.7591180
   4.4777310  37.8966380  93.4882890   4.1447680  39.3078840  93.0530890
   2.6901300  40.5890790  95.6400450   1.9143400  40.1091230  95.9299020
   3.3414230  39.9096440  95.4656610   6.7108730  44.9950980  94.4199580
   6.2490260  44.2238220  94.7486750   7.5234280  45.0217050  94.9252030
   2.9372040  47.2808990  94.0403570   2.3183480  47.7366490  93.4698010
   3.7923820  47.4360450  93.6393270   2.1310290  43.2647980  95.6470610
   2.0618570  42.3237920  95.4859740   2.8930150  43.3549390  96.2193180
   3.1615460  36.0718360  95.8739540   3.5380280  35.1990240  95.7613210
   3.0634970  36.4077060  94.9829980   6.9439580  33.5668800  92.8067880
   7.7649200  33.0765370  92.8493360   6.9773660  34.1566460  93.5599720
  11.2339130  35.5835550  99.3711510  10.5291300  35.9717260  98.8526620
  11.4997050  36.2785840  99.9732440   3.8035390  42.1648230  91.4335480
   3.1852660  42.6297680  90.8698200   4.3158640  42.8575710  91.8504990
   7.1801060  35.5069180  95.5795420   6.4756630  35.7954070  96.1598530
   7.5413220  36.3169290  95.2194980   8.7963840  45.1244310  97.8422900
   8.1127360  45.7943420  97.8339570   9.3358130  45.3224960  97.0767760
  10.2487980  34.9523970  95.9704630   9.3012890  34.9862950  96.1020060
  10.5737970  35.7662920  96.3553990   6.3322580  46.9688440  96.5568080
   6.3449740  46.5650730  95.6890340   5.7797800  47.7435730  96.4529510
   7.6268000  43.6904660  91.6458250   7.5164330  42.7478990  91.7707670
   7.6236250  44.0520300  92.5321010   5.7308020  41.8718280  97.8850690
   6.1476810  41.6578390  97.0504150   6.4547840  42.1291070  98.4559310
   3.1688280  39.3169980  91.0020740   2.2417560  39.2507360  91.2309210
   3.3213100  40.2550110  90.8875980   3.1557360  35.5886980  87.9987900
   2.2161030  35.7500940  88.0840360   3.4740620  36.3072660  87.4523890
   9.6770120  40.2705500  97.9766930   8.8488750  40.3398590  97.5017060
  10.2720600  40.8559810  97.5082760   7.1985570  40.8790280  91.5055990
   6.5797990  40.5409830  90.8582290   7.1810020  40.2350040  92.2135180
   6.6412130  37.0574820  98.9221800   6.2283310  37.8828530  99.1761790
   5.9088080  36.4719860  98.7298160   7.3312230  47.1034150  99.6102780
   6.8542790  47.9106340  99.4175390   6.6474020  46.4512480  99.7628990
   5.3750270  40.1177090  88.5128740   5.8143550  39.2799520  88.3666560
   6.0878690  40.7506490  88.5992880   3.4845650  45.0573160  92.4809980
   3.9241560  45.7997490  92.0665370   3.4232540  45.2999730  93.4048940
   8.9567410  31.3719900  86.8269780   8.6440070  31.4646730  87.7268850
   9.7179880  31.9500930  86.7767210  10.9111440  46.8646090 104.6794170
  11.3871160  47.3428980 105.3583250  11.5318600  46.7963580 103.9539670
  10.3144690  44.0558940 101.8394180  10.4407750  43.8170820 100.9211360
  10.3566070  43.2243480 102.3116260   4.1761430  47.7586940 100.4088990
   4.6906100  47.6694950 101.2111420   3.3330510  48.1046640 100.7016900
   6.1515830  48.0442280  89.8372990   5.9916970  47.7545220  90.7354820
   5.9862540  47.2682410  89.3018220   5.8541960  45.5529840  88.3970990
   5.1607120  45.5507130  87.7373270   6.5964820  45.1289160  87.9665160
   5.4191890  47.1792550  92.4719480   5.8748840  46.3981930  92.7858100
   5.7584410  47.8899370  93.0160660  10.1668700  36.1091400 102.8043920
   9.5512970  36.6171070 102.2759380   9.8465120  35.2089730 102.7469860
   2.2283020  34.9483290 100.2706110   1.7662390  35.1566310 101.0826050
   1.8261130  34.1342640  99.9676780   7.2287530  36.1692240 101.4002770
   6.3781120  35.8697990 101.7211840   7.0689320  36.4134250 100.4886590
   4.3237240  37.6693990 103.5001560   4.6490650  36.8357740 103.1603790
   5.1117570  38.1922510 103.6479890   4.9625190  37.2111710  90.9942690
   4.3634080  37.9347510  90.8106310   5.5104800  37.1488490  90.2119140
   3.5690060  35.8475250  93.0245970   3.9619630  36.1647450  92.2114660
   3.9306910  34.9687130  93.1390490   4.1545200  38.4381000  97.1196750
   3.4226320  38.9467810  97.4686850   3.7569540  37.6210980  96.8185530
   4.6171110  33.8914680  96.5319690   4.6343850  34.3423330  97.3761540
   4.3686690  32.9920320  96.7453130   8.0441860  31.3046860 102.3706070
   8.3687630  30.5736520 102.8964050   8.0798370  30.9860500 101.4687060
   7.9699700  41.4171970  95.9792100   8.6898820  41.9127260  95.5888210
   7.7681520  40.7389860  95.3345970   3.4309640  32.8109930  90.1221490
   2.6174250  32.3123100  90.0466800   3.2371590  33.6508180  89.7057840
   3.3518500  41.4881030 101.8661100   3.2855810  40.5676700 101.6118690
   2.7223640  41.5856470 102.5805740   6.1458030  37.1829580  88.4183650
   7.0337650  37.4946810  88.2434990   6.1163120  36.3101830  88.0264230
   2.1418620  43.3553270  89.0971820   2.4834320  44.0995500  88.6015140
   1.3131330  43.6684390  89.4596650   3.2835230  44.3101600 101.6164900
   3.2979770  43.3782560 101.3983810   2.5760330  44.3961360 102.2554670
   8.4172300  38.4941420  87.8863510   8.3336020  38.9255640  87.0359950
   9.1366490  38.9539770  88.3190330   9.4946440  40.9508940 100.9633480
   8.7694630  41.5437720 100.7662870  10.0221900  40.9432480 100.1646850
   9.4459550  45.3483680  90.6145640   8.8035710  44.6939300  90.8889360
   9.0590210  45.7538770  89.8386310   5.0246030  42.6769110  94.4617330
   5.3769850  42.0797240  93.8018700   4.1408360  42.3513340  94.6325580
   2.7169130  45.9519170  98.7105400   3.3611350  46.1578550  99.3878820
   3.0798570  45.1907570  98.2576250   3.9901210  43.9551520  97.4282850
   4.6323440  43.2544680  97.5415020   4.5150560  44.7349960  97.2479740
   7.8356930  44.2400140  87.1521990   7.6094510  43.5230580  87.7446630
   7.4453130  43.9912580  86.3143740   5.7638830  44.7546420 100.6318910
   6.0995070  45.3413110 101.3096830   4.8439170  44.6239130 100.8616700
   7.4173180  42.1572080  88.8136150   7.1294880  42.6184770  89.6014030
   8.2125350  41.6969850  89.0820370   4.8081010  35.0363910  99.1643770
   5.1761830  34.2159120  99.4923340   3.9479210  35.0965800  99.5799420
   8.1743040  33.9920850  89.9731330   7.5456200  34.0966520  89.2589560
   7.6794960  34.2117630  90.7625210   2.6201180  45.7126440  87.4065310
   2.7213160  45.5090430  86.4767290   1.7202920  45.4584720  87.6113090
   1.7683000  37.6903500  99.3881740   2.2668250  38.1649320 100.0533590
   1.9105950  36.7667020  99.5951770   4.1742500  32.9957460  92.8285000
   4.0510280  33.0143590  91.8794510   5.1227060  33.0436400  92.9483400
   8.9749860  33.9071460 100.2310130   8.4723460  34.6476860 100.5703940
   9.7906520  34.2955460  99.9146920   7.2671870  39.1504640  93.6771490
   6.3262010  39.1654870  93.8519180   7.5815940  38.3640600  94.1231790
   9.2697450  46.3213490  95.3525750   9.3944870  47.1444660  95.8249560
  10.1363010  46.1104220  95.0049900   4.5837890  43.7070640 104.1603870
   3.9776050  43.7302240 103.4199620   4.2792000  42.9753680 104.6971120
   6.0138260  47.4350930 102.7713280   6.9660010  47.3508950 102.7213520
   5.8666480  48.0992640 103.4447070   8.9047460  46.8145140  88.2705190
   8.6188970  46.4010280  87.4559370   8.7067010  47.7432850  88.1505710
   3.6097420  41.8698450  87.3152790   3.0607520  42.3167750  87.9595530
   4.2316680  41.3647700  87.8390460   7.6632360  43.2240550 103.2475050
   8.4041830  43.5616310 102.7442510   6.9005040  43.3932610 102.6944820
   1.7900180  39.8526980  86.4595190   2.3105840  39.1376000  86.0936340
   2.4368580  40.4912850  86.7595700   6.3378020  41.2755380 101.7830260
   6.7519040  41.4300460 102.6320680   5.4029020  41.4010600 101.9456040
   6.8100190  38.6151540 103.7869410   7.3920960  37.8603860 103.6989890
   6.9861960  39.1458980 103.0100890   3.4357150  38.9592040 101.1364030
   3.5553360  38.3633180 101.8758870   4.2951150  38.9961730 100.7165330
   5.7745050  39.5129230  99.7126540   5.2480270  40.0371850  99.1091680
   6.1176390  40.1456620 100.3436270   5.0219350  35.1179200 102.6272870
   4.3334870  34.4560740 102.5622860   5.7425370  34.6717470 103.0721330
   5.6519750  31.7130830  88.6863130   5.9322040  30.8698730  89.0422550
   4.8785480  31.9453940  89.2001880   2.3548210  47.9338590  88.7496930
   3.2499000  48.2723560  88.7715690   2.3865840  47.2118000  88.1221210
   9.3342560  46.4642260 101.4563130   8.7344550  46.5234820 100.7127050
   9.4636460  45.5247240 101.5859980  10.5744010  44.2060080  86.7932840
   9.7436970  44.2736730  87.2640070  10.7515840  45.0964200  86.4899700
  10.0300470  40.9507560  89.2967040  10.7919380  41.5204210  89.4026730
  10.0454840  40.3834760  90.0675350  11.0360440  41.8057660  94.1408970
  11.4069270  41.0224980  93.7344940  11.6762370  42.4946760  93.9626270
   8.0194200  43.1894240  99.5539290   7.2054040  43.6191400  99.8165080
   8.4268400  43.8012650  98.9408340  10.0819640  41.2441930  86.4539560
  10.3568480  42.1520810  86.3258780   9.8930380  41.1804460  87.3901550
   6.4795250  34.2686780  87.7493190   6.8980130  34.0817760  86.9089850
   6.1731310  33.4165830  88.0596120   9.9784980  39.1810920  91.4468990
   9.6028580  38.4138850  91.0150280   9.2488100  39.5633620  91.9343920
   9.3684600  38.3282440 101.0808510   9.1370690  38.0995190 100.1806460
   9.6289150  39.2481990 101.0353400   7.8072670  33.5538870 103.8588210
   8.6842850  33.5622270 104.2422210   7.8193510  32.8169710 103.2480560
   9.2535940  37.4068410  94.7476230   9.7773420  36.9131060  94.1166400
   9.8395360  37.5418770  95.4923800   9.4325660  37.4908280  98.2695780
   8.4828370  37.4571820  98.3840770   9.6138670  38.4008390  98.0345550
   8.7435910  36.6641760  90.6868640   9.2395030  36.4312630  91.4717520
   8.5451980  35.8253600  90.2706280  10.1723070  35.3002710  93.2206320
  10.0622350  35.1458750  94.1588590  10.9330660  34.7723650  92.9781730
   8.5188790  31.2396840  99.6789320   9.1561010  31.8530980 100.0448510
   8.6663680  31.2757500  98.7338550  11.0613340  33.1310630  86.4612460
  11.9862650  32.9991810  86.2530750  11.0389130  33.2103450  87.4148910
  11.1351830  33.9021290  89.0869170  10.3403330  33.8366410  89.6162080
  11.3395110  34.8371930  89.0754520   8.0770250  47.9412840  93.0807560
   8.6729320  47.6197410  92.4041980   8.3348400  47.4684660  93.8720830
   1.8893270  32.3923030 102.5864420   1.8282160  32.9844860 103.3359830
   2.8293650  32.2848990 102.4414680   4.5267830  32.0493090 102.2256710
   5.1408240  32.3672380 101.5637790   5.0717390  31.5641680 102.8452570
  10.9443010  47.9484720  99.6318550  10.4501290  48.3453590  98.9145680
  10.3356300  47.3233930 100.0255830   5.2675870  30.6125230  98.5526000
   4.3935710  30.9460340  98.3498930   5.1586620  30.1398410  99.3777870
   6.1747850  32.8196100  99.9367720   5.8461210  32.0047860  99.5569450
   7.1230150  32.7765910  99.8133410   8.6282460  48.5908140  96.9105290
   8.1685430  49.3423950  96.5363310   7.9994920  47.8714610  96.8520090
   1.7973680  47.7904870  96.9122400   2.0851490  47.5359170  96.0355410
   2.3096900  47.2382230  97.5027970   3.0150690  31.5295070  97.4918910
   2.2322480  32.0040570  97.7715670   2.7213620  30.6249900  97.3832090
   7.5671760  32.2318170  95.5368000   8.0079850  32.1763270  94.6889600
   7.2979350  33.1476180  95.6078180   9.4310330  31.8633410  93.5476820
   9.3698730  30.9194630  93.4007840  10.2102360  31.9713500  94.0930280
   5.4029890  30.6124270  94.2418010   6.0059260  31.1844480  94.7166530
   4.6622880  31.1763710  94.0191910   8.5464490  31.0145830  89.5158290
   8.7415120  31.9129280  89.7825720   7.7594360  30.7832910  90.0091240
   1.8646040  48.7120970 104.2790600   2.7913350  48.4765240 104.3226560
   1.8496470  49.5392970 103.7976630  10.0991100  48.2546540  91.2764850
  10.2743290  47.5684280  90.6325770   9.4012670  48.7793590  90.8841520
   5.6525110  30.7919300 104.6212950   5.5390560  31.1113910 105.5164470
   6.4694850  31.1931810 104.3250230   8.4323600  47.9390830 104.1031640
   9.2248920  47.4440060 103.8957600   8.7256750  48.6180970 104.7107250
   4.5583260  38.8111770  74.9847690   4.4777310  37.8966380  74.7139400
   4.1447680  39.3078840  74.2787400   2.6901300  40.5890790  76.8656960
   1.9143400  40.1091230  77.1555530   3.3414230  39.9096440  76.6913120
   6.7108730  44.9950980  75.6456090   6.2490260  44.2238220  75.9743260
   7.5234280  45.0217050  76.1508540   2.9372040  47.2808990  75.2660080
   2.3183480  47.7366490  74.6954520   3.7923820  47.4360450  74.8649780
   2.1310290  43.2647980  76.8727120   2.0618570  42.3237920  76.7116250
   2.8930150  43.3549390  77.4449690   3.1615460  36.0718360  77.0996050
   3.5380280  35.1990240  76.9869720   3.0634970  36.4077060  76.2086490
   6.9439580  33.5668800  74.0324390   7.7649200  33.0765370  74.0749870
   6.9773660  34.1566460  74.7856230  11.2339130  35.5835550  80.5968020
  10.5291300  35.9717260  80.0783130  11.4997050  36.2785840  81.1988950
   3.8035390  42.1648230  72.6591990   3.1852660  42.6297680  72.0954710
   4.3158640  42.8575710  73.0761500   7.1801060  35.5069180  76.8051930
   6.4756630  35.7954070  77.3855040   7.5413220  36.3169290  76.4451490
   8.7963840  45.1244310  79.0679410   8.1127360  45.7943420  79.0596080
   9.3358130  45.3224960  78.3024270  10.2487980  34.9523970  77.1961140
   9.3012890  34.9862950  77.3276570  10.5737970  35.7662920  77.5810500
   6.3322580  46.9688440  77.7824590   6.3449740  46.5650730  76.9146850
   5.7797800  47.7435730  77.6786020   7.6268000  43.6904660  72.8714760
   7.5164330  42.7478990  72.9964180   7.6236250  44.0520300  73.7577520
   5.7308020  41.8718280  79.1107200   6.1476810  41.6578390  78.2760660
   6.4547840  42.1291070  79.6815820   3.1688280  39.3169980  72.2277250
   2.2417560  39.2507360  72.4565720   3.3213100  40.2550110  72.1132490
   3.1557360  35.5886980  69.2244410   2.2161030  35.7500940  69.3096870
   3.4740620  36.3072660  68.6780400   9.6770120  40.2705500  79.2023440
   8.8488750  40.3398590  78.7273570  10.2720600  40.8559810  78.7339270
   7.1985570  40.8790280  72.7312500   6.5797990  40.5409830  72.0838800
   7.1810020  40.2350040  73.4391690   6.6412130  37.0574820  80.1478310
   6.2283310  37.8828530  80.4018300   5.9088080  36.4719860  79.9554670
   7.3312230  47.1034150  80.8359290   6.8542790  47.9106340  80.6431900
   6.6474020  46.4512480  80.9885500   5.3750270  40.1177090  69.7385250
   5.8143550  39.2799520  69.5923070   6.0878690  40.7506490  69.8249390
   3.4845650  45.0573160  73.7066490   3.9241560  45.7997490  73.2921880
   3.4232540  45.2999730  74.6305450   8.9567410  31.3719900  68.0526290
   8.6440070  31.4646730  68.9525360   9.7179880  31.9500930  68.0023720
  10.9111440  46.8646090  85.9050680  11.3871160  47.3428980  86.5839760
  11.5318600  46.7963580  85.1796180  10.3144690  44.0558940  83.0650690
  10.4407750  43.8170820  82.1467870  10.3566070  43.2243480  83.5372770
   4.1761430  47.7586940  81.6345500   4.6906100  47.6694950  82.4367930
   3.3330510  48.1046640  81.9273410   6.1515830  48.0442280  71.0629500
   5.9916970  47.7545220  71.9611330   5.9862540  47.2682410  70.5274730
   5.8541960  45.5529840  69.6227500   5.1607120  45.5507130  68.9629780
   6.5964820  45.1289160  69.1921670   5.4191890  47.1792550  73.6975990
   5.8748840  46.3981930  74.0114610   5.7584410  47.8899370  74.2417170
  10.1668700  36.1091400  84.0300430   9.5512970  36.6171070  83.5015890
   9.8465120  35.2089730  83.9726370   2.2283020  34.9483290  81.4962620
   1.7662390  35.1566310  82.3082560   1.8261130  34.1342640  81.1933290
   7.2287530  36.1692240  82.6259280   6.3781120  35.8697990  82.9468350
   7.0689320  36.4134250  81.7143100   4.3237240  37.6693990  84.7258070
   4.6490650  36.8357740  84.3860300   5.1117570  38.1922510  84.8736400
   4.9625190  37.2111710  72.2199200   4.3634080  37.9347510  72.0362820
   5.5104800  37.1488490  71.4375650   3.5690060  35.8475250  74.2502480
   3.9619630  36.1647450  73.4371170   3.9306910  34.9687130  74.3647000
   4.1545200  38.4381000  78.3453260   3.4226320  38.9467810  78.6943360
   3.7569540  37.6210980  78.0442040   4.6171110  33.8914680  77.7576200
   4.6343850  34.3423330  78.6018050   4.3686690  32.9920320  77.9709640
   8.0441860  31.3046860  83.5962580   8.3687630  30.5736520  84.1220560
   8.0798370  30.9860500  82.6943570   7.9699700  41.4171970  77.2048610
   8.6898820  41.9127260  76.8144720   7.7681520  40.7389860  76.5602480
   3.4309640  32.8109930  71.3478000   2.6174250  32.3123100  71.2723310
   3.2371590  33.6508180  70.9314350   3.3518500  41.4881030  83.0917610
   3.2855810  40.5676700  82.8375200   2.7223640  41.5856470  83.8062250
   6.1458030  37.1829580  69.6440160   7.0337650  37.4946810  69.4691500
   6.1163120  36.3101830  69.2520740   2.1418620  43.3553270  70.3228330
   2.4834320  44.0995500  69.8271650   1.3131330  43.6684390  70.6853160
   3.2835230  44.3101600  82.8421410   3.2979770  43.3782560  82.6240320
   2.5760330  44.3961360  83.4811180   8.4172300  38.4941420  69.1120020
   8.3336020  38.9255640  68.2616460   9.1366490  38.9539770  69.5446840
   9.4946440  40.9508940  82.1889990   8.7694630  41.5437720  81.9919380
  10.0221900  40.9432480  81.3903360   9.4459550  45.3483680  71.8402150
   8.8035710  44.6939300  72.1145870   9.0590210  45.7538770  71.0642820
   5.0246030  42.6769110  75.6873840   5.3769850  42.0797240  75.0275210
   4.1408360  42.3513340  75.8582090   2.7169130  45.9519170  79.9361910
   3.3611350  46.1578550  80.6135330   3.0798570  45.1907570  79.4832760
   3.9901210  43.9551520  78.6539360   4.6323440  43.2544680  78.7671530
   4.5150560  44.7349960  78.4736250   7.8356930  44.2400140  68.3778500
   7.6094510  43.5230580  68.9703140   7.4453130  43.9912580  67.5400250
   5.7638830  44.7546420  81.8575420   6.0995070  45.3413110  82.5353340
   4.8439170  44.6239130  82.0873210   7.4173180  42.1572080  70.0392660
   7.1294880  42.6184770  70.8270540   8.2125350  41.6969850  70.3076880
   4.8081010  35.0363910  80.3900280   5.1761830  34.2159120  80.7179850
   3.9479210  35.0965800  80.8055930   8.1743040  33.9920850  71.1987840
   7.5456200  34.0966520  70.4846070   7.6794960  34.2117630  71.9881720
   2.6201180  45.7126440  68.6321820   2.7213160  45.5090430  67.7023800
   1.7202920  45.4584720  68.8369600   1.7683000  37.6903500  80.6138250
   2.2668250  38.1649320  81.2790100   1.9105950  36.7667020  80.8208280
   4.1742500  32.9957460  74.0541510   4.0510280  33.0143590  73.1051020
   5.1227060  33.0436400  74.1739910   8.9749860  33.9071460  81.4566640
   8.4723460  34.6476860  81.7960450   9.7906520  34.2955460  81.1403430
   7.2671870  39.1504640  74.9028000   6.3262010  39.1654870  75.0775690
   7.5815940  38.3640600  75.3488300   9.2697450  46.3213490  76.5782260
   9.3944870  47.1444660  77.0506070  10.1363010  46.1104220  76.2306410
   4.5837890  43.7070640  85.3860380   3.9776050  43.7302240  84.6456130
   4.2792000  42.9753680  85.9227630   6.0138260  47.4350930  83.9969790
   6.9660010  47.3508950  83.9470030   5.8666480  48.0992640  84.6703580
   8.9047460  46.8145140  69.4961700   8.6188970  46.4010280  68.6815880
   8.7067010  47.7432850  69.3762220   3.6097420  41.8698450  68.5409300
   3.0607520  42.3167750  69.1852040   4.2316680  41.3647700  69.0646970
   7.6632360  43.2240550  84.4731560   8.4041830  43.5616310  83.9699020
   6.9005040  43.3932610  83.9201330   1.7900180  39.8526980  67.6851700
   2.3105840  39.1376000  67.3192850   2.4368580  40.4912850  67.9852210
   6.3378020  41.2755380  83.0086770   6.7519040  41.4300460  83.8577190
   5.4029020  41.4010600  83.1712550   6.8100190  38.6151540  85.0125920
   7.3920960  37.8603860  84.9246400   6.9861960  39.1458980  84.2357400
   3.4357150  38.9592040  82.3620540   3.5553360  38.3633180  83.1015380
   4.2951150  38.9961730  81.9421840   5.7745050  39.5129230  80.9383050
   5.2480270  40.0371850  80.3348190   6.1176390  40.1456620  81.5692780
   5.0219350  35.1179200  83.8529380   4.3334870  34.4560740  83.7879370
   5.7425370  34.6717470  84.2977840   5.6519750  31.7130830  69.9119640
   5.9322040  30.8698730  70.2679060   4.8785480  31.9453940  70.4258390
   2.3548210  47.9338590  69.9753440   3.2499000  48.2723560  69.9972200
   2.3865840  47.2118000  69.3477720   9.3342560  46.4642260  82.6819640
   8.7344550  46.5234820  81.9383560   9.4636460  45.5247240  82.8116490
  10.5744010  44.2060080  68.0189350   9.7436970  44.2736730  68.4896580
  10.7515840  45.0964200  67.7156210  10.0300470  40.9507560  70.5223550
  10.7919380  41.5204210  70.6283240  10.0454840  40.3834760  71.2931860
  11.0360440  41.8057660  75.3665480  11.4069270  41.0224980  74.9601450
  11.6762370  42.4946760  75.1882780   8.0194200  43.1894240  80.7795800
   7.2054040  43.6191400  81.0421590   8.4268400  43.8012650  80.1664850
  10.0819640  41.2441930  67.6796070  10.3568480  42.1520810  67.5515290
   9.8930380  41.1804460  68.6158060   6.4795250  34.2686780  68.9749700
   6.8980130  34.0817760  68.1346360   6.1731310  33.4165830  69.2852630
   9.9784980  39.1810920  72.6725500   9.6028580  38.4138850  72.2406790
   9.2488100  39.5633620  73.1600430   9.3684600  38.3282440  82.3065020
   9.1370690  38.0995190  81.4062970   9.6289150  39.2481990  82.2609910
   7.8072670  33.5538870  85.0844720   8.6842850  33.5622270  85.4678720
   7.8193510  32.8169710  84.4737070   9.2535940  37.4068410  75.9732740
   9.7773420  36.9131060  75.3422910   9.8395360  37.5418770  76.7180310
   9.4325660  37.4908280  79.4952290   8.4828370  37.4571820  79.6097280
   9.6138670  38.4008390  79.2602060   8.7435910  36.6641760  71.9125150
   9.2395030  36.4312630  72.6974030   8.5451980  35.8253600  71.4962790
  10.1723070  35.3002710  74.4462830  10.0622350  35.1458750  75.3845100
  10.9330660  34.7723650  74.2038240   8.5188790  31.2396840  80.9045830
   9.1561010  31.8530980  81.2705020   8.6663680  31.2757500  79.9595060
  11.0613340  33.1310630  67.6868970  11.9862650  32.9991810  67.4787260
  11.0389130  33.2103450  68.6405420  11.1351830  33.9021290  70.3125680
  10.3403330  33.8366410  70.8418590  11.3395110  34.8371930  70.3011030
   8.0770250  47.9412840  74.3064070   8.6729320  47.6197410  73.6298490
   8.3348400  47.4684660  75.0977340   1.8893270  32.3923030  83.8120930
   1.8282160  32.9844860  84.5616340   2.8293650  32.2848990  83.6671190
   4.5267830  32.0493090  83.4513220   5.1408240  32.3672380  82.7894300
   5.0717390  31.5641680  84.0709080  10.9443010  47.9484720  80.8575060
  10.4501290  48.3453590  80.1402190  10.3356300  47.3233930  81.2512340
   5.2675870  30.6125230  79.7782510   4.3935710  30.9460340  79.5755440
   5.1586620  30.1398410  80.6034380   6.1747850  32.8196100  81.1624230
   5.8461210  32.0047860  80.7825960   7.1230150  32.7765910  81.0389920
   8.6282460  48.5908140  78.1361800   8.1685430  49.3423950  77.7619820
   7.9994920  47.8714610  78.0776600   1.7973680  47.7904870  78.1378910
   2.0851490  47.5359170  77.2611920   2.3096900  47.2382230  78.7284480
   3.0150690  31.5295070  78.7175420   2.2322480  32.0040570  78.9972180
   2.7213620  30.6249900  78.6088600   7.5671760  32.2318170  76.7624510
   8.0079850  32.1763270  75.9146110   7.2979350  33.1476180  76.8334690
   9.4310330  31.8633410  74.7733330   9.3698730  30.9194630  74.6264350
  10.2102360  31.9713500  75.3186790   5.4029890  30.6124270  75.4674520
   6.0059260  31.1844480  75.9423040   4.6622880  31.1763710  75.2448420
   8.5464490  31.0145830  70.7414800   8.7415120  31.9129280  71.0082230
   7.7594360  30.7832910  71.2347750   1.8646040  48.7120970  85.5047110
   2.7913350  48.4765240  85.5483070   1.8496470  49.5392970  85.0233140
  10.0991100  48.2546540  72.5021360  10.2743290  47.5684280  71.8582280
   9.4012670  48.7793590  72.1098030   5.6525110  30.7919300  85.8469460
   5.5390560  31.1113910  86.7420980   6.4694850  31.1931810  85.5506740
   8.4323600  47.9390830  85.3288150   9.2248920  47.4440060  85.1214110
   8.7256750  48.6180970  85.9363760   4.5583260  38.8111770  56.2104200
   4.4777310  37.8966380  55.9395910   4.1447680  39.3078840  55.5043910
   2.6901300  40.5890790  58.0913470   1.9143400  40.1091230  58.3812040
   3.3414230  39.9096440  57.9169630   6.7108730  44.9950980  56.8712600
   6.2490260  44.2238220  57.1999770   7.5234280  45.0217050  57.3765050
   2.9372040  47.2808990  56.4916590   2.3183480  47.7366490  55.9211030
   3.7923820  47.4360450  56.0906290   2.1310290  43.2647980  58.0983630
   2.0618570  42.3237920  57.9372760   2.8930150  43.3549390  58.6706200
   3.1615460  36.0718360  58.3252560   3.5380280  35.1990240  58.2126230
   3.0634970  36.4077060  57.4343000   6.9439580  33.5668800  55.2580900
   7.7649200  33.0765370  55.3006380   6.9773660  34.1566460  56.0112740
  11.2339130  35.5835550  61.8224530  10.5291300  35.9717260  61.3039640
  11.4997050  36.2785840  62.4245460   3.8035390  42.1648230  53.8848500
   3.1852660  42.6297680  53.3211220   4.3158640  42.8575710  54.3018010
   7.1801060  35.5069180  58.0308440   6.4756630  35.7954070  58.6111550
   7.5413220  36.3169290  57.6708000   8.7963840  45.1244310  60.2935920
   8.1127360  45.7943420  60.2852590   9.3358130  45.3224960  59.5280780
  10.2487980  34.9523970  58.4217650   9.3012890  34.9862950  58.5533080
  10.5737970  35.7662920  58.8067010   6.3322580  46.9688440  59.0081100
   6.3449740  46.5650730  58.1403360   5.7797800  47.7435730  58.9042530
   7.6268000  43.6904660  54.0971270   7.5164330  42.7478990  54.2220690
   7.6236250  44.0520300  54.9834030   5.7308020  41.8718280  60.3363710
   6.1476810  41.6578390  59.5017170   6.4547840  42.1291070  60.9072330
   3.1688280  39.3169980  53.4533760   2.2417560  39.2507360  53.6822230
   3.3213100  40.2550110  53.3389000   3.1557360  35.5886980  50.4500920
   2.2161030  35.7500940  50.5353380   3.4740620  36.3072660  49.9036910
   9.6770120  40.2705500  60.4279950   8.8488750  40.3398590  59.9530080
  10.2720600  40.8559810  59.9595780   7.1985570  40.8790280  53.9569010
   6.5797990  40.5409830  53.3095310   7.1810020  40.2350040  54.6648200
   6.6412130  37.0574820  61.3734820   6.2283310  37.8828530  61.6274810
   5.9088080  36.4719860  61.1811180   7.3312230  47.1034150  62.0615800
   6.8542790  47.9106340  61.8688410   6.6474020  46.4512480  62.2142010
   5.3750270  40.1177090  50.9641760   5.8143550  39.2799520  50.8179580
   6.0878690  40.7506490  51.0505900   3.4845650  45.0573160  54.9323000
   3.9241560  45.7997490  54.5178390   3.4232540  45.2999730  55.8561960
   8.9567410  31.3719900  49.2782800   8.6440070  31.4646730  50.1781870
   9.7179880  31.9500930  49.2280230  10.9111440  46.8646090  67.1307190
  11.3871160  47.3428980  67.8096270  11.5318600  46.7963580  66.4052690
  10.3144690  44.0558940  64.2907200  10.4407750  43.8170820  63.3724380
  10.3566070  43.2243480  64.7629280   4.1761430  47.7586940  62.8602010
   4.6906100  47.6694950  63.6624440   3.3330510  48.1046640  63.1529920
   6.1515830  48.0442280  52.2886010   5.9916970  47.7545220  53.1867840
   5.9862540  47.2682410  51.7531240   5.8541960  45.5529840  50.8484010
   5.1607120  45.5507130  50.1886290   6.5964820  45.1289160  50.4178180
   5.4191890  47.1792550  54.9232500   5.8748840  46.3981930  55.2371120
   5.7584410  47.8899370  55.4673680  10.1668700  36.1091400  65.2556940
   9.5512970  36.6171070  64.7272400   9.8465120  35.2089730  65.1982880
   2.2283020  34.9483290  62.7219130   1.7662390  35.1566310  63.5339070
   1.8261130  34.1342640  62.4189800   7.2287530  36.1692240  63.8515790
   6.3781120  35.8697990  64.1724860   7.0689320  36.4134250  62.9399610
   4.3237240  37.6693990  65.9514580   4.6490650  36.8357740  65.6116810
   5.1117570  38.1922510  66.0992910   4.9625190  37.2111710  53.4455710
   4.3634080  37.9347510  53.2619330   5.5104800  37.1488490  52.6632160
   3.5690060  35.8475250  55.4758990   3.9619630  36.1647450  54.6627680
   3.9306910  34.9687130  55.5903510   4.1545200  38.4381000  59.5709770
   3.4226320  38.9467810  59.9199870   3.7569540  37.6210980  59.2698550
   4.6171110  33.8914680  58.9832710   4.6343850  34.3423330  59.8274560
   4.3686690  32.9920320  59.1966150   8.0441860  31.3046860  64.8219090
   8.3687630  30.5736520  65.3477070   8.0798370  30.9860500  63.9200080
   7.9699700  41.4171970  58.4305120   8.6898820  41.9127260  58.0401230
   7.7681520  40.7389860  57.7858990   3.4309640  32.8109930  52.5734510
   2.6174250  32.3123100  52.4979820   3.2371590  33.6508180  52.1570860
   3.3518500  41.4881030  64.3174120   3.2855810  40.5676700  64.0631710
   2.7223640  41.5856470  65.0318760   6.1458030  37.1829580  50.8696670
   7.0337650  37.4946810  50.6948010   6.1163120  36.3101830  50.4777250
   2.1418620  43.3553270  51.5484840   2.4834320  44.0995500  51.0528160
   1.3131330  43.6684390  51.9109670   3.2835230  44.3101600  64.0677920
   3.2979770  43.3782560  63.8496830   2.5760330  44.3961360  64.7067690
   8.4172300  38.4941420  50.3376530   8.3336020  38.9255640  49.4872970
   9.1366490  38.9539770  50.7703350   9.4946440  40.9508940  63.4146500
   8.7694630  41.5437720  63.2175890  10.0221900  40.9432480  62.6159870
   9.4459550  45.3483680  53.0658660   8.8035710  44.6939300  53.3402380
   9.0590210  45.7538770  52.2899330   5.0246030  42.6769110  56.9130350
   5.3769850  42.0797240  56.2531720   4.1408360  42.3513340  57.0838600
   2.7169130  45.9519170  61.1618420   3.3611350  46.1578550  61.8391840
   3.0798570  45.1907570  60.7089270   3.9901210  43.9551520  59.8795870
   4.6323440  43.2544680  59.9928040   4.5150560  44.7349960  59.6992760
   7.8356930  44.2400140  49.6035010   7.6094510  43.5230580  50.1959650
   7.4453130  43.9912580  48.7656760   5.7638830  44.7546420  63.0831930
   6.0995070  45.3413110  63.7609850   4.8439170  44.6239130  63.3129720
   7.4173180  42.1572080  51.2649170   7.1294880  42.6184770  52.0527050
   8.2125350  41.6969850  51.5333390   4.8081010  35.0363910  61.6156790
   5.1761830  34.2159120  61.9436360   3.9479210  35.0965800  62.0312440
   8.1743040  33.9920850  52.4244350   7.5456200  34.0966520  51.7102580
   7.6794960  34.2117630  53.2138230   2.6201180  45.7126440  49.8578330
   2.7213160  45.5090430  48.9280310   1.7202920  45.4584720  50.0626110
   1.7683000  37.6903500  61.8394760   2.2668250  38.1649320  62.5046610
   1.9105950  36.7667020  62.0464790   4.1742500  32.9957460  55.2798020
   4.0510280  33.0143590  54.3307530   5.1227060  33.0436400  55.3996420
   8.9749860  33.9071460  62.6823150   8.4723460  34.6476860  63.0216960
   9.7906520  34.2955460  62.3659940   7.2671870  39.1504640  56.1284510
   6.3262010  39.1654870  56.3032200   7.5815940  38.3640600  56.5744810
   9.2697450  46.3213490  57.8038770   9.3944870  47.1444660  58.2762580
  10.1363010  46.1104220  57.4562920   4.5837890  43.7070640  66.6116890
   3.9776050  43.7302240  65.8712640   4.2792000  42.9753680  67.1484140
   6.0138260  47.4350930  65.2226300   6.9660010  47.3508950  65.1726540
   5.8666480  48.0992640  65.8960090   8.9047460  46.8145140  50.7218210
   8.6188970  46.4010280  49.9072390   8.7067010  47.7432850  50.6018730
   3.6097420  41.8698450  49.7665810   3.0607520  42.3167750  50.4108550
   4.2316680  41.3647700  50.2903480   7.6632360  43.2240550  65.6988070
   8.4041830  43.5616310  65.1955530   6.9005040  43.3932610  65.1457840
   1.7900180  39.8526980  48.9108210   2.3105840  39.1376000  48.5449360
   2.4368580  40.4912850  49.2108720   6.3378020  41.2755380  64.2343280
   6.7519040  41.4300460  65.0833700   5.4029020  41.4010600  64.3969060
   6.8100190  38.6151540  66.2382430   7.3920960  37.8603860  66.1502910
   6.9861960  39.1458980  65.4613910   3.4357150  38.9592040  63.5877050
   3.5553360  38.3633180  64.3271890   4.2951150  38.9961730  63.1678350
   5.7745050  39.5129230  62.1639560   5.2480270  40.0371850  61.5604700
   6.1176390  40.1456620  62.7949290   5.0219350  35.1179200  65.0785890
   4.3334870  34.4560740  65.0135880   5.7425370  34.6717470  65.5234350
   5.6519750  31.7130830  51.1376150   5.9322040  30.8698730  51.4935570
   4.8785480  31.9453940  51.6514900   2.3548210  47.9338590  51.2009950
   3.2499000  48.2723560  51.2228710   2.3865840  47.2118000  50.5734230
   9.3342560  46.4642260  63.9076150   8.7344550  46.5234820  63.1640070
   9.4636460  45.5247240  64.0373000  10.5744010  44.2060080  49.2445860
   9.7436970  44.2736730  49.7153090  10.7515840  45.0964200  48.9412720
  10.0300470  40.9507560  51.7480060  10.7919380  41.5204210  51.8539750
  10.0454840  40.3834760  52.5188370  11.0360440  41.8057660  56.5921990
  11.4069270  41.0224980  56.1857960  11.6762370  42.4946760  56.4139290
   8.0194200  43.1894240  62.0052310   7.2054040  43.6191400  62.2678100
   8.4268400  43.8012650  61.3921360  10.0819640  41.2441930  48.9052580
  10.3568480  42.1520810  48.7771800   9.8930380  41.1804460  49.8414570
   6.4795250  34.2686780  50.2006210   6.8980130  34.0817760  49.3602870
   6.1731310  33.4165830  50.5109140   9.9784980  39.1810920  53.8982010
   9.6028580  38.4138850  53.4663300   9.2488100  39.5633620  54.3856940
   9.3684600  38.3282440  63.5321530   9.1370690  38.0995190  62.6319480
   9.6289150  39.2481990  63.4866420   7.8072670  33.5538870  66.3101230
   8.6842850  33.5622270  66.6935230   7.8193510  32.8169710  65.6993580
   9.2535940  37.4068410  57.1989250   9.7773420  36.9131060  56.5679420
   9.8395360  37.5418770  57.9436820   9.4325660  37.4908280  60.7208800
   8.4828370  37.4571820  60.8353790   9.6138670  38.4008390  60.4858570
   8.7435910  36.6641760  53.1381660   9.2395030  36.4312630  53.9230540
   8.5451980  35.8253600  52.7219300  10.1723070  35.3002710  55.6719340
  10.0622350  35.1458750  56.6101610  10.9330660  34.7723650  55.4294750
   8.5188790  31.2396840  62.1302340   9.1561010  31.8530980  62.4961530
   8.6663680  31.2757500  61.1851570  11.0613340  33.1310630  48.9125480
  11.9862650  32.9991810  48.7043770  11.0389130  33.2103450  49.8661930
  11.1351830  33.9021290  51.5382190  10.3403330  33.8366410  52.0675100
  11.3395110  34.8371930  51.5267540   8.0770250  47.9412840  55.5320580
   8.6729320  47.6197410  54.8555000   8.3348400  47.4684660  56.3233850
   1.8893270  32.3923030  65.0377440   1.8282160  32.9844860  65.7872850
   2.8293650  32.2848990  64.8927700   4.5267830  32.0493090  64.6769730
   5.1408240  32.3672380  64.0150810   5.0717390  31.5641680  65.2965590
  10.9443010  47.9484720  62.0831570  10.4501290  48.3453590  61.3658700
  10.3356300  47.3233930  62.4768850   5.2675870  30.6125230  61.0039020
   4.3935710  30.9460340  60.8011950   5.1586620  30.1398410  61.8290890
   6.1747850  32.8196100  62.3880740   5.8461210  32.0047860  62.0082470
   7.1230150  32.7765910  62.2646430   8.6282460  48.5908140  59.3618310
   8.1685430  49.3423950  58.9876330   7.9994920  47.8714610  59.3033110
   1.7973680  47.7904870  59.3635420   2.0851490  47.5359170  58.4868430
   2.3096900  47.2382230  59.9540990   3.0150690  31.5295070  59.9431930
   2.2322480  32.0040570  60.2228690   2.7213620  30.6249900  59.8345110
   7.5671760  32.2318170  57.9881020   8.0079850  32.1763270  57.1402620
   7.2979350  33.1476180  58.0591200   9.4310330  31.8633410  55.9989840
   9.3698730  30.9194630  55.8520860  10.2102360  31.9713500  56.5443300
   5.4029890  30.6124270  56.6931030   6.0059260  31.1844480  57.1679550
   4.6622880  31.1763710  56.4704930   8.5464490  31.0145830  51.9671310
   8.7415120  31.9129280  52.2338740   7.7594360  30.7832910  52.4604260
   1.8646040  48.7120970  66.7303620   2.7913350  48.4765240  66.7739580
   1.8496470  49.5392970  66.2489650  10.0991100  48.2546540  53.7277870
  10.2743290  47.5684280  53.0838790   9.4012670  48.7793590  53.3354540
   5.6525110  30.7919300  67.0725970   5.5390560  31.1113910  67.9677490
   6.4694850  31.1931810  66.7763250   8.4323600  47.9390830  66.5544660
   9.2248920  47.4440060  66.3470620   8.7256750  48.6180970  67.1620270
   4.5583260  38.8111770  37.4360710   4.4777310  37.8966380  37.1652420
   4.1447680  39.3078840  36.7300420   2.6901300  40.5890790  39.3169980
   1.9143400  40.1091230  39.6068550   3.3414230  39.9096440  39.1426140
   6.7108730  44.9950980  38.0969110   6.2490260  44.2238220  38.4256280
   7.5234280  45.0217050  38.6021560   2.9372040  47.2808990  37.7173100
   2.3183480  47.7366490  37.1467540   3.7923820  47.4360450  37.3162800
   2.1310290  43.2647980  39.3240140   2.0618570  42.3237920  39.1629270
   2.8930150  43.3549390  39.8962710   3.1615460  36.0718360  39.5509070
   3.5380280  35.1990240  39.4382740   3.0634970  36.4077060  38.6599510
   6.9439580  33.5668800  36.4837410   7.7649200  33.0765370  36.5262890
   6.9773660  34.1566460  37.2369250  11.2339130  35.5835550  43.0481040
  10.5291300  35.9717260  42.5296150  11.4997050  36.2785840  43.6501970
   3.8035390  42.1648230  35.1105010   3.1852660  42.6297680  34.5467730
   4.3158640  42.8575710  35.5274520   7.1801060  35.5069180  39.2564950
   6.4756630  35.7954070  39.8368060   7.5413220  36.3169290  38.8964510
   8.7963840  45.1244310  41.5192430   8.1127360  45.7943420  41.5109100
   9.3358130  45.3224960  40.7537290  10.2487980  34.9523970  39.6474160
   9.3012890  34.9862950  39.7789590  10.5737970  35.7662920  40.0323520
   6.3322580  46.9688440  40.2337610   6.3449740  46.5650730  39.3659870
   5.7797800  47.7435730  40.1299040   7.6268000  43.6904660  35.3227780
   7.5164330  42.7478990  35.4477200   7.6236250  44.0520300  36.2090540
   5.7308020  41.8718280  41.5620220   6.1476810  41.6578390  40.7273680
   6.4547840  42.1291070  42.1328840   3.1688280  39.3169980  34.6790270
   2.2417560  39.2507360  34.9078740   3.3213100  40.2550110  34.5645510
   3.1557360  35.5886980  31.6757430   2.2161030  35.7500940  31.7609890
   3.4740620  36.3072660  31.1293420   9.6770120  40.2705500  41.6536460
   8.8488750  40.3398590  41.1786590  10.2720600  40.8559810  41.1852290
   7.1985570  40.8790280  35.1825520   6.5797990  40.5409830  34.5351820
   7.1810020  40.2350040  35.8904710   6.6412130  37.0574820  42.5991330
   6.2283310  37.8828530  42.8531320   5.9088080  36.4719860  42.4067690
   7.3312230  47.1034150  43.2872310   6.8542790  47.9106340  43.0944920
   6.6474020  46.4512480  43.4398520   5.3750270  40.1177090  32.1898270
   5.8143550  39.2799520  32.0436090   6.0878690  40.7506490  32.2762410
   3.4845650  45.0573160  36.1579510   3.9241560  45.7997490  35.7434900
   3.4232540  45.2999730  37.0818470   8.9567410  31.3719900  30.5039310
   8.6440070  31.4646730  31.4038380   9.7179880  31.9500930  30.4536740
  10.9111440  46.8646090  48.3563700  11.3871160  47.3428980  49.0352780
  11.5318600  46.7963580  47.6309200  10.3144690  44.0558940  45.5163710
  10.4407750  43.8170820  44.5980890  10.3566070  43.2243480  45.9885790
   4.1761430  47.7586940  44.0858520   4.6906100  47.6694950  44.8880950
   3.3330510  48.1046640  44.3786430   6.1515830  48.0442280  33.5142520
   5.9916970  47.7545220  34.4124350   5.9862540  47.2682410  32.9787750
   5.8541960  45.5529840  32.0740520   5.1607120  45.5507130  31.4142800
   6.5964820  45.1289160  31.6434690   5.4191890  47.1792550  36.1489010
   5.8748840  46.3981930  36.4627630   5.7584410  47.8899370  36.6930190
  10.1668700  36.1091400  46.4813450   9.5512970  36.6171070  45.9528910
   9.8465120  35.2089730  46.4239390   2.2283020  34.9483290  43.9475640
   1.7662390  35.1566310  44.7595580   1.8261130  34.1342640  43.6446310
   7.2287530  36.1692240  45.0772300   6.3781120  35.8697990  45.3981370
   7.0689320  36.4134250  44.1656120   4.3237240  37.6693990  47.1771090
   4.6490650  36.8357740  46.8373320   5.1117570  38.1922510  47.3249420
   4.9625190  37.2111710  34.6712220   4.3634080  37.9347510  34.4875840
   5.5104800  37.1488490  33.8888670   3.5690060  35.8475250  36.7015500
   3.9619630  36.1647450  35.8884190   3.9306910  34.9687130  36.8160020
   4.1545200  38.4381000  40.7966280   3.4226320  38.9467810  41.1456380
   3.7569540  37.6210980  40.4955060   4.6171110  33.8914680  40.2089220
   4.6343850  34.3423330  41.0531070   4.3686690  32.9920320  40.4222660
   8.0441860  31.3046860  46.0475600   8.3687630  30.5736520  46.5733580
   8.0798370  30.9860500  45.1456590   7.9699700  41.4171970  39.6561630
   8.6898820  41.9127260  39.2657740   7.7681520  40.7389860  39.0115500
   3.4309640  32.8109930  33.7991020   2.6174250  32.3123100  33.7236330
   3.2371590  33.6508180  33.3827370   3.3518500  41.4881030  45.5430630
   3.2855810  40.5676700  45.2888220   2.7223640  41.5856470  46.2575270
   6.1458030  37.1829580  32.0953180   7.0337650  37.4946810  31.9204520
   6.1163120  36.3101830  31.7033760   2.1418620  43.3553270  32.7741350
   2.4834320  44.0995500  32.2784670   1.3131330  43.6684390  33.1366180
   3.2835230  44.3101600  45.2934430   3.2979770  43.3782560  45.0753340
   2.5760330  44.3961360  45.9324200   8.4172300  38.4941420  31.5633040
   8.3336020  38.9255640  30.7129480   9.1366490  38.9539770  31.9959860
   9.4946440  40.9508940  44.6403010   8.7694630  41.5437720  44.4432400
  10.0221900  40.9432480  43.8416380   9.4459550  45.3483680  34.2915170
   8.8035710  44.6939300  34.5658890   9.0590210  45.7538770  33.5155840
   5.0246030  42.6769110  38.1386860   5.3769850  42.0797240  37.4788230
   4.1408360  42.3513340  38.3095110   2.7169130  45.9519170  42.3874930
   3.3611350  46.1578550  43.0648350   3.0798570  45.1907570  41.9345780
   3.9901210  43.9551520  41.1052380   4.6323440  43.2544680  41.2184550
   4.5150560  44.7349960  40.9249270   7.8356930  44.2400140  30.8291520
   7.6094510  43.5230580  31.4216160   7.4453130  43.9912580  29.9913270
   5.7638830  44.7546420  44.3088440   6.0995070  45.3413110  44.9866360
   4.8439170  44.6239130  44.5386230   7.4173180  42.1572080  32.4905680
   7.1294880  42.6184770  33.2783560   8.2125350  41.6969850  32.7589900
   4.8081010  35.0363910  42.8413300   5.1761830  34.2159120  43.1692870
   3.9479210  35.0965800  43.2568950   8.1743040  33.9920850  33.6500860
   7.5456200  34.0966520  32.9359090   7.6794960  34.2117630  34.4394740
   2.6201180  45.7126440  31.0834840   2.7213160  45.5090430  30.1536820
   1.7202920  45.4584720  31.2882620   1.7683000  37.6903500  43.0651270
   2.2668250  38.1649320  43.7303120   1.9105950  36.7667020  43.2721300
   4.1742500  32.9957460  36.5054530   4.0510280  33.0143590  35.5564040
   5.1227060  33.0436400  36.6252930   8.9749860  33.9071460  43.9079660
   8.4723460  34.6476860  44.2473470   9.7906520  34.2955460  43.5916450
   7.2671870  39.1504640  37.3541020   6.3262010  39.1654870  37.5288710
   7.5815940  38.3640600  37.8001320   9.2697450  46.3213490  39.0295280
   9.3944870  47.1444660  39.5019090  10.1363010  46.1104220  38.6819430
   4.5837890  43.7070640  47.8373400   3.9776050  43.7302240  47.0969150
   4.2792000  42.9753680  48.3740650   6.0138260  47.4350930  46.4482810
   6.9660010  47.3508950  46.3983050   5.8666480  48.0992640  47.1216600
   8.9047460  46.8145140  31.9474720   8.6188970  46.4010280  31.1328900
   8.7067010  47.7432850  31.8275240   3.6097420  41.8698450  30.9922320
   3.0607520  42.3167750  31.6365060   4.2316680  41.3647700  31.5159990
   7.6632360  43.2240550  46.9244580   8.4041830  43.5616310  46.4212040
   6.9005040  43.3932610  46.3714350   1.7900180  39.8526980  30.1364720
   2.3105840  39.1376000  29.7705870   2.4368580  40.4912850  30.4365230
   6.3378020  41.2755380  45.4599790   6.7519040  41.4300460  46.3090210
   5.4029020  41.4010600  45.6225570   6.8100190  38.6151540  47.4638940
   7.3920960  37.8603860  47.3759420   6.9861960  39.1458980  46.6870420
   3.4357150  38.9592040  44.8133560   3.5553360  38.3633180  45.5528400
   4.2951150  38.9961730  44.3934860   5.7745050  39.5129230  43.3896070
   5.2480270  40.0371850  42.7861210   6.1176390  40.1456620  44.0205800
   5.0219350  35.1179200  46.3042400   4.3334870  34.4560740  46.2392390
   5.7425370  34.6717470  46.7490860   5.6519750  31.7130830  32.3632660
   5.9322040  30.8698730  32.7192080   4.8785480  31.9453940  32.8771410
   2.3548210  47.9338590  32.4266460   3.2499000  48.2723560  32.4485220
   2.3865840  47.2118000  31.7990740   9.3342560  46.4642260  45.1332660
   8.7344550  46.5234820  44.3896580   9.4636460  45.5247240  45.2629510
  10.5744010  44.2060080  30.4702370   9.7436970  44.2736730  30.9409600
  10.7515840  45.0964200  30.1669230  10.0300470  40.9507560  32.9736570
  10.7919380  41.5204210  33.0796260  10.0454840  40.3834760  33.7444880
  11.0360440  41.8057660  37.8178500  11.4069270  41.0224980  37.4114470
  11.6762370  42.4946760  37.6395800   8.0194200  43.1894240  43.2308820
   7.2054040  43.6191400  43.4934610   8.4268400  43.8012650  42.6177870
  10.0819640  41.2441930  30.1309090  10.3568480  42.1520810  30.0028310
   9.8930380  41.1804460  31.0671080   6.4795250  34.2686780  31.4262720
   6.8980130  34.0817760  30.5859380   6.1731310  33.4165830  31.7365650
   9.9784980  39.1810920  35.1238520   9.6028580  38.4138850  34.6919810
   9.2488100  39.5633620  35.6113450   9.3684600  38.3282440  44.7578040
   9.1370690  38.0995190  43.8575990   9.6289150  39.2481990  44.7122930
   7.8072670  33.5538870  47.5357740   8.6842850  33.5622270  47.9191740
   7.8193510  32.8169710  46.9250090   9.2535940  37.4068410  38.4245760
   9.7773420  36.9131060  37.7935930   9.8395360  37.5418770  39.1693330
   9.4325660  37.4908280  41.9465310   8.4828370  37.4571820  42.0610300
   9.6138670  38.4008390  41.7115080   8.7435910  36.6641760  34.3638170
   9.2395030  36.4312630  35.1487050   8.5451980  35.8253600  33.9475810
  10.1723070  35.3002710  36.8975850  10.0622350  35.1458750  37.8358120
  10.9330660  34.7723650  36.6551260   8.5188790  31.2396840  43.3558850
   9.1561010  31.8530980  43.7218040   8.6663680  31.2757500  42.4108080
  11.0613340  33.1310630  30.1381990  11.9862650  32.9991810  29.9300280
  11.0389130  33.2103450  31.0918440  11.1351830  33.9021290  32.7638700
  10.3403330  33.8366410  33.2931610  11.3395110  34.8371930  32.7524050
   8.0770250  47.9412840  36.7577090   8.6729320  47.6197410  36.0811510
   8.3348400  47.4684660  37.5490360   1.8893270  32.3923030  46.2633950
   1.8282160  32.9844860  47.0129360   2.8293650  32.2848990  46.1184210
   4.5267830  32.0493090  45.9026240   5.1408240  32.3672380  45.2407320
   5.0717390  31.5641680  46.5222100  10.9443010  47.9484720  43.3088080
  10.4501290  48.3453590  42.5915210  10.3356300  47.3233930  43.7025360
   5.2675870  30.6125230  42.2295530   4.3935710  30.9460340  42.0268460
   5.1586620  30.1398410  43.0547400   6.1747850  32.8196100  43.6137250
   5.8461210  32.0047860  43.2338980   7.1230150  32.7765910  43.4902940
   8.6282460  48.5908140  40.5874820   8.1685430  49.3423950  40.2132840
   7.9994920  47.8714610  40.5289620   1.7973680  47.7904870  40.5891930
   2.0851490  47.5359170  39.7124940   2.3096900  47.2382230  41.1797500
   3.0150690  31.5295070  41.1688440   2.2322480  32.0040570  41.4485200
   2.7213620  30.6249900  41.0601620   7.5671760  32.2318170  39.2137530
   8.0079850  32.1763270  38.3659130   7.2979350  33.1476180  39.2847710
   9.4310330  31.8633410  37.2246350   9.3698730  30.9194630  37.0777370
  10.2102360  31.9713500  37.7699810   5.4029890  30.6124270  37.9187540
   6.0059260  31.1844480  38.3936060   4.6622880  31.1763710  37.6961440
   8.5464490  31.0145830  33.1927820   8.7415120  31.9129280  33.4595250
   7.7594360  30.7832910  33.6860770   1.8646040  48.7120970  47.9560130
   2.7913350  48.4765240  47.9996090   1.8496470  49.5392970  47.4746160
  10.0991100  48.2546540  34.9534380  10.2743290  47.5684280  34.3095300
   9.4012670  48.7793590  34.5611050   5.6525110  30.7919300  48.2982480
   5.5390560  31.1113910  49.1934000   6.4694850  31.1931810  48.0019760
   8.4323600  47.9390830  47.7801170   9.2248920  47.4440060  47.5727130
   8.7256750  48.6180970  48.3876780   4.5583260  38.8111770  18.6617220
   4.4777310  37.8966380  18.3908930   4.1447680  39.3078840  17.9556930
   2.6901300  40.5890790  20.5426490   1.9143400  40.1091230  20.8325060
   3.3414230  39.9096440  20.3682650   6.7108730  44.9950980  19.3225620
   6.2490260  44.2238220  19.6512790   7.5234280  45.0217050  19.8278070
   2.9372040  47.2808990  18.9429610   2.3183480  47.7366490  18.3724050
   3.7923820  47.4360450  18.5419310   2.1310290  43.2647980  20.5496650
   2.0618570  42.3237920  20.3885780   2.8930150  43.3549390  21.1219220
   3.1615460  36.0718360  20.7765580   3.5380280  35.1990240  20.6639250
   3.0634970  36.4077060  19.8856020   6.9439580  33.5668800  17.7093920
   7.7649200  33.0765370  17.7519400   6.9773660  34.1566460  18.4625760
  11.2339130  35.5835550  24.2737550  10.5291300  35.9717260  23.7552660
  11.4997050  36.2785840  24.8758480   3.8035390  42.1648230  16.3361520
   3.1852660  42.6297680  15.7724240   4.3158640  42.8575710  16.7531030
   7.1801060  35.5069180  20.4821460   6.4756630  35.7954070  21.0624570
   7.5413220  36.3169290  20.1221020   8.7963840  45.1244310  22.7448940
   8.1127360  45.7943420  22.7365610   9.3358130  45.3224960  21.9793800
  10.2487980  34.9523970  20.8730670   9.3012890  34.9862950  21.0046100
  10.5737970  35.7662920  21.2580030   6.3322580  46.9688440  21.4594120
   6.3449740  46.5650730  20.5916380   5.7797800  47.7435730  21.3555550
   7.6268000  43.6904660  16.5484290   7.5164330  42.7478990  16.6733710
   7.6236250  44.0520300  17.4347050   5.7308020  41.8718280  22.7876730
   6.1476810  41.6578390  21.9530190   6.4547840  42.1291070  23.3585350
   3.1688280  39.3169980  15.9046780   2.2417560  39.2507360  16.1335250
   3.3213100  40.2550110  15.7902020   3.1557360  35.5886980  12.9013940
   2.2161030  35.7500940  12.9866400   3.4740620  36.3072660  12.3549930
   9.6770120  40.2705500  22.8792970   8.8488750  40.3398590  22.4043100
  10.2720600  40.8559810  22.4108800   7.1985570  40.8790280  16.4082030
   6.5797990  40.5409830  15.7608330   7.1810020  40.2350040  17.1161220
   6.6412130  37.0574820  23.8247840   6.2283310  37.8828530  24.0787830
   5.9088080  36.4719860  23.6324200   7.3312230  47.1034150  24.5128820
   6.8542790  47.9106340  24.3201430   6.6474020  46.4512480  24.6655030
   5.3750270  40.1177090  13.4154780   5.8143550  39.2799520  13.2692600
   6.0878690  40.7506490  13.5018920   3.4845650  45.0573160  17.3836020
   3.9241560  45.7997490  16.9691410   3.4232540  45.2999730  18.3074980
   8.9567410  31.3719900  11.7295820   8.6440070  31.4646730  12.6294890
   9.7179880  31.9500930  11.6793250  10.9111440  46.8646090  29.5820210
  11.3871160  47.3428980  30.2609290  11.5318600  46.7963580  28.8565710
  10.3144690  44.0558940  26.7420220  10.4407750  43.8170820  25.8237400
  10.3566070  43.2243480  27.2142300   4.1761430  47.7586940  25.3115030
   4.6906100  47.6694950  26.1137460   3.3330510  48.1046640  25.6042940
   6.1515830  48.0442280  14.7399030   5.9916970  47.7545220  15.6380860
   5.9862540  47.2682410  14.2044260   5.8541960  45.5529840  13.2997030
   5.1607120  45.5507130  12.6399310   6.5964820  45.1289160  12.8691200
   5.4191890  47.1792550  17.3745520   5.8748840  46.3981930  17.6884140
   5.7584410  47.8899370  17.9186700  10.1668700  36.1091400  27.7069960
   9.5512970  36.6171070  27.1785420   9.8465120  35.2089730  27.6495900
   2.2283020  34.9483290  25.1732150   1.7662390  35.1566310  25.9852090
   1.8261130  34.1342640  24.8702820   7.2287530  36.1692240  26.3028810
   6.3781120  35.8697990  26.6237880   7.0689320  36.4134250  25.3912630
   4.3237240  37.6693990  28.4027600   4.6490650  36.8357740  28.0629830
   5.1117570  38.1922510  28.5505930   4.9625190  37.2111710  15.8968730
   4.3634080  37.9347510  15.7132350   5.5104800  37.1488490  15.1145180
   3.5690060  35.8475250  17.9272010   3.9619630  36.1647450  17.1140700
   3.9306910  34.9687130  18.0416530   4.1545200  38.4381000  22.0222790
   3.4226320  38.9467810  22.3712890   3.7569540  37.6210980  21.7211570
   4.6171110  33.8914680  21.4345730   4.6343850  34.3423330  22.2787580
   4.3686690  32.9920320  21.6479170   8.0441860  31.3046860  27.2732110
   8.3687630  30.5736520  27.7990090   8.0798370  30.9860500  26.3713100
   7.9699700  41.4171970  20.8818140   8.6898820  41.9127260  20.4914250
   7.7681520  40.7389860  20.2372010   3.4309640  32.8109930  15.0247530
   2.6174250  32.3123100  14.9492840   3.2371590  33.6508180  14.6083880
   3.3518500  41.4881030  26.7687140   3.2855810  40.5676700  26.5144730
   2.7223640  41.5856470  27.4831780   6.1458030  37.1829580  13.3209690
   7.0337650  37.4946810  13.1461030   6.1163120  36.3101830  12.9290270
   2.1418620  43.3553270  13.9997860   2.4834320  44.0995500  13.5041180
   1.3131330  43.6684390  14.3622690   3.2835230  44.3101600  26.5190940
   3.2979770  43.3782560  26.3009850   2.5760330  44.3961360  27.1580710
   8.4172300  38.4941420  12.7889550   8.3336020  38.9255640  11.9385990
   9.1366490  38.9539770  13.2216370   9.4946440  40.9508940  25.8659520
   8.7694630  41.5437720  25.6688910  10.0221900  40.9432480  25.0672890
   9.4459550  45.3483680  15.5171680   8.8035710  44.6939300  15.7915400
   9.0590210  45.7538770  14.7412350   5.0246030  42.6769110  19.3643370
   5.3769850  42.0797240  18.7044740   4.1408360  42.3513340  19.5351620
   2.7169130  45.9519170  23.6131440   3.3611350  46.1578550  24.2904860
   3.0798570  45.1907570  23.1602290   3.9901210  43.9551520  22.3308890
   4.6323440  43.2544680  22.4441060   4.5150560  44.7349960  22.1505780
   7.8356930  44.2400140  12.0548030   7.6094510  43.5230580  12.6472670
   7.4453130  43.9912580  11.2169780   5.7638830  44.7546420  25.5344950
   6.0995070  45.3413110  26.2122870   4.8439170  44.6239130  25.7642740
   7.4173180  42.1572080  13.7162190   7.1294880  42.6184770  14.5040070
   8.2125350  41.6969850  13.9846410   4.8081010  35.0363910  24.0669810
   5.1761830  34.2159120  24.3949380   3.9479210  35.0965800  24.4825460
   8.1743040  33.9920850  14.8757370   7.5456200  34.0966520  14.1615600
   7.6794960  34.2117630  15.6651250   2.6201180  45.7126440  12.3091350
   2.7213160  45.5090430  11.3793330   1.7202920  45.4584720  12.5139130
   1.7683000  37.6903500  24.2907780   2.2668250  38.1649320  24.9559630
   1.9105950  36.7667020  24.4977810   4.1742500  32.9957460  17.7311040
   4.0510280  33.0143590  16.7820550   5.1227060  33.0436400  17.8509440
   8.9749860  33.9071460  25.1336170   8.4723460  34.6476860  25.4729980
   9.7906520  34.2955460  24.8172960   7.2671870  39.1504640  18.5797530
   6.3262010  39.1654870  18.7545220   7.5815940  38.3640600  19.0257830
   9.2697450  46.3213490  20.2551790   9.3944870  47.1444660  20.7275600
  10.1363010  46.1104220  19.9075940   4.5837890  43.7070640  29.0629910
   3.9776050  43.7302240  28.3225660   4.2792000  42.9753680  29.5997160
   6.0138260  47.4350930  27.6739320   6.9660010  47.3508950  27.6239560
   5.8666480  48.0992640  28.3473110   8.9047460  46.8145140  13.1731230
   8.6188970  46.4010280  12.3585410   8.7067010  47.7432850  13.0531750
   3.6097420  41.8698450  12.2178830   3.0607520  42.3167750  12.8621570
   4.2316680  41.3647700  12.7416500   7.6632360  43.2240550  28.1501090
   8.4041830  43.5616310  27.6468550   6.9005040  43.3932610  27.5970860
   1.7900180  39.8526980  11.3621230   2.3105840  39.1376000  10.9962380
   2.4368580  40.4912850  11.6621740   6.3378020  41.2755380  26.6856300
   6.7519040  41.4300460  27.5346720   5.4029020  41.4010600  26.8482080
   6.8100190  38.6151540  28.6895450   7.3920960  37.8603860  28.6015930
   6.9861960  39.1458980  27.9126930   3.4357150  38.9592040  26.0390070
   3.5553360  38.3633180  26.7784910   4.2951150  38.9961730  25.6191370
   5.7745050  39.5129230  24.6152580   5.2480270  40.0371850  24.0117720
   6.1176390  40.1456620  25.2462310   5.0219350  35.1179200  27.5298910
   4.3334870  34.4560740  27.4648900   5.7425370  34.6717470  27.9747370
   5.6519750  31.7130830  13.5889170   5.9322040  30.8698730  13.9448590
   4.8785480  31.9453940  14.1027920   2.3548210  47.9338590  13.6522970
   3.2499000  48.2723560  13.6741730   2.3865840  47.2118000  13.0247250
   9.3342560  46.4642260  26.3589170   8.7344550  46.5234820  25.6153090
   9.4636460  45.5247240  26.4886020  10.5744010  44.2060080  11.6958880
   9.7436970  44.2736730  12.1666110  10.7515840  45.0964200  11.3925740
  10.0300470  40.9507560  14.1993080  10.7919380  41.5204210  14.3052770
  10.0454840  40.3834760  14.9701390  11.0360440  41.8057660  19.0435010
  11.4069270  41.0224980  18.6370980  11.6762370  42.4946760  18.8652310
   8.0194200  43.1894240  24.4565330   7.2054040  43.6191400  24.7191120
   8.4268400  43.8012650  23.8434380  10.0819640  41.2441930  11.3565600
  10.3568480  42.1520810  11.2284820   9.8930380  41.1804460  12.2927590
   6.4795250  34.2686780  12.6519230   6.8980130  34.0817760  11.8115890
   6.1731310  33.4165830  12.9622160   9.9784980  39.1810920  16.3495030
   9.6028580  38.4138850  15.9176320   9.2488100  39.5633620  16.8369960
   9.3684600  38.3282440  25.9834550   9.1370690  38.0995190  25.0832500
   9.6289150  39.2481990  25.9379440   7.8072670  33.5538870  28.7614250
   8.6842850  33.5622270  29.1448250   7.8193510  32.8169710  28.1506600
   9.2535940  37.4068410  19.6502270   9.7773420  36.9131060  19.0192440
   9.8395360  37.5418770  20.3949840   9.4325660  37.4908280  23.1721820
   8.4828370  37.4571820  23.2866810   9.6138670  38.4008390  22.9371590
   8.7435910  36.6641760  15.5894680   9.2395030  36.4312630  16.3743560
   8.5451980  35.8253600  15.1732320  10.1723070  35.3002710  18.1232360
  10.0622350  35.1458750  19.0614630  10.9330660  34.7723650  17.8807770
   8.5188790  31.2396840  24.5815360   9.1561010  31.8530980  24.9474550
   8.6663680  31.2757500  23.6364590  11.0613340  33.1310630  11.3638500
  11.9862650  32.9991810  11.1556790  11.0389130  33.2103450  12.3174950
  11.1351830  33.9021290  13.9895210  10.3403330  33.8366410  14.5188120
  11.3395110  34.8371930  13.9780560   8.0770250  47.9412840  17.9833600
   8.6729320  47.6197410  17.3068020   8.3348400  47.4684660  18.7746870
   1.8893270  32.3923030  27.4890460   1.8282160  32.9844860  28.2385870
   2.8293650  32.2848990  27.3440720   4.5267830  32.0493090  27.1282750
   5.1408240  32.3672380  26.4663830   5.0717390  31.5641680  27.7478610
  10.9443010  47.9484720  24.5344590  10.4501290  48.3453590  23.8171720
  10.3356300  47.3233930  24.9281870   5.2675870  30.6125230  23.4552040
   4.3935710  30.9460340  23.2524970   5.1586620  30.1398410  24.2803910
   6.1747850  32.8196100  24.8393760   5.8461210  32.0047860  24.4595490
   7.1230150  32.7765910  24.7159450   8.6282460  48.5908140  21.8131330
   8.1685430  49.3423950  21.4389350   7.9994920  47.8714610  21.7546130
   1.7973680  47.7904870  21.8148440   2.0851490  47.5359170  20.9381450
   2.3096900  47.2382230  22.4054010   3.0150690  31.5295070  22.3944950
   2.2322480  32.0040570  22.6741710   2.7213620  30.6249900  22.2858130
   7.5671760  32.2318170  20.4394040   8.0079850  32.1763270  19.5915640
   7.2979350  33.1476180  20.5104220   9.4310330  31.8633410  18.4502860
   9.3698730  30.9194630  18.3033880  10.2102360  31.9713500  18.9956320
   5.4029890  30.6124270  19.1444050   6.0059260  31.1844480  19.6192570
   4.6622880  31.1763710  18.9217950   8.5464490  31.0145830  14.4184330
   8.7415120  31.9129280  14.6851760   7.7594360  30.7832910  14.9117280
   1.8646040  48.7120970  29.1816640   2.7913350  48.4765240  29.2252600
   1.8496470  49.5392970  28.7002670  10.0991100  48.2546540  16.1790890
  10.2743290  47.5684280  15.5351810   9.4012670  48.7793590  15.7867560
   5.6525110  30.7919300  29.5238990   5.5390560  31.1113910  30.4190510
   6.4694850  31.1931810  29.2276270   8.4323600  47.9390830  29.0057680
   9.2248920  47.4440060  28.7983640   8.7256750  48.6180970  29.6133290
   2.6901300  40.5890790   1.7683000   1.9143400  40.1091230   2.0581570
   3.3414230  39.9096440   1.5939160   2.1310290  43.2647980   1.7753160
   2.0618570  42.3237920   1.6142290   2.8930150  43.3549390   2.3475730
  11.2339130  35.5835550   5.4994060  10.5291300  35.9717260   4.9809170
  11.4997050  36.2785840   6.1014990   8.7963840  45.1244310   3.9705450
   8.1127360  45.7943420   3.9622120   9.3358130  45.3224960   3.2050310
  10.2487980  34.9523970   2.0987180   9.3012890  34.9862950   2.2302610
  10.5737970  35.7662920   2.4836540   6.3322580  46.9688440   2.6850630
   6.3449740  46.5650730   1.8172890   5.7797800  47.7435730   2.5812060
   5.7308020  41.8718280   4.0133240   6.1476810  41.6578390   3.1786700
   6.4547840  42.1291070   4.5841860   9.6770120  40.2705500   4.1049480
   8.8488750  40.3398590   3.6299610  10.2720600  40.8559810   3.6365310
   6.6412130  37.0574820   5.0504350   6.2283310  37.8828530   5.3044340
   5.9088080  36.4719860   4.8580710   7.3312230  47.1034150   5.7385330
   6.8542790  47.9106340   5.5457940   6.6474020  46.4512480   5.8911540
  10.9111440  46.8646090  10.8076720  11.3871160  47.3428980  11.4865800
  11.5318600  46.7963580  10.0822220  10.3144690  44.0558940   7.9676730
  10.4407750  43.8170820   7.0493910  10.3566070  43.2243480   8.4398810
   4.1761430  47.7586940   6.5371540   4.6906100  47.6694950   7.3393970
   3.3330510  48.1046640   6.8299450  10.1668700  36.1091400   8.9326470
   9.5512970  36.6171070   8.4041930   9.8465120  35.2089730   8.8752410
   2.2283020  34.9483290   6.3988660   1.7662390  35.1566310   7.2108600
   1.8261130  34.1342640   6.0959330   7.2287530  36.1692240   7.5285320
   6.3781120  35.8697990   7.8494390   7.0689320  36.4134250   6.6169140
   4.3237240  37.6693990   9.6284110   4.6490650  36.8357740   9.2886340
   5.1117570  38.1922510   9.7762440   4.1545200  38.4381000   3.2479300
   3.4226320  38.9467810   3.5969400   3.7569540  37.6210980   2.9468080
   4.6171110  33.8914680   2.6602240   4.6343850  34.3423330   3.5044090
   4.3686690  32.9920320   2.8735680   8.0441860  31.3046860   8.4988620
   8.3687630  30.5736520   9.0246600   8.0798370  30.9860500   7.5969610
   7.9699700  41.4171970   2.1074650   8.6898820  41.9127260   1.7170760
   7.7681520  40.7389860   1.4628520   3.3518500  41.4881030   7.9943650
   3.2855810  40.5676700   7.7401240   2.7223640  41.5856470   8.7088290
   3.2835230  44.3101600   7.7447450   3.2979770  43.3782560   7.5266360
   2.5760330  44.3961360   8.3837220   9.4946440  40.9508940   7.0916030
   8.7694630  41.5437720   6.8945420  10.0221900  40.9432480   6.2929400
   2.7169130  45.9519170   4.8387950   3.3611350  46.1578550   5.5161370
   3.0798570  45.1907570   4.3858800   3.9901210  43.9551520   3.5565400
   4.6323440  43.2544680   3.6697570   4.5150560  44.7349960   3.3762290
   5.7638830  44.7546420   6.7601460   6.0995070  45.3413110   7.4379380
   4.8439170  44.6239130   6.9899250   4.8081010  35.0363910   5.2926320
   5.1761830  34.2159120   5.6205890   3.9479210  35.0965800   5.7081970
   1.7683000  37.6903500   5.5164290   2.2668250  38.1649320   6.1816140
   1.9105950  36.7667020   5.7234320   8.9749860  33.9071460   6.3592680
   8.4723460  34.6476860   6.6986490   9.7906520  34.2955460   6.0429470
   4.5837890  43.7070640  10.2886420   3.9776050  43.7302240   9.5482170
   4.2792000  42.9753680  10.8253670   6.0138260  47.4350930   8.8995830
   6.9660010  47.3508950   8.8496070   5.8666480  48.0992640   9.5729620
   7.6632360  43.2240550   9.3757600   8.4041830  43.5616310   8.8725060
   6.9005040  43.3932610   8.8227370   6.3378020  41.2755380   7.9112810
   6.7519040  41.4300460   8.7603230   5.4029020  41.4010600   8.0738590
   6.8100190  38.6151540   9.9151960   7.3920960  37.8603860   9.8272440
   6.9861960  39.1458980   9.1383440   3.4357150  38.9592040   7.2646580
   3.5553360  38.3633180   8.0041420   4.2951150  38.9961730   6.8447880
   5.7745050  39.5129230   5.8409090   5.2480270  40.0371850   5.2374230
   6.1176390  40.1456620   6.4718820   5.0219350  35.1179200   8.7555420
   4.3334870  34.4560740   8.6905410   5.7425370  34.6717470   9.2003880
   9.3342560  46.4642260   7.5845680   8.7344550  46.5234820   6.8409600
   9.4636460  45.5247240   7.7142530   8.0194200  43.1894240   5.6821840
   7.2054040  43.6191400   5.9447630   8.4268400  43.8012650   5.0690890
   9.3684600  38.3282440   7.2091060   9.1370690  38.0995190   6.3089010
   9.6289150  39.2481990   7.1635950   7.8072670  33.5538870   9.9870760
   8.6842850  33.5622270  10.3704760   7.8193510  32.8169710   9.3763110
   9.4325660  37.4908280   4.3978330   8.4828370  37.4571820   4.5123320
   9.6138670  38.4008390   4.1628100   8.5188790  31.2396840   5.8071870
   9.1561010  31.8530980   6.1731060   8.6663680  31.2757500   4.8621100
   1.8893270  32.3923030   8.7146970   1.8282160  32.9844860   9.4642380
   2.8293650  32.2848990   8.5697230   4.5267830  32.0493090   8.3539260
   5.1408240  32.3672380   7.6920340   5.0717390  31.5641680   8.9735120
  10.9443010  47.9484720   5.7601100  10.4501290  48.3453590   5.0428230
  10.3356300  47.3233930   6.1538380   5.2675870  30.6125230   4.6808550
   4.3935710  30.9460340   4.4781480   5.1586620  30.1398410   5.5060420
   6.1747850  32.8196100   6.0650270   5.8461210  32.0047860   5.6852000
   7.1230150  32.7765910   5.9415960   8.6282460  48.5908140   3.0387840
   8.1685430  49.3423950   2.6645860   7.9994920  47.8714610   2.9802640
   1.7973680  47.7904870   3.0404950   2.0851490  47.5359170   2.1637960
   2.3096900  47.2382230   3.6310520   3.0150690  31.5295070   3.6201460
   2.2322480  32.0040570   3.8998220   2.7213620  30.6249900   3.5114640
   1.8646040  48.7120970  10.4073150   2.7913350  48.4765240  10.4509110
   1.8496470  49.5392970   9.9259180   5.6525110  30.7919300  10.7495500
   5.5390560  31.1113910  11.6447020   6.4694850  31.1931810  10.4532780
   8.4323600  47.9390830  10.2314190   9.2248920  47.4440060  10.0240150
   8.7256750  48.6180970  10.8389800   4.5583260  20.0368280 150.0821650
   4.4777310  19.1222890 149.8113360   4.1447680  20.5335350 149.3761360
   6.7108730  26.2207490 150.7430050   6.2490260  25.4494730 151.0717220
   7.5234280  26.2473560 151.2482500   2.9372040  28.5065500 150.3634040
   2.3183480  28.9623000 149.7928480   3.7923820  28.6616960 149.9623740
   6.9439580  14.7925310 149.1298350   7.7649200  14.3021880 149.1723830
   6.9773660  15.3822970 149.8830190   3.8035390  23.3904740 147.7565950
   3.1852660  23.8554190 147.1928670   4.3158640  24.0832220 148.1735460
   7.6268000  24.9161170 147.9688720   7.5164330  23.9735500 148.0938140
   7.6236250  25.2776810 148.8551480   3.1688280  20.5426490 147.3251210
   2.2417560  20.4763870 147.5539680   3.3213100  21.4806620 147.2106450
   3.1557360  16.8143490 144.3218370   2.2161030  16.9757450 144.4070830
   3.4740620  17.5329170 143.7754360   7.1985570  22.1046790 147.8286460
   6.5797990  21.7666340 147.1812760   7.1810020  21.4606550 148.5365650
   5.3750270  21.3433600 144.8359210   5.8143550  20.5056030 144.6897030
   6.0878690  21.9763000 144.9223350   3.4845650  26.2829670 148.8040450
   3.9241560  27.0254000 148.3895840   3.4232540  26.5256240 149.7279410
   8.9567410  12.5976410 143.1500250   8.6440070  12.6903240 144.0499320
   9.7179880  13.1757440 143.0997680   6.1515830  29.2698790 146.1603460
   5.9916970  28.9801730 147.0585290   5.9862540  28.4938920 145.6248690
   5.8541960  26.7786350 144.7201460   5.1607120  26.7763640 144.0603740
   6.5964820  26.3545670 144.2895630   5.4191890  28.4049060 148.7949950
   5.8748840  27.6238440 149.1088570   5.7584410  29.1155880 149.3391130
   4.9625190  18.4368220 147.3173160   4.3634080  19.1604020 147.1336780
   5.5104800  18.3745000 146.5349610   3.5690060  17.0731760 149.3476440
   3.9619630  17.3903960 148.5345130   3.9306910  16.1943640 149.4620960
   3.4309640  14.0366440 146.4451960   2.6174250  13.5379610 146.3697270
   3.2371590  14.8764690 146.0288310   6.1458030  18.4086090 144.7414120
   7.0337650  18.7203320 144.5665460   6.1163120  17.5358340 144.3494700
   2.1418620  24.5809780 145.4202290   2.4834320  25.3252010 144.9245610
   1.3131330  24.8940900 145.7827120   8.4172300  19.7197930 144.2093980
   8.3336020  20.1512150 143.3590420   9.1366490  20.1796280 144.6420800
   9.4459550  26.5740190 146.9376110   8.8035710  25.9195810 147.2119830
   9.0590210  26.9795280 146.1616780   5.0246030  23.9025620 150.7847800
   5.3769850  23.3053750 150.1249170   4.1408360  23.5769850 150.9556050
   7.8356930  25.4656650 143.4752460   7.6094510  24.7487090 144.0677100
   7.4453130  25.2169090 142.6374210   7.4173180  23.3828590 145.1366620
   7.1294880  23.8441280 145.9244500   8.2125350  22.9226360 145.4050840
   8.1743040  15.2177360 146.2961800   7.5456200  15.3223030 145.5820030
   7.6794960  15.4374140 147.0855680   2.6201180  26.9382950 143.7295780
   2.7213160  26.7346940 142.7997760   1.7202920  26.6841230 143.9343560
   4.1742500  14.2213970 149.1515470   4.0510280  14.2400100 148.2024980
   5.1227060  14.2692910 149.2713870   7.2671870  20.3761150 150.0001960
   6.3262010  20.3911380 150.1749650   7.5815940  19.5897110 150.4462260
   8.9047460  28.0401650 144.5935660   8.6188970  27.6266790 143.7789840
   8.7067010  28.9689360 144.4736180   3.6097420  23.0954960 143.6383260
   3.0607520  23.5424260 144.2826000   4.2316680  22.5904210 144.1620930
   1.7900180  21.0783490 142.7825660   2.3105840  20.3632510 142.4166810
   2.4368580  21.7169360 143.0826170   5.6519750  12.9387340 145.0093600
   5.9322040  12.0955240 145.3653020   4.8785480  13.1710450 145.5232350
   2.3548210  29.1595100 145.0727400   3.2499000  29.4980070 145.0946160
   2.3865840  28.4374510 144.4451680  10.5744010  25.4316590 143.1163310
   9.7436970  25.4993240 143.5870540  10.7515840  26.3220710 142.8130170
  10.0300470  22.1764070 145.6197510  10.7919380  22.7460720 145.7257200
  10.0454840  21.6091270 146.3905820  11.0360440  23.0314170 150.4639440
  11.4069270  22.2481490 150.0575410  11.6762370  23.7203270 150.2856740
  10.0819640  22.4698440 142.7770030  10.3568480  23.3777320 142.6489250
   9.8930380  22.4060970 143.7132020   6.4795250  15.4943290 144.0723660
   6.8980130  15.3074270 143.2320320   6.1731310  14.6422340 144.3826590
   9.9784980  20.4067430 147.7699460   9.6028580  19.6395360 147.3380750
   9.2488100  20.7890130 148.2574390   8.7435910  17.8898270 147.0099110
   9.2395030  17.6569140 147.7947990   8.5451980  17.0510110 146.5936750
  10.1723070  16.5259220 149.5436790  10.0622350  16.3715260 150.4819060
  10.9330660  15.9980160 149.3012200  11.0613340  14.3567140 142.7842930
  11.9862650  14.2248320 142.5761220  11.0389130  14.4359960 143.7379380
  11.1351830  15.1277800 145.4099640  10.3403330  15.0622920 145.9392550
  11.3395110  16.0628440 145.3984990   8.0770250  29.1669350 149.4038030
   8.6729320  28.8453920 148.7272450   8.3348400  28.6941170 150.1951300
   9.4310330  13.0889920 149.8707290   9.3698730  12.1451140 149.7238310
  10.2102360  13.1970010 150.4160750   5.4029890  11.8380780 150.5648480
   6.0059260  12.4100990 151.0397000   4.6622880  12.4020220 150.3422380
   8.5464490  12.2402340 145.8388760   8.7415120  13.1385790 146.1056190
   7.7594360  12.0089420 146.3321710  10.0991100  29.4803050 147.5995320
  10.2743290  28.7940790 146.9556240   9.4012670  30.0050100 147.2071990
   4.5583260  20.0368280 131.3078160   4.4777310  19.1222890 131.0369870
   4.1447680  20.5335350 130.6017870   2.6901300  21.8147300 133.1887430
   1.9143400  21.3347740 133.4786000   3.3414230  21.1352950 133.0143590
   6.7108730  26.2207490 131.9686560   6.2490260  25.4494730 132.2973730
   7.5234280  26.2473560 132.4739010   2.9372040  28.5065500 131.5890550
   2.3183480  28.9623000 131.0184990   3.7923820  28.6616960 131.1880250
   2.1310290  24.4904490 133.1957590   2.0618570  23.5494430 133.0346720
   2.8930150  24.5805900 133.7680160   3.1615460  17.2974870 133.4226520
   3.5380280  16.4246750 133.3100190   3.0634970  17.6333570 132.5316960
   6.9439580  14.7925310 130.3554860   7.7649200  14.3021880 130.3980340
   6.9773660  15.3822970 131.1086700  11.2339130  16.8092060 136.9198490
  10.5291300  17.1973770 136.4013600  11.4997050  17.5042350 137.5219420
   3.8035390  23.3904740 128.9822460   3.1852660  23.8554190 128.4185180
   4.3158640  24.0832220 129.3991970   7.1801060  16.7325690 133.1282400
   6.4756630  17.0210580 133.7085510   7.5413220  17.5425800 132.7681960
   8.7963840  26.3500820 135.3909880   8.1127360  27.0199930 135.3826550
   9.3358130  26.5481470 134.6254740  10.2487980  16.1780480 133.5191610
   9.3012890  16.2119460 133.6507040  10.5737970  16.9919430 133.9040970
   6.3322580  28.1944950 134.1055060   6.3449740  27.7907240 133.2377320
   5.7797800  28.9692240 134.0016490   7.6268000  24.9161170 129.1945230
   7.5164330  23.9735500 129.3194650   7.6236250  25.2776810 130.0807990
   5.7308020  23.0974790 135.4337670   6.1476810  22.8834900 134.5991130
   6.4547840  23.3547580 136.0046290   3.1688280  20.5426490 128.5507720
   2.2417560  20.4763870 128.7796190   3.3213100  21.4806620 128.4362960
   3.1557360  16.8143490 125.5474880   2.2161030  16.9757450 125.6327340
   3.4740620  17.5329170 125.0010870   9.6770120  21.4962010 135.5253910
   8.8488750  21.5655100 135.0504040  10.2720600  22.0816320 135.0569740
   7.1985570  22.1046790 129.0542970   6.5797990  21.7666340 128.4069270
   7.1810020  21.4606550 129.7622160   6.6412130  18.2831330 136.4708780
   6.2283310  19.1085040 136.7248770   5.9088080  17.6976370 136.2785140
   7.3312230  28.3290660 137.1589760   6.8542790  29.1362850 136.9662370
   6.6474020  27.6768990 137.3115970   5.3750270  21.3433600 126.0615720
   5.8143550  20.5056030 125.9153540   6.0878690  21.9763000 126.1479860
   3.4845650  26.2829670 130.0296960   3.9241560  27.0254000 129.6152350
   3.4232540  26.5256240 130.9535920   8.9567410  12.5976410 124.3756760
   8.6440070  12.6903240 125.2755830   9.7179880  13.1757440 124.3254190
  10.9111440  28.0902600 142.2281150  11.3871160  28.5685490 142.9070230
  11.5318600  28.0220090 141.5026650  10.3144690  25.2815450 139.3881160
  10.4407750  25.0427330 138.4698340  10.3566070  24.4499990 139.8603240
   4.1761430  28.9843450 137.9575970   4.6906100  28.8951460 138.7598400
   3.3330510  29.3303150 138.2503880   6.1515830  29.2698790 127.3859970
   5.9916970  28.9801730 128.2841800   5.9862540  28.4938920 126.8505200
   5.8541960  26.7786350 125.9457970   5.1607120  26.7763640 125.2860250
   6.5964820  26.3545670 125.5152140   5.4191890  28.4049060 130.0206460
   5.8748840  27.6238440 130.3345080   5.7584410  29.1155880 130.5647640
  10.1668700  17.3347910 140.3530900   9.5512970  17.8427580 139.8246360
   9.8465120  16.4346240 140.2956840   2.2283020  16.1739800 137.8193090
   1.7662390  16.3822820 138.6313030   1.8261130  15.3599150 137.5163760
   7.2287530  17.3948750 138.9489750   6.3781120  17.0954500 139.2698820
   7.0689320  17.6390760 138.0373570   4.3237240  18.8950500 141.0488540
   4.6490650  18.0614250 140.7090770   5.1117570  19.4179020 141.1966870
   4.9625190  18.4368220 128.5429670   4.3634080  19.1604020 128.3593290
   5.5104800  18.3745000 127.7606120   3.5690060  17.0731760 130.5732950
   3.9619630  17.3903960 129.7601640   3.9306910  16.1943640 130.6877470
   4.1545200  19.6637510 134.6683730   3.4226320  20.1724320 135.0173830
   3.7569540  18.8467490 134.3672510   4.6171110  15.1171190 134.0806670
   4.6343850  15.5679840 134.9248520   4.3686690  14.2176830 134.2940110
   8.0441860  12.5303370 139.9193050   8.3687630  11.7993030 140.4451030
   8.0798370  12.2117010 139.0174040   7.9699700  22.6428480 133.5279080
   8.6898820  23.1383770 133.1375190   7.7681520  21.9646370 132.8832950
   3.4309640  14.0366440 127.6708470   2.6174250  13.5379610 127.5953780
   3.2371590  14.8764690 127.2544820   3.3518500  22.7137540 139.4148080
   3.2855810  21.7933210 139.1605670   2.7223640  22.8112980 140.1292720
   6.1458030  18.4086090 125.9670630   7.0337650  18.7203320 125.7921970
   6.1163120  17.5358340 125.5751210   2.1418620  24.5809780 126.6458800
   2.4834320  25.3252010 126.1502120   1.3131330  24.8940900 127.0083630
   3.2835230  25.5358110 139.1651880   3.2979770  24.6039070 138.9470790
   2.5760330  25.6217870 139.8041650   8.4172300  19.7197930 125.4350490
   8.3336020  20.1512150 124.5846930   9.1366490  20.1796280 125.8677310
   9.4946440  22.1765450 138.5120460   8.7694630  22.7694230 138.3149850
  10.0221900  22.1688990 137.7133830   9.4459550  26.5740190 128.1632620
   8.8035710  25.9195810 128.4376340   9.0590210  26.9795280 127.3873290
   5.0246030  23.9025620 132.0104310   5.3769850  23.3053750 131.3505680
   4.1408360  23.5769850 132.1812560   2.7169130  27.1775680 136.2592380
   3.3611350  27.3835060 136.9365800   3.0798570  26.4164080 135.8063230
   3.9901210  25.1808030 134.9769830   4.6323440  24.4801190 135.0902000
   4.5150560  25.9606470 134.7966720   7.8356930  25.4656650 124.7008970
   7.6094510  24.7487090 125.2933610   7.4453130  25.2169090 123.8630720
   5.7638830  25.9802930 138.1805890   6.0995070  26.5669620 138.8583810
   4.8439170  25.8495640 138.4103680   7.4173180  23.3828590 126.3623130
   7.1294880  23.8441280 127.1501010   8.2125350  22.9226360 126.6307350
   4.8081010  16.2620420 136.7130750   5.1761830  15.4415630 137.0410320
   3.9479210  16.3222310 137.1286400   8.1743040  15.2177360 127.5218310
   7.5456200  15.3223030 126.8076540   7.6794960  15.4374140 128.3112190
   2.6201180  26.9382950 124.9552290   2.7213160  26.7346940 124.0254270
   1.7202920  26.6841230 125.1600070   1.7683000  18.9160010 136.9368720
   2.2668250  19.3905830 137.6020570   1.9105950  17.9923530 137.1438750
   4.1742500  14.2213970 130.3771980   4.0510280  14.2400100 129.4281490
   5.1227060  14.2692910 130.4970380   8.9749860  15.1327970 137.7797110
   8.4723460  15.8733370 138.1190920   9.7906520  15.5211970 137.4633900
   7.2671870  20.3761150 131.2258470   6.3262010  20.3911380 131.4006160
   7.5815940  19.5897110 131.6718770   9.2697450  27.5470000 132.9012730
   9.3944870  28.3701170 133.3736540  10.1363010  27.3360730 132.5536880
   4.5837890  24.9327150 141.7090850   3.9776050  24.9558750 140.9686600
   4.2792000  24.2010190 142.2458100   6.0138260  28.6607440 140.3200260
   6.9660010  28.5765460 140.2700500   5.8666480  29.3249150 140.9934050
   8.9047460  28.0401650 125.8192170   8.6188970  27.6266790 125.0046350
   8.7067010  28.9689360 125.6992690   3.6097420  23.0954960 124.8639770
   3.0607520  23.5424260 125.5082510   4.2316680  22.5904210 125.3877440
   7.6632360  24.4497060 140.7962030   8.4041830  24.7872820 140.2929490
   6.9005040  24.6189120 140.2431800   1.7900180  21.0783490 124.0082170
   2.3105840  20.3632510 123.6423320   2.4368580  21.7169360 124.3082680
   6.3378020  22.5011890 139.3317240   6.7519040  22.6556970 140.1807660
   5.4029020  22.6267110 139.4943020   6.8100190  19.8408050 141.3356390
   7.3920960  19.0860370 141.2476870   6.9861960  20.3715490 140.5587870
   3.4357150  20.1848550 138.6851010   3.5553360  19.5889690 139.4245850
   4.2951150  20.2218240 138.2652310   5.7745050  20.7385740 137.2613520
   5.2480270  21.2628360 136.6578660   6.1176390  21.3713130 137.8923250
   5.0219350  16.3435710 140.1759850   4.3334870  15.6817250 140.1109840
   5.7425370  15.8973980 140.6208310   5.6519750  12.9387340 126.2350110
   5.9322040  12.0955240 126.5909530   4.8785480  13.1710450 126.7488860
   2.3548210  29.1595100 126.2983910   3.2499000  29.4980070 126.3202670
   2.3865840  28.4374510 125.6708190   9.3342560  27.6898770 139.0050110
   8.7344550  27.7491330 138.2614030   9.4636460  26.7503750 139.1346960
  10.5744010  25.4316590 124.3419820   9.7436970  25.4993240 124.8127050
  10.7515840  26.3220710 124.0386680  10.0300470  22.1764070 126.8454020
  10.7919380  22.7460720 126.9513710  10.0454840  21.6091270 127.6162330
  11.0360440  23.0314170 131.6895950  11.4069270  22.2481490 131.2831920
  11.6762370  23.7203270 131.5113250   8.0194200  24.4150750 137.1026270
   7.2054040  24.8447910 137.3652060   8.4268400  25.0269160 136.4895320
  10.0819640  22.4698440 124.0026540  10.3568480  23.3777320 123.8745760
   9.8930380  22.4060970 124.9388530   6.4795250  15.4943290 125.2980170
   6.8980130  15.3074270 124.4576830   6.1731310  14.6422340 125.6083100
   9.9784980  20.4067430 128.9955970   9.6028580  19.6395360 128.5637260
   9.2488100  20.7890130 129.4830900   9.3684600  19.5538950 138.6295490
   9.1370690  19.3251700 137.7293440   9.6289150  20.4738500 138.5840380
   7.8072670  14.7795380 141.4075190   8.6842850  14.7878780 141.7909190
   7.8193510  14.0426220 140.7967540   9.2535940  18.6324920 132.2963210
   9.7773420  18.1387570 131.6653380   9.8395360  18.7675280 133.0410780
   9.4325660  18.7164790 135.8182760   8.4828370  18.6828330 135.9327750
   9.6138670  19.6264900 135.5832530   8.7435910  17.8898270 128.2355620
   9.2395030  17.6569140 129.0204500   8.5451980  17.0510110 127.8193260
  10.1723070  16.5259220 130.7693300  10.0622350  16.3715260 131.7075570
  10.9330660  15.9980160 130.5268710   8.5188790  12.4653350 137.2276300
   9.1561010  13.0787490 137.5935490   8.6663680  12.5014010 136.2825530
  11.0613340  14.3567140 124.0099440  11.9862650  14.2248320 123.8017730
  11.0389130  14.4359960 124.9635890  11.1351830  15.1277800 126.6356150
  10.3403330  15.0622920 127.1649060  11.3395110  16.0628440 126.6241500
   8.0770250  29.1669350 130.6294540   8.6729320  28.8453920 129.9528960
   8.3348400  28.6941170 131.4207810   1.8893270  13.6179540 140.1351400
   1.8282160  14.2101370 140.8846810   2.8293650  13.5105500 139.9901660
   4.5267830  13.2749600 139.7743690   5.1408240  13.5928890 139.1124770
   5.0717390  12.7898190 140.3939550  10.9443010  29.1741230 137.1805530
  10.4501290  29.5710100 136.4632660  10.3356300  28.5490440 137.5742810
   5.2675870  11.8381740 136.1012980   4.3935710  12.1716850 135.8985910
   5.1586620  11.3654920 136.9264850   6.1747850  14.0452610 137.4854700
   5.8461210  13.2304370 137.1056430   7.1230150  14.0022420 137.3620390
   8.6282460  29.8164650 134.4592270   8.1685430  30.5680460 134.0850290
   7.9994920  29.0971120 134.4007070   1.7973680  29.0161380 134.4609380
   2.0851490  28.7615680 133.5842390   2.3096900  28.4638740 135.0514950
   3.0150690  12.7551580 135.0405890   2.2322480  13.2297080 135.3202650
   2.7213620  11.8506410 134.9319070   7.5671760  13.4574680 133.0854980
   8.0079850  13.4019780 132.2376580   7.2979350  14.3732690 133.1565160
   9.4310330  13.0889920 131.0963800   9.3698730  12.1451140 130.9494820
  10.2102360  13.1970010 131.6417260   5.4029890  11.8380780 131.7904990
   6.0059260  12.4100990 132.2653510   4.6622880  12.4020220 131.5678890
   8.5464490  12.2402340 127.0645270   8.7415120  13.1385790 127.3312700
   7.7594360  12.0089420 127.5578220   1.8646040  29.9377480 141.8277580
   2.7913350  29.7021750 141.8713540   1.8496470  30.7649480 141.3463610
  10.0991100  29.4803050 128.8251830  10.2743290  28.7940790 128.1812750
   9.4012670  30.0050100 128.4328500   5.6525110  12.0175810 142.1699930
   5.5390560  12.3370420 143.0651450   6.4694850  12.4188320 141.8737210
   8.4323600  29.1647340 141.6518620   9.2248920  28.6696570 141.4444580
   8.7256750  29.8437480 142.2594230   4.5583260  20.0368280 112.5334670
   4.4777310  19.1222890 112.2626380   4.1447680  20.5335350 111.8274380
   2.6901300  21.8147300 114.4143940   1.9143400  21.3347740 114.7042510
   3.3414230  21.1352950 114.2400100   6.7108730  26.2207490 113.1943070
   6.2490260  25.4494730 113.5230240   7.5234280  26.2473560 113.6995520
   2.9372040  28.5065500 112.8147060   2.3183480  28.9623000 112.2441500
   3.7923820  28.6616960 112.4136760   2.1310290  24.4904490 114.4214100
   2.0618570  23.5494430 114.2603230   2.8930150  24.5805900 114.9936670
   3.1615460  17.2974870 114.6483030   3.5380280  16.4246750 114.5356700
   3.0634970  17.6333570 113.7573470   6.9439580  14.7925310 111.5811370
   7.7649200  14.3021880 111.6236850   6.9773660  15.3822970 112.3343210
  11.2339130  16.8092060 118.1455000  10.5291300  17.1973770 117.6270110
  11.4997050  17.5042350 118.7475930   3.8035390  23.3904740 110.2078970
   3.1852660  23.8554190 109.6441690   4.3158640  24.0832220 110.6248480
   7.1801060  16.7325690 114.3538910   6.4756630  17.0210580 114.9342020
   7.5413220  17.5425800 113.9938470   8.7963840  26.3500820 116.6166390
   8.1127360  27.0199930 116.6083060   9.3358130  26.5481470 115.8511250
  10.2487980  16.1780480 114.7448120   9.3012890  16.2119460 114.8763550
  10.5737970  16.9919430 115.1297480   6.3322580  28.1944950 115.3311570
   6.3449740  27.7907240 114.4633830   5.7797800  28.9692240 115.2273000
   7.6268000  24.9161170 110.4201740   7.5164330  23.9735500 110.5451160
   7.6236250  25.2776810 111.3064500   5.7308020  23.0974790 116.6594180
   6.1476810  22.8834900 115.8247640   6.4547840  23.3547580 117.2302800
   3.1688280  20.5426490 109.7764230   2.2417560  20.4763870 110.0052700
   3.3213100  21.4806620 109.6619470   3.1557360  16.8143490 106.7731390
   2.2161030  16.9757450 106.8583850   3.4740620  17.5329170 106.2267380
   9.6770120  21.4962010 116.7510420   8.8488750  21.5655100 116.2760550
  10.2720600  22.0816320 116.2826250   7.1985570  22.1046790 110.2799480
   6.5797990  21.7666340 109.6325780   7.1810020  21.4606550 110.9878670
   6.6412130  18.2831330 117.6965290   6.2283310  19.1085040 117.9505280
   5.9088080  17.6976370 117.5041650   7.3312230  28.3290660 118.3846270
   6.8542790  29.1362850 118.1918880   6.6474020  27.6768990 118.5372480
   5.3750270  21.3433600 107.2872230   5.8143550  20.5056030 107.1410050
   6.0878690  21.9763000 107.3736370   3.4845650  26.2829670 111.2553470
   3.9241560  27.0254000 110.8408860   3.4232540  26.5256240 112.1792430
   8.9567410  12.5976410 105.6013270   8.6440070  12.6903240 106.5012340
   9.7179880  13.1757440 105.5510700  10.9111440  28.0902600 123.4537660
  11.3871160  28.5685490 124.1326740  11.5318600  28.0220090 122.7283160
  10.3144690  25.2815450 120.6137670  10.4407750  25.0427330 119.6954850
  10.3566070  24.4499990 121.0859750   4.1761430  28.9843450 119.1832480
   4.6906100  28.8951460 119.9854910   3.3330510  29.3303150 119.4760390
   6.1515830  29.2698790 108.6116480   5.9916970  28.9801730 109.5098310
   5.9862540  28.4938920 108.0761710   5.8541960  26.7786350 107.1714480
   5.1607120  26.7763640 106.5116760   6.5964820  26.3545670 106.7408650
   5.4191890  28.4049060 111.2462970   5.8748840  27.6238440 111.5601590
   5.7584410  29.1155880 111.7904150  10.1668700  17.3347910 121.5787410
   9.5512970  17.8427580 121.0502870   9.8465120  16.4346240 121.5213350
   2.2283020  16.1739800 119.0449600   1.7662390  16.3822820 119.8569540
   1.8261130  15.3599150 118.7420270   7.2287530  17.3948750 120.1746260
   6.3781120  17.0954500 120.4955330   7.0689320  17.6390760 119.2630080
   4.3237240  18.8950500 122.2745050   4.6490650  18.0614250 121.9347280
   5.1117570  19.4179020 122.4223380   4.9625190  18.4368220 109.7686180
   4.3634080  19.1604020 109.5849800   5.5104800  18.3745000 108.9862630
   3.5690060  17.0731760 111.7989460   3.9619630  17.3903960 110.9858150
   3.9306910  16.1943640 111.9133980   4.1545200  19.6637510 115.8940240
   3.4226320  20.1724320 116.2430340   3.7569540  18.8467490 115.5929020
   4.6171110  15.1171190 115.3063180   4.6343850  15.5679840 116.1505030
   4.3686690  14.2176830 115.5196620   8.0441860  12.5303370 121.1449560
   8.3687630  11.7993030 121.6707540   8.0798370  12.2117010 120.2430550
   7.9699700  22.6428480 114.7535590   8.6898820  23.1383770 114.3631700
   7.7681520  21.9646370 114.1089460   3.4309640  14.0366440 108.8964980
   2.6174250  13.5379610 108.8210290   3.2371590  14.8764690 108.4801330
   3.3518500  22.7137540 120.6404590   3.2855810  21.7933210 120.3862180
   2.7223640  22.8112980 121.3549230   6.1458030  18.4086090 107.1927140
   7.0337650  18.7203320 107.0178480   6.1163120  17.5358340 106.8007720
   2.1418620  24.5809780 107.8715310   2.4834320  25.3252010 107.3758630
   1.3131330  24.8940900 108.2340140   3.2835230  25.5358110 120.3908390
   3.2979770  24.6039070 120.1727300   2.5760330  25.6217870 121.0298160
   8.4172300  19.7197930 106.6607000   8.3336020  20.1512150 105.8103440
   9.1366490  20.1796280 107.0933820   9.4946440  22.1765450 119.7376970
   8.7694630  22.7694230 119.5406360  10.0221900  22.1688990 118.9390340
   9.4459550  26.5740190 109.3889130   8.8035710  25.9195810 109.6632850
   9.0590210  26.9795280 108.6129800   5.0246030  23.9025620 113.2360820
   5.3769850  23.3053750 112.5762190   4.1408360  23.5769850 113.4069070
   2.7169130  27.1775680 117.4848890   3.3611350  27.3835060 118.1622310
   3.0798570  26.4164080 117.0319740   3.9901210  25.1808030 116.2026340
   4.6323440  24.4801190 116.3158510   4.5150560  25.9606470 116.0223230
   7.8356930  25.4656650 105.9265480   7.6094510  24.7487090 106.5190120
   7.4453130  25.2169090 105.0887230   5.7638830  25.9802930 119.4062400
   6.0995070  26.5669620 120.0840320   4.8439170  25.8495640 119.6360190
   7.4173180  23.3828590 107.5879640   7.1294880  23.8441280 108.3757520
   8.2125350  22.9226360 107.8563860   4.8081010  16.2620420 117.9387260
   5.1761830  15.4415630 118.2666830   3.9479210  16.3222310 118.3542910
   8.1743040  15.2177360 108.7474820   7.5456200  15.3223030 108.0333050
   7.6794960  15.4374140 109.5368700   2.6201180  26.9382950 106.1808800
   2.7213160  26.7346940 105.2510780   1.7202920  26.6841230 106.3856580
   1.7683000  18.9160010 118.1625230   2.2668250  19.3905830 118.8277080
   1.9105950  17.9923530 118.3695260   4.1742500  14.2213970 111.6028490
   4.0510280  14.2400100 110.6538000   5.1227060  14.2692910 111.7226890
   8.9749860  15.1327970 119.0053620   8.4723460  15.8733370 119.3447430
   9.7906520  15.5211970 118.6890410   7.2671870  20.3761150 112.4514980
   6.3262010  20.3911380 112.6262670   7.5815940  19.5897110 112.8975280
   9.2697450  27.5470000 114.1269240   9.3944870  28.3701170 114.5993050
  10.1363010  27.3360730 113.7793390   4.5837890  24.9327150 122.9347360
   3.9776050  24.9558750 122.1943110   4.2792000  24.2010190 123.4714610
   6.0138260  28.6607440 121.5456770   6.9660010  28.5765460 121.4957010
   5.8666480  29.3249150 122.2190560   8.9047460  28.0401650 107.0448680
   8.6188970  27.6266790 106.2302860   8.7067010  28.9689360 106.9249200
   3.6097420  23.0954960 106.0896280   3.0607520  23.5424260 106.7339020
   4.2316680  22.5904210 106.6133950   7.6632360  24.4497060 122.0218540
   8.4041830  24.7872820 121.5186000   6.9005040  24.6189120 121.4688310
   1.7900180  21.0783490 105.2338680   2.3105840  20.3632510 104.8679830
   2.4368580  21.7169360 105.5339190   6.3378020  22.5011890 120.5573750
   6.7519040  22.6556970 121.4064170   5.4029020  22.6267110 120.7199530
   6.8100190  19.8408050 122.5612900   7.3920960  19.0860370 122.4733380
   6.9861960  20.3715490 121.7844380   3.4357150  20.1848550 119.9107520
   3.5553360  19.5889690 120.6502360   4.2951150  20.2218240 119.4908820
   5.7745050  20.7385740 118.4870030   5.2480270  21.2628360 117.8835170
   6.1176390  21.3713130 119.1179760   5.0219350  16.3435710 121.4016360
   4.3334870  15.6817250 121.3366350   5.7425370  15.8973980 121.8464820
   5.6519750  12.9387340 107.4606620   5.9322040  12.0955240 107.8166040
   4.8785480  13.1710450 107.9745370   2.3548210  29.1595100 107.5240420
   3.2499000  29.4980070 107.5459180   2.3865840  28.4374510 106.8964700
   9.3342560  27.6898770 120.2306620   8.7344550  27.7491330 119.4870540
   9.4636460  26.7503750 120.3603470  10.5744010  25.4316590 105.5676330
   9.7436970  25.4993240 106.0383560  10.7515840  26.3220710 105.2643190
  10.0300470  22.1764070 108.0710530  10.7919380  22.7460720 108.1770220
  10.0454840  21.6091270 108.8418840  11.0360440  23.0314170 112.9152460
  11.4069270  22.2481490 112.5088430  11.6762370  23.7203270 112.7369760
   8.0194200  24.4150750 118.3282780   7.2054040  24.8447910 118.5908570
   8.4268400  25.0269160 117.7151830  10.0819640  22.4698440 105.2283050
  10.3568480  23.3777320 105.1002270   9.8930380  22.4060970 106.1645040
   6.4795250  15.4943290 106.5236680   6.8980130  15.3074270 105.6833340
   6.1731310  14.6422340 106.8339610   9.9784980  20.4067430 110.2212480
   9.6028580  19.6395360 109.7893770   9.2488100  20.7890130 110.7087410
   9.3684600  19.5538950 119.8552000   9.1370690  19.3251700 118.9549950
   9.6289150  20.4738500 119.8096890   7.8072670  14.7795380 122.6331700
   8.6842850  14.7878780 123.0165700   7.8193510  14.0426220 122.0224050
   9.2535940  18.6324920 113.5219720   9.7773420  18.1387570 112.8909890
   9.8395360  18.7675280 114.2667290   9.4325660  18.7164790 117.0439270
   8.4828370  18.6828330 117.1584260   9.6138670  19.6264900 116.8089040
   8.7435910  17.8898270 109.4612130   9.2395030  17.6569140 110.2461010
   8.5451980  17.0510110 109.0449770  10.1723070  16.5259220 111.9949810
  10.0622350  16.3715260 112.9332080  10.9330660  15.9980160 111.7525220
   8.5188790  12.4653350 118.4532810   9.1561010  13.0787490 118.8192000
   8.6663680  12.5014010 117.5082040  11.0613340  14.3567140 105.2355950
  11.9862650  14.2248320 105.0274240  11.0389130  14.4359960 106.1892400
  11.1351830  15.1277800 107.8612660  10.3403330  15.0622920 108.3905570
  11.3395110  16.0628440 107.8498010   8.0770250  29.1669350 111.8551050
   8.6729320  28.8453920 111.1785470   8.3348400  28.6941170 112.6464320
   1.8893270  13.6179540 121.3607910   1.8282160  14.2101370 122.1103320
   2.8293650  13.5105500 121.2158170   4.5267830  13.2749600 121.0000200
   5.1408240  13.5928890 120.3381280   5.0717390  12.7898190 121.6196060
  10.9443010  29.1741230 118.4062040  10.4501290  29.5710100 117.6889170
  10.3356300  28.5490440 118.7999320   5.2675870  11.8381740 117.3269490
   4.3935710  12.1716850 117.1242420   5.1586620  11.3654920 118.1521360
   6.1747850  14.0452610 118.7111210   5.8461210  13.2304370 118.3312940
   7.1230150  14.0022420 118.5876900   8.6282460  29.8164650 115.6848780
   8.1685430  30.5680460 115.3106800   7.9994920  29.0971120 115.6263580
   1.7973680  29.0161380 115.6865890   2.0851490  28.7615680 114.8098900
   2.3096900  28.4638740 116.2771460   3.0150690  12.7551580 116.2662400
   2.2322480  13.2297080 116.5459160   2.7213620  11.8506410 116.1575580
   7.5671760  13.4574680 114.3111490   8.0079850  13.4019780 113.4633090
   7.2979350  14.3732690 114.3821670   9.4310330  13.0889920 112.3220310
   9.3698730  12.1451140 112.1751330  10.2102360  13.1970010 112.8673770
   5.4029890  11.8380780 113.0161500   6.0059260  12.4100990 113.4910020
   4.6622880  12.4020220 112.7935400   8.5464490  12.2402340 108.2901780
   8.7415120  13.1385790 108.5569210   7.7594360  12.0089420 108.7834730
   1.8646040  29.9377480 123.0534090   2.7913350  29.7021750 123.0970050
   1.8496470  30.7649480 122.5720120  10.0991100  29.4803050 110.0508340
  10.2743290  28.7940790 109.4069260   9.4012670  30.0050100 109.6585010
   5.6525110  12.0175810 123.3956440   5.5390560  12.3370420 124.2907960
   6.4694850  12.4188320 123.0993720   8.4323600  29.1647340 122.8775130
   9.2248920  28.6696570 122.6701090   8.7256750  29.8437480 123.4850740
   4.5583260  20.0368280  93.7591180   4.4777310  19.1222890  93.4882890
   4.1447680  20.5335350  93.0530890   2.6901300  21.8147300  95.6400450
   1.9143400  21.3347740  95.9299020   3.3414230  21.1352950  95.4656610
   6.7108730  26.2207490  94.4199580   6.2490260  25.4494730  94.7486750
   7.5234280  26.2473560  94.9252030   2.9372040  28.5065500  94.0403570
   2.3183480  28.9623000  93.4698010   3.7923820  28.6616960  93.6393270
   2.1310290  24.4904490  95.6470610   2.0618570  23.5494430  95.4859740
   2.8930150  24.5805900  96.2193180   3.1615460  17.2974870  95.8739540
   3.5380280  16.4246750  95.7613210   3.0634970  17.6333570  94.9829980
   6.9439580  14.7925310  92.8067880   7.7649200  14.3021880  92.8493360
   6.9773660  15.3822970  93.5599720  11.2339130  16.8092060  99.3711510
  10.5291300  17.1973770  98.8526620  11.4997050  17.5042350  99.9732440
   3.8035390  23.3904740  91.4335480   3.1852660  23.8554190  90.8698200
   4.3158640  24.0832220  91.8504990   7.1801060  16.7325690  95.5795420
   6.4756630  17.0210580  96.1598530   7.5413220  17.5425800  95.2194980
   8.7963840  26.3500820  97.8422900   8.1127360  27.0199930  97.8339570
   9.3358130  26.5481470  97.0767760  10.2487980  16.1780480  95.9704630
   9.3012890  16.2119460  96.1020060  10.5737970  16.9919430  96.3553990
   6.3322580  28.1944950  96.5568080   6.3449740  27.7907240  95.6890340
   5.7797800  28.9692240  96.4529510   7.6268000  24.9161170  91.6458250
   7.5164330  23.9735500  91.7707670   7.6236250  25.2776810  92.5321010
   5.7308020  23.0974790  97.8850690   6.1476810  22.8834900  97.0504150
   6.4547840  23.3547580  98.4559310   3.1688280  20.5426490  91.0020740
   2.2417560  20.4763870  91.2309210   3.3213100  21.4806620  90.8875980
   3.1557360  16.8143490  87.9987900   2.2161030  16.9757450  88.0840360
   3.4740620  17.5329170  87.4523890   9.6770120  21.4962010  97.9766930
   8.8488750  21.5655100  97.5017060  10.2720600  22.0816320  97.5082760
   7.1985570  22.1046790  91.5055990   6.5797990  21.7666340  90.8582290
   7.1810020  21.4606550  92.2135180   6.6412130  18.2831330  98.9221800
   6.2283310  19.1085040  99.1761790   5.9088080  17.6976370  98.7298160
   7.3312230  28.3290660  99.6102780   6.8542790  29.1362850  99.4175390
   6.6474020  27.6768990  99.7628990   5.3750270  21.3433600  88.5128740
   5.8143550  20.5056030  88.3666560   6.0878690  21.9763000  88.5992880
   3.4845650  26.2829670  92.4809980   3.9241560  27.0254000  92.0665370
   3.4232540  26.5256240  93.4048940   8.9567410  12.5976410  86.8269780
   8.6440070  12.6903240  87.7268850   9.7179880  13.1757440  86.7767210
  10.9111440  28.0902600 104.6794170  11.3871160  28.5685490 105.3583250
  11.5318600  28.0220090 103.9539670  10.3144690  25.2815450 101.8394180
  10.4407750  25.0427330 100.9211360  10.3566070  24.4499990 102.3116260
   4.1761430  28.9843450 100.4088990   4.6906100  28.8951460 101.2111420
   3.3330510  29.3303150 100.7016900   6.1515830  29.2698790  89.8372990
   5.9916970  28.9801730  90.7354820   5.9862540  28.4938920  89.3018220
   5.8541960  26.7786350  88.3970990   5.1607120  26.7763640  87.7373270
   6.5964820  26.3545670  87.9665160   5.4191890  28.4049060  92.4719480
   5.8748840  27.6238440  92.7858100   5.7584410  29.1155880  93.0160660
  10.1668700  17.3347910 102.8043920   9.5512970  17.8427580 102.2759380
   9.8465120  16.4346240 102.7469860   2.2283020  16.1739800 100.2706110
   1.7662390  16.3822820 101.0826050   1.8261130  15.3599150  99.9676780
   7.2287530  17.3948750 101.4002770   6.3781120  17.0954500 101.7211840
   7.0689320  17.6390760 100.4886590   4.3237240  18.8950500 103.5001560
   4.6490650  18.0614250 103.1603790   5.1117570  19.4179020 103.6479890
   4.9625190  18.4368220  90.9942690   4.3634080  19.1604020  90.8106310
   5.5104800  18.3745000  90.2119140   3.5690060  17.0731760  93.0245970
   3.9619630  17.3903960  92.2114660   3.9306910  16.1943640  93.1390490
   4.1545200  19.6637510  97.1196750   3.4226320  20.1724320  97.4686850
   3.7569540  18.8467490  96.8185530   4.6171110  15.1171190  96.5319690
   4.6343850  15.5679840  97.3761540   4.3686690  14.2176830  96.7453130
   8.0441860  12.5303370 102.3706070   8.3687630  11.7993030 102.8964050
   8.0798370  12.2117010 101.4687060   7.9699700  22.6428480  95.9792100
   8.6898820  23.1383770  95.5888210   7.7681520  21.9646370  95.3345970
   3.4309640  14.0366440  90.1221490   2.6174250  13.5379610  90.0466800
   3.2371590  14.8764690  89.7057840   3.3518500  22.7137540 101.8661100
   3.2855810  21.7933210 101.6118690   2.7223640  22.8112980 102.5805740
   6.1458030  18.4086090  88.4183650   7.0337650  18.7203320  88.2434990
   6.1163120  17.5358340  88.0264230   2.1418620  24.5809780  89.0971820
   2.4834320  25.3252010  88.6015140   1.3131330  24.8940900  89.4596650
   3.2835230  25.5358110 101.6164900   3.2979770  24.6039070 101.3983810
   2.5760330  25.6217870 102.2554670   8.4172300  19.7197930  87.8863510
   8.3336020  20.1512150  87.0359950   9.1366490  20.1796280  88.3190330
   9.4946440  22.1765450 100.9633480   8.7694630  22.7694230 100.7662870
  10.0221900  22.1688990 100.1646850   9.4459550  26.5740190  90.6145640
   8.8035710  25.9195810  90.8889360   9.0590210  26.9795280  89.8386310
   5.0246030  23.9025620  94.4617330   5.3769850  23.3053750  93.8018700
   4.1408360  23.5769850  94.6325580   2.7169130  27.1775680  98.7105400
   3.3611350  27.3835060  99.3878820   3.0798570  26.4164080  98.2576250
   3.9901210  25.1808030  97.4282850   4.6323440  24.4801190  97.5415020
   4.5150560  25.9606470  97.2479740   7.8356930  25.4656650  87.1521990
   7.6094510  24.7487090  87.7446630   7.4453130  25.2169090  86.3143740
   5.7638830  25.9802930 100.6318910   6.0995070  26.5669620 101.3096830
   4.8439170  25.8495640 100.8616700   7.4173180  23.3828590  88.8136150
   7.1294880  23.8441280  89.6014030   8.2125350  22.9226360  89.0820370
   4.8081010  16.2620420  99.1643770   5.1761830  15.4415630  99.4923340
   3.9479210  16.3222310  99.5799420   8.1743040  15.2177360  89.9731330
   7.5456200  15.3223030  89.2589560   7.6794960  15.4374140  90.7625210
   2.6201180  26.9382950  87.4065310   2.7213160  26.7346940  86.4767290
   1.7202920  26.6841230  87.6113090   1.7683000  18.9160010  99.3881740
   2.2668250  19.3905830 100.0533590   1.9105950  17.9923530  99.5951770
   4.1742500  14.2213970  92.8285000   4.0510280  14.2400100  91.8794510
   5.1227060  14.2692910  92.9483400   8.9749860  15.1327970 100.2310130
   8.4723460  15.8733370 100.5703940   9.7906520  15.5211970  99.9146920
   7.2671870  20.3761150  93.6771490   6.3262010  20.3911380  93.8519180
   7.5815940  19.5897110  94.1231790   9.2697450  27.5470000  95.3525750
   9.3944870  28.3701170  95.8249560  10.1363010  27.3360730  95.0049900
   4.5837890  24.9327150 104.1603870   3.9776050  24.9558750 103.4199620
   4.2792000  24.2010190 104.6971120   6.0138260  28.6607440 102.7713280
   6.9660010  28.5765460 102.7213520   5.8666480  29.3249150 103.4447070
   8.9047460  28.0401650  88.2705190   8.6188970  27.6266790  87.4559370
   8.7067010  28.9689360  88.1505710   3.6097420  23.0954960  87.3152790
   3.0607520  23.5424260  87.9595530   4.2316680  22.5904210  87.8390460
   7.6632360  24.4497060 103.2475050   8.4041830  24.7872820 102.7442510
   6.9005040  24.6189120 102.6944820   1.7900180  21.0783490  86.4595190
   2.3105840  20.3632510  86.0936340   2.4368580  21.7169360  86.7595700
   6.3378020  22.5011890 101.7830260   6.7519040  22.6556970 102.6320680
   5.4029020  22.6267110 101.9456040   6.8100190  19.8408050 103.7869410
   7.3920960  19.0860370 103.6989890   6.9861960  20.3715490 103.0100890
   3.4357150  20.1848550 101.1364030   3.5553360  19.5889690 101.8758870
   4.2951150  20.2218240 100.7165330   5.7745050  20.7385740  99.7126540
   5.2480270  21.2628360  99.1091680   6.1176390  21.3713130 100.3436270
   5.0219350  16.3435710 102.6272870   4.3334870  15.6817250 102.5622860
   5.7425370  15.8973980 103.0721330   5.6519750  12.9387340  88.6863130
   5.9322040  12.0955240  89.0422550   4.8785480  13.1710450  89.2001880
   2.3548210  29.1595100  88.7496930   3.2499000  29.4980070  88.7715690
   2.3865840  28.4374510  88.1221210   9.3342560  27.6898770 101.4563130
   8.7344550  27.7491330 100.7127050   9.4636460  26.7503750 101.5859980
  10.5744010  25.4316590  86.7932840   9.7436970  25.4993240  87.2640070
  10.7515840  26.3220710  86.4899700  10.0300470  22.1764070  89.2967040
  10.7919380  22.7460720  89.4026730  10.0454840  21.6091270  90.0675350
  11.0360440  23.0314170  94.1408970  11.4069270  22.2481490  93.7344940
  11.6762370  23.7203270  93.9626270   8.0194200  24.4150750  99.5539290
   7.2054040  24.8447910  99.8165080   8.4268400  25.0269160  98.9408340
  10.0819640  22.4698440  86.4539560  10.3568480  23.3777320  86.3258780
   9.8930380  22.4060970  87.3901550   6.4795250  15.4943290  87.7493190
   6.8980130  15.3074270  86.9089850   6.1731310  14.6422340  88.0596120
   9.9784980  20.4067430  91.4468990   9.6028580  19.6395360  91.0150280
   9.2488100  20.7890130  91.9343920   9.3684600  19.5538950 101.0808510
   9.1370690  19.3251700 100.1806460   9.6289150  20.4738500 101.0353400
   7.8072670  14.7795380 103.8588210   8.6842850  14.7878780 104.2422210
   7.8193510  14.0426220 103.2480560   9.2535940  18.6324920  94.7476230
   9.7773420  18.1387570  94.1166400   9.8395360  18.7675280  95.4923800
   9.4325660  18.7164790  98.2695780   8.4828370  18.6828330  98.3840770
   9.6138670  19.6264900  98.0345550   8.7435910  17.8898270  90.6868640
   9.2395030  17.6569140  91.4717520   8.5451980  17.0510110  90.2706280
  10.1723070  16.5259220  93.2206320  10.0622350  16.3715260  94.1588590
  10.9330660  15.9980160  92.9781730   8.5188790  12.4653350  99.6789320
   9.1561010  13.0787490 100.0448510   8.6663680  12.5014010  98.7338550
  11.0613340  14.3567140  86.4612460  11.9862650  14.2248320  86.2530750
  11.0389130  14.4359960  87.4148910  11.1351830  15.1277800  89.0869170
  10.3403330  15.0622920  89.6162080  11.3395110  16.0628440  89.0754520
   8.0770250  29.1669350  93.0807560   8.6729320  28.8453920  92.4041980
   8.3348400  28.6941170  93.8720830   1.8893270  13.6179540 102.5864420
   1.8282160  14.2101370 103.3359830   2.8293650  13.5105500 102.4414680
   4.5267830  13.2749600 102.2256710   5.1408240  13.5928890 101.5637790
   5.0717390  12.7898190 102.8452570  10.9443010  29.1741230  99.6318550
  10.4501290  29.5710100  98.9145680  10.3356300  28.5490440 100.0255830
   5.2675870  11.8381740  98.5526000   4.3935710  12.1716850  98.3498930
   5.1586620  11.3654920  99.3777870   6.1747850  14.0452610  99.9367720
   5.8461210  13.2304370  99.5569450   7.1230150  14.0022420  99.8133410
   8.6282460  29.8164650  96.9105290   8.1685430  30.5680460  96.5363310
   7.9994920  29.0971120  96.8520090   1.7973680  29.0161380  96.9122400
   2.0851490  28.7615680  96.0355410   2.3096900  28.4638740  97.5027970
   3.0150690  12.7551580  97.4918910   2.2322480  13.2297080  97.7715670
   2.7213620  11.8506410  97.3832090   7.5671760  13.4574680  95.5368000
   8.0079850  13.4019780  94.6889600   7.2979350  14.3732690  95.6078180
   9.4310330  13.0889920  93.5476820   9.3698730  12.1451140  93.4007840
  10.2102360  13.1970010  94.0930280   5.4029890  11.8380780  94.2418010
   6.0059260  12.4100990  94.7166530   4.6622880  12.4020220  94.0191910
   8.5464490  12.2402340  89.5158290   8.7415120  13.1385790  89.7825720
   7.7594360  12.0089420  90.0091240   1.8646040  29.9377480 104.2790600
   2.7913350  29.7021750 104.3226560   1.8496470  30.7649480 103.7976630
  10.0991100  29.4803050  91.2764850  10.2743290  28.7940790  90.6325770
   9.4012670  30.0050100  90.8841520   5.6525110  12.0175810 104.6212950
   5.5390560  12.3370420 105.5164470   6.4694850  12.4188320 104.3250230
   8.4323600  29.1647340 104.1031640   9.2248920  28.6696570 103.8957600
   8.7256750  29.8437480 104.7107250   4.5583260  20.0368280  74.9847690
   4.4777310  19.1222890  74.7139400   4.1447680  20.5335350  74.2787400
   2.6901300  21.8147300  76.8656960   1.9143400  21.3347740  77.1555530
   3.3414230  21.1352950  76.6913120   6.7108730  26.2207490  75.6456090
   6.2490260  25.4494730  75.9743260   7.5234280  26.2473560  76.1508540
   2.9372040  28.5065500  75.2660080   2.3183480  28.9623000  74.6954520
   3.7923820  28.6616960  74.8649780   2.1310290  24.4904490  76.8727120
   2.0618570  23.5494430  76.7116250   2.8930150  24.5805900  77.4449690
   3.1615460  17.2974870  77.0996050   3.5380280  16.4246750  76.9869720
   3.0634970  17.6333570  76.2086490   6.9439580  14.7925310  74.0324390
   7.7649200  14.3021880  74.0749870   6.9773660  15.3822970  74.7856230
  11.2339130  16.8092060  80.5968020  10.5291300  17.1973770  80.0783130
  11.4997050  17.5042350  81.1988950   3.8035390  23.3904740  72.6591990
   3.1852660  23.8554190  72.0954710   4.3158640  24.0832220  73.0761500
   7.1801060  16.7325690  76.8051930   6.4756630  17.0210580  77.3855040
   7.5413220  17.5425800  76.4451490   8.7963840  26.3500820  79.0679410
   8.1127360  27.0199930  79.0596080   9.3358130  26.5481470  78.3024270
  10.2487980  16.1780480  77.1961140   9.3012890  16.2119460  77.3276570
  10.5737970  16.9919430  77.5810500   6.3322580  28.1944950  77.7824590
   6.3449740  27.7907240  76.9146850   5.7797800  28.9692240  77.6786020
   7.6268000  24.9161170  72.8714760   7.5164330  23.9735500  72.9964180
   7.6236250  25.2776810  73.7577520   5.7308020  23.0974790  79.1107200
   6.1476810  22.8834900  78.2760660   6.4547840  23.3547580  79.6815820
   3.1688280  20.5426490  72.2277250   2.2417560  20.4763870  72.4565720
   3.3213100  21.4806620  72.1132490   3.1557360  16.8143490  69.2244410
   2.2161030  16.9757450  69.3096870   3.4740620  17.5329170  68.6780400
   9.6770120  21.4962010  79.2023440   8.8488750  21.5655100  78.7273570
  10.2720600  22.0816320  78.7339270   7.1985570  22.1046790  72.7312500
   6.5797990  21.7666340  72.0838800   7.1810020  21.4606550  73.4391690
   6.6412130  18.2831330  80.1478310   6.2283310  19.1085040  80.4018300
   5.9088080  17.6976370  79.9554670   7.3312230  28.3290660  80.8359290
   6.8542790  29.1362850  80.6431900   6.6474020  27.6768990  80.9885500
   5.3750270  21.3433600  69.7385250   5.8143550  20.5056030  69.5923070
   6.0878690  21.9763000  69.8249390   3.4845650  26.2829670  73.7066490
   3.9241560  27.0254000  73.2921880   3.4232540  26.5256240  74.6305450
   8.9567410  12.5976410  68.0526290   8.6440070  12.6903240  68.9525360
   9.7179880  13.1757440  68.0023720  10.9111440  28.0902600  85.9050680
  11.3871160  28.5685490  86.5839760  11.5318600  28.0220090  85.1796180
  10.3144690  25.2815450  83.0650690  10.4407750  25.0427330  82.1467870
  10.3566070  24.4499990  83.5372770   4.1761430  28.9843450  81.6345500
   4.6906100  28.8951460  82.4367930   3.3330510  29.3303150  81.9273410
   6.1515830  29.2698790  71.0629500   5.9916970  28.9801730  71.9611330
   5.9862540  28.4938920  70.5274730   5.8541960  26.7786350  69.6227500
   5.1607120  26.7763640  68.9629780   6.5964820  26.3545670  69.1921670
   5.4191890  28.4049060  73.6975990   5.8748840  27.6238440  74.0114610
   5.7584410  29.1155880  74.2417170  10.1668700  17.3347910  84.0300430
   9.5512970  17.8427580  83.5015890   9.8465120  16.4346240  83.9726370
   2.2283020  16.1739800  81.4962620   1.7662390  16.3822820  82.3082560
   1.8261130  15.3599150  81.1933290   7.2287530  17.3948750  82.6259280
   6.3781120  17.0954500  82.9468350   7.0689320  17.6390760  81.7143100
   4.3237240  18.8950500  84.7258070   4.6490650  18.0614250  84.3860300
   5.1117570  19.4179020  84.8736400   4.9625190  18.4368220  72.2199200
   4.3634080  19.1604020  72.0362820   5.5104800  18.3745000  71.4375650
   3.5690060  17.0731760  74.2502480   3.9619630  17.3903960  73.4371170
   3.9306910  16.1943640  74.3647000   4.1545200  19.6637510  78.3453260
   3.4226320  20.1724320  78.6943360   3.7569540  18.8467490  78.0442040
   4.6171110  15.1171190  77.7576200   4.6343850  15.5679840  78.6018050
   4.3686690  14.2176830  77.9709640   8.0441860  12.5303370  83.5962580
   8.3687630  11.7993030  84.1220560   8.0798370  12.2117010  82.6943570
   7.9699700  22.6428480  77.2048610   8.6898820  23.1383770  76.8144720
   7.7681520  21.9646370  76.5602480   3.4309640  14.0366440  71.3478000
   2.6174250  13.5379610  71.2723310   3.2371590  14.8764690  70.9314350
   3.3518500  22.7137540  83.0917610   3.2855810  21.7933210  82.8375200
   2.7223640  22.8112980  83.8062250   6.1458030  18.4086090  69.6440160
   7.0337650  18.7203320  69.4691500   6.1163120  17.5358340  69.2520740
   2.1418620  24.5809780  70.3228330   2.4834320  25.3252010  69.8271650
   1.3131330  24.8940900  70.6853160   3.2835230  25.5358110  82.8421410
   3.2979770  24.6039070  82.6240320   2.5760330  25.6217870  83.4811180
   8.4172300  19.7197930  69.1120020   8.3336020  20.1512150  68.2616460
   9.1366490  20.1796280  69.5446840   9.4946440  22.1765450  82.1889990
   8.7694630  22.7694230  81.9919380  10.0221900  22.1688990  81.3903360
   9.4459550  26.5740190  71.8402150   8.8035710  25.9195810  72.1145870
   9.0590210  26.9795280  71.0642820   5.0246030  23.9025620  75.6873840
   5.3769850  23.3053750  75.0275210   4.1408360  23.5769850  75.8582090
   2.7169130  27.1775680  79.9361910   3.3611350  27.3835060  80.6135330
   3.0798570  26.4164080  79.4832760   3.9901210  25.1808030  78.6539360
   4.6323440  24.4801190  78.7671530   4.5150560  25.9606470  78.4736250
   7.8356930  25.4656650  68.3778500   7.6094510  24.7487090  68.9703140
   7.4453130  25.2169090  67.5400250   5.7638830  25.9802930  81.8575420
   6.0995070  26.5669620  82.5353340   4.8439170  25.8495640  82.0873210
   7.4173180  23.3828590  70.0392660   7.1294880  23.8441280  70.8270540
   8.2125350  22.9226360  70.3076880   4.8081010  16.2620420  80.3900280
   5.1761830  15.4415630  80.7179850   3.9479210  16.3222310  80.8055930
   8.1743040  15.2177360  71.1987840   7.5456200  15.3223030  70.4846070
   7.6794960  15.4374140  71.9881720   2.6201180  26.9382950  68.6321820
   2.7213160  26.7346940  67.7023800   1.7202920  26.6841230  68.8369600
   1.7683000  18.9160010  80.6138250   2.2668250  19.3905830  81.2790100
   1.9105950  17.9923530  80.8208280   4.1742500  14.2213970  74.0541510
   4.0510280  14.2400100  73.1051020   5.1227060  14.2692910  74.1739910
   8.9749860  15.1327970  81.4566640   8.4723460  15.8733370  81.7960450
   9.7906520  15.5211970  81.1403430   7.2671870  20.3761150  74.9028000
   6.3262010  20.3911380  75.0775690   7.5815940  19.5897110  75.3488300
   9.2697450  27.5470000  76.5782260   9.3944870  28.3701170  77.0506070
  10.1363010  27.3360730  76.2306410   4.5837890  24.9327150  85.3860380
   3.9776050  24.9558750  84.6456130   4.2792000  24.2010190  85.9227630
   6.0138260  28.6607440  83.9969790   6.9660010  28.5765460  83.9470030
   5.8666480  29.3249150  84.6703580   8.9047460  28.0401650  69.4961700
   8.6188970  27.6266790  68.6815880   8.7067010  28.9689360  69.3762220
   3.6097420  23.0954960  68.5409300   3.0607520  23.5424260  69.1852040
   4.2316680  22.5904210  69.0646970   7.6632360  24.4497060  84.4731560
   8.4041830  24.7872820  83.9699020   6.9005040  24.6189120  83.9201330
   1.7900180  21.0783490  67.6851700   2.3105840  20.3632510  67.3192850
   2.4368580  21.7169360  67.9852210   6.3378020  22.5011890  83.0086770
   6.7519040  22.6556970  83.8577190   5.4029020  22.6267110  83.1712550
   6.8100190  19.8408050  85.0125920   7.3920960  19.0860370  84.9246400
   6.9861960  20.3715490  84.2357400   3.4357150  20.1848550  82.3620540
   3.5553360  19.5889690  83.1015380   4.2951150  20.2218240  81.9421840
   5.7745050  20.7385740  80.9383050   5.2480270  21.2628360  80.3348190
   6.1176390  21.3713130  81.5692780   5.0219350  16.3435710  83.8529380
   4.3334870  15.6817250  83.7879370   5.7425370  15.8973980  84.2977840
   5.6519750  12.9387340  69.9119640   5.9322040  12.0955240  70.2679060
   4.8785480  13.1710450  70.4258390   2.3548210  29.1595100  69.9753440
   3.2499000  29.4980070  69.9972200   2.3865840  28.4374510  69.3477720
   9.3342560  27.6898770  82.6819640   8.7344550  27.7491330  81.9383560
   9.4636460  26.7503750  82.8116490  10.5744010  25.4316590  68.0189350
   9.7436970  25.4993240  68.4896580  10.7515840  26.3220710  67.7156210
  10.0300470  22.1764070  70.5223550  10.7919380  22.7460720  70.6283240
  10.0454840  21.6091270  71.2931860  11.0360440  23.0314170  75.3665480
  11.4069270  22.2481490  74.9601450  11.6762370  23.7203270  75.1882780
   8.0194200  24.4150750  80.7795800   7.2054040  24.8447910  81.0421590
   8.4268400  25.0269160  80.1664850  10.0819640  22.4698440  67.6796070
  10.3568480  23.3777320  67.5515290   9.8930380  22.4060970  68.6158060
   6.4795250  15.4943290  68.9749700   6.8980130  15.3074270  68.1346360
   6.1731310  14.6422340  69.2852630   9.9784980  20.4067430  72.6725500
   9.6028580  19.6395360  72.2406790   9.2488100  20.7890130  73.1600430
   9.3684600  19.5538950  82.3065020   9.1370690  19.3251700  81.4062970
   9.6289150  20.4738500  82.2609910   7.8072670  14.7795380  85.0844720
   8.6842850  14.7878780  85.4678720   7.8193510  14.0426220  84.4737070
   9.2535940  18.6324920  75.9732740   9.7773420  18.1387570  75.3422910
   9.8395360  18.7675280  76.7180310   9.4325660  18.7164790  79.4952290
   8.4828370  18.6828330  79.6097280   9.6138670  19.6264900  79.2602060
   8.7435910  17.8898270  71.9125150   9.2395030  17.6569140  72.6974030
   8.5451980  17.0510110  71.4962790  10.1723070  16.5259220  74.4462830
  10.0622350  16.3715260  75.3845100  10.9330660  15.9980160  74.2038240
   8.5188790  12.4653350  80.9045830   9.1561010  13.0787490  81.2705020
   8.6663680  12.5014010  79.9595060  11.0613340  14.3567140  67.6868970
  11.9862650  14.2248320  67.4787260  11.0389130  14.4359960  68.6405420
  11.1351830  15.1277800  70.3125680  10.3403330  15.0622920  70.8418590
  11.3395110  16.0628440  70.3011030   8.0770250  29.1669350  74.3064070
   8.6729320  28.8453920  73.6298490   8.3348400  28.6941170  75.0977340
   1.8893270  13.6179540  83.8120930   1.8282160  14.2101370  84.5616340
   2.8293650  13.5105500  83.6671190   4.5267830  13.2749600  83.4513220
   5.1408240  13.5928890  82.7894300   5.0717390  12.7898190  84.0709080
  10.9443010  29.1741230  80.8575060  10.4501290  29.5710100  80.1402190
  10.3356300  28.5490440  81.2512340   5.2675870  11.8381740  79.7782510
   4.3935710  12.1716850  79.5755440   5.1586620  11.3654920  80.6034380
   6.1747850  14.0452610  81.1624230   5.8461210  13.2304370  80.7825960
   7.1230150  14.0022420  81.0389920   8.6282460  29.8164650  78.1361800
   8.1685430  30.5680460  77.7619820   7.9994920  29.0971120  78.0776600
   1.7973680  29.0161380  78.1378910   2.0851490  28.7615680  77.2611920
   2.3096900  28.4638740  78.7284480   3.0150690  12.7551580  78.7175420
   2.2322480  13.2297080  78.9972180   2.7213620  11.8506410  78.6088600
   7.5671760  13.4574680  76.7624510   8.0079850  13.4019780  75.9146110
   7.2979350  14.3732690  76.8334690   9.4310330  13.0889920  74.7733330
   9.3698730  12.1451140  74.6264350  10.2102360  13.1970010  75.3186790
   5.4029890  11.8380780  75.4674520   6.0059260  12.4100990  75.9423040
   4.6622880  12.4020220  75.2448420   8.5464490  12.2402340  70.7414800
   8.7415120  13.1385790  71.0082230   7.7594360  12.0089420  71.2347750
   1.8646040  29.9377480  85.5047110   2.7913350  29.7021750  85.5483070
   1.8496470  30.7649480  85.0233140  10.0991100  29.4803050  72.5021360
  10.2743290  28.7940790  71.8582280   9.4012670  30.0050100  72.1098030
   5.6525110  12.0175810  85.8469460   5.5390560  12.3370420  86.7420980
   6.4694850  12.4188320  85.5506740   8.4323600  29.1647340  85.3288150
   9.2248920  28.6696570  85.1214110   8.7256750  29.8437480  85.9363760
   4.5583260  20.0368280  56.2104200   4.4777310  19.1222890  55.9395910
   4.1447680  20.5335350  55.5043910   2.6901300  21.8147300  58.0913470
   1.9143400  21.3347740  58.3812040   3.3414230  21.1352950  57.9169630
   6.7108730  26.2207490  56.8712600   6.2490260  25.4494730  57.1999770
   7.5234280  26.2473560  57.3765050   2.9372040  28.5065500  56.4916590
   2.3183480  28.9623000  55.9211030   3.7923820  28.6616960  56.0906290
   2.1310290  24.4904490  58.0983630   2.0618570  23.5494430  57.9372760
   2.8930150  24.5805900  58.6706200   3.1615460  17.2974870  58.3252560
   3.5380280  16.4246750  58.2126230   3.0634970  17.6333570  57.4343000
   6.9439580  14.7925310  55.2580900   7.7649200  14.3021880  55.3006380
   6.9773660  15.3822970  56.0112740  11.2339130  16.8092060  61.8224530
  10.5291300  17.1973770  61.3039640  11.4997050  17.5042350  62.4245460
   3.8035390  23.3904740  53.8848500   3.1852660  23.8554190  53.3211220
   4.3158640  24.0832220  54.3018010   7.1801060  16.7325690  58.0308440
   6.4756630  17.0210580  58.6111550   7.5413220  17.5425800  57.6708000
   8.7963840  26.3500820  60.2935920   8.1127360  27.0199930  60.2852590
   9.3358130  26.5481470  59.5280780  10.2487980  16.1780480  58.4217650
   9.3012890  16.2119460  58.5533080  10.5737970  16.9919430  58.8067010
   6.3322580  28.1944950  59.0081100   6.3449740  27.7907240  58.1403360
   5.7797800  28.9692240  58.9042530   7.6268000  24.9161170  54.0971270
   7.5164330  23.9735500  54.2220690   7.6236250  25.2776810  54.9834030
   5.7308020  23.0974790  60.3363710   6.1476810  22.8834900  59.5017170
   6.4547840  23.3547580  60.9072330   3.1688280  20.5426490  53.4533760
   2.2417560  20.4763870  53.6822230   3.3213100  21.4806620  53.3389000
   3.1557360  16.8143490  50.4500920   2.2161030  16.9757450  50.5353380
   3.4740620  17.5329170  49.9036910   9.6770120  21.4962010  60.4279950
   8.8488750  21.5655100  59.9530080  10.2720600  22.0816320  59.9595780
   7.1985570  22.1046790  53.9569010   6.5797990  21.7666340  53.3095310
   7.1810020  21.4606550  54.6648200   6.6412130  18.2831330  61.3734820
   6.2283310  19.1085040  61.6274810   5.9088080  17.6976370  61.1811180
   7.3312230  28.3290660  62.0615800   6.8542790  29.1362850  61.8688410
   6.6474020  27.6768990  62.2142010   5.3750270  21.3433600  50.9641760
   5.8143550  20.5056030  50.8179580   6.0878690  21.9763000  51.0505900
   3.4845650  26.2829670  54.9323000   3.9241560  27.0254000  54.5178390
   3.4232540  26.5256240  55.8561960   8.9567410  12.5976410  49.2782800
   8.6440070  12.6903240  50.1781870   9.7179880  13.1757440  49.2280230
  10.9111440  28.0902600  67.1307190  11.3871160  28.5685490  67.8096270
  11.5318600  28.0220090  66.4052690  10.3144690  25.2815450  64.2907200
  10.4407750  25.0427330  63.3724380  10.3566070  24.4499990  64.7629280
   4.1761430  28.9843450  62.8602010   4.6906100  28.8951460  63.6624440
   3.3330510  29.3303150  63.1529920   6.1515830  29.2698790  52.2886010
   5.9916970  28.9801730  53.1867840   5.9862540  28.4938920  51.7531240
   5.8541960  26.7786350  50.8484010   5.1607120  26.7763640  50.1886290
   6.5964820  26.3545670  50.4178180   5.4191890  28.4049060  54.9232500
   5.8748840  27.6238440  55.2371120   5.7584410  29.1155880  55.4673680
  10.1668700  17.3347910  65.2556940   9.5512970  17.8427580  64.7272400
   9.8465120  16.4346240  65.1982880   2.2283020  16.1739800  62.7219130
   1.7662390  16.3822820  63.5339070   1.8261130  15.3599150  62.4189800
   7.2287530  17.3948750  63.8515790   6.3781120  17.0954500  64.1724860
   7.0689320  17.6390760  62.9399610   4.3237240  18.8950500  65.9514580
   4.6490650  18.0614250  65.6116810   5.1117570  19.4179020  66.0992910
   4.9625190  18.4368220  53.4455710   4.3634080  19.1604020  53.2619330
   5.5104800  18.3745000  52.6632160   3.5690060  17.0731760  55.4758990
   3.9619630  17.3903960  54.6627680   3.9306910  16.1943640  55.5903510
   4.1545200  19.6637510  59.5709770   3.4226320  20.1724320  59.9199870
   3.7569540  18.8467490  59.2698550   4.6171110  15.1171190  58.9832710
   4.6343850  15.5679840  59.8274560   4.3686690  14.2176830  59.1966150
   8.0441860  12.5303370  64.8219090   8.3687630  11.7993030  65.3477070
   8.0798370  12.2117010  63.9200080   7.9699700  22.6428480  58.4305120
   8.6898820  23.1383770  58.0401230   7.7681520  21.9646370  57.7858990
   3.4309640  14.0366440  52.5734510   2.6174250  13.5379610  52.4979820
   3.2371590  14.8764690  52.1570860   3.3518500  22.7137540  64.3174120
   3.2855810  21.7933210  64.0631710   2.7223640  22.8112980  65.0318760
   6.1458030  18.4086090  50.8696670   7.0337650  18.7203320  50.6948010
   6.1163120  17.5358340  50.4777250   2.1418620  24.5809780  51.5484840
   2.4834320  25.3252010  51.0528160   1.3131330  24.8940900  51.9109670
   3.2835230  25.5358110  64.0677920   3.2979770  24.6039070  63.8496830
   2.5760330  25.6217870  64.7067690   8.4172300  19.7197930  50.3376530
   8.3336020  20.1512150  49.4872970   9.1366490  20.1796280  50.7703350
   9.4946440  22.1765450  63.4146500   8.7694630  22.7694230  63.2175890
  10.0221900  22.1688990  62.6159870   9.4459550  26.5740190  53.0658660
   8.8035710  25.9195810  53.3402380   9.0590210  26.9795280  52.2899330
   5.0246030  23.9025620  56.9130350   5.3769850  23.3053750  56.2531720
   4.1408360  23.5769850  57.0838600   2.7169130  27.1775680  61.1618420
   3.3611350  27.3835060  61.8391840   3.0798570  26.4164080  60.7089270
   3.9901210  25.1808030  59.8795870   4.6323440  24.4801190  59.9928040
   4.5150560  25.9606470  59.6992760   7.8356930  25.4656650  49.6035010
   7.6094510  24.7487090  50.1959650   7.4453130  25.2169090  48.7656760
   5.7638830  25.9802930  63.0831930   6.0995070  26.5669620  63.7609850
   4.8439170  25.8495640  63.3129720   7.4173180  23.3828590  51.2649170
   7.1294880  23.8441280  52.0527050   8.2125350  22.9226360  51.5333390
   4.8081010  16.2620420  61.6156790   5.1761830  15.4415630  61.9436360
   3.9479210  16.3222310  62.0312440   8.1743040  15.2177360  52.4244350
   7.5456200  15.3223030  51.7102580   7.6794960  15.4374140  53.2138230
   2.6201180  26.9382950  49.8578330   2.7213160  26.7346940  48.9280310
   1.7202920  26.6841230  50.0626110   1.7683000  18.9160010  61.8394760
   2.2668250  19.3905830  62.5046610   1.9105950  17.9923530  62.0464790
   4.1742500  14.2213970  55.2798020   4.0510280  14.2400100  54.3307530
   5.1227060  14.2692910  55.3996420   8.9749860  15.1327970  62.6823150
   8.4723460  15.8733370  63.0216960   9.7906520  15.5211970  62.3659940
   7.2671870  20.3761150  56.1284510   6.3262010  20.3911380  56.3032200
   7.5815940  19.5897110  56.5744810   9.2697450  27.5470000  57.8038770
   9.3944870  28.3701170  58.2762580  10.1363010  27.3360730  57.4562920
   4.5837890  24.9327150  66.6116890   3.9776050  24.9558750  65.8712640
   4.2792000  24.2010190  67.1484140   6.0138260  28.6607440  65.2226300
   6.9660010  28.5765460  65.1726540   5.8666480  29.3249150  65.8960090
   8.9047460  28.0401650  50.7218210   8.6188970  27.6266790  49.9072390
   8.7067010  28.9689360  50.6018730   3.6097420  23.0954960  49.7665810
   3.0607520  23.5424260  50.4108550   4.2316680  22.5904210  50.2903480
   7.6632360  24.4497060  65.6988070   8.4041830  24.7872820  65.1955530
   6.9005040  24.6189120  65.1457840   1.7900180  21.0783490  48.9108210
   2.3105840  20.3632510  48.5449360   2.4368580  21.7169360  49.2108720
   6.3378020  22.5011890  64.2343280   6.7519040  22.6556970  65.0833700
   5.4029020  22.6267110  64.3969060   6.8100190  19.8408050  66.2382430
   7.3920960  19.0860370  66.1502910   6.9861960  20.3715490  65.4613910
   3.4357150  20.1848550  63.5877050   3.5553360  19.5889690  64.3271890
   4.2951150  20.2218240  63.1678350   5.7745050  20.7385740  62.1639560
   5.2480270  21.2628360  61.5604700   6.1176390  21.3713130  62.7949290
   5.0219350  16.3435710  65.0785890   4.3334870  15.6817250  65.0135880
   5.7425370  15.8973980  65.5234350   5.6519750  12.9387340  51.1376150
   5.9322040  12.0955240  51.4935570   4.8785480  13.1710450  51.6514900
   2.3548210  29.1595100  51.2009950   3.2499000  29.4980070  51.2228710
   2.3865840  28.4374510  50.5734230   9.3342560  27.6898770  63.9076150
   8.7344550  27.7491330  63.1640070   9.4636460  26.7503750  64.0373000
  10.5744010  25.4316590  49.2445860   9.7436970  25.4993240  49.7153090
  10.7515840  26.3220710  48.9412720  10.0300470  22.1764070  51.7480060
  10.7919380  22.7460720  51.8539750  10.0454840  21.6091270  52.5188370
  11.0360440  23.0314170  56.5921990  11.4069270  22.2481490  56.1857960
  11.6762370  23.7203270  56.4139290   8.0194200  24.4150750  62.0052310
   7.2054040  24.8447910  62.2678100   8.4268400  25.0269160  61.3921360
  10.0819640  22.4698440  48.9052580  10.3568480  23.3777320  48.7771800
   9.8930380  22.4060970  49.8414570   6.4795250  15.4943290  50.2006210
   6.8980130  15.3074270  49.3602870   6.1731310  14.6422340  50.5109140
   9.9784980  20.4067430  53.8982010   9.6028580  19.6395360  53.4663300
   9.2488100  20.7890130  54.3856940   9.3684600  19.5538950  63.5321530
   9.1370690  19.3251700  62.6319480   9.6289150  20.4738500  63.4866420
   7.8072670  14.7795380  66.3101230   8.6842850  14.7878780  66.6935230
   7.8193510  14.0426220  65.6993580   9.2535940  18.6324920  57.1989250
   9.7773420  18.1387570  56.5679420   9.8395360  18.7675280  57.9436820
   9.4325660  18.7164790  60.7208800   8.4828370  18.6828330  60.8353790
   9.6138670  19.6264900  60.4858570   8.7435910  17.8898270  53.1381660
   9.2395030  17.6569140  53.9230540   8.5451980  17.0510110  52.7219300
  10.1723070  16.5259220  55.6719340  10.0622350  16.3715260  56.6101610
  10.9330660  15.9980160  55.4294750   8.5188790  12.4653350  62.1302340
   9.1561010  13.0787490  62.4961530   8.6663680  12.5014010  61.1851570
  11.0613340  14.3567140  48.9125480  11.9862650  14.2248320  48.7043770
  11.0389130  14.4359960  49.8661930  11.1351830  15.1277800  51.5382190
  10.3403330  15.0622920  52.0675100  11.3395110  16.0628440  51.5267540
   8.0770250  29.1669350  55.5320580   8.6729320  28.8453920  54.8555000
   8.3348400  28.6941170  56.3233850   1.8893270  13.6179540  65.0377440
   1.8282160  14.2101370  65.7872850   2.8293650  13.5105500  64.8927700
   4.5267830  13.2749600  64.6769730   5.1408240  13.5928890  64.0150810
   5.0717390  12.7898190  65.2965590  10.9443010  29.1741230  62.0831570
  10.4501290  29.5710100  61.3658700  10.3356300  28.5490440  62.4768850
   5.2675870  11.8381740  61.0039020   4.3935710  12.1716850  60.8011950
   5.1586620  11.3654920  61.8290890   6.1747850  14.0452610  62.3880740
   5.8461210  13.2304370  62.0082470   7.1230150  14.0022420  62.2646430
   8.6282460  29.8164650  59.3618310   8.1685430  30.5680460  58.9876330
   7.9994920  29.0971120  59.3033110   1.7973680  29.0161380  59.3635420
   2.0851490  28.7615680  58.4868430   2.3096900  28.4638740  59.9540990
   3.0150690  12.7551580  59.9431930   2.2322480  13.2297080  60.2228690
   2.7213620  11.8506410  59.8345110   7.5671760  13.4574680  57.9881020
   8.0079850  13.4019780  57.1402620   7.2979350  14.3732690  58.0591200
   9.4310330  13.0889920  55.9989840   9.3698730  12.1451140  55.8520860
  10.2102360  13.1970010  56.5443300   5.4029890  11.8380780  56.6931030
   6.0059260  12.4100990  57.1679550   4.6622880  12.4020220  56.4704930
   8.5464490  12.2402340  51.9671310   8.7415120  13.1385790  52.2338740
   7.7594360  12.0089420  52.4604260   1.8646040  29.9377480  66.7303620
   2.7913350  29.7021750  66.7739580   1.8496470  30.7649480  66.2489650
  10.0991100  29.4803050  53.7277870  10.2743290  28.7940790  53.0838790
   9.4012670  30.0050100  53.3354540   5.6525110  12.0175810  67.0725970
   5.5390560  12.3370420  67.9677490   6.4694850  12.4188320  66.7763250
   8.4323600  29.1647340  66.5544660   9.2248920  28.6696570  66.3470620
   8.7256750  29.8437480  67.1620270   4.5583260  20.0368280  37.4360710
   4.4777310  19.1222890  37.1652420   4.1447680  20.5335350  36.7300420
   2.6901300  21.8147300  39.3169980   1.9143400  21.3347740  39.6068550
   3.3414230  21.1352950  39.1426140   6.7108730  26.2207490  38.0969110
   6.2490260  25.4494730  38.4256280   7.5234280  26.2473560  38.6021560
   2.9372040  28.5065500  37.7173100   2.3183480  28.9623000  37.1467540
   3.7923820  28.6616960  37.3162800   2.1310290  24.4904490  39.3240140
   2.0618570  23.5494430  39.1629270   2.8930150  24.5805900  39.8962710
   3.1615460  17.2974870  39.5509070   3.5380280  16.4246750  39.4382740
   3.0634970  17.6333570  38.6599510   6.9439580  14.7925310  36.4837410
   7.7649200  14.3021880  36.5262890   6.9773660  15.3822970  37.2369250
  11.2339130  16.8092060  43.0481040  10.5291300  17.1973770  42.5296150
  11.4997050  17.5042350  43.6501970   3.8035390  23.3904740  35.1105010
   3.1852660  23.8554190  34.5467730   4.3158640  24.0832220  35.5274520
   7.1801060  16.7325690  39.2564950   6.4756630  17.0210580  39.8368060
   7.5413220  17.5425800  38.8964510   8.7963840  26.3500820  41.5192430
   8.1127360  27.0199930  41.5109100   9.3358130  26.5481470  40.7537290
  10.2487980  16.1780480  39.6474160   9.3012890  16.2119460  39.7789590
  10.5737970  16.9919430  40.0323520   6.3322580  28.1944950  40.2337610
   6.3449740  27.7907240  39.3659870   5.7797800  28.9692240  40.1299040
   7.6268000  24.9161170  35.3227780   7.5164330  23.9735500  35.4477200
   7.6236250  25.2776810  36.2090540   5.7308020  23.0974790  41.5620220
   6.1476810  22.8834900  40.7273680   6.4547840  23.3547580  42.1328840
   3.1688280  20.5426490  34.6790270   2.2417560  20.4763870  34.9078740
   3.3213100  21.4806620  34.5645510   3.1557360  16.8143490  31.6757430
   2.2161030  16.9757450  31.7609890   3.4740620  17.5329170  31.1293420
   9.6770120  21.4962010  41.6536460   8.8488750  21.5655100  41.1786590
  10.2720600  22.0816320  41.1852290   7.1985570  22.1046790  35.1825520
   6.5797990  21.7666340  34.5351820   7.1810020  21.4606550  35.8904710
   6.6412130  18.2831330  42.5991330   6.2283310  19.1085040  42.8531320
   5.9088080  17.6976370  42.4067690   7.3312230  28.3290660  43.2872310
   6.8542790  29.1362850  43.0944920   6.6474020  27.6768990  43.4398520
   5.3750270  21.3433600  32.1898270   5.8143550  20.5056030  32.0436090
   6.0878690  21.9763000  32.2762410   3.4845650  26.2829670  36.1579510
   3.9241560  27.0254000  35.7434900   3.4232540  26.5256240  37.0818470
   8.9567410  12.5976410  30.5039310   8.6440070  12.6903240  31.4038380
   9.7179880  13.1757440  30.4536740  10.9111440  28.0902600  48.3563700
  11.3871160  28.5685490  49.0352780  11.5318600  28.0220090  47.6309200
  10.3144690  25.2815450  45.5163710  10.4407750  25.0427330  44.5980890
  10.3566070  24.4499990  45.9885790   4.1761430  28.9843450  44.0858520
   4.6906100  28.8951460  44.8880950   3.3330510  29.3303150  44.3786430
   6.1515830  29.2698790  33.5142520   5.9916970  28.9801730  34.4124350
   5.9862540  28.4938920  32.9787750   5.8541960  26.7786350  32.0740520
   5.1607120  26.7763640  31.4142800   6.5964820  26.3545670  31.6434690
   5.4191890  28.4049060  36.1489010   5.8748840  27.6238440  36.4627630
   5.7584410  29.1155880  36.6930190  10.1668700  17.3347910  46.4813450
   9.5512970  17.8427580  45.9528910   9.8465120  16.4346240  46.4239390
   2.2283020  16.1739800  43.9475640   1.7662390  16.3822820  44.7595580
   1.8261130  15.3599150  43.6446310   7.2287530  17.3948750  45.0772300
   6.3781120  17.0954500  45.3981370   7.0689320  17.6390760  44.1656120
   4.3237240  18.8950500  47.1771090   4.6490650  18.0614250  46.8373320
   5.1117570  19.4179020  47.3249420   4.9625190  18.4368220  34.6712220
   4.3634080  19.1604020  34.4875840   5.5104800  18.3745000  33.8888670
   3.5690060  17.0731760  36.7015500   3.9619630  17.3903960  35.8884190
   3.9306910  16.1943640  36.8160020   4.1545200  19.6637510  40.7966280
   3.4226320  20.1724320  41.1456380   3.7569540  18.8467490  40.4955060
   4.6171110  15.1171190  40.2089220   4.6343850  15.5679840  41.0531070
   4.3686690  14.2176830  40.4222660   8.0441860  12.5303370  46.0475600
   8.3687630  11.7993030  46.5733580   8.0798370  12.2117010  45.1456590
   7.9699700  22.6428480  39.6561630   8.6898820  23.1383770  39.2657740
   7.7681520  21.9646370  39.0115500   3.4309640  14.0366440  33.7991020
   2.6174250  13.5379610  33.7236330   3.2371590  14.8764690  33.3827370
   3.3518500  22.7137540  45.5430630   3.2855810  21.7933210  45.2888220
   2.7223640  22.8112980  46.2575270   6.1458030  18.4086090  32.0953180
   7.0337650  18.7203320  31.9204520   6.1163120  17.5358340  31.7033760
   2.1418620  24.5809780  32.7741350   2.4834320  25.3252010  32.2784670
   1.3131330  24.8940900  33.1366180   3.2835230  25.5358110  45.2934430
   3.2979770  24.6039070  45.0753340   2.5760330  25.6217870  45.9324200
   8.4172300  19.7197930  31.5633040   8.3336020  20.1512150  30.7129480
   9.1366490  20.1796280  31.9959860   9.4946440  22.1765450  44.6403010
   8.7694630  22.7694230  44.4432400  10.0221900  22.1688990  43.8416380
   9.4459550  26.5740190  34.2915170   8.8035710  25.9195810  34.5658890
   9.0590210  26.9795280  33.5155840   5.0246030  23.9025620  38.1386860
   5.3769850  23.3053750  37.4788230   4.1408360  23.5769850  38.3095110
   2.7169130  27.1775680  42.3874930   3.3611350  27.3835060  43.0648350
   3.0798570  26.4164080  41.9345780   3.9901210  25.1808030  41.1052380
   4.6323440  24.4801190  41.2184550   4.5150560  25.9606470  40.9249270
   7.8356930  25.4656650  30.8291520   7.6094510  24.7487090  31.4216160
   7.4453130  25.2169090  29.9913270   5.7638830  25.9802930  44.3088440
   6.0995070  26.5669620  44.9866360   4.8439170  25.8495640  44.5386230
   7.4173180  23.3828590  32.4905680   7.1294880  23.8441280  33.2783560
   8.2125350  22.9226360  32.7589900   4.8081010  16.2620420  42.8413300
   5.1761830  15.4415630  43.1692870   3.9479210  16.3222310  43.2568950
   8.1743040  15.2177360  33.6500860   7.5456200  15.3223030  32.9359090
   7.6794960  15.4374140  34.4394740   2.6201180  26.9382950  31.0834840
   2.7213160  26.7346940  30.1536820   1.7202920  26.6841230  31.2882620
   1.7683000  18.9160010  43.0651270   2.2668250  19.3905830  43.7303120
   1.9105950  17.9923530  43.2721300   4.1742500  14.2213970  36.5054530
   4.0510280  14.2400100  35.5564040   5.1227060  14.2692910  36.6252930
   8.9749860  15.1327970  43.9079660   8.4723460  15.8733370  44.2473470
   9.7906520  15.5211970  43.5916450   7.2671870  20.3761150  37.3541020
   6.3262010  20.3911380  37.5288710   7.5815940  19.5897110  37.8001320
   9.2697450  27.5470000  39.0295280   9.3944870  28.3701170  39.5019090
  10.1363010  27.3360730  38.6819430   4.5837890  24.9327150  47.8373400
   3.9776050  24.9558750  47.0969150   4.2792000  24.2010190  48.3740650
   6.0138260  28.6607440  46.4482810   6.9660010  28.5765460  46.3983050
   5.8666480  29.3249150  47.1216600   8.9047460  28.0401650  31.9474720
   8.6188970  27.6266790  31.1328900   8.7067010  28.9689360  31.8275240
   3.6097420  23.0954960  30.9922320   3.0607520  23.5424260  31.6365060
   4.2316680  22.5904210  31.5159990   7.6632360  24.4497060  46.9244580
   8.4041830  24.7872820  46.4212040   6.9005040  24.6189120  46.3714350
   1.7900180  21.0783490  30.1364720   2.3105840  20.3632510  29.7705870
   2.4368580  21.7169360  30.4365230   6.3378020  22.5011890  45.4599790
   6.7519040  22.6556970  46.3090210   5.4029020  22.6267110  45.6225570
   6.8100190  19.8408050  47.4638940   7.3920960  19.0860370  47.3759420
   6.9861960  20.3715490  46.6870420   3.4357150  20.1848550  44.8133560
   3.5553360  19.5889690  45.5528400   4.2951150  20.2218240  44.3934860
   5.7745050  20.7385740  43.3896070   5.2480270  21.2628360  42.7861210
   6.1176390  21.3713130  44.0205800   5.0219350  16.3435710  46.3042400
   4.3334870  15.6817250  46.2392390   5.7425370  15.8973980  46.7490860
   5.6519750  12.9387340  32.3632660   5.9322040  12.0955240  32.7192080
   4.8785480  13.1710450  32.8771410   2.3548210  29.1595100  32.4266460
   3.2499000  29.4980070  32.4485220   2.3865840  28.4374510  31.7990740
   9.3342560  27.6898770  45.1332660   8.7344550  27.7491330  44.3896580
   9.4636460  26.7503750  45.2629510  10.5744010  25.4316590  30.4702370
   9.7436970  25.4993240  30.9409600  10.7515840  26.3220710  30.1669230
  10.0300470  22.1764070  32.9736570  10.7919380  22.7460720  33.0796260
  10.0454840  21.6091270  33.7444880  11.0360440  23.0314170  37.8178500
  11.4069270  22.2481490  37.4114470  11.6762370  23.7203270  37.6395800
   8.0194200  24.4150750  43.2308820   7.2054040  24.8447910  43.4934610
   8.4268400  25.0269160  42.6177870  10.0819640  22.4698440  30.1309090
  10.3568480  23.3777320  30.0028310   9.8930380  22.4060970  31.0671080
   6.4795250  15.4943290  31.4262720   6.8980130  15.3074270  30.5859380
   6.1731310  14.6422340  31.7365650   9.9784980  20.4067430  35.1238520
   9.6028580  19.6395360  34.6919810   9.2488100  20.7890130  35.6113450
   9.3684600  19.5538950  44.7578040   9.1370690  19.3251700  43.8575990
   9.6289150  20.4738500  44.7122930   7.8072670  14.7795380  47.5357740
   8.6842850  14.7878780  47.9191740   7.8193510  14.0426220  46.9250090
   9.2535940  18.6324920  38.4245760   9.7773420  18.1387570  37.7935930
   9.8395360  18.7675280  39.1693330   9.4325660  18.7164790  41.9465310
   8.4828370  18.6828330  42.0610300   9.6138670  19.6264900  41.7115080
   8.7435910  17.8898270  34.3638170   9.2395030  17.6569140  35.1487050
   8.5451980  17.0510110  33.9475810  10.1723070  16.5259220  36.8975850
  10.0622350  16.3715260  37.8358120  10.9330660  15.9980160  36.6551260
   8.5188790  12.4653350  43.3558850   9.1561010  13.0787490  43.7218040
   8.6663680  12.5014010  42.4108080  11.0613340  14.3567140  30.1381990
  11.9862650  14.2248320  29.9300280  11.0389130  14.4359960  31.0918440
  11.1351830  15.1277800  32.7638700  10.3403330  15.0622920  33.2931610
  11.3395110  16.0628440  32.7524050   8.0770250  29.1669350  36.7577090
   8.6729320  28.8453920  36.0811510   8.3348400  28.6941170  37.5490360
   1.8893270  13.6179540  46.2633950   1.8282160  14.2101370  47.0129360
   2.8293650  13.5105500  46.1184210   4.5267830  13.2749600  45.9026240
   5.1408240  13.5928890  45.2407320   5.0717390  12.7898190  46.5222100
  10.9443010  29.1741230  43.3088080  10.4501290  29.5710100  42.5915210
  10.3356300  28.5490440  43.7025360   5.2675870  11.8381740  42.2295530
   4.3935710  12.1716850  42.0268460   5.1586620  11.3654920  43.0547400
   6.1747850  14.0452610  43.6137250   5.8461210  13.2304370  43.2338980
   7.1230150  14.0022420  43.4902940   8.6282460  29.8164650  40.5874820
   8.1685430  30.5680460  40.2132840   7.9994920  29.0971120  40.5289620
   1.7973680  29.0161380  40.5891930   2.0851490  28.7615680  39.7124940
   2.3096900  28.4638740  41.1797500   3.0150690  12.7551580  41.1688440
   2.2322480  13.2297080  41.4485200   2.7213620  11.8506410  41.0601620
   7.5671760  13.4574680  39.2137530   8.0079850  13.4019780  38.3659130
   7.2979350  14.3732690  39.2847710   9.4310330  13.0889920  37.2246350
   9.3698730  12.1451140  37.0777370  10.2102360  13.1970010  37.7699810
   5.4029890  11.8380780  37.9187540   6.0059260  12.4100990  38.3936060
   4.6622880  12.4020220  37.6961440   8.5464490  12.2402340  33.1927820
   8.7415120  13.1385790  33.4595250   7.7594360  12.0089420  33.6860770
   1.8646040  29.9377480  47.9560130   2.7913350  29.7021750  47.9996090
   1.8496470  30.7649480  47.4746160  10.0991100  29.4803050  34.9534380
  10.2743290  28.7940790  34.3095300   9.4012670  30.0050100  34.5611050
   5.6525110  12.0175810  48.2982480   5.5390560  12.3370420  49.1934000
   6.4694850  12.4188320  48.0019760   8.4323600  29.1647340  47.7801170
   9.2248920  28.6696570  47.5727130   8.7256750  29.8437480  48.3876780
   4.5583260  20.0368280  18.6617220   4.4777310  19.1222890  18.3908930
   4.1447680  20.5335350  17.9556930   2.6901300  21.8147300  20.5426490
   1.9143400  21.3347740  20.8325060   3.3414230  21.1352950  20.3682650
   6.7108730  26.2207490  19.3225620   6.2490260  25.4494730  19.6512790
   7.5234280  26.2473560  19.8278070   2.9372040  28.5065500  18.9429610
   2.3183480  28.9623000  18.3724050   3.7923820  28.6616960  18.5419310
   2.1310290  24.4904490  20.5496650   2.0618570  23.5494430  20.3885780
   2.8930150  24.5805900  21.1219220   3.1615460  17.2974870  20.7765580
   3.5380280  16.4246750  20.6639250   3.0634970  17.6333570  19.8856020
   6.9439580  14.7925310  17.7093920   7.7649200  14.3021880  17.7519400
   6.9773660  15.3822970  18.4625760  11.2339130  16.8092060  24.2737550
  10.5291300  17.1973770  23.7552660  11.4997050  17.5042350  24.8758480
   3.8035390  23.3904740  16.3361520   3.1852660  23.8554190  15.7724240
   4.3158640  24.0832220  16.7531030   7.1801060  16.7325690  20.4821460
   6.4756630  17.0210580  21.0624570   7.5413220  17.5425800  20.1221020
   8.7963840  26.3500820  22.7448940   8.1127360  27.0199930  22.7365610
   9.3358130  26.5481470  21.9793800  10.2487980  16.1780480  20.8730670
   9.3012890  16.2119460  21.0046100  10.5737970  16.9919430  21.2580030
   6.3322580  28.1944950  21.4594120   6.3449740  27.7907240  20.5916380
   5.7797800  28.9692240  21.3555550   7.6268000  24.9161170  16.5484290
   7.5164330  23.9735500  16.6733710   7.6236250  25.2776810  17.4347050
   5.7308020  23.0974790  22.7876730   6.1476810  22.8834900  21.9530190
   6.4547840  23.3547580  23.3585350   3.1688280  20.5426490  15.9046780
   2.2417560  20.4763870  16.1335250   3.3213100  21.4806620  15.7902020
   3.1557360  16.8143490  12.9013940   2.2161030  16.9757450  12.9866400
   3.4740620  17.5329170  12.3549930   9.6770120  21.4962010  22.8792970
   8.8488750  21.5655100  22.4043100  10.2720600  22.0816320  22.4108800
   7.1985570  22.1046790  16.4082030   6.5797990  21.7666340  15.7608330
   7.1810020  21.4606550  17.1161220   6.6412130  18.2831330  23.8247840
   6.2283310  19.1085040  24.0787830   5.9088080  17.6976370  23.6324200
   7.3312230  28.3290660  24.5128820   6.8542790  29.1362850  24.3201430
   6.6474020  27.6768990  24.6655030   5.3750270  21.3433600  13.4154780
   5.8143550  20.5056030  13.2692600   6.0878690  21.9763000  13.5018920
   3.4845650  26.2829670  17.3836020   3.9241560  27.0254000  16.9691410
   3.4232540  26.5256240  18.3074980   8.9567410  12.5976410  11.7295820
   8.6440070  12.6903240  12.6294890   9.7179880  13.1757440  11.6793250
  10.9111440  28.0902600  29.5820210  11.3871160  28.5685490  30.2609290
  11.5318600  28.0220090  28.8565710  10.3144690  25.2815450  26.7420220
  10.4407750  25.0427330  25.8237400  10.3566070  24.4499990  27.2142300
   4.1761430  28.9843450  25.3115030   4.6906100  28.8951460  26.1137460
   3.3330510  29.3303150  25.6042940   6.1515830  29.2698790  14.7399030
   5.9916970  28.9801730  15.6380860   5.9862540  28.4938920  14.2044260
   5.8541960  26.7786350  13.2997030   5.1607120  26.7763640  12.6399310
   6.5964820  26.3545670  12.8691200   5.4191890  28.4049060  17.3745520
   5.8748840  27.6238440  17.6884140   5.7584410  29.1155880  17.9186700
  10.1668700  17.3347910  27.7069960   9.5512970  17.8427580  27.1785420
   9.8465120  16.4346240  27.6495900   2.2283020  16.1739800  25.1732150
   1.7662390  16.3822820  25.9852090   1.8261130  15.3599150  24.8702820
   7.2287530  17.3948750  26.3028810   6.3781120  17.0954500  26.6237880
   7.0689320  17.6390760  25.3912630   4.3237240  18.8950500  28.4027600
   4.6490650  18.0614250  28.0629830   5.1117570  19.4179020  28.5505930
   4.9625190  18.4368220  15.8968730   4.3634080  19.1604020  15.7132350
   5.5104800  18.3745000  15.1145180   3.5690060  17.0731760  17.9272010
   3.9619630  17.3903960  17.1140700   3.9306910  16.1943640  18.0416530
   4.1545200  19.6637510  22.0222790   3.4226320  20.1724320  22.3712890
   3.7569540  18.8467490  21.7211570   4.6171110  15.1171190  21.4345730
   4.6343850  15.5679840  22.2787580   4.3686690  14.2176830  21.6479170
   8.0441860  12.5303370  27.2732110   8.3687630  11.7993030  27.7990090
   8.0798370  12.2117010  26.3713100   7.9699700  22.6428480  20.8818140
   8.6898820  23.1383770  20.4914250   7.7681520  21.9646370  20.2372010
   3.4309640  14.0366440  15.0247530   2.6174250  13.5379610  14.9492840
   3.2371590  14.8764690  14.6083880   3.3518500  22.7137540  26.7687140
   3.2855810  21.7933210  26.5144730   2.7223640  22.8112980  27.4831780
   6.1458030  18.4086090  13.3209690   7.0337650  18.7203320  13.1461030
   6.1163120  17.5358340  12.9290270   2.1418620  24.5809780  13.9997860
   2.4834320  25.3252010  13.5041180   1.3131330  24.8940900  14.3622690
   3.2835230  25.5358110  26.5190940   3.2979770  24.6039070  26.3009850
   2.5760330  25.6217870  27.1580710   8.4172300  19.7197930  12.7889550
   8.3336020  20.1512150  11.9385990   9.1366490  20.1796280  13.2216370
   9.4946440  22.1765450  25.8659520   8.7694630  22.7694230  25.6688910
  10.0221900  22.1688990  25.0672890   9.4459550  26.5740190  15.5171680
   8.8035710  25.9195810  15.7915400   9.0590210  26.9795280  14.7412350
   5.0246030  23.9025620  19.3643370   5.3769850  23.3053750  18.7044740
   4.1408360  23.5769850  19.5351620   2.7169130  27.1775680  23.6131440
   3.3611350  27.3835060  24.2904860   3.0798570  26.4164080  23.1602290
   3.9901210  25.1808030  22.3308890   4.6323440  24.4801190  22.4441060
   4.5150560  25.9606470  22.1505780   7.8356930  25.4656650  12.0548030
   7.6094510  24.7487090  12.6472670   7.4453130  25.2169090  11.2169780
   5.7638830  25.9802930  25.5344950   6.0995070  26.5669620  26.2122870
   4.8439170  25.8495640  25.7642740   7.4173180  23.3828590  13.7162190
   7.1294880  23.8441280  14.5040070   8.2125350  22.9226360  13.9846410
   4.8081010  16.2620420  24.0669810   5.1761830  15.4415630  24.3949380
   3.9479210  16.3222310  24.4825460   8.1743040  15.2177360  14.8757370
   7.5456200  15.3223030  14.1615600   7.6794960  15.4374140  15.6651250
   2.6201180  26.9382950  12.3091350   2.7213160  26.7346940  11.3793330
   1.7202920  26.6841230  12.5139130   1.7683000  18.9160010  24.2907780
   2.2668250  19.3905830  24.9559630   1.9105950  17.9923530  24.4977810
   4.1742500  14.2213970  17.7311040   4.0510280  14.2400100  16.7820550
   5.1227060  14.2692910  17.8509440   8.9749860  15.1327970  25.1336170
   8.4723460  15.8733370  25.4729980   9.7906520  15.5211970  24.8172960
   7.2671870  20.3761150  18.5797530   6.3262010  20.3911380  18.7545220
   7.5815940  19.5897110  19.0257830   9.2697450  27.5470000  20.2551790
   9.3944870  28.3701170  20.7275600  10.1363010  27.3360730  19.9075940
   4.5837890  24.9327150  29.0629910   3.9776050  24.9558750  28.3225660
   4.2792000  24.2010190  29.5997160   6.0138260  28.6607440  27.6739320
   6.9660010  28.5765460  27.6239560   5.8666480  29.3249150  28.3473110
   8.9047460  28.0401650  13.1731230   8.6188970  27.6266790  12.3585410
   8.7067010  28.9689360  13.0531750   3.6097420  23.0954960  12.2178830
   3.0607520  23.5424260  12.8621570   4.2316680  22.5904210  12.7416500
   7.6632360  24.4497060  28.1501090   8.4041830  24.7872820  27.6468550
   6.9005040  24.6189120  27.5970860   1.7900180  21.0783490  11.3621230
   2.3105840  20.3632510  10.9962380   2.4368580  21.7169360  11.6621740
   6.3378020  22.5011890  26.6856300   6.7519040  22.6556970  27.5346720
   5.4029020  22.6267110  26.8482080   6.8100190  19.8408050  28.6895450
   7.3920960  19.0860370  28.6015930   6.9861960  20.3715490  27.9126930
   3.4357150  20.1848550  26.0390070   3.5553360  19.5889690  26.7784910
   4.2951150  20.2218240  25.6191370   5.7745050  20.7385740  24.6152580
   5.2480270  21.2628360  24.0117720   6.1176390  21.3713130  25.2462310
   5.0219350  16.3435710  27.5298910   4.3334870  15.6817250  27.4648900
   5.7425370  15.8973980  27.9747370   5.6519750  12.9387340  13.5889170
   5.9322040  12.0955240  13.9448590   4.8785480  13.1710450  14.1027920
   2.3548210  29.1595100  13.6522970   3.2499000  29.4980070  13.6741730
   2.3865840  28.4374510  13.0247250   9.3342560  27.6898770  26.3589170
   8.7344550  27.7491330  25.6153090   9.4636460  26.7503750  26.4886020
  10.5744010  25.4316590  11.6958880   9.7436970  25.4993240  12.1666110
  10.7515840  26.3220710  11.3925740  10.0300470  22.1764070  14.1993080
  10.7919380  22.7460720  14.3052770  10.0454840  21.6091270  14.9701390
  11.0360440  23.0314170  19.0435010  11.4069270  22.2481490  18.6370980
  11.6762370  23.7203270  18.8652310   8.0194200  24.4150750  24.4565330
   7.2054040  24.8447910  24.7191120   8.4268400  25.0269160  23.8434380
  10.0819640  22.4698440  11.3565600  10.3568480  23.3777320  11.2284820
   9.8930380  22.4060970  12.2927590   6.4795250  15.4943290  12.6519230
   6.8980130  15.3074270  11.8115890   6.1731310  14.6422340  12.9622160
   9.9784980  20.4067430  16.3495030   9.6028580  19.6395360  15.9176320
   9.2488100  20.7890130  16.8369960   9.3684600  19.5538950  25.9834550
   9.1370690  19.3251700  25.0832500   9.6289150  20.4738500  25.9379440
   7.8072670  14.7795380  28.7614250   8.6842850  14.7878780  29.1448250
   7.8193510  14.0426220  28.1506600   9.2535940  18.6324920  19.6502270
   9.7773420  18.1387570  19.0192440   9.8395360  18.7675280  20.3949840
   9.4325660  18.7164790  23.1721820   8.4828370  18.6828330  23.2866810
   9.6138670  19.6264900  22.9371590   8.7435910  17.8898270  15.5894680
   9.2395030  17.6569140  16.3743560   8.5451980  17.0510110  15.1732320
  10.1723070  16.5259220  18.1232360  10.0622350  16.3715260  19.0614630
  10.9330660  15.9980160  17.8807770   8.5188790  12.4653350  24.5815360
   9.1561010  13.0787490  24.9474550   8.6663680  12.5014010  23.6364590
  11.0613340  14.3567140  11.3638500  11.9862650  14.2248320  11.1556790
  11.0389130  14.4359960  12.3174950  11.1351830  15.1277800  13.9895210
  10.3403330  15.0622920  14.5188120  11.3395110  16.0628440  13.9780560
   8.0770250  29.1669350  17.9833600   8.6729320  28.8453920  17.3068020
   8.3348400  28.6941170  18.7746870   1.8893270  13.6179540  27.4890460
   1.8282160  14.2101370  28.2385870   2.8293650  13.5105500  27.3440720
   4.5267830  13.2749600  27.1282750   5.1408240  13.5928890  26.4663830
   5.0717390  12.7898190  27.7478610  10.9443010  29.1741230  24.5344590
  10.4501290  29.5710100  23.8171720  10.3356300  28.5490440  24.9281870
   5.2675870  11.8381740  23.4552040   4.3935710  12.1716850  23.2524970
   5.1586620  11.3654920  24.2803910   6.1747850  14.0452610  24.8393760
   5.8461210  13.2304370  24.4595490   7.1230150  14.0022420  24.7159450
   8.6282460  29.8164650  21.8131330   8.1685430  30.5680460  21.4389350
   7.9994920  29.0971120  21.7546130   1.7973680  29.0161380  21.8148440
   2.0851490  28.7615680  20.9381450   2.3096900  28.4638740  22.4054010
   3.0150690  12.7551580  22.3944950   2.2322480  13.2297080  22.6741710
   2.7213620  11.8506410  22.2858130   7.5671760  13.4574680  20.4394040
   8.0079850  13.4019780  19.5915640   7.2979350  14.3732690  20.5104220
   9.4310330  13.0889920  18.4502860   9.3698730  12.1451140  18.3033880
  10.2102360  13.1970010  18.9956320   5.4029890  11.8380780  19.1444050
   6.0059260  12.4100990  19.6192570   4.6622880  12.4020220  18.9217950
   8.5464490  12.2402340  14.4184330   8.7415120  13.1385790  14.6851760
   7.7594360  12.0089420  14.9117280   1.8646040  29.9377480  29.1816640
   2.7913350  29.7021750  29.2252600   1.8496470  30.7649480  28.7002670
  10.0991100  29.4803050  16.1790890  10.2743290  28.7940790  15.5351810
   9.4012670  30.0050100  15.7867560   5.6525110  12.0175810  29.5238990
   5.5390560  12.3370420  30.4190510   6.4694850  12.4188320  29.2276270
   8.4323600  29.1647340  29.0057680   9.2248920  28.6696570  28.7983640
   8.7256750  29.8437480  29.6133290   2.6901300  21.8147300   1.7683000
   1.9143400  21.3347740   2.0581570   3.3414230  21.1352950   1.5939160
   2.1310290  24.4904490   1.7753160   2.0618570  23.5494430   1.6142290
   2.8930150  24.5805900   2.3475730  11.2339130  16.8092060   5.4994060
  10.5291300  17.1973770   4.9809170  11.4997050  17.5042350   6.1014990
   8.7963840  26.3500820   3.9705450   8.1127360  27.0199930   3.9622120
   9.3358130  26.5481470   3.2050310  10.2487980  16.1780480   2.0987180
   9.3012890  16.2119460   2.2302610  10.5737970  16.9919430   2.4836540
   6.3322580  28.1944950   2.6850630   6.3449740  27.7907240   1.8172890
   5.7797800  28.9692240   2.5812060   5.7308020  23.0974790   4.0133240
   6.1476810  22.8834900   3.1786700   6.4547840  23.3547580   4.5841860
   9.6770120  21.4962010   4.1049480   8.8488750  21.5655100   3.6299610
  10.2720600  22.0816320   3.6365310   6.6412130  18.2831330   5.0504350
   6.2283310  19.1085040   5.3044340   5.9088080  17.6976370   4.8580710
   7.3312230  28.3290660   5.7385330   6.8542790  29.1362850   5.5457940
   6.6474020  27.6768990   5.8911540  10.9111440  28.0902600  10.8076720
  11.3871160  28.5685490  11.4865800  11.5318600  28.0220090  10.0822220
  10.3144690  25.2815450   7.9676730  10.4407750  25.0427330   7.0493910
  10.3566070  24.4499990   8.4398810   4.1761430  28.9843450   6.5371540
   4.6906100  28.8951460   7.3393970   3.3330510  29.3303150   6.8299450
  10.1668700  17.3347910   8.9326470   9.5512970  17.8427580   8.4041930
   9.8465120  16.4346240   8.8752410   2.2283020  16.1739800   6.3988660
   1.7662390  16.3822820   7.2108600   1.8261130  15.3599150   6.0959330
   7.2287530  17.3948750   7.5285320   6.3781120  17.0954500   7.8494390
   7.0689320  17.6390760   6.6169140   4.3237240  18.8950500   9.6284110
   4.6490650  18.0614250   9.2886340   5.1117570  19.4179020   9.7762440
   4.1545200  19.6637510   3.2479300   3.4226320  20.1724320   3.5969400
   3.7569540  18.8467490   2.9468080   4.6171110  15.1171190   2.6602240
   4.6343850  15.5679840   3.5044090   4.3686690  14.2176830   2.8735680
   8.0441860  12.5303370   8.4988620   8.3687630  11.7993030   9.0246600
   8.0798370  12.2117010   7.5969610   7.9699700  22.6428480   2.1074650
   8.6898820  23.1383770   1.7170760   7.7681520  21.9646370   1.4628520
   3.3518500  22.7137540   7.9943650   3.2855810  21.7933210   7.7401240
   2.7223640  22.8112980   8.7088290   3.2835230  25.5358110   7.7447450
   3.2979770  24.6039070   7.5266360   2.5760330  25.6217870   8.3837220
   9.4946440  22.1765450   7.0916030   8.7694630  22.7694230   6.8945420
  10.0221900  22.1688990   6.2929400   2.7169130  27.1775680   4.8387950
   3.3611350  27.3835060   5.5161370   3.0798570  26.4164080   4.3858800
   3.9901210  25.1808030   3.5565400   4.6323440  24.4801190   3.6697570
   4.5150560  25.9606470   3.3762290   5.7638830  25.9802930   6.7601460
   6.0995070  26.5669620   7.4379380   4.8439170  25.8495640   6.9899250
   4.8081010  16.2620420   5.2926320   5.1761830  15.4415630   5.6205890
   3.9479210  16.3222310   5.7081970   1.7683000  18.9160010   5.5164290
   2.2668250  19.3905830   6.1816140   1.9105950  17.9923530   5.7234320
   8.9749860  15.1327970   6.3592680   8.4723460  15.8733370   6.6986490
   9.7906520  15.5211970   6.0429470   4.5837890  24.9327150  10.2886420
   3.9776050  24.9558750   9.5482170   4.2792000  24.2010190  10.8253670
   6.0138260  28.6607440   8.8995830   6.9660010  28.5765460   8.8496070
   5.8666480  29.3249150   9.5729620   7.6632360  24.4497060   9.3757600
   8.4041830  24.7872820   8.8725060   6.9005040  24.6189120   8.8227370
   6.3378020  22.5011890   7.9112810   6.7519040  22.6556970   8.7603230
   5.4029020  22.6267110   8.0738590   6.8100190  19.8408050   9.9151960
   7.3920960  19.0860370   9.8272440   6.9861960  20.3715490   9.1383440
   3.4357150  20.1848550   7.2646580   3.5553360  19.5889690   8.0041420
   4.2951150  20.2218240   6.8447880   5.7745050  20.7385740   5.8409090
   5.2480270  21.2628360   5.2374230   6.1176390  21.3713130   6.4718820
   5.0219350  16.3435710   8.7555420   4.3334870  15.6817250   8.6905410
   5.7425370  15.8973980   9.2003880   9.3342560  27.6898770   7.5845680
   8.7344550  27.7491330   6.8409600   9.4636460  26.7503750   7.7142530
   8.0194200  24.4150750   5.6821840   7.2054040  24.8447910   5.9447630
   8.4268400  25.0269160   5.0690890   9.3684600  19.5538950   7.2091060
   9.1370690  19.3251700   6.3089010   9.6289150  20.4738500   7.1635950
   7.8072670  14.7795380   9.9870760   8.6842850  14.7878780  10.3704760
   7.8193510  14.0426220   9.3763110   9.4325660  18.7164790   4.3978330
   8.4828370  18.6828330   4.5123320   9.6138670  19.6264900   4.1628100
   8.5188790  12.4653350   5.8071870   9.1561010  13.0787490   6.1731060
   8.6663680  12.5014010   4.8621100   1.8893270  13.6179540   8.7146970
   1.8282160  14.2101370   9.4642380   2.8293650  13.5105500   8.5697230
   4.5267830  13.2749600   8.3539260   5.1408240  13.5928890   7.6920340
   5.0717390  12.7898190   8.9735120  10.9443010  29.1741230   5.7601100
  10.4501290  29.5710100   5.0428230  10.3356300  28.5490440   6.1538380
   5.2675870  11.8381740   4.6808550   4.3935710  12.1716850   4.4781480
   5.1586620  11.3654920   5.5060420   6.1747850  14.0452610   6.0650270
   5.8461210  13.2304370   5.6852000   7.1230150  14.0022420   5.9415960
   8.6282460  29.8164650   3.0387840   8.1685430  30.5680460   2.6645860
   7.9994920  29.0971120   2.9802640   1.7973680  29.0161380   3.0404950
   2.0851490  28.7615680   2.1637960   2.3096900  28.4638740   3.6310520
   3.0150690  12.7551580   3.6201460   2.2322480  13.2297080   3.8998220
   2.7213620  11.8506410   3.5114640   1.8646040  29.9377480  10.4073150
   2.7913350  29.7021750  10.4509110   1.8496470  30.7649480   9.9259180
   5.6525110  12.0175810  10.7495500   5.5390560  12.3370420  11.6447020
   6.4694850  12.4188320  10.4532780   8.4323600  29.1647340  10.2314190
   9.2248920  28.6696570  10.0240150   8.7256750  29.8437480  10.8389800
   6.7108730   7.4464000 150.7430050   6.2490260   6.6751240 151.0717220
   7.5234280   7.4730070 151.2482500   2.9372040   9.7322010 150.3634040
   2.3183480  10.1879510 149.7928480   3.7923820   9.8873470 149.9623740
   3.8035390   4.6161250 147.7565950   3.1852660   5.0810700 147.1928670
   4.3158640   5.3088730 148.1735460   7.6268000   6.1417680 147.9688720
   7.5164330   5.1992010 148.0938140   7.6236250   6.5033320 148.8551480
   3.1688280   1.7683000 147.3251210   2.2417560   1.7020380 147.5539680
   3.3213100   2.7063130 147.2106450   7.1985570   3.3303300 147.8286460
   6.5797990   2.9922850 147.1812760   7.1810020   2.6863060 148.5365650
   5.3750270   2.5690110 144.8359210   5.8143550   1.7312540 144.6897030
   6.0878690   3.2019510 144.9223350   3.4845650   7.5086180 148.8040450
   3.9241560   8.2510510 148.3895840   3.4232540   7.7512750 149.7279410
   6.1515830  10.4955300 146.1603460   5.9916970  10.2058240 147.0585290
   5.9862540   9.7195430 145.6248690   5.8541960   8.0042860 144.7201460
   5.1607120   8.0020150 144.0603740   6.5964820   7.5802180 144.2895630
   5.4191890   9.6305570 148.7949950   5.8748840   8.8494950 149.1088570
   5.7584410  10.3412390 149.3391130   2.1418620   5.8066290 145.4202290
   2.4834320   6.5508520 144.9245610   1.3131330   6.1197410 145.7827120
   9.4459550   7.7996700 146.9376110   8.8035710   7.1452320 147.2119830
   9.0590210   8.2051790 146.1616780   5.0246030   5.1282130 150.7847800
   5.3769850   4.5310260 150.1249170   4.1408360   4.8026360 150.9556050
   7.8356930   6.6913160 143.4752460   7.6094510   5.9743600 144.0677100
   7.4453130   6.4425600 142.6374210   7.4173180   4.6085100 145.1366620
   7.1294880   5.0697790 145.9244500   8.2125350   4.1482870 145.4050840
   2.6201180   8.1639460 143.7295780   2.7213160   7.9603450 142.7997760
   1.7202920   7.9097740 143.9343560   8.9047460   9.2658160 144.5935660
   8.6188970   8.8523300 143.7789840   8.7067010  10.1945870 144.4736180
   3.6097420   4.3211470 143.6383260   3.0607520   4.7680770 144.2826000
   4.2316680   3.8160720 144.1620930   2.3548210  10.3851610 145.0727400
   3.2499000  10.7236580 145.0946160   2.3865840   9.6631020 144.4451680
  10.5744010   6.6573100 143.1163310   9.7436970   6.7249750 143.5870540
  10.7515840   7.5477220 142.8130170  10.0300470   3.4020580 145.6197510
  10.7919380   3.9717230 145.7257200  10.0454840   2.8347780 146.3905820
  11.0360440   4.2570680 150.4639440  11.4069270   3.4738000 150.0575410
  11.6762370   4.9459780 150.2856740  10.0819640   3.6954950 142.7770030
  10.3568480   4.6033830 142.6489250   9.8930380   3.6317480 143.7132020
   8.0770250  10.3925860 149.4038030   8.6729320  10.0710430 148.7272450
   8.3348400   9.9197680 150.1951300  10.0991100  10.7059560 147.5995320
  10.2743290  10.0197300 146.9556240   9.4012670  11.2306610 147.2071990
   2.6901300   3.0403810 133.1887430   1.9143400   2.5604250 133.4786000
   3.3414230   2.3609460 133.0143590   6.7108730   7.4464000 131.9686560
   6.2490260   6.6751240 132.2973730   7.5234280   7.4730070 132.4739010
   2.9372040   9.7322010 131.5890550   2.3183480  10.1879510 131.0184990
   3.7923820   9.8873470 131.1880250   2.1310290   5.7161000 133.1957590
   2.0618570   4.7750940 133.0346720   2.8930150   5.8062410 133.7680160
   3.8035390   4.6161250 128.9822460   3.1852660   5.0810700 128.4185180
   4.3158640   5.3088730 129.3991970   8.7963840   7.5757330 135.3909880
   8.1127360   8.2456440 135.3826550   9.3358130   7.7737980 134.6254740
   6.3322580   9.4201460 134.1055060   6.3449740   9.0163750 133.2377320
   5.7797800  10.1948750 134.0016490   7.6268000   6.1417680 129.1945230
   7.5164330   5.1992010 129.3194650   7.6236250   6.5033320 130.0807990
   5.7308020   4.3231300 135.4337670   6.1476810   4.1091410 134.5991130
   6.4547840   4.5804090 136.0046290   3.1688280   1.7683000 128.5507720
   2.2417560   1.7020380 128.7796190   3.3213100   2.7063130 128.4362960
   9.6770120   2.7218520 135.5253910   8.8488750   2.7911610 135.0504040
  10.2720600   3.3072830 135.0569740   7.1985570   3.3303300 129.0542970
   6.5797990   2.9922850 128.4069270   7.1810020   2.6863060 129.7622160
   7.3312230   9.5547170 137.1589760   6.8542790  10.3619360 136.9662370
   6.6474020   8.9025500 137.3115970   5.3750270   2.5690110 126.0615720
   5.8143550   1.7312540 125.9153540   6.0878690   3.2019510 126.1479860
   3.4845650   7.5086180 130.0296960   3.9241560   8.2510510 129.6152350
   3.4232540   7.7512750 130.9535920  10.9111440   9.3159110 142.2281150
  11.3871160   9.7942000 142.9070230  11.5318600   9.2476600 141.5026650
  10.3144690   6.5071960 139.3881160  10.4407750   6.2683840 138.4698340
  10.3566070   5.6756500 139.8603240   4.1761430  10.2099960 137.9575970
   4.6906100  10.1207970 138.7598400   3.3330510  10.5559660 138.2503880
   6.1515830  10.4955300 127.3859970   5.9916970  10.2058240 128.2841800
   5.9862540   9.7195430 126.8505200   5.8541960   8.0042860 125.9457970
   5.1607120   8.0020150 125.2860250   6.5964820   7.5802180 125.5152140
   5.4191890   9.6305570 130.0206460   5.8748840   8.8494950 130.3345080
   5.7584410  10.3412390 130.5647640   7.9699700   3.8684990 133.5279080
   8.6898820   4.3640280 133.1375190   7.7681520   3.1902880 132.8832950
   3.3518500   3.9394050 139.4148080   3.2855810   3.0189720 139.1605670
   2.7223640   4.0369490 140.1292720   2.1418620   5.8066290 126.6458800
   2.4834320   6.5508520 126.1502120   1.3131330   6.1197410 127.0083630
   3.2835230   6.7614620 139.1651880   3.2979770   5.8295580 138.9470790
   2.5760330   6.8474380 139.8041650   9.4946440   3.4021960 138.5120460
   8.7694630   3.9950740 138.3149850  10.0221900   3.3945500 137.7133830
   9.4459550   7.7996700 128.1632620   8.8035710   7.1452320 128.4376340
   9.0590210   8.2051790 127.3873290   5.0246030   5.1282130 132.0104310
   5.3769850   4.5310260 131.3505680   4.1408360   4.8026360 132.1812560
   2.7169130   8.4032190 136.2592380   3.3611350   8.6091570 136.9365800
   3.0798570   7.6420590 135.8063230   3.9901210   6.4064540 134.9769830
   4.6323440   5.7057700 135.0902000   4.5150560   7.1862980 134.7966720
   7.8356930   6.6913160 124.7008970   7.6094510   5.9743600 125.2933610
   7.4453130   6.4425600 123.8630720   5.7638830   7.2059440 138.1805890
   6.0995070   7.7926130 138.8583810   4.8439170   7.0752150 138.4103680
   7.4173180   4.6085100 126.3623130   7.1294880   5.0697790 127.1501010
   8.2125350   4.1482870 126.6307350   2.6201180   8.1639460 124.9552290
   2.7213160   7.9603450 124.0254270   1.7202920   7.9097740 125.1600070
   9.2697450   8.7726510 132.9012730   9.3944870   9.5957680 133.3736540
  10.1363010   8.5617240 132.5536880   4.5837890   6.1583660 141.7090850
   3.9776050   6.1815260 140.9686600   4.2792000   5.4266700 142.2458100
   6.0138260   9.8863950 140.3200260   6.9660010   9.8021970 140.2700500
   5.8666480  10.5505660 140.9934050   8.9047460   9.2658160 125.8192170
   8.6188970   8.8523300 125.0046350   8.7067010  10.1945870 125.6992690
   3.6097420   4.3211470 124.8639770   3.0607520   4.7680770 125.5082510
   4.2316680   3.8160720 125.3877440   7.6632360   5.6753570 140.7962030
   8.4041830   6.0129330 140.2929490   6.9005040   5.8445630 140.2431800
   6.3378020   3.7268400 139.3317240   6.7519040   3.8813480 140.1807660
   5.4029020   3.8523620 139.4943020   5.7745050   1.9642250 137.2613520
   5.2480270   2.4884870 136.6578660   6.1176390   2.5969640 137.8923250
   2.3548210  10.3851610 126.2983910   3.2499000  10.7236580 126.3202670
   2.3865840   9.6631020 125.6708190   9.3342560   8.9155280 139.0050110
   8.7344550   8.9747840 138.2614030   9.4636460   7.9760260 139.1346960
  10.5744010   6.6573100 124.3419820   9.7436970   6.7249750 124.8127050
  10.7515840   7.5477220 124.0386680  10.0300470   3.4020580 126.8454020
  10.7919380   3.9717230 126.9513710  10.0454840   2.8347780 127.6162330
  11.0360440   4.2570680 131.6895950  11.4069270   3.4738000 131.2831920
  11.6762370   4.9459780 131.5113250   8.0194200   5.6407260 137.1026270
   7.2054040   6.0704420 137.3652060   8.4268400   6.2525670 136.4895320
  10.0819640   3.6954950 124.0026540  10.3568480   4.6033830 123.8745760
   9.8930380   3.6317480 124.9388530   8.0770250  10.3925860 130.6294540
   8.6729320  10.0710430 129.9528960   8.3348400   9.9197680 131.4207810
  10.9443010  10.3997740 137.1805530  10.4501290  10.7966610 136.4632660
  10.3356300   9.7746950 137.5742810   8.6282460  11.0421160 134.4592270
   8.1685430  11.7936970 134.0850290   7.9994920  10.3227630 134.4007070
   1.7973680  10.2417890 134.4609380   2.0851490   9.9872190 133.5842390
   2.3096900   9.6895250 135.0514950   1.8646040  11.1633990 141.8277580
   2.7913350  10.9278260 141.8713540   1.8496470  11.9905990 141.3463610
  10.0991100  10.7059560 128.8251830  10.2743290  10.0197300 128.1812750
   9.4012670  11.2306610 128.4328500   8.4323600  10.3903850 141.6518620
   9.2248920   9.8953080 141.4444580   8.7256750  11.0693990 142.2594230
   2.6901300   3.0403810 114.4143940   1.9143400   2.5604250 114.7042510
   3.3414230   2.3609460 114.2400100   6.7108730   7.4464000 113.1943070
   6.2490260   6.6751240 113.5230240   7.5234280   7.4730070 113.6995520
   2.9372040   9.7322010 112.8147060   2.3183480  10.1879510 112.2441500
   3.7923820   9.8873470 112.4136760   2.1310290   5.7161000 114.4214100
   2.0618570   4.7750940 114.2603230   2.8930150   5.8062410 114.9936670
   3.8035390   4.6161250 110.2078970   3.1852660   5.0810700 109.6441690
   4.3158640   5.3088730 110.6248480   8.7963840   7.5757330 116.6166390
   8.1127360   8.2456440 116.6083060   9.3358130   7.7737980 115.8511250
   6.3322580   9.4201460 115.3311570   6.3449740   9.0163750 114.4633830
   5.7797800  10.1948750 115.2273000   7.6268000   6.1417680 110.4201740
   7.5164330   5.1992010 110.5451160   7.6236250   6.5033320 111.3064500
   5.7308020   4.3231300 116.6594180   6.1476810   4.1091410 115.8247640
   6.4547840   4.5804090 117.2302800   3.1688280   1.7683000 109.7764230
   2.2417560   1.7020380 110.0052700   3.3213100   2.7063130 109.6619470
   9.6770120   2.7218520 116.7510420   8.8488750   2.7911610 116.2760550
  10.2720600   3.3072830 116.2826250   7.1985570   3.3303300 110.2799480
   6.5797990   2.9922850 109.6325780   7.1810020   2.6863060 110.9878670
   7.3312230   9.5547170 118.3846270   6.8542790  10.3619360 118.1918880
   6.6474020   8.9025500 118.5372480   5.3750270   2.5690110 107.2872230
   5.8143550   1.7312540 107.1410050   6.0878690   3.2019510 107.3736370
   3.4845650   7.5086180 111.2553470   3.9241560   8.2510510 110.8408860
   3.4232540   7.7512750 112.1792430  10.9111440   9.3159110 123.4537660
  11.3871160   9.7942000 124.1326740  11.5318600   9.2476600 122.7283160
  10.3144690   6.5071960 120.6137670  10.4407750   6.2683840 119.6954850
  10.3566070   5.6756500 121.0859750   4.1761430  10.2099960 119.1832480
   4.6906100  10.1207970 119.9854910   3.3330510  10.5559660 119.4760390
   6.1515830  10.4955300 108.6116480   5.9916970  10.2058240 109.5098310
   5.9862540   9.7195430 108.0761710   5.8541960   8.0042860 107.1714480
   5.1607120   8.0020150 106.5116760   6.5964820   7.5802180 106.7408650
   5.4191890   9.6305570 111.2462970   5.8748840   8.8494950 111.5601590
   5.7584410  10.3412390 111.7904150   7.9699700   3.8684990 114.7535590
   8.6898820   4.3640280 114.3631700   7.7681520   3.1902880 114.1089460
   3.3518500   3.9394050 120.6404590   3.2855810   3.0189720 120.3862180
   2.7223640   4.0369490 121.3549230   2.1418620   5.8066290 107.8715310
   2.4834320   6.5508520 107.3758630   1.3131330   6.1197410 108.2340140
   3.2835230   6.7614620 120.3908390   3.2979770   5.8295580 120.1727300
   2.5760330   6.8474380 121.0298160   9.4946440   3.4021960 119.7376970
   8.7694630   3.9950740 119.5406360  10.0221900   3.3945500 118.9390340
   9.4459550   7.7996700 109.3889130   8.8035710   7.1452320 109.6632850
   9.0590210   8.2051790 108.6129800   5.0246030   5.1282130 113.2360820
   5.3769850   4.5310260 112.5762190   4.1408360   4.8026360 113.4069070
   2.7169130   8.4032190 117.4848890   3.3611350   8.6091570 118.1622310
   3.0798570   7.6420590 117.0319740   3.9901210   6.4064540 116.2026340
   4.6323440   5.7057700 116.3158510   4.5150560   7.1862980 116.0223230
   7.8356930   6.6913160 105.9265480   7.6094510   5.9743600 106.5190120
   7.4453130   6.4425600 105.0887230   5.7638830   7.2059440 119.4062400
   6.0995070   7.7926130 120.0840320   4.8439170   7.0752150 119.6360190
   7.4173180   4.6085100 107.5879640   7.1294880   5.0697790 108.3757520
   8.2125350   4.1482870 107.8563860   2.6201180   8.1639460 106.1808800
   2.7213160   7.9603450 105.2510780   1.7202920   7.9097740 106.3856580
   9.2697450   8.7726510 114.1269240   9.3944870   9.5957680 114.5993050
  10.1363010   8.5617240 113.7793390   4.5837890   6.1583660 122.9347360
   3.9776050   6.1815260 122.1943110   4.2792000   5.4266700 123.4714610
   6.0138260   9.8863950 121.5456770   6.9660010   9.8021970 121.4957010
   5.8666480  10.5505660 122.2190560   8.9047460   9.2658160 107.0448680
   8.6188970   8.8523300 106.2302860   8.7067010  10.1945870 106.9249200
   3.6097420   4.3211470 106.0896280   3.0607520   4.7680770 106.7339020
   4.2316680   3.8160720 106.6133950   7.6632360   5.6753570 122.0218540
   8.4041830   6.0129330 121.5186000   6.9005040   5.8445630 121.4688310
   6.3378020   3.7268400 120.5573750   6.7519040   3.8813480 121.4064170
   5.4029020   3.8523620 120.7199530   5.7745050   1.9642250 118.4870030
   5.2480270   2.4884870 117.8835170   6.1176390   2.5969640 119.1179760
   2.3548210  10.3851610 107.5240420   3.2499000  10.7236580 107.5459180
   2.3865840   9.6631020 106.8964700   9.3342560   8.9155280 120.2306620
   8.7344550   8.9747840 119.4870540   9.4636460   7.9760260 120.3603470
  10.5744010   6.6573100 105.5676330   9.7436970   6.7249750 106.0383560
  10.7515840   7.5477220 105.2643190  10.0300470   3.4020580 108.0710530
  10.7919380   3.9717230 108.1770220  10.0454840   2.8347780 108.8418840
  11.0360440   4.2570680 112.9152460  11.4069270   3.4738000 112.5088430
  11.6762370   4.9459780 112.7369760   8.0194200   5.6407260 118.3282780
   7.2054040   6.0704420 118.5908570   8.4268400   6.2525670 117.7151830
  10.0819640   3.6954950 105.2283050  10.3568480   4.6033830 105.1002270
   9.8930380   3.6317480 106.1645040   8.0770250  10.3925860 111.8551050
   8.6729320  10.0710430 111.1785470   8.3348400   9.9197680 112.6464320
  10.9443010  10.3997740 118.4062040  10.4501290  10.7966610 117.6889170
  10.3356300   9.7746950 118.7999320   8.6282460  11.0421160 115.6848780
   8.1685430  11.7936970 115.3106800   7.9994920  10.3227630 115.6263580
   1.7973680  10.2417890 115.6865890   2.0851490   9.9872190 114.8098900
   2.3096900   9.6895250 116.2771460   1.8646040  11.1633990 123.0534090
   2.7913350  10.9278260 123.0970050   1.8496470  11.9905990 122.5720120
  10.0991100  10.7059560 110.0508340  10.2743290  10.0197300 109.4069260
   9.4012670  11.2306610 109.6585010   8.4323600  10.3903850 122.8775130
   9.2248920   9.8953080 122.6701090   8.7256750  11.0693990 123.4850740
   2.6901300   3.0403810  95.6400450   1.9143400   2.5604250  95.9299020
   3.3414230   2.3609460  95.4656610   6.7108730   7.4464000  94.4199580
   6.2490260   6.6751240  94.7486750   7.5234280   7.4730070  94.9252030
   2.9372040   9.7322010  94.0403570   2.3183480  10.1879510  93.4698010
   3.7923820   9.8873470  93.6393270   2.1310290   5.7161000  95.6470610
   2.0618570   4.7750940  95.4859740   2.8930150   5.8062410  96.2193180
   3.8035390   4.6161250  91.4335480   3.1852660   5.0810700  90.8698200
   4.3158640   5.3088730  91.8504990   8.7963840   7.5757330  97.8422900
   8.1127360   8.2456440  97.8339570   9.3358130   7.7737980  97.0767760
   6.3322580   9.4201460  96.5568080   6.3449740   9.0163750  95.6890340
   5.7797800  10.1948750  96.4529510   7.6268000   6.1417680  91.6458250
   7.5164330   5.1992010  91.7707670   7.6236250   6.5033320  92.5321010
   5.7308020   4.3231300  97.8850690   6.1476810   4.1091410  97.0504150
   6.4547840   4.5804090  98.4559310   3.1688280   1.7683000  91.0020740
   2.2417560   1.7020380  91.2309210   3.3213100   2.7063130  90.8875980
   9.6770120   2.7218520  97.9766930   8.8488750   2.7911610  97.5017060
  10.2720600   3.3072830  97.5082760   7.1985570   3.3303300  91.5055990
   6.5797990   2.9922850  90.8582290   7.1810020   2.6863060  92.2135180
   7.3312230   9.5547170  99.6102780   6.8542790  10.3619360  99.4175390
   6.6474020   8.9025500  99.7628990   5.3750270   2.5690110  88.5128740
   5.8143550   1.7312540  88.3666560   6.0878690   3.2019510  88.5992880
   3.4845650   7.5086180  92.4809980   3.9241560   8.2510510  92.0665370
   3.4232540   7.7512750  93.4048940  10.9111440   9.3159110 104.6794170
  11.3871160   9.7942000 105.3583250  11.5318600   9.2476600 103.9539670
  10.3144690   6.5071960 101.8394180  10.4407750   6.2683840 100.9211360
  10.3566070   5.6756500 102.3116260   4.1761430  10.2099960 100.4088990
   4.6906100  10.1207970 101.2111420   3.3330510  10.5559660 100.7016900
   6.1515830  10.4955300  89.8372990   5.9916970  10.2058240  90.7354820
   5.9862540   9.7195430  89.3018220   5.8541960   8.0042860  88.3970990
   5.1607120   8.0020150  87.7373270   6.5964820   7.5802180  87.9665160
   5.4191890   9.6305570  92.4719480   5.8748840   8.8494950  92.7858100
   5.7584410  10.3412390  93.0160660   7.9699700   3.8684990  95.9792100
   8.6898820   4.3640280  95.5888210   7.7681520   3.1902880  95.3345970
   3.3518500   3.9394050 101.8661100   3.2855810   3.0189720 101.6118690
   2.7223640   4.0369490 102.5805740   2.1418620   5.8066290  89.0971820
   2.4834320   6.5508520  88.6015140   1.3131330   6.1197410  89.4596650
   3.2835230   6.7614620 101.6164900   3.2979770   5.8295580 101.3983810
   2.5760330   6.8474380 102.2554670   9.4946440   3.4021960 100.9633480
   8.7694630   3.9950740 100.7662870  10.0221900   3.3945500 100.1646850
   9.4459550   7.7996700  90.6145640   8.8035710   7.1452320  90.8889360
   9.0590210   8.2051790  89.8386310   5.0246030   5.1282130  94.4617330
   5.3769850   4.5310260  93.8018700   4.1408360   4.8026360  94.6325580
   2.7169130   8.4032190  98.7105400   3.3611350   8.6091570  99.3878820
   3.0798570   7.6420590  98.2576250   3.9901210   6.4064540  97.4282850
   4.6323440   5.7057700  97.5415020   4.5150560   7.1862980  97.2479740
   7.8356930   6.6913160  87.1521990   7.6094510   5.9743600  87.7446630
   7.4453130   6.4425600  86.3143740   5.7638830   7.2059440 100.6318910
   6.0995070   7.7926130 101.3096830   4.8439170   7.0752150 100.8616700
   7.4173180   4.6085100  88.8136150   7.1294880   5.0697790  89.6014030
   8.2125350   4.1482870  89.0820370   2.6201180   8.1639460  87.4065310
   2.7213160   7.9603450  86.4767290   1.7202920   7.9097740  87.6113090
   9.2697450   8.7726510  95.3525750   9.3944870   9.5957680  95.8249560
  10.1363010   8.5617240  95.0049900   4.5837890   6.1583660 104.1603870
   3.9776050   6.1815260 103.4199620   4.2792000   5.4266700 104.6971120
   6.0138260   9.8863950 102.7713280   6.9660010   9.8021970 102.7213520
   5.8666480  10.5505660 103.4447070   8.9047460   9.2658160  88.2705190
   8.6188970   8.8523300  87.4559370   8.7067010  10.1945870  88.1505710
   3.6097420   4.3211470  87.3152790   3.0607520   4.7680770  87.9595530
   4.2316680   3.8160720  87.8390460   7.6632360   5.6753570 103.2475050
   8.4041830   6.0129330 102.7442510   6.9005040   5.8445630 102.6944820
   6.3378020   3.7268400 101.7830260   6.7519040   3.8813480 102.6320680
   5.4029020   3.8523620 101.9456040   5.7745050   1.9642250  99.7126540
   5.2480270   2.4884870  99.1091680   6.1176390   2.5969640 100.3436270
   2.3548210  10.3851610  88.7496930   3.2499000  10.7236580  88.7715690
   2.3865840   9.6631020  88.1221210   9.3342560   8.9155280 101.4563130
   8.7344550   8.9747840 100.7127050   9.4636460   7.9760260 101.5859980
  10.5744010   6.6573100  86.7932840   9.7436970   6.7249750  87.2640070
  10.7515840   7.5477220  86.4899700  10.0300470   3.4020580  89.2967040
  10.7919380   3.9717230  89.4026730  10.0454840   2.8347780  90.0675350
  11.0360440   4.2570680  94.1408970  11.4069270   3.4738000  93.7344940
  11.6762370   4.9459780  93.9626270   8.0194200   5.6407260  99.5539290
   7.2054040   6.0704420  99.8165080   8.4268400   6.2525670  98.9408340
  10.0819640   3.6954950  86.4539560  10.3568480   4.6033830  86.3258780
   9.8930380   3.6317480  87.3901550   8.0770250  10.3925860  93.0807560
   8.6729320  10.0710430  92.4041980   8.3348400   9.9197680  93.8720830
  10.9443010  10.3997740  99.6318550  10.4501290  10.7966610  98.9145680
  10.3356300   9.7746950 100.0255830   8.6282460  11.0421160  96.9105290
   8.1685430  11.7936970  96.5363310   7.9994920  10.3227630  96.8520090
   1.7973680  10.2417890  96.9122400   2.0851490   9.9872190  96.0355410
   2.3096900   9.6895250  97.5027970   1.8646040  11.1633990 104.2790600
   2.7913350  10.9278260 104.3226560   1.8496470  11.9905990 103.7976630
  10.0991100  10.7059560  91.2764850  10.2743290  10.0197300  90.6325770
   9.4012670  11.2306610  90.8841520   8.4323600  10.3903850 104.1031640
   9.2248920   9.8953080 103.8957600   8.7256750  11.0693990 104.7107250
   2.6901300   3.0403810  76.8656960   1.9143400   2.5604250  77.1555530
   3.3414230   2.3609460  76.6913120   6.7108730   7.4464000  75.6456090
   6.2490260   6.6751240  75.9743260   7.5234280   7.4730070  76.1508540
   2.9372040   9.7322010  75.2660080   2.3183480  10.1879510  74.6954520
   3.7923820   9.8873470  74.8649780   2.1310290   5.7161000  76.8727120
   2.0618570   4.7750940  76.7116250   2.8930150   5.8062410  77.4449690
   3.8035390   4.6161250  72.6591990   3.1852660   5.0810700  72.0954710
   4.3158640   5.3088730  73.0761500   8.7963840   7.5757330  79.0679410
   8.1127360   8.2456440  79.0596080   9.3358130   7.7737980  78.3024270
   6.3322580   9.4201460  77.7824590   6.3449740   9.0163750  76.9146850
   5.7797800  10.1948750  77.6786020   7.6268000   6.1417680  72.8714760
   7.5164330   5.1992010  72.9964180   7.6236250   6.5033320  73.7577520
   5.7308020   4.3231300  79.1107200   6.1476810   4.1091410  78.2760660
   6.4547840   4.5804090  79.6815820   3.1688280   1.7683000  72.2277250
   2.2417560   1.7020380  72.4565720   3.3213100   2.7063130  72.1132490
   9.6770120   2.7218520  79.2023440   8.8488750   2.7911610  78.7273570
  10.2720600   3.3072830  78.7339270   7.1985570   3.3303300  72.7312500
   6.5797990   2.9922850  72.0838800   7.1810020   2.6863060  73.4391690
   7.3312230   9.5547170  80.8359290   6.8542790  10.3619360  80.6431900
   6.6474020   8.9025500  80.9885500   5.3750270   2.5690110  69.7385250
   5.8143550   1.7312540  69.5923070   6.0878690   3.2019510  69.8249390
   3.4845650   7.5086180  73.7066490   3.9241560   8.2510510  73.2921880
   3.4232540   7.7512750  74.6305450  10.9111440   9.3159110  85.9050680
  11.3871160   9.7942000  86.5839760  11.5318600   9.2476600  85.1796180
  10.3144690   6.5071960  83.0650690  10.4407750   6.2683840  82.1467870
  10.3566070   5.6756500  83.5372770   4.1761430  10.2099960  81.6345500
   4.6906100  10.1207970  82.4367930   3.3330510  10.5559660  81.9273410
   6.1515830  10.4955300  71.0629500   5.9916970  10.2058240  71.9611330
   5.9862540   9.7195430  70.5274730   5.8541960   8.0042860  69.6227500
   5.1607120   8.0020150  68.9629780   6.5964820   7.5802180  69.1921670
   5.4191890   9.6305570  73.6975990   5.8748840   8.8494950  74.0114610
   5.7584410  10.3412390  74.2417170   7.9699700   3.8684990  77.2048610
   8.6898820   4.3640280  76.8144720   7.7681520   3.1902880  76.5602480
   3.3518500   3.9394050  83.0917610   3.2855810   3.0189720  82.8375200
   2.7223640   4.0369490  83.8062250   2.1418620   5.8066290  70.3228330
   2.4834320   6.5508520  69.8271650   1.3131330   6.1197410  70.6853160
   3.2835230   6.7614620  82.8421410   3.2979770   5.8295580  82.6240320
   2.5760330   6.8474380  83.4811180   9.4946440   3.4021960  82.1889990
   8.7694630   3.9950740  81.9919380  10.0221900   3.3945500  81.3903360
   9.4459550   7.7996700  71.8402150   8.8035710   7.1452320  72.1145870
   9.0590210   8.2051790  71.0642820   5.0246030   5.1282130  75.6873840
   5.3769850   4.5310260  75.0275210   4.1408360   4.8026360  75.8582090
   2.7169130   8.4032190  79.9361910   3.3611350   8.6091570  80.6135330
   3.0798570   7.6420590  79.4832760   3.9901210   6.4064540  78.6539360
   4.6323440   5.7057700  78.7671530   4.5150560   7.1862980  78.4736250
   7.8356930   6.6913160  68.3778500   7.6094510   5.9743600  68.9703140
   7.4453130   6.4425600  67.5400250   5.7638830   7.2059440  81.8575420
   6.0995070   7.7926130  82.5353340   4.8439170   7.0752150  82.0873210
   7.4173180   4.6085100  70.0392660   7.1294880   5.0697790  70.8270540
   8.2125350   4.1482870  70.3076880   2.6201180   8.1639460  68.6321820
   2.7213160   7.9603450  67.7023800   1.7202920   7.9097740  68.8369600
   9.2697450   8.7726510  76.5782260   9.3944870   9.5957680  77.0506070
  10.1363010   8.5617240  76.2306410   4.5837890   6.1583660  85.3860380
   3.9776050   6.1815260  84.6456130   4.2792000   5.4266700  85.9227630
   6.0138260   9.8863950  83.9969790   6.9660010   9.8021970  83.9470030
   5.8666480  10.5505660  84.6703580   8.9047460   9.2658160  69.4961700
   8.6188970   8.8523300  68.6815880   8.7067010  10.1945870  69.3762220
   3.6097420   4.3211470  68.5409300   3.0607520   4.7680770  69.1852040
   4.2316680   3.8160720  69.0646970   7.6632360   5.6753570  84.4731560
   8.4041830   6.0129330  83.9699020   6.9005040   5.8445630  83.9201330
   6.3378020   3.7268400  83.0086770   6.7519040   3.8813480  83.8577190
   5.4029020   3.8523620  83.1712550   5.7745050   1.9642250  80.9383050
   5.2480270   2.4884870  80.3348190   6.1176390   2.5969640  81.5692780
   2.3548210  10.3851610  69.9753440   3.2499000  10.7236580  69.9972200
   2.3865840   9.6631020  69.3477720   9.3342560   8.9155280  82.6819640
   8.7344550   8.9747840  81.9383560   9.4636460   7.9760260  82.8116490
  10.5744010   6.6573100  68.0189350   9.7436970   6.7249750  68.4896580
  10.7515840   7.5477220  67.7156210  10.0300470   3.4020580  70.5223550
  10.7919380   3.9717230  70.6283240  10.0454840   2.8347780  71.2931860
  11.0360440   4.2570680  75.3665480  11.4069270   3.4738000  74.9601450
  11.6762370   4.9459780  75.1882780   8.0194200   5.6407260  80.7795800
   7.2054040   6.0704420  81.0421590   8.4268400   6.2525670  80.1664850
  10.0819640   3.6954950  67.6796070  10.3568480   4.6033830  67.5515290
   9.8930380   3.6317480  68.6158060   8.0770250  10.3925860  74.3064070
   8.6729320  10.0710430  73.6298490   8.3348400   9.9197680  75.0977340
  10.9443010  10.3997740  80.8575060  10.4501290  10.7966610  80.1402190
  10.3356300   9.7746950  81.2512340   8.6282460  11.0421160  78.1361800
   8.1685430  11.7936970  77.7619820   7.9994920  10.3227630  78.0776600
   1.7973680  10.2417890  78.1378910   2.0851490   9.9872190  77.2611920
   2.3096900   9.6895250  78.7284480   1.8646040  11.1633990  85.5047110
   2.7913350  10.9278260  85.5483070   1.8496470  11.9905990  85.0233140
  10.0991100  10.7059560  72.5021360  10.2743290  10.0197300  71.8582280
   9.4012670  11.2306610  72.1098030   8.4323600  10.3903850  85.3288150
   9.2248920   9.8953080  85.1214110   8.7256750  11.0693990  85.9363760
   2.6901300   3.0403810  58.0913470   1.9143400   2.5604250  58.3812040
   3.3414230   2.3609460  57.9169630   6.7108730   7.4464000  56.8712600
   6.2490260   6.6751240  57.1999770   7.5234280   7.4730070  57.3765050
   2.9372040   9.7322010  56.4916590   2.3183480  10.1879510  55.9211030
   3.7923820   9.8873470  56.0906290   2.1310290   5.7161000  58.0983630
   2.0618570   4.7750940  57.9372760   2.8930150   5.8062410  58.6706200
   3.8035390   4.6161250  53.8848500   3.1852660   5.0810700  53.3211220
   4.3158640   5.3088730  54.3018010   8.7963840   7.5757330  60.2935920
   8.1127360   8.2456440  60.2852590   9.3358130   7.7737980  59.5280780
   6.3322580   9.4201460  59.0081100   6.3449740   9.0163750  58.1403360
   5.7797800  10.1948750  58.9042530   7.6268000   6.1417680  54.0971270
   7.5164330   5.1992010  54.2220690   7.6236250   6.5033320  54.9834030
   5.7308020   4.3231300  60.3363710   6.1476810   4.1091410  59.5017170
   6.4547840   4.5804090  60.9072330   3.1688280   1.7683000  53.4533760
   2.2417560   1.7020380  53.6822230   3.3213100   2.7063130  53.3389000
   9.6770120   2.7218520  60.4279950   8.8488750   2.7911610  59.9530080
  10.2720600   3.3072830  59.9595780   7.1985570   3.3303300  53.9569010
   6.5797990   2.9922850  53.3095310   7.1810020   2.6863060  54.6648200
   7.3312230   9.5547170  62.0615800   6.8542790  10.3619360  61.8688410
   6.6474020   8.9025500  62.2142010   5.3750270   2.5690110  50.9641760
   5.8143550   1.7312540  50.8179580   6.0878690   3.2019510  51.0505900
   3.4845650   7.5086180  54.9323000   3.9241560   8.2510510  54.5178390
   3.4232540   7.7512750  55.8561960  10.9111440   9.3159110  67.1307190
  11.3871160   9.7942000  67.8096270  11.5318600   9.2476600  66.4052690
  10.3144690   6.5071960  64.2907200  10.4407750   6.2683840  63.3724380
  10.3566070   5.6756500  64.7629280   4.1761430  10.2099960  62.8602010
   4.6906100  10.1207970  63.6624440   3.3330510  10.5559660  63.1529920
   6.1515830  10.4955300  52.2886010   5.9916970  10.2058240  53.1867840
   5.9862540   9.7195430  51.7531240   5.8541960   8.0042860  50.8484010
   5.1607120   8.0020150  50.1886290   6.5964820   7.5802180  50.4178180
   5.4191890   9.6305570  54.9232500   5.8748840   8.8494950  55.2371120
   5.7584410  10.3412390  55.4673680   7.9699700   3.8684990  58.4305120
   8.6898820   4.3640280  58.0401230   7.7681520   3.1902880  57.7858990
   3.3518500   3.9394050  64.3174120   3.2855810   3.0189720  64.0631710
   2.7223640   4.0369490  65.0318760   2.1418620   5.8066290  51.5484840
   2.4834320   6.5508520  51.0528160   1.3131330   6.1197410  51.9109670
   3.2835230   6.7614620  64.0677920   3.2979770   5.8295580  63.8496830
   2.5760330   6.8474380  64.7067690   9.4946440   3.4021960  63.4146500
   8.7694630   3.9950740  63.2175890  10.0221900   3.3945500  62.6159870
   9.4459550   7.7996700  53.0658660   8.8035710   7.1452320  53.3402380
   9.0590210   8.2051790  52.2899330   5.0246030   5.1282130  56.9130350
   5.3769850   4.5310260  56.2531720   4.1408360   4.8026360  57.0838600
   2.7169130   8.4032190  61.1618420   3.3611350   8.6091570  61.8391840
   3.0798570   7.6420590  60.7089270   3.9901210   6.4064540  59.8795870
   4.6323440   5.7057700  59.9928040   4.5150560   7.1862980  59.6992760
   7.8356930   6.6913160  49.6035010   7.6094510   5.9743600  50.1959650
   7.4453130   6.4425600  48.7656760   5.7638830   7.2059440  63.0831930
   6.0995070   7.7926130  63.7609850   4.8439170   7.0752150  63.3129720
   7.4173180   4.6085100  51.2649170   7.1294880   5.0697790  52.0527050
   8.2125350   4.1482870  51.5333390   2.6201180   8.1639460  49.8578330
   2.7213160   7.9603450  48.9280310   1.7202920   7.9097740  50.0626110
   9.2697450   8.7726510  57.8038770   9.3944870   9.5957680  58.2762580
  10.1363010   8.5617240  57.4562920   4.5837890   6.1583660  66.6116890
   3.9776050   6.1815260  65.8712640   4.2792000   5.4266700  67.1484140
   6.0138260   9.8863950  65.2226300   6.9660010   9.8021970  65.1726540
   5.8666480  10.5505660  65.8960090   8.9047460   9.2658160  50.7218210
   8.6188970   8.8523300  49.9072390   8.7067010  10.1945870  50.6018730
   3.6097420   4.3211470  49.7665810   3.0607520   4.7680770  50.4108550
   4.2316680   3.8160720  50.2903480   7.6632360   5.6753570  65.6988070
   8.4041830   6.0129330  65.1955530   6.9005040   5.8445630  65.1457840
   6.3378020   3.7268400  64.2343280   6.7519040   3.8813480  65.0833700
   5.4029020   3.8523620  64.3969060   5.7745050   1.9642250  62.1639560
   5.2480270   2.4884870  61.5604700   6.1176390   2.5969640  62.7949290
   2.3548210  10.3851610  51.2009950   3.2499000  10.7236580  51.2228710
   2.3865840   9.6631020  50.5734230   9.3342560   8.9155280  63.9076150
   8.7344550   8.9747840  63.1640070   9.4636460   7.9760260  64.0373000
  10.5744010   6.6573100  49.2445860   9.7436970   6.7249750  49.7153090
  10.7515840   7.5477220  48.9412720  10.0300470   3.4020580  51.7480060
  10.7919380   3.9717230  51.8539750  10.0454840   2.8347780  52.5188370
  11.0360440   4.2570680  56.5921990  11.4069270   3.4738000  56.1857960
  11.6762370   4.9459780  56.4139290   8.0194200   5.6407260  62.0052310
   7.2054040   6.0704420  62.2678100   8.4268400   6.2525670  61.3921360
  10.0819640   3.6954950  48.9052580  10.3568480   4.6033830  48.7771800
   9.8930380   3.6317480  49.8414570   8.0770250  10.3925860  55.5320580
   8.6729320  10.0710430  54.8555000   8.3348400   9.9197680  56.3233850
  10.9443010  10.3997740  62.0831570  10.4501290  10.7966610  61.3658700
  10.3356300   9.7746950  62.4768850   8.6282460  11.0421160  59.3618310
   8.1685430  11.7936970  58.9876330   7.9994920  10.3227630  59.3033110
   1.7973680  10.2417890  59.3635420   2.0851490   9.9872190  58.4868430
   2.3096900   9.6895250  59.9540990   1.8646040  11.1633990  66.7303620
   2.7913350  10.9278260  66.7739580   1.8496470  11.9905990  66.2489650
  10.0991100  10.7059560  53.7277870  10.2743290  10.0197300  53.0838790
   9.4012670  11.2306610  53.3354540   8.4323600  10.3903850  66.5544660
   9.2248920   9.8953080  66.3470620   8.7256750  11.0693990  67.1620270
   2.6901300   3.0403810  39.3169980   1.9143400   2.5604250  39.6068550
   3.3414230   2.3609460  39.1426140   6.7108730   7.4464000  38.0969110
   6.2490260   6.6751240  38.4256280   7.5234280   7.4730070  38.6021560
   2.9372040   9.7322010  37.7173100   2.3183480  10.1879510  37.1467540
   3.7923820   9.8873470  37.3162800   2.1310290   5.7161000  39.3240140
   2.0618570   4.7750940  39.1629270   2.8930150   5.8062410  39.8962710
   3.8035390   4.6161250  35.1105010   3.1852660   5.0810700  34.5467730
   4.3158640   5.3088730  35.5274520   8.7963840   7.5757330  41.5192430
   8.1127360   8.2456440  41.5109100   9.3358130   7.7737980  40.7537290
   6.3322580   9.4201460  40.2337610   6.3449740   9.0163750  39.3659870
   5.7797800  10.1948750  40.1299040   7.6268000   6.1417680  35.3227780
   7.5164330   5.1992010  35.4477200   7.6236250   6.5033320  36.2090540
   5.7308020   4.3231300  41.5620220   6.1476810   4.1091410  40.7273680
   6.4547840   4.5804090  42.1328840   3.1688280   1.7683000  34.6790270
   2.2417560   1.7020380  34.9078740   3.3213100   2.7063130  34.5645510
   9.6770120   2.7218520  41.6536460   8.8488750   2.7911610  41.1786590
  10.2720600   3.3072830  41.1852290   7.1985570   3.3303300  35.1825520
   6.5797990   2.9922850  34.5351820   7.1810020   2.6863060  35.8904710
   7.3312230   9.5547170  43.2872310   6.8542790  10.3619360  43.0944920
   6.6474020   8.9025500  43.4398520   5.3750270   2.5690110  32.1898270
   5.8143550   1.7312540  32.0436090   6.0878690   3.2019510  32.2762410
   3.4845650   7.5086180  36.1579510   3.9241560   8.2510510  35.7434900
   3.4232540   7.7512750  37.0818470  10.9111440   9.3159110  48.3563700
  11.3871160   9.7942000  49.0352780  11.5318600   9.2476600  47.6309200
  10.3144690   6.5071960  45.5163710  10.4407750   6.2683840  44.5980890
  10.3566070   5.6756500  45.9885790   4.1761430  10.2099960  44.0858520
   4.6906100  10.1207970  44.8880950   3.3330510  10.5559660  44.3786430
   6.1515830  10.4955300  33.5142520   5.9916970  10.2058240  34.4124350
   5.9862540   9.7195430  32.9787750   5.8541960   8.0042860  32.0740520
   5.1607120   8.0020150  31.4142800   6.5964820   7.5802180  31.6434690
   5.4191890   9.6305570  36.1489010   5.8748840   8.8494950  36.4627630
   5.7584410  10.3412390  36.6930190   7.9699700   3.8684990  39.6561630
   8.6898820   4.3640280  39.2657740   7.7681520   3.1902880  39.0115500
   3.3518500   3.9394050  45.5430630   3.2855810   3.0189720  45.2888220
   2.7223640   4.0369490  46.2575270   2.1418620   5.8066290  32.7741350
   2.4834320   6.5508520  32.2784670   1.3131330   6.1197410  33.1366180
   3.2835230   6.7614620  45.2934430   3.2979770   5.8295580  45.0753340
   2.5760330   6.8474380  45.9324200   9.4946440   3.4021960  44.6403010
   8.7694630   3.9950740  44.4432400  10.0221900   3.3945500  43.8416380
   9.4459550   7.7996700  34.2915170   8.8035710   7.1452320  34.5658890
   9.0590210   8.2051790  33.5155840   5.0246030   5.1282130  38.1386860
   5.3769850   4.5310260  37.4788230   4.1408360   4.8026360  38.3095110
   2.7169130   8.4032190  42.3874930   3.3611350   8.6091570  43.0648350
   3.0798570   7.6420590  41.9345780   3.9901210   6.4064540  41.1052380
   4.6323440   5.7057700  41.2184550   4.5150560   7.1862980  40.9249270
   7.8356930   6.6913160  30.8291520   7.6094510   5.9743600  31.4216160
   7.4453130   6.4425600  29.9913270   5.7638830   7.2059440  44.3088440
   6.0995070   7.7926130  44.9866360   4.8439170   7.0752150  44.5386230
   7.4173180   4.6085100  32.4905680   7.1294880   5.0697790  33.2783560
   8.2125350   4.1482870  32.7589900   2.6201180   8.1639460  31.0834840
   2.7213160   7.9603450  30.1536820   1.7202920   7.9097740  31.2882620
   9.2697450   8.7726510  39.0295280   9.3944870   9.5957680  39.5019090
  10.1363010   8.5617240  38.6819430   4.5837890   6.1583660  47.8373400
   3.9776050   6.1815260  47.0969150   4.2792000   5.4266700  48.3740650
   6.0138260   9.8863950  46.4482810   6.9660010   9.8021970  46.3983050
   5.8666480  10.5505660  47.1216600   8.9047460   9.2658160  31.9474720
   8.6188970   8.8523300  31.1328900   8.7067010  10.1945870  31.8275240
   3.6097420   4.3211470  30.9922320   3.0607520   4.7680770  31.6365060
   4.2316680   3.8160720  31.5159990   7.6632360   5.6753570  46.9244580
   8.4041830   6.0129330  46.4212040   6.9005040   5.8445630  46.3714350
   6.3378020   3.7268400  45.4599790   6.7519040   3.8813480  46.3090210
   5.4029020   3.8523620  45.6225570   5.7745050   1.9642250  43.3896070
   5.2480270   2.4884870  42.7861210   6.1176390   2.5969640  44.0205800
   2.3548210  10.3851610  32.4266460   3.2499000  10.7236580  32.4485220
   2.3865840   9.6631020  31.7990740   9.3342560   8.9155280  45.1332660
   8.7344550   8.9747840  44.3896580   9.4636460   7.9760260  45.2629510
  10.5744010   6.6573100  30.4702370   9.7436970   6.7249750  30.9409600
  10.7515840   7.5477220  30.1669230  10.0300470   3.4020580  32.9736570
  10.7919380   3.9717230  33.0796260  10.0454840   2.8347780  33.7444880
  11.0360440   4.2570680  37.8178500  11.4069270   3.4738000  37.4114470
  11.6762370   4.9459780  37.6395800   8.0194200   5.6407260  43.2308820
   7.2054040   6.0704420  43.4934610   8.4268400   6.2525670  42.6177870
  10.0819640   3.6954950  30.1309090  10.3568480   4.6033830  30.0028310
   9.8930380   3.6317480  31.0671080   8.0770250  10.3925860  36.7577090
   8.6729320  10.0710430  36.0811510   8.3348400   9.9197680  37.5490360
  10.9443010  10.3997740  43.3088080  10.4501290  10.7966610  42.5915210
  10.3356300   9.7746950  43.7025360   8.6282460  11.0421160  40.5874820
   8.1685430  11.7936970  40.2132840   7.9994920  10.3227630  40.5289620
   1.7973680  10.2417890  40.5891930   2.0851490   9.9872190  39.7124940
   2.3096900   9.6895250  41.1797500   1.8646040  11.1633990  47.9560130
   2.7913350  10.9278260  47.9996090   1.8496470  11.9905990  47.4746160
  10.0991100  10.7059560  34.9534380  10.2743290  10.0197300  34.3095300
   9.4012670  11.2306610  34.5611050   8.4323600  10.3903850  47.7801170
   9.2248920   9.8953080  47.5727130   8.7256750  11.0693990  48.3876780
   2.6901300   3.0403810  20.5426490   1.9143400   2.5604250  20.8325060
   3.3414230   2.3609460  20.3682650   6.7108730   7.4464000  19.3225620
   6.2490260   6.6751240  19.6512790   7.5234280   7.4730070  19.8278070
   2.9372040   9.7322010  18.9429610   2.3183480  10.1879510  18.3724050
   3.7923820   9.8873470  18.5419310   2.1310290   5.7161000  20.5496650
   2.0618570   4.7750940  20.3885780   2.8930150   5.8062410  21.1219220
   3.8035390   4.6161250  16.3361520   3.1852660   5.0810700  15.7724240
   4.3158640   5.3088730  16.7531030   8.7963840   7.5757330  22.7448940
   8.1127360   8.2456440  22.7365610   9.3358130   7.7737980  21.9793800
   6.3322580   9.4201460  21.4594120   6.3449740   9.0163750  20.5916380
   5.7797800  10.1948750  21.3555550   7.6268000   6.1417680  16.5484290
   7.5164330   5.1992010  16.6733710   7.6236250   6.5033320  17.4347050
   5.7308020   4.3231300  22.7876730   6.1476810   4.1091410  21.9530190
   6.4547840   4.5804090  23.3585350   3.1688280   1.7683000  15.9046780
   2.2417560   1.7020380  16.1335250   3.3213100   2.7063130  15.7902020
   9.6770120   2.7218520  22.8792970   8.8488750   2.7911610  22.4043100
  10.2720600   3.3072830  22.4108800   7.1985570   3.3303300  16.4082030
   6.5797990   2.9922850  15.7608330   7.1810020   2.6863060  17.1161220
   7.3312230   9.5547170  24.5128820   6.8542790  10.3619360  24.3201430
   6.6474020   8.9025500  24.6655030   5.3750270   2.5690110  13.4154780
   5.8143550   1.7312540  13.2692600   6.0878690   3.2019510  13.5018920
   3.4845650   7.5086180  17.3836020   3.9241560   8.2510510  16.9691410
   3.4232540   7.7512750  18.3074980  10.9111440   9.3159110  29.5820210
  11.3871160   9.7942000  30.2609290  11.5318600   9.2476600  28.8565710
  10.3144690   6.5071960  26.7420220  10.4407750   6.2683840  25.8237400
  10.3566070   5.6756500  27.2142300   4.1761430  10.2099960  25.3115030
   4.6906100  10.1207970  26.1137460   3.3330510  10.5559660  25.6042940
   6.1515830  10.4955300  14.7399030   5.9916970  10.2058240  15.6380860
   5.9862540   9.7195430  14.2044260   5.8541960   8.0042860  13.2997030
   5.1607120   8.0020150  12.6399310   6.5964820   7.5802180  12.8691200
   5.4191890   9.6305570  17.3745520   5.8748840   8.8494950  17.6884140
   5.7584410  10.3412390  17.9186700   7.9699700   3.8684990  20.8818140
   8.6898820   4.3640280  20.4914250   7.7681520   3.1902880  20.2372010
   3.3518500   3.9394050  26.7687140   3.2855810   3.0189720  26.5144730
   2.7223640   4.0369490  27.4831780   2.1418620   5.8066290  13.9997860
   2.4834320   6.5508520  13.5041180   1.3131330   6.1197410  14.3622690
   3.2835230   6.7614620  26.5190940   3.2979770   5.8295580  26.3009850
   2.5760330   6.8474380  27.1580710   9.4946440   3.4021960  25.8659520
   8.7694630   3.9950740  25.6688910  10.0221900   3.3945500  25.0672890
   9.4459550   7.7996700  15.5171680   8.8035710   7.1452320  15.7915400
   9.0590210   8.2051790  14.7412350   5.0246030   5.1282130  19.3643370
   5.3769850   4.5310260  18.7044740   4.1408360   4.8026360  19.5351620
   2.7169130   8.4032190  23.6131440   3.3611350   8.6091570  24.2904860
   3.0798570   7.6420590  23.1602290   3.9901210   6.4064540  22.3308890
   4.6323440   5.7057700  22.4441060   4.5150560   7.1862980  22.1505780
   7.8356930   6.6913160  12.0548030   7.6094510   5.9743600  12.6472670
   7.4453130   6.4425600  11.2169780   5.7638830   7.2059440  25.5344950
   6.0995070   7.7926130  26.2122870   4.8439170   7.0752150  25.7642740
   7.4173180   4.6085100  13.7162190   7.1294880   5.0697790  14.5040070
   8.2125350   4.1482870  13.9846410   2.6201180   8.1639460  12.3091350
   2.7213160   7.9603450  11.3793330   1.7202920   7.9097740  12.5139130
   9.2697450   8.7726510  20.2551790   9.3944870   9.5957680  20.7275600
  10.1363010   8.5617240  19.9075940   4.5837890   6.1583660  29.0629910
   3.9776050   6.1815260  28.3225660   4.2792000   5.4266700  29.5997160
   6.0138260   9.8863950  27.6739320   6.9660010   9.8021970  27.6239560
   5.8666480  10.5505660  28.3473110   8.9047460   9.2658160  13.1731230
   8.6188970   8.8523300  12.3585410   8.7067010  10.1945870  13.0531750
   3.6097420   4.3211470  12.2178830   3.0607520   4.7680770  12.8621570
   4.2316680   3.8160720  12.7416500   7.6632360   5.6753570  28.1501090
   8.4041830   6.0129330  27.6468550   6.9005040   5.8445630  27.5970860
   6.3378020   3.7268400  26.6856300   6.7519040   3.8813480  27.5346720
   5.4029020   3.8523620  26.8482080   5.7745050   1.9642250  24.6152580
   5.2480270   2.4884870  24.0117720   6.1176390   2.5969640  25.2462310
   2.3548210  10.3851610  13.6522970   3.2499000  10.7236580  13.6741730
   2.3865840   9.6631020  13.0247250   9.3342560   8.9155280  26.3589170
   8.7344550   8.9747840  25.6153090   9.4636460   7.9760260  26.4886020
  10.5744010   6.6573100  11.6958880   9.7436970   6.7249750  12.1666110
  10.7515840   7.5477220  11.3925740  10.0300470   3.4020580  14.1993080
  10.7919380   3.9717230  14.3052770  10.0454840   2.8347780  14.9701390
  11.0360440   4.2570680  19.0435010  11.4069270   3.4738000  18.6370980
  11.6762370   4.9459780  18.8652310   8.0194200   5.6407260  24.4565330
   7.2054040   6.0704420  24.7191120   8.4268400   6.2525670  23.8434380
  10.0819640   3.6954950  11.3565600  10.3568480   4.6033830  11.2284820
   9.8930380   3.6317480  12.2927590   8.0770250  10.3925860  17.9833600
   8.6729320  10.0710430  17.3068020   8.3348400   9.9197680  18.7746870
  10.9443010  10.3997740  24.5344590  10.4501290  10.7966610  23.8171720
  10.3356300   9.7746950  24.9281870   8.6282460  11.0421160  21.8131330
   8.1685430  11.7936970  21.4389350   7.9994920  10.3227630  21.7546130
   1.7973680  10.2417890  21.8148440   2.0851490   9.9872190  20.9381450
   2.3096900   9.6895250  22.4054010   1.8646040  11.1633990  29.1816640
   2.7913350  10.9278260  29.2252600   1.8496470  11.9905990  28.7002670
  10.0991100  10.7059560  16.1790890  10.2743290  10.0197300  15.5351810
   9.4012670  11.2306610  15.7867560   8.4323600  10.3903850  29.0057680
   9.2248920   9.8953080  28.7983640   8.7256750  11.0693990  29.6133290
   2.6901300   3.0403810   1.7683000   1.9143400   2.5604250   2.0581570
   3.3414230   2.3609460   1.5939160   2.1310290   5.7161000   1.7753160
   2.0618570   4.7750940   1.6142290   2.8930150   5.8062410   2.3475730
   8.7963840   7.5757330   3.9705450   8.1127360   8.2456440   3.9622120
   9.3358130   7.7737980   3.2050310   6.3322580   9.4201460   2.6850630
   6.3449740   9.0163750   1.8172890   5.7797800  10.1948750   2.5812060
   5.7308020   4.3231300   4.0133240   6.1476810   4.1091410   3.1786700
   6.4547840   4.5804090   4.5841860   9.6770120   2.7218520   4.1049480
   8.8488750   2.7911610   3.6299610  10.2720600   3.3072830   3.6365310
   7.3312230   9.5547170   5.7385330   6.8542790  10.3619360   5.5457940
   6.6474020   8.9025500   5.8911540  10.9111440   9.3159110  10.8076720
  11.3871160   9.7942000  11.4865800  11.5318600   9.2476600  10.0822220
  10.3144690   6.5071960   7.9676730  10.4407750   6.2683840   7.0493910
  10.3566070   5.6756500   8.4398810   4.1761430  10.2099960   6.5371540
   4.6906100  10.1207970   7.3393970   3.3330510  10.5559660   6.8299450
   7.9699700   3.8684990   2.1074650   8.6898820   4.3640280   1.7170760
   7.7681520   3.1902880   1.4628520   3.3518500   3.9394050   7.9943650
   3.2855810   3.0189720   7.7401240   2.7223640   4.0369490   8.7088290
   3.2835230   6.7614620   7.7447450   3.2979770   5.8295580   7.5266360
   2.5760330   6.8474380   8.3837220   9.4946440   3.4021960   7.0916030
   8.7694630   3.9950740   6.8945420  10.0221900   3.3945500   6.2929400
   2.7169130   8.4032190   4.8387950   3.3611350   8.6091570   5.5161370
   3.0798570   7.6420590   4.3858800   3.9901210   6.4064540   3.5565400
   4.6323440   5.7057700   3.6697570   4.5150560   7.1862980   3.3762290
   5.7638830   7.2059440   6.7601460   6.0995070   7.7926130   7.4379380
   4.8439170   7.0752150   6.9899250   4.5837890   6.1583660  10.2886420
   3.9776050   6.1815260   9.5482170   4.2792000   5.4266700  10.8253670
   6.0138260   9.8863950   8.8995830   6.9660010   9.8021970   8.8496070
   5.8666480  10.5505660   9.5729620   7.6632360   5.6753570   9.3757600
   8.4041830   6.0129330   8.8725060   6.9005040   5.8445630   8.8227370
   6.3378020   3.7268400   7.9112810   6.7519040   3.8813480   8.7603230
   5.4029020   3.8523620   8.0738590   5.7745050   1.9642250   5.8409090
   5.2480270   2.4884870   5.2374230   6.1176390   2.5969640   6.4718820
   9.3342560   8.9155280   7.5845680   8.7344550   8.9747840   6.8409600
   9.4636460   7.9760260   7.7142530   8.0194200   5.6407260   5.6821840
   7.2054040   6.0704420   5.9447630   8.4268400   6.2525670   5.0690890
  10.9443010  10.3997740   5.7601100  10.4501290  10.7966610   5.0428230
  10.3356300   9.7746950   6.1538380   8.6282460  11.0421160   3.0387840
   8.1685430  11.7936970   2.6645860   7.9994920  10.3227630   2.9802640
   1.7973680  10.2417890   3.0404950   2.0851490   9.9872190   2.1637960
   2.3096900   9.6895250   3.6310520   1.8646040  11.1633990  10.4073150
   2.7913350  10.9278260  10.4509110   1.8496470  11.9905990   9.9259180
   8.4323600  10.3903850  10.2314190   9.2248920   9.8953080  10.0240150
   8.7256750  11.0693990  10.8389800
 154.1913940 154.2742000 153.1156350  90.0000000  90.0000000  90.0000000
